<?xml version="1.0"?>
<VTKFile type="UnstructuredGrid" version="0.1" byte_order="LittleEndian">
  <UnstructuredGrid>
    <Piece NumberOfCells="3667" NumberOfPoints="3794">
      <PointData Scalars="Sn">
        <DataArray type="Float32" Name="Sn" NumberOfComponents="1" format="ascii">
          0.696176 0.68271 0.743451 0.740974 0.673296 0.652759 0.72119 0.694847 0.682718 0.667785 0.653779 0.744785
          0.738929 0.712033 0.747016 0.688336 0.734757 0.687334 0.710613 0.814274 0.691327 0.655611 0.671232 0.634793
          0.805757 0.796863 0.807737 0.613979 0.593736 0.632223 0.59958 0.631316 0.598153 0.695856 0.679085 0.651432
          0.65963 0.609591 0.735576 0.722202 0.729468 0.677818 0.640487 0.735789 0.691065 0.664809 0.622898 0.731878
          0.661435 0.630882 0.629407 0.602282 0.805119 0.80572 0.807069 0.684772 0.814075 0.658725 0.829468 0.651959
          0.802114 0.628124 0.706631 0.751492 0.677195 0.714227 0.693371 0.7466 0.662539 0.686173 0.670083 0.654377
          0.630722 0.741358 0.736535 0.705108 0.688315 0.815051 0.659768 0.818685 0.649089 0.813793 0.626222 0.677458
          0.811131 0.639956 0.649644 0.811285 0.696642 0.669982 0.676047 0.630238 0.74464 0.732025 0.737941 0.649764
          0.650683 0.658811 0.817 0.637296 0.622851 0.639407 0.705872 0.682463 0.687254 0.645394 0.752313 0.742689
          0.745757 0.689285 0.811945 0.652222 0.812854 0.661603 0.811651 0.628476 0.681591 0.651175 0.672526 0.640959
          0.739543 0.734724 0.648644 0.65204 0.615261 0.620451 0.646823 0.612121 0.720493 0.721976 0.719687 0.638847
          0.60373 0.643154 0.608244 0.713808 0.716317 0.636032 0.600805 0.712001 0.635818 0.635449 0.59978 0.598533
          0.711632 0.71129 0.661561 0.822417 0.654116 0.816577 0.63676 0.632002 0.637911 0.821175 0.641676 0.816809
          0.615466 0.633907 0.815404 0.634019 0.597043 0.710543 0.633852 0.59742 0.710934 0.63994 0.626987 0.815888
          0.809399 0.654488 0.814028 0.606037 0.604952 0.607789 0.65123 0.720894 0.658304 0.640658 0.643484 0.6193
          0.810716 0.803865 0.78566 0.784102 0.652303 0.621324 0.647525 0.615906 0.721786 0.718863 0.659021 0.726798
          0.66731 0.634048 0.732791 0.643621 0.812973 0.626399 0.630767 0.636006 0.610787 0.622817 0.617668 0.709896
          0.713753 0.700051 0.648244 0.612695 0.651026 0.614588 0.720599 0.72224 0.663238 0.666625 0.727592 0.729716
          0.646979 0.714445 0.665129 0.66342 0.728082 0.727027 0.673012 0.810421 0.655972 0.617805 0.807325 0.61608
          0.808028 0.59853 0.658342 0.669724 0.653794 0.62362 0.803519 0.604716 0.63215 0.794855 0.60663 0.656726
          0.626562 0.724316 0.66286 0.632928 0.728398 0.670274 0.810521 0.682136 0.804126 0.642579 0.61106 0.640414
          0.716146 0.71574 0.621436 0.620066 0.809857 0.808962 0.623347 0.803496 0.644787 0.632446 0.811076 0.6509
          0.814388 0.61836 0.808336 0.604138 0.656798 0.623424 0.653135 0.617176 0.723856 0.722564 0.656626 0.66043
          0.641421 0.639802 0.816417 0.819921 0.631247 0.815895 0.631877 0.8139 0.633666 0.801851 0.641021 0.641699
          0.716756 0.717211 0.650982 0.82049 0.620627 0.62539 0.622439 0.813717 0.812867 0.627958 0.812805 0.632249
          0.623391 0.707296 0.64604 0.646221 0.810881 0.80586 0.609513 0.596817 0.648131 0.80967 0.795665 0.79577
          0.624495 0.816656 0.630194 0.810323 0.621741 0.616894 0.654987 0.724884 0.659659 0.650172 0.724588 0.721007
          0.650973 0.811316 0.65722 0.80434 0.636888 0.638012 0.60165 0.604631 0.712773 0.713016 0.618671 0.62255
          0.810965 0.804231 0.652281 0.645424 0.659234 0.81711 0.81397 0.820909 0.645587 0.813037 0.642666 0.814106
          0.612757 0.628789 0.635656 0.816041 0.819787 0.633736 0.64378 0.641113 0.662445 0.709391 0.716369 0.643988
          0.634008 0.81048 0.799905 0.687562 0.811413 0.810985 0.807451 0.657638 0.812334 0.673673 0.628625 0.813363
          0.637611 0.811973 0.659936 0.81184 0.64042 0.658111 0.633007 0.606986 0.632841 0.609303 0.822624 0.808351
          0.647594 0.720345 0.677607 0.672095 0.739214 0.735069 0.662364 0.637382 0.824777 0.651682 0.640944 0.815604
          0.632636 0.819005 0.612615 0.648487 0.644508 0.720246 0.717511 0.640809 0.714759 0.670461 0.734005 0.679938
          0.727452 0.667784 0.73204 0.692356 0.77782 0.63784 0.813629 0.764263 0.821103 0.665537 0.730388 0.64769
          0.717512 0.664126 0.729718 0.63973 0.715952 0.592708 0.606308 0 0 0.649664 0 0.632958
          0.703631 0.612901 0.67217 0.666299 0.817203 0.671425 0.769837 0 0 0.465363 0.489782 0.453737
          0.493471 0.44282 0.472568 0.246413 0.599413 0.574654 0.618502 0.589493 0.615354 0.570734 0.731875 0.579795
          0.593563 0.554475 0.550851 0.59736 0.695485 0.647752 0.741851 0.623331 0.737936 0.614296 0.731425 0.575549
          0.542382 0.512783 0.547449 0.508623 0.574294 0.529648 0.673744 0.672324 0.646711 0.757443 0.739175 0.642721
          0.603059 0.742259 0.651662 0.711723 0.609091 0.697792 0.723701 0.729999 0.688841 0.699046 0.768722 0.675029
          0.767469 0.68097 0.763299 0.653298 0.47519 0.503988 0.396784 0.445956 0.492502 0.534954 0.328453 0.510323
          0.54237 0.53917 0.57071 0.280026 0.35944 0.364944 0.254946 0.418775 0.310371 0.259354 0.223656 0.305039
          0.408651 0.387101 0.444633 0.423953 0.282401 0.230295 0.304681 0.523909 0.522828 0.539862 0.5523 0.507535
          0.498342 0.52218 0.466395 0.493365 0.443719 0.487881 0.445017 0.478624 0.246505 0.694598 0.688536 0.677347
          0.685168 0.766799 0.724554 0.766399 0.731603 0.741647 0.717179 0.754888 0.769474 0.742014 0.776029 0.604937
          0.596854 0.633654 0.635986 0.578772 0.379842 0.621875 0.657368 0.630938 0.673683 0.648348 0.666068 0.6242
          0.753665 0.715182 0.691048 0.692862 0.656736 0.772916 0.760968 0.729033 0.761623 0.713944 0.765831 0.743639
          0.740359 0.63269 0.632023 0.613707 0.602735 0.647267 0.655031 0.627303 0.585463 0.573613 0.565612 0.417883
          0.609457 0.607237 0.376525 0.412723 0.184079 0.310745 0.437584 0.216844 0.510952 0.461746 0.504283 0.281005
          0.547226 0.522204 0.55934 0.654187 0.657077 0.636597 0.665436 0.677012 0.645108 0.837117 0.881509 0.755009
          0.793539 0.80965 1 0.765378 0.506131 0.489784 0.511321 0.490272 0.517687 0.495743 0.536268 0.420889
          0.403394 0.452386 0.444078 0.382951 0.235292 0.44165 0.453112 0.47898 0.428314 0.475599 0.441067 0.472761
          0.229643 0.680129 0.695521 0.649115 0.654789 0.688001 0.762592 0.641482 0.562113 0.528702 0.572821 0.597732
          0.542115 0.709819 0.55169 0.530021 0.571681 0.554464 0.528867 0.581748 0.565434 0.567952 0.595987 0.681921
          0.53859 0.534528 0.587748 0.554395 0.597555 0.54708 0.615867 0.569396 0.728684 0.552572 0.54039 0.540102
          0.515613 0.577943 0.571486 0.478398 0.426968 0.477848 0.278822 0.505449 0.479915 0.525133 0.540485 0.507526
          0.520875 0.526707 0.560301 0.4995 0.569426 0.591178 0.556641 0.581648 0.561965 0.595847 0.538063 0.614345
          0.613949 0.642459 0.720151 0.577646 0.349788 0.257093 0.423676 0.36087 0 0 0 0.565934
          0.62863 0 0 0.593427 0.643214 0 0.513423 0.543361 0.561971 0.581334 0 0
          0.532919 0.295428 0.550211 0.279171 0.58918 0.355666 0.610769 0.523273 0.523077 0.556544 0.493365 0.495733
          0.598978 0.601089 0.323467 0.322962 0.606187 0.637581 0.636793 0.534827 0.507688 0.543743 0.514753 0.567292
          0.319039 0.26761 0.369127 0.255466 0.232577 0.277656 0.178607 0.230711 0.174604 0.687984 0.657788 0.701667
          0.665109 0.630714 0.58527 0.629727 0.749286 0.741029 0.636519 0.589818 0.751555 0.515465 0.512002 0.489229
          0.4844 0.583256 0.548026 0.605606 0.553198 0.624484 0.7347 0.564586 0.537493 0.657768 0.655388 0.678358
          0.67593 0.665217 0.682047 0.448805 0.436252 0.463068 0.555916 0.549349 0.537892 0.537282 0.486821 0.480343
          0.497169 0.459264 0.574362 0.544044 0.611922 0.568809 0.708293 0.709228 0.780937 0.780047 0.67078 0.673416
          0.48135 0.481474 0.458179 0.257648 0.426336 0.246328 0.496723 0.470983 0.615916 0.58595 0.633062 0.616699
          0.642437 0.590571 0.33822 0.453625 0.449166 0.500204 0.497915 0.32086 0.221486 0.224191 0.229536 0.667654
          0.687361 0.575799 0.619342 0.302202 0.577373 0.622343 0.303524 0.479924 0.467533 0.487175 0.447025 0.228734
          0.469202 0.288547 0.494127 0.49649 0.481223 0.499249 0.4361 0.554693 0.58494 0.533087 0.449191 0.37967
          0.430638 0.227508 0.624545 0.579127 0.726188 0.536257 0.523204 0.42375 0.208493 0.394848 0.203576 0.613742
          0.737248 0.687163 0.723057 0.35513 0.395262 0.225592 0.21345 0.322061 0.27885 0.634175 0.627533 0.638686
          0.748721 0.746427 0.749393 0.631047 0.685104 0.745888 0.718484 0.395073 0.219318 0.218512 0.180465 0.532892
          0.5346 0.555719 0.563739 0.524045 0.542998 0.569264 0.550335 0.294801 0.276472 0.653777 0.746674 0.74938
          0.748637 0.711251 0.710908 0.774343 0.708379 0.775566 0.685653 0.745192 0.75916 0.749699 0.68482 0.715927
          0.65374 0.69229 0.638604 0.643626 0.520613 0.518363 0.514583 0.682506 0.689719 0.652965 0.653928 0.526716
          0.514039 0.671334 0.711594 0.750919 0.724522 0.551842 0.530907 0.593664 0.32919 0.608145 0.724984 0.623312
          0.736141 0.511536 0.513764 0.533867 0.537169 0.487122 0.753085 0.688495 0.831766 0.713374 0.52713 0.547331
          0.564945 0.561586 0.596004 0.564855 0.601643 0.538871 0.537123 0.533238 0.581356 0.6168 0.568375 0.608267
          0.592785 0.498124 0.491726 0.533315 0.500027 0.62383 0.643057 0.633626 0.651093 0.641724 0.630168 0.752495
          0.748834 0.645233 0.749698 0.58869 0.602044 0.389498 0.417606 0.203134 0.19795 0.214878 0.163732 0.501807
          0.505565 0.452383 0.455501 0.223049 0.249063 0.451687 0.220643 0.558404 0.580591 0.544127 0.566049 0.661566
          0.763456 0.608192 0.662499 0.763584 0.65533 0.67723 0.649931 0.558007 0.513414 0.489714 0.515722 0.608831
          0.715781 0.712981 0.72664 0.624046 0.599079 0.628586 0.652907 0.616811 0.589122 0.519474 0.516243 0.603155
          0.626447 0.615118 0.585102 0.594624 0.58474 0.510877 0.406688 0.464382 0.269222 0.201797 0.210347 0.518964
          0.574314 0.256859 0.53488 0.261676 0.569323 0.586069 0.534428 0.545394 0.50092 0.465454 0.636622 0.698773
          0.745624 0.727342 0.578448 0.306233 0.568737 0.301599 0.62394 0.49409 0.42145 0.472398 0.236203 0.524735
          0.510098 0.469797 0.503839 0.408108 0.497849 0.478306 0.264298 0.241344 0.681005 0.660056 0.774933 0.766647
          0.517431 0.55158 0.483071 0.514756 0.486872 0.566637 0.571753 0.596055 0.694119 0.765285 0.679928 0.710145
          0.7618 0.70232 0.32435 0.208551 0.177569 0.182562 0.708952 0.700099 0.766592 0.777804 0.757286 0.746321
          0.709793 0.705458 0.778056 0.606296 0.580777 0.728187 0.555975 0.601049 0.558424 0.59926 0.728095 0.412693
          0.244691 0.20253 0.166677 0.720676 0.737443 0.758244 0.737365 0.719069 0.60412 0.445779 0.221209 0.426215
          0.218124 0.363827 0.216862 0.19324 0.18334 0.497426 0.591841 0.607836 0.599296 0.614405 0.576706 0.585312
          0.604627 0.552916 0.282658 0.51648 0.343112 0.275581 0.281514 0.523771 0.553282 0.479089 0.652567 0.628673
          0.631128 0.683925 0.693549 0.773826 0.665034 0.745938 0.536176 0.517067 0.630623 0.428184 0.218881 0.44526
          0.212123 0.579014 0.600632 0.570606 0.354524 0.197627 0.221226 0.188914 0.565589 0.605888 0.557632 0.409683
          0.471346 0.231247 0.269893 0.25055 0.215264 0.363596 0.251318 0.195393 0.222138 0.626437 0.626007 0.651862
          0.622158 0.64575 0.757151 0.489079 0.517504 0 0.627403 0.744948 0.336626 0.169663 0.203659 0.181231
          0.555181 0.51016 0.559923 0.528974 0.432059 0.451303 0.234912 0.481448 0.239774 0.647504 0.508969 0.253377
          0.685373 0.683892 0.499404 0.602072 0.730972 0.429227 0.21374 0.327188 0.237315 0.666447 0.762503 0.64014
          0.748445 0.713224 0.743984 0.614819 0.695833 0.774671 0.661674 0.673056 0.222388 0.237802 0.214107 0.229064
          0.22487 0.213544 0.725807 0.71956 0.717366 0.708399 0.636826 0.6357 0.643034 0.64482 0.628661 0.622453
          0.636855 0 0 0 0 0 0 0 0.189366 0.37186 0.217872 0.510188
          0 0.0628494 0 0 0 0 0 0 0 0 0 0
          0 0 0 0.656657 0.660735 0.651001 0.654704 0.657807 0.665288 0.647858 0.642396 0.635396
          0.65124 0.650473 0.635608 0.599835 0.600607 0.55147 0.614036 0.562013 0.614406 0.570203 0.629834 0.65332
          0.653601 0.648564 0.64315 0.659189 0.663412 0.723353 0.70931 0.728485 0.705623 0.730191 0.714853 0.737713
          0.731345 0.729366 0.715318 0.518202 0.525336 0.357644 0.302947 0.61269 0.651411 0.486953 0.409583 0.350372
          0.578639 0.56906 0.345094 0.261723 0.551082 0.244773 0.234598 0.27229 0.260566 0.389804 0.397636 0.518727
          0.619689 0.264109 0.236157 0.335814 0.348269 0.266892 0.289498 0.214467 0.53326 0.468072 0.561323 0.7291
          0.743154 0.718694 0.73631 0.720054 0.739137 0.700376 0.73253 0.747755 0.729355 0.748215 0.71868 0.739544
          0.708754 0.199218 0.194147 0.180003 0.197357 0.181681 0.191363 0.202662 0.207401 0.20317 0.211716 0.189099
          0.197977 0.63659 0.635028 0.644425 0.644971 0.629843 0.626624 0.634265 0.224134 0.22862 0.241774 0.241908
          0.686179 0.700652 0.657676 0.675626 0.688746 0.70897 0.652399 0.581903 0.482021 0.647662 0.623393 0.557165
          0.294075 0.643742 0.643795 0.675862 0.690623 0.565349 0.456142 0.639964 0.590599 0.5182 0.556965 0.306386
          0.651875 0.630701 0.652654 0.625541 0.675354 0.618158 0.682803 0.527783 0.646949 0.394314 0.716731 0.729261
          0.693421 0.703139 0.721856 0.748269 0.69138 0.49515 0.304723 0.598817 0.554765 0.449971 0.102258 0.605596
          0 0 0 0 0 0 0 0 0 0 0 0
          0 0 0 0 0 0 0 0 0 0 0 0
          0.034101 0.0198391 0.0169194 0 0.416629 0.392061 0.351208 0 0 0 0 0
          0 0 0.627039 0.62029 0.635297 0.630789 0.626372 0.616273 0.63723 0.647715 0.654076 0.637831
          0.641263 0.648983 0.661942 0.645287 0.652434 0.645237 0.654867 0.638692 0.647365 0.635805 0.000267626 0.000186675
          0.0341821 0 0.00042796 4.61188e-06 0.283717 0.608072 0.614991 0.599921 0.609336 0.606447 0.616244 0.587714
          0.684815 0.687432 0.675886 0.676394 0.69379 0.702937 0.680505 0.55884 0.572213 0.498664 0.521026 0.573775
          0.59055 0.499561 0.624494 0.6202 0.618898 0.611731 0.632967 0.630582 0.600311 0.592525 0.603166 0.604627
          0.596576 0.646236 0.636984 0.654061 0.649614 0.637535 0.663974 0.703273 0.716208 0.698686 0.716068 0.695126
          0.707946 0.68521 0.66863 0.67096 0.674933 0.684191 0.658226 0.657873 0.542296 0.549653 0.486971 0.481117
          0.564202 0.573197 0.271819 0.340519 0.0197114 0.047675 0.370568 0.487281 0.169509 0 0 0
          0 0 0 0 0.00658427 0.0127657 0.0187893 0.109353 0 0 0.00784316 0.538306
          0.499409 0.621942 0.628919 0.401906 0.584168 0 0 0 0 0 0 0
          0 0 0 0 0 0.66981 0.670325 0.67393 0.67659 0.664667 0.66319 0.669002
          0.786729 0.770065 0.776052 0.224079 0.216607 0.228488 0.215156 0.245715 0.218455 0.306765 0.759186 0.742765
          0.772319 0.749146 0.765134 0.574194 0.453385 0.56126 0.301886 0.636002 0.581394 0.653116 0.600525 0.620419
          0.463189 0.354496 0.651036 0.682946 0.791543 0.784241 0.773895 0.760411 0.755602 0.743833 0.763571 0.753331
          0.762208 0.742932 0.794358 0.780902 0.781994 0.755861 0.788444 0.770618 0.775178 0.753992 0.796621 0.788126
          0.77987 0.76573 0.733595 0.731312 0.721292 0.708179 0.748414 0.737251 0.725028 0.705423 0.73863 0.717765
          0.732139 0.707378 0.760813 0.743752 0.768008 0.739539 0.772755 0.75096 0.206668 0.200767 0.194812 0.183811
          0.244905 0.218369 0.211244 0.213619 0.21201 0.210516 0.207522 0.207868 0.214621 0.798409 0.787506 0.785854
          0.762006 0.739404 0.724853 0.755819 0.742996 0.739088 0.718715 0.224255 0.234648 0.210924 0.239625 0.229394
          0.235266 0.213792 0.203639 0.206435 0.203814 0.203773 0.210914 0.626601 0.629947 0.622744 0.626125 0.628169
          0.635314 0.621711 0.213898 0.214858 0.235876 0.228555 0.712393 0.701329 0.724395 0.712793 0.696836 0.728135
          0.66289 0.66974 0.666739 0.682242 0.653956 0.657007 0.654605 0.682153 0.675871 0.676034 0.660216 0.694243
          0.692893 0.693788 0.699129 0.701063 0.709026 0.718405 0.685638 0.708392 0.690668 0.713843 0.71879 0.693269
          0.299017 0.298652 0.297542 0.295667 0.301754 0.300461 0.301301 0.793448 0.780115 0.779826 0.75293 0.206934
          0.198423 0.205656 0.188138 0.221574 0.213283 0.409941 0.553376 0.274779 0.3878 0.413783 0.627064 0.233841
          0.395771 0.549925 0.404605 0.595615 0.245113 0.228964 0.55091 0.619271 0.531732 0.644046 0.463167 0.5744
          0.359776 0.594996 0.604749 0.634371 0.666059 0.519308 0.484246 0.69212 0.708372 0.686492 0.710773 0.678528
          0.699965 0.682091 0.677014 0.661198 0.614761 0.700568 0.704019 0.690513 0.684017 0.699085 0.665525 0.677917
          0.701622 0.757758 0.766663 0.738023 0.740011 0.771927 0.747362 0.760099 0.769634 0.771888 0.740659 0.742489
          0.22293 0.223445 0.223308 0.222884 0.225589 0.223366 0.450457 0.350799 0.480445 0.334511 0.545551 0.406073
          0.620091 0.677195 0.693522 0.65507 0.677363 0.67737 0.679453 0.658028 0.694644 0.682995 0.637181 0.624732
          0.507574 0.635509 0.470118 0.68223 0.599 0.694678 0.630896 0.62833 0.63655 0.636411 0.62849 0.620707
          0.635767 0.686573 0.685754 0.678799 0.674141 0.695529 0.699158 0.688829 0.642884 0.649622 0.636957 0.643206
          0.651506 0.635098 0.644965 0.648757 0.647672 0.65373 0.639668 0.643898 0.639336 0.725226 0.742512 0.723988
          0.768885 0.707985 0.71825 0.701435 0 0 0 0 0 0 0 0
          0 0 0 0 0 0.780009 0.759707 0.773486 0.73995 0.20777 0.20932 0.215253
          0.215234 0.206144 0.207033 0.217987 0.198416 0.204036 0.191772 0.202563 0.191786 0.21581 0.215337 0.216913
          0.215755 0.214686 0.218343 0.214123 0.214985 0.213514 0.21425 0.211677 0.204691 0.202979 0.210508 0.213022
          0.212464 0.21633 0.237191 0.238641 0.237355 0.23884 0.237137 0.237988 0.727449 0.745573 0.714308 0.719927
          0.745528 0.675461 0.239924 0.247261 0.243389 0.236697 0.240227 0.23602 0.246878 0.247713 0.239748 0.237529
          0.24909 0.251158 0.243888 0.784226 0.774066 0.770103 0.738769 0.271482 0.339834 0.294332 0.461369 0.233183
          0 0.24717 0.660908 0.630177 0.659571 0.461166 0.680394 0.665403 0.695218 0.625831 0.459438 0.675968
          0.548939 0.648857 0.447859 0.696602 0.681942 0.672128 0.69021 0.679821 0.686004 0.673883 0.698195 0.664309
          0.643771 0.677425 0.664246 0.618171 0.680798 0.282062 0.0329892 0.465648 0.0439015 0.387744 0.0351702 0
          0 0 0 0 0 0 0 0 0 0 0 0
          0 0 0 0 0 0 0 0.691687 0.685995 0.695427 0.689969 0.694021
          0.685407 0.702629 0.726034 0.722241 0.715574 0.708599 0.703761 0.706104 0.697334 0.698726 0.70921 0.712089
          0.702875 0 0 0 0 0 0 0.254824 0.24709 0 0 0
          0 0.240307 0.361034 0.0815087 0 0.301126 0 0 0.460964 0.670694 0.673546 0.676058
          0.682227 0.662582 0.666336 0.597744 0.595116 0.571797 0.61493 0.617064 0.604389 0.629837 0.624285 0.628839
          0.617871 0.634781 0.629848 0.636852 0.708829 0.710913 0.706453 0.697081 0.704758 0.688979 0.715197 0.704606
          0.718301 0.612703 0.615377 0.614411 0.619974 0.609236 0.612096 0.608617 0.194742 0.189272 0.226109 0.217126
          0.203583 0.19802 0.203213 0.207009 0.20223 0.708897 0.703902 0.720572 0.718468 0.704121 0.693662 0.720559
          0.315529 0.314869 0.31767 0.314086 0.314997 0.312205 0.320303 0.487466 0.561972 0.550826 0.381063 0.403883
          0.225471 0.217809 0.247831 0.267569 0.242567 0.24079 0.248916 0.625456 0.662896 0.604577 0.661459 0.589875
          0.652676 0.444929 0.309744 0.313387 0.304749 0.314149 0.311826 0.303721 0.934222 0.862617 0.848252 1
          0.997042 0.951762 1 0.942777 0.970935 0.8476 1 1 1 0.580167 0.610356 0
          0 0 0 0 0 0.00826168 0.0140132 0 0 0 0 0
          0 0 0 0 0 0 0 0 0.198011 0.210771 0 0
          0.214553 0.230698 0 0.229249 0.226564 0.24158 0.216846 0.227276 0 0.800191 0.752944 0.840595
          0.75643 0.850709 0.76327 0.925113 1 0.913697 1 1 0.90707 0.833466 1 0.782644
          0.783097 0.756469 0.750026 0.185628 0.257585 0.178049 0.672166 0.69935 0.612029 0.664787 0.696424 0.544056
          0.602598 0.546288 0.599506 0.271033 0.296371 0.540321 0.602073 0.239252 0 0 0 0
          0 0.609153 0.646406 0.619377 0.658484 0.413346 0.440478 0.594435 0.378346 0 0.666763 0.612363
          0.726581 0.697721 0.68702 0.531888 0.725308 0.716479 0.710828 0.706018 0.215396 0.217839 0.610151 0.654125
          0.602042 0.652689 0.324142 0.276026 0.616852 0.661006 0.62865 0.672209 0.458735 0.737301 0.793361 0.736066
          0.784102 0.704717 0.736599 0.705342 0.773077 0.744983 0.728636 0.732913 0.714059 0.306344 0.304357 0.36565
          0.302779 0.359349 0.403567 0.529208 0.445622 0.550463 0.077431 0.106303 0.586485 0.595117 0.587198 0.595627
          0.574049 0.573364 0.586411 0.595173 0.574773 0.700718 0.711277 0.697882 0.705367 0.568013 0.616848 0.333732
          0.645129 0.645407 0.635235 0.634843 0.655367 0.656197 0.198378 0.199679 0.210214 0.208475 0.202695 0.213957
          0.175687 0.688655 0.683534 0.675602 0.670756 0.694729 0.680804 0 0 0 0 0
          0 0 0 0 0 0 0 0 0 0 0.474617 0.564588
          0.496077 0.576392 0.134426 0.159124 0.015191 0.00423728 0 0 0 0 0.0304734 0.000417445
          0 0 0 0.396168 0.584101 0.288633 0.507152 0.739292 0.832013 0.666743 0.842048 0.0330168
          0.0381042 0.0163495 0.0168228 0.0279843 0.015794 0.413837 0.27562 0.607791 0.59833 0.652834 0.642729 0.77052
          0.768322 0.746237 0.744854 0 0 0 0 0.699272 0.717933 0.686436 0 0
          0 0 0 0 0.650055 0.663559 0.649167 0.662527 0.637637 0.637225 0.204858 0.20605
          0.231286 0.766251 0.750425 0.319121 0.254 0.776638 0.751563 0.679439 0.710175 0.687817 0.710547 0.600575
          0.674452 0.709611 0.582086 0 0 0 0.613478 0.67454 0.661718 0.451932 0.2314 0.232234
          0.23905 0.769734 0.742279 0.765348 0.737925 0.518302 0.588189 0.193324 0.253787 0.244885 0.707431 0.688896
          0.715321 0.694451 0.72779 0.236715 0.238518 0.235983 0 0 0 0 0 0
          0 0 0 0 0 0 0 0 0 0 0 0
          0.737049 0.739664 0.722372 0.0366747 0.0166241 0.0354748 0.0161791 0.546906 0.534186 0.474356 0.465845 0.550357
          0.477169 0.772634 0.74783 0.775427 0.751084 0.689153 0.682605 0.691188 0.711976 0.711133 0.713427 0.47508
          0.0764829 0.451488 0.0521465 0.629508 0.628824 0.623506 0.625136 0.63344 0.619352 0.731674 0.744192 0.725596
          0.719482 0.733963 0.706459 0.551538 0.574976 0.481207 0.692183 0.694702 0.715511 0.647363 0.763071 0.757557
          0.7319 0.7261 0.123682 0.0808689 0.394007 0.271229 0.175649 0.000260933 0.000535405 0.000443788 0.745443 0.751192
          0.739712 0.823631 0.674088 0.660232 0.677315 0.748831 0.809438 0.752716 0.800974 0.670218 0.678364 0.705195
          0.665804 0.704564 0.568454 0.600976 0.549261 0.596122 0.59763 0.526388 0.541201 0.617418 0.612198 0.606794
          0.684027 0.686079 0.668854 0.67147 0.721617 0.717202 0.695973 0.727631 0.744856 0.745066 0.299745 0.290648
          0.314594 0.294388 0.300783 0.293772 0.618759 0.616268 0.622574 0.650674 0.504398 0.653894 0.519163 0.762259
          0.761906 0.734477 0.732854 0.216649 0.219324 0.21529 0.217977 0.216032 0.218586 0.304396 0.327548 0.307086
          0.320126 0.302272 0.269 0.269378 0.271337 0.727978 0.721259 0.78101 0.702582 0.600429 0.655415 0.640265
          0.667444 0.469704 0.561682 0.615789 0.622529 0.617787 0.607837 0.242673 0.23692 0.247697 0.237402 0.222855
          0.268515 0.209881 0.64522 0.656607 0.644944 0.657174 0.704396 0.69025 0.69871 0.689529 0.702353 0.680878
          0.678398 0.77195 0.770316 0.772925 0.627346 0.622676 0.63832 0.628784 0.639051 0.335279 0.449678 0.268215
          0.590089 0.593664 0.582137 0.587885 0.597372 0.599971 0.696404 0.691701 0.685458 0.680978 0.710227 0.593402
          0.610705 0.59214 0.606456 0.542058 0.539099 0.662026 0.686714 0.413776 0.233647 0.629811 0.627518 0.680776
          0.686879 0.635284 0.706684 0.710041 0.222371 0.199518 0 0 0 0 0 0
          0 0 0 0.308265 0.303677 0.3188 0.284118 0.286728 0 0 0 0
          0 0 0.671827 0.68569 0.673201 0.684491 0.661392 0.66487 0.673319 0.659817 0.336806 0.314719
          0.323392 0.000956325 0 0.049932 0.730099 0.715063 0.7257 0.718203 0.723211 0.729953 0.733941 0.708806
          0.71133 0.227556 0.22412 0 0 0.268367 0.259668 0.279105 0.545574 0.666485 0.547357 0.359893
          0.404669 0.719583 0.719015 0.721943 0.663889 0.695029 0.650072 0.682924 0.74505 0.721614 0.744157 0.72516
          0.741892 0.717527 0.235726 0.234611 0.227498 0.228753 0.235288 0.224055 0.239974 0.242404 0.30594 0.308514
          0.232658 0.229383 0.22856 0.240489 0.233052 0.19441 0.208232 0.728696 0.73895 0.716153 0.693776 0.6897
          0.703309 0.700054 0.711545 0.683271 0.679744 0.688232 0 0 0 0 0.64369 0.499421
          0.634095 0.468877 0.772581 0.774033 0.747208 0.749805 0.718143 0.713867 0.687509 0.604295 0.604472 0.614597
          0.61498 0.604611 0.614746 0.309006 0.321222 0.293549 0.717754 0.716668 0.655847 0.453094 0.697762 0.385664
          0.34114 0.713801 0.707489 0.710859 0.665547 0.666198 0.66597 0.310994 0.225149 0.379121 0.240273 0.290885
          0.324658 0.327321 0.669808 0.668819 0.675307 0.67999 0.685209 0.695792 0.701178 0.690966 0.701398 0.688911
          0 0 0 0 0 0.587816 0.599728 0.56057 0.222063 0.237893 0.224322 0.233511
          0.717503 0.732185 0.723481 0.734241 0.702679 0.710579 0.717082 0.649383 0.690273 0.369309 0.338044 0.223625
          0.706768 0.699616 0.695275 0.691995 0.673039 0.658545 0.684511 0.69365 0.677668 0.686438 0.700227 0.692015
          0.701865 0.694313 0.690817 0.711927 0.69192 0.713011 0.770725 0.743361 0.774487 0.747938 0.769521 0.740573
          0.66572 0.671151 0.660682 0.658796 0 0 0 0 0 0.77185 0.76031 0.692723
          0.698748 0.683128 0.691631 0.10275 0.0475284 0.36234 0.252822 0.172149 0.472892 0 0 0
          0.65354 0.654616 0.644148 0 0 0 0 0 0 0 0 0.255907
          0.312001 0.235377 0.303055 0.299542 0.298062 0.295899 0.620187 0.522226 0.635885 0.51716 0.634542 0.208745
          0.213427 0.213974 0.294088 0.291421 0.288163 0.6456 0.57592 0.713162 0.702963 0.682648 0.718421 0.221372
          0.21945 0.218693 0.225304 0.223876 0.5177 0.0147214 0.0415028 0.0119862 0 0.00785691 0.685209 0.661499
          0.721824 0.705756 0.704966 0.645424 0.657869 0.645165 0.634431 0.631484 0.639419 0.618314 0.611759 0.623606
          0.617203 0.324217 0.324687 0.341567 0.333617 0.322519 0.679705 0.6775 0.682844 0.270329 0.300248 0.252702
          0 0 0 0 0 0 0.416115 0.586367 0.592933 0.593285 0.597973 0.578865
          0.714249 0.743216 0.232004 0.225878 0.0141128 0.0172658 0.185666 0 0.443796 0.743644 0.728167 0
          0 0 0 0 0 0.777515 0.771926 0.702807 0.696855 0.722648 0.711518 0.708959
          0.723944 0.621797 0.636856 0.476343 0.656945 0.661738 0 0 0.009343 0 0 0
          0 0 0 0.740735 0.71588 0.663542 0.625057 0.680483 0.663184 0.735146 0.755124 0.733092
          0.753256 0.624221 0.44319 0.628603 0.636198 0.70425 0.718118 0.703156 0.717746 0.690856 0.689658 0.261479
          0.245793 0.287175 0.250955 0 0 0 0.0126697 0.772614 0.772945 0.706554 0.718787 0.695525
          0.72273 0.711402 0.706976 0.710785 0.716281 0 0.0152864 0 0 0 0.622198 0.704609
          0.722951 0.509477 0.576136 0.668114 0.560061 0.706165 0.559127 0.580253 0.591445 0.594484 0.534337 0
          0 0 0.642762 0.619866 0.661697 0.687326 0.678417 0.689306 0.237548 0.250499 0.614194 0.609123
          0.612438 0.606244 0.620571 0.729909 0 0 0 0 0 0 0.707507 0.696242
          0.710031 0.701118 0.696209 0.736916 0.745926 0.729657 0.204007 0.301309 0.30035 0.26426 0.268609 0.716384
          0.714007 0.215718 0.256683 0.000215916 1.30419e-05 0.686459 0.679539 0.708077 0.174377 0.182101 0.220843 0.644373
          0.637053 0.638706 0.370688 0.58303 0.600166 0.606566 0.19609 0.188797 0.201023 0.206895 0.214113 0.194606
          0.202047 0.685153 0.684898 0.675915 0.676782 0.727169 0.727637 0.221545 0.219359 0.605373 0.603163 0.601431
          0.252084 0.253487 0.257352 0.255143 0.246619 0.680104 0.671965 0.786484 0.860232 0.647454 0.65038 0.645795
          0.220099 0.205492 0.218463 0 0 0.255649 0.252999 0.221269 0 0.561609 0.581866 0.322332
          0.345887 0.647892 0.658786 0.645396 0.655442 0.638269 0.649845 0.662124 0.216153 0.22305 0.213785 0.693257
          0.710948 0.748596 0.259631 0.238586 0.473946 0.520358 0.172827 0.612929 0.622113 0.214374 0 0.62574
          0.62679 0.625835 0.356276 0.409879 0.339446 0.201068 0.77774 0.752953 0.717833 0.694516 0.763331 0.687074
          0.677805 0.219687 0.215037 0.220117 0.0299447 0.272453 0.000194651 0 0 0.208757 0.210493 0.208387
          0.205747 0.581291 0.665033 0.506156 0.378088 0.215012 0.212898 0.711344 0.724291 0.738686 0.185665 0.502841
          0.0629055 0.224164 0.226413 0.650072 0.650684 0.662975 0.663714 0.663627 0.673673 0.674091 0.627059 0.636794
          0.61807 0.626397 0.616481 0 0.221693 0.215308 0.743857 0.737352 0.677982 0.624989 0.684782 0.728554
          0.71196 0.607188 0.616774 0.746788 0.764347 0.704559 0.713001 0.69336 0.205913 0.221794 0.732819 0.740986
          0.726173 0.714999 0.723376 0.707088 0.700829 0.695793 0.688815 0.684405 0.701234 0.78858 0.644594 0.645928
          0.644245 0.736491 0.757792 0.743827 0.713113 0.731251 0.656621 0.65992 0.646013 0.654076 0.64052 0.666054
          0.672561 0.249024 0.239562 0.674851 0.686949 0.697524 0.209925 0.214259 0.205135 0.284612 0.232592 0.200287