<?xml version="1.0"?>
<VTKFile type="UnstructuredGrid" version="0.1" byte_order="LittleEndian">
  <UnstructuredGrid>
    <Piece NumberOfCells="3667" NumberOfPoints="3794">
      <CellData Scalars="Sn">
        <DataArray type="Float32" Name="Sn" NumberOfComponents="1" format="ascii">
          0.701284 0.6559 0.681445 0.664907 0.712911 0.700843 0.706206 0.698879 0.662703 0.637352 0.694018 0.703966
          0.598059 0.597521 0.630772 0.641489 0.69294 0.696395 0.689403 0.65467 0.70447 0.594958 0.656548 0.657034
          0.675763 0.693282 0.627268 0.714083 0.730542 0.690733 0.652202 0.704591 0.690816 0.680791 0.671922 0.613809
          0.669788 0.680202 0.615478 0.661608 0.709448 0.712625 0.623169 0.6133 0.621855 0.674843 0.721586 0.721963
          0.682595 0.693529 0.623088 0.656768 0.696252 0.674356 0.712702 0.629329 0.625634 0.67703 0.674594 0.620387
          0.672882 0.617985 0.670607 0.612924 0.615823 0.667668 0.669726 0.675302 0.622653 0.672955 0.6275 0.669743
          0.603984 0.669178 0.603397 0.610698 0.666033 0.608829 0.664149 0.66009 0.676814 0.593181 0.598137 0.621595
          0.627602 0.672299 0.681205 0.606033 0.665487 0.649136 0.693601 0.627327 0.674536 0.629144 0.680537 0.642653
          0.637873 0.686763 0.687191 0.673303 0.685975 0.60804 0.618106 0.596607 0.585919 0.658884 0.649872 0.624647
          0.673894 0.624218 0.673033 0.640294 0.69029 0.628971 0.679782 0.63876 0.677815 0.64379 0.682471 0.693398
          0.633375 0.689629 0.648693 0.63882 0.580634 0.644134 0.584574 0.630784 0.649734 0.628082 0.659233 0.65222
          0.594426 0.655405 0.599257 0.634302 0.679582 0.640165 0.685119 0.691504 0.699777 0.606205 0.612291 0.625957
          0.624107 0.670437 0.666997 0.649416 0.65558 0.58218 0.584305 0.622902 0.676213 0.617793 0.671747 0.639717
          0.645349 0.580396 0.583358 0.635317 0.63477 0.675663 0.676898 0.623867 0.617882 0.680601 0.67405 0.659171
          0.603525 0.662501 0.604074 0.621626 0.616055 0.671122 0.66916 0.673339 0.674375 0.609316 0.606498 0.669161
          0.665523 0.599565 0.599765 0.597107 0.607611 0.638206 0.661582 0.671052 0.665824 0.600811 0.606916 0.686158
          0.637562 0.654413 0.593518 0.658287 0.655967 0.604978 0.608657 0.627822 0.636496 0.674538 0.682522 0.623719
          0.635892 0.675255 0.684905 0.675187 0.619059 0.682717 0.626801 0.613218 0.609082 0.672794 0.669513 0.603116
          0.679665 0.600827 0.673451 0.616459 0.622549 0.675724 0.679338 0.664186 0.661147 0.612375 0.609208 0.591038
          0.619327 0.605038 0.610303 0.604963 0.605492 0.684105 0.680569 0.614713 0.614621 0.626376 0.604202 0.610119
          0.619443 0.650391 0.663669 0.613037 0.616685 0.665709 0.668562 0.723353 0.678178 0.682779 0.634419 0.664995
          0.60229 0.665665 0.600858 0.672288 0.671414 0.611606 0.607605 0.684283 0.619974 0.674258 0.621559 0.605554
          0.605759 0.675945 0.667804 0.612524 0.670169 0.620613 0.682704 0.647131 0.700039 0.651856 0.707428 0.62689
          0.627511 0.686597 0.684261 0.620095 0.646851 0.623619 0.625866 0.662221 0.667714 0.607345 0.604461 0.665023
          0.668054 0.610934 0.608004 0.633722 0.62927 0.680796 0.678013 0.624647 0.619128 0.676822 0.673662 0.6348
          0.689952 0.644509 0.696846 0.63275 0.646327 0.677461 0.69528 0.644087 0.692608 0.645465 0.695164 0.694927
          0.623033 0.73308 0.691886 0.639499 0.646482 0.678811 0.700615 0.619374 0.622647 0.656344 0.668324 0.636145
          0.688967 0.640558 0.700429 0.611795 0.604618 0.667092 0.661115 0.550958 0 0.611554 0 0.613683
          0.656048 0.59763 0.643101 0.682075 0.636799 0.672696 0.646118 0.670878 0 0.584021 0 0.537337
          0.524428 0.508842 0.523144 0.535497 0.56578 0.541647 0.574801 0.54699 0.669148 0.659785 0.603448 0.503494
          0.507818 0.533851 0.722673 0.668032 0.713276 0.574684 0.636901 0.587487 0.625433 0.660605 0.60262 0.352174
          0.382822 0.354857 0.452411 0.391931 0.325978 0.390305 0.299547 0.3431 0.423326 0.36554 0.420856 0.569064
          0.541918 0.552939 0.349294 0.320635 0.315835 0.522242 0.619716 0.602718 0.724662 0.742601 0.740855 0.621247
          0.585921 0.622448 0.574621 0.527555 0.571186 0.684874 0.731995 0.724788 0.725347 0.737205 0.723787 0.595753
          0.615775 0.601672 0.523631 0.563997 0.568069 0.262939 0.391701 0.298464 0.337951 0.385899 0.382594 0.643061
          0.658026 0.653864 0.796764 0.888216 0.759883 0.407801 0.427964 0.437943 0.427057 0.376859 0.427885 0.432048
          0.428394 0.388108 0.607301 0.648179 0.615293 0.510826 0.508596 0.53654 0.51441 0.497932 0.516745 0.615619
          0.576874 0.601792 0.545777 0.550165 0.584653 0.520527 0.543453 0.53777 0.434736 0.465167 0.485066 0.549876
          0.558473 0.534386 0.59782 0.610343 0.590638 0.655334 0.609332 0.631352 0.260311 0 0 0
          0.476843 0 0.418976 0 0 0.41136 0.515982 0.515864 0.529836 0.55578 0.503344 0.524154
          0.549093 0.565227 0.634745 0.635659 0.509903 0.517393 0.541409 0.545956 0.398181 0.389433 0.302384 0.266284
          0.6991 0.66754 0.70945 0.674177 0.539537 0.625521 0.535967 0.620869 0.555688 0.570218 0.536154 0.539583
          0.456414 0.525773 0.463976 0.507804 0.654905 0.671194 0.656103 0.672428 0.443412 0.480421 0.467774 0.498433
          0.484553 0.47346 0.507341 0.500881 0.482712 0.482871 0.459985 0.45641 0.543086 0.594932 0.524842 0.562838
          0.73574 0.735143 0.686798 0.685037 0.486547 0.461983 0.488877 0.46129 0.3921 0.394182 0.482486 0.461977
          0.617497 0.633968 0.58948 0.61013 0.335371 0.332849 0.241138 0.226983 0.626309 0.657464 0.641 0.677916
          0.605726 0.527223 0.610142 0.519621 0.516788 0.52686 0.482281 0.485536 0.373273 0.371876 0.456029 0.43524
          0.515171 0.538015 0.49229 0.523849 0.585221 0.594799 0.575315 0.568245 0.468778 0.451309 0.510946 0.509339
          0.658134 0.636913 0.71713 0.694823 0.488743 0.51252 0.491579 0.515129 0.421718 0.324579 0.42085 0.320455
          0.668315 0.599304 0.659101 0.584439 0.306048 0.236305 0.281937 0.226456 0.613348 0.637978 0.671467 0.68886
          0.646019 0.605053 0.688781 0.664111 0.327246 0.423006 0.429644 0.492344 0.381999 0.413032 0.384326 0.407218
          0.454653 0.503733 0.558399 0.576907 0.540142 0.597239 0.611461 0.653744 0.73225 0.734252 0.690974 0.692805
          0.721186 0.683658 0.688726 0.639069 0.628541 0.63308 0.645883 0.65023 0.405859 0.425058 0.356803 0.38308
          0.679994 0.645681 0.677789 0.644001 0.488008 0.515935 0.503369 0.524106 0.693059 0.717267 0.660728 0.704511
          0.570359 0.58793 0.584558 0.605519 0.534914 0.631366 0.527621 0.620078 0.669404 0.593425 0.634226 0.564491
          0.551459 0.54357 0.633949 0.610768 0.464501 0.445693 0.453576 0.422273 0.728153 0.697416 0.766328 0.718238
          0.525673 0.494062 0.508837 0.483319 0.502766 0.522182 0.459388 0.469531 0.452861 0.42062 0.472152 0.427461
          0.468572 0.440616 0.449168 0.403555 0.641723 0.605442 0.643979 0.600122 0.663433 0.669855 0.586281 0.591581
          0.246437 0.223922 0.154455 0.124612 0.483891 0.459249 0.482694 0.456689 0.335234 0.298866 0.407569 0.380811
          0.613626 0.58178 0.6004 0.569192 0.564387 0.476461 0.562222 0.47582 0.640299 0.657492 0.640518 0.659871
          0.46764 0.482331 0.496242 0.503619 0.550841 0.563854 0.541859 0.555474 0.654409 0.589162 0.612987 0.542889
          0.564495 0.605907 0.5202 0.579709 0.472758 0.469118 0.459725 0.450422 0.583877 0.536147 0.570702 0.528058
          0.55778 0.570706 0.544368 0.555608 0.364281 0.296673 0.365898 0.30999 0.376558 0.27467 0.406897 0.294038
          0.409024 0.415999 0.443833 0.44312 0.483688 0.462171 0.487132 0.462897 0.625374 0.577563 0.681419 0.645204
          0.528213 0.616454 0.526581 0.615949 0.469265 0.427014 0.503256 0.48102 0.448474 0.47664 0.424227 0.450506
          0.405984 0.406875 0.310382 0.297165 0.688273 0.706978 0.606821 0.632609 0.386423 0.331457 0.372069 0.32541
          0.503869 0.540621 0.521901 0.550609 0.675615 0.618517 0.697822 0.64736 0.302423 0.393986 0.218533 0.315444
          0.719944 0.730025 0.650446 0.65868 0.681306 0.730316 0.684948 0.733988 0.601471 0.6394 0.524845 0.556352
          0.551766 0.567544 0.631904 0.626324 0.431708 0.397211 0.351219 0.302134 0.717923 0.712357 0.687981 0.664352
          0.497874 0.440968 0.537558 0.476309 0.398103 0.306247 0.428304 0.338612 0.370555 0.286523 0.429391 0.350485
          0.39801 0.430587 0.405401 0.431907 0.498299 0.465996 0.494685 0.457324 0.402903 0.514352 0.325913 0.449374
          0.512125 0.595785 0.406089 0.498177 0.398502 0.414554 0.362753 0.375855 0.531569 0.564371 0.531068 0.566521
          0.624294 0.47542 0.606932 0.536861 0.551699 0.523088 0.538018 0.500688 0.595343 0.599407 0.620426 0.621394
          0.237201 0.230918 0.327287 0.315782 0.518118 0.411025 0.531592 0.455095 0.489553 0.446076 0.484728 0.433851
          0.306169 0.286812 0.406102 0.372323 0.473645 0.479233 0.510348 0.505638 0.498489 0.428513 0.50195 0.469507
          0.479828 0.420566 0.469155 0.394863 0.300298 0.268698 0.375328 0.322228 0.350922 0.428857 0.268101 0.346364
          0.53174 0.567351 0.531339 0.565429 0.572943 0.532887 0.578631 0.534487 0.659506 0.574689 0.635078 0.549175
          0.380759 0 0.339779 0 0.570392 0.646518 0.577036 0.655508 0.26285 0.335323 0.305382 0.38839
          0.483723 0.525898 0.478884 0.511886 0.415164 0.437252 0.377944 0.441351 0.460392 0.482714 0.491755 0.511535
          0.281345 0.270233 0.233347 0.18637 0.471977 0.365431 0.507313 0.415342 0.638989 0.639879 0.658091 0.660556
          0.375274 0.421399 0.481675 0.527687 0.600203 0.642098 0.599792 0.634999 0.675554 0.666602 0.701378 0.683113
          0.331532 0.327571 0.373403 0.382412 0.421376 0.509759 0.445454 0.552322 0.320223 0.428779 0.312894 0.418329
          0.565575 0.484358 0.57352 0.502411 0.579743 0.657339 0.581777 0.655976 0.590367 0.623879 0.608038 0.646674
          0.648466 0.70859 0.640192 0.710074 0.678037 0.660063 0.689538 0.666361 0.208032 0.206976 0.672512 0.681452
          0.693008 0.640509 0.634358 0.637834 0.0763631 0.000138221 0.0242351 0.531813 0.507701 0.292994 0 0
          0 0 0 0 0.656161 0.660043 0.652406 0.636295 0.630331 0.639287 0.617895 0.618008
          0.625638 0.64634 0.654396 0.652896 0.720646 0.724532 0.736511 0.72269 0.73559 0.737501 0.334334 0.569476
          0.464046 0.624321 0.487197 0.604199 0.162033 0.142046 0.164073 0.321982 0.243996 0.190439 0.183953 0.206446
          0.207253 0.71404 0.718242 0.693328 0.744813 0.737007 0.730207 0.168105 0.172275 0.167925 0.171073 0.183178
          0.155204 0.180748 0.178955 0.177485 0.641342 0.633097 0.636561 0.220937 0.190967 0.207099 0.605417 0.658979
          0.611097 0.434371 0.318784 0.526841 0.371212 0.243521 0.27902 0.298361 0.425323 0.436818 0.464465 0.281393
          0.259635 0.624296 0.679092 0.625197 0.634339 0.614367 0.641871 0 0 0 0 0
          0 0 0 0 0 0 0 0.368478 0.523932 0.432278 0 0
          0 0.627747 0.625678 0.63253 0.640265 0.649294 0.640592 0.650705 0.648396 0.645202 0.159861 0.0828519
          0.312726 0.616192 0.621072 0.61254 0.666796 0.674915 0.670411 0.538155 0.566511 0.524519 0.615447 0.624348
          0.624522 0.592647 0.596415 0.602132 0.638681 0.639529 0.644722 0.680533 0.683416 0.676833 0.67096 0.66247
          0.662647 0.557427 0.573691 0.554629 0.236502 0.445616 0.301879 0 0 0 0 0
          0 0.530733 0.258172 0.481913 0.0236933 0.0548894 0.159958 0 0 0 0.661175 0.655069
          0.657187 0.772685 0.781379 0.748799 0.185287 0.188564 0.188394 0.75008 0.742179 0.767253 0.523973 0.607621
          0.618069 0.521162 0.624954 0.591464 0.779568 0.802235 0.797394 0.751219 0.749917 0.760983 0.79985 0.777405
          0.800427 0.770482 0.792152 0.794634 0.805302 0.7822 0.797086 0.729461 0.745312 0.740905 0.712654 0.71446
          0.732812 0.751845 0.758129 0.772728 0.23864 0.243784 0.242631 0.244245 0.242657 0.240328 0.805898 0.782706
          0.805938 0.726746 0.714167 0.739158 0.218444 0.224346 0.217757 0.205815 0.209474 0.2049 0.635237 0.639754
          0.632639 0.184148 0.185228 0.188764 0.682328 0.680149 0.687058 0.673689 0.665566 0.667132 0.680056 0.691799
          0.691853 0.710849 0.695059 0.701021 0.705826 0.705391 0.725307 0.344776 0.353288 0.327382 0.800778 0.776484
          0.801322 0.137654 0.152703 0.160929 0.638784 0.634842 0.617704 0.572426 0.459079 0.488261 0.672073 0.673532
          0.6499 0.68894 0.678404 0.682374 0.712664 0.71181 0.700806 0.67925 0.693058 0.688344 0.683806 0.685822
          0.670146 0.746551 0.769432 0.749953 0.771099 0.747711 0.751681 0.157161 0.160423 0.151807 0.61562 0.631695
          0.652278 0.69625 0.700468 0.685873 0.69763 0.689317 0.703261 0.355991 0.461062 0.493162 0.642049 0.634839
          0.641497 0.66022 0.673759 0.664699 0.637394 0.636806 0.631554 0.658168 0.656016 0.649881 0.730112 0.721141
          0.708096 0 0 0 0 0 0 0.791761 0.763777 0.79545 0.207315 0.200231
          0.315768 0.177428 0.178857 0.174769 0.182607 0.181892 0.181971 0.192019 0.185505 0.194915 0.19995 0.193908
          0.196831 0.187675 0.187726 0.184419 0.730153 0.73386 0.709933 0.192885 0.188643 0.189345 0.168602 0.191109
          0.1749 0.794845 0.767943 0.793042 0.507138 0.307656 0.326204 0.668216 0.673006 0.681515 0.668148 0.663459
          0.686771 0.673652 0.674736 0.682823 0.667351 0.655582 0.667517 0.528697 0.466235 0.599439 0 0
          0 0 0 0 0 0 0 0.685199 0.687837 0.692982 0.73033 0.733445
          0.720766 0.689724 0.693829 0.693721 0 0 0 0.239072 0.226865 0.220377 0.423447 0.55203
          0.490222 0.53459 0.567755 0.382004 0.674082 0.664333 0.666211 0.613998 0.622429 0.621289 0.62935 0.632836
          0.635794 0.7431 0.747902 0.72721 0.706248 0.71396 0.719824 0.614599 0.614097 0.611048 0.160082 0.189
          0.191262 0.228582 0.226457 0.221239 0.714734 0.707168 0.718553 0.353598 0.375899 0.33735 0.659885 0.637942
          0.63389 0.2608 0.279311 0.37878 0.68964 0.687666 0.678787 0.384844 0.344214 0.329459 0.852911 0.973656
          0.943438 1 1 1 0.582732 0 0 0 0 0 0 0
          0 0 0 0 0 0.0873936 0 0.15587 0.144364 0.113788 0.765887 0.76425
          0.821 1 0.967926 1 0.799998 0.788271 0.779368 0.205256 0.22496 0.198303 0.213871 0.678538
          0.652965 0.671267 0.640981 0.529819 0.277455 0.520404 0.238924 0 0 0 0 0.620196
          0.437395 0.61084 0.432662 0.387991 0.0714265 0.174336 0 0.689339 0.713303 0.646881 0.676527 0.711536
          0.714974 0.729126 0.731694 0.194109 0.181375 0.194674 0.183565 0.648581 0.600523 0.650354 0.610699 0.621608
          0.598095 0.440463 0.400482 0.752555 0.71253 0.768004 0.717131 0.754018 0.787635 0.759561 0.792337 0.74876
          0.741317 0.732142 0.72421 0.413525 0.529172 0.398013 0.522789 0.526418 0.295181 0.514868 0.287708 0.601443
          0.590611 0.601268 0.591665 0.693634 0.687255 0.693676 0.694083 0.537652 0.582818 0.325616 0.391103 0.642393
          0.643813 0.649374 0.650003 0.346515 0.274998 0.177638 0.108259 0.692185 0.68159 0.702668 0.691196 0
          0 0 0 0 0 0 0 0.522596 0.506199 0.271037 0.239422 0.160495
          0.285187 0.409004 0.493169 0.290504 0.274341 0 0 0.33949 0.270409 0.259666 0.247932 0.736557
          0.716793 0.670059 0.637003 0.422891 0.2806 0.598733 0.51617 0.609785 0.580264 0.646546 0.639843 0.753422
          0.756925 0.781292 0.784364 0 0 0 0 0.716337 0.712773 0.703069 0.699521 0
          0 0 0 0.652846 0.645315 0.649412 0.642741 0.218647 0.227641 0.218266 0.227755 0.787021
          0.751054 0.775435 0.730751 0.612967 0.401069 0.584426 0.371031 0.762704 0.791582 0.758733 0.787367 0.689724
          0.637789 0.700986 0.668531 0 0 0 0 0 0 0 0 0.565024
          0.300346 0.442507 0.211224 0.206311 0.225822 0.198719 0.225739 0.740161 0.778728 0.741246 0.77982 0.454226
          0.469772 0.117577 0.163795 0.236804 0.261468 0.222481 0.265817 0.694607 0.719039 0.693535 0.714984 0.187647
          0.188182 0.186022 0.187835 0 0 0 0 0 0 0 0 0
          0 0 0 0.313815 0 0.365051 0 0.689268 0.685519 0.700449 0.689553 0.437724
          0.610735 0.392727 0.603046 0.532509 0.548483 0.571295 0.577626 0.756892 0.760969 0.786885 0.789419 0.570037
          0.587561 0.66421 0.672033 0.259515 0.576427 0.228236 0.554973 0.633452 0.628258 0.626817 0.620976 0.741588
          0.736571 0.729959 0.719097 0.579997 0.556538 0.57932 0.559931 0.672581 0.673577 0.538815 0.574158 0.782729
          0.776185 0.75104 0.746105 0.392571 0.407253 0.143805 0.170886 0.737241 0.732814 0.788965 0.76962 0.664003
          0.676872 0.664927 0.676651 0.73651 0.795536 0.733416 0.774527 0.710186 0.710081 0.683476 0.687033 0.597351
          0.60003 0.615952 0.619475 0.617326 0.606612 0.619012 0.609542 0.692303 0.682519 0.675603 0.668412 0.619551
          0.642213 0.700697 0.709022 0.493616 0.515545 0.350233 0.39211 0.618738 0.625693 0.619782 0.627997 0.433983
          0.255166 0.472103 0.275742 0.776679 0.775903 0.737969 0.739192 0.211299 0.206059 0.215112 0.212115 0.326464
          0.319979 0.331637 0.319646 0.309169 0.441025 0.325659 0.474617 0.728437 0.750381 0.699342 0.710382 0.674326
          0.642689 0.667631 0.637632 0.619676 0.607497 0.615838 0.609295 0.174217 0.191371 0.14513 0.163909 0.23989
          0.243944 0.244772 0.243943 0.649731 0.638598 0.64939 0.640624 0.676317 0.550825 0.687793 0.58795 0.698818
          0.6924 0.689801 0.683034 0.785841 0.787249 0.754991 0.759767 0.626895 0.633585 0.628446 0.635076 0.220598
          0.223938 0.230963 0.223624 0.592559 0.590773 0.599873 0.600665 0.692426 0.695013 0.7048 0.706675 0.608922
          0.591865 0.610481 0.593359 0.706013 0.693658 0.698563 0.688431 0.603661 0.621162 0.542543 0.580494 0.626511
          0.620951 0.632656 0.6265 0.688306 0.678975 0.699733 0.694171 0.224605 0.219699 0.254092 0.220846 0
          0 0 0 0 0 0 0 0.351421 0.326879 0.315625 0.310478 0
          0 0 0 0.685137 0.676986 0.68604 0.674647 0.556251 0.545654 0.468648 0.471821 0.708477
          0.712663 0.702361 0.716077 0.716699 0.71943 0.735994 0.73882 0.23687 0.229941 0.212281 0.217598 0
          0 0 0 0.222521 0.235814 0.216806 0.221218 0.592697 0.610798 0.335327 0.391133 0.721759
          0.722617 0.696892 0.700172 0.620565 0.433128 0.648498 0.512713 0.736788 0.761203 0.731422 0.757985 0.198875
          0.202904 0.191688 0.198816 0.337157 0.322195 0.319126 0.32222 0.132679 0.137095 0.143428 0.152649 0.222919
          0.205025 0.246694 0.205872 0.725238 0.749654 0.714556 0.742299 0.685447 0.689909 0.680162 0.683749 0
          0 0 0 0.288556 0.293791 0.464614 0.488625 0.787022 0.758206 0.787136 0.758891 0.701635
          0.696026 0.643852 0.643344 0.616924 0.618336 0.608941 0.610042 0.436433 0.364528 0.558432 0.521585 0.72405
          0.700135 0.723132 0.701571 0.664714 0.690918 0.663578 0.687572 0.668201 0.628379 0.662333 0.617191 0.695985
          0.708803 0.69955 0.69764 0.661208 0.655821 0.662691 0.656039 0.286671 0.602548 0.304167 0.617217 0.582622
          0.448631 0.581329 0.466736 0.665691 0.668044 0.675134 0.678999 0.708549 0.69781 0.702228 0.688999 0.119811
          0 0.0746473 0 0.604621 0.587705 0.599171 0.571016 0.271917 0.246575 0.279745 0.241405 0.721319
          0.704738 0.719132 0.702276 0.613743 0.535012 0.659625 0.640166 0.626532 0.519959 0.520837 0.405385 0.66965
          0.684749 0.672154 0.691429 0.68804 0.684816 0.672188 0.67215 0.681834 0.692488 0.674972 0.686571 0.69731
          0.686453 0.69939 0.688096 0.695439 0.705903 0.699196 0.710432 0.755733 0.785594 0.753214 0.785285 0.682494
          0.673987 0.676056 0.669111 0.0157059 0 0 0 0.756945 0.782899 0.765681 0.791296 0.689427
          0.679882 0.697734 0.688752 0.567533 0.592316 0.347362 0.480646 0.653615 0.654689 0.642212 0.644454 0
          0 0 0 0.266747 0.211755 0.219327 0.196916 0.323915 0.328241 0.321219 0.322121 0.623435
          0.620442 0.602764 0.596673 0.657511 0.64765 0.613278 0.606151 0.211153 0.2117 0.206482 0.206988 0.327506
          0.312945 0.320926 0.319419 0.646174 0.694479 0.67369 0.70573 0.181272 0.321378 0.205788 0.415348 0.217681
          0.304108 0.244879 0.380615 0 0 0.115559 0 0.693629 0.709949 0.6067 0.66485 0.65094
          0.637399 0.650411 0.637422 0.63902 0.646426 0.64285 0.651594 0.617602 0.621221 0.623286 0.627633 0.345728
          0.355884 0.340731 0.342486 0.679946 0.668887 0.677709 0.669066 0.209121 0.211831 0.223927 0.223144 0
          0 0 0 0.560754 0.35383 0.560394 0.389984 0.594138 0.576708 0.590606 0.576419 0.685499
          0.724761 0.696349 0.730012 0.193623 0.200095 0.192048 0.198871 0.0238505 0.359025 0 0.250563 0.363665
          0.504076 0.224972 0.418985 0.738128 0.758029 0.735376 0.752917 0 0 0 0 0.76809
          0.760763 0.790528 0.784919 0.689105 0.681422 0.699678 0.693238 0.707128 0.715425 0.718062 0.729476 0.636074
          0.608688 0.656358 0.650652 0.0453944 0.353433 0.00188789 0.237896 0 0 0 0 0
          0 0.39793 0.355287 0.761948 0.741063 0.737568 0.723867 0.647451 0.665488 0.645559 0.664219 0.713632
          0.741167 0.712936 0.739533 0.293122 0.26602 0.523007 0.51648 0.629726 0.631484 0.621287 0.624513 0.702318
          0.68904 0.700349 0.689308 0.197064 0.210382 0.207419 0.286833 0 0 0 0 0
          0 0 0 0.755757 0.754681 0.788055 0.789645 0.715433 0.70746 0.726205 0.7185 0.71027
          0.702575 0.712348 0.705066 0.0392596 0 0 0 0.658513 0.674414 0.676805 0.688168 0.686055
          0.701453 0.624133 0.664465 0.616785 0.601642 0.60626 0.585477 0.687422 0.690651 0.710235 0.711231 0.605387
          0.598594 0.584117 0.565074 0.116072 0.23429 0 0 0.322874 0.421729 0.497506 0.575454 0.178433
          0.182721 0.179068 0.185553 0.612054 0.618714 0.616142 0.622558 0.723052 0.719242 0.746358 0.736687 0
          0 0 0 0.674186 0.685028 0.678599 0.685853 0.723878 0.734552 0.70856 0.720633 0.156022
          0.124275 0.151207 0.102949 0.268958 0.273007 0.209929 0.201567 0.717721 0.722919 0.684572 0.692075 0.46649
          0.242942 0.429173 0.196812 0.675385 0.679744 0.590469 0.624895 0.202586 0.184195 0.19399 0.189538 0.649825
          0.641008 0.645651 0.637752 0.231538 0.262637 0.233622 0.321303 0.610948 0.616583 0.599717 0.609908 0.172675
          0.177258 0.172448 0.1757 0.66496 0.663475 0.672481 0.665599 0.742223 0.739562 0.726743 0.724864 0.21822
          0.223171 0.216805 0.216558 0.603273 0.606959 0.607588 0.611281 0.193 0.195207 0.166921 0.181232 0.679382
          0.668872 0.690184 0.680002 0.769785 0.74142 0.840212 0.781434 0.66459 0.658174 0.661625 0.653322 0.247781
          0.251827 0.244605 0.266514 0.142576 0 0.243024 0 0.172091 0.169008 0.168116 0.166923 0.153344
          0.120302 0 0 0.304928 0.274294 0.491265 0.500333 0.650611 0.642501 0.650722 0.642561 0.53573
          0.431212 0.557516 0.453103 0.611387 0.536493 0.676966 0.639076 0.735014 0.749541 0.756538 0.763387 0.189898
          0.196331 0.176208 0.189152 0.615819 0.600817 0.63935 0.640287 0.12745 0 0.105644 0 0.624384
          0.631655 0.625904 0.633257 0.604282 0.55855 0.602679 0.554179 0.245439 0.241795 0.244053 0.239679 0.760844
          0.768369 0.788401 0.794543 0.692016 0.729207 0.679889 0.719376 0.679778 0.719741 0.666726 0.71548 0.193323
          0.192893 0.178941 0.174579 0.414346 0.129931 0.41066 0.114897 0 0 0 0 0.18394
          0.186165 0.181361 0.184767 0.318301 0.228473 0.22158 0.199146 0.183703 0.187739 0.18224 0.183834 0.704485
          0.690358 0.725756 0.712553 0.392571 0.240033 0.0542327 0.00243038 0.131211 0.122334 0.13725 0.127615 0.652688
          0.651235 0.64177 0.642027 0.662373 0.651539 0.656262 0.645019 0.64064 0.630248 0.639091 0.628793 0
          0 0 0 0.177545 0.20296 0.181901 0.194726 0.733944 0.756555 0.75012 0.758329 0.694559
          0.674821 0.690273 0.669839 0.70225 0.701108 0.712337 0.712858 0.613472 0.621465 0.612062 0.621704 0.722689
          0.67275 0.752685 0.712935 0.706204 0.694189 0.700747 0.686905 0.184381 0.180446 0.180016 0.175856 0.747367
          0.739432 0.726646 0.719253 0.706286 0.692933 0.709163 0.696122 0.811966 0.793203 0.795675 0.769482 0.649173
          0.657448 0.649001 0.657983 0.750869 0.724104 0.748152 0.725152 0.639961 0.639578 0.648323 0.647346 0.673591
          0.663926 0.66677 0.660067 0.213116 0.217718 0.214051 0.222572 0.646011 0.660819 0.672499 0.690423 0.182377
          0.181372 0.181294 0.180203 0.169763 0.208308 0.203438 0.237947 0.183921 0.204311 0.190237 0.201865 0.757327
          0.792207 0.767889 0.798171 0.599742 0.602503 0.594732 0.598631 0.675248 0.667727 0.659504 0.65515 0.68662
          0.684456 0.700018 0.701623 0.723688 0.716952 0.740798 0.733656 0.192676 0.188714 0.18342 0.184175 0.649328
          0.607984 0.645582 0.605241 0 0 0 0 0.769205 0.795049 0.774606 0.800606 0.143109
          0.156662 0.126056 0.14904 0.748978 0.755614 0.717796 0.731471 0.607912 0.613265 0.574202 0.595116 0
          0 0 0 0.652426 0 0.725498 0 0.716109 0.710901 0.728951 0.721654 0.658992
          0.656951 0.647708 0.645233 0.728253 0.73106 0.703103 0.707602 0.19671 0.208254 0.198658 0.207293 0.667673
          0.676228 0.673419 0.681293 0.670168 0.673484 0.657594 0.661151 0.678864 0.679108 0.66938 0.669861 0.600019
          0.591325 0.597113 0.588702 0.209567 0.233783 0.204004 0.234677 0.442068 0.51997 0.262059 0.402141 0.68121
          0.668751 0.671405 0.658559 0.643621 0.652063 0.639133 0.647933 0.700987 0.713479 0.702873 0.715611 0.707131
          0.666855 0.717862 0.691029 0.642893 0.662944 0.638972 0.663223 0 0 0 0 0.720403
          0.716941 0.735261 0.737561 0.74166 0.779918 0.741736 0.779477 0 0 0 0 0.186997
          0.177321 0.187837 0.18304 0.697444 0.712356 0.699782 0.716217 0.655845 0.658345 0.649924 0.656839 0.63443
          0.54954 0.615856 0.453434 0.186312 0.20165 0.190841 0.19647 0.744152 0.781875 0.74286 0.780595 0
          0 0 0 0.670692 0.659148 0.675689 0.666781 0.680813 0.677918 0.673555 0.670577 0.679859
          0.677584 0.665495 0.663422 0.751935 0.752649 0.785354 0.786052 0.113405 0 0.133502 0 0.17457
          0.169122 0.172516 0.169898 0.654462 0.662741 0.635014 0.626766 0 0 0 0 0.17164
          0.167383 0.17718 0.16975 0.674714 0.669709 0.689683 0.687904 0.268811 0.108112 0.181479 0.0729967 0.704659
          0.696506 0.684483 0.673654 0.178114 0.174494 0.18334 0.175666 0.723478 0.718342 0.705464 0.703629 0.656582
          0.656295 0.665391 0.666197 0.698441 0.705192 0.714289 0.722098 0.187805 0.198158 0.258422 0.33045 0.667744
          0.661353 0.663955 0.659453 0.704546 0.713216 0.712201 0.726186 0.255131 0.206821 0.247847 0.217103 0.20032
          0.208088 0.203696 0.209537 0.723563 0.719488 0.74133 0.73882 0.633854 0.641688 0.630888 0.638999 0.7408
          0.754498 0.71726 0.731597 0 0 0 0 0.658807 0.66137 0.646712 0.64859 0.589443
          0.663054 0.488687 0.588167 0.787262 0.78079 0.760666 0.75841 0.592254 0.613331 0.618685 0.636457 0
          0 0 0 0.623334 0.624495 0.630558 0.632219 0.321521 0.32082 0.309147 0.297137 0.685813
          0.682712 0.67556 0.672406 0.638865 0.639255 0.628156 0.63009 0.712107 0.71261 0.722649 0.710263 0.72567
          0.720107 0.704517 0.702207 0.755492 0.7684 0.729207 0.747587 0.627379 0.635647 0.628111 0.63736 0.677789
          0.68848 0.678786 0.690246 0.722894 0.736499 0.725702 0.742801 0.684493 0.673322 0.695931 0.68472 0.216534
          0.224763 0.2275 0.236918 0.762468 0.765227 0.793098 0.795716 0.19914 0.194456 0.195255 0.190402 0
          0 0 0 0.788025 0.750577 0.783191 0.747445 0.488627 0.354009 0.492102 0.334128 0.646679
          0.643185 0.659253 0.653792 0.622659 0.620009 0.630446 0.62871 0.671443 0.660329 0.674201 0.661504 0.760118
          0.760647 0.782801 0.78473 0.708421 0.695683 0.703815 0.693949 0.738955 0.711008 0.73923 0.712205 0.356091
          0.540911 0.413068 0.580737 0.699203 0.68759 0.716191 0.69648 0.754764 0.756341 0.78625 0.786618 0.577634
          0.573775 0.438738 0.468723 0.78741 0.810771 0.913979 0.940997 0.0212448 0 0.150339 0 0.201042
          0.202322 0.215613 0.208888 0.735398 0.724839 0.721163 0.711428 0 0 0 0 0
          0 0 0 0.0613607 0 0.0101301 0 0.53054 0.251746 0.468028 0.187482 0.726987
          0.697449 0.732261 0.709435 0.645162 0.65629 0.648759 0.659576 0.691659 0.691557 0.691958 0.689303 0.563315
          0.543263 0.604508 0.601013 0.659573 0.656371 0.65139 0.64909 0.685409 0.715591 0.679449 0.710311 0.684382
          0.682292 0.672284 0.669319 0.201816 0.185986 0.210579 0.208913 0.719542 0.696837 0.70374 0.686253 0.247253
          0.230163 0.234734 0.238559 0.181483 0.182775 0.177665 0.187902 0.580655 0.564569 0.58927 0.580245 0.733643
          0.706332 0.741413 0.71156 0.68447 0.698379 0.476396 0.610709 0.659934 0.661254 0.647708 0.651793 0.606224
          0.640749 0.406971 0.509539 0.762564 0.767158 0.791414 0.796499 0.682629 0.476987 0.687559 0.518708 0.68465
          0.680665 0.689396 0.682093 0 0 0 0 0.622805 0.616534 0.629288 0.625913 0.721706
          0.709735 0.731014 0.716916 0 0 0 0 0.51089 0.304094 0.502845 0.288424 0.685438
          0.680365 0.69524 0.69178 0.650463 0.649895 0.637313 0.639843 0.153314 0 0 0 0.629175
          0.629822 0.636161 0.637757 0.241578 0.267083 0.270283 0.290621 0.60836 0.607089 0.616554 0.616587 0.695936
          0.680272 0.696202 0.696195 0.290858 0.320922 0.303083 0.318943 0.741493 0.766121 0.732442 0.755281 0.684694
          0.688622 0.709922 0.696847 0.68841 0.682375 0.704393 0.69332 0.607625 0.526509 0.537253 0.407398 0.690689
          0.685973 0.685582 0.681052 0.641257 0.649737 0.638003 0.646719 0.490805 0.342384 0.648107 0.638304 0.668783
          0.68336 0.486613 0.58823 0.607114 0.596642 0.616052 0.608183 0.746818 0.761654 0.725459 0.741528 0.186119
          0.187113 0.194174 0.187706 0.643251 0.646259 0.650447 0.653122 0.632014 0.663514 0.616323 0.657995 0.324894
          0.588007 0.231128 0.560743 0.676608 0.665442 0.667607 0.658655 0.172449 0.176588 0.174056 0.189999 0.689535