<?xml version="1.0"?>
<VTKFile type="UnstructuredGrid" version="0.1" byte_order="LittleEndian">
  <UnstructuredGrid>
    <Piece NumberOfCells="384" NumberOfPoints="425">
      <PointData Scalars="S_w" Vectors="velocity_w">
        <DataArray type="Float32" Name="S_w" NumberOfComponents="1" format="ascii">
          1 1 1 1 1 1 0.995749 0.994731 0.345531 0.327884 0.00193238 0.00194551
          0 0 0 0 0 0 0 0 0 0 0 0
          0 0 0 0 0 0 0 0 0 0 0 0
          0 0 0 0 0 0 0 0 0 0 0 0
          0 0 1 1 1 0.994576 0.319264 0.00188844 0 0 0 0
          0 0 0 0 0 0 0 0 0 0 0 0
          0 0 0 1 1 1 0.99456 0.315558 0.00183335 0 0 0
          0 0 0 0 0 0 0 0 0 0 0 0
          0 0 0 0 1 1 1 0.994563 0.313949 0.00180179 0 0
          0 0 0 0 0 0 0 0 0 0 0 0
          0 0 0 0 0 1 1 1 0.994567 0.313245 0.00178538 0
          0 0 0 0 0 0 0 0 0 0 0 0
          0 0 0 0 0 0 1 1 1 0.99457 0.312931 0.00177701
          0 0 0 0 0 0 0 0 0 0 0 0
          0 0 0 0 0 0 0 1 1 1 0.994572 0.31278
          0.00177252 0 0 0 0 0 0 0 0 0 0 0
          0 0 0 0 0 0 0 0 1 1 1 0.994573
          0.31269 0.00176957 0 0 0 0 0 0 0 0 0 0
          0 0 0 0 0 0 0 0 0 1 1 1
          0.994574 0.312598 0.00176661 0 0 0 0 0 0 0 0 0
          0 0 0 0 0 0 0 0 0 0 1 1
          1 0.994576 0.312443 0.00176207 0 0 0 0 0 0 0 0
          0 0 0 0 0 0 0 0 0 0 0 1
          1 1 0.994579 0.312119 0.00175356 0 0 0 0 0 0 0
          0 0 0 0 0 0 0 0 0 0 0 0
          1 1 1 0.994582 0.311392 0.00173688 0 0 0 0 0 0
          0 0 0 0 0 0 0 0 0 0 0 0
          0 1 1 1 0.994585 0.309738 0.00170493 0 0 0 0 0
          0 0 0 0 0 0 0 0 0 0 0 0
          0 0 1 1 1 0.994573 0.305952 0.00165022 0 0 0 0
          0 0 0 0 0 0 0 0 0 0 0 0
          0 0 0 1 1 1 0.99447 0.297344 0.00160024 0 0 0
          0 0 0 0 0 0 0 0 0 0 0 0
          0 0 0 0 1 1 1 0.993002 0.281032 0.00161476 0 0
          0 0 0 0 0 0 0 0 0 0 0 0
          0 0 0 0 0
        </DataArray>
        <DataArray type="Float32" Name="S_n" NumberOfComponents="1" format="ascii">
          0 0 0 0 0 0 0.00425055 0.00526931 0.654469 0.672116 0.998068 0.998055
          1 1 1 1 1 1 1 1 1 1 1 1
          1 1 1 1 1 1 1 1 1 1 1 1
          1 1 1 1 1 1 1 1 1 1 1 1
          1 1 0 0 0 0.00542432 0.680736 0.998112 1 1 1 1
          1 1 1 1 1 1 1 1 1 1 1 1
          1 1 1 0 0 0 0.00544047 0.684442 0.998167 1 1 1
          1 1 1 1 1 1 1 1 1 1 1 1
          1 1 1 1 0 0 0 0.00543696 0.686051 0.998198 1 1
          1 1 1 1 1 1 1 1 1 1 1 1
          1 1 1 1 1 0 0 0 0.00543263 0.686755 0.998215 1
          1 1 1 1 1 1 1 1 1 1 1 1
          1 1 1 1 1 1 0 0 0 0.00542973 0.687069 0.998223
          1 1 1 1 1 1 1 1 1 1 1 1
          1 1 1 1 1 1 1 0 0 0 0.00542795 0.68722
          0.998227 1 1 1 1 1 1 1 1 1 1 1
          1 1 1 1 1 1 1 1 0 0 0 0.0054267
          0.68731 0.99823 1 1 1 1 1 1 1 1 1 1
          1 1 1 1 1 1 1 1 1 0 0 0
          0.0054255 0.687402 0.998233 1 1 1 1 1 1 1 1 1
          1 1 1 1 1 1 1 1 1 1 0 0
          0 0.00542388 0.687557 0.998238 1 1 1 1 1 1 1 1
          1 1 1 1 1 1 1 1 1 1 1 0
          0 0 0.00542134 0.687882 0.998246 1 1 1 1 1 1 1
          1 1 1 1 1 1 1 1 1 1 1 1
          0 0 0 0.00541763 0.688608 0.998263 1 1 1 1 1 1
          1 1 1 1 1 1 1 1 1 1 1 1
          1 0 0 0 0.00541475 0.690262 0.998295 1 1 1 1 1
          1 1 1 1 1 1 1 1 1 1 1 1
          1 1 0 0 0 0.00542715 0.694048 0.99835 1 1 1 1
          1 1 1 1 1 1 1 1 1 1 1 1
          1 1 1 0 0 0 0.00553049 0.702656 0.9984 1 1 1
          1 1 1 1 1 1 1 1 1 1 1 1
          1 1 1 1 0 0 0 0.00699785 0.718968 0.998385 1 1
          1 1 1 1 1 1 1 1 1 1 1 1
          1 1 1 1 1
        </DataArray>
        <DataArray type="Float32" Name="p_w" NumberOfComponents="1" format="ascii">
          4.2e+06 3.21686e+06 4.2e+06 3.19974e+06 2.21108e+06 2.19189e+06 1.19371e+06 1.17414e+06 190380 192876 166599 167051
          150581 150693 136537 136558 125103 125092 116439 116417 110316 110291 106254 106228
          103696 103671 102152 102126 101247 101222 100730 100705 100440 100415 100278 100253
          100189 100164 100139 100114 100109 100085 100089 100065 100070 100047 100046 100026
          100000 100000 4.2e+06 3.1926e+06 2.18158e+06 1.16567e+06 193229 167585 150921 136642 125113 116411
          110275 106209 103650 102106 101202 100685 100395 100234 100145 100095 100067 100048
          100032 100017 100000 4.2e+06 3.18926e+06 2.17662e+06 1.1616e+06 193062 167725 151041 136701 125131
          116409 110264 106194 103635 102090 101187 100670 100380 100219 100130 100081 100053
          100036 100023 100011 100000 4.2e+06 3.18766e+06 2.17422e+06 1.15958e+06 192783 167661 151034 136704
          125129 116400 110252 106181 103622 102078 101175 100659 100369 100208 100120 100071
          100044 100028 100017 100008 100000 4.2e+06 3.18688e+06 2.17303e+06 1.15854e+06 192526 167530 150962
          136665 125105 116383 110238 106170 103612 102069 101166 100651 100361 100201 100113
          100065 100038 100023 100013 100006 100000 4.2e+06 3.18648e+06 2.17242e+06 1.15798e+06 192320 167395
          150871 136607 125069 116360 110223 106158 103603 102062 101160 100645 100355 100195
          100107 100060 100034 100019 100010 100005 100000 4.2e+06 3.18625e+06 2.17206e+06 1.15764e+06 192156
          167272 150780 136545 125028 116334 110206 106147 103595 102055 101155 100640 100351
          100191 100104 100056 100031 100016 100009 100004 100000 4.2e+06 3.1861e+06 2.17181e+06 1.15739e+06
          192016 167161 150693 136482 124985 116307 110189 106136 103588 102050 101150 100636
          100347 100188 100100 100053 100028 100014 100007 100003 100000 4.2e+06 3.18594e+06 2.17156e+06
          1.15714e+06 191875 167048 150606 136420 124943 116279 110171 106125 103580 102044 101145
          100632 100344 100184 100097 100050 100025 100012 100006 100002 100000 4.2e+06 3.1857e+06
          2.17119e+06 1.15678e+06 191709 166925 150515 136357 124902 116253 110154 106113 103572 102038
          101140 100627 100339 100180 100093 100047 100022 100010 100004 100001 100000 4.2e+06
          3.18528e+06 2.17054e+06 1.15619e+06 191496 166785 150422 136298 124865 116229 110138 106102 103563
          102030 101133 100621 100333 100175 100088 100042 100018 100006 100001 99999.9 100000
          4.2e+06 3.18445e+06 2.16928e+06 1.15508e+06 191224 166646 150345 136257 124840 116212 110124 106090
          103553 102021 101125 100613 100325 100167 100081 100035 100012 100001 99997.5 99997.8
          100000 4.2e+06 3.18277e+06 2.16673e+06 1.15292e+06 190915 166569 150333 136257 124836 116202 110112
          106078 103540 102009 101113 100601 100314 100156 100070 100025 100003 99993.2 99991.5
          99994.6 100000 4.2e+06 3.17928e+06 2.16149e+06 1.14855e+06 190708 166707 150455 136317 124854 116199
          110100 106062 103525 101993 101098 100586 100300 100142 100056 100011 99989.5 99981.3
          99982.1 99989.2 100000 4.2e+06 3.17195e+06 2.15065e+06 1.13935e+06 191093 167301 150702 136404 124874
          116192 110084 106043 103504 101973 101078 100566 100280 100122 100037 99992.3 99971.1
          99964.1 99967.4 99979.9 100000 4.2e+06 3.15475e+06 2.13111e+06 1.11706e+06 194278 167837 150830 136427
          124864 116171 110059 106017 103479 101948 101053 100541 100255 100097 100012 99967.6
          99946.7 99940.2 99944.5 99960.2 100000
        </DataArray>
        <DataArray type="Float32" Name="p_n" NumberOfComponents="1" format="ascii">
          4.2e+06 3.21686e+06 4.2e+06 3.19974e+06 2.21108e+06 2.19189e+06 1.19371e+06 1.17414e+06 190380 192876 166599 167051
          150581 150693 136537 136558 125103 125092 116439 116417 110316 110291 106254 106228
          103696 103671 102152 102126 101247 101222 100730 100705 100440 100415 100278 100253
          100189 100164 100139 100114 100109 100085 100089 100065 100070 100047 100046 100026
          100000 100000 4.2e+06 3.1926e+06 2.18158e+06 1.16567e+06 193229 167585 150921 136642 125113 116411
          110275 106209 103650 102106 101202 100685 100395 100234 100145 100095 100067 100048
          100032 100017 100000 4.2e+06 3.18926e+06 2.17662e+06 1.1616e+06 193062 167725 151041 136701 125131
          116409 110264 106194 103635 102090 101187 100670 100380 100219 100130 100081 100053
          100036 100023 100011 100000 4.2e+06 3.18766e+06 2.17422e+06 1.15958e+06 192783 167661 151034 136704
          125129 116400 110252 106181 103622 102078 101175 100659 100369 100208 100120 100071
          100044 100028 100017 100008 100000 4.2e+06 3.18688e+06 2.17303e+06 1.15854e+06 192526 167530 150962
          136665 125105 116383 110238 106170 103612 102069 101166 100651 100361 100201 100113
          100065 100038 100023 100013 100006 100000 4.2e+06 3.18648e+06 2.17242e+06 1.15798e+06 192320 167395
          150871 136607 125069 116360 110223 106158 103603 102062 101160 100645 100355 100195
          100107 100060 100034 100019 100010 100005 100000 4.2e+06 3.18625e+06 2.17206e+06 1.15764e+06 192156
          167272 150780 136545 125028 116334 110206 106147 103595 102055 101155 100640 100351
          100191 100104 100056 100031 100016 100009 100004 100000 4.2e+06 3.1861e+06 2.17181e+06 1.15739e+06
          192016 167161 150693 136482 124985 116307 110189 106136 103588 102050 101150 100636
          100347 100188 100100 100053 100028 100014 100007 100003 100000 4.2e+06 3.18594e+06 2.17156e+06
          1.15714e+06 191875 167048 150606 136420 124943 116279 110171 106125 103580 102044 101145
          100632 100344 100184 100097 100050 100025 100012 100006 100002 100000 4.2e+06 3.1857e+06
          2.17119e+06 1.15678e+06 191709 166925 150515 136357 124902 116253 110154 106113 103572 102038
          101140 100627 100339 100180 100093 100047 100022 100010 100004 100001 100000 4.2e+06
          3.18528e+06 2.17054e+06 1.15619e+06 191496 166785 150422 136298 124865 116229 110138 106102 103563
          102030 101133 100621 100333 100175 100088 100042 100018 100006 100001 99999.9 100000
          4.2e+06 3.18445e+06 2.16928e+06 1.15508e+06 191224 166646 150345 136257 124840 116212 110124 106090
          103553 102021 101125 100613 100325 100167 100081 100035 100012 100001 99997.5 99997.8
          100000 4.2e+06 3.18277e+06 2.16673e+06 1.15292e+06 190915 166569 150333 136257 124836 116202 110112
          106078 103540 102009 101113 100601 100314 100156 100070 100025 100003 99993.2 99991.5
          99994.6 100000 4.2e+06 3.17928e+06 2.16149e+06 1.14855e+06 190708 166707 150455 136317 124854 116199
          110100 106062 103525 101993 101098 100586 100300 100142 100056 100011 99989.5 99981.3
          99982.1 99989.2 100000 4.2e+06 3.17195e+06 2.15065e+06 1.13935e+06 191093 167301 150702 136404 124874
          116192 110084 106043 103504 101973 101078 100566 100280 100122 100037 99992.3 99971.1
          99964.1 99967.4 99979.9 100000 4.2e+06 3.15475e+06 2.13111e+06 1.11706e+06 194278 167837 150830 136427
          124864 116171 110059 106017 103479 101948 101053 100541 100255 100097 100012 99967.6
          99946.7 99940.2 99944.5 99960.2 100000
        </DataArray>
        <DataArray type="Float32" Name="rho_w" NumberOfComponents="1" format="ascii">
          998.893 998.451 998.893 998.443 997.998 997.989 997.54 997.531 997.088 997.089 997.078 997.078
          997.07 997.07 997.064 997.064 997.059 997.059 997.055 997.055 997.052 997.052 997.05 997.05
          997.049 997.049 997.049 997.049 997.048 997.048 997.048 997.048 997.048 997.048 997.048 997.048
          997.048 997.048 997.048 997.048 997.048 997.048 997.048 997.048 997.048 997.048 997.048 997.048
          997.048 997.048 998.893 998.44 997.985 997.527 997.09 997.078 997.071 997.064 997.059 997.055
          997.052 997.05 997.049 997.049 997.048 997.048 997.048 997.048 997.048 997.048 997.048 997.048
          997.048 997.048 997.048 998.893 998.438 997.982 997.526 997.09 997.078 997.071 997.064 997.059
          997.055 997.052 997.05 997.049 997.049 997.048 997.048 997.048 997.048 997.048 997.048 997.048
          997.048 997.048 997.048 997.048 998.893 998.437 997.981 997.525 997.089 997.078 997.071 997.064
          997.059 997.055 997.052 997.05 997.049 997.049 997.048 997.048 997.048 997.048 997.048 997.048
          997.048 997.048 997.048 997.048 997.048 998.893 998.437 997.981 997.524 997.089 997.078 997.071
          997.064 997.059 997.055 997.052 997.05 997.049 997.049 997.048 997.048 997.048 997.048 997.048
          997.048 997.048 997.048 997.048 997.048 997.048 998.893 998.437 997.98 997.524 997.089 997.078
          997.071 997.064 997.059 997.055 997.052 997.05 997.049 997.049 997.048 997.048 997.048 997.048
          997.048 997.048 997.048 997.048 997.048 997.048 997.048 998.893 998.437 997.98 997.524 997.089
          997.078 997.071 997.064 997.059 997.055 997.052 997.05 997.049 997.049 997.048 997.048 997.048
          997.048 997.048 997.048 997.048 997.048 997.048 997.048 997.048 998.893 998.437 997.98 997.524
          997.089 997.078 997.07 997.064 997.059 997.055 997.052 997.05 997.049 997.049 997.048 997.048
          997.048 997.048 997.048 997.048 997.048 997.048 997.048 997.048 997.048 998.893 998.437 997.98
          997.523 997.089 997.078 997.07 997.064 997.059 997.055 997.052 997.05 997.049 997.049 997.048
          997.048 997.048 997.048 997.048 997.048 997.048 997.048 997.048 997.048 997.048 998.893 998.437
          997.98 997.523 997.089 997.078 997.07 997.064 997.059 997.055 997.052 997.05 997.049 997.049
          997.048 997.048 997.048 997.048 997.048 997.048 997.048 997.048 997.048 997.048 997.048 998.893
          998.436 997.98 997.523 997.089 997.078 997.07 997.064 997.059 997.055 997.052 997.05 997.049
          997.049 997.048 997.048 997.048 997.048 997.048 997.048 997.048 997.048 997.048 997.048 997.048
          998.893 998.436 997.979 997.523 997.089 997.078 997.07 997.064 997.059 997.055 997.052 997.05
          997.049 997.049 997.048 997.048 997.048 997.048 997.048 997.048 997.048 997.048 997.048 997.048
          997.048 998.893 998.435 997.978 997.522 997.089 997.078 997.07 997.064 997.059 997.055 997.052
          997.05 997.049 997.049 997.048 997.048 997.048 997.048 997.048 997.048 997.048 997.048 997.048
          997.048 997.048 998.893 998.434 997.976 997.52 997.089 997.078 997.07 997.064 997.059 997.055
          997.052 997.05 997.049 997.049 997.048 997.048 997.048 997.048 997.048 997.048 997.048 997.048
          997.048 997.048 997.048 998.893 998.43 997.971 997.516 997.089 997.078 997.07 997.064 997.059
          997.055 997.052 997.05 997.049 997.049 997.048 997.048 997.048 997.048 997.048 997.048 997.048
          997.048 997.048 997.048 997.048 998.893 998.423 997.962 997.505 997.09 997.078 997.071 997.064
          997.059 997.055 997.052 997.05 997.049 997.049 997.048 997.048 997.048 997.048 997.048 997.048
          997.048 997.048 997.048 997.048 997.048
        </DataArray>
        <DataArray type="Float32" Name="rho_n" NumberOfComponents="1" format="ascii">
          30.5224 36.2604 30.5224 36.0671 24.9623 24.7461 13.4767 13.2555 2.13859 2.16681 1.86986 1.87497
          1.69203 1.69327 1.53621 1.53644 1.4084 1.40828 1.31107 1.31083 1.24217 1.24189 1.19643 1.19614
          1.16764 1.16735 1.15024 1.14995 1.14006 1.13977 1.13424 1.13395 1.13096 1.13068 1.12915 1.12887
          1.12814 1.12786 1.12758 1.1273 1.12725 1.12697 1.12701 1.12674 1.1268 1.12654 1.12653 1.12631
          1.12601 1.12601 30.5224 35.9857 24.6296 13.1598 2.1708 1.881 1.69583 1.53737 1.40851 1.31077
          1.24171 1.19592 1.16712 1.14973 1.13955 1.13373 1.13046 1.12865 1.12765 1.12709 1.12676 1.12655
          1.12638 1.1262 1.12601 30.5224 35.9477 24.5736 13.1139 2.16891 1.88259 1.69718 1.53803 1.40872
          1.31074 1.24158 1.19576 1.16694 1.14955 1.13938 1.13356 1.13029 1.12848 1.12748 1.12693 1.12661
          1.12642 1.12627 1.12614 1.12601 30.5224 35.9295 24.5464 13.091 2.16576 1.88187 1.6971 1.53807
          1.40869 1.31064 1.24145 1.19562 1.1668 1.14942 1.13925 1.13343 1.13017 1.12836 1.12737 1.12682
          1.12651 1.12633 1.1262 1.1261 1.12601 30.5224 35.9206 24.533 13.0793 2.16285 1.88039 1.6963
          1.53763 1.40842 1.31045 1.2413 1.19549 1.16669 1.14931 1.13915 1.13334 1.13008 1.12827 1.12728
          1.12674 1.12644 1.12627 1.12616 1.12608 1.12601 30.5224 35.9161 24.526 13.0729 2.16052 1.87885
          1.69527 1.53699 1.40802 1.31019 1.24112 1.19536 1.16659 1.14923 1.13907 1.13327 1.13001 1.12821
          1.12722 1.12669 1.12639 1.12623 1.12613 1.12607 1.12601 30.5224 35.9135 24.522 13.0691 2.15867
          1.87747 1.69425 1.53628 1.40755 1.3099 1.24093 1.19523 1.1665 1.14916 1.13901 1.13322 1.12996
          1.12817 1.12718 1.12665 1.12636 1.1262 1.12611 1.12605 1.12601 30.5224 35.9118 24.5192 13.0663
          2.15709 1.87621 1.69328 1.53558 1.40708 1.30959 1.24073 1.1951 1.16641 1.14909 1.13896 1.13317
          1.12992 1.12813 1.12714 1.12661 1.12633 1.12618 1.12609 1.12605 1.12601 30.5224 35.91 24.5163
          13.0634 2.15549 1.87494 1.6923 1.53488 1.4066 1.30928 1.24054 1.19498 1.16632 1.14903 1.13891
          1.13313 1.12988 1.12809 1.12711 1.12658 1.1263 1.12615 1.12608 1.12604 1.12601 30.5224 35.9073
          24.5122 13.0594 2.15362 1.87354 1.69127 1.53417 1.40614 1.30898 1.24035 1.19485 1.16623 1.14896
          1.13885 1.13307 1.12983 1.12804 1.12707 1.12654 1.12627 1.12613 1.12606 1.12603 1.12601 30.5224
          35.9025 24.5048 13.0527 2.15121 1.87197 1.69022 1.53351 1.40573 1.30872 1.24017 1.19472 1.16613
          1.14887 1.13878 1.133 1.12977 1.12798 1.12701 1.12649 1.12622 1.12609 1.12603 1.12601 1.12601
          30.5224 35.8931 24.4905 13.0402 2.14813 1.87039 1.68937 1.53305 1.40545 1.30852 1.24001 1.19459
          1.16602 1.14877 1.13868 1.13291 1.12968 1.12789 1.12692 1.12641 1.12615 1.12603 1.12599 1.12599
          1.12601 30.5224 35.874 24.4618 13.0158 2.14464 1.86953 1.68924 1.53306 1.4054 1.30842 1.23988
          1.19445 1.16588 1.14864 1.13855 1.13279 1.12955 1.12777 1.12681 1.1263 1.12604 1.12594 1.12592
          1.12595 1.12601 30.5224 35.8342 24.4025 12.9664 2.14231 1.87108 1.69061 1.53373 1.4056 1.30838
          1.23974 1.19428 1.1657 1.14846 1.13837 1.13261 1.12939 1.12761 1.12664 1.12614 1.12589 1.1258
          1.12581 1.12589 1.12601 30.5224 35.7508 24.28 12.8624 2.14666 1.8778 1.69338 1.5347 1.40583
          1.3083 1.23956 1.19406 1.16547 1.14823 1.13815 1.13239 1.12916 1.12739 1.12643 1.12593 1.12569
          1.12561 1.12565 1.12579 1.12601 30.5224 35.5565 24.0598 12.6105 2.18265 1.88386 1.6948 1.53495
          1.40571 1.30806 1.23927 1.19377 1.16518 1.14794 1.13787 1.13211 1.12888 1.12711 1.12615 1.12565
          1.12541 1.12534 1.12539 1.12556 1.12601
        </DataArray>
        <DataArray type="Float32" Name="lambda_w" NumberOfComponents="1" format="ascii">
          1124.29 1124.11 1124.29 1124.11 1123.94 1123.93 1123.58 1123.47 378.59 357.662 0.037474 0.0379862
          0 0 0 0 0 0 0 0 0 0 0 0
          0 0 0 0 0 0 0 0 0 0 0 0
          0 0 0 0 0 0 0 0 0 0 0 0
          0 0 1124.29 1124.11 1123.93 1123.46 347.439 0.0357853 0 0 0 0
          0 0 0 0 0 0 0 0 0 0 0 0
          0 0 0 1124.29 1124.11 1123.93 1123.45 343.042 0.0337233 0 0 0
          0 0 0 0 0 0 0 0 0 0 0 0
          0 0 0 0 1124.29 1124.11 1123.93 1123.45 341.134 0.0325697 0 0
          0 0 0 0 0 0 0 0 0 0 0 0
          0 0 0 0 0 1124.29 1124.11 1123.93 1123.45 340.3 0.0319777 0
          0 0 0 0 0 0 0 0 0 0 0 0
          0 0 0 0 0 0 1124.29 1124.11 1123.93 1123.45 339.927 0.0316778
          0 0 0 0 0 0 0 0 0 0 0 0
          0 0 0 0 0 0 0 1124.29 1124.11 1123.93 1123.45 339.748
          0.0315176 0 0 0 0 0 0 0 0 0 0 0
          0 0 0 0 0 0 0 0 1124.29 1124.11 1123.93 1123.45
          339.641 0.0314127 0 0 0 0 0 0 0 0 0 0
          0 0 0 0 0 0 0 0 0 1124.29 1124.11 1123.93
          1123.45 339.532 0.0313074 0 0 0 0 0 0 0 0 0
          0 0 0 0 0 0 0 0 0 0 1124.29 1124.11
          1123.93 1123.45 339.348 0.0311462 0 0 0 0 0 0 0 0
          0 0 0 0 0 0 0 0 0 0 0 1124.29
          1124.11 1123.93 1123.45 338.963 0.0308456 0 0 0 0 0 0 0
          0 0 0 0 0 0 0 0 0 0 0 0
          1124.29 1124.11 1123.93 1123.45 338.102 0.0302601 0 0 0 0 0 0
          0 0 0 0 0 0 0 0 0 0 0 0
          0 1124.29 1124.11 1123.93 1123.45 336.139 0.029155 0 0 0 0 0
          0 0 0 0 0 0 0 0 0 0 0 0
          0 0 1124.29 1124.11 1123.93 1123.45 331.649 0.02731 0 0 0 0
          0 0 0 0 0 0 0 0 0 0 0 0
          0 0 0 1124.29 1124.1 1123.93 1123.44 321.441 0.0256777 0 0 0
          0 0 0 0 0 0 0 0 0 0 0 0
          0 0 0 0 1124.29 1124.1 1123.92 1123.25 302.095 0.0261466 0 0
          0 0 0 0 0 0 0 0 0 0 0 0
          0 0 0 0 0
        </DataArray>
        <DataArray type="Float32" Name="lambda_n" NumberOfComponents="1" format="ascii">
          0 0 0 0 0 0 9.21021 14.1899 37626 38683 56744.8 56744.8
          56746.7 56746.7 56746.7 56746.7 56746.7 56746.7 56746.7 56746.7 56746.7 56746.7 56746.7 56746.7
          56746.7 56746.7 56746.7 56746.7 56746.7 56746.7 56746.7 56746.7 56746.7 56746.7 56746.7 56746.7
          56746.7 56746.7 56746.7 56746.7 56746.7 56746.7 56746.7 56746.7 56746.7 56746.7 56746.7 56746.7
          56746.7 56746.7 0 0 0 15.0428 39199.3 56744.9 56746.7 56746.7 56746.7 56746.7
          56746.7 56746.7 56746.7 56746.7 56746.7 56746.7 56746.7 56746.7 56746.7 56746.7 56746.7 56746.7
          56746.7 56746.7 56746.7 0 0 0 15.1331 39421.4 56745 56746.7 56746.7 56746.7
          56746.7 56746.7 56746.7 56746.7 56746.7 56746.7 56746.7 56746.7 56746.7 56746.7 56746.7 56746.7
          56746.7 56746.7 56746.7 56746.7 0 0 0 15.1135 39517.7 56745.1 56746.7 56746.7
          56746.7 56746.7 56746.7 56746.7 56746.7 56746.7 56746.7 56746.7 56746.7 56746.7 56746.7 56746.7
          56746.7 56746.7 56746.7 56746.7 56746.7 0 0 0 15.0892 39559.9 56745.1 56746.7
          56746.7 56746.7 56746.7 56746.7 56746.7 56746.7 56746.7 56746.7 56746.7 56746.7 56746.7 56746.7
          56746.7 56746.7 56746.7 56746.7 56746.7 56746.7 0 0 0 15.073 39578.7 56745.1
          56746.7 56746.7 56746.7 56746.7 56746.7 56746.7 56746.7 56746.7 56746.7 56746.7 56746.7 56746.7
          56746.7 56746.7 56746.7 56746.7 56746.7 56746.7 56746.7 0 0 0 15.0631 39587.7
          56745.1 56746.7 56746.7 56746.7 56746.7 56746.7 56746.7 56746.7 56746.7 56746.7 56746.7 56746.7
          56746.7 56746.7 56746.7 56746.7 56746.7 56746.7 56746.7 56746.7 0 0 0 15.0561
          39593.1 56745.2 56746.7 56746.7 56746.7 56746.7 56746.7 56746.7 56746.7 56746.7 56746.7 56746.7
          56746.7 56746.7 56746.7 56746.7 56746.7 56746.7 56746.7 56746.7 56746.7 0 0 0
          15.0494 39598.6 56745.2 56746.7 56746.7 56746.7 56746.7 56746.7 56746.7 56746.7 56746.7 56746.7
          56746.7 56746.7 56746.7 56746.7 56746.7 56746.7 56746.7 56746.7 56746.7 56746.7 0 0
          0 15.0403 39607.9 56745.2 56746.7 56746.7 56746.7 56746.7 56746.7 56746.7 56746.7 56746.7
          56746.7 56746.7 56746.7 56746.7 56746.7 56746.7 56746.7 56746.7 56746.7 56746.7 56746.7 0
          0 0 15.0261 39627.3 56745.2 56746.7 56746.7 56746.7 56746.7 56746.7 56746.7 56746.7
          56746.7 56746.7 56746.7 56746.7 56746.7 56746.7 56746.7 56746.7 56746.7 56746.7 56746.7 56746.7
          0 0 0 15.0055 39670.8 56745.2 56746.7 56746.7 56746.7 56746.7 56746.7 56746.7
          56746.7 56746.7 56746.7 56746.7 56746.7 56746.7 56746.7 56746.7 56746.7 56746.7 56746.7 56746.7
          56746.7 0 0 0 14.9894 39770 56745.3 56746.7 56746.7 56746.7 56746.7 56746.7
          56746.7 56746.7 56746.7 56746.7 56746.7 56746.7 56746.7 56746.7 56746.7 56746.7 56746.7 56746.7
          56746.7 56746.7 0 0 0 15.0586 39996.7 56745.4 56746.7 56746.7 56746.7 56746.7
          56746.7 56746.7 56746.7 56746.7 56746.7 56746.7 56746.7 56746.7 56746.7 56746.7 56746.7 56746.7
          56746.7 56746.7 56746.7 0 0 0 15.6415 40512.3 56745.4 56746.7 56746.7 56746.7
          56746.7 56746.7 56746.7 56746.7 56746.7 56746.7 56746.7 56746.7 56746.7 56746.7 56746.7 56746.7
          56746.7 56746.7 56746.7 56746.7 0 0 0 25.1333 41489.4 56745.4 56746.7 56746.7
          56746.7 56746.7 56746.7 56746.7 56746.7 56746.7 56746.7 56746.7 56746.7 56746.7 56746.7 56746.7
          56746.7 56746.7 56746.7 56746.7 56746.7
        </DataArray>
        <DataArray type="Float32" Name="porosity" NumberOfComponents="1" format="ascii">
          0.3 0.3 0.3 0.3 0.3 0.3 0.3 0.3 0.3 0.3 0.3 0.3
          0.3 0.3 0.3 0.3 0.3 0.3 0.3 0.3 0.3 0.3 0.3 0.3
          0.3 0.3 0.3 0.3 0.3 0.3 0.3 0.3 0.3 0.3 0.3 0.3
          0.3 0.3 0.3 0.3 0.3 0.3 0.3 0.3 0.3 0.3 0.3 0.3
          0.3 0.3 0.3 0.3 0.3 0.3 0.3 0.3 0.3 0.3 0.3 0.3
          0.3 0.3 0.3 0.3 0.3 0.3 0.3 0.3 0.3 0.3 0.3 0.3
          0.3 0.3 0.3 0.3 0.3 0.3 0.3 0.3 0.3 0.3 0.3 0.3
          0.3 0.3 0.3 0.3 0.3 0.3 0.3 0.3 0.3 0.3 0.3 0.3
          0.3 0.3 0.3 0.3 0.3 0.3 0.3 0.3 0.3 0.3 0.3 0.3
          0.3 0.3 0.3 0.3 0.3 0.3 0.3 0.3 0.3 0.3 0.3 0.3
          0.3 0.3 0.3 0.3 0.3 0.3 0.3 0.3 0.3 0.3 0.3 0.3
          0.3 0.3 0.3 0.3 0.3 0.3 0.3 0.3 0.3 0.3 0.3 0.3
          0.3 0.3 0.3 0.3 0.3 0.3 0.3 0.3 0.3 0.3 0.3 0.3
          0.3 0.3 0.3 0.3 0.3 0.3 0.3 0.3 0.3 0.3 0.3 0.3
          0.3 0.3 0.3 0.3 0.3 0.3 0.3 0.3 0.3 0.3 0.3 0.3
          0.3 0.3 0.3 0.3 0.3 0.3 0.3 0.3 0.3 0.3 0.3 0.3
          0.3 0.3 0.3 0.3 0.3 0.3 0.3 0.3 0.3 0.3 0.3 0.3
          0.3 0.3 0.3 0.3 0.3 0.3 0.3 0.3 0.3 0.3 0.3 0.3
          0.3 0.3 0.3 0.3 0.3 0.3 0.3 0.3 0.3 0.3 0.3 0.3
          0.3 0.3 0.3 0.3 0.3 0.3 0.3 0.3 0.3 0.3 0.3 0.3
          0.3 0.3 0.3 0.3 0.3 0.3 0.3 0.3 0.3 0.3 0.3 0.3
          0.3 0.3 0.3 0.3 0.3 0.3 0.3 0.3 0.3 0.3 0.3 0.3
          0.3 0.3 0.3 0.3 0.3 0.3 0.3 0.3 0.3 0.3 0.3 0.3
          0.3 0.3 0.3 0.3 0.3 0.3 0.3 0.3 0.3 0.3 0.3 0.3
          0.3 0.3 0.3 0.3 0.3 0.3 0.3 0.3 0.3 0.3 0.3 0.3
          0.3 0.3 0.3 0.3 0.3 0.3 0.3 0.3 0.3 0.3 0.3 0.3
          0.3 0.3 0.3 0.3 0.3 0.3 0.3 0.3 0.3 0.3 0.3 0.3
          0.3 0.3 0.3 0.3 0.3 0.3 0.3 0.3 0.3 0.3 0.3 0.3
          0.3 0.3 0.3 0.3 0.3 0.3 0.3 0.3 0.3 0.3 0.3 0.3
          0.3 0.3 0.3 0.3 0.3 0.3 0.3 0.3 0.3 0.3 0.3 0.3
          0.3 0.3 0.3 0.3 0.3 0.3 0.3 0.3 0.3 0.3 0.3 0.3
          0.3 0.3 0.3 0.3 0.3 0.3 0.3 0.3 0.3 0.3 0.3 0.3
          0.3 0.3 0.3 0.3 0.3 0.3 0.3 0.3 0.3 0.3 0.3 0.3
          0.3 0.3 0.3 0.3 0.3 0.3 0.3 0.3 0.3 0.3 0.3 0.3
          0.3 0.3 0.3 0.3 0.3 0.3 0.3 0.3 0.3 0.3 0.3 0.3
          0.3 0.3 0.3 0.3 0.3
        </DataArray>
        <DataArray type="Float32" Name="x_w^H2O" NumberOfComponents="1" format="ascii">
          1 0.999948 1 0.999949 0.999864 0.999861 0.999862 0.999864 0.999978 0.999978 0.999981 0.999981
          0.751423 0.753113 0.525662 0.526532 0.415869 0.416043 0.370359 0.370321 0.348291 0.348215 0.335225 0.335144
          0.327144 0.327063 0.322271 0.32219 0.319418 0.319338 0.317786 0.317707 0.31687 0.316791 0.316361 0.316282
          0.316079 0.316001 0.315921 0.315844 0.315828 0.315751 0.315763 0.315687 0.315703 0.315631 0.315627 0.315564
          0.315483 0.315483 1 0.999949 0.999861 0.999865 0.999978 0.999981 0.754909 0.527752 0.416378 0.370344
          0.348168 0.335083 0.327 0.322127 0.319275 0.317644 0.316729 0.31622 0.31594 0.315784 0.315693 0.315633
          0.315584 0.315535 0.315483 1 0.999949 0.999862 0.999866 0.999978 0.999981 0.755264 0.528189 0.416528
          0.370352 0.348133 0.335037 0.32695 0.322077 0.319226 0.317597 0.316681 0.316174 0.315894 0.315739 0.315651
          0.315595 0.315554 0.315518 0.315483 1 0.999949 0.999862 0.999866 0.999978 0.999981 0.75486 0.528022
          0.416479 0.370319 0.348096 0.334997 0.326911 0.32204 0.31919 0.317561 0.316647 0.31614 0.315861 0.315708
          0.315622 0.31557 0.315536 0.315508 0.315483 1 0.999949 0.999862 0.999866 0.999978 0.999981 0.754298
          0.527635 0.416322 0.370251 0.348051 0.334961 0.326879 0.32201 0.319163 0.317535 0.316622 0.316116 0.315838
          0.315686 0.315602 0.315554 0.315523 0.315501 0.315483 1 0.999949 0.999862 0.999866 0.999978 0.999981
          0.753784 0.527225 0.416127 0.370163 0.348 0.334925 0.326851 0.321987 0.319142 0.317516 0.316604 0.316098
          0.315822 0.315671 0.315589 0.315542 0.315515 0.315497 0.315483 1 0.999949 0.999862 0.999866 0.999978
          0.999981 0.753348 0.52685 0.41593 0.370067 0.347946 0.334889 0.326826 0.321967 0.319125 0.317501 0.31659
          0.316085 0.31581 0.31566 0.315579 0.315535 0.31551 0.315494 0.315483 1 0.999949 0.999862 0.999866
          0.999978 0.999981 0.752962 0.526506 0.415738 0.369968 0.34789 0.334854 0.326802 0.321949 0.31911 0.317488
          0.316578 0.316075 0.3158 0.315651 0.315571 0.315528 0.315505 0.315492 0.315483 1 0.999949 0.999862
          0.999866 0.999978 0.999981 0.752574 0.526161 0.415546 0.36987 0.347833 0.334818 0.326777 0.321931 0.319096
          0.317475 0.316566 0.316064 0.31579 0.315642 0.315563 0.315522 0.315501 0.315489 0.315483 1 0.999949
          0.999862 0.999866 0.999978 0.999981 0.752134 0.525786 0.415349 0.369774 0.347779 0.334782 0.326752 0.321911
          0.319079 0.317461 0.316553 0.316051 0.315777 0.315631 0.315553 0.315514 0.315495 0.315487 0.315483 1
          0.999949 0.999862 0.999866 0.999978 0.999981 0.751606 0.525372 0.415153 0.369685 0.347727 0.334746 0.326724
          0.321888 0.319058 0.317441 0.316534 0.316034 0.315761 0.315615 0.31554 0.315503 0.315487 0.315482 0.315483
          1 0.999949 0.999862 0.999867 0.999978 0.999981 0.751019 0.524977 0.414994 0.369616 0.347682 0.334709
          0.326691 0.321858 0.319031 0.317415 0.316509 0.316009 0.315738 0.315594 0.31552 0.315486 0.315475 0.315476
          0.315483 1 0.99995 0.999863 0.999867 0.999978 0.999981 0.750594 0.524801 0.41494 0.36958 0.347643
          0.334669 0.326652 0.321821 0.318994 0.31738 0.316475 0.315975 0.315705 0.315562 0.315491 0.315461 0.315456
          0.315465 0.315483 1 0.99995 0.999863 0.999867 0.999978 0.999981 0.751013 0.52524 0.415082 0.369583