<?xml version="1.0"?>
<VTKFile type="UnstructuredGrid" version="0.1" byte_order="LittleEndian">
  <UnstructuredGrid>
    <Piece NumberOfCells="1000" NumberOfPoints="1331">
      <CellData Scalars="wetting pressure">
        <DataArray type="Float32" Name="wetting pressure" NumberOfComponents="1" format="ascii">
          265557 270785 272376 271439 268457 263589 256777 247785 236110 220680 265564 270808
          272420 271514 268574 263747 256954 247946 236219 220718 265574 270842 272489 271636
          268768 264037 257291 248263 236434 220791 265582 270869 272547 271745 268933 264370
          257728 248713 236727 220886 265582 270869 272554 271765 268944 264347 258025 249226
          236981 220953 265570 270834 272492 271674 268853 264298 257667 248659 236689 220873
          265550 270770 272376 271490 268603 263868 257137 248135 236349 220762 265527 270698
          272243 271282 268304 263464 256688 247726 236074 220667 265508 270637 272134 271114
          268070 263173 256379 247453 235890 220603 265496 270602 272072 271022 267946 263024
          256223 247318 235798 220571 262007 264592 265052 263600 260421 255567 248974 240501
          229947 217140 262015 264619 265106 263696 260574 255776 249200 240702 230081 217187
          262027 264661 265194 263858 260851 256200 249667 241123 230361 217280 262037 264696
          265271 264012 261093 256818 250384 241814 230813 217417 262037 264700 265292 264083
          261333 256887 250701 242715 231500 217550 262025 264660 265214 263940 261009 256715
          250353 241770 230778 217404 262002 264587 265076 263708 260686 256031 249519 240998
          230276 217250 261976 264504 264921 263453 260292 255481 248925 240474 229930 217134
          261954 264435 264794 263253 260007 255122 248548 240147 229712 217058 261942 264397
          264725 263147 259860 254945 248366 239990 229608 217022 260256 260499 259584 257393
          253906 249076 242825 235099 225902 215406 260266 260534 259657 257526 254124 249369
          243131 235360 226072 215464 260282 260589 259776 257760 254564 250013 243803 235932
          226437 215584 260295 260637 259888 258000 255015 250978 244993 236948 227058 215766
          260296 260647 259927 258134 255498 251293 245546 238304 228049 215953 260282 260598
          259829 257929 254956 250943 245012 236925 227029 215754 260254 260509 259650 257603
          254404 249859 243674 235813 226352 215553 260223 260408 259454 257261 253821 249054
          242839 235117 225910 215407 260197 260325 259298 257007 253443 248578 242350 234705
          225642 215316 260183 260279 259214 256875 253259 248355 242123 234513 225516 215272
          259139 257530 255321 252351 248519 243713 237845 230907 222986 214309 259152 257574
          255414 252524 248808 244094 238229 231223 223187 214377 259172 257644 255570 252840
          249426 244963 239086 231919 223619 214517 259189 257707 255719 253169 250108 246249
          240631 233147 224335 214726 259192 257722 255772 253341 250675 246644 241305 234675
          225404 214933 259175 257664 255654 253093 250043 246190 240877 233175 224317 214715
          259142 257556 255431 252668 249257 244808 239000 231814 223534 214485 259104 257433
          255187 252228 248471 243748 237917 230961 223010 214314 259073 257332 254996 251910
          247990 243146 237308 230463 222693 214207 259056 257277 254893 251748 247760 242870
          237030 230233 222544 214156 258275 255116 251726 247998 243815 239034 233552 227381
          220624 213465 258291 255169 251839 248208 244164 239484 233995 227738 220847 213539
          258315 255254 252028 248589 244911 240507 234974 228511 221316 213690 258336 255330
          252207 248985 245738 241979 236707 229828 222058 213907 258340 255349 252270 249175
          246318 242384 237423 231398 223065 214107 258320 255283 252135 248900 245662 241896
          237104 229886 222043 213896 258281 255155 251872 248397 244722 240336 234904 228404
          221224 213655 258237 255010 251582 247872 243781 239093 233648 227446 220649 213469
          258200 254891 251355 247493 243209 238385 232940 226878 220293 213350 258180 254825
          251233 247300 242936 238060 232617 226614 220124 213292 257484 252877 248359 243891
          239363 234606 229507 224085 218440 212694 257503 252940 248490 244133 239758 235108
          229994 224473 218681 212774 257531 253040 248708 244566 240587 236225 231041 225290
          219169 212931 257556 253127 248912 245006 241482 237774 232794 226619 219900 213145
          257560 253149 248981 245207 242067 238186 233555 228175 220789 213326 257537 253074
          248831 244911 241399 237693 233058 226640 219873 213131 257493 252928 248533 244349
          240373 236025 230915 225149 219059 212890 257442 252760 248199 243752 239322 234660
          229589 224135 218454 212694 257399 252621 247935 243314 238669 233864 228807 223512
          218066 212564 257375 252545 247793 243089 238354 233492 228443 223217 217878 212500
          256629 250489 244810 239605 234744 230018 225299 220625 216118 211863 256650 250562
          244962 239884 235194 230584 225842 221054 216381 211950 256683 250677 245212 240373
          236106 231796 226968 221926 216897 212115 256711 250778 245443 240857 237050 233390
          228748 223271 217620 212328 256717 250803 245520 241070 237647 233823 229520 224820
          218386 212490 256691 250719 245353 240751 236960 233317 228748 223231 217577 212311
          256641 250553 245017 240131 235864 231561 226760 221740 216766 212068 256582 250360
          244635 239454 234700 230072 225367 220663 216123 211859 256532 250199 244329 238948
          233951 229168 224498 219972 215694 211716 256504 250110 244162 238684 233584 228739
          224082 219638 215482 211644 255527 247566 240634 234700 229539 224859 220503 216570
          213283 210792 255552 247653 240816 235037 230088 225546 221154 217076 213588 210892
          255591 247788 241112 235616 231158 226951 222458 218079 214172 211078 255624 247906
          241379 236167 232197 228644 224353 219528 214940 211306 255631 247936 241468 236405
          232834 229125 225173 221111 215623 211458 255602 247842 241281 236053 232101 228565
          224360 219491 214896 211287 255544 247652 240897 235349 230893 226693 222228 217876
          214029 211026 255477 247429 240454 234558 229538 224973 220621 216639 213300 210792
          255420 247242 240093 233955 228637 223889 219590 215830 212805 210627 255387 247138
          239897 233640 228193 223370 219093 215436 212559 210544 253793 243529 235278 228683
          223307 218691 214632 211364 209349 209093 253822 243632 235502 229117 224059 219639
          215500 212012 209724 209214 253867 243792 235860 229849 225471 221519 217242 213314
          210450 209439 253905 243930 236179 230518 226740 223422 219470 215154 211391 209712
          253914 243967 236287 230806 227496 224021 220381 216712 212102 209881 253882 243862
          236075 230397 226641 223317 219775 215203 211367 209697 253817 243646 235631 229566
          225195 221254 217060 213131 210310 209387 253741 243390 235109 228600 223469 219027
          214933 211545 209415 209106 253676 243175 234683 227856 222295 217599 213608 210539
          208818 208911 253639 243056 234452 227472 221733 216937 212989 210061 208526 208814
          250255 237378 228042 221014 215566 211019 207106 204258 203279 205582 250287 237494
          228307 221575 216731 212523 208322 205093 203735 205724 250337 237675 228729 222515
          218857 215699 211196 206949 204662 205998 250379 237829 229098 223335 220613 217674
          214153 210261 205988 206348 250389 237873 229228 223699 221683 218601 215035 211432
          207055 206573 250355 237759 228992 223212 220514 217588 214109 210450 205997 206338
          250286 237524 228492 222226 218590 215450 211016 206795 204531 205947 250203 237242
          227898 221041 216159 211935 207737 204611 203415 205612 250132 237006 227412 220131
          214477 209840 205999 203374 202714 205388 250092 236874 227152 219679 213769 208996
          205248 202814 202381 205280
        </DataArray>
        <DataArray type="Float32" Name="nonwetting pressure" NumberOfComponents="1" format="ascii">
          265557 270785 272376 271439 268457 263589 256777 247785 236110 220680 265564 270808
          272420 271514 268574 263747 256954 247946 236219 220718 265574 270842 272489 271636
          268768 264037 257291 248263 236434 220791 265582 270869 272547 271745 268945 264370
          257728 248713 236727 220886 265582 270869 272554 271765 269347 264490 258082 249226
          236981 220953 265570 270834 272492 271674 268868 264298 257667 248659 236689 220873
          265550 270770 272376 271490 268603 263868 257137 248135 236349 220762 265527 270698
          272243 271282 268304 263464 256688 247726 236074 220667 265508 270637 272134 271114
          268070 263173 256379 247453 235890 220603 265496 270602 272072 271022 267946 263024
          256223 247318 235798 220571 262007 264592 265052 263600 260421 255567 248974 240501
          229947 217140 262015 264619 265106 263696 260574 255776 249200 240702 230081 217187
          262027 264661 265194 263858 260851 256200 249667 241123 230361 217280 262037 264696
          265271 264012 261158 256845 250384 241814 230813 217417 262037 264700 265292 264083
          262013 257223 250880 242795 231500 217550 262025 264660 265214 263940 261080 256749
          250353 241770 230778 217404 262002 264587 265076 263708 260686 256031 249519 240998
          230276 217250 261976 264504 264921 263453 260292 255481 248925 240474 229930 217134
          261954 264435 264794 263253 260007 255122 248548 240147 229712 217058 261942 264397
          264725 263147 259860 254945 248366 239990 229608 217022 260256 260499 259584 257393
          253906 249076 242825 235099 225902 215406 260266 260534 259657 257526 254124 249369
          243131 235360 226072 215464 260282 260589 259776 257760 254564 250013 243803 235932
          226437 215584 260295 260637 259888 258000 255150 251059 244993 236948 227058 215766
          260296 260647 259927 258134 256292 251736 245804 238431 228049 215953 260282 260598
          259829 257929 255099 251030 245012 236925 227029 215754 260254 260509 259650 257603
          254404 249859 243674 235813 226352 215553 260223 260408 259454 257261 253821 249054
          242839 235117 225910 215407 260197 260325 259298 257007 253443 248578 242350 234705
          225642 215316 260183 260279 259214 256875 253259 248355 242123 234513 225516 215272
          259139 257530 255321 252351 248519 243713 237845 230907 222986 214309 259152 257574
          255414 252524 248808 244094 238229 231223 223187 214377 259172 257644 255570 252840
          249426 244963 239086 231919 223619 214517 259189 257707 255719 253169 250284 246368
          240631 233147 224335 214726 259192 257722 255772 253341 251496 247118 241589 234815
          225404 214933 259175 257664 255654 253093 250225 246317 240878 233175 224317 214715
          259142 257556 255431 252668 249257 244808 239000 231814 223534 214485 259104 257433
          255187 252228 248471 243748 237917 230961 223010 214314 259073 257332 254996 251910
          247990 243146 237308 230463 222693 214207 259056 257277 254893 251748 247760 242870
          237030 230233 222544 214156 258275 255116 251726 247998 243815 239034 233552 227381
          220624 213465 258291 255169 251839 248208 244164 239484 233995 227738 220847 213539
          258315 255254 252028 248589 244911 240507 234974 228511 221316 213690 258336 255330
          252207 248985 245924 242112 236707 229828 222058 213907 258340 255349 252270 249175
          247139 242862 237708 231532 223065 214107 258320 255283 252135 248900 245855 242038
          237114 229886 222043 213896 258281 255155 251872 248397 244722 240336 234904 228404
          221224 213655 258237 255010 251582 247872 243781 239093 233648 227446 220649 213469
          258200 254891 251355 247493 243209 238385 232940 226878 220293 213350 258180 254825
          251233 247300 242936 238060 232617 226614 220124 213292 257484 252877 248359 243891
          239363 234606 229507 224085 218440 212694 257503 252940 248490 244133 239758 235108
          229994 224473 218681 212774 257531 253040 248708 244566 240587 236225 231041 225290
          219169 212931 257556 253127 248912 245006 241665 237908 232794 226619 219900 213145
          257560 253149 248981 245207 242880 238662 233833 228296 220789 213326 257537 253074
          248831 244911 241588 237836 233060 226640 219873 213131 257493 252928 248533 244349
          240373 236025 230915 225149 219059 212890 257442 252760 248199 243752 239322 234660
          229589 224135 218454 212694 257399 252621 247935 243314 238669 233864 228807 223512
          218066 212564 257375 252545 247793 243089 238354 233492 228443 223217 217878 212500
          256629 250489 244810 239605 234744 230018 225299 220625 216118 211863 256650 250562
          244962 239884 235194 230584 225842 221054 216381 211950 256683 250677 245212 240373
          236106 231796 226968 221926 216897 212115 256711 250778 245443 240857 237227 233524
          228748 223271 217620 212328 256717 250803 245520 241070 238454 234297 229789 224921
          218386 212490 256691 250719 245353 240751 237145 233458 228748 223231 217577 212311
          256641 250553 245017 240131 235864 231561 226760 221740 216766 212068 256582 250360
          244635 239454 234700 230072 225367 220663 216123 211859 256532 250199 244329 238948
          233951 229168 224498 219972 215694 211716 256504 250110 244162 238684 233584 228739
          224082 219638 215482 211644 255527 247566 240634 234700 229539 224859 220503 216570
          213283 210792 255552 247653 240816 235037 230088 225546 221154 217076 213588 210892
          255591 247788 241112 235616 231158 226951 222458 218079 214172 211078 255624 247906
          241379 236167 232374 228779 224353 219528 214940 211306 255631 247936 241468 236405
          233644 229599 225435 221190 215623 211458 255602 247842 241281 236053 232286 228708
          224360 219491 214896 211287 255544 247652 240897 235349 230893 226693 222228 217876
          214029 211026 255477 247429 240454 234558 229538 224973 220621 216639 213300 210792
          255420 247242 240093 233955 228637 223889 219590 215830 212805 210627 255387 247138
          239897 233640 228193 223370 219093 215436 212559 210544 253793 243529 235278 228683
          223307 218691 214632 211364 209349 209093 253822 243632 235502 229117 224059 219639
          215500 212012 209724 209214 253867 243792 235860 229849 225471 221519 217242 213314
          210450 209439 253905 243930 236179 230518 226936 223570 219470 215154 211391 209712
          253914 243967 236287 230806 228346 224513 220646 216779 212102 209881 253882 243862
          236075 230397 226844 223475 219784 215203 211367 209697 253817 243646 235631 229566
          225195 221254 217060 213131 210310 209387 253741 243390 235109 228600 223469 219027
          214933 211545 209415 209106 253676 243175 234683 227856 222295 217599 213608 210539
          208818 208911 253639 243056 234452 227472 221733 216937 212989 210061 208526 208814
          250255 237378 228042 221014 215566 211019 207106 204258 203279 205582 250287 237494
          228307 221575 216731 212523 208322 205093 203735 205724 250337 237675 228729 222515
          219024 215840 211196 206949 204662 205998 250379 237829 229098 223335 221194 218169
          214425 210276 205988 206348 250389 237873 229228 223699 223051 219538 215655 211713
          207055 206573 250355 237759 228992 223212 221107 218095 214388 210474 205997 206338
          250286 237524 228492 222226 218770 215608 211016 206795 204531 205947 250203 237242
          227898 221041 216159 211935 207737 204611 203415 205612 250132 237006 227412 220131
          214477 209840 205999 203374 202714 205388 250092 236874 227152 219679 213769 208996
          205248 202814 202381 205280
        </DataArray>
        <DataArray type="Float32" Name="wetting saturation" NumberOfComponents="1" format="ascii">
          1 1 1 1 1 1 1 1 1 1 1 1
          1 1 1 1 1 1 1 1 1 1 1 1
          1 1 1 1 1 1 1 1 1 1 0.998786 1
          1 1 1 1 1 1 1 1 0.959669 0.985749 0.994323 1
          1 1 1 1 1 1 0.998523 1 1 1 1 1
          1 1 1 1 1 1 1 1 1 1 1 1
          1 1 1 1 1 1 1 1 1 1 1 1
          1 1 1 1 1 1 1 1 1 1 1 1
          1 1 1 1 1 1 1 1 1 1 1 1
          1 1 1 1 1 1 1 1 1 1 1 1
          1 1 1 1 1 1 1 1 1 1 1 1
          1 1 0.99353 0.997366 1 1 1 1 1 1 1 1
          0.932071 0.966395 0.982088 0.99196 1 1 1 1 1 1 0.992847 0.996606
          1 1 1 1 1 1 1 1 1 1 1 1
          1 1 1 1 1 1 1 1 1 1 1 1
          1 1 1 1 1 1 1 1 1 1 1 1
          1 1 1 1 1 1 1 1 1 1 1 1
          1 1 1 1 1 1 1 1 1 1 1 1
          1 1 1 1 1 1 1 1 1 1 1 1
          1 1 1 1 1 1 0.986458 0.991946 1 1 1 1
          1 1 1 1 0.920633 0.955761 0.974166 0.98732 1 1 1 1
          1 1 0.985773 0.991272 1 1 1 1 1 1 1 1
          1 1 1 1 1 1 1 1 1 1 1 1
          1 1 1 1 1 1 1 1 1 1 1 1
          1 1 1 1 1 1 1 1 1 1 1 1
          1 1 1 1 1 1 1 1 1 1 1 1
          1 1 1 1 1 1 1 1 1 1 1 1
          1 1 1 1 1 1 1 1 1 1 0.982411 0.988028
          1 1 1 1 1 1 1 1 0.917854 0.952634 0.971564 0.985994
          1 1 1 1 1 1 0.981736 0.987301 0.999905 1 1 1
          1 1 1 1 1 1 1 1 1 1 1 1
          1 1 1 1 1 1 1 1 1 1 1 1
          1 1 1 1 1 1 1 1 1 1 1 1
          1 1 1 1 1 1 1 1 1 1 1 1
          1 1 1 1 1 1 1 1 1 1 1 1
          1 1 1 1 1 1 1 1 1 1 1 1
          1 1 0.98145 0.986733 1 1 1 1 1 1 1 1
          0.917903 0.95219 0.971464 0.98657 1 1 1 1 1 1 0.980747 0.985849
          0.999065 1 1 1 1 1 1 1 1 1 1 1
          1 1 1 1 1 1 1 1 1 1 1 1
          1 1 1 1 1 1 1 1 1 1 1 1
          1 1 1 1 1 1 1 1 1 1 1 1
          1 1 1 1 1 1 1 1 1 1 1 1
          1 1 1 1 1 1 1 1 1 1 1 1
          1 1 1 1 1 1 0.981754 0.986552 1 1 1 1
          1 1 1 1 0.918653 0.952367 0.972201 0.987957 1 1 1 1
          1 1 0.981019 0.98572 0.999786 1 1 1 1 1 1 1
          1 1 1 1 1 1 1 1 1 1 1 1
          1 1 1 1 1 1 1 1 1 1 1 1
          1 1 1 1 1 1 1 1 1 1 1 1
          1 1 1 1 1 1 1 1 1 1 1 1
          1 1 1 1 1 1 1 1 1 1 1 1
          1 1 1 1 1 1 1 1 1 1 0.982273 0.986599
          1 1 1 1 1 1 1 1 0.919242 0.952577 0.973055 0.989888
          1 1 1 1 1 1 0.981505 0.985883 1 1 1 1
          1 1 1 1 1 1 1 1 1 1 1 1
          1 1 1 1 1 1 1 1 1 1 1 1
          1 1 1 1 1 1 1 1 1 1 1 1
          1 1 1 1 1 1 1 1 1 1 1 1
          1 1 1 1 1 1 1 1 1 1 1 1
          1 1 1 1 1 1 1 1 1 1 1 1
          1 1 0.982353 0.986463 1 1 1 1 1 1 1 1
          0.918963 0.952576 0.973792 0.992147 1 1 1 1 1 1 0.981558 0.985739
          1 1 1 1 1 1 1 1 1 1 1 1
          1 1 1 1 1 1 1 1 1 1 1 1
          1 1 1 1 1 1 1 1 1 1 1 1
          1 1 1 1 1 1 1 1 1 1 1 1
          1 1 1 1 1 1 1 1 1 1 1 1
          1 1 1 1 1 1 1 1 1 1 1 1
          1 1 1 1 1 1 0.980455 0.98518 1 1 1 1
          1 1 1 1 0.915086 0.950795 0.973525 0.993292 1 1 1 1
          1 1 0.979648 0.984209 0.999145 1 1 1 1 1 1 1
          1 1 1 1 1 1 1 1 1 1 1 1
          1 1 1 1 1 1 1 1 1 1 1 1
          1 1 1 1 1 1 1 1 1 1 1 1
          1 1 1 1 1 1 1 1 1 1 1 1
          1 1 1 1 1 1 1 1 1 1 1 1
          0.983314 0.985839 1 1 1 1 1 1 1 1 0.941972 0.950427
          0.972819 0.998523 1 1 1 1 1 1 0.86316 0.90628 0.937999 0.971865
          1 1 1 1 1 1 0.940766 0.949334 0.97208 0.997557 1 1
          1 1 1 1 0.981943 0.984255 1 1 1 1 1 1
          1 1 1 1 1 1 1 1 1 1 1 1
          1 1 1 1 1 1 1 1 1 1 1 1
          1 1 1 1
        </DataArray>
        <DataArray type="Float32" Name="C^w from cellData" NumberOfComponents="1" format="ascii">
          199.956 199.956 199.957 199.956 199.956 199.956 199.955 199.954 199.953 199.952 199.956 199.956
          199.956 199.956 199.956 199.956 199.955 199.954 199.953 199.952 199.956 199.956 199.956 199.956
          199.953 199.956 199.955 199.954 199.953 199.952 199.956 199.956 199.956 199.942 199.328 199.67
          199.926 199.954 199.953 199.952 199.956 199.956 199.956 199.841 191.69 196.817 198.088 199.295
          199.953 199.952 199.956 199.956 199.956 199.939 199.263 199.614 199.921 199.954 199.953 199.952
          199.956 199.956 199.956 199.956 199.949 199.956 199.955 199.954 199.953 199.952 199.956 199.956
          199.956 199.956 199.956 199.956 199.955 199.954 199.953 199.952 199.956 199.956 199.957 199.956
          199.956 199.956 199.955 199.954 199.953 199.952 199.956 199.956 199.957 199.956 199.956 199.956
          199.955 199.954 199.953 199.952 199.956 199.956 199.956 199.956 199.955 199.955 199.954 199.954
          199.953 199.951 199.956 199.956 199.956 199.956 199.955 199.955 199.954 199.954 199.953 199.951
          199.956 199.956 199.956 199.956 199.843 199.95 199.954 199.954 199.953 199.951 199.956 199.956
          199.956 199.926 198.246 198.932 199.668 199.917 199.953 199.951 199.956 199.956 199.956 199.777
          186.566 192.983 195.974 197.533 199.539 199.951 199.956 199.956 199.956 199.926 198.143 198.793
          199.606 199.916 199.953 199.951 199.956 199.956 199.956 199.956 199.808 199.944 199.954 199.954
          199.953 199.951 199.956 199.956 199.956 199.956 199.955 199.955 199.954 199.954 199.953 199.951
          199.956 199.956 199.956 199.956 199.955 199.955 199.954 199.954 199.953 199.951 199.956 199.956
          199.956 199.956 199.955 199.955 199.954 199.954 199.953 199.951 199.955 199.955 199.955 199.955
          199.955 199.954 199.954 199.953 199.952 199.951 199.955 199.955 199.955 199.955 199.955 199.954
          199.954 199.953 199.952 199.951 199.955 199.955 199.955 199.955 199.635 199.865 199.954 199.953
          199.952 199.951 199.955 199.955 199.955 199.926 196.868 197.621 199.138 199.831 199.952 199.951
          199.955 199.955 199.955 199.769 184.316 191.009 194.22 196.229 199.082 199.951 199.955 199.955
          199.955 199.924 196.717 197.453 199.098 199.826 199.952 199.951 199.955 199.955 199.955 199.955
          199.596 199.84 199.954 199.953 199.952 199.951 199.955 199.955 199.955 199.955 199.955 199.954
          199.954 199.953 199.952 199.951 199.955 199.955 199.955 199.955 199.955 199.954 199.954 199.953
          199.952 199.951 199.955 199.955 199.955 199.955 199.955 199.954 199.954 199.953 199.952 199.951
          199.955 199.955 199.955 199.955 199.954 199.954 199.953 199.953 199.952 199.951 199.955 199.955
          199.955 199.955 199.954 199.954 199.953 199.953 199.952 199.951 199.955 199.955 199.955 199.954
          199.528 199.761 199.953 199.953 199.952 199.951 199.955 199.955 199.955 199.922 196.004 196.672
          198.95 199.8 199.952 199.951 199.955 199.955 199.955 199.803 183.72 190.398 193.616 195.921
          199.092 199.951 199.955 199.955 199.955 199.922 195.848 196.538 198.827 199.794 199.952 199.951
          199.955 199.955 199.955 199.954 199.492 199.722 199.953 199.953 199.952 199.951 199.955 199.955
          199.955 199.955 199.954 199.954 199.953 199.953 199.952 199.951 199.955 199.955 199.955 199.955
          199.954 199.954 199.953 199.953 199.952 199.951 199.955 199.955 199.955 199.955 199.954 199.954
          199.953 199.953 199.952 199.951 199.955 199.955 199.955 199.954 199.954 199.953 199.953 199.952
          199.952 199.951 199.955 199.955 199.955 199.954 199.954 199.953 199.953 199.952 199.952 199.951
          199.955 199.955 199.955 199.954 199.488 199.709 199.953 199.952 199.952 199.951 199.955 199.955
          199.954 199.918 195.783 196.382 198.903 199.819 199.952 199.951 199.955 199.955 199.954 199.867
          183.7 190.303 193.581 196.156 199.287 199.951 199.955 199.955 199.954 199.919 195.618 196.258
          198.714 199.813 199.952 199.951 199.955 199.955 199.955 199.954 199.45 199.662 199.952 199.952
          199.952 199.951 199.955 199.955 199.955 199.954 199.954 199.953 199.953 199.952 199.952 199.951
          199.955 199.955 199.955 199.954 199.954 199.953 199.953 199.952 199.952 199.951 199.955 199.955
          199.955 199.954 199.954 199.953 199.953 199.952 199.952 199.951 199.955 199.955 199.954 199.954
          199.953 199.953 199.952 199.952 199.951 199.951 199.955 199.955 199.954 199.954 199.953 199.953
          199.952 199.952 199.951 199.951 199.955 199.955 199.954 199.954 199.479 199.694 199.952 199.952
          199.952 199.951 199.955 199.955 199.954 199.914 195.837 196.351 198.942 199.857 199.952 199.951
          199.955 199.955 199.954 199.872 183.857 190.334 193.713 196.628 199.528 199.951 199.955 199.955
          199.954 199.914 195.662 196.202 198.801 199.853 199.952 199.951 199.955 199.955 199.954 199.954
          199.439 199.64 199.952 199.952 199.952 199.951 199.955 199.955 199.954 199.954 199.953 199.953
          199.952 199.952 199.951 199.951 199.955 199.955 199.954 199.954 199.953 199.953 199.952 199.952
          199.951 199.951 199.955 199.955 199.954 199.954 199.953 199.953 199.952 199.952 199.951 199.951
          199.955 199.954 199.954 199.953 199.953 199.952 199.952 199.952 199.951 199.951 199.955 199.954
          199.954 199.953 199.953 199.952 199.952 199.952 199.951 199.951 199.955 199.954 199.954 199.953
          199.475 199.685 199.952 199.952 199.951 199.951 199.955 199.954 199.954 199.909 195.939 196.385
          198.98 199.892 199.951 199.951 199.955 199.954 199.954 199.911 184.022 190.382 193.82 197.187
          199.72 199.951 199.955 199.954 199.954 199.91 195.756 196.2 198.941 199.89 199.951 199.951
          199.955 199.954 199.954 199.953 199.431 199.625 199.952 199.952 199.951 199.951 199.955 199.954
          199.954 199.953 199.953 199.952 199.952 199.952 199.951 199.951 199.955 199.954 199.954 199.953
          199.953 199.952 199.952 199.952 199.951 199.951 199.955 199.954 199.954 199.953 199.953 199.952
          199.952 199.952 199.951 199.951 199.955 199.954 199.954 199.953 199.952 199.952 199.952 199.951
          199.951 199.951 199.955 199.954 199.954 199.953 199.952 199.952 199.952 199.951 199.951 199.951
          199.955 199.954 199.953 199.953 199.452 199.653 199.952 199.951 199.951 199.951 199.955 199.954
          199.953 199.906 195.946 196.37 199.005 199.921 199.951 199.951 199.955 199.954 199.953 199.899
          184.055 190.401 193.951 197.734 199.849 199.951 199.955 199.954 199.953 199.906 195.754 196.183
          198.965 199.919 199.951 199.951 199.955 199.954 199.953 199.953 199.408 199.592 199.952 199.951
          199.951 199.951 199.955 199.954 199.953 199.953 199.952 199.952 199.952 199.951 199.951 199.951
          199.955 199.954 199.953 199.953 199.952 199.952 199.951 199.951 199.951 199.951 199.955 199.954
          199.953 199.953 199.952 199.952 199.951 199.951 199.951 199.951 199.955 199.954 199.953 199.952
          199.952 199.951 199.951 199.951 199.951 199.951 199.955 199.954 199.953 199.952 199.952 199.951
          199.951 199.951 199.951 199.951 199.955 199.954 199.953 199.952 199.379 199.547 199.951 199.951
          199.951 199.951 199.955 199.954 199.953 199.907 195.517 196.07 198.966 199.928 199.951 199.951
          199.955 199.954 199.953 199.911 183.358 190.08 193.819 198.018 199.892 199.951 199.955 199.954
          199.953 199.907 195.32 195.913 198.767 199.926 199.951 199.951 199.955 199.954 199.953 199.952
          199.337 199.484 199.95 199.951 199.951 199.951 199.955 199.954 199.953 199.952 199.952 199.951
          199.951 199.951 199.951 199.951 199.955 199.954 199.953 199.952 199.952 199.951 199.951 199.951
          199.951 199.951 199.955 199.954 199.953 199.952 199.952 199.951 199.951 199.951 199.951 199.951
          199.955 199.953 199.952 199.952 199.951 199.951 199.95 199.95 199.95 199.95 199.955 199.953
          199.952 199.952 199.576 199.753 199.95 199.95 199.95 199.95 199.955 199.953 199.952 199.928
          196.031 196.304 198.931 199.949 199.95 199.95 199.955 199.953 199.952 199.913 188.119 189.744
          193.178 198.32 199.949 199.95 199.955 199.953 199.952 199.883 172.921 181.401 187.386 192.955
          199.002 199.95 199.955 199.953 199.952 199.914 187.89 189.539 193.01 198.199 199.948 199.95
          199.955 199.953 199.952 199.929 195.708 195.857 198.807 199.948 199.95 199.95 199.955 199.953
          199.952 199.952 199.467 199.669 199.95 199.95 199.95 199.95 199.955 199.953 199.952 199.952
          199.951 199.951 199.95 199.95 199.95 199.95 199.955 199.953 199.952 199.952 199.951 199.95
          199.95 199.95 199.95 199.95
        </DataArray>
        <DataArray type="Float32" Name="C^n from cellData" NumberOfComponents="1" format="ascii">
          0 0 0 3.45145e-15 6.29455e-11 4.49406e-12 1.4012e-13 2.66098e-15 9.08131e-18 0 0 0
          5.44963e-16 8.52221e-12 1.09795e-07 9.50583e-09 3.72035e-10 7.72959e-12 1.11735e-13 1.54013e-15 7.63228e-18 1.06594e-14 9.89343e-13 7.76379e-09
          8.7056e-05 7.77923e-06 4.64259e-07 1.09965e-08 1.5991e-10 2.11991e-12 2.91593e-13 1.44039e-11 1.06912e-09 3.66891e-06 0.0165954 0.00351836
          0.000410811 1.16904e-05 1.60233e-07 1.96519e-09 6.3932e-10 2.58769e-08 1.4786e-06 0.00143838 0.0417697 0.0245482 0.0186334 0.00779408
          0.000131559 1.66136e-06 4.98597e-13 2.60495e-11 1.95245e-09 4.82477e-06 0.0167579 0.00429355 0.000478328 1.31576e-05 1.80175e-07 2.2067e-09
          2.28216e-16 2.28858e-14 2.23874e-12 1.21575e-08 0.000146924 1.09582e-05 6.27865e-07 1.43175e-08 2.05024e-10 2.68629e-12 0 2.63003e-18
          1.69227e-15 1.78131e-11 2.02185e-07 1.63896e-08 6.25142e-10 1.25567e-11 1.78463e-13 1.95047e-15 0 0 0 1.30742e-14
          1.79841e-10 1.26792e-11 3.83651e-13 6.81139e-15 1.89613e-17 0 0 0 0 0 6.45176e-14 3.75101e-15
          6.06135e-17 0 0 0 0 0 0 1.03374e-14 6.44844e-10 3.42766e-11 1.08672e-12 1.63662e-14
          4.48204e-17 0 0 0 5.72157e-16 2.30155e-11 1.5458e-06 8.52382e-08 3.67276e-09 6.95901e-11 7.03932e-13 5.25094e-15