<?xml version="1.0"?>
<VTKFile type="UnstructuredGrid" version="0.1" byte_order="LittleEndian">
  <UnstructuredGrid>
    <Piece NumberOfCells="1000" NumberOfPoints="1331">
      <CellData Scalars="wetting pressure">
        <DataArray type="Float32" Name="wetting pressure" NumberOfComponents="1" format="ascii">
          265557 270784 272374 271437 268455 263587 256775 247784 236109 220679 265564 270807
          272419 271512 268571 263745 256952 247944 236218 220717 265574 270841 272488 271634
          268766 264034 257288 248261 236433 220791 265582 270868 272545 271742 268929 264367
          257725 248711 236725 220886 265581 270868 272553 271762 268940 264343 258021 249224
          236979 220953 265570 270833 272490 271671 268850 264295 257664 248657 236688 220873
          265550 270769 272374 271488 268601 263865 257134 248133 236347 220761 265527 270697
          272242 271280 268301 263462 256686 247725 236073 220667 265507 270636 272132 271112
          268068 263171 256377 247452 235889 220602 265496 270602 272071 271020 267944 263022
          256222 247317 235798 220570 262007 264592 265050 263598 260419 255565 248972 240500
          229946 217140 262015 264618 265105 263694 260571 255774 249198 240700 230080 217186
          262027 264660 265192 263856 260848 256197 249664 241121 230360 217280 262037 264695
          265269 264009 261089 256814 250381 241811 230811 217416 262037 264699 265290 264080
          261329 256882 250697 242712 231498 217550 262024 264658 265213 263937 261005 256711
          250350 241768 230777 217404 262002 264586 265074 263705 260683 256028 249517 240996
          230275 217250 261976 264503 264919 263451 260289 255479 248923 240472 229929 217133
          261954 264434 264793 263252 260005 255120 248546 240146 229711 217058 261942 264396
          264724 263145 259859 254943 248364 239989 229607 217022 260255 260498 259583 257391
          253904 249074 242823 235097 225901 215406 260266 260533 259655 257524 254122 249366
          243129 235358 226071 215464 260281 260588 259774 257758 254560 250010 243801 235930
          226436 215583 260294 260636 259886 257997 255010 250974 244990 236945 227057 215765
          260296 260645 259925 258131 255494 251289 245541 238301 228048 215953 260281 260597
          259827 257927 254952 250938 245009 236923 227028 215753 260254 260508 259648 257601
          254400 249856 243671 235811 226351 215553 260223 260407 259453 257259 253818 249052
          242837 235115 225909 215407 260197 260324 259297 257005 253441 248576 242348 234704
          225641 215315 260183 260278 259213 256873 253257 248353 242121 234512 225515 215272
          259139 257529 255319 252349 248516 243711 237843 230905 222985 214309 259152 257573
          255412 252522 248806 244092 238227 231222 223186 214377 259172 257643 255568 252837
          249423 244960 239084 231917 223617 214516 259189 257706 255717 253166 250103 246244
          240627 233145 224334 214725 259192 257720 255770 253338 250670 246640 241301 234672
          225403 214932 259174 257663 255652 253090 250038 246186 240875 233173 224315 214715
          259141 257554 255429 252666 249254 244804 238996 231812 223532 214484 259104 257432
          255186 252226 248468 243745 237915 230959 223009 214314 259073 257332 254995 251908
          247988 243144 237306 230461 222692 214207 259056 257276 254892 251746 247759 242868
          237028 230231 222544 214156 258275 255115 251725 247996 243813 239032 233550 227380
          220623 213464 258291 255168 251837 248206 244161 239481 233993 227737 220846 213539
          258315 255253 252026 248587 244907 240504 234972 228509 221314 213690 258336 255329
          252205 248982 245734 241975 236704 229826 222057 213907 258340 255348 252268 249172
          246313 242380 237419 231393 223064 214107 258319 255282 252133 248897 245658 241892
          237105 229884 222042 213896 258281 255154 251870 248394 244718 240332 234900 228401
          221223 213655 258237 255009 251581 247870 243779 239090 233645 227444 220648 213469
          258200 254890 251354 247492 243207 238383 232939 226877 220292 213350 258180 254824
          251232 247298 242935 238058 232616 226612 220123 213292 257484 252877 248357 243889
          239360 234603 229505 224084 218439 212694 257502 252939 248488 244130 239755 235106
          229992 224472 218680 212774 257531 253038 248706 244563 240583 236222 231038 225288
          219168 212930 257555 253126 248910 245003 241478 237770 232791 226616 219899 213145
          257560 253148 248979 245204 242062 238181 233551 228172 220788 213326 257537 253073
          248829 244908 241394 237689 233057 226638 219872 213131 257493 252927 248531 244347
          240369 236022 230912 225147 219058 212890 257442 252759 248198 243750 239320 234658
          229586 224134 218453 212694 257399 252621 247934 243312 238667 233862 228806 223511
          218065 212564 257375 252544 247792 243087 238352 233490 228441 223215 217877 212500
          256629 250488 244808 239604 234741 230016 225297 220624 216118 211862 256650 250561
          244961 239882 235191 230581 225840 221052 216380 211949 256683 250676 245211 240371
          236103 231793 226965 221924 216896 212115 256711 250777 245441 240854 237046 233386
          228744 223268 217619 212328 256717 250802 245518 241067 237642 233818 229516 224816
          218385 212490 256691 250718 245351 240748 236956 233313 228745 223229 217576 212311
          256640 250552 245015 240128 235861 231558 226757 221739 216765 212067 256582 250359
          244634 239452 234698 230069 225365 220661 216122 211859 256532 250198 244327 238946
          233949 229167 224496 219971 215693 211716 256504 250109 244161 238683 233582 228737
          224080 219636 215482 211644 255527 247565 240632 234698 229537 224857 220501 216569
          213282 210792 255552 247652 240815 235035 230086 225543 221152 217074 213587 210892
          255591 247787 241110 235614 231155 226948 222455 218077 214171 211078 255623 247905
          241377 236164 232193 228640 224351 219527 214939 211305 255630 247935 241466 236403
          232830 229121 225169 221109 215623 211458 255601 247841 241279 236050 232097 228562
          224359 219490 214895 211287 255544 247651 240895 235347 230890 226691 222226 217875
          214028 211026 255477 247428 240452 234556 229536 224971 220619 216638 213299 210791
          255419 247242 240092 233954 228635 223888 219588 215829 212804 210627 255387 247138
          239896 233639 228191 223368 219092 215435 212558 210544 253792 243528 235277 228681
          223306 218689 214631 211363 209348 209093 253822 243631 235500 229115 224057 219637
          215498 212010 209724 209213 253867 243791 235859 229847 225468 221516 217241 213313
          210449 209439 253905 243928 236177 230515 226737 223419 219468 215154 211390 209712
          253913 243966 236285 230804 227493 224018 220379 216712 212102 209881 253881 243861
          236073 230395 226637 223314 219778 215205 211367 209697 253817 243645 235629 229564
          225192 221252 217056 213130 210309 209387 253740 243389 235108 228598 223467 219025
          214931 211543 209414 209105 253675 243175 234682 227854 222293 217597 213606 210538
          208817 208911 253639 243055 234451 227470 221731 216936 212988 210060 208526 208814
          250254 237377 228041 221013 215564 211017 207104 204257 203278 205582 250287 237493
          228305 221573 216728 212521 208320 205092 203734 205724 250337 237674 228728 222513
          218854 215696 211195 206947 204661 205998 250379 237828 229097 223332 220610 217671
          214154 210269 205986 206347 250389 237872 229226 223697 221680 218599 215035 211436
          207055 206572 250355 237758 228990 223209 220512 217586 214110 210463 205993 206337
          250285 237523 228491 222224 218587 215448 211015 206792 204529 205947 250202 237242
          227896 221039 216157 211933 207736 204610 203414 205611 250131 237005 227411 220130
          214475 209838 205998 203372 202713 205388 250092 236874 227151 219678 213768 208995
          205246 202813 202381 205279
        </DataArray>
        <DataArray type="Float32" Name="nonwetting pressure" NumberOfComponents="1" format="ascii">
          265557 270784 272374 271437 268455 263587 256775 247784 236109 220679 265564 270807
          272419 271512 268571 263745 256952 247944 236218 220717 265574 270841 272488 271634
          268766 264034 257288 248261 236433 220791 265582 270868 272545 271742 268942 264367
          257725 248711 236725 220886 265581 270868 272553 271762 269343 264486 258078 249224
          236979 220953 265570 270833 272490 271671 268864 264295 257664 248657 236688 220873
          265550 270769 272374 271488 268601 263865 257134 248133 236347 220761 265527 270697
          272242 271280 268301 263462 256686 247725 236073 220667 265507 270636 272132 271112
          268068 263171 256377 247452 235889 220602 265496 270602 272071 271020 267944 263022
          256222 247317 235798 220570 262007 264592 265050 263598 260419 255565 248972 240500
          229946 217140 262015 264618 265105 263694 260571 255774 249198 240700 230080 217186
          262027 264660 265192 263856 260848 256197 249664 241121 230360 217280 262037 264695
          265269 264009 261154 256840 250381 241811 230811 217416 262037 264699 265290 264080
          262008 257218 250876 242792 231498 217550 262024 264658 265213 263937 261076 256745
          250350 241768 230777 217404 262002 264586 265074 263705 260683 256028 249517 240996
          230275 217250 261976 264503 264919 263451 260289 255479 248923 240472 229929 217133
          261954 264434 264793 263252 260005 255120 248546 240146 229711 217058 261942 264396
          264724 263145 259859 254943 248364 239989 229607 217022 260255 260498 259583 257391
          253904 249074 242823 235097 225901 215406 260266 260533 259655 257524 254122 249366
          243129 235358 226071 215464 260281 260588 259774 257758 254560 250010 243801 235930
          226436 215583 260294 260636 259886 257997 255146 251054 244990 236945 227057 215765
          260296 260645 259925 258131 256287 251731 245800 238428 228048 215953 260281 260597
          259827 257927 255095 251026 245009 236923 227028 215753 260254 260508 259648 257601
          254400 249856 243671 235811 226351 215553 260223 260407 259453 257259 253818 249052
          242837 235115 225909 215407 260197 260324 259297 257005 253441 248576 242348 234704
          225641 215315 260183 260278 259213 256873 253257 248353 242121 234512 225515 215272
          259139 257529 255319 252349 248516 243711 237843 230905 222985 214309 259152 257573
          255412 252522 248806 244092 238227 231222 223186 214377 259172 257643 255568 252837
          249423 244960 239084 231917 223617 214516 259189 257706 255717 253166 250279 246364
          240627 233145 224334 214725 259192 257720 255770 253338 251492 247113 241585 234812
          225403 214932 259174 257663 255652 253090 250221 246313 240876 233173 224315 214715
          259141 257554 255429 252666 249254 244804 238996 231812 223532 214484 259104 257432
          255186 252226 248468 243745 237915 230959 223009 214314 259073 257332 254995 251908
          247988 243144 237306 230461 222692 214207 259056 257276 254892 251746 247759 242868
          237028 230231 222544 214156 258275 255115 251725 247996 243813 239032 233550 227380
          220623 213464 258291 255168 251837 248206 244161 239481 233993 227737 220846 213539
          258315 255253 252026 248587 244907 240504 234972 228509 221314 213690 258336 255329
          252205 248982 245919 242108 236704 229826 222057 213907 258340 255348 252268 249172
          247134 242858 237705 231528 223064 214107 258319 255282 252133 248897 245850 242033
          237114 229884 222042 213896 258281 255154 251870 248394 244718 240332 234900 228401
          221223 213655 258237 255009 251581 247870 243779 239090 233645 227444 220648 213469
          258200 254890 251354 247492 243207 238383 232939 226877 220292 213350 258180 254824
          251232 247298 242935 238058 232616 226612 220123 213292 257484 252877 248357 243889
          239360 234603 229505 224084 218439 212694 257502 252939 248488 244130 239755 235106
          229992 224472 218680 212774 257531 253038 248706 244563 240583 236222 231038 225288
          219168 212930 257555 253126 248910 245003 241660 237904 232791 226616 219899 213145
          257560 253148 248979 245204 242876 238658 233830 228292 220788 213326 257537 253073
          248829 244908 241584 237831 233059 226638 219872 213131 257493 252927 248531 244347
          240369 236022 230912 225147 219058 212890 257442 252759 248198 243750 239320 234658
          229586 224134 218453 212694 257399 252621 247934 243312 238667 233862 228806 223511
          218065 212564 257375 252544 247792 243087 238352 233490 228441 223215 217877 212500
          256629 250488 244808 239604 234741 230016 225297 220624 216118 211862 256650 250561
          244961 239882 235191 230581 225840 221052 216380 211949 256683 250676 245211 240371
          236103 231793 226965 221924 216896 212115 256711 250777 245441 240854 237223 233520
          228744 223268 217619 212328 256717 250802 245518 241067 238450 234293 229785 224918
          218385 212490 256691 250718 245351 240748 237141 233454 228745 223229 217576 212311
          256640 250552 245015 240128 235861 231558 226757 221739 216765 212067 256582 250359
          244634 239452 234698 230069 225365 220661 216122 211859 256532 250198 244327 238946
          233949 229167 224496 219971 215693 211716 256504 250109 244161 238683 233582 228737
          224080 219636 215482 211644 255527 247565 240632 234698 229537 224857 220501 216569
          213282 210792 255552 247652 240815 235035 230086 225543 221152 217074 213587 210892
          255591 247787 241110 235614 231155 226948 222455 218077 214171 211078 255623 247905
          241377 236164 232370 228775 224351 219527 214939 211305 255630 247935 241466 236403
          233640 229595 225432 221187 215623 211458 255601 247841 241279 236050 232282 228704
          224359 219490 214895 211287 255544 247651 240895 235347 230890 226691 222226 217875
          214028 211026 255477 247428 240452 234556 229536 224971 220619 216638 213299 210791
          255419 247242 240092 233954 228635 223888 219588 215829 212804 210627 255387 247138
          239896 233639 228191 223368 219092 215435 212558 210544 253792 243528 235277 228681
          223306 218689 214631 211363 209348 209093 253822 243631 235500 229115 224057 219637
          215498 212010 209724 209213 253867 243791 235859 229847 225468 221516 217241 213313
          210449 209439 253905 243928 236177 230515 226932 223567 219468 215154 211390 209712
          253913 243966 236285 230804 228342 224510 220644 216779 212102 209881 253881 243861
          236073 230395 226841 223472 219786 215205 211367 209697 253817 243645 235629 229564
          225192 221252 217056 213130 210309 209387 253740 243389 235108 228598 223467 219025
          214931 211543 209414 209105 253675 243175 234682 227854 222293 217597 213606 210538
          208817 208911 253639 243055 234451 227470 221731 216936 212988 210060 208526 208814
          250254 237377 228041 221013 215564 211017 207104 204257 203278 205582 250287 237493
          228305 221573 216728 212521 208320 205092 203734 205724 250337 237674 228728 222513
          219021 215838 211195 206947 204661 205998 250379 237828 229097 223332 221191 218167
          214426 210284 205986 206347 250389 237872 229226 223697 223048 219536 215655 211717
          207055 206572 250355 237758 228990 223209 221104 218093 214390 210487 205993 206337
          250285 237523 228491 222224 218768 215606 211015 206792 204529 205947 250202 237242
          227896 221039 216157 211933 207736 204610 203414 205611 250131 237005 227411 220130
          214475 209838 205998 203372 202713 205388 250092 236874 227151 219678 213768 208995
          205246 202813 202381 205279
        </DataArray>
        <DataArray type="Float32" Name="wetting saturation" NumberOfComponents="1" format="ascii">
          1 1 1 1 1 1 1 1 1 1 1 1
          1 1 1 1 1 1 1 1 1 1 1 1
          1 1 1 1 1 1 1 1 1 1 0.998786 1
          1 1 1 1 1 1 1 1 0.959669 0.985747 0.994321 1
          1 1 1 1 1 1 0.998523 1 1 1 1 1
          1 1 1 1 1 1 1 1 1 1 1 1
          1 1 1 1 1 1 1 1 1 1 1 1
          1 1 1 1 1 1 1 1 1 1 1 1
          1 1 1 1 1 1 1 1 1 1 1 1
          1 1 1 1 1 1 1 1 1 1 1 1
          1 1 1 1 1 1 1 1 1 1 1 1
          1 1 0.99353 0.997367 1 1 1 1 1 1 1 1
          0.932072 0.966392 0.982082 0.991957 1 1 1 1 1 1 0.992847 0.996605
          1 1 1 1 1 1 1 1 1 1 1 1
          1 1 1 1 1 1 1 1 1 1 1 1
          1 1 1 1 1 1 1 1 1 1 1 1
          1 1 1 1 1 1 1 1 1 1 1 1
          1 1 1 1 1 1 1 1 1 1 1 1
          1 1 1 1 1 1 1 1 1 1 1 1
          1 1 1 1 1 1 0.986458 0.991944 1 1 1 1
          1 1 1 1 0.920634 0.955758 0.974159 0.987316 1 1 1 1
          1 1 0.985773 0.99127 1 1 1 1 1 1 1 1
          1 1 1 1 1 1 1 1 1 1 1 1
          1 1 1 1 1 1 1 1 1 1 1 1
          1 1 1 1 1 1 1 1 1 1 1 1
          1 1 1 1 1 1 1 1 1 1 1 1
          1 1 1 1 1 1 1 1 1 1 1 1
          1 1 1 1 1 1 1 1 1 1 0.98241 0.988025
          1 1 1 1 1 1 1 1 0.917855 0.95263 0.971559 0.985989
          1 1 1 1 1 1 0.981736 0.987298 0.999908 1 1 1
          1 1 1 1 1 1 1 1 1 1 1 1
          1 1 1 1 1 1 1 1 1 1 1 1
          1 1 1 1 1 1 1 1 1 1 1 1
          1 1 1 1 1 1 1 1 1 1 1 1
          1 1 1 1 1 1 1 1 1 1 1 1
          1 1 1 1 1 1 1 1 1 1 1 1
          1 1 0.981449 0.98673 1 1 1 1 1 1 1 1
          0.917904 0.952186 0.971457 0.986552 1 1 1 1 1 1 0.980746 0.985845
          0.999069 1 1 1 1 1 1 1 1 1 1 1
          1 1 1 1 1 1 1 1 1 1 1 1
          1 1 1 1 1 1 1 1 1 1 1 1
          1 1 1 1 1 1 1 1 1 1 1 1
          1 1 1 1 1 1 1 1 1 1 1 1
          1 1 1 1 1 1 1 1 1 1 1 1
          1 1 1 1 1 1 0.981753 0.986549 1 1 1 1
          1 1 1 1 0.918654 0.952362 0.972196 0.987951 1 1 1 1
          1 1 0.981018 0.985715 0.999789 1 1 1 1 1 1 1
          1 1 1 1 1 1 1 1 1 1 1 1
          1 1 1 1 1 1 1 1 1 1 1 1
          1 1 1 1 1 1 1 1 1 1 1 1
          1 1 1 1 1 1 1 1 1 1 1 1
          1 1 1 1 1 1 1 1 1 1 1 1
          1 1 1 1 1 1 1 1 1 1 0.982273 0.986596
          1 1 1 1 1 1 1 1 0.919243 0.952571 0.973049 0.989878
          1 1 1 1 1 1 0.981504 0.985878 1 1 1 1
          1 1 1 1 1 1 1 1 1 1 1 1
          1 1 1 1 1 1 1 1 1 1 1 1
          1 1 1 1 1 1 1 1 1 1 1 1
          1 1 1 1 1 1 1 1 1 1 1 1
          1 1 1 1 1 1 1 1 1 1 1 1
          1 1 1 1 1 1 1 1 1 1 1 1
          1 1 0.982352 0.98646 1 1 1 1 1 1 1 1
          0.918964 0.952569 0.973786 0.992147 1 1 1 1 1 1 0.981557 0.985735
          1 1 1 1 1 1 1 1 1 1 1 1
          1 1 1 1 1 1 1 1 1 1 1 1
          1 1 1 1 1 1 1 1 1 1 1 1
          1 1 1 1 1 1 1 1 1 1 1 1
          1 1 1 1 1 1 1 1 1 1 1 1
          1 1 1 1 1 1 1 1 1 1 1 1
          1 1 1 1 1 1 0.980453 0.985176 1 1 1 1
          1 1 1 1 0.915086 0.950786 0.973518 0.993293 1 1 1 1
          1 1 0.979646 0.984204 0.99915 1 1 1 1 1 1 1
          1 1 1 1 1 1 1 1 1 1 1 1
          1 1 1 1 1 1 1 1 1 1 1 1
          1 1 1 1 1 1 1 1 1 1 1 1
          1 1 1 1 1 1 1 1 1 1 1 1
          1 1 1 1 1 1 1 1 1 1 1 1
          0.983312 0.985838 1 1 1 1 1 1 1 1 0.941969 0.95042
          0.972812 0.998541 1 1 1 1 1 1 0.863157 0.906271 0.937987 0.971857
          1 1 1 1 1 1 0.940762 0.94933 0.972073 0.997585 1 1
          1 1 1 1 0.981938 0.984248 1 1 1 1 1 1
          1 1 1 1 1 1 1 1 1 1 1 1
          1 1 1 1 1 1 1 1 1 1 1 1
          1 1 1 1
        </DataArray>
        <DataArray type="Float32" Name="C^w from cellData" NumberOfComponents="1" format="ascii">
          199.956 199.956 199.956 199.956 199.956 199.956 199.955 199.954 199.953 199.952 199.956 199.956
          199.956 199.956 199.956 199.956 199.955 199.954 199.953 199.952 199.956 199.956 199.956 199.956
          199.953 199.956 199.955 199.954 199.953 199.952 199.956 199.956 199.956 199.942 199.328 199.671
          199.926 199.954 199.953 199.952 199.956 199.956 199.956 199.841 191.69 196.816 198.088 199.297
          199.953 199.952 199.956 199.956 199.956 199.939 199.263 199.614 199.921 199.954 199.953 199.952
          199.956 199.956 199.956 199.956 199.949 199.956 199.955 199.954 199.953 199.952 199.956 199.956
          199.956 199.956 199.956 199.956 199.955 199.954 199.953 199.952 199.956 199.956 199.956 199.956
          199.956 199.956 199.955 199.954 199.953 199.952 199.956 199.956 199.957 199.956 199.956 199.956
          199.955 199.954 199.953 199.952 199.956 199.956 199.956 199.956 199.955 199.955 199.954 199.954
          199.953 199.952 199.956 199.956 199.956 199.956 199.955 199.955 199.954 199.954 199.953 199.952
          199.956 199.956 199.956 199.956 199.843 199.95 199.954 199.954 199.953 199.952 199.956 199.956
          199.956 199.926 198.246 198.932 199.67 199.917 199.953 199.952 199.956 199.956 199.956 199.777
          186.566 192.982 195.973 197.533 199.539 199.952 199.956 199.956 199.956 199.926 198.143 198.792
          199.607 199.916 199.953 199.952 199.956 199.956 199.956 199.956 199.808 199.945 199.954 199.954
          199.953 199.952 199.956 199.956 199.956 199.956 199.955 199.955 199.954 199.954 199.953 199.952
          199.956 199.956 199.956 199.956 199.955 199.955 199.954 199.954 199.953 199.952 199.956 199.956
          199.956 199.956 199.955 199.955 199.954 199.954 199.953 199.952 199.955 199.955 199.955 199.955
          199.955 199.954 199.954 199.953 199.952 199.951 199.955 199.955 199.955 199.955 199.955 199.954
          199.954 199.953 199.952 199.951 199.955 199.955 199.955 199.955 199.636 199.866 199.954 199.953
          199.952 199.951 199.955 199.955 199.955 199.926 196.868 197.621 199.138 199.831 199.952 199.951
          199.955 199.955 199.955 199.769 184.317 191.008 194.219 196.229 199.083 199.951 199.955 199.955
          199.955 199.924 196.717 197.453 199.098 199.826 199.952 199.951 199.955 199.955 199.955 199.955
          199.597 199.842 199.954 199.953 199.952 199.951 199.955 199.955 199.955 199.955 199.955 199.954
          199.954 199.953 199.952 199.951 199.955 199.955 199.955 199.955 199.955 199.954 199.954 199.953
          199.952 199.951 199.955 199.955 199.955 199.955 199.955 199.954 199.954 199.953 199.952 199.951
          199.955 199.955 199.955 199.955 199.954 199.954 199.953 199.953 199.952 199.951 199.955 199.955
          199.955 199.955 199.954 199.954 199.953 199.953 199.952 199.951 199.955 199.955 199.955 199.954
          199.529 199.762 199.953 199.953 199.952 199.951 199.955 199.955 199.955 199.922 196.004 196.673
          198.951 199.8 199.952 199.951 199.955 199.955 199.955 199.803 183.72 190.398 193.615 195.922
          199.093 199.951 199.955 199.955 199.955 199.922 195.848 196.538 198.828 199.795 199.952 199.951
          199.955 199.955 199.955 199.954 199.493 199.723 199.953 199.953 199.952 199.951 199.955 199.955
          199.955 199.955 199.954 199.954 199.953 199.953 199.952 199.951 199.955 199.955 199.955 199.955
          199.954 199.954 199.953 199.953 199.952 199.951 199.955 199.955 199.955 199.955 199.954 199.954
          199.953 199.953 199.952 199.951 199.955 199.955 199.955 199.954 199.954 199.953 199.953 199.952
          199.952 199.951 199.955 199.955 199.955 199.954 199.954 199.953 199.953 199.952 199.952 199.951
          199.955 199.955 199.955 199.954 199.488 199.711 199.953 199.952 199.952 199.951 199.955 199.955
          199.954 199.918 195.783 196.382 198.904 199.82 199.952 199.951 199.955 199.955 199.954 199.867
          183.701 190.302 193.58 196.152 199.294 199.951 199.955 199.955 199.954 199.919 195.618 196.258
          198.714 199.815 199.952 199.951 199.955 199.955 199.955 199.954 199.451 199.664 199.953 199.952
          199.952 199.951 199.955 199.955 199.955 199.954 199.954 199.953 199.953 199.952 199.952 199.951
          199.955 199.955 199.955 199.954 199.954 199.953 199.953 199.952 199.952 199.951 199.955 199.955
          199.955 199.954 199.954 199.953 199.953 199.952 199.952 199.951 199.955 199.955 199.954 199.954
          199.953 199.953 199.952 199.952 199.951 199.951 199.955 199.955 199.954 199.954 199.953 199.953
          199.952 199.952 199.951 199.951 199.955 199.955 199.954 199.954 199.479 199.695 199.952 199.952
          199.952 199.951 199.955 199.955 199.954 199.914 195.837 196.352 198.943 199.858 199.952 199.951
          199.955 199.955 199.954 199.872 183.857 190.333 193.713 196.627 199.531 199.951 199.955 199.955
          199.954 199.914 195.662 196.202 198.802 199.853 199.952 199.951 199.955 199.955 199.954 199.954
          199.439 199.642 199.952 199.952 199.952 199.951 199.955 199.955 199.954 199.954 199.953 199.953
          199.952 199.952 199.951 199.951 199.955 199.955 199.954 199.954 199.953 199.953 199.952 199.952
          199.951 199.951 199.955 199.955 199.954 199.954 199.953 199.953 199.952 199.952 199.951 199.951
          199.955 199.955 199.954 199.953 199.953 199.952 199.952 199.952 199.951 199.951 199.955 199.955
          199.954 199.953 199.953 199.952 199.952 199.952 199.951 199.951 199.955 199.954 199.954 199.953
          199.475 199.686 199.952 199.952 199.951 199.951 199.955 199.954 199.954 199.909 195.94 196.385
          198.981 199.894 199.951 199.951 199.955 199.954 199.954 199.911 184.022 190.381 193.819 197.178
          199.727 199.951 199.955 199.954 199.954 199.91 195.756 196.2 198.942 199.891 199.951 199.951
          199.955 199.954 199.954 199.953 199.432 199.627 199.952 199.952 199.951 199.951 199.955 199.954
          199.954 199.953 199.953 199.952 199.952 199.952 199.951 199.951 199.955 199.955 199.954 199.953
          199.953 199.952 199.952 199.952 199.951 199.951 199.955 199.955 199.954 199.953 199.953 199.952
          199.952 199.952 199.951 199.951 199.955 199.954 199.954 199.953 199.952 199.952 199.952 199.951
          199.951 199.951 199.955 199.954 199.954 199.953 199.952 199.952 199.952 199.951 199.951 199.951
          199.955 199.954 199.954 199.953 199.453 199.655 199.952 199.951 199.951 199.951 199.955 199.954
          199.953 199.906 195.946 196.37 199.006 199.921 199.951 199.951 199.955 199.954 199.953 199.899
          184.055 190.4 193.95 197.733 199.851 199.951 199.955 199.954 199.953 199.906 195.755 196.183
          198.965 199.92 199.951 199.951 199.955 199.954 199.954 199.953 199.409 199.592 199.952 199.951
          199.951 199.951 199.955 199.954 199.954 199.953 199.952 199.952 199.952 199.951 199.951 199.951
          199.955 199.954 199.953 199.953 199.952 199.952 199.951 199.951 199.951 199.951 199.955 199.954
          199.953 199.953 199.952 199.952 199.951 199.951 199.951 199.951 199.955 199.954 199.953 199.952
          199.952 199.951 199.951 199.951 199.951 199.951 199.955 199.954 199.953 199.952 199.952 199.951
          199.951 199.951 199.951 199.951 199.955 199.954 199.953 199.952 199.379 199.547 199.951 199.951
          199.951 199.951 199.955 199.954 199.953 199.907 195.517 196.07 198.967 199.928 199.951 199.951
          199.955 199.954 199.953 199.911 183.359 190.078 193.818 198.018 199.892 199.951 199.955 199.954
          199.953 199.907 195.32 195.913 198.767 199.926 199.951 199.951 199.955 199.954 199.953 199.952
          199.337 199.485 199.951 199.951 199.951 199.951 199.955 199.954 199.953 199.952 199.952 199.951
          199.951 199.951 199.951 199.951 199.955 199.954 199.953 199.952 199.952 199.951 199.951 199.951
          199.951 199.951 199.955 199.954 199.953 199.952 199.952 199.951 199.951 199.951 199.951 199.951
          199.955 199.953 199.952 199.952 199.951 199.951 199.95 199.95 199.95 199.95 199.955 199.953
          199.952 199.952 199.577 199.754 199.95 199.95 199.95 199.95 199.955 199.953 199.952 199.928
          196.031 196.304 198.932 199.95 199.95 199.95 199.955 199.953 199.952 199.914 188.118 189.742
          193.176 198.319 199.95 199.95 199.955 199.953 199.952 199.883 172.92 181.399 187.383 192.952
          199.003 199.95 199.955 199.953 199.952 199.914 187.889 189.539 193.008 198.197 199.95 199.95
          199.955 199.953 199.952 199.929 195.708 195.856 198.808 199.95 199.95 199.95 199.955 199.953
          199.952 199.952 199.468 199.671 199.95 199.95 199.95 199.95 199.955 199.953 199.952 199.952
          199.951 199.951 199.95 199.95 199.95 199.95 199.955 199.953 199.952 199.952 199.951 199.95
          199.95 199.95 199.95 199.95
        </DataArray>
        <DataArray type="Float32" Name="C^n from cellData" NumberOfComponents="1" format="ascii">
          0 0 0 3.44918e-15 6.2918e-11 4.4874e-12 1.39916e-13 2.65769e-15 9.06015e-18 0 0 0
          5.44705e-16 8.52078e-12 1.09753e-07 9.49301e-09 3.71319e-10 7.71755e-12 1.11596e-13 1.53772e-15 7.62271e-18 1.06565e-14 9.8985e-13 7.76348e-09
          8.69767e-05 7.77075e-06 4.63212e-07 1.09792e-08 1.59694e-10 2.11692e-12 2.91671e-13 1.44135e-11 1.06998e-09 3.66903e-06 0.0165951 0.00351604
          0.000409971 1.16792e-05 1.60085e-07 1.9629e-09 6.39924e-10 2.59042e-08 1.48046e-06 0.00143842 0.041769 0.0245488 0.0186344 0.0077945
          0.000131549 1.66072e-06 4.98789e-13 2.60691e-11 1.95429e-09 4.82493e-06 0.0167576 0.00429113 0.000477471 1.3146e-05 1.80018e-07 2.20427e-09
          2.27984e-16 2.2881e-14 2.24014e-12 1.21572e-08 0.000146807 1.09488e-05 6.26637e-07 1.4297e-08 2.04762e-10 2.68369e-12 0 2.62459e-18
          1.69144e-15 1.78101e-11 2.02069e-07 1.63693e-08 6.24032e-10 1.25371e-11 1.78255e-13 1.94766e-15 0 0 0 1.30691e-14
          1.79743e-10 1.26606e-11 3.83166e-13 6.80288e-15 1.89205e-17 0 0 0 0 0 6.4479e-14 3.74885e-15
          6.05129e-17 0 0 0 0 0 0 1.0335e-14 6.44604e-10 3.42506e-11 1.0844e-12 1.63286e-14
          4.47119e-17 0 0 0 5.7189e-16 2.30164e-11 1.54542e-06 8.51788e-08 3.66293e-09 6.94479e-11 7.02108e-13 5.24175e-15