<?xml version="1.0"?>
<VTKFile type="UnstructuredGrid" version="0.1" byte_order="LittleEndian">
  <UnstructuredGrid>
    <Piece NumberOfCells="1000" NumberOfPoints="1331">
      <CellData Scalars="wetting pressure">
        <DataArray type="Float32" Name="wetting pressure" NumberOfComponents="1" format="ascii">
          265572 270829 272447 271536 268579 263735 256939 247939 236222 220721 265578 270848
          272485 271602 268683 263882 257116 248108 236344 220765 265587 270877 272544 271705
          268849 264143 257450 248439 236584 220851 265593 270899 272591 271792 268975 264426
          257870 248893 236914 220964 265592 270898 272595 271809 268997 264409 258122 249379
          237201 221046 265580 270863 272534 271719 268898 264354 257795 248828 236870 220948
          265562 270804 272426 271552 268676 263961 257275 248292 236487 220817 265540 270736
          272303 271360 268399 263579 256824 247864 236181 220708 265522 270678 272200 271202
          268177 263296 256510 247576 235979 220635 265511 270646 272142 271114 268058 263149
          256352 247433 235879 220600 262023 264641 265130 263708 260557 255731 249160 240678
          230077 217189 262031 264664 265179 263793 260693 255928 249394 240897 230234 217245
          262041 264701 265254 263931 260927 256302 249875 241351 230567 217362 262049 264730
          265319 264053 261083 256736 250609 242055 231121 217543 262049 264732 265334 264119
          261333 256875 250788 242775 231986 217735 262036 264692 265260 263979 261005 256654
          250535 241998 231079 217527 262015 264624 265131 263773 260752 256116 249694 241201
          230466 217326 261990 264546 264986 263538 260395 255607 249085 240638 230061 217184
          261970 264480 264867 263350 260124 255258 248696 240286 229815 217096 261958 264444
          264800 263248 259983 255083 248508 240118 229698 217054 260275 260557 259679 257524
          254072 249278 243056 235319 226064 215466 260284 260588 259745 257645 254275 249563
          243389 235617 226274 215540 260298 260638 259852 257855 254669 250161 244142 236273
          226749 215704 260310 260680 259950 258060 255031 250898 245545 237400 227665 215993
          260311 260687 259983 258187 255518 251293 245655 238284 229504 216424 260296 260639
          259887 257983 254955 250799 245408 237377 227627 215978 260270 260554 259719 257686
          254489 249969 243952 236120 226643 215666 260240 260458 259533 257365 253947 249212
          243049 235333 226084 215473 260215 260378 259384 257121 253584 248742 242531 234876
          225767 215362 260201 260334 259302 256993 253403 248518 242291 234665 225623 215311
          259163 257601 255439 252515 248728 243969 238136 231181 223185 214382 259175 257642
          255526 252678 249006 244350 238563 231553 223438 214470 259194 257707 255671 252972
          249585 245182 239542 232382 224010 214664 259209 257764 255806 253269 250183 246207
          241191 233852 225092 214995 259211 257777 255854 253434 250756 246717 241486 234878
          227149 215443 259194 257720 255737 253187 250111 246143 241148 233820 225050 214978
          259162 257614 255524 252787 249396 244986 239352 232215 223893 214621 259126 257495
          255288 252364 248639 243957 238184 231234 223224 214395 259095 257397 255102 252053
          248166 243352 237532 230672 222845 214263 259078 257343 255001 251893 247937 243069
          237235 230416 222673 214203 258305 255204 251874 248205 244080 239355 233911 227713
          220859 213550 258320 255255 251982 248408 244423 239814 234412 228135 221136 213644
          258343 255336 252162 248772 245144 240823 235553 229063 221736 213843 258362 255407
          252330 249140 245898 242052 237444 230667 222766 214152 258365 255424 252388 249325
          246487 242568 237736 231806 224427 214486 258345 255358 252253 249049 245819 241975
          237365 230624 222718 214133 258307 255232 251997 248566 244934 240606 235339 228875
          221604 213796 258264 255089 251713 248051 244007 239368 233982 227773 220894 213559
          258227 254971 251487 247673 243432 238643 233217 227131 220473 213415 258207 254906
          251365 247479 243155 238306 232869 226835 220278 213347 257521 252987 248541 244148
          239692 235001 229940 224477 218713 212792 257539 253047 248670 244385 240088 235522
          230495 224935 219003 212889 257566 253144 248881 244807 240904 236645 231730 225909
          219598 213083 257589 253228 249076 245226 241741 237974 233719 227514 220501 213353
          257593 253247 249142 245423 242335 238489 234017 228710 221563 213582 257570 253173
          248991 245125 241652 237887 233630 227460 220444 213331 257526 253027 248697 244578
          240671 236402 231489 225696 219449 213030 257475 252860 248365 243982 239616 235017
          230008 224525 218730 212793 257432 252720 248098 243539 238949 234186 229148 223817
          218277 212640 257408 252643 247954 243309 238623 233794 228749 223484 218060 212565
          256672 250619 245029 239916 235144 230496 225816 221087 216436 211976 256693 250691
          245180 240194 235600 231089 226436 221588 216747 212079 256726 250804 245426 240677
          236510 232321 227759 222615 217359 212277 256753 250902 245650 241144 237409 233717
          229800 224197 218210 212531 256758 250926 245725 241356 238017 234242 230112 225385
          219075 212718 256732 250842 245558 241035 237314 233623 229701 224132 218147 212506
          256682 250676 245224 240427 236259 232055 227490 222376 217192 212218 256622 250481
          244839 239742 235074 230522 225887 221127 216440 211972 256572 250318 244526 239222
          234296 229566 224914 220338 215943 211804 256543 250226 244355 238949 233910 229105
          224452 219957 215699 211721 255577 247717 240890 235065 230016 225433 221123 217119
          213657 210924 255602 247803 241072 235405 230578 226157 221868 217711 214019 211044
          255640 247938 241366 235982 231653 227591 223379 218876 214707 211265 255672 248053
          241628 236522 232656 229092 225490 220518 215599 211534 255679 248083 241716 236761
          233305 229653 225847 221704 216378 211712 255650 247988 241530 236408 232557 228994
          225385 220444 215530 211508 255592 247798 241149 235722 231417 227314 223090 218617
          214526 211200 255524 247572 240697 234912 230008 225534 221260 217200 213678 210924
          255465 247380 240325 234282 229054 224371 220094 216268 213100 210731 255432 247273
          240121 233951 228579 223806 219534 215814 212813 210634 253848 243697 235565 229099
          223862 219371 215379 212019 209789 209248 253877 243800 235790 229541 224639 220386
          216402 212797 210246 209395 253922 243959 236148 230271 226052 222283 218434 214329
          211126 209672 253960 244096 236464 230933 227297 224000 220631 216287 212249 210009
          253968 244133 236572 231224 228068 224665 221124 217473 213139 210226 253936 244028
          236361 230816 227181 223904 220529 216211 212181 209983 253871 243811 235922 230024
          225971 222023 218140 214070 210939 209605 253793 243551 235388 229018 224061 219732
          215756 212248 209879 209266 253726 243329 234944 228231 222786 218175 214220 211064
          209167 209033 253688 243205 234702 227822 222175 217442 213503 210500 208820 208917
          250313 237556 228348 221466 216183 211798 207983 205010 203775 205754 250345 237672
          228616 222040 217416 213465 209552 206073 204354 205935 250395 237852 229037 222970
          219485 216474 213236 208459 205551 206289 250437 238007 229406 223794 221268 218475
          215165 211577 207335 206761 250447 238050 229536 224162 222347 219394 215992 212473
          209144 207118 250413 237936 229299 223673 221166 218375 215077 211517 207283 206737
          250343 237699 228799 222687 219225 216187 212960 208264 205375 206222 250258 237412
          228194 221492 216832 212844 208937 205520 203975 205800 250185 237168 227690 220535
          215019 210502 206730 203983 203109 205525 250144 237031 227417 220053 214247 209550
          205818 203299 202703 205392
        </DataArray>
        <DataArray type="Float32" Name="nonwetting pressure" NumberOfComponents="1" format="ascii">
          265572 270829 272447 271536 268579 263735 256939 247939 236222 220721 265578 270848
          272485 271602 268683 263882 257116 248108 236344 220765 265587 270877 272544 271705
          268849 264143 257450 248439 236584 220851 265593 270899 272591 271792 268987 264426
          257870 248893 236914 220964 265592 270898 272595 271809 269398 264550 258178 249379
          237201 221046 265580 270863 272534 271719 268913 264354 257795 248828 236870 220948
          265562 270804 272426 271552 268676 263961 257275 248292 236487 220817 265540 270736
          272303 271360 268399 263579 256824 247864 236181 220708 265522 270678 272200 271202
          268177 263296 256510 247576 235979 220635 265511 270646 272142 271114 268058 263149
          256352 247433 235879 220600 262023 264641 265130 263708 260557 255731 249160 240678
          230077 217189 262031 264664 265179 263793 260693 255928 249394 240897 230234 217245
          262041 264701 265254 263931 260927 256302 249875 241351 230567 217362 262049 264730
          265319 264053 261151 256773 250609 242055 231121 217543 262049 264732 265334 264119
          262015 257214 250970 242864 231986 217735 262036 264692 265260 263979 261078 256696
          250535 241998 231079 217527 262015 264624 265131 263773 260752 256116 249694 241201
          230466 217326 261990 264546 264986 263538 260395 255607 249085 240638 230061 217184
          261970 264480 264867 263350 260124 255258 248696 240286 229815 217096 261958 264444
          264800 263248 259983 255083 248508 240118 229698 217054 260275 260557 259679 257524
          254072 249278 243056 235319 226064 215466 260284 260588 259745 257645 254275 249563
          243389 235617 226274 215540 260298 260638 259852 257855 254669 250161 244142 236273
          226749 215704 260310 260680 259950 258060 255172 251000 245576 237400 227665 215993
          260311 260687 259983 258187 256318 251743 245928 238445 229562 216424 260296 260639
          259887 257983 255103 250910 245449 237377 227627 215978 260270 260554 259719 257686
          254489 249969 243952 236120 226643 215666 260240 260458 259533 257365 253947 249212
          243049 235333 226084 215473 260215 260378 259384 257121 253584 248742 242531 234876
          225767 215362 260201 260334 259302 256993 253403 248518 242291 234665 225623 215311
          259163 257601 255439 252515 248728 243969 238136 231181 223185 214382 259175 257642
          255526 252678 249006 244350 238563 231553 223438 214470 259194 257707 255671 252972
          249585 245182 239542 232382 224010 214664 259209 257764 255806 253269 250365 246354
          241254 233852 225092 214995 259211 257777 255854 253434 251585 247199 241789 235054
          227206 215443 259194 257720 255737 253187 250301 246297 241219 233820 225050 214978
          259162 257614 255524 252787 249396 244986 239352 232215 223893 214621 259126 257495
          255288 252364 248639 243957 238184 231234 223224 214395 259095 257397 255102 252053
          248166 243352 237532 230672 222845 214263 259078 257343 255001 251893 247937 243069
          237235 230416 222673 214203 258305 255204 251874 248205 244080 239355 233911 227713
          220859 213550 258320 255255 251982 248408 244423 239814 234412 228135 221136 213644
          258343 255336 252162 248772 245144 240823 235553 229063 221736 213843 258362 255407
          252330 249140 246091 242214 237517 230667 222766 214152 258365 255424 252388 249325
          247316 243054 238040 231973 224447 214486 258345 255358 252253 249049 246019 242143
          237444 230624 222718 214133 258307 255232 251997 248566 244934 240606 235339 228875
          221604 213796 258264 255089 251713 248051 244007 239368 233982 227773 220894 213559
          258227 254971 251487 247673 243432 238643 233217 227131 220473 213415 258207 254906
          251365 247479 243155 238306 232869 226835 220278 213347 257521 252987 248541 244148
          239692 235001 229940 224477 218713 212792 257539 253047 248670 244385 240088 235522
          230495 224935 219003 212889 257566 253144 248881 244807 240904 236645 231730 225909
          219598 213083 257589 253228 249076 245226 241931 238138 233789 227514 220501 213353
          257593 253247 249142 245423 243157 238973 234315 228860 221563 213582 257570 253173
          248991 245125 241850 238058 233708 227460 220444 213331 257526 253027 248697 244578
          240671 236402 231489 225696 219449 213030 257475 252860 248365 243982 239616 235017
          230008 224525 218730 212793 257432 252720 248098 243539 238949 234186 229148 223817
          218277 212640 257408 252643 247954 243309 238623 233794 228749 223484 218060 212565
          256672 250619 245029 239916 235144 230496 225816 221087 216436 211976 256693 250691
          245180 240194 235600 231089 226436 221588 216747 212079 256726 250804 245426 240677
          236510 232321 227759 222615 217359 212277 256753 250902 245650 241144 237594 233880
          229864 224197 218210 212531 256758 250926 245725 241356 238833 234724 230402 225521
          219075 212718 256732 250842 245558 241035 237507 233793 229774 224132 218147 212506
          256682 250676 245224 240427 236259 232055 227490 222376 217192 212218 256622 250481
          244839 239742 235074 230522 225887 221127 216440 211972 256572 250318 244526 239222
          234296 229566 224914 220338 215943 211804 256543 250226 244355 238949 233910 229105
          224452 219957 215699 211721 255577 247717 240890 235065 230016 225433 221123 217119
          213657 210924 255602 247803 241072 235405 230578 226157 221868 217711 214019 211044
          255640 247938 241366 235982 231653 227591 223379 218876 214707 211265 255672 248053
          241628 236522 232840 229255 225550 220518 215599 211534 255679 248083 241716 236761
          234125 230135 226131 221825 216378 211712 255650 247988 241530 236408 232750 229165
          225454 220444 215530 211508 255592 247798 241149 235722 231417 227314 223090 218617
          214526 211200 255524 247572 240697 234912 230008 225534 221260 217200 213678 210924
          255465 247380 240325 234282 229054 224371 220094 216268 213100 210731 255432 247273
          240121 233951 228579 223806 219534 215814 212813 210634 253848 243697 235565 229099
          223862 219371 215379 212019 209789 209248 253877 243800 235790 229541 224639 220386
          216402 212797 210246 209395 253922 243959 236148 230271 226052 222283 218434 214329
          211126 209672 253960 244096 236464 230933 227503 224177 220699 216287 212249 210009
          253968 244133 236572 231224 228927 225167 221415 217587 213139 210226 253936 244028
          236361 230816 227397 224088 220606 216211 212181 209983 253871 243811 235922 230024
          225979 222023 218140 214070 210939 209605 253793 243551 235388 229018 224061 219732
          215756 212248 209879 209266 253726 243329 234944 228231 222786 218175 214220 211064
          209167 209033 253688 243205 234702 227822 222175 217442 213503 210500 208820 208917
          250313 237556 228348 221466 216183 211798 207983 205010 203775 205754 250345 237672
          228616 222040 217416 213465 209552 206073 204354 205935 250395 237852 229037 222970
          219684 216680 213314 208459 205551 206289 250437 238007 229406 223794 221884 219017
          215519 211707 207335 206761 250447 238050 229536 224162 223743 220356 216649 212834
          209201 207118 250413 237936 229299 223673 221795 218928 215441 211653 207283 206737
          250343 237699 228799 222687 219437 216410 213058 208264 205375 206222 250258 237412
          228194 221492 216832 212844 208937 205520 203975 205800 250185 237168 227690 220535
          215019 210502 206730 203983 203109 205525 250144 237031 227417 220053 214247 209550
          205818 203299 202703 205392
        </DataArray>
        <DataArray type="Float32" Name="capillary pressure" NumberOfComponents="1" format="ascii">
          0 0 0 0 0 0 0 0 0 0 0 0
          0 0 0 0 0 0 0 0 0 0 0 0
          0 0 0 0 0 0 0 0 0 0 12.6971 0
          0 0 0 0 0 0 0 0 401.624 140.751 55.8832 0
          0 0 0 0 0 0 15.0252 0 0 0 0 0
          0 0 0 0 0 0 0 0 0 0 0 0
          0 0 0 0 0 0 0 0 0 0 0 0
          0 0 0 0 0 0 0 0 0 0 0 0
          0 0 0 0 0 0 0 0 0 0 0 0
          0 0 0 0 0 0 0 0 0 0 0 0
          0 0 0 0 0 0 0 0 0 0 0 0
          0 0 67.6963 37.7943 0 0 0 0 0 0 0 0
          682.256 339.646 182.283 88.7176 0 0 0 0 0 0 73.478 41.8699
          0 0 0 0 0 0 0 0 0 0 0 0
          0 0 0 0 0 0 0 0 0 0 0 0
          0 0 0 0 0 0 0 0 0 0 0 0
          0 0 0 0 0 0 0 0 0 0 0 0
          0 0 0 0 0 0 0 0 0 0 0 0
          0 0 0 0 0 0 0 0 0 0 0 0
          0 0 0 0 0 0 140.92 102.491 31.5289 0 0 0
          0 0 0 0 799.373 450.204 272.682 160.623 58.669 0 0 0
          0 0 148.19 111.072 41.529 0 0 0 0 0 0 0
          0 0 0 0 0 0 0 0 0 0 0 0
          0 0 0 0 0 0 0 0 0 0 0 0
          0 0 0 0 0 0 0 0 0 0 0 0
          0 0 0 0 0 0 0 0 0 0 0 0
          0 0 0 0 0 0 0 0 0 0 0 0
          0 0 0 0 0 0 0 0 0 0 182.856 146.987
          63.5501 0 0 0 0 0 0 0 828.746 482.333 303.15 176.779
          56.716 0 0 0 0 0 189.953 153.894 70.1152 0 0 0
          0 0 0 0 0 0 0 0 0 0 0 0
          0 0 0 0 0 0 0 0 0 0 0 0
          0 0 0 0 0 0 0 0 0 0 0 0
          0 0 0 0 0 0 0 0 0 0 0 0
          0 0 0 0 0 0 0 0 0 0 0 0
          0 0 0 0 0 0 0 0 0 0 0 0
          0 0 193.307 161.907 72.856 0 0 0 0 0 0 0
          829.137 486.462 304.665 166.256 20.0186 0 0 0 0 0 200.486 168.628
          79.8033 0 0 0 0 0 0 0 0 0 0 0
          0 0 0 0 0 0 0 0 0 0 0 0
          0 0 0 0 0 0 0 0 0 0 0 0
          0 0 0 0 0 0 0 0 0 0 0 0
          0 0 0 0 0 0 0 0 0 0 0 0
          0 0 0 0 0 0 0 0 0 0 0 0
          0 0 0 0 0 0 190.328 163.772 70.4702 0 0 0
          0 0 0 0 822.172 484.336 298.593 149.736 0 0 0 0
          0 0 197.864 170.855 77.9242 0 0 0 0 0 0 0
          0 0 0 0 0 0 0 0 0 0 0 0
          0 0 0 0 0 0 0 0 0 0 0 0
          0 0 0 0 0 0 0 0 0 0 0 0
          0 0 0 0 0 0 0 0 0 0 0 0
          0 0 0 0 0 0 0 0 0 0 0 0
          0 0 0 0 0 0 0 0 0 0 185.031 162.606
          64.8387 0 0 0 0 0 0 0 816.428 482.051 290.372 135.579
          0 0 0 0 0 0 192.971 169.992 72.7197 0 0 0
          0 0 0 0 0 0 0 0 0 0 0 0
          0 0 0 0 0 0 0 0 0 0 0 0
          0 0 0 0 0 0 0 0 0 0 0 0
          0 0 0 0 0 0 0 0 0 0 0 0
          0 0 0 0 0 0 0 0 0 0 0 0
          0 0 0 0 0 0 0 0 0 0 0 0
          0 0 184.412 163.268 60.7799 0 0 0 0 0 0 0
          819.269 482.146 283.709 121.267 0 0 0 0 0 0 192.715 170.852
          69.0097 0 0 0 0 0 0 0 0 0 0 0
          0 0 0 0 0 0 0 0 0 0 0 0
          0 0 0 0 0 0 0 0 0 0 0 0
          0 0 0 0 0 0 0 0 0 0 0 0
          0 0 0 0 0 0 0 0 0 0 0 0
          0 0 0 0 0 0 0 0 0 0 0 0
          0 0 0 0 0 0 205.074 176.797 68.3278 0 0 0
          0 0 0 0 859.534 501.414 290.809 114.658 0 0 0 0
          0 0 216.284 184.402 76.6543 0 0 0 0 0 0 0
          7.78737 0 0 0 0 0 0 0 0 0 0 0
          0 0 0 0 0 0 0 0 0 0 0 0
          0 0 0 0 0 0 0 0 0 0 0 0
          0 0 0 0 0 0 0 0 0 0 0 0
          0 0 0 0 0 0 0 0 0 0 0 0
          199.257 205.189 77.7524 0 0 0 0 0 0 0 616.138 542.022
          353.646 129.798 0 0 0 0 0 0 1395.34 961.706 657.404 360.846
          57.5147 0 0 0 0 0 628.939 552.789 364.824 135.544 0 0
          0 0 0 0 212.233 223.591 98.4798 0 0 0 0 0
          0 0 0 0 0 0 0 0 0 0 0 0
          0 0 0 0 0 0 0 0 0 0 0 0
          0 0 0 0
        </DataArray>
        <DataArray type="Float32" Name="wetting saturation" NumberOfComponents="1" format="ascii">
          1 1 1 1 1 1 1 1 1 1 1 1
          1 1 1 1 1 1 1 1 1 1 1 1
          1 1 1 1 1 1 1 1 1 1 0.99873 1
          1 1 1 1 1 1 1 1 0.959838 0.985925 0.994412 1
          1 1 1 1 1 1 0.998498 1 1 1 1 1
          1 1 1 1 1 1 1 1 1 1 1 1
          1 1 1 1 1 1 1 1 1 1 1 1
          1 1 1 1 1 1 1 1 1 1 1 1
          1 1 1 1 1 1 1 1 1 1 1 1
          1 1 1 1 1 1 1 1 1 1 1 1
          1 1 1 1 1 1 1 1 1 1 1 1
          1 1 0.993231 0.996221 1 1 1 1 1 1 1 1
          0.931774 0.966035 0.981772 0.991129 1 1 1 1 1 1 0.992652 0.995813
          1 1 1 1 1 1 1 1 1 1 1 1
          1 1 1 1 1 1 1 1 1 1 1 1
          1 1 1 1 1 1 1 1 1 1 1 1
          1 1 1 1 1 1 1 1 1 1 1 1
          1 1 1 1 1 1 1 1 1 1 1 1
          1 1 1 1 1 1 1 1 1 1 1 1
          1 1 1 1 1 1 0.985908 0.989751 0.996846 1 1 1
          1 1 1 1 0.920062 0.954979 0.972731 0.983937 0.99413 1 1 1
          1 1 0.985181 0.988893 0.995846 1 1 1 1 1 1 1
          1 1 1 1 1 1 1 1 1 1 1 1
          1 1 1 1 1 1 1 1 1 1 1 1
          1 1 1 1 1 1 1 1 1 1 1 1
          1 1 1 1 1 1 1 1 1 1 1 1
          1 1 1 1 1 1 1 1 1 1 1 1
          1 1 1 1 1 1 1 1 1 1 0.981714 0.985301
          0.993644 1 1 1 1 1 1 1 0.917125 0.951766 0.969684 0.982321
          0.994325 1 1 1 1 1 0.981005 0.98461 0.992988 1 1 1
          1 1 1 1 1 1 1 1 1 1 1 1
          1 1 1 1 1 1 1 1 1 1 1 1
          1 1 1 1 1 1 1 1 1 1 1 1
          1 1 1 1 1 1 1 1 1 1 1 1
          1 1 1 1 1 1 1 1 1 1 1 1
          1 1 1 1 1 1 1 1 1 1 1 1
          1 1 0.980669 0.983809 0.992713 1 1 1 1 1 1 1
          0.917086 0.951353 0.969533 0.983374 0.997996 1 1 1 1 1 0.979951 0.983137
          0.992019 1 1 1 1 1 1 1 1 1 1 1
          1 1 1 1 1 1 1 1 1 1 1 1
          1 1 1 1 1 1 1 1 1 1 1 1
          1 1 1 1 1 1 1 1 1 1 1 1
          1 1 1 1 1 1 1 1 1 1 1 1
          1 1 1 1 1 1 1 1 1 1 1 1
          1 1 1 1 1 1 0.980967 0.983622 0.992952 1 1 1
          1 1 1 1 0.917782 0.951565 0.97014 0.985026 1 1 1 1
          1 1 0.980214 0.982914 0.992206 1 1 1 1 1 1 1
          1 1 1 1 1 1 1 1 1 1 1 1
          1 1 1 1 1 1 1 1 1 1 1 1
          1 1 1 1 1 1 1 1 1 1 1 1
          1 1 1 1 1 1 1 1 1 1 1 1
          1 1 1 1 1 1 1 1 1 1 1 1
          1 1 1 1 1 1 1 1 1 1 0.981497 0.983739
          0.993515 1 1 1 1 1 1 1 0.918356 0.951794 0.970962 0.986441
          1 1 1 1 1 1 0.980703 0.983 0.992727 1 1 1
          1 1 1 1 1 1 1 1 1 1 1 1
          1 1 1 1 1 1 1 1 1 1 1 1
          1 1 1 1 1 1 1 1 1 1 1 1
          1 1 1 1 1 1 1 1 1 1 1 1
          1 1 1 1 1 1 1 1 1 1 1 1
          1 1 1 1 1 1 1 1 1 1 1 1
          1 1 0.981559 0.983673 0.993921 1 1 1 1 1 1 1
          0.918072 0.951784 0.971628 0.987872 1 1 1 1 1 1 0.980728 0.982914
          0.993098 1 1 1 1 1 1 1 1 1 1 1
          1 1 1 1 1 1 1 1 1 1 1 1
          1 1 1 1 1 1 1 1 1 1 1 1
          1 1 1 1 1 1 1 1 1 1 1 1
          1 1 1 1 1 1 1 1 1 1 1 1
          1 1 1 1 1 1 1 1 1 1 1 1
          1 1 1 1 1 1 0.979492 0.98232 0.993166 1 1 1
          1 1 1 1 0.914045 0.949858 0.970918 0.988533 1 1 1 1
          1 1 0.978371 0.981559 0.992333 1 1 1 1 1 1 1
          0.999221 1 1 1 1 1 1 1 1 1 1 1
          1 1 1 1 1 1 1 1 1 1 1 1
          1 1 1 1 1 1 1 1 1 1 1 1
          1 1 1 1 1 1 1 1 1 1 1 1
          1 1 1 1 1 1 1 1 1 1 1 1
          0.980073 0.979479 0.992221 1 1 1 1 1 1 1 0.938384 0.945795
          0.964633 0.987017 1 1 1 1 1 1 0.860464 0.903827 0.934257 0.963912
          0.994245 1 1 1 1 1 0.937104 0.944719 0.963515 0.986443 1 1
          1 1 1 1 0.978776 0.977639 0.990149 1 1 1 1 1
          1 1 1 1 1 1 1 1 1 1 1 1
          1 1 1 1 1 1 1 1 1 1 1 1
          1 1 1 1
        </DataArray>
        <DataArray type="Float32" Name="wetting density" NumberOfComponents="1" format="ascii">
          999.779 999.782 999.782 999.782 999.781 999.778 999.775 999.771 999.765 999.758 999.779 999.782
          999.782 999.782 999.781 999.778 999.775 999.771 999.765 999.758 999.779 999.782 999.782 999.782
          999.781 999.778 999.775 999.771 999.765 999.758 999.779 999.782 999.782 999.782 999.803 999.787
          999.776 999.771 999.765 999.758 999.779 999.782 999.782 999.785 999.803 999.801 999.797 999.791
          999.766 999.758 999.779 999.782 999.782 999.782 999.803 999.788 999.777 999.771 999.765 999.758
          999.779 999.782 999.782 999.782 999.781 999.778 999.775 999.771 999.765 999.758 999.779 999.782
          999.782 999.782 999.78 999.778 999.775 999.771 999.765 999.758 999.779 999.782 999.782 999.782
          999.78 999.778 999.775 999.771 999.765 999.758 999.779 999.781 999.782 999.782 999.78 999.778
          999.775 999.77 999.765 999.758 999.777 999.779 999.779 999.778 999.777 999.774 999.771 999.767
          999.762 999.756 999.777 999.779 999.779 999.778 999.777 999.774 999.771 999.767 999.762 999.756
          999.777 999.779 999.779 999.778 999.78 999.775 999.772 999.768 999.762 999.756 999.777 999.779
          999.779 999.778 999.799 999.796 999.782 999.769 999.763 999.756 999.777 999.779 999.779 999.783
          999.799 999.796 999.793 999.789 999.78 999.756 999.777 999.779 999.779 999.778 999.799 999.796
          999.784 999.769 999.763 999.756 999.777 999.779 999.779 999.778 999.78 999.775 999.772 999.767
          999.762 999.756 999.777 999.779 999.779 999.778 999.777 999.774 999.771 999.767 999.762 999.756
          999.777 999.779 999.779 999.778 999.776 999.774 999.771 999.767 999.762 999.756 999.777 999.779
          999.779 999.778 999.776 999.774 999.771 999.767 999.762 999.756 999.777 999.777 999.776 999.775
          999.774 999.771 999.768 999.765 999.76 999.755 999.777 999.777 999.776 999.775 999.774 999.771
          999.768 999.765 999.76 999.755 999.777 999.777 999.776 999.775 999.781 999.775 999.769 999.765
          999.761 999.755 999.777 999.777 999.776 999.776 999.795 999.793 999.79 999.77 999.761 999.755
          999.777 999.777 999.776 999.78 999.796 999.793 999.79 999.786 999.781 999.757 999.777 999.777
          999.776 999.776 999.795 999.793 999.79 999.77 999.761 999.755 999.777 999.777 999.776 999.775
          999.782 999.775 999.769 999.765 999.76 999.755 999.777 999.777 999.776 999.775 999.774 999.771
          999.768 999.765 999.76 999.755 999.777 999.777 999.776 999.775 999.773 999.771 999.768 999.764
          999.76 999.755 999.777 999.777 999.776 999.775 999.773 999.771 999.768 999.764 999.76 999.755
          999.776 999.775 999.774 999.773 999.771 999.769 999.766 999.763 999.759 999.755 999.776 999.775
          999.774 999.773 999.771 999.769 999.766 999.763 999.759 999.755 999.776 999.775 999.774 999.773
          999.782 999.774 999.767 999.763 999.759 999.755 999.776 999.775 999.774 999.773 999.793 999.79
          999.788 999.771 999.76 999.755 999.776 999.775 999.774 999.776 999.793 999.791 999.788 999.784
          999.78 999.756 999.776 999.775 999.774 999.773 999.793 999.79 999.788 999.771 999.76 999.755
          999.776 999.775 999.774 999.773 999.784 999.775 999.768 999.763 999.759 999.755 999.776 999.775
          999.774 999.773 999.771 999.769 999.766 999.763 999.759 999.755 999.776 999.775 999.774 999.773
          999.771 999.768 999.766 999.762 999.759 999.755 999.776 999.775 999.774 999.773 999.771 999.768
          999.766 999.762 999.759 999.755 999.776 999.774 999.773 999.771 999.769 999.767 999.764 999.761
          999.758 999.754 999.776 999.774 999.773 999.771 999.769 999.767 999.764 999.761 999.758 999.754
          999.776 999.774 999.773 999.771 999.782 999.773 999.766 999.762 999.758 999.754 999.776 999.774
          999.773 999.771 999.79 999.788 999.786 999.769 999.759 999.755 999.776 999.774 999.773 999.774
          999.791 999.788 999.786 999.782 999.778 999.755 999.776 999.774 999.773 999.771 999.79 999.788
          999.785 999.77 999.759 999.755 999.776 999.774 999.773 999.771 999.783 999.774 999.766 999.762
          999.758 999.754 999.776 999.774 999.772 999.771 999.769 999.767 999.764 999.761 999.758 999.754
          999.776 999.774 999.772 999.771 999.768 999.766 999.764 999.761 999.758 999.754 999.776 999.774
          999.772 999.77 999.768 999.766 999.763 999.761 999.757 999.754 999.775 999.773 999.771 999.769
          999.767 999.764 999.762 999.759 999.757 999.754 999.775 999.773 999.771 999.769 999.767 999.765
          999.762 999.76 999.757 999.754 999.775 999.773 999.771 999.769 999.78 999.772 999.764 999.76
          999.757 999.754 999.775 999.773 999.771 999.769 999.788 999.786 999.783 999.766 999.758 999.754
          999.775 999.773 999.771 999.771 999.788 999.786 999.784 999.781 999.773 999.754 999.775 999.773
          999.771 999.769 999.788 999.786 999.783 999.767 999.758 999.754 999.775 999.773 999.771 999.769
          999.782 999.773 999.764 999.76 999.757 999.754 999.775 999.773 999.771 999.769 999.767 999.765
          999.762 999.759 999.757 999.754 999.775 999.773 999.771 999.769 999.766 999.764 999.762 999.759
          999.757 999.754 999.775 999.773 999.771 999.768 999.766 999.764 999.761 999.759 999.756 999.754
          999.775 999.772 999.769 999.767 999.765 999.762 999.76 999.758 999.756 999.753 999.775 999.772
          999.769 999.767 999.765 999.763 999.76 999.758 999.756 999.754 999.775 999.772 999.769 999.767
          999.778 999.77 999.762 999.759 999.756 999.754 999.775 999.772 999.77 999.767 999.785 999.783
          999.781 999.763 999.756 999.754 999.775 999.772 999.77 999.769 999.786 999.784 999.781 999.779
          999.767 999.754 999.775 999.772 999.77 999.767 999.785 999.783 999.781 999.764 999.756 999.754
          999.775 999.772 999.769 999.767 999.78 999.771 999.762 999.758 999.756 999.754 999.775 999.772
          999.769 999.767 999.765 999.762 999.76 999.758 999.756 999.753 999.775 999.772 999.769 999.766
          999.764 999.762 999.76 999.758 999.755 999.753 999.775 999.772 999.769 999.766 999.764 999.762
          999.759 999.757 999.755 999.753 999.774 999.771 999.767 999.765 999.762 999.76 999.758 999.756
          999.754 999.753 999.774 999.771 999.767 999.765 999.762 999.76 999.758 999.756 999.754 999.753
          999.774 999.771 999.768 999.765 999.776 999.768 999.76 999.757 999.755 999.753 999.774 999.771