<?xml version="1.0"?>
<VTKFile type="UnstructuredGrid" version="0.1" byte_order="LittleEndian">
  <UnstructuredGrid>
    <Piece NumberOfCells="1000" NumberOfPoints="1331">
      <CellData Scalars="wetting pressure">
        <DataArray type="Float32" Name="wetting pressure" NumberOfComponents="1" format="ascii">
          265572 270829 272447 271535 268579 263734 256939 247939 236222 220721 265578 270848
          272485 271601 268682 263882 257116 248108 236344 220765 265587 270877 272544 271704
          268848 264143 257449 248438 236584 220851 265593 270899 272591 271791 268974 264425
          257869 248892 236914 220964 265592 270897 272594 271809 268996 264408 258121 249378
          237200 221046 265580 270863 272534 271719 268898 264353 257794 248828 236870 220948
          265561 270803 272426 271552 268675 263961 257274 248292 236486 220816 265540 270735
          272303 271360 268398 263578 256824 247863 236181 220708 265521 270678 272200 271202
          268177 263296 256510 247576 235979 220635 265511 270645 272142 271114 268058 263149
          256352 247433 235879 220600 262023 264641 265130 263707 260556 255731 249159 240678
          230077 217189 262030 264664 265178 263792 260693 255927 249394 240897 230234 217245
          262041 264701 265254 263931 260927 256302 249874 241350 230566 217362 262049 264730
          265318 264053 261082 256735 250608 242054 231121 217543 262049 264731 265334 264118
          261332 256873 250786 242772 231986 217735 262036 264692 265259 263979 261004 256653
          250534 241997 231079 217527 262015 264623 265131 263773 260751 256116 249693 241201
          230466 217326 261990 264545 264986 263538 260394 255607 249084 240638 230061 217184
          261970 264480 264866 263350 260124 255258 248696 240286 229814 217096 261958 264443
          264800 263248 259983 255083 248508 240118 229698 217054 260275 260557 259679 257523
          254072 249278 243056 235319 226064 215466 260284 260588 259744 257644 254274 249563
          243389 235617 226274 215540 260298 260638 259852 257854 254668 250161 244142 236273
          226749 215704 260310 260680 259950 258060 255030 250897 245544 237399 227665 215993
          260311 260687 259983 258186 255517 251292 245654 238282 229502 216425 260296 260639
          259886 257983 254954 250798 245407 237376 227627 215978 260270 260554 259719 257685
          254488 249968 243951 236120 226642 215666 260240 260458 259533 257365 253947 249211
          243049 235333 226083 215473 260215 260378 259384 257121 253584 248742 242531 234876
          225767 215362 260201 260333 259302 256993 253403 248517 242291 234664 225622 215311
          259163 257601 255439 252514 248728 243969 238136 231181 223185 214382 259175 257642
          255526 252678 249006 244349 238563 231552 223438 214470 259194 257707 255670 252971
          249585 245181 239541 232382 224010 214664 259209 257764 255806 253269 250182 246206
          241190 233852 225093 214996 259211 257776 255854 253433 250756 246716 241485 234876
          227150 215444 259194 257720 255737 253186 250110 246142 241148 233820 225051 214979
          259162 257614 255524 252787 249396 244985 239351 232215 223893 214622 259126 257495
          255288 252363 248639 243956 238184 231233 223224 214395 259095 257397 255102 252053
          248166 243351 237532 230672 222845 214263 259078 257343 255001 251892 247937 243069
          237235 230416 222673 214203 258305 255204 251874 248205 244080 239355 233911 227712
          220859 213550 258320 255255 251982 248407 244423 239814 234412 228135 221136 213644
          258343 255336 252162 248772 245143 240823 235553 229064 221737 213843 258362 255407
          252330 249140 245897 242052 237444 230668 222769 214153 258365 255424 252388 249324
          246486 242567 237735 231808 224443 214485 258345 255358 252253 249049 245818 241974
          237364 230625 222720 214133 258307 255232 251997 248566 244934 240606 235339 228875
          221605 213796 258264 255089 251713 248050 244006 239368 233981 227773 220894 213559
          258227 254971 251487 247673 243432 238643 233217 227131 220473 213415 258207 254906
          251365 247479 243155 238306 232868 226835 220278 213347 257521 252986 248541 244147
          239692 235000 229940 224477 218713 212792 257538 253047 248669 244385 240087 235521
          230495 224935 219003 212889 257566 253144 248880 244807 240903 236644 231730 225909
          219599 213083 257589 253227 249076 245225 241740 237974 233718 227514 220502 213353
          257593 253247 249141 245422 242334 238488 234016 228711 221566 213583 257570 253172
          248991 245125 241652 237886 233629 227461 220446 213332 257526 253027 248697 244577
          240670 236402 231489 225696 219450 213030 257475 252859 248364 243981 239616 235017
          230008 224525 218730 212793 257432 252720 248098 243538 238948 234186 229148 223817
          218277 212640 257408 252643 247954 243309 238623 233794 228749 223484 218060 212565
          256672 250619 245029 239916 235144 230496 225816 221087 216436 211976 256693 250691
          245180 240194 235600 231088 226436 221588 216747 212079 256726 250804 245426 240677
          236510 232321 227759 222615 217359 212277 256753 250902 245650 241144 237409 233716
          229799 224197 218211 212531 256758 250926 245724 241355 238016 234241 230111 225385
          219076 212719 256732 250842 245557 241035 237313 233622 229700 224132 218147 212506
          256682 250675 245224 240427 236259 232055 227490 222376 217193 212218 256622 250481
          244839 239742 235074 230522 225887 221127 216440 211972 256572 250317 244526 239222
          234295 229565 224914 220338 215943 211804 256543 250226 244355 238949 233910 229105
          224452 219957 215699 211721 255577 247717 240889 235065 230016 225432 221123 217119
          213657 210924 255602 247803 241072 235405 230578 226157 221868 217711 214019 211044
          255640 247937 241365 235982 231652 227591 223379 218876 214707 211265 255672 248053
          241628 236521 232655 229091 225489 220518 215599 211534 255679 248082 241716 236760
          233305 229652 225847 221704 216378 211713 255650 247988 241530 236408 232557 228994
          225384 220444 215531 211508 255592 247798 241149 235722 231417 227314 223090 218617
          214526 211200 255524 247572 240697 234911 230008 225534 221260 217200 213678 210924
          255465 247380 240325 234282 229053 224371 220094 216268 213100 210731 255432 247273
          240121 233950 228579 223806 219534 215814 212813 210634 253848 243697 235564 229099
          223861 219371 215379 212019 209789 209248 253877 243800 235790 229540 224639 220386
          216402 212797 210246 209395 253922 243959 236147 230270 226052 222283 218433 214329
          211126 209672 253960 244096 236463 230932 227297 224000 220630 216286 212249 210009
          253968 244133 236572 231224 228067 224665 221124 217472 213139 210226 253936 244027
          236361 230816 227180 223903 220529 216211 212181 209983 253871 243811 235922 230024
          225974 222024 218140 214070 210939 209605 253793 243551 235387 229017 224059 219732
          215756 212248 209879 209266 253726 243329 234944 228231 222785 218175 214220 211064
          209167 209033 253688 243204 234701 227822 222175 217441 213502 210500 208820 208917
          250313 237555 228348 221465 216183 211798 207983 205010 203775 205754 250345 237672
          228616 222040 217416 213464 209552 206073 204354 205935 250395 237852 229036 222970
          219484 216474 213236 208459 205551 206289 250437 238007 229406 223794 221268 218474
          215165 211577 207336 206761 250447 238050 229536 224162 222347 219394 215991 212472
          209144 207118 250413 237936 229299 223672 221165 218374 215076 211517 207283 206737
          250343 237698 228798 222687 219225 216187 212960 208265 205375 206222 250258 237412
          228194 221491 216832 212844 208937 205520 203975 205800 250185 237168 227690 220535
          215018 210502 206730 203983 203109 205525 250144 237031 227417 220053 214247 209550
          205818 203299 202703 205392
        </DataArray>
        <DataArray type="Float32" Name="nonwetting pressure" NumberOfComponents="1" format="ascii">
          265572 270829 272447 271535 268579 263734 256939 247939 236222 220721 265578 270848
          272485 271601 268682 263882 257116 248108 236344 220765 265587 270877 272544 271704
          268848 264143 257449 248438 236584 220851 265593 270899 272591 271791 268987 264425
          257869 248892 236914 220964 265592 270897 272594 271809 269398 264549 258177 249378
          237200 221046 265580 270863 272534 271719 268913 264353 257794 248828 236870 220948
          265561 270803 272426 271552 268675 263961 257274 248292 236486 220816 265540 270735
          272303 271360 268398 263578 256824 247863 236181 220708 265521 270678 272200 271202
          268177 263296 256510 247576 235979 220635 265511 270645 272142 271114 268058 263149
          256352 247433 235879 220600 262023 264641 265130 263707 260556 255731 249159 240678
          230077 217189 262030 264664 265178 263792 260693 255927 249394 240897 230234 217245
          262041 264701 265254 263931 260927 256302 249874 241350 230566 217362 262049 264730
          265318 264053 261150 256773 250608 242054 231121 217543 262049 264731 265334 264118
          262014 257213 250968 242861 231986 217735 262036 264692 265259 263979 261077 256695
          250534 241997 231079 217527 262015 264623 265131 263773 260751 256116 249693 241201
          230466 217326 261990 264545 264986 263538 260394 255607 249084 240638 230061 217184
          261970 264480 264866 263350 260124 255258 248696 240286 229814 217096 261958 264443
          264800 263248 259983 255083 248508 240118 229698 217054 260275 260557 259679 257523
          254072 249278 243056 235319 226064 215466 260284 260588 259744 257644 254274 249563
          243389 235617 226274 215540 260298 260638 259852 257854 254668 250161 244142 236273
          226749 215704 260310 260680 259950 258060 255171 250999 245576 237399 227665 215993
          260311 260687 259983 258186 256317 251742 245926 238443 229561 216425 260296 260639
          259886 257983 255103 250909 245448 237376 227627 215978 260270 260554 259719 257685
          254488 249968 243951 236120 226642 215666 260240 260458 259533 257365 253947 249211
          243049 235333 226083 215473 260215 260378 259384 257121 253584 248742 242531 234876
          225767 215362 260201 260333 259302 256993 253403 248517 242291 234664 225622 215311
          259163 257601 255439 252514 248728 243969 238136 231181 223185 214382 259175 257642
          255526 252678 249006 244349 238563 231552 223438 214470 259194 257707 255670 252971
          249585 245181 239541 232382 224010 214664 259209 257764 255806 253269 250365 246353
          241254 233852 225093 214996 259211 257776 255854 253433 251584 247198 241788 235053
          227207 215444 259194 257720 255737 253186 250300 246296 241218 233820 225051 214979
          259162 257614 255524 252787 249396 244985 239351 232215 223893 214622 259126 257495
          255288 252363 248639 243956 238184 231233 223224 214395 259095 257397 255102 252053
          248166 243351 237532 230672 222845 214263 259078 257343 255001 251892 247937 243069
          237235 230416 222673 214203 258305 255204 251874 248205 244080 239355 233911 227712
          220859 213550 258320 255255 251982 248407 244423 239814 234412 228135 221136 213644
          258343 255336 252162 248772 245143 240823 235553 229064 221737 213843 258362 255407
          252330 249140 246091 242213 237517 230668 222769 214153 258365 255424 252388 249324
          247315 243053 238040 231974 224463 214485 258345 255358 252253 249049 246018 242143
          237444 230625 222720 214133 258307 255232 251997 248566 244934 240606 235339 228875
          221605 213796 258264 255089 251713 248050 244006 239368 233981 227773 220894 213559
          258227 254971 251487 247673 243432 238643 233217 227131 220473 213415 258207 254906
          251365 247479 243155 238306 232868 226835 220278 213347 257521 252986 248541 244147
          239692 235000 229940 224477 218713 212792 257538 253047 248669 244385 240087 235521
          230495 224935 219003 212889 257566 253144 248880 244807 240903 236644 231730 225909
          219599 213083 257589 253227 249076 245225 241930 238137 233789 227514 220502 213353
          257593 253247 249141 245422 243156 238973 234315 228861 221566 213583 257570 253172
          248991 245125 241850 238057 233707 227461 220446 213332 257526 253027 248697 244577
          240670 236402 231489 225696 219450 213030 257475 252859 248364 243981 239616 235017
          230008 224525 218730 212793 257432 252720 248098 243538 238948 234186 229148 223817
          218277 212640 257408 252643 247954 243309 238623 233794 228749 223484 218060 212565
          256672 250619 245029 239916 235144 230496 225816 221087 216436 211976 256693 250691
          245180 240194 235600 231088 226436 221588 216747 212079 256726 250804 245426 240677
          236510 232321 227759 222615 217359 212277 256753 250902 245650 241144 237594 233879
          229864 224197 218211 212531 256758 250926 245724 241355 238832 234723 230402 225520
          219076 212719 256732 250842 245557 241035 237506 233792 229773 224132 218147 212506
          256682 250675 245224 240427 236259 232055 227490 222376 217193 212218 256622 250481
          244839 239742 235074 230522 225887 221127 216440 211972 256572 250317 244526 239222
          234295 229565 224914 220338 215943 211804 256543 250226 244355 238949 233910 229105
          224452 219957 215699 211721 255577 247717 240889 235065 230016 225432 221123 217119
          213657 210924 255602 247803 241072 235405 230578 226157 221868 217711 214019 211044
          255640 247937 241365 235982 231652 227591 223379 218876 214707 211265 255672 248053
          241628 236521 232840 229255 225550 220518 215599 211534 255679 248082 241716 236760
          234124 230135 226130 221825 216378 211713 255650 247988 241530 236408 232749 229165
          225453 220444 215531 211508 255592 247798 241149 235722 231417 227314 223090 218617
          214526 211200 255524 247572 240697 234911 230008 225534 221260 217200 213678 210924
          255465 247380 240325 234282 229053 224371 220094 216268 213100 210731 255432 247273
          240121 233950 228579 223806 219534 215814 212813 210634 253848 243697 235564 229099
          223861 219371 215379 212019 209789 209248 253877 243800 235790 229540 224639 220386
          216402 212797 210246 209395 253922 243959 236147 230270 226052 222283 218433 214329
          211126 209672 253960 244096 236463 230932 227502 224177 220698 216286 212249 210009
          253968 244133 236572 231224 228927 225166 221414 217587 213139 210226 253936 244027
          236361 230816 227397 224088 220605 216211 212181 209983 253871 243811 235922 230024
          225982 222024 218140 214070 210939 209605 253793 243551 235387 229017 224059 219732
          215756 212248 209879 209266 253726 243329 234944 228231 222785 218175 214220 211064
          209167 209033 253688 243204 234701 227822 222175 217441 213502 210500 208820 208917
          250313 237555 228348 221465 216183 211798 207983 205010 203775 205754 250345 237672
          228616 222040 217416 213464 209552 206073 204354 205935 250395 237852 229036 222970
          219683 216679 213314 208459 205551 206289 250437 238007 229406 223794 221884 219016
          215519 211707 207336 206761 250447 238050 229536 224162 223742 220355 216648 212833
          209202 207118 250413 237936 229299 223672 221794 218927 215441 211652 207283 206737
          250343 237698 228798 222687 219437 216410 213059 208265 205375 206222 250258 237412
          228194 221491 216832 212844 208937 205520 203975 205800 250185 237168 227690 220535
          215018 210502 206730 203983 203109 205525 250144 237031 227417 220053 214247 209550
          205818 203299 202703 205392
        </DataArray>
        <DataArray type="Float32" Name="capillary pressure" NumberOfComponents="1" format="ascii">
          0 0 0 0 0 0 0 0 0 0 0 0
          0 0 0 0 0 0 0 0 0 0 0 0
          0 0 0 0 0 0 0 0 0 0 12.6945 0
          0 0 0 0 0 0 0 0 401.621 140.753 55.8863 0
          0 0 0 0 0 0 15.023 0 0 0 0 0
          0 0 0 0 0 0 0 0 0 0 0 0
          0 0 0 0 0 0 0 0 0 0 0 0
          0 0 0 0 0 0 0 0 0 0 0 0
          0 0 0 0 0 0 0 0 0 0 0 0
          0 0 0 0 0 0 0 0 0 0 0 0
          0 0 0 0 0 0 0 0 0 0 0 0
          0 0 67.691 37.7905 0 0 0 0 0 0 0 0
          682.252 339.656 182.311 88.819 0 0 0 0 0 0 73.4752 41.87
          0 0 0 0 0 0 0 0 0 0 0 0
          0 0 0 0 0 0 0 0 0 0 0 0
          0 0 0 0 0 0 0 0 0 0 0 0
          0 0 0 0 0 0 0 0 0 0 0 0
          0 0 0 0 0 0 0 0 0 0 0 0
          0 0 0 0 0 0 0 0 0 0 0 0
          0 0 0 0 0 0 140.918 102.493 31.5132 0 0 0
          0 0 0 0 799.37 450.219 272.707 160.76 58.7615 0 0 0
          0 0 148.191 111.08 41.5108 0 0 0 0 0 0 0
          0 0 0 0 0 0 0 0 0 0 0 0
          0 0 0 0 0 0 0 0 0 0 0 0
          0 0 0 0 0 0 0 0 0 0 0 0
          0 0 0 0 0 0 0 0 0 0 0 0
          0 0 0 0 0 0 0 0 0 0 0 0
          0 0 0 0 0 0 0 0 0 0 182.854 146.996
          63.5535 0 0 0 0 0 0 0 828.742 482.35 303.184 176.937
          56.8412 0 0 0 0 0 189.954 153.906 70.1196 0 0 0
          0 0 0 0 0 0 0 0 0 0 0 0
          0 0 0 0 0 0 0 0 0 0 0 0
          0 0 0 0 0 0 0 0 0 0 0 0
          0 0 0 0 0 0 0 0 0 0 0 0
          0 0 0 0 0 0 0 0 0 0 0 0
          0 0 0 0 0 0 0 0 0 0 0 0
          0 0 193.305 161.918 72.8673 0 0 0 0 0 0 0
          829.133 486.484 304.706 166.365 20.1363 0 0 0 0 0 200.487 168.641
          79.8155 0 0 0 0 0 0 0 0 0 0 0
          0 0 0 0 0 0 0 0 0 0 0 0
          0 0 0 0 0 0 0 0 0 0 0 0
          0 0 0 0 0 0 0 0 0 0 0 0
          0 0 0 0 0 0 0 0 0 0 0 0
          0 0 0 0 0 0 0 0 0 0 0 0
          0 0 0 0 0 0 190.327 163.786 70.4781 0 0 0
          0 0 0 0 822.168 484.361 298.634 149.774 0 0 0 0
          0 0 197.866 170.872 77.944 0 0 0 0 0 0 0
          0 0 0 0 0 0 0 0 0 0 0 0
          0 0 0 0 0 0 0 0 0 0 0 0
          0 0 0 0 0 0 0 0 0 0 0 0
          0 0 0 0 0 0 0 0 0 0 0 0
          0 0 0 0 0 0 0 0 0 0 0 0
          0 0 0 0 0 0 0 0 0 0 185.031 162.621
          64.8377 0 0 0 0 0 0 0 816.425 482.082 290.419 135.669
          0 0 0 0 0 0 192.975 170.01 72.7333 0 0 0
          0 0 0 0 0 0 0 0 0 0 0 0
          0 0 0 0 0 0 0 0 0 0 0 0
          0 0 0 0 0 0 0 0 0 0 0 0
          0 0 0 0 0 0 0 0 0 0 0 0
          0 0 0 0 0 0 0 0 0 0 0 0
          0 0 0 0 0 0 0 0 0 0 0 0
          0 0 184.415 163.286 60.7771 0 0 0 0 0 0 0
          819.268 482.184 283.754 121.306 0 0 0 0 0 0 192.721 170.874
          69.0226 0 0 0 0 0 0 0 0 0 0 0
          0 0 0 0 0 0 0 0 0 0 0 0
          0 0 0 0 0 0 0 0 0 0 0 0
          0 0 0 0 0 0 0 0 0 0 0 0
          0 0 0 0 0 0 0 0 0 0 0 0
          0 0 0 0 0 0 0 0 0 0 0 0
          0 0 0 0 0 0 205.083 176.824 68.3414 0 0 0
          0 0 0 0 859.522 501.456 290.861 114.68 0 0 0 0
          0 0 216.292 184.419 76.665 0 0 0 0 0 0 0
          7.7753 0 0 0 0 0 0 0 0 0 0 0
          0 0 0 0 0 0 0 0 0 0 0 0
          0 0 0 0 0 0 0 0 0 0 0 0
          0 0 0 0 0 0 0 0 0 0 0 0
          0 0 0 0 0 0 0 0 0 0 0 0
          199.275 205.212 77.7369 0 0 0 0 0 0 0 616.154 542.059
          353.686 129.871 0 0 0 0 0 0 1395.35 961.76 657.525 360.956
          57.5543 0 0 0 0 0 628.956 552.824 364.876 135.629 0 0
          0 0 0 0 212.244 223.619 98.4361 0 0 0 0 0
          0 0 0 0 0 0 0 0 0 0 0 0
          0 0 0 0 0 0 0 0 0 0 0 0
          0 0 0 0
        </DataArray>
        <DataArray type="Float32" Name="wetting saturation" NumberOfComponents="1" format="ascii">
          1 1 1 1 1 1 1 1 1 1 1 1
          1 1 1 1 1 1 1 1 1 1 1 1
          1 1 1 1 1 1 1 1 1 1 0.998731 1
          1 1 1 1 1 1 1 1 0.959838 0.985925 0.994412 1
          1 1 1 1 1 1 0.998498 1 1 1 1 1
          1 1 1 1 1 1 1 1 1 1 1 1
          1 1 1 1 1 1 1 1 1 1 1 1
          1 1 1 1 1 1 1 1 1 1 1 1
          1 1 1 1 1 1 1 1 1 1 1 1
          1 1 1 1 1 1 1 1 1 1 1 1
          1 1 1 1 1 1 1 1 1 1 1 1
          1 1 0.993231 0.996221 1 1 1 1 1 1 1 1
          0.931775 0.966034 0.981769 0.991118 1 1 1 1 1 1 0.992653 0.995813
          1 1 1 1 1 1 1 1 1 1 1 1
          1 1 1 1 1 1 1 1 1 1 1 1
          1 1 1 1 1 1 1 1 1 1 1 1
          1 1 1 1 1 1 1 1 1 1 1 1
          1 1 1 1 1 1 1 1 1 1 1 1
          1 1 1 1 1 1 1 1 1 1 1 1
          1 1 1 1 1 1 0.985908 0.989751 0.996847 1 1 1
          1 1 1 1 0.920062 0.954977 0.972729 0.983923 0.994121 1 1 1
          1 1 0.985181 0.988892 0.995848 1 1 1 1 1 1 1
          1 1 1 1 1 1 1 1 1 1 1 1
          1 1 1 1 1 1 1 1 1 1 1 1
          1 1 1 1 1 1 1 1 1 1 1 1
          1 1 1 1 1 1 1 1 1 1 1 1
          1 1 1 1 1 1 1 1 1 1 1 1
          1 1 1 1 1 1 1 1 1 1 0.981715 0.9853
          0.993644 1 1 1 1 1 1 1 0.917125 0.951764 0.969681 0.982305
          0.994312 1 1 1 1 1 0.981005 0.984609 0.992987 1 1 1
          1 1 1 1 1 1 1 1 1 1 1 1
          1 1 1 1 1 1 1 1 1 1 1 1
          1 1 1 1 1 1 1 1 1 1 1 1
          1 1 1 1 1 1 1 1 1 1 1 1
          1 1 1 1 1 1 1 1 1 1 1 1
          1 1 1 1 1 1 1 1 1 1 1 1
          1 1 0.980669 0.983808 0.992712 1 1 1 1 1 1 1
          0.917086 0.951351 0.969529 0.983363 0.997985 1 1 1 1 1 0.979951 0.983136
          0.992017 1 1 1 1 1 1 1 1 1 1 1
          1 1 1 1 1 1 1 1 1 1 1 1
          1 1 1 1 1 1 1 1 1 1 1 1
          1 1 1 1 1 1 1 1 1 1 1 1
          1 1 1 1 1 1 1 1 1 1 1 1
          1 1 1 1 1 1 1 1 1 1 1 1
          1 1 1 1 1 1 0.980967 0.983621 0.992951 1 1 1
          1 1 1 1 0.917782 0.951563 0.970136 0.985022 1 1 1 1
          1 1 0.980213 0.982912 0.992204 1 1 1 1 1 1 1
          1 1 1 1 1 1 1 1 1 1 1 1
          1 1 1 1 1 1 1 1 1 1 1 1
          1 1 1 1 1 1 1 1 1 1 1 1
          1 1 1 1 1 1 1 1 1 1 1 1
          1 1 1 1 1 1 1 1 1 1 1 1
          1 1 1 1 1 1 1 1 1 1 0.981497 0.983738
          0.993515 1 1 1 1 1 1 1 0.918357 0.951791 0.970957 0.986432
          1 1 1 1 1 1 0.980702 0.982999 0.992725 1 1 1
          1 1 1 1 1 1 1 1 1 1 1 1
          1 1 1 1 1 1 1 1 1 1 1 1
          1 1 1 1 1 1 1 1 1 1 1 1
          1 1 1 1 1 1 1 1 1 1 1 1
          1 1 1 1 1 1 1 1 1 1 1 1
          1 1 1 1 1 1 1 1 1 1 1 1
          1 1 0.981558 0.983671 0.993921 1 1 1 1 1 1 1
          0.918072 0.951781 0.971624 0.987868 1 1 1 1 1 1 0.980728 0.982912
          0.993096 1 1 1 1 1 1 1 1 1 1 1
          1 1 1 1 1 1 1 1 1 1 1 1
          1 1 1 1 1 1 1 1 1 1 1 1
          1 1 1 1 1 1 1 1 1 1 1 1
          1 1 1 1 1 1 1 1 1 1 1 1
          1 1 1 1 1 1 1 1 1 1 1 1
          1 1 1 1 1 1 0.979492 0.982317 0.993165 1 1 1
          1 1 1 1 0.914047 0.949853 0.970913 0.988531 1 1 1 1
          1 1 0.97837 0.981558 0.992332 1 1 1 1 1 1 1
          0.999222 1 1 1 1 1 1 1 1 1 1 1
          1 1 1 1 1 1 1 1 1 1 1 1
          1 1 1 1 1 1 1 1 1 1 1 1
          1 1 1 1 1 1 1 1 1 1 1 1
          1 1 1 1 1 1 1 1 1 1 1 1
          0.980072 0.979477 0.992223 1 1 1 1 1 1 1 0.938383 0.945792
          0.964629 0.98701 1 1 1 1 1 1 0.860463 0.903821 0.934245 0.963901
          0.994241 1 1 1 1 1 0.937102 0.944715 0.96351 0.986434 1 1
          1 1 1 1 0.978775 0.977636 0.990153 1 1 1 1 1
          1 1 1 1 1 1 1 1 1 1 1 1
          1 1 1 1 1 1 1 1 1 1 1 1
          1 1 1 1
        </DataArray>
        <DataArray type="Float32" Name="wetting density" NumberOfComponents="1" format="ascii">
          999.779 999.782 999.782 999.782 999.781 999.778 999.775 999.771 999.765 999.758 999.779 999.782
          999.782 999.782 999.781 999.778 999.775 999.771 999.765 999.758 999.779 999.782 999.782 999.782
          999.781 999.778 999.775 999.771 999.765 999.758 999.779 999.782 999.782 999.782 999.803 999.787
          999.776 999.771 999.765 999.758 999.779 999.782 999.782 999.785 999.803 999.801 999.797 999.791
          999.766 999.758 999.779 999.782 999.782 999.782 999.803 999.788 999.776 999.771 999.765 999.758
          999.779 999.782 999.782 999.782 999.781 999.778 999.775 999.771 999.765 999.758 999.779 999.782
          999.782 999.782 999.78 999.778 999.775 999.771 999.765 999.758 999.779 999.782 999.782 999.782
          999.78 999.778 999.775 999.771 999.765 999.758 999.779 999.781 999.782 999.782 999.78 999.778
          999.775 999.77 999.765 999.758 999.777 999.779 999.779 999.778 999.777 999.774 999.771 999.767
          999.762 999.756 999.777 999.779 999.779 999.778 999.777 999.774 999.771 999.767 999.762 999.756
          999.777 999.779 999.779 999.778 999.78 999.775 999.772 999.768 999.762 999.756 999.777 999.779
          999.779 999.778 999.799 999.796 999.782 999.769 999.763 999.756 999.777 999.779 999.779 999.783
          999.799 999.796 999.793 999.789 999.78 999.756 999.777 999.779 999.779 999.778 999.799 999.796
          999.784 999.769 999.763 999.756 999.777 999.779 999.779 999.778 999.78 999.775 999.772 999.767
          999.762 999.756 999.777 999.779 999.779 999.778 999.777 999.774 999.771 999.767 999.762 999.756
          999.777 999.779 999.779 999.778 999.776 999.774 999.771 999.767 999.762 999.756 999.777 999.779
          999.779 999.778 999.776 999.774 999.771 999.767 999.762 999.756 999.777 999.777 999.776 999.775
          999.774 999.771 999.768 999.765 999.76 999.755 999.777 999.777 999.776 999.775 999.774 999.771
          999.768 999.765 999.76 999.755 999.777 999.777 999.776 999.775 999.781 999.775 999.769 999.765
          999.761 999.755 999.777 999.777 999.776 999.776 999.795 999.793 999.79 999.77 999.761 999.755
          999.777 999.777 999.776 999.78 999.796 999.793 999.79 999.786 999.781 999.756 999.777 999.777
          999.776 999.776 999.795 999.793 999.79 999.77 999.761 999.755 999.777 999.777 999.776 999.775
          999.782 999.775 999.769 999.765 999.76 999.755 999.777 999.777 999.776 999.775 999.774 999.771
          999.768 999.765 999.76 999.755 999.777 999.777 999.776 999.775 999.773 999.771 999.768 999.764
          999.76 999.755 999.777 999.777 999.776 999.775 999.773 999.771 999.768 999.764 999.76 999.755
          999.776 999.775 999.774 999.773 999.771 999.769 999.766 999.763 999.759 999.755 999.776 999.775
          999.774 999.773 999.771 999.769 999.766 999.763 999.759 999.755 999.776 999.775 999.774 999.773
          999.782 999.774 999.767 999.763 999.759 999.755 999.776 999.775 999.774 999.773 999.793 999.79
          999.788 999.771 999.76 999.755 999.776 999.775 999.774 999.776 999.793 999.791 999.788 999.784
          999.78 999.755 999.776 999.775 999.774 999.773 999.793 999.79 999.788 999.771 999.76 999.755
          999.776 999.775 999.774 999.773 999.784 999.775 999.768 999.763 999.759 999.755 999.776 999.775
          999.774 999.773 999.771 999.769 999.766 999.763 999.759 999.755 999.776 999.775 999.774 999.773
          999.771 999.768 999.766 999.762 999.759 999.755 999.776 999.775 999.774 999.773 999.771 999.768
          999.766 999.762 999.759 999.755 999.776 999.774 999.773 999.771 999.769 999.767 999.764 999.761
          999.758 999.754 999.776 999.774 999.773 999.771 999.769 999.767 999.764 999.761 999.758 999.754
          999.776 999.774 999.773 999.771 999.782 999.773 999.766 999.762 999.758 999.754 999.776 999.774
          999.773 999.771 999.79 999.788 999.786 999.769 999.759 999.755 999.776 999.774 999.773 999.774
          999.791 999.788 999.786 999.782 999.778 999.755 999.776 999.774 999.773 999.771 999.79 999.788
          999.785 999.77 999.759 999.755 999.776 999.774 999.773 999.771 999.783 999.774 999.766 999.762
          999.758 999.754 999.776 999.774 999.772 999.771 999.769 999.767 999.764 999.761 999.758 999.754
          999.776 999.774 999.772 999.771 999.768 999.766 999.764 999.761 999.758 999.754 999.776 999.774
          999.772 999.77 999.768 999.766 999.763 999.761 999.757 999.754 999.775 999.773 999.771 999.769
          999.767 999.764 999.762 999.759 999.757 999.754 999.775 999.773 999.771 999.769 999.767 999.765
          999.762 999.76 999.757 999.754 999.775 999.773 999.771 999.769 999.78 999.772 999.764 999.76
          999.757 999.754 999.775 999.773 999.771 999.769 999.788 999.786 999.783 999.766 999.758 999.754
          999.775 999.773 999.771 999.771 999.788 999.786 999.784 999.781 999.773 999.754 999.775 999.773
          999.771 999.769 999.788 999.786 999.783 999.767 999.758 999.754 999.775 999.773 999.771 999.769
          999.782 999.773 999.764 999.76 999.757 999.754 999.775 999.773 999.771 999.769 999.767 999.765
          999.762 999.759 999.757 999.754 999.775 999.773 999.771 999.769 999.766 999.764 999.762 999.759
          999.757 999.754 999.775 999.773 999.771 999.768 999.766 999.764 999.761 999.759 999.756 999.754
          999.775 999.772 999.769 999.767 999.765 999.762 999.76 999.758 999.756 999.753 999.775 999.772
          999.769 999.767 999.765 999.763 999.76 999.758 999.756 999.754 999.775 999.772 999.769 999.767
          999.778 999.77 999.762 999.759 999.756 999.754 999.775 999.772 999.77 999.767 999.785 999.783
          999.781 999.763 999.756 999.754 999.775 999.772 999.77 999.769 999.786 999.784 999.781 999.779
          999.767 999.754 999.775 999.772 999.77 999.767 999.785 999.783 999.781 999.764 999.756 999.754
          999.775 999.772 999.769 999.767 999.78 999.771 999.762 999.758 999.756 999.754 999.775 999.772
          999.769 999.767 999.765 999.762 999.76 999.758 999.756 999.753 999.775 999.772 999.769 999.766
          999.764 999.762 999.76 999.758 999.755 999.753 999.775 999.772 999.769 999.766 999.764 999.762
          999.759 999.757 999.755 999.753 999.774 999.771 999.767 999.765 999.762 999.76 999.758 999.756
          999.754 999.753 999.774 999.771 999.767 999.765 999.762 999.76 999.758 999.756 999.754 999.753
          999.774 999.771 999.768 999.765 999.776 999.768 999.76 999.757 999.755 999.753 999.774 999.771