<?xml version="1.0"?>
<VTKFile type="UnstructuredGrid" version="0.1" byte_order="LittleEndian">
  <UnstructuredGrid>
    <Piece NumberOfCells="1000" NumberOfPoints="1331">
      <CellData Scalars="pressure nw_phase">
        <DataArray type="Float32" Name="pressure nw_phase" NumberOfComponents="1" format="ascii">
          265502 270623 272117 271102 268072 263196 256425 247513 235940 220622 265507 270640
          272150 271159 268161 263318 256568 247648 236037 220657 265514 270665 272202 271252
          268314 263537 256839 247911 236227 220725 265520 270684 272244 271339 268482 263783
          257186 248273 236484 220815 265519 270682 272246 271347 268856 263923 257502 248656
          236700 220880 265509 270653 272196 271277 268418 263719 257121 248218 236446 220802
          265493 270602 272102 271123 268166 263383 256691 247788 236145 220696 265475 270545
          271997 270956 267922 263064 256324 247444 235901 220610 265459 270497 271910 270822
          267736 262831 256070 247213 235739 220551 265451 270469 271861 270749 267637 262711
          255941 247097 235659 220523 261949 264424 264783 263249 260018 255159 248614 240227
          229779 217084 261955 264444 264823 263320 260132 255318 248801 240401 229904 217129
          261964 264474 264886 263438 260333 255622 249181 240761 230166 217223 261971 264499
          264942 263550 260572 256030 249746 241317 230593 217370 261970 264499 264951 263586
          261311 256393 250095 242021 231226 217536 261960 264467 264891 263486 260508 255965
          249683 241267 230557 217357 261942 264409 264782 263303 260182 255463 249028 240635
          230081 217193 261921 264344 264661 263105 259880 255049 248542 240185 229759 217078
          261904 264290 264562 262950 259658 254765 248230 239902 229561 217007 261895 264259
          264507 262866 259542 254623 248078 239766 229467 216974 260195 260322 259300 257022
          253480 248649 242459 234828 225741 215353 260202 260348 259354 257119 253641 248874
          242724 235067 225910 215414 260214 260388 259440 257287 253950 249341 243316 235590
          226289 215550 260223 260422 259520 257457 254384 250030 244426 236477 226996 215806
          260223 260426 259542 257541 255391 250689 244824 237314 228282 216297 260211 260387
          259466 257390 254324 249959 244337 236450 226962 215793 260190 260317 259327 257143
          253792 249174 243153 235458 226198 215518 260165 260238 259175 256882 253363 248577
          242437 234828 225750 215358 260145 260172 259053 256685 253072 248202 242021 234458
          225493 215266 260133 260136 258987 256581 252927 248021 241827 234287 225375 215224
          259075 257344 255022 251960 248072 243273 237479 230645 222835 214260 259085 257377
          255092 252089 248290 243575 237825 230950 223045 214334 259100 257429 255207 252320
          248734 244224 238613 231630 223520 214502 259112 257474 255315 252559 249386 245195
          240028 232837 224414 214809 259114 257483 255350 252679 250490 245983 240565 233865
          225994 215347 259099 257436 255256 252488 249328 245143 239993 232803 224377 214794
          259073 257349 255081 252160 248565 244050 238445 231485 223419 214465 259043 257252
          254890 251821 247977 243240 237502 230678 222863 214271 259018 257172 254739 251572
          247600 242755 236972 230217 222549 214160 259004 257128 254657 251442 247416 242527
          236730 230006 222406 214109 258209 254922 251416 247593 243357 238591 233195 227133
          220483 213419 258221 254963 251502 247755 243629 238961 233608 227487 220719 213501
          258239 255028 251647 248045 244191 239768 234551 228270 221239 213678 258255 255085
          251782 248345 245001 240960 236216 229634 222169 213976 258257 255097 251825 248484
          246116 241749 236757 230764 223782 214400 258240 255042 251715 248265 244936 240896
          236154 229590 222126 213959 258209 254938 251504 247864 244001 239572 234360 228104
          221124 213637 258173 254820 251271 247448 243270 238577 233238 227176 220511 213428
          258143 254724 251088 247143 242809 237989 232607 226638 220154 213304 258126 254670
          250988 246985 242584 237713 232319 226391 219990 213247 257416 252677 248039 243477
          238901 234169 229165 223853 218310 212652 257430 252727 248143 243670 239220 234597
          229631 224242 218560 212737 257453 252805 248315 244011 239870 235513 230670 225078
          219078 212908 257471 252873 248475 244359 240765 236820 232448 226474 219881 213154
          257474 252888 248525 244509 241879 237601 232996 227717 220859 213378 257455 252825
          248399 244268 240690 236745 232372 226419 219829 213134 257418 252703 248153 243806
          239654 235290 230451 224887 218947 212861 257375 252564 247879 243318 238808 234156
          229206 223886 218323 212653 257340 252449 247660 242957 238265 233471 228486 223285
          217934 212521 257320 252386 247542 242768 237999 233147 228152 223003 217749 212457
          256558 250282 244482 239184 234281 229591 224977 220413 216002 211826 256575 250342
          244606 239413 234655 230085 225503 220845 216272 211916 256602 250435 244809 239810
          235392 231106 226631 221732 216805 212089 256624 250516 244994 240203 236347 232488
          228466 223112 217551 212313 256628 250533 245052 240366 237468 233271 229017 224314
          218308 212480 256606 250461 244910 240102 236263 232401 228373 223047 217492 212291
          256563 250321 244627 239579 235149 230854 226383 221516 216657 212036 256513 250158
          244306 239013 234185 229582 225019 220440 216003 211822 256472 250022 244047 238585
          233546 228785 224195 219763 215574 211676 256448 249947 243906 238360 233229 228401
          223803 219437 215364 211604 255454 247354 240296 234269 229073 224444 220211 216391
          213190 210763 255475 247425 240448 234551 229539 225056 220851 216906 213506 210868
          255507 247537 240693 235031 230421 226260 222153 217920 214108 211062 255533 247633
          240913 235490 231473 227749 224062 219352 214886 211297 255538 247655 240981 235676
          232634 228562 224645 220528 215558 211452 255513 247574 240821 235379 231382 227655
          223962 219279 214823 211273 255464 247411 240492 234777 230154 225984 221881 217684
          213945 211004 255406 247221 240114 234104 229013 224493 220309 216452 213205 210762
          255357 247061 239805 233585 228230 223516 219311 215646 212702 210594 255329 246972
          239636 233311 227837 223041 218832 215254 212453 210509 253717 243310 234929 228238
          222831 218291 214390 211235 209289 209075 253742 243396 235118 228608 223479 219156
          215280 211920 209693 209206 253779 243530 235419 229223 224658 220776 217042 213270
          210469 209450 253811 243644 235686 229787 225939 222482 219064 214982 211453 209746
          253817 243673 235772 230020 227239 223411 219779 216165 212208 209934 253789 243581
          235588 229671 225849 222395 218986 214907 211388 209722 253733 243395 235205 228953
          224381 220492 216764 213029 210298 209389 253667 243174 234755 228122 222913 218551
          214696 211428 209365 209091 253611 242989 234386 227475 221880 217238 213369 210394
          208741 208886 253579 242885 234185 227137 221376 216618 212750 209902 208437 208784
          250177 237153 227684 220556 215074 210635 206931 204186 203252 205574 250204 237251
          227909 221036 216083 212053 208323 205135 203769 205735 250246 237403 228267 221833
          218074 214943 211625 207289 204838 206051 250282 237533 228578 222533 220057 217128
          213767 210188 206425 206470 250289 237567 228684 222834 221806 218416 214866 211288
          208004 206788 250259 237468 228478 222415 219970 217044 213693 210133 206372 206447
          250199 237263 228045 221558 217828 214697 211397 207092 204674 205989 250127 237020
          227530 220534 215530 211476 207756 204634 203428 205615 250066 236815 227108 219739
          214048 209492 205823 203276 202662 205371 250031 236700 226881 219339 213410 208685
          205031 202676 202305 205254
        </DataArray>
        <DataArray type="Float32" Name="water saturation" NumberOfComponents="1" format="ascii">
          1 1 1 1 1 1 1 1 1 1 1 1
          1 1 1 1 1 1 1 1 1 1 1 1
          1 1 1 1 1 1 1 1 1 1 0.998949 1
          1 1 1 1 1 1 1 1 0.960173 0.985927 0.994425 1
          1 1 1 1 1 1 0.998753 1 1 1 1 1
          1 1 1 1 1 1 1 1 1 1 1 1
          1 1 1 1 1 1 1 1 1 1 1 1
          1 1 1 1 1 1 1 1 1 1 1 1
          1 1 1 1 1 1 1 1 1 1 1 1
          1 1 1 1 1 1 1 1 1 1 1 1
          1 1 1 1 1 1 1 1 1 1 1 1
          1 1 0.994483 0.99697 1 1 1 1 1 1 1 1
          0.931514 0.965055 0.981102 0.990713 1 1 1 1 1 1 0.99397 0.996596
          1 1 1 1 1 1 1 1 1 1 1 1
          1 1 1 1 1 1 1 1 1 1 1 1
          1 1 1 1 1 1 1 1 1 1 1 1
          1 1 1 1 1 1 1 1 1 1 1 1
          1 1 1 1 1 1 1 1 1 1 1 1
          1 1 1 1 1 1 1 1 1 1 1 1
          1 1 1 1 1 1 0.987815 0.991031 0.997962 1 1 1
          1 1 1 1 0.918072 0.951735 0.970494 0.981937 0.992046 1 1 1
          1 1 0.98715 0.990263 0.996771 1 1 1 1 1 1 1
          1 1 1 1 1 1 1 1 1 1 1 1
          1 1 1 1 1 1 1 1 1 1 1 1
          1 1 1 1 1 1 1 1 1 1 1 1
          1 1 1 1 1 1 1 1 1 1 1 1
          1 1 1 1 1 1 1 1 1 1 1 1
          1 1 1 1 1 1 1 1 1 1 0.983195 0.985635
          0.993734 1 1 1 1 1 1 1 0.914284 0.947247 0.966238 0.979541
          0.991946 1 1 1 1 1 0.982538 0.984971 0.993159 1 1 1
          1 1 1 1 1 1 1 1 1 1 1 1
          1 1 1 1 1 1 1 1 1 1 1 1
          1 1 1 1 1 1 1 1 1 1 1 1
          1 1 1 1 1 1 1 1 1 1 1 1
          1 1 1 1 1 1 1 1 1 1 1 1
          1 1 1 1 1 1 1 1 1 1 1 1
          1 1 0.981772 0.983571 0.992467 1 1 1 1 1 1 1
          0.914201 0.946577 0.965869 0.980606 0.995447 1 1 1 1 1 0.981102 0.982905
          0.99176 1 1 1 1 1 1 1 1 1 1 1
          1 1 1 1 1 1 1 1 1 1 1 1
          1 1 1 1 1 1 1 1 1 1 1 1
          1 1 1 1 1 1 1 1 1 1 1 1
          1 1 1 1 1 1 1 1 1 1 1 1
          1 1 1 1 1 1 1 1 1 1 1 1
          1 1 1 1 1 1 0.981992 0.983249 0.992703 1 1 1
          1 1 1 1 0.915124 0.946877 0.966605 0.982878 1 1 1 1
          1 1 0.981286 0.982553 0.991923 1 1 1 1 1 1 1
          1 1 1 1 1 1 1 1 1 1 1 1
          1 1 1 1 1 1 1 1 1 1 1 1
          1 1 1 1 1 1 1 1 1 1 1 1
          1 1 1 1 1 1 1 1 1 1 1 1
          1 1 1 1 1 1 1 1 1 1 1 1
          1 1 1 1 1 1 1 1 1 1 0.982583 0.983431
          0.993498 1 1 1 1 1 1 1 0.915964 0.947246 0.967615 0.984546
          1 1 1 1 1 1 0.981834 0.982659 0.992537 1 1 1
          1 1 1 1 1 1 1 1 1 1 1 1
          1 1 1 1 1 1 1 1 1 1 1 1
          1 1 1 1 1 1 1 1 1 1 1 1
          1 1 1 1 1 1 1 1 1 1 1 1
          1 1 1 1 1 1 1 1 1 1 1 1
          1 1 1 1 1 1 1 1 1 1 1 1
          1 1 0.982757 0.983475 0.994189 1 1 1 1 1 1 1
          0.915894 0.947323 0.968449 0.986278 1 1 1 1 1 1 0.981966 0.982609
          0.993041 1 1 1 1 1 1 1 1 1 1 1
          1 1 1 1 1 1 1 1 1 1 1 1
          1 1 1 1 1 1 1 1 1 1 1 1
          1 1 1 1 1 1 1 1 1 1 1 1
          1 1 1 1 1 1 1 1 1 1 1 1
          1 1 1 1 1 1 1 1 1 1 1 1
          1 1 1 1 1 1 0.980743 0.981841 0.993154 1 1 1
          1 1 1 1 0.91152 0.94488 0.967606 0.98719 1 1 1 1
          1 1 0.979917 0.981035 0.992308 1 1 1 1 1 1 1
          1 1 1 1 1 1 1 1 1 1 1 1
          1 1 1 1 1 1 1 1 1 1 1 1
          1 1 1 1 1 1 1 1 1 1 1 1
          1 1 1 1 1 1 1 1 1 1 1 1
          1 1 1 1 1 1 1 1 1 1 1 1
          0.981547 0.978949 0.992179 1 1 1 1 1 1 1 0.936264 0.939246
          0.960226 0.985454 1 1 1 1 1 1 0.850547 0.889884 0.923668 0.958838
          0.994772 1 1 1 1 1 0.934947 0.938006 0.95897 0.984813 1 1
          1 1 1 1 0.980186 0.977101 0.99022 1 1 1 1 1
          1 1 1 1 1 1 1 1 1 1 1 1
          1 1 1 1 1 1 1 1 1 1 1 1
          1 1 1 1
        </DataArray>
        <DataArray type="Float32" Name="capillary pressure" NumberOfComponents="1" format="ascii">
          0 0 0 0 0 0 0 0 0 0 0 0
          0 0 0 0 0 0 0 0 0 0 0 0
          0 0 0 0 0 0 0 0 0 0 10.5117 0
          0 0 0 0 0 0 0 0 398.273 140.728 55.7485 0
          0 0 0 0 0 0 12.4661 0 0 0 0 0
          0 0 0 0 0 0 0 0 0 0 0 0
          0 0 0 0 0 0 0 0 0 0 0 0
          0 0 0 0 0 0 0 0 0 0 0 0
          0 0 0 0 0 0 0 0 0 0 0 0
          0 0 0 0 0 0 0 0 0 0 0 0
          0 0 0 0 0 0 0 0 0 0 0 0
          0 0 55.175 30.2993 0 0 0 0 0 0 0 0
          684.861 349.448 188.985 92.8708 0 0 0 0 0 0 60.3052 34.0427
          0 0 0 0 0 0 0 0 0 0 0 0
          0 0 0 0 0 0 0 0 0 0 0 0
          0 0 0 0 0 0 0 0 0 0 0 0
          0 0 0 0 0 0 0 0 0 0 0 0
          0 0 0 0 0 0 0 0 0 0 0 0
          0 0 0 0 0 0 0 0 0 0 0 0
          0 0 0 0 0 0 121.855 89.6874 20.3816 0 0 0
          0 0 0 0 819.275 482.648 295.062 180.629 79.5359 0 0 0
          0 0 128.501 97.3718 32.2929 0 0 0 0 0 0 0
          0 0 0 0 0 0 0 0 0 0 0 0
          0 0 0 0 0 0 0 0 0 0 0 0
          0 0 0 0 0 0 0 0 0 0 0 0
          0 0 0 0 0 0 0 0 0 0 0 0
          0 0 0 0 0 0 0 0 0 0 0 0
          0 0 0 0 0 0 0 0 0 0 168.048 143.647
          62.6612 0 0 0 0 0 0 0 857.16 527.532 337.624 204.586
          80.5415 0 0 0 0 0 174.619 150.295 68.41 0 0 0
          0 0 0 0 0 0 0 0 0 0 0 0
          0 0 0 0 0 0 0 0 0 0 0 0
          0 0 0 0 0 0 0 0 0 0 0 0
          0 0 0 0 0 0 0 0 0 0 0 0
          0 0 0 0 0 0 0 0 0 0 0 0
          0 0 0 0 0 0 0 0 0 0 0 0
          0 0 182.278 164.294 75.3327 0 0 0 0 0 0 0
          857.992 534.232 341.305 193.943 45.5271 0 0 0 0 0 188.979 170.948
          82.4006 0 0 0 0 0 0 0 0 0 0 0
          0 0 0 0 0 0 0 0 0 0 0 0
          0 0 0 0 0 0 0 0 0 0 0 0
          0 0 0 0 0 0 0 0 0 0 0 0
          0 0 0 0 0 0 0 0 0 0 0 0
          0 0 0 0 0 0 0 0 0 0 0 0
          0 0 0 0 0 0 180.079 167.511 72.9659 0 0 0
          0 0 0 0 848.758 531.228 333.95 171.223 0 0 0 0
          0 0 187.139 174.467 80.7721 0 0 0 0 0 0 0
          0 0 0 0 0 0 0 0 0 0 0 0
          0 0 0 0 0 0 0 0 0 0 0 0
          0 0 0 0 0 0 0 0 0 0 0 0
          0 0 0 0 0 0 0 0 0 0 0 0
          0 0 0 0 0 0 0 0 0 0 0 0
          0 0 0 0 0 0 0 0 0 0 174.167 165.692
          65.0228 0 0 0 0 0 0 0 840.356 527.541 323.852 154.544
          0 0 0 0 0 0 181.663 173.406 74.629 0 0 0
          0 0 0 0 0 0 0 0 0 0 0 0
          0 0 0 0 0 0 0 0 0 0 0 0
          0 0 0 0 0 0 0 0 0 0 0 0
          0 0 0 0 0 0 0 0 0 0 0 0
          0 0 0 0 0 0 0 0 0 0 0 0
          0 0 0 0 0 0 0 0 0 0 0 0
          0 0 172.432 165.251 58.1138 0 0 0 0 0 0 0
          841.064 526.772 315.512 137.221 0 0 0 0 0 0 180.337 173.914
          69.5896 0 0 0 0 0 0 0 0 0 0 0
          0 0 0 0 0 0 0 0 0 0 0 0
          0 0 0 0 0 0 0 0 0 0 0 0
          0 0 0 0 0 0 0 0 0 0 0 0
          0 0 0 0 0 0 0 0 0 0 0 0
          0 0 0 0 0 0 0 0 0 0 0 0
          0 0 0 0 0 0 192.571 181.59 68.4631 0 0 0
          0 0 0 0 884.798 551.196 323.943 128.101 0 0 0 0
          0 0 200.833 189.651 76.9222 0 0 0 0 0 0 0
          0 0 0 0 0 0 0 0 0 0 0 0
          0 0 0 0 0 0 0 0 0 0 0 0
          0 0 0 0 0 0 0 0 0 0 0 0
          0 0 0 0 0 0 0 0 0 0 0 0
          0 0 0 0 0 0 0 0 0 0 0 0
          184.529 210.515 78.2105 0 0 0 0 0 0 0 637.358 607.538
          397.741 145.458 0 0 0 0 0 0 1494.53 1101.16 763.322 411.618
          52.2787 0 0 0 0 0 650.529 619.942 410.3 151.866 0 0
          0 0 0 0 198.144 228.989 97.8 0 0 0 0 0
          0 0 0 0 0 0 0 0 0 0 0 0
          0 0 0 0 0 0 0 0 0 0 0 0
          0 0 0 0
        </DataArray>
        <DataArray type="Float32" Name="totalConcentration w_Comp" NumberOfComponents="1" format="ascii">
          200 200 200 200 200 200 200 200 200 200 200 200
          200 200 200 200 200 200 200 200 200 200 200 200
          199.998 200 200 200 200 200 200 200 200 199.979 199.434 199.72
          199.967 200 200 200 200 200 200 199.972 191.918 196.973 198.103 199.224
          200 200 200 200 200 199.976 199.382 199.671 199.96 200 200 200
          200 200 200 200 199.994 200 200 200 200 200 200 200
          200 200 200 200 200 200 200 200 200 200 200 200
          200 200 200 200 200 200 200 200 200 200 200 200
          200 200 200 200 200 200 200 200 200 200 200 200
          200 200 200 200 200 200 200 200 200 200 200 200
          200 200 200 200 199.913 199.989 200 200 200 200 200 200
          200 199.964 198.58 198.912 199.585 199.929 200 200 200 200 200 199.897
          186.658 192.933 195.919 196.997 198.929 200 200 200 200 199.964 198.481 198.806
          199.522 199.925 200 200 200 200 200 200 199.885 199.982 200 200
          200 200 200 200 200 200 200 200 200 200 200 200
          200 200 200 200 200 200 200 200 200 200 200 200
          200 200 200 200 200 200 200 200 200 200 200 200
          200 200 200 200 200 200 200 200 200 200 200 200
          200 200 200 200 200 200 200 200 199.73 199.895 199.999 200
          200 200 200 200 200 199.961 197.247 197.557 198.813 199.791 199.981 200
          200 200 200 199.911 183.992 190.429 193.707 195.571 197.547 199.848 200 200
          200 199.961 197.1 197.439 198.668 199.773 199.981 200 200 200 200 200
          199.696 199.869 199.997 200 200 200 200 200 200 200 200 200
          200 200 200 200 200 200 200 200 200 200 200 200
          200 200 200 200 200 200 200 200 200 200 200 200
          200 200 200 200 200 200 200 200 200 200 200 200
          200 200 200 200 200 200 200 200 200 200 200 200
          199.627 199.767 199.973 200 200 200 200 200 200 199.959 196.267 196.646
          198.146 199.6 199.982 200 200 200 200 199.966 183.18 189.534 192.982 194.943
          197.511 199.891 200 200 200 199.959 196.115 196.51 197.977 199.545 199.982 200
          200 200 200 200 199.594 199.722 199.961 200 200 200 200 200
          200 200 200 200 200 200 200 200 200 200 200 200
          200 200 200 200 200 200 200 200 200 200 200 200
          200 200 200 200 200 200 200 200 200 200 200 200
          200 200 200 200 200 200 200 200 200 200 200 200
          200 200 200 200 199.581 199.691 199.96 200 200 200 200 200
          200 199.955 195.944 196.202 197.851 199.589 199.998 200 200 200 200 199.959
          183.124 189.378 192.896 194.953 198.045 199.989 200 200 200 199.955 195.785 196.064
          197.661 199.534 199.998 200 200 200 200 200 199.547 199.64 199.944 200
          200 200 200 200 200 200 200 200 200 200 200 200
          200 200 200 200 200 200 200 200 200 200 200 200
          200 200 200 200 200 200 200 200 200 200 200 200
          200 200 200 200 200 200 200 200 200 200 200 200
          200 200 200 200 200 200 200 200 199.569 199.666 199.964 200
          200 200 200 200 200 199.951 195.974 196.117 197.926 199.668 200 200
          200 200 200 199.951 183.31 189.426 193.007 195.221 198.944 200 200 200
          200 199.951 195.804 195.966 197.726 199.617 200 200 200 200 200 200
          199.53 199.61 199.948 200 200 200 200 200 200 200 200 200
          200 200 200 200 200 200 200 200 200 200 200 200
          200 200 200 200 200 200 200 200 200 200 200 200
          200 200 200 200 200 200 200 200 200 200 200 200
          200 200 200 200 200 200 200 200 200 200 200 200
          199.563 199.654 199.972 200 200 200 200 200 200 199.946 196.087 196.131
          198.1 199.757 200 200 200 200 200 199.959 183.525 189.506 193.177 195.771
          199.254 200 200 200 200 199.946 195.906 195.97 197.899 199.718 200 200
          200 200 200 200 199.522 199.592 199.958 200 200 200 200 200
          200 200 200 200 200 200 200 200 200 200 200 200
          200 200 200 200 200 200 200 200 200 200 200 200
          200 200 200 200 200 200 200 200 200 200 200 200
          200 200 200 200 200 200 200 200 200 200 200 200
          200 200 200 200 199.541 199.62 199.976 200 200 200 200 200
          200 199.943 196.109 196.104 198.218 199.824 200 200 200 200 200 199.968
          183.587 189.545 193.322 196.333 199.548 200 200 200 200 199.939 195.917 195.944
          198.029 199.795 200 200 200 200 200 200 199.498 199.557 199.963 200
          200 200 200 200 200 200 200 200 200 200 200 200
          200 200 200 200 200 200 200 200 200 200 200 200
          200 200 200 200 200 200 200 200 200 200 200 200
          200 200 200 200 200 200 200 200 200 200 200 200
          200 200 200 200 200 200 200 200 199.464 199.51 199.957 200
          200 200 200 200 200 199.94 195.651 195.776 198.046 199.814 200 200
          200 200 200 199.978 182.773 189.094 193.186 196.637 199.688 200 200 200
          200 199.94 195.447 195.592 197.838 199.779 200 200 200 200 200 200
          199.42 199.449 199.936 200 200 200 200 200 200 200 200 200
          200 200 200 200 200 200 200 200 200 200 200 200
          200 200 200 200 200 200 200 200 200 200 200 200
          200 200 200 200 200 200 200 200 200 200 200 200
          200 200 199.548 199.554 199.973 200 200 200 200 200 200 199.97
          195.711 194.889 197.531 199.842 200 200 200 200 200 199.949 187.065 187.626
          191.341 196.345 199.843 200 200 200 200 199.967 170.487 178.262 184.629 190.848
          197.983 199.999 200 200 200 199.95 186.812 187.406 191.18 196.177 199.825 200
          200 200 200 199.966 195.381 194.514 197.18 199.789 200 200 200 200
          200 200 199.441 199.424 199.943 200 200 200 200 200 200 200
          200 200 200 200 200 200 200 200 200 200 200 200
          200 200 200 200
        </DataArray>
        <DataArray type="Float32" Name="totalConcentration n_Comp" NumberOfComponents="1" format="ascii">
          0 0 0 1.50331e-15 5.12724e-11 4.88965e-12 2.24065e-13 6.1127e-15 2.79677e-17 0 0 0
          1.11618e-16 3.7566e-12 9.02394e-08 9.86251e-09 5.75386e-10 1.78932e-11 3.6304e-13 5.84531e-15 2.13047e-18 2.85055e-15 2.15636e-13 3.42093e-09
          7.11525e-05 7.7799e-06 6.49756e-07 2.5281e-08 5.5808e-10 9.65812e-12 1.04174e-13 3.98471e-12 2.42026e-10 1.60663e-06 0.0132264 0.00343266
          0.000457944 2.29215e-05 5.71788e-07 1.04087e-08 2.51185e-10 7.78198e-09 3.65494e-07 0.000642876 0.0374545 0.0209812 0.0153494 0.011017
          0.000376339 8.54981e-06 1.96639e-13 7.94156e-12 4.89629e-10 2.18943e-06 0.013344 0.00416635 0.000547388 2.62881e-05 6.4823e-07 1.17176e-08
          9.96601e-18 7.00195e-15 5.54107e-13 5.58596e-09 0.000118127 1.13178e-05 9.08681e-07 3.38609e-08 7.29193e-10 1.23903e-11 0 0
          4.12372e-16 8.32859e-12 1.72586e-07 1.77118e-08 1.00757e-09 3.01494e-11 5.92108e-13 9.84116e-15 0 0 0 6.23261e-15
          1.5676e-10 1.4586e-11 6.46891e-13 1.639e-14 8.58121e-17 0 0 0 0 0 5.72705e-14 4.56054e-15
          1.07403e-16 6.49989e-20 0 0 0 0 0 5.49522e-15 5.63261e-10 4.41871e-11 2.06087e-12 5.0539e-14
          4.35974e-16 2.53236e-20 0 0 1.09926e-16 1.21928e-11 1.23329e-06 1.17197e-07 6.19913e-09 2.33955e-10 3.29058e-12 3.07635e-14
          0 6.49203e-16 1.67806e-13 9.68497e-09 0.000888705 0.000164012 7.55375e-06 5.78236e-07 9.81055e-09 8.09302e-11 1.26886e-14 8.20199e-13
          1.55836e-10 3.92966e-06 0.0155352 0.0137754 0.00432162 0.000726933 1.78253e-05 1.72218e-07 2.55428e-11 1.35233e-09 1.67731e-07 0.00121318
          0.0539111 0.0328124 0.0226648 0.0164686 0.0106508 0.000178357 2.14003e-14 1.47767e-12 2.75628e-10 5.01661e-06 0.0158414 0.0139916
          0.00505753 0.000781572 1.89442e-05 1.83489e-07 6.20895e-19 1.34745e-15 3.74864e-13 1.46198e-08 0.00115783 0.000241534 1.03517e-05 7.12704e-07
          1.18061e-08 9.75394e-11 0 0 3.30504e-16 2.44134e-11 2.14266e-06 2.17956e-07 1.02814e-08 3.62027e-10 4.96331e-12 4.56446e-14
          0 0 0 1.98188e-14 1.69912e-09 1.26625e-10 5.43129e-12 1.26248e-13 1.55215e-15 1.44718e-18 0 0
          0 2.79789e-18 4.72501e-13 3.25758e-14 9.70146e-16 1.16259e-17 0 0 0 0 0 1.15203e-14
          2.8677e-09 3.63416e-10 1.23146e-11 2.53489e-13 2.38863e-15 1.26307e-18 0 0 0 2.10084e-11 4.98903e-06 1.09388e-06
          3.91549e-08 1.30241e-09 1.41194e-11 7.78561e-14 0 0 0 1.3543e-08 0.00269203 0.00105992 4.35206e-05 2.63302e-06
          4.54593e-08 2.58514e-10 0 0 0 4.37501e-06 0.0190958 0.0168751 0.012568 0.00197686 0.000198013 5.28661e-07
          0 0 0 0.00107883 0.0606776 0.0398603 0.0281898 0.020986 0.014848 0.00144571 0 0
          0 5.37983e-06 0.0194818 0.0173177 0.0132424 0.00219821 0.000203241 5.51128e-07 0 0 0 1.93095e-08
          0.00323319 0.0013104 7.67498e-05 3.1057e-06 5.22383e-08 2.99394e-10 0 0 0 3.85518e-11 7.61119e-06 1.73804e-06
          6.11026e-08 1.89284e-09 1.99855e-11 1.10366e-13 0 0 0 3.60605e-14 7.27823e-09 9.43205e-10 3.00147e-11 5.80455e-13
          4.91347e-15 1.95708e-18 0 0 0 9.06167e-18 2.33724e-12 1.96258e-13 5.65203e-15 4.87095e-17 0 0
          0 0 0 1.51193e-14 6.6717e-09 1.26125e-09 3.59046e-11 5.67266e-13 3.74796e-15 1.5255e-18 0 0
          0 2.31157e-11 9.64909e-06 3.07714e-06 1.18813e-07 2.62143e-09 2.13097e-11 8.66642e-14 0 0 0 1.25067e-08
          0.00430923 0.00218455 0.000298927 4.72961e-06 5.81735e-08 2.58648e-10 0 0 0 3.34589e-06 0.0213825 0.0196245
          0.0146998 0.00361831 0.000193033 4.51835e-07 0 0 0 0.000728833 0.0616971 0.041673 0.0300878 0.0219572
          0.0147497 0.00105382 0 0 0 4.08009e-06 0.0217547 0.0199973 0.0150127 0.00407168 0.000199496 4.70279e-07
          0 0 0 1.74597e-08 0.00503026 0.00258815 0.000406397 5.99377e-06 6.65675e-08 2.98095e-10 0 0
          0 4.08555e-11 1.39806e-05 4.55752e-06 2.08964e-07 3.73133e-09 2.9684e-11 1.19794e-13 0 0 0 4.4522e-14
          1.56141e-08 2.98487e-09 8.2736e-11 1.24661e-12 8.06822e-15 2.34284e-18 0 0 0 1.14826e-17 5.82325e-12 6.66926e-13
          1.6188e-14 1.19987e-16 0 0 0 0 0 1.49185e-14 1.00878e-08 2.20809e-09 5.59412e-11 6.95207e-13
          3.45955e-15 1.61553e-18 0 0 0 1.98909e-11 1.27494e-05 4.64971e-06 1.89618e-07 2.86852e-09 1.76862e-11 5.85247e-14
          0 0 0 9.49435e-09 0.00500285 0.00280236 0.000412566 5.07645e-06 4.07456e-08 1.50437e-10 0 0
          0 2.25107e-06 0.021808 0.0204323 0.0151544 0.00363551 4.90643e-05 2.2574e-07 0 0 0 0.000456728
          0.0606491 0.0413233 0.0298092 0.0210757 0.0127843 0.000176756 0 0 0 2.75497e-06 0.0221794 0.0207973
          0.0155326 0.00408335 5.21682e-05 2.36691e-07 0 0 0 1.32552e-08 0.00582143 0.00329549 0.000551395 6.40658e-06
          4.71786e-08 1.75063e-10 0 0 0 3.50159e-11 1.83328e-05 6.79423e-06 3.22884e-07 4.09563e-09 2.49137e-11 8.12343e-14
          0 0 0 4.32662e-14 2.32842e-08 5.13386e-09 1.28093e-10 1.53361e-12 7.93543e-15 2.52863e-18 0 0
          0 1.39328e-17 9.93738e-12 1.29018e-12 2.7691e-14 1.66821e-16 0 0 0 0 0 1.16667e-14
          1.2659e-08 2.89182e-09 6.5198e-11 6.30727e-13 2.65859e-15 4.77822e-20 0 0 0 1.38828e-11 1.42959e-05 5.43943e-06
          1.74779e-07 2.28519e-09 1.062e-11 2.99365e-14 0 0 0 6.0003e-09 0.00509436 0.00297332 0.00037261 3.7353e-06
          2.20748e-08 6.19001e-11 0 0 0 1.31264e-06 0.0213048 0.0202536 0.0147862 0.00292307 2.36263e-05 9.4108e-08
          0 0 0 0.000253617 0.0590808 0.0404424 0.0289306 0.0195842 0.00932536 7.22909e-05 0 0
          0 1.61875e-06 0.0216885 0.0206271 0.0151975 0.0033367 2.5822e-05 9.94368e-08 0 0 0 8.45286e-09
          0.00597383 0.00352397 0.000518409 4.88516e-06 2.60819e-08 7.33518e-11 0 0 0 2.47022e-11 2.0808e-05 8.06171e-06
          3.18886e-07 3.34512e-09 1.5373e-11 4.2608e-14 0 0 0 3.4257e-14 2.97509e-08 6.88554e-09 1.54089e-10 1.44247e-12
          5.91114e-15 7.48225e-20 0 0 0 1.26823e-17 1.44469e-11 1.96463e-12 3.76511e-14 1.76189e-16 0 0
          0 0 0 9.97514e-15 1.60524e-08 3.73286e-09 7.52287e-11 5.88555e-13 1.95019e-15 0 0 0
          0 1.06372e-11 1.59005e-05 6.14173e-06 1.50691e-07 1.77108e-09 6.59026e-12 1.45898e-14 0 0 0 4.20731e-09
          0.00509324 0.0030316 0.000291568 2.47126e-06 1.15497e-08 2.54515e-11 0 0 0 8.69324e-07 0.0205878 0.0197811
          0.0141129 0.00210333 1.23122e-05 3.54131e-08 0 0 0 0.000163789 0.0575488 0.039503 0.0278937 0.0184485
          0.00612166 3.17234e-05 0 0 0 1.0812e-06 0.0209871 0.0201877 0.0146139 0.00245682 1.36192e-05 3.77817e-08
          0 0 0 5.98977e-09 0.00602449 0.00362911 0.000431116 3.28121e-06 1.3876e-08 3.049e-11 0 0
          0 1.91399e-11 2.3421e-05 9.25543e-06 2.81012e-07 2.64902e-09 9.71012e-12 2.04339e-14 0 0 0 2.96583e-14
          3.83095e-08 9.11031e-09 1.82657e-10 1.38242e-12 4.49567e-15 8.19495e-20 0 0 0 1.14865e-17 2.14848e-11 3.01817e-12
          5.17743e-14 2.87643e-16 0 0 0 0 0 8.03506e-15 2.51573e-08 6.19924e-09 1.14152e-10 6.98719e-13
          1.66916e-15 0 0 0 0 7.43359e-12 2.04411e-05 8.12373e-06 1.83671e-07 1.59549e-09 4.50452e-12 6.12383e-15
          0 0 0 2.58165e-09 0.00548966 0.00329899 0.000258396 1.80183e-06 5.88545e-09 8.84036e-12 0 0
          0 4.86667e-07 0.0200668 0.0193489 0.01348 0.00153437 5.96597e-06 9.87323e-09 0 0 0 8.62783e-05
          0.056433 0.0386654 0.0269214 0.0172735 0.00369583 1.06669e-05 0 0 0 6.03897e-07 0.0204787 0.0197983
          0.0140711 0.00180598 6.54435e-06 1.06106e-08 0 0 0 3.65363e-09 0.00648503 0.00394941 0.000388634 2.29881e-06
          7.113e-09 1.05436e-11 0 0 0 1.31839e-11 2.97764e-05 1.21318e-05 3.07561e-07 2.38501e-09 6.6017e-12 8.30985e-15
          0 0 0 2.34318e-14 5.84752e-08 1.48223e-08 2.72833e-10 1.62863e-12 3.76058e-15 0 0 0
          0 9.81566e-18 3.91684e-11 6.02113e-12 9.32044e-14 3.63216e-16 0 0 0 0 0 1.20463e-14
          7.95485e-08 2.58094e-08 4.69712e-10 2.13338e-12 2.49013e-15 0 0 0 0 9.10596e-12 5.03756e-05 2.45218e-05
          6.94012e-07 4.0646e-09 6.62764e-12 9.37902e-16 0 0 0 2.61001e-09 0.00734324 0.00452009 0.000503518 3.82709e-06
          7.29883e-09 2.57182e-12 0 0 0 4.23087e-07 0.0206318 0.0197395 0.0137043 0.00170326 6.02446e-06 3.25089e-09
          0 0 0 6.57749e-05 0.0574476 0.0390634 0.0267685 0.0164849 0.00253724 3.30859e-06 0 0
          0 5.13816e-07 0.0210511 0.0201441 0.0141249 0.00196685 7.00705e-06 3.44557e-09 0 0 0 3.56525e-09
          0.00846399 0.00527343 0.000676833 5.01744e-06 8.60268e-09 2.69172e-12 0 0 0 1.52332e-11 6.9226e-05 3.41308e-05
          1.09987e-06 5.70813e-09 8.98149e-12 7.19295e-16 0 0 0 3.16735e-14 1.68225e-07 5.45402e-08 9.92498e-10 4.46293e-12