<?xml version="1.0"?>
<VTKFile type="UnstructuredGrid" version="0.1" byte_order="LittleEndian">
  <UnstructuredGrid>
    <Piece NumberOfCells="163" NumberOfPoints="194">
      <CellData Scalars="wetting pressure">
        <DataArray type="Float32" Name="wetting pressure" NumberOfComponents="1" format="ascii">
          265462 270504 271922 270840 267760 262867 256119 247265 235777 220565 261915 264320
          264615 263029 259766 254916 248417 240093 229693 217053 260169 260246 259189 256896
          253361 248612 242540 234998 225848 215386 259060 257307 255000 252005 250427 248358
          245990 248042 246062 243529 241370 243782 240696 237590 235794 238714 231512 223317
          214405 258202 254922 251498 249784 247922 245956 247848 245929 243941 242236 244051
          241812 239524 238048 240228 237046 234414 233185 235692 231723 227956 226991 230527
          221504 213702 257407 252680 248163 245971 243997 241952 243999 242097 240378 238337
          240029 238536 236500 234711 236605 234287 231922 230483 232655 229376 225793 224045
          227752 219522 212978 256529 250229 244524 241931 239773 237380 239602 237816 236110
          233690 235461 234438 232661 230368 232036 230733 228662 225778 228492 225439 222119
          219780 222707 216830 212043 255388 247183 240129 234374 232722 230981 227368 229264
          229325 227255 223116 225405 224890 222290 218594 220880 217040 213369 210787 253607
          242987 234435 227673 222377 217907 213872 210643 208822 208901 250036 236722 226952
          219507 213705 209039 205314 202841 202376 205273
        </DataArray>
        <DataArray type="Float32" Name="nonwetting pressure" NumberOfComponents="1" format="ascii">
          265462 270504 271922 270840 267760 262867 256119 247265 235777 220565 261915 264320
          264615 263029 259766 254916 248417 240093 229693 217053 260169 260246 259189 256896
          253361 248612 242540 234998 225848 215386 259060 257307 255000 252005 250427 248358
          245990 248042 246062 243529 241370 243782 240696 237590 235794 238714 231512 223317
          214405 258202 254922 251498 249784 247922 245956 247848 246345 244520 242989 244624
          242172 239751 238419 240754 237196 234515 233376 235959 231745 227956 226991 230633
          221504 213702 257407 252680 248163 245971 243997 241952 243999 242435 240884 238679
          240226 238979 236854 235008 236948 234561 232125 230648 232895 229483 225793 224045
          227752 219522 212978 256529 250229 244524 241931 239773 237380 239602 237931 236342
          233839 235522 234696 232897 230529 232220 230925 228752 225778 228587 225439 222119
          219780 222707 216830 212043 255388 247183 240129 234374 232722 231049 227368 229264
          229412 227255 223116 225405 224890 222290 218594 220880 217040 213369 210787 253607
          242987 234435 227673 222377 217907 213872 210643 208822 208901 250036 236722 226952
          219507 213705 209039 205314 202841 202376 205273
        </DataArray>
        <DataArray type="Float32" Name="wetting saturation" NumberOfComponents="1" format="ascii">
          1 1 1 1 1 1 1 1 1 1 1 1
          1 1 1 1 1 1 1 1 1 1 1 1
          1 1 1 1 1 1 1 1 1 1 1 1
          1 1 1 1 1 1 1 1 1 1 1 1
          1 1 1 1 1 1 1 1 0.958403 0.94218 0.924758 0.942679
          0.964063 0.977305 0.962871 0.94743 0.985015 0.989905 0.980925 0.97332 0.99773 1 1 0.989424
          1 1 1 1 1 1 1 1 1 0.966258 0.949408 0.96573
          0.980345 0.955664 0.96463 0.970305 0.965664 0.972637 0.979666 0.983491 0.975984 0.989357 1 1
          1 1 1 1 1 1 1 1 1 1 0.988525 0.976799
          0.985079 0.993889 0.974166 0.976355 0.983841 0.98158 0.980871 0.990961 1 0.990513 1 1
          1 1 1 1 1 1 1 1 1 0.993177 1 1
          0.99124 1 1 1 1 1 1 1 1 1 1 1
          1 1 1 1 1 1 1 1 1 1 1 1
          1 1 1 1 1 1 1
        </DataArray>
        <DataArray type="Float32" Name="C^w from cellData" NumberOfComponents="1" format="ascii">
          199.956 199.956 199.957 199.956 199.956 199.956 199.955 199.954 199.953 199.952 199.956 199.956
          199.956 199.956 199.955 199.955 199.954 199.954 199.953 199.951 199.956 199.955 199.955 199.955
          199.955 199.954 199.954 199.953 199.952 199.951 199.955 199.955 199.955 199.954 199.954 199.954
          199.78 199.839 199.952 199.952 199.944 199.963 199.953 199.952 199.948 199.97 199.952 199.952
          199.951 199.955 199.955 199.955 199.954 199.759 199.76 199.954 191.819 188.626 185.175 188.711
          192.782 195.315 192.509 189.564 196.777 197.414 195.902 194.491 198.998 199.921 199.367 197.171
          199.952 199.951 199.955 199.955 199.954 199.954 199.899 199.897 199.954 193.15 189.941 193.064
          195.867 191.115 192.81 193.887 193.015 194.327 195.587 195.899 194.941 197.063 199.621 199.951
          198.989 199.952 199.951 199.955 199.955 199.954 199.953 199.909 199.932 199.954 197.425 195.17
          196.67 198.224 194.626 195.018 195.938 195.944 195.676 197.649 199.852 197.531 199.918 199.948
          199.948 199.948 199.951 199.951 199.955 199.954 199.954 199.953 199.515 198.076 199.749 199.953
          197.538 199.019 199.942 199.75 199.908 199.944 199.944 199.944 199.951 199.951 199.951 199.955
          199.954 199.953 199.952 199.952 199.951 199.951 199.951 199.951 199.951 199.955 199.953 199.952
          199.952 199.951 199.951 199.95 199.95 199.95 199.95
        </DataArray>
        <DataArray type="Float32" Name="C^n from cellData" NumberOfComponents="1" format="ascii">
          0 0 0 7.92093e-11 3.24337e-10 2.11506e-10 7.22924e-11 5.06063e-12 1.64029e-13 4.65438e-15 0 0
          0 1.88533e-08 8.24478e-08 4.3008e-08 1.85189e-08 1.99666e-09 4.60804e-11 8.19964e-13 0 0 0 1.73815e-06
          7.97736e-06 3.37589e-06 1.7112e-06 4.81668e-07 7.25419e-09 8.47836e-11 0 0 0 7.64542e-05 0.000283102 0.000449254
          0.0049682 0.0034181 0.00015551 0.000118114 0.00161755 0.00199534 8.04903e-05 6.32126e-05 0.000872258 0.00114886 8.24128e-05 7.38825e-07
          5.91603e-09 0 0 0 3.86124e-08 0.00288273 0.00422177 4.29922e-07 0.0390057 0.0482056 0.0580305 0.0479313
          0.0350357 0.0270904 0.0351612 0.0444121 0.0224289 0.0194069 0.024334 0.028898 0.014863 0.000738621 0.00734964 0.0193333
          2.25224e-05 1.47795e-07 0 0 0 3.87075e-06 4.1301e-06 3.80509e-06 3.53094e-06 0.0337913 0.043294 0.0335691
          0.0253952 0.039364 0.0339264 0.0304702 0.0333549 0.0291033 0.0248916 0.0225784 0.0270297 0.0192639 0.00401202 0.000138304
          0.0133138 4.04253e-06 1.1637e-08 0 0 0 0 0 0 0 0.0205024 0.0269822
          0.0220611 0.0172593 0.0282639 0.0268239 0.0223712 0.0238393 0.0240806 0.0183549 0.00126675 0.0185827 0.000437198 8.65817e-05
          8.65262e-05 8.70207e-05 1.00488e-07 9.02684e-11 0 0 0 0 0.00508785 0.0173203 0.00222419 0
          0.0182402 0.0131763 0.000121281 0.00223952 0.000507655 0.000102718 0.000102686 0.000102702 5.57498e-08 2.49248e-11 1.48737e-14 0
          0 0 0 0 0 0 0 0 0 0 0 0
          0 0 0 0 0 0 0
        </DataArray>
        <DataArray type="Float32" Name="capillary pressure" NumberOfComponents="1" format="ascii">
          0 0 0 0 0 0 0 0 0 0 0 0
          0 0 0 0 0 0 0 0 0 0 0 0
          0 0 0 0 0 0 0 0 0 0 0 0
          0 0 0 0 0 0 0 0 0 0 0 0
          0 0 0 0 0 0 0 0 415.975 578.198 752.415 573.214
          359.373 226.953 371.287 525.696 149.847 100.949 190.748 266.803 22.6961 0 0 105.758
          0 0 0 0 0 0 0 0 0 337.422 505.916 342.704
          196.554 443.359 353.7 296.95 343.355 273.626 203.344 165.092 240.159 106.432 0 0
          0 0 0 0 0 0 0 0 0 0 114.752 232.013
          149.215 61.1145 258.339 236.444 161.588 184.195 191.294 90.3875 0 94.8702 0 0
          0 0 0 0 0 0 0 0 0 68.229 0 0
          87.5962 0 0 0 0 0 0 0 0 0 0 0
          0 0 0 0 0 0 0 0 0 0 0 0
          0 0 0 0 0 0 0
        </DataArray>
        <DataArray type="Float32" Name="wetting density" NumberOfComponents="1" format="ascii">
          999.78 999.783 999.783 999.783 999.781 999.779 999.776 999.771 999.766 999.759 999.779 999.78
          999.78 999.779 999.777 999.775 999.772 999.768 999.763 999.757 999.778 999.778 999.777 999.776
          999.774 999.772 999.769 999.766 999.761 999.756 999.777 999.776 999.775 999.774 999.774 999.773
          999.78 999.778 999.771 999.77 999.772 999.774 999.768 999.767 999.768 999.77 999.764 999.76
          999.756 999.777 999.775 999.773 999.773 999.777 999.779 999.772 999.798 999.797 999.796 999.797
          999.796 999.794 999.794 999.795 999.793 999.791 999.791 999.792 999.79 999.764 999.776 999.789
          999.759 999.755 999.776 999.774 999.772 999.771 999.77 999.769 999.77 999.796 999.795 999.794
          999.795 999.794 999.793 999.792 999.793 999.791 999.79 999.789 999.79 999.788 999.769 999.761
          999.787 999.758 999.755 999.776 999.773 999.77 999.769 999.768 999.767 999.768 999.793 999.792
          999.791 999.792 999.791 999.79 999.789 999.79 999.789 999.788 999.764 999.788 999.762 999.76
          999.759 999.76 999.757 999.755 999.775 999.771 999.768 999.765 999.774 999.789 999.766 999.763
          999.788 999.787 999.76 999.765 999.762 999.76 999.758 999.759 999.757 999.755 999.754 999.775
          999.769 999.765 999.762 999.76 999.757 999.756 999.754 999.753 999.753 999.773 999.766 999.762
          999.758 999.755 999.753 999.751 999.75 999.75 999.751
        </DataArray>
        <DataArray type="Float32" Name="nonwetting density" NumberOfComponents="1" format="ascii">
          3.2598 3.32182 3.33927 3.32595 3.28807 3.22788 3.14487 3.03596 2.89464 2.70751 3.21616 3.24575
          3.24938 3.22987 3.18974 3.13006 3.05012 2.94773 2.81979 2.66431 3.19468 3.19564 3.18264 3.15443
          3.11094 3.05253 2.97783 2.88506 2.7725 2.6438 3.18105 3.15948 3.1311 3.09427 3.07485 3.0494
          3.02026 3.04552 3.02116 2.99 2.96344 2.99311 2.95514 2.91694 2.89485 2.93077 2.84218 2.74137
          2.63174 3.1705 3.13014 3.08803 3.06694 3.04403 3.01985 3.04312 3.02462 3.00217 2.98333 3.00345
          2.97329 2.94352 2.92713 2.95584 2.91209 2.87911 2.8651 2.89687 2.84504 2.79842 2.78656 2.83135
          2.71906 2.62309 3.16071 3.10257 3.047 3.02003 2.99575 2.9706 2.99578 2.97653 2.95744 2.93033
          2.94936 2.93402 2.90787 2.88517 2.90904 2.87967 2.84971 2.83154 2.85918 2.81721 2.77182 2.75032
          2.79592 2.69468 2.61418 3.14992 3.07242 3.00224 2.97034 2.94379 2.91436 2.94169 2.92113 2.90158
          2.8708 2.89151 2.88133 2.85921 2.83008 2.85088 2.83494 2.80822 2.77164 2.80619 2.76746 2.72662
          2.69785 2.73386 2.66156 2.60269 3.13588 3.03495 2.94817 2.87738 2.85705 2.83647 2.7912 2.81452
          2.81634 2.7898 2.73889 2.76705 2.76072 2.72873 2.68326 2.71139 2.66415 2.619 2.58723 3.11396
          2.98333 2.87813 2.79495 2.72981 2.67481 2.62518 2.58546 2.56306 2.56403 3.07004 2.90626 2.78608
          2.6945 2.62312 2.56572 2.51991 2.48949 2.48376 2.5194
        </DataArray>
        <DataArray type="Float32" Name="mobility w_phase" NumberOfComponents="1" format="ascii">
          765.842 765.844 765.845 765.845 765.843 765.84 765.837 765.832 765.826 765.818 765.84 765.841
          765.841 765.841 765.839 765.836 765.833 765.828 765.823 765.816 765.839 765.839 765.839 765.837
          765.835 765.833 765.83 765.826 765.821 765.815 765.838 765.838 765.836 765.835 765.834 765.833
          765.831 765.833 765.832 765.83 765.829 765.83 765.829 765.827 765.826 765.828 765.824 765.82
          765.815 765.838 765.836 765.834 765.833 765.833 765.831 765.832 733.975 721.55 708.207 721.932
          738.307 748.447 737.393 725.569 754.351 758.094 751.217 745.394 764.086 765.822 765.821 757.724
          765.819 765.814 765.838 765.835 765.833 765.831 765.83 765.829 765.83 739.989 727.084 739.582
          750.776 731.874 738.739 743.084 739.531 744.87 750.251 753.18 747.432 757.672 765.821 765.82
          765.822 765.818 765.814 765.837 765.834 765.831 765.829 765.828 765.827 765.828 757.039 748.058
          754.398 761.146 746.041 747.717 753.448 751.718 751.174 758.9 765.821 758.557 765.821 765.819
          765.818 765.819 765.816 765.814 765.836 765.832 765.828 765.825 765.824 760.598 765.822 765.823
          759.114 765.822 765.819 765.821 765.82 765.819 765.817 765.818 765.816 765.814 765.813 765.836
          765.83 765.825 765.822 765.819 765.817 765.815 765.813 765.812 765.812 765.834 765.827 765.821
          765.818 765.814 765.812 765.81 765.809 765.808 765.81
        </DataArray>
        <DataArray type="Float32" Name="mobility nw_phase" NumberOfComponents="1" format="ascii">
          0 0 0 0 0 0 0 0 0 0 0 0
          0 0 0 0 0 0 0 0 0 0 0 0
          0 0 0 0 0 0 0 0 0 0 0 0
          0 0 0 0 0 0 0 0 0 0 0 0
          0 0 0 0 0 0 0 0 2380.54 3308.98 4306.1 3280.46
          2056.71 1298.9 2124.99 3008.64 857.628 577.781 1091.77 1527.03 129.926 0 0 605.337
          0 0 0 0 0 0 0 0 0 1931.08 2895.43 1961.39
          1124.91 2537.46 2024.37 1699.6 1965.16 1566.11 1163.88 944.951 1374.59 609.208 0 0
          0 0 0 0 0 0 0 0 0 0 656.757 1327.91
          854.044 349.784 1478.61 1353.32 924.896 1054.28 1094.93 517.39 0 543.048 0 0
          0 0 0 0 0 0 0 0 0 390.531 0 0
          501.399 0 0 0 0 0 0 0 0 0 0 0
          0 0 0 0 0 0 0 0 0 0 0 0
          0 0 0 0 0 0 0
        </DataArray>
        <DataArray type="Float32" Name="mass fraction H2O in liquid-phase" NumberOfComponents="1" format="ascii">
          1 1 1 1 1 1 1 1 1 1 1 1
          1 1 1 1 1 1 1 1 1 1 1 1
          1 1 1 1 1 1 1 1 1 1 0.999999 0.999998
          0.999975 0.999983 0.999999 0.999999 0.999992 0.99999 1 1 0.999996 0.999994 1 1
          1 1 1 1 1 0.999986 0.999979 1 0.999928 0.999928 0.999929 0.999928
          0.999929 0.999929 0.99993 0.999929 0.99993 0.999931 0.999931 0.999931 0.999932 0.999996 0.999963 0.999932
          1 1 1 1 1 1 1 1 1 0.999929 0.999929 0.99993
          0.999929 0.99993 0.99993 0.999931 0.99993 0.999931 0.999932 0.999932 0.999932 0.999932 0.99998 0.999999
          0.999933 1 1 1 1 1 1 1 1 1 0.99993 0.99993
          0.999931 0.999931 0.999931 0.999932 0.999932 0.999932 0.999932 0.999933 0.999994 0.999933 0.999998 1
          1 1 1 1 1 1 1 1 0.999974 0.999932 0.999989 1
          0.999932 0.999934 0.999999 0.999989 0.999997 0.999999 0.999999 0.999999 1 1 1 1
          1 1 1 1 1 1 1 1 1 1 1 1
          1 1 1 1 1 1 1
        </DataArray>
        <DataArray type="Float32" Name="mass fraction H2O in gas-phase" NumberOfComponents="1" format="ascii">
          0.00288297 0.00282914 0.00281436 0.00282563 0.00285818 0.00291148 0.00298834 0.00309554 0.00324668 0.00347108 0.00292209 0.00289545
          0.00289221 0.00290968 0.0029463 0.00300247 0.00308117 0.0031882 0.00333285 0.00352736 0.00294173 0.00294086 0.00295287 0.00297928
          0.00302092 0.00307873 0.00315597 0.00325746 0.00338971 0.00355472 0.00295434 0.00297451 0.00300147 0.0030372 0.00305639 0.0030819
          0.00311163 0.00308582 0.0031107 0.00314312 0.0031713 0.00313986 0.0031802 0.00322185 0.00324644 0.00320665 0.00330661 0.00342821
          0.00357102 0.00296418 0.00300239 0.00304334 0.00306427 0.00308733 0.00311205 0.00308825 0.0031124 0.0031378 0.00315993 0.00313639
          0.00316549 0.00319578 0.00321565 0.0031864 0.00322926 0.00326559 0.00328283 0.00324785 0.0033036 0.00335831 0.0033726 0.00332077
          0.00345633 0.0035828 0.00297335 0.00302908 0.00308432 0.00311186 0.00313709 0.00316365 0.00313705 0.00316175 0.00318441 0.00321174
          0.00318905 0.00320905 0.00323673 0.00326145 0.00323529 0.00326736 0.00330075 0.0033214 0.00329033 0.00333746 0.00339054 0.00341705
          0.00336131 0.00348761 0.00359501 0.00298354 0.0030588 0.00313031 0.00316392 0.00319246 0.00322471 0.00319475 0.00321879 0.00324209
          0.00327573 0.00325104 0.00326526 0.00329025 0.00332307 0.00329913 0.00331779 0.00334791 0.00339077 0.0033504 0.00339588 0.00344675
          0.0034835 0.00343762 0.003531 0.00361088 0.0029969 0.00309657 0.00318772 0.00326615 0.00328939 0.00331423 0.003367 0.0033391
          0.00333822 0.00336868 0.0034313 0.00339639 0.00340418 0.00344408 0.00350245 0.00346611 0.00352758 0.0035884 0.00363245 0.00301799
          0.00315016 0.0032653 0.00336248 0.00344273 0.00351351 0.00357995 0.00363494 0.00366671 0.00366533 0.00306117 0.00323369 0.00337319
          0.00348784 0.00358275 0.0036629 0.00372951 0.00377508 0.00378378 0.00373026
        </DataArray>
        <DataArray type="Float32" Name="volume Error" NumberOfComponents="1" format="ascii">
          -2.06043e-08 -6.30168e-08 -1.07765e-07 -1.34875e-07 -1.44058e-07 -1.32446e-07 -9.93583e-08 -4.56964e-08 3.30681e-08 3.7297e-08 -3.16524e-08 -8.05503e-08
          -1.23608e-07 -1.54229e-07 -1.66849e-07 -1.56086e-07 -1.21156e-07 -6.86887e-08 -3.7375e-09 1.23142e-08 -3.2728e-08 -9.04513e-08 -1.41352e-07 -1.84024e-07
          -2.03549e-07 -1.94603e-07 -1.51116e-07 -9.3437e-08 -3.07356e-08 -4.4461e-10 -3.34329e-08 -9.76669e-08 -1.61881e-07 -2.28732e-07 -4.87404e-07 -4.80496e-07
          -0.000171057 -0.000113132 -2.3303e-06 -2.27194e-06 -8.65653e-06 1.03443e-05 -1.02469e-06 -1.06813e-06 -5.09582e-06 1.75149e-05 -9.97759e-07 -5.0181e-08
          -9.69074e-09 -3.28179e-08 -1.00344e-07 -1.76566e-07 -4.7453e-07 -0.000193902 -0.000191828 -2.99158e-08 0.000199412 0.00025602 0.000296497 0.000240859
          2.36815e-05 -9.42712e-05 -1.29871e-05 0.000137294 -0.000173932 -0.000517111 -0.000233351 -0.000122325 -0.000493446 -3.07238e-05 -0.000580904 -0.00066566
          -6.48427e-08 -1.62292e-08 -2.92768e-08 -9.33132e-08 -1.70544e-07 -6.36117e-07 -5.53033e-05 -5.68674e-05 -1.92721e-07 -5.04253e-05 0.000117187 -2.9785e-05
          -0.000150674 3.60848e-05 -6.49446e-05 -0.000123579 -6.68367e-05 -0.000150944 -0.000297419 -0.000756702 -0.000206197 -0.000761879 -0.000329041 -7.86535e-07
          -0.000955115 -6.93698e-08 -2.04984e-08 -2.21075e-08 -7.50255e-08 -1.39324e-07 -4.34793e-07 -4.5046e-05 -2.09748e-05 3.83093e-08 -0.000227929 -0.000138876
          -0.00029499 -0.00050176 -0.000156979 -0.000204074 -0.000788184 -0.000323943 -0.000451927 -0.000492895 -9.9739e-05 -0.000520946 -3.442e-05 -4.19408e-06
          -3.72476e-06 -3.72482e-06 -6.86633e-08 -2.33817e-08 -1.21327e-08 -5.06069e-08 -1.03849e-07 -1.45336e-07 -0.000435082 -0.000507778 -0.000202047 7.94434e-08
          -0.000661198 -0.000925088 -9.49768e-06 -0.0002008 -4.37327e-05 -7.85378e-06 -7.38488e-06 -7.38494e-06 -1.02385e-07 -6.84013e-08 -2.59389e-08 5.05843e-10
          -2.14527e-08 -7.36224e-08 -1.10385e-07 -1.27868e-07 -1.2785e-07 -1.1446e-07 -9.35935e-08 -6.52531e-08 -2.81496e-08 2.42134e-08 1.44817e-08 -4.95027e-08
          -8.86586e-08 -1.08728e-07 -1.12056e-07 -1.02352e-07 -8.31326e-08 -5.30539e-08 -2.00632e-08
        </DataArray>
        <DataArray type="Float32" Name="Error Correction" NumberOfComponents="1" format="ascii">
          0 0 0 0 0 0 0 0 0 0 0 0
          0 0 0 0 0 0 0 0 0 0 0 0
          0 0 0 0 0 0 0 0 0 0 0 0
          0 0 0 0 0 0 0 0 0 0 0 0
          0 0 0 0 0 0 0 0 0 0 0 0
          0 0 0 0 0 0 0 0 0 0 0 0
          0 0 0 0 0 0 0 0 0 0 0 0
          0 0 0 0 0 0 0 0 0 0 0 0
          0 0 0 0 0 0 0 0 0 0 0 0
          0 0 0 0 0 0 0 0 0 0 0 0
          0 0 0 0 0 0 0 0 0 0 0 0
          0 0 0 0 0 0 0 0 0 0 0 0
          0 0 0 0 0 0 0 0 0 0 0 0
          0 0 0 0 0 0 0
        </DataArray>
        <DataArray type="Float32" Name="dv_dp" NumberOfComponents="1" format="ascii">
          -9.55458e-11 -9.55402e-11 -9.55458e-11 -9.55486e-11 -9.55347e-11 -9.55569e-11 -9.55458e-11 -9.5543e-11 -9.55347e-11 -9.5543e-11 -9.55319e-11 -9.5543e-11
          -9.55402e-11 -9.55375e-11 -9.55375e-11 -9.55402e-11 -9.5543e-11 -9.55458e-11 -9.5543e-11 -9.55375e-11 -9.5543e-11 -9.55486e-11 -9.55375e-11 -9.55541e-11
          -9.55375e-11 -9.55375e-11 -9.5543e-11 -9.55458e-11 -9.55541e-11 -9.55513e-11 -9.55319e-11 -9.55402e-11 -9.55486e-11 -9.55486e-11 -9.55513e-11 -9.5543e-11
          -9.54681e-11 -9.54958e-11 -9.55486e-11 -9.55319e-11 -9.5543e-11 -9.55541e-11 -9.55513e-11 -9.55458e-11 -9.55458e-11 -9.55569e-11 -9.5543e-11 -9.55458e-11
          -9.55541e-11 -9.55486e-11 -9.55347e-11 -9.55541e-11 -9.5543e-11 -9.54514e-11 -9.54486e-11 -9.55264e-11 -5.29354e-08 -6.63459e-08 -8.07696e-08 -6.59242e-08
          -4.91753e-08 -3.88138e-08 -5.08388e-08 -6.29582e-08 -3.28557e-08 -2.90967e-08 -3.67622e-08 -4.26823e-08 -2.25612e-08 -9.55375e-11 -9.5271e-11 -2.99535e-08
          -9.55402e-11 -9.55486e-11 -9.55375e-11 -9.55402e-11 -9.55486e-11 -9.55347e-11 -9.55097e-11 -9.55208e-11 -9.55458e-11 -4.73408e-08 -6.13218e-08 -4.8452e-08
          -3.62578e-08 -5.66143e-08 -4.96806e-08 -4.53295e-08 -4.88084e-08 -4.34705e-08 -3.79843e-08 -3.49718e-08 -4.09594e-08 -3.00655e-08 -9.54153e-11 -9.5543e-11
          -9.51406e-11 -9.55513e-11 -9.55597e-11 -9.55402e-11 -9.55375e-11 -9.55402e-11 -9.55402e-11 -9.55291e-11 -9.55486e-11 -9.55513e-11 -2.98626e-08 -3.97382e-08
          -3.31996e-08 -2.56703e-08 -4.21765e-08 -4.06503e-08 -3.47149e-08 -3.63489e-08 -3.71098e-08 -2.86384e-08 -9.55291e-11 -2.90684e-08 -9.55569e-11 -9.55569e-11
          -9.55569e-11 -9.55569e-11 -9.55513e-11 -9.55347e-11 -9.5543e-11 -9.5543e-11 -9.55458e-11 -9.55458e-11 -9.53432e-11 -2.6664e-08 -9.54736e-11 -9.5543e-11
          -2.84276e-08 -9.51461e-11 -9.55569e-11 -9.54653e-11 -9.55569e-11 -9.55569e-11 -9.55569e-11 -9.55569e-11 -9.55597e-11 -9.55458e-11 -9.55652e-11 -9.55402e-11
          -9.55458e-11 -9.55402e-11 -9.55486e-11 -9.5543e-11 -9.55513e-11 -9.55486e-11 -9.55513e-11 -9.55458e-11 -9.55486e-11 -9.55347e-11 -9.55402e-11 -9.55486e-11
          -9.55597e-11 -9.55735e-11 -9.55486e-11 -9.55597e-11 -9.55569e-11 -9.55569e-11 -9.55541e-11
        </DataArray>
        <DataArray type="Float32" Name="dV_dC1" NumberOfComponents="1" format="ascii">
          0.00100022 0.00100022 0.00100022 0.00100022 0.00100022 0.00100022 0.00100022 0.00100023 0.00100023 0.00100024 0.00100022 0.00100022
          0.00100022 0.00100022 0.00100022 0.00100022 0.00100023 0.00100023 0.00100024 0.00100024 0.00100022 0.00100022 0.00100022 0.00100022
          0.00100023 0.00100023 0.00100023 0.00100023 0.00100024 0.00100024 0.00100022 0.00100022 0.00100022 0.00100023 0.00100023 0.00100023
          0.00100023 0.00100023 0.00100023 0.00100023 0.00100023 0.00100023 0.00100023 0.00100023 0.00100023 0.00100023 0.00100024 0.00100024
          0.00100024 0.00100022 0.00100022 0.00100023 0.00100023 0.00100023 0.00100023 0.00100023 0.000976249 0.000976266 0.000976284 0.000976266
          0.000976246 0.000976233 0.000976248 0.000976263 0.000976226 0.000976222 0.000976232 0.000976239 0.000976215 0.00100024 0.00100024 0.000976224
          0.00100024 0.00100024 0.00100022 0.00100023 0.00100023 0.00100023 0.00100023 0.00100023 0.00100023 0.000976243 0.000976261 0.000976245
          0.00097623 0.000976255 0.000976247 0.000976242 0.000976246 0.00097624 0.000976234 0.00097623 0.000976237 0.000976225 0.00100024 0.00100024
          0.00100024 0.00100024 0.00100024 0.00100022 0.00100023 0.00100023 0.00100023 0.00100023 0.00100023 0.00100023 0.000976223 0.000976235
          0.000976228 0.000976218 0.000976238 0.000976237 0.00097623 0.000976232 0.000976233 0.000976223 0.00100024 0.000976223 0.00100024 0.00100024
          0.00100024 0.00100024 0.00100024 0.00100025 0.00100022 0.00100023 0.00100023 0.00100023 0.00100024 0.00097622 0.00100024 0.00100024
          0.000976223 0.00100024 0.00100024 0.00100024 0.00100024 0.00100024 0.00100024 0.00100024 0.00100024 0.00100024 0.00100025 0.00100023
          0.00100023 0.00100023 0.00100024 0.00100024 0.00100024 0.00100024 0.00100025 0.00100025 0.00100025 0.00100023 0.00100023 0.00100024
          0.00100024 0.00100024 0.00100025 0.00100025 0.00100025 0.00100025 0.00100025
        </DataArray>
        <DataArray type="Float32" Name="dV_dC2" NumberOfComponents="1" format="ascii">
          0.000622207 0.000622206 0.000622205 0.000622207 0.000622207 0.00062221 0.00062221 0.000622211 0.000622217 0.000622221 0.000622209 0.000622207
          0.000622207 0.000622209 0.000622209 0.000622212 0.000622215 0.000622215 0.000622217 0.000622222 0.00062221 0.000622209 0.00062221 0.00062221
          0.000622211 0.000622211 0.000622216 0.000622216 0.000622218 0.000622222 0.00062221 0.000622209 0.000622213 0.000622212 0.000622212 0.000622213
          0.000622214 0.000622213 0.000622214 0.000622214 0.000622215 0.000622214 0.000622215 0.000622216 0.000622217 0.000622216 0.000622218 0.00062222
          0.000622225 0.000622211 0.000622211 0.000622212 0.000622212 0.000622213 0.000622214 0.000622214 0.331724 0.334196 0.336298 0.334054
          0.337469 0.34094 0.342852 0.339458 0.344721 0.34885 0.350538 0.346533 0.353425 0.000622219 0.000622219 0.354955
          0.000622221 0.000622224 0.000622211 0.00062221 0.000622214 0.000622214 0.000622216 0.000622215 0.000622216 0.337096 0.339269 0.342453
          0.340241 0.342015 0.345161 0.347948 0.345007 0.348653 0.352494 0.354943 0.351241 0.356761 0.00062222 0.00062222
          0.0473524 0.000622222 0.000622222 0.000622211 0.000622214 0.000622215 0.000622214 0.000622215 0.000622217 0.000622216 0.34359 0.345906
          0.34969 0.347198 0.348405 0.351216 0.355072 0.352244 0.354323 0.357683 0.00062222 0.357935 0.000622221 0.000622221
          0.000622221 0.000622221 0.000622222 0.000622225 0.000622213 0.000622214 0.000622216 0.000622218 0.000622218 0.353954 0.000622219 0.000622216
          0.356606 0.000622219 0.000622221 0.00062222 0.000622221 0.000622221 0.000622221 0.000622221 0.000622222 0.000622222 0.000622225 0.000622212
          0.000622215 0.000622218 0.00062222 0.000622221 0.000622222 0.000622221 0.000622225 0.000622226 0.000622226 0.000622212 0.000622216 0.000622219
          0.000622219 0.000622225 0.000622224 0.000622227 0.000622228 0.000622226 0.000622227
        </DataArray>
        <DataArray type="Float32" Name="updEstimate comp 1" NumberOfComponents="1" format="ascii">
          1.96191e-07 5.65419e-07 8.67442e-07 1.16772e-06 1.41852e-06 1.59637e-06 1.67433e-06 1.62181e-06 1.46218e-06 6.73928e-07 1.49355e-07 5.20991e-07
          8.77534e-07 1.20391e-06 1.47312e-06 1.67827e-06 1.79388e-06 1.74211e-06 1.4253e-06 5.89113e-07 1.8251e-07 5.84287e-07 9.84557e-07 1.33043e-06
          1.58795e-06 1.88716e-06 2.14072e-06 2.1893e-06 1.68525e-06 6.60889e-07 2.32804e-07 7.08527e-07 1.16909e-06 1.26094e-06 4.26079e-07 -1.46302e-07
          0.000162797 0.000402969 1.04153e-06 1.40354e-06 3.42569e-05 5.36551e-05 1.87408e-06 2.29902e-06 -0.000354575 4.31895e-05 -0.000337097 2.27123e-06
          8.51136e-07 2.97167e-07 8.79149e-07 1.41239e-06 1.69466e-06 -0.000209079 -0.000254725 1.89647e-06 0.0159753 0.00741613 -0.0149873 0.0098538
          0.00445898 0.00284899 -0.0175628 -0.0183546 0.00249114 -0.00161958 -0.0171747 -0.0164226 -0.0385423 -0.00173165 -0.032402 -0.0491562
          1.94549e-06 1.14106e-06 3.76499e-07 1.09647e-06 1.74428e-06 2.07606e-06 -0.000485905 -0.00050629 2.38583e-06 0.00852323 -0.0141509 -0.0113201
          0.00721519 -0.0242673 -0.0251288 -0.0254044 -0.0225277 -0.0246707 -0.0247783 -0.0461592 -0.0265096 -0.0990562 -0.0331152 0.168581
          -0.0656533 3.93268e-06 1.50981e-06 4.71055e-07 1.36107e-06 2.17406e-06 2.65833e-06 -0.000521456 -0.000701362 2.97164e-06 0.00774117 -0.00934717
          -0.0105364 -0.00796375 -0.0200449 -0.0247371 -0.0434241 -0.0179707 -0.0167422 -0.195948 -0.0425728 -0.209916 0.0903865 -0.566319
          -0.0215949 0.524278 0.0262807 1.7748e-06 5.75842e-07 1.65176e-06 2.6669e-06 3.79176e-06 -0.0157004 -0.056696 -0.0210985 5.1503e-06
          -0.111661 -0.0823378 -0.0919392 -0.0239204 0.158124 -0.400725 -0.0856641 0.321697 9.91621e-05 5.17468e-06 1.66925e-06 6.84764e-07
          1.93948e-06 3.08007e-06 4.47094e-06 6.32372e-06 8.25817e-06 -0.0111811 7.12758e-06 4.40992e-06 1.44529e-06 8.38604e-07 2.19935e-06 3.29397e-06
          4.62327e-06 6.11108e-06 7.30653e-06 7.46325e-06 6.18586e-06 3.98411e-06 1.34396e-06
        </DataArray>
        <DataArray type="Float32" Name="updEstimate comp 2" NumberOfComponents="1" format="ascii">
          0 0 0 2.56695e-12 1.01682e-11 5.4929e-12 2.7076e-12 3.77806e-13 1.45777e-14 4.65785e-16 0 0
          0 4.35318e-10 1.84521e-09 8.20345e-10 4.67878e-10 1.55233e-10 4.05339e-12 7.98731e-14 0 0 0 2.53675e-08
          1.13977e-07 4.62554e-08 2.67523e-08 3.47027e-08 6.24337e-10 8.08183e-12 0 0 0 5.24956e-07 2.11376e-06 3.13585e-06
          6.27237e-06 6.55836e-06 1.54356e-06 1.1776e-06 1.08285e-05 1.169e-05 8.95384e-07 7.03186e-07 1.27638e-05 1.1862e-05 3.86232e-06 5.52475e-08
          5.02818e-10 0 0 0 3.05196e-10 -4.04385e-07 -5.74498e-06 2.70426e-09 -2.00359e-05 -1.84233e-05 9.57014e-06 -2.09697e-05
          -6.73763e-06 -1.68319e-06 4.90065e-05 4.46177e-05 -1.29666e-06 8.81908e-06 5.03791e-05 4.54805e-05 0.000257584 0.000104715 0.000461455 7.4356e-05
          2.03391e-06 1.07982e-08 0 0 0 -2.53452e-09 -4.11013e-10 -3.05844e-09 -4.93963e-09 -1.51408e-05 3.53213e-05 3.26247e-05
          -1.26256e-05 6.64858e-05 7.37487e-05 7.74501e-05 6.62767e-05 7.20134e-05 7.72354e-05 9.9888e-05 7.83046e-05 8.2677e-05 0.000471595 1.24921e-05
          0.000869579 9.23757e-07 1.36303e-09 0 0 0 0 0 0 0 -1.16614e-05 2.57312e-05
          3.52921e-05 -2.41436e-06 6.02181e-05 7.40684e-05 9.28649e-05 6.87393e-05 0.000137388 4.94424e-05 0.000697467 1.23993e-06 0.000428892 -2.45228e-07
          -7.48738e-08 1.02576e-06 4.42541e-08 2.16156e-11 0 0 0 0 0.000203801 4.69961e-05 0.000301059 0
          7.06372e-05 0.00090251 1.06256e-06 0.000418631 0.000517888 -2.05866e-07 -7.8177e-08 1.33097e-07 4.65682e-08 5.60091e-12 3.26627e-15 0
          0 0 0 0 0 0 0 0 0 0 0 0
          0 0 0 0 0 0 0
        </DataArray>
      </CellData>
      <Points>
        <DataArray type="Float32" Name="Coordinates" NumberOfComponents="3" format="ascii">
          0 0 0 1 0 0 0 1 0 1 1 0
          2 0 0 2 1 0 3 0 0 3 1 0
          4 0 0 4 1 0 5 0 0 5 1 0
          6 0 0 6 1 0 7 0 0 7 1 0
          8 0 0 8 1 0 9 0 0 9 1 0