<?xml version="1.0"?>
<VTKFile type="UnstructuredGrid" version="0.1" byte_order="LittleEndian">
  <UnstructuredGrid>
    <Piece NumberOfCells="3072" NumberOfPoints="1617">
      <PointData Scalars="Sn">
        <DataArray type="Float32" Name="Sn" NumberOfComponents="1" format="ascii">
          0 0 0 0 0 0 0 0 0 0 0 0
          0 0 0 0 0 0 0 0 0 0 0 0
          0 0 0 0 0 0 0 0 0 0 0 0
          0 0 0 0 0 0 0 0 0 0 0 0
          0 0 0 0 0 0 0 0 0 0 0 0
          0 0 0 0 0 0 0 0 0 0 0 0
          0 0 0 0 0 0 0 0 0 0 0 0
          0 0 0 0 0 0 0 0 0 0 0 0
          0 0 0 0 0 0 0 0 0 0 0 0
          0 0 0 0 0 0 0 0 0 0 0 0
          0 0 0 0 0 0 0 0 0 0 0 0
          0 0 0 0 0 0 0 0 0 0 0 0
          0 0 0 0 0 0 0 0 0 0 0 0
          0 0 0 0 0 0 0 0 0 0 0 0
          0 0 0 0 0 0 0 0 0 0 0 0
          0 0 0 0 0 0 0 0 0 0 0 0
          0 0 0 0 0 0 0 0 0 0 0 0
          0 0 0 0 0 0 0 0 0 0 0 0
          0 0 0 0 0 0 0 0 0 0 0 0
          0 0 0 0 0 0 0 0 0 0 0 0
          0 0 0 0 0 0 0 0 0 0 0 0
          0 0 0 0 0 0 0 0 0 0 0 0
          0 0 0 0 0 0 0 0 0 0 0 0
          0 0 0 0 0 0 0 0 0 0 0 0
          0 0 0 0 0 0 0 0 0 0 0 0
          0 0 0 0 0 0 0 0 0 0 0 0
          0 0 0 0 0 0 0 0 0 0 0 0
          0 0 0 0 0 0 0 0 1.46585e-37 2.8873e-35 0 1.62436e-13
          3.7803e-05 8.88119e-05 2.18384e-12 0.0210726 0.142931 0.152819 0.0273551 0 0 0 0 0
          0 0 0 0 0 0 0 0 0 0 0 0
          0 0 0 0 0 0 0 0 0 0 0 0
          0 0 0 0 0 0 0 0 0 0 0 0
          0 0 0 0 0 0 0 0 0 0 0 0
          0 0 0 0 0 0 0 0 0 0 0 0
          0 0 0 0 0 0 0 0 0 0 0 0
          0 0 0 0 0 0 0 0 0 0 3.46983e-34 1.05635e-33
          0 5.07878e-12 0.000116393 0.000130525 7.3405e-12 0.02946 0.154568 0.154598 0.0302827 0 0 0
          0 0 0 0 0 0 0 0 0 0 0 0
          0 0 0 0 0 0 0 0 0 0 0 0
          0 0 0 0 0 0 0 0 0 0 0 0
          0 0 0 0 0 0 0 0 0 0 0 0
          0 0 0 0 0 0 0 0 0 0 0 0
          0 0 0 0 0 0 0 0 0 0 0 0
          0 0 0 0 0 0 0 0 0 0 0 0
          1.89086e-33 2.43066e-33 0 8.88997e-12 0.000138414 0.000142095 9.66338e-12 0.0306675 0.154214 0.153622 0.0308303 0
          0 0 0 0 0 0 0 0 0 0 0 0
          0 0 0 0 0 0 0 0 0 0 0 0
          0 0 0 0 0 0 0 0 0 0 0 0
          0 0 0 0 0 0 0 0 0 0 0 0
          0 0 0 0 0 0 0 0 0 0 0 0
          0 0 0 0 0 0 0 0 0 0 0 0
          0 0 0 0 0 0 0 0 0 0 0 0
          0 0 1.94421e-33 0 0 8.99393e-12 0.000139249 1.95837e-09 1.98673e-26 0.0306467 0.151356 0.0500754
          0.000838878 0 0 0 0 0 0 0 0 0 0 0
          0 0 0 0 0 0 0 0 0 0 0 0
          0 0 0 0 0 0 0 0 0 0 0 0
          0 0 0 0 0 0 0 0 0 0 0 0
          0 0 0 0 0 0 0 0 0 0 0 0
          0 0 0 0 0 0 0 0 0 0 0 0
          0 0 0 0 0 0 0 0 0 0 0 0
          0 0 0 0 0 0 0 0 1.00881e-24 0 0 7.25672e-09
          0.00107078 7.18299e-09 2.69918e-24 0 0 0 0 0 0 0 0 0
          0 0 0 0 0 0 0 0 0 0 0 0
          0 0 0 0 0 0 0 0 0 0 0 0
          0 0 0 0 0 0 0 0 0 0 0 0
          0 0 0 0 0 0 0 0 0 0 0 0
          0 0 0 0 0 0 0 0 0 0 0 0
          0 0 0 0 0 0 0 0 0 0 0 0
          0 0 0 0 0 0 0 0 0 0 0 0
          0 0 1.72456e-24 0 0 0 0 0 0 0 0 0
          0 0 0 0 0 0 0 0 0 0 0 0
          0 0 0 0 0 0 0 0 0 0 0 0
          0 0 0 0 0 0 0 0 0 0 0 0
          0 0 0 0 0 0 0 0 0 0 0 0
          0 0 0 0 0 0 0 0 0 0 0 0
          0 0 0 0 0 0 0 0 0 0 0 0
          0 0 0 0 0 0 0 0 0 0 0 0
          0 0 0 0 0 0 0 0 0 0 0 0
          0 0 0 0 0 0 0 0 0 0 0 0
          0 0 0 0 0 0 0 0 0 0 0 0
          0 0 0 0 0 0 0 0 0 0 0 0
          0 0 0 0 0 0 0 0 0 0 0 0
          0 0 0 0 0 0 0 0 0 0 0 0
          0 0 0 0 0 0 0 0 0 0 0 0
          0 0 0 0 0 0 0 0 0 0 0 0
          0 0 0 0 0 0 0 0 0 0 0 0
          0 0 0 0 0 0 0 0 0 0 0 0
          0 0 0 0 0 0 0 0 0 0 0 0
          0 0 0 0 0 0 0 0 0 0 0 0
          0 0 0 0 0 0 0 0 0 0 0 0
          0 0 0 0 0 0 0 0 0 0 0 0
          0 0 0 0 0 0 0 0 0 0 0 0
          0 0 0 0 0 0 0 0 0 0 0 0
          0 0 0 0 0 0 0 0 0 0 0 0
          0 0 0 0 0 0 0 0 0 0 0 0
          0 0 0 0 0 0 0 0 0 0 0 0
          0 0 0 0 0 0 0 0 0 0 0 0
          0 0 0 0 0 0 0 0 0 0 0 0
          0 0 0 0 0 0 0 0 0 0 0 0
          0 0 0 0 0 0 0 0 0 0 0 0
          0 0 0 0 0 0 0 0 0 0 0 0
          0 0 0 0 0 0 0 0 0 0 0 0
          0 0 0 0 0 0 0 0 0 0 0 0
          0 0 0 0 0 0 0 0 0 0 0 0
          0 0 0 0 0 0 0 0 0 0 0 0
          0 0 0 0 0 0 0 0 0 0 0 0
          0 0 0 0 0 0 0 0 0 0 0 0
          0 0 0 0 0 0 0 0 0 0 0 0
          0 0 0 0 0 0 0 0 0 0 0 0
          0 0 0 0 0 0 0 0 0 0 0 0
          0 0 0 0 0 0 0 0 0 0 0 0
          0 0 0 0 0 0 0 0 0 0 0 0
          0 0 0 0 0 0 0 0 0 0 0 0
          0 0 0 0 0 0 0 0 0 0 0 0
          0 0 0 0 0 0 0 0 0 0 0 0
          0 0 0 0 0 0 0 0 0 0 0 0
          0 0 0 0 0 0 0 0 0 0 0 0
          0 0 0 0 0 0 0 0 0 0 0 0
          0 0 0 0 0 0 0 0 0 0 0 0
          0 0 0 0 0 0 0 0 0 0 0 0
          0 0 0 0 0 0 0 0 0 0 0 0
          0 0 0 0 0 0 0 0 0 0 0 0
          0 0 0 0 0 0 0 0 0 0 0 0
          0 0 0 0 0 0 0 0 0 0 0 0
          0 0 0 0 0 0 0 0 0 0 0 0
          0 0 0 0 0 0 0 0 0 0 0 0
          0 0 0 0 0 0 0 0 0 0 0 0
          0 0 0 0 0 0 0 0 0 0 0 0
          0 0 0 0 0 0 0 0 0 0 0 0
          0 0 0 0 0 0 0 0 0 0 0 0
          0 0 0 0 0 0 0 0 0 0 0 0
          0 0 0 0 0 0 0 0 0 0 0 0
          0 0 0 0 0 0 0 0 0 0 0 0
          0 0 0 0 0 0 0 0 0 0 0 0
          0 0 0 0 0 0 0 0 0
        </DataArray>
        <DataArray type="Float32" Name="Sw" NumberOfComponents="1" format="ascii">
          1 1 1 1 1 1 1 1 1 1 1 1
          1 1 1 1 1 1 1 1 1 1 1 1
          1 1 1 1 1 1 1 1 1 1 1 1
          1 1 1 1 1 1 1 1 1 1 1 1
          1 1 1 1 1 1 1 1 1 1 1 1
          1 1 1 1 1 1 1 1 1 1 1 1
          1 1 1 1 1 1 1 1 1 1 1 1
          1 1 1 1 1 1 1 1 1 1 1 1
          1 1 1 1 1 1 1 1 1 1 1 1
          1 1 1 1 1 1 1 1 1 1 1 1
          1 1 1 1 1 1 1 1 1 1 1 1
          1 1 1 1 1 1 1 1 1 1 1 1
          1 1 1 1 1 1 1 1 1 1 1 1
          1 1 1 1 1 1 1 1 1 1 1 1
          1 1 1 1 1 1 1 1 1 1 1 1
          1 1 1 1 1 1 1 1 1 1 1 1
          1 1 1 1 1 1 1 1 1 1 1 1
          1 1 1 1 1 1 1 1 1 1 1 1
          1 1 1 1 1 1 1 1 1 1 1 1
          1 1 1 1 1 1 1 1 1 1 1 1
          1 1 1 1 1 1 1 1 1 1 1 1
          1 1 1 1 1 1 1 1 1 1 1 1
          1 1 1 1 1 1 1 1 1 1 1 1
          1 1 1 1 1 1 1 1 1 1 1 1
          1 1 1 1 1 1 1 1 1 1 1 1
          1 1 1 1 1 1 1 1 1 1 1 1
          1 1 1 1 1 1 1 1 1 1 1 1
          1 1 1 1 1 1 1 1 1 1 1 1
          0.999962 0.999911 1 0.978927 0.857069 0.847181 0.972645 1 1 1 1 1
          1 1 1 1 1 1 1 1 1 1 1 1
          1 1 1 1 1 1 1 1 1 1 1 1
          1 1 1 1 1 1 1 1 1 1 1 1
          1 1 1 1 1 1 1 1 1 1 1 1
          1 1 1 1 1 1 1 1 1 1 1 1
          1 1 1 1 1 1 1 1 1 1 1 1
          1 1 1 1 1 1 1 1 1 1 1 1
          1 1 0.999884 0.999869 1 0.97054 0.845432 0.845402 0.969717 1 1 1
          1 1 1 1 1 1 1 1 1 1 1 1
          1 1 1 1 1 1 1 1 1 1 1 1
          1 1 1 1 1 1 1 1 1 1 1 1
          1 1 1 1 1 1 1 1 1 1 1 1
          1 1 1 1 1 1 1 1 1 1 1 1
          1 1 1 1 1 1 1 1 1 1 1 1
          1 1 1 1 1 1 1 1 1 1 1 1
          1 1 1 1 0.999862 0.999858 1 0.969332 0.845786 0.846378 0.96917 1
          1 1 1 1 1 1 1 1 1 1 1 1
          1 1 1 1 1 1 1 1 1 1 1 1
          1 1 1 1 1 1 1 1 1 1 1 1
          1 1 1 1 1 1 1 1 1 1 1 1
          1 1 1 1 1 1 1 1 1 1 1 1
          1 1 1 1 1 1 1 1 1 1 1 1
          1 1 1 1 1 1 1 1 1 1 1 1
          1 1 1 1 1 1 0.999861 1 1 0.969353 0.848644 0.949925
          0.999161 1 1 1 1 1 1 1 1 1 1 1
          1 1 1 1 1 1 1 1 1 1 1 1
          1 1 1 1 1 1 1 1 1 1 1 1
          1 1 1 1 1 1 1 1 1 1 1 1
          1 1 1 1 1 1 1 1 1 1 1 1
          1 1 1 1 1 1 1 1 1 1 1 1
          1 1 1 1 1 1 1 1 1 1 1 1
          1 1 1 1 1 1 1 1 1 1 1 1
          0.998929 1 1 1 1 1 1 1 1 1 1 1
          1 1 1 1 1 1 1 1 1 1 1 1
          1 1 1 1 1 1 1 1 1 1 1 1
          1 1 1 1 1 1 1 1 1 1 1 1
          1 1 1 1 1 1 1 1 1 1 1 1
          1 1 1 1 1 1 1 1 1 1 1 1
          1 1 1 1 1 1 1 1 1 1 1 1
          1 1 1 1 1 1 1 1 1 1 1 1
          1 1 1 1 1 1 1 1 1 1 1 1
          1 1 1 1 1 1 1 1 1 1 1 1
          1 1 1 1 1 1 1 1 1 1 1 1
          1 1 1 1 1 1 1 1 1 1 1 1
          1 1 1 1 1 1 1 1 1 1 1 1
          1 1 1 1 1 1 1 1 1 1 1 1
          1 1 1 1 1 1 1 1 1 1 1 1
          1 1 1 1 1 1 1 1 1 1 1 1
          1 1 1 1 1 1 1 1 1 1 1 1
          1 1 1 1 1 1 1 1 1 1 1 1
          1 1 1 1 1 1 1 1 1 1 1 1
          1 1 1 1 1 1 1 1 1 1 1 1
          1 1 1 1 1 1 1 1 1 1 1 1
          1 1 1 1 1 1 1 1 1 1 1 1
          1 1 1 1 1 1 1 1 1 1 1 1
          1 1 1 1 1 1 1 1 1 1 1 1
          1 1 1 1 1 1 1 1 1 1 1 1
          1 1 1 1 1 1 1 1 1 1 1 1
          1 1 1 1 1 1 1 1 1 1 1 1
          1 1 1 1 1 1 1 1 1 1 1 1
          1 1 1 1 1 1 1 1 1 1 1 1
          1 1 1 1 1 1 1 1 1 1 1 1
          1 1 1 1 1 1 1 1 1 1 1 1
          1 1 1 1 1 1 1 1 1 1 1 1
          1 1 1 1 1 1 1 1 1 1 1 1
          1 1 1 1 1 1 1 1 1 1 1 1
          1 1 1 1 1 1 1 1 1 1 1 1
          1 1 1 1 1 1 1 1 1 1 1 1
          1 1 1 1 1 1 1 1 1 1 1 1
          1 1 1 1 1 1 1 1 1 1 1 1
          1 1 1 1 1 1 1 1 1 1 1 1
          1 1 1 1 1 1 1 1 1 1 1 1
          1 1 1 1 1 1 1 1 1 1 1 1
          1 1 1 1 1 1 1 1 1 1 1 1
          1 1 1 1 1 1 1 1 1 1 1 1
          1 1 1 1 1 1 1 1 1 1 1 1
          1 1 1 1 1 1 1 1 1 1 1 1
          1 1 1 1 1 1 1 1 1 1 1 1
          1 1 1 1 1 1 1 1 1 1 1 1
          1 1 1 1 1 1 1 1 1 1 1 1
          1 1 1 1 1 1 1 1 1 1 1 1
          1 1 1 1 1 1 1 1 1 1 1 1
          1 1 1 1 1 1 1 1 1 1 1 1
          1 1 1 1 1 1 1 1 1 1 1 1
          1 1 1 1 1 1 1 1 1 1 1 1
          1 1 1 1 1 1 1 1 1 1 1 1
          1 1 1 1 1 1 1 1 1 1 1 1
          1 1 1 1 1 1 1 1 1 1 1 1
          1 1 1 1 1 1 1 1 1 1 1 1
          1 1 1 1 1 1 1 1 1 1 1 1
          1 1 1 1 1 1 1 1 1 1 1 1
          1 1 1 1 1 1 1 1 1 1 1 1
          1 1 1 1 1 1 1 1 1 1 1 1
          1 1 1 1 1 1 1 1 1 1 1 1
          1 1 1 1 1 1 1 1 1 1 1 1
          1 1 1 1 1 1 1 1 1 1 1 1
          1 1 1 1 1 1 1 1 1 1 1 1
          1 1 1 1 1 1 1 1 1 1 1 1
          1 1 1 1 1 1 1 1 1 1 1 1
          1 1 1 1 1 1 1 1 1 1 1 1
          1 1 1 1 1 1 1 1 1 1 1 1
          1 1 1 1 1 1 1 1 1 1 1 1
          1 1 1 1 1 1 1 1 1 1 1 1
          1 1 1 1 1 1 1 1 1 1 1 1
          1 1 1 1 1 1 1 1 1 1 1 1
          1 1 1 1 1 1 1 1 1
        </DataArray>
        <DataArray type="Float32" Name="pn" NumberOfComponents="1" format="ascii">
          2.6597e+07 2.6597e+07 2.65849e+07 2.65972e+07 2.65851e+07 2.65731e+07 2.65725e+07 2.65847e+07 2.65727e+07 2.65975e+07 2.65855e+07 2.65978e+07
          2.65858e+07 2.65738e+07 2.65734e+07 2.65982e+07 2.65862e+07 2.65986e+07 2.65867e+07 2.65747e+07 2.65742e+07 2.65991e+07 2.65871e+07 2.65996e+07
          2.65876e+07 2.65756e+07 2.65751e+07 2.66001e+07 2.65881e+07 2.66006e+07 2.65886e+07 2.65766e+07 2.65761e+07 2.66011e+07 2.65891e+07 2.66016e+07
          2.65896e+07 2.65776e+07 2.65771e+07 2.66021e+07 2.65901e+07 2.66026e+07 2.65907e+07 2.65787e+07 2.65782e+07 2.66032e+07 2.65912e+07 2.66037e+07
          2.65917e+07 2.65797e+07 2.65792e+07 2.66042e+07 2.65922e+07 2.66047e+07 2.65928e+07 2.65808e+07 2.65802e+07 2.66053e+07 2.65933e+07 2.66058e+07
          2.65938e+07 2.65818e+07 2.65813e+07 2.66064e+07 2.65944e+07 2.66069e+07 2.6595e+07 2.6583e+07 2.65824e+07 2.66075e+07 2.65956e+07 2.66081e+07
          2.65962e+07 2.65842e+07 2.65836e+07 2.66087e+07 2.65968e+07 2.66094e+07 2.65974e+07 2.65854e+07 2.65848e+07 2.661e+07 2.6598e+07 2.66106e+07
          2.65986e+07 2.65866e+07 2.6586e+07 2.66112e+07 2.65992e+07 2.66118e+07 2.65999e+07 2.65879e+07 2.65873e+07 2.66125e+07 2.66005e+07 2.66131e+07
          2.66011e+07 2.65891e+07 2.65885e+07 2.66137e+07 2.66017e+07 2.66143e+07 2.66023e+07 2.65904e+07 2.65898e+07 2.66149e+07 2.6603e+07 2.66156e+07
          2.66036e+07 2.65916e+07 2.6591e+07 2.66162e+07 2.66042e+07 2.66168e+07 2.66048e+07 2.65929e+07 2.65922e+07 2.66174e+07 2.66054e+07 2.6618e+07
          2.6606e+07 2.65941e+07 2.65935e+07 2.66186e+07 2.66066e+07 2.66191e+07 2.66072e+07 2.65952e+07 2.65947e+07 2.66196e+07 2.66077e+07 2.66201e+07
          2.66081e+07 2.65963e+07 2.65958e+07 2.66205e+07 2.66086e+07 2.66208e+07 2.66089e+07 2.65971e+07 2.65967e+07 2.6621e+07 2.66091e+07 2.66211e+07
          2.66091e+07 2.65974e+07 2.65973e+07 2.65606e+07 2.65609e+07 2.65488e+07 2.6548e+07 2.65602e+07 2.65484e+07 2.65613e+07 2.65617e+07 2.65496e+07
          2.65492e+07 2.65622e+07 2.65626e+07 2.65506e+07 2.65501e+07 2.65631e+07 2.65636e+07 2.65516e+07 2.65511e+07 2.65641e+07 2.65646e+07 2.65526e+07
          2.65521e+07 2.65651e+07 2.65657e+07 2.65537e+07 2.65531e+07 2.65662e+07 2.65667e+07 2.65547e+07 2.65542e+07 2.65672e+07 2.65678e+07 2.65558e+07
          2.65553e+07 2.65683e+07 2.65688e+07 2.65568e+07 2.65563e+07 2.65693e+07 2.65698e+07 2.65578e+07 2.65573e+07 2.65704e+07 2.6571e+07 2.65589e+07
          2.65584e+07 2.65716e+07 2.65722e+07 2.65602e+07 2.65595e+07 2.65728e+07 2.65734e+07 2.65614e+07 2.65608e+07 2.6574e+07 2.65747e+07 2.65627e+07
          2.65621e+07 2.65753e+07 2.65759e+07 2.65639e+07 2.65633e+07 2.65765e+07 2.65772e+07 2.65652e+07 2.65646e+07 2.65778e+07 2.65784e+07 2.65664e+07
          2.65658e+07 2.6579e+07 2.65796e+07 2.65677e+07 2.65671e+07 2.65803e+07 2.65809e+07 2.65689e+07 2.65683e+07 2.65815e+07 2.65821e+07 2.65702e+07
          2.65696e+07 2.65827e+07 2.65833e+07 2.65715e+07 2.65708e+07 2.65839e+07 2.65845e+07 2.65727e+07 2.65721e+07 2.6585e+07 2.65854e+07 2.65738e+07
          2.65733e+07 2.65857e+07 2.65858e+07 2.65745e+07 2.65742e+07 2.65361e+07 2.65366e+07 2.65244e+07 2.65234e+07 2.65357e+07 2.65239e+07 2.6537e+07
          2.65375e+07 2.65254e+07 2.65249e+07 2.6538e+07 2.65385e+07 2.65264e+07 2.65259e+07 2.6539e+07 2.65395e+07 2.65275e+07 2.6527e+07 2.65401e+07
          2.65406e+07 2.65286e+07 2.6528e+07 2.65411e+07 2.65417e+07 2.65297e+07 2.65291e+07 2.65422e+07 2.65428e+07 2.65308e+07 2.65302e+07 2.65433e+07
          2.65438e+07 2.65319e+07 2.65314e+07 2.65443e+07 2.65448e+07 2.65329e+07 2.65324e+07 2.65453e+07 2.65458e+07 2.65339e+07 2.65334e+07 2.65464e+07
          2.65469e+07 2.6535e+07 2.65344e+07 2.65475e+07 2.65482e+07 2.65362e+07 2.65355e+07 2.65488e+07 2.65494e+07 2.65375e+07 2.65368e+07 2.65501e+07
          2.65507e+07 2.65387e+07 2.65381e+07 2.65513e+07 2.6552e+07 2.654e+07 2.65394e+07 2.65526e+07 2.65532e+07 2.65412e+07 2.65406e+07 2.65538e+07
          2.65545e+07 2.65425e+07 2.65418e+07 2.65551e+07 2.65557e+07 2.65437e+07 2.65431e+07 2.65563e+07 2.6557e+07 2.6545e+07 2.65444e+07 2.65576e+07
          2.65583e+07 2.65463e+07 2.65457e+07 2.65589e+07 2.65596e+07 2.65477e+07 2.6547e+07 2.65603e+07 2.6561e+07 2.65492e+07 2.65484e+07 2.65617e+07
          2.65624e+07 2.6551e+07 2.655e+07 2.65634e+07 2.65653e+07 2.65546e+07 2.65524e+07 2.65117e+07 2.65122e+07 2.65e+07 2.64989e+07 2.65112e+07
          2.64995e+07 2.65127e+07 2.65133e+07 2.65011e+07 2.65006e+07 2.65138e+07 2.65143e+07 2.65023e+07 2.65017e+07 2.65149e+07 2.65154e+07 2.65034e+07
          2.65028e+07 2.6516e+07 2.65166e+07 2.65045e+07 2.6504e+07 2.65171e+07 2.65177e+07 2.65057e+07 2.65051e+07 2.65183e+07 2.65188e+07 2.65069e+07
          2.65063e+07 2.65194e+07 2.652e+07 2.6508e+07 2.65074e+07 2.65205e+07 2.6521e+07 2.6509e+07 2.65085e+07 2.65215e+07 2.6522e+07 2.65101e+07
          2.65096e+07 2.65225e+07 2.65231e+07 2.65111e+07 2.65106e+07 2.65236e+07 2.65242e+07 2.65123e+07 2.65117e+07 2.65249e+07 2.65255e+07 2.65135e+07
          2.65129e+07 2.65261e+07 2.65268e+07 2.65148e+07 2.65142e+07 2.65274e+07 2.6528e+07 2.6516e+07 2.65154e+07 2.65286e+07 2.65292e+07 2.65173e+07
          2.65166e+07 2.65299e+07 2.65305e+07 2.65185e+07 2.65179e+07 2.65311e+07 2.65318e+07 2.65198e+07 2.65191e+07 2.65324e+07 2.6533e+07 2.65211e+07
          2.65204e+07 2.65337e+07 2.65344e+07 2.65224e+07 2.65217e+07 2.65351e+07 2.65358e+07 2.65238e+07 2.65231e+07 2.65366e+07 2.65374e+07 2.65255e+07
          2.65246e+07 2.65383e+07 2.65394e+07 2.65275e+07 2.65264e+07 2.6541e+07 2.65433e+07 2.65316e+07 2.65293e+07 2.64872e+07 2.64878e+07 2.64756e+07
          2.64744e+07 2.64866e+07 2.6475e+07 2.64884e+07 2.6489e+07 2.64768e+07 2.64762e+07 2.64896e+07 2.64902e+07 2.64781e+07 2.64775e+07 2.64908e+07
          2.64913e+07 2.64793e+07 2.64787e+07 2.64919e+07 2.64925e+07 2.64805e+07 2.64799e+07 2.64931e+07 2.64937e+07 2.64817e+07 2.64811e+07 2.64943e+07
          2.64949e+07 2.64829e+07 2.64823e+07 2.64955e+07 2.64961e+07 2.64841e+07 2.64835e+07 2.64966e+07 2.64971e+07 2.64852e+07 2.64846e+07 2.64976e+07
          2.64981e+07 2.64862e+07 2.64857e+07 2.64987e+07 2.64992e+07 2.64873e+07 2.64867e+07 2.64997e+07 2.65003e+07 2.64884e+07 2.64878e+07 2.6501e+07
          2.65016e+07 2.64896e+07 2.6489e+07 2.65022e+07 2.65028e+07 2.64908e+07 2.64902e+07 2.65034e+07 2.65041e+07 2.64921e+07 2.64915e+07 2.65047e+07
          2.65053e+07 2.64933e+07 2.64927e+07 2.65059e+07 2.65065e+07 2.64945e+07 2.64939e+07 2.65072e+07 2.65078e+07 2.64958e+07 2.64952e+07 2.65084e+07
          2.65091e+07 2.64971e+07 2.64964e+07 2.65097e+07 2.65104e+07 2.64984e+07 2.64977e+07 2.65111e+07 2.65118e+07 2.64998e+07 2.64991e+07 2.65126e+07
          2.65135e+07 2.65014e+07 2.65005e+07 2.65144e+07 2.65155e+07 2.65033e+07 2.65023e+07 2.65173e+07 2.65196e+07 2.65072e+07 2.6505e+07 2.64628e+07
          2.64634e+07 2.64512e+07 2.64498e+07 2.64621e+07 2.64505e+07 2.64641e+07 2.64647e+07 2.64526e+07 2.64519e+07 2.64653e+07 2.6466e+07 2.64539e+07
          2.64532e+07 2.64666e+07 2.64672e+07 2.64552e+07 2.64545e+07 2.64679e+07 2.64685e+07 2.64565e+07 2.64558e+07 2.64691e+07 2.64697e+07 2.64577e+07
          2.64571e+07 2.64703e+07 2.64709e+07 2.6459e+07 2.64583e+07 2.64716e+07 2.64722e+07 2.64602e+07 2.64596e+07 2.64727e+07 2.64732e+07 2.64613e+07
          2.64608e+07 2.64738e+07 2.64743e+07 2.64623e+07 2.64618e+07 2.64748e+07 2.64753e+07 2.64634e+07 2.64629e+07 2.64758e+07 2.64764e+07 2.64645e+07
          2.64639e+07 2.64771e+07 2.64777e+07 2.64657e+07 2.64651e+07 2.64783e+07 2.64789e+07 2.64669e+07 2.64663e+07 2.64795e+07 2.64801e+07 2.64681e+07
          2.64675e+07 2.64807e+07 2.64813e+07 2.64693e+07 2.64687e+07 2.64819e+07 2.64825e+07 2.64706e+07 2.64699e+07 2.64832e+07 2.64838e+07 2.64718e+07
          2.64712e+07 2.64844e+07 2.6485e+07 2.6473e+07 2.64724e+07 2.64857e+07 2.64863e+07 2.64743e+07 2.64736e+07 2.6487e+07 2.64877e+07 2.64756e+07
          2.64749e+07 2.64884e+07 2.64892e+07 2.64769e+07 2.64762e+07 2.649e+07 2.64909e+07 2.64783e+07 2.64776e+07 2.64923e+07 2.64944e+07 2.64801e+07
          2.6479e+07 2.64383e+07 2.6439e+07 2.64269e+07 2.64253e+07 2.64376e+07 2.64261e+07 2.64397e+07 2.64404e+07 2.64283e+07 2.64276e+07 2.64411e+07
          2.64418e+07 2.64297e+07 2.6429e+07 2.64425e+07 2.64431e+07 2.64311e+07 2.64304e+07 2.64438e+07 2.64444e+07 2.64324e+07 2.64318e+07 2.64451e+07
          2.64457e+07 2.64337e+07 2.64331e+07 2.64464e+07 2.6447e+07 2.6435e+07 2.64344e+07 2.64476e+07 2.64483e+07 2.64363e+07 2.64357e+07 2.64488e+07
          2.64494e+07 2.64374e+07 2.64369e+07 2.64499e+07 2.64504e+07 2.64385e+07 2.6438e+07 2.64509e+07 2.64514e+07 2.64395e+07 2.6439e+07 2.6452e+07
          2.64526e+07 2.64406e+07 2.644e+07 2.64531e+07 2.64537e+07 2.64418e+07 2.64412e+07 2.64543e+07 2.64549e+07 2.6443e+07 2.64424e+07 2.64555e+07
          2.64561e+07 2.64442e+07 2.64436e+07 2.64567e+07 2.64573e+07 2.64454e+07 2.64448e+07 2.64579e+07 2.64586e+07 2.64466e+07 2.6446e+07 2.64592e+07
          2.64598e+07 2.64478e+07 2.64472e+07 2.64604e+07 2.6461e+07 2.6449e+07 2.64484e+07 2.64616e+07 2.64622e+07 2.64501e+07 2.64495e+07 2.64628e+07
          2.64634e+07 2.64513e+07 2.64507e+07 2.6464e+07 2.64646e+07 2.64524e+07 2.64518e+07 2.64652e+07 2.64657e+07 2.64533e+07 2.64528e+07 2.64662e+07
          2.64664e+07 2.64537e+07 2.64536e+07 2.64139e+07 2.64147e+07 2.64026e+07 2.64008e+07 2.64131e+07 2.64017e+07 2.64155e+07 2.64162e+07 2.64042e+07
          2.64034e+07 2.6417e+07 2.64177e+07 2.64056e+07 2.64049e+07 2.64184e+07 2.64191e+07 2.6407e+07 2.64063e+07 2.64197e+07 2.64204e+07 2.64084e+07
          2.64077e+07 2.64211e+07 2.64217e+07 2.64097e+07 2.64091e+07 2.64224e+07 2.6423e+07 2.64111e+07 2.64104e+07 2.64237e+07 2.64244e+07 2.64124e+07
          2.64117e+07 2.64249e+07 2.64255e+07 2.64136e+07 2.6413e+07 2.6426e+07 2.64266e+07 2.64147e+07 2.64141e+07 2.64271e+07 2.64276e+07 2.64157e+07
          2.64152e+07 2.64281e+07 2.64287e+07 2.64167e+07 2.64162e+07 2.64292e+07 2.64298e+07 2.64179e+07 2.64173e+07 2.64304e+07 2.6431e+07 2.6419e+07
          2.64184e+07 2.64316e+07 2.64322e+07 2.64202e+07 2.64196e+07 2.64328e+07 2.64334e+07 2.64214e+07 2.64208e+07 2.6434e+07 2.64346e+07 2.64226e+07
          2.6422e+07 2.64352e+07 2.64357e+07 2.64237e+07 2.64231e+07 2.64363e+07 2.64369e+07 2.64249e+07 2.64243e+07 2.64375e+07 2.64381e+07 2.6426e+07
          2.64255e+07 2.64386e+07 2.64392e+07 2.64271e+07 2.64266e+07 2.64397e+07 2.64401e+07 2.6428e+07 2.64276e+07 2.64406e+07 2.64409e+07 2.64286e+07
          2.64284e+07 2.64411e+07 2.64412e+07 2.64289e+07 2.64288e+07 2.63896e+07 2.63905e+07 2.63782e+07 2.63763e+07 2.63885e+07 2.63773e+07 2.63913e+07
          2.63921e+07 2.63799e+07 2.63791e+07 2.63929e+07 2.63936e+07 2.63814e+07 2.63807e+07 2.63943e+07 2.6395e+07 2.63829e+07 2.63822e+07 2.63957e+07
          2.63964e+07 2.63843e+07 2.63836e+07 2.63971e+07 2.63977e+07 2.63857e+07 2.6385e+07 2.63984e+07 2.63991e+07 2.6387e+07 2.63864e+07 2.63998e+07
          2.64005e+07 2.63884e+07 2.63877e+07 2.64011e+07 2.64017e+07 2.63897e+07 2.63891e+07 2.64022e+07 2.64028e+07 2.63908e+07 2.63902e+07 2.64033e+07
          2.64038e+07 2.63918e+07 2.63913e+07 2.64043e+07 2.64048e+07 2.63928e+07 2.63922e+07 2.64053e+07 2.64059e+07 2.63939e+07 2.63933e+07 2.64064e+07
          2.6407e+07 2.6395e+07 2.63944e+07 2.64076e+07 2.64082e+07 2.63962e+07 2.63956e+07 2.64088e+07 2.64094e+07 2.63973e+07 2.63967e+07 2.641e+07
          2.64106e+07 2.63985e+07 2.63979e+07 2.64111e+07 2.64117e+07 2.63996e+07 2.6399e+07 2.64123e+07 2.64129e+07 2.64007e+07 2.64002e+07 2.64134e+07
          2.6414e+07 2.64018e+07 2.64013e+07 2.64145e+07 2.6415e+07 2.64027e+07 2.64023e+07 2.64155e+07 2.64159e+07 2.64036e+07 2.64032e+07 2.64162e+07
          2.64165e+07 2.64041e+07 2.64039e+07 2.64167e+07 2.64167e+07 2.64043e+07 2.64043e+07 2.6365e+07 2.63659e+07 2.63536e+07 2.63518e+07 2.6364e+07
          2.63527e+07 2.63668e+07 2.63676e+07 2.63553e+07 2.63545e+07 2.63684e+07 2.63692e+07 2.63569e+07 2.63561e+07 2.63699e+07 2.63707e+07 2.63585e+07
          2.63577e+07 2.63714e+07 2.63721e+07 2.63599e+07 2.63592e+07 2.63728e+07 2.63735e+07 2.63614e+07 2.63607e+07 2.63742e+07 2.63749e+07 2.63628e+07
          2.63621e+07 2.63756e+07 2.63763e+07 2.63642e+07 2.63635e+07 2.63769e+07 2.63775e+07 2.63654e+07 2.63648e+07 2.63781e+07 2.63786e+07 2.63665e+07
          2.6366e+07 2.63792e+07 2.63797e+07 2.63676e+07 2.6367e+07 2.63801e+07 2.63807e+07 2.63686e+07 2.6368e+07 2.63812e+07 2.63818e+07 2.63697e+07
          2.63692e+07 2.63824e+07 2.63829e+07 2.63709e+07 2.63703e+07 2.63835e+07 2.63841e+07 2.6372e+07 2.63714e+07 2.63846e+07 2.63852e+07 2.63731e+07
          2.63725e+07 2.63857e+07 2.63863e+07 2.63741e+07 2.63736e+07 2.63868e+07 2.63874e+07 2.63752e+07 2.63747e+07 2.63879e+07 2.63884e+07 2.63762e+07
          2.63757e+07 2.63889e+07 2.63894e+07 2.63771e+07 2.63766e+07 2.63899e+07 2.63903e+07 2.63779e+07 2.63775e+07 2.63907e+07 2.6391e+07 2.63785e+07
          2.63782e+07 2.63913e+07 2.63915e+07 2.63789e+07 2.63788e+07 2.63916e+07 2.63916e+07 2.63791e+07 2.6379e+07 2.63404e+07 2.63413e+07 2.6329e+07
          2.63272e+07 2.63395e+07 2.63281e+07 2.63422e+07 2.6343e+07 2.63308e+07 2.63299e+07 2.63439e+07 2.63447e+07 2.63325e+07 2.63316e+07 2.63455e+07
          2.63463e+07 2.63341e+07 2.63333e+07 2.6347e+07 2.63478e+07 2.63356e+07 2.63349e+07 2.63485e+07 2.63493e+07 2.63371e+07 2.63364e+07 2.635e+07
          2.63507e+07 2.63386e+07 2.63379e+07 2.63514e+07 2.63521e+07 2.63401e+07 2.63393e+07 2.63527e+07 2.63533e+07 2.63412e+07 2.63406e+07 2.63539e+07
          2.63544e+07 2.63424e+07 2.63418e+07 2.6355e+07 2.63555e+07 2.63434e+07 2.63429e+07 2.6356e+07 2.63566e+07 2.63445e+07 2.63439e+07 2.63571e+07
          2.63577e+07 2.63456e+07 2.63451e+07 2.63582e+07 2.63588e+07 2.63467e+07 2.63462e+07 2.63593e+07 2.63599e+07 2.63478e+07 2.63473e+07 2.63604e+07
          2.63609e+07 2.63488e+07 2.63483e+07 2.63615e+07 2.6362e+07 2.63498e+07 2.63493e+07 2.63625e+07 2.6363e+07 2.63508e+07 2.63503e+07 2.63634e+07
          2.63639e+07 2.63517e+07 2.63512e+07 2.63643e+07 2.63648e+07 2.63525e+07 2.63521e+07 2.63651e+07 2.63655e+07 2.63532e+07 2.63528e+07 2.63658e+07
          2.63661e+07 2.63537e+07 2.63534e+07 2.63663e+07 2.63664e+07 2.6354e+07 2.63539e+07 2.63665e+07 2.63666e+07 2.63541e+07 2.63541e+07 2.63159e+07
          2.63168e+07 2.63045e+07 2.63027e+07 2.6315e+07 2.63036e+07 2.63177e+07 2.63186e+07 2.63063e+07 2.63054e+07 2.63194e+07 2.63203e+07 2.63081e+07
          2.63072e+07 2.63211e+07 2.63219e+07 2.63098e+07 2.63089e+07 2.63227e+07 2.63235e+07 2.63114e+07 2.63106e+07 2.63243e+07 2.6325e+07 2.63129e+07
          2.63121e+07 2.63258e+07 2.63265e+07 2.63144e+07 2.63137e+07 2.63273e+07 2.6328e+07 2.63159e+07 2.63152e+07 2.63286e+07 2.63292e+07 2.63171e+07
          2.63165e+07 2.63297e+07 2.63303e+07 2.63183e+07 2.63177e+07 2.63308e+07 2.63314e+07 2.63193e+07 2.63188e+07 2.63319e+07 2.63325e+07 2.63204e+07
          2.63198e+07 2.6333e+07 2.63336e+07 2.63215e+07 2.6321e+07 2.63341e+07 2.63347e+07 2.63226e+07 2.63221e+07 2.63352e+07 2.63357e+07 2.63236e+07
          2.63231e+07 2.63362e+07 2.63367e+07 2.63246e+07 2.63241e+07 2.63372e+07 2.63377e+07 2.63256e+07 2.63251e+07 2.63382e+07 2.63386e+07 2.63265e+07
          2.6326e+07 2.6339e+07 2.63395e+07 2.63273e+07 2.63269e+07 2.63399e+07 2.63402e+07 2.6328e+07 2.63276e+07 2.63406e+07 2.63409e+07 2.63286e+07
          2.63283e+07 2.63411e+07 2.63413e+07 2.6329e+07 2.63288e+07 2.63415e+07 2.63416e+07 2.63293e+07 2.63292e+07 2.63417e+07 2.63418e+07 2.63294e+07
          2.63294e+07 2.62914e+07 2.62923e+07 2.62801e+07 2.62782e+07 2.62904e+07 2.62791e+07 2.62932e+07 2.62941e+07 2.6282e+07 2.6281e+07 2.6295e+07
          2.62959e+07 2.62838e+07 2.62829e+07 2.62968e+07 2.62976e+07 2.62855e+07 2.62846e+07 2.62984e+07 2.62992e+07 2.62871e+07 2.62863e+07 2.63e+07
          2.63008e+07 2.62887e+07 2.62879e+07 2.63016e+07 2.63024e+07 2.62903e+07 2.62895e+07 2.63031e+07 2.63039e+07 2.62918e+07 2.6291e+07 2.63045e+07
          2.63051e+07 2.62931e+07 2.62924e+07 2.63057e+07 2.63062e+07 2.62943e+07 2.62937e+07 2.63068e+07 2.63073e+07 2.62953e+07 2.62948e+07 2.63078e+07
          2.63084e+07 2.62964e+07 2.62958e+07 2.6309e+07 2.63095e+07 2.62975e+07 2.62969e+07 2.631e+07 2.63106e+07 2.62985e+07 2.6298e+07 2.63111e+07
          2.63116e+07 2.62995e+07 2.6299e+07 2.63121e+07 2.63125e+07 2.63005e+07 2.63e+07 2.6313e+07 2.63135e+07 2.63014e+07 2.63009e+07 2.63139e+07
          2.63143e+07 2.63022e+07 2.63018e+07 2.63147e+07 2.63151e+07 2.6303e+07 2.63026e+07 2.63155e+07 2.63158e+07 2.63036e+07 2.63033e+07 2.63161e+07
          2.63164e+07 2.63042e+07 2.63039e+07 2.63166e+07 2.63168e+07 2.63046e+07 2.63044e+07 2.6317e+07 2.63171e+07 2.63048e+07 2.63047e+07 2.63171e+07
          2.63172e+07 2.63049e+07 2.63049e+07 2.62669e+07 2.62679e+07 2.62557e+07 2.62536e+07 2.62659e+07 2.62547e+07 2.62689e+07 2.62698e+07 2.62577e+07
          2.62567e+07 2.62707e+07 2.62716e+07 2.62595e+07 2.62586e+07 2.62725e+07 2.62734e+07 2.62613e+07 2.62604e+07 2.62742e+07 2.62751e+07 2.6263e+07
          2.62622e+07 2.62759e+07 2.62767e+07 2.62646e+07 2.62638e+07 2.62774e+07 2.62782e+07 2.62662e+07 2.62654e+07 2.6279e+07 2.62797e+07 2.62677e+07
          2.62669e+07 2.62804e+07 2.62811e+07 2.62691e+07 2.62684e+07 2.62817e+07 2.62823e+07 2.62703e+07 2.62697e+07 2.62828e+07 2.62834e+07 2.62714e+07
          2.62709e+07 2.62839e+07 2.62844e+07 2.62724e+07 2.62719e+07 2.62849e+07 2.62855e+07 2.62734e+07 2.62729e+07 2.6286e+07 2.62865e+07 2.62745e+07
          2.6274e+07 2.6287e+07 2.62875e+07 2.62754e+07 2.6275e+07 2.62879e+07 2.62884e+07 2.62764e+07 2.62759e+07 2.62889e+07 2.62893e+07 2.62772e+07
          2.62768e+07 2.62897e+07 2.62901e+07 2.6278e+07 2.62776e+07 2.62905e+07 2.62909e+07 2.62788e+07 2.62784e+07 2.62912e+07 2.62915e+07 2.62794e+07
          2.62791e+07 2.62918e+07 2.6292e+07 2.62799e+07 2.62797e+07 2.62922e+07 2.62924e+07 2.62803e+07 2.62801e+07 2.62925e+07 2.62926e+07 2.62805e+07
          2.62804e+07 2.62927e+07 2.62927e+07 2.62806e+07 2.62806e+07 2.62425e+07 2.62435e+07 2.62314e+07 2.62291e+07 2.62414e+07 2.62303e+07 2.62445e+07
          2.62455e+07 2.62335e+07 2.62324e+07 2.62465e+07 2.62474e+07 2.62354e+07 2.62344e+07 2.62484e+07 2.62492e+07 2.62372e+07 2.62363e+07 2.62501e+07
          2.62509e+07 2.62389e+07 2.62381e+07 2.62518e+07 2.62526e+07 2.62405e+07 2.62397e+07 2.62533e+07 2.62541e+07 2.62421e+07 2.62413e+07 2.62549e+07
          2.62556e+07 2.62436e+07 2.62428e+07 2.62563e+07 2.6257e+07 2.62449e+07 2.62443e+07 2.62576e+07 2.62582e+07 2.62462e+07 2.62456e+07 2.62588e+07
          2.62594e+07 2.62473e+07 2.62468e+07 2.62599e+07 2.62604e+07 2.62484e+07 2.62479e+07 2.62609e+07 2.62614e+07 2.62494e+07 2.62489e+07 2.62619e+07
          2.62624e+07 2.62504e+07 2.62499e+07 2.62629e+07 2.62634e+07 2.62514e+07 2.62509e+07 2.62639e+07 2.62643e+07 2.62523e+07 2.62519e+07 2.62648e+07
          2.62652e+07 2.62532e+07 2.62528e+07 2.62656e+07 2.6266e+07 2.6254e+07 2.62536e+07 2.62664e+07 2.62667e+07 2.62547e+07 2.62543e+07 2.6267e+07
          2.62673e+07 2.62553e+07 2.6255e+07 2.62676e+07 2.62678e+07 2.62557e+07 2.62555e+07 2.6268e+07 2.62682e+07 2.62561e+07 2.62559e+07 2.62683e+07
          2.62684e+07 2.62563e+07 2.62562e+07 2.62684e+07 2.62685e+07 2.62564e+07 2.62564e+07 2.62181e+07 2.62193e+07 2.62072e+07 2.62046e+07 2.62169e+07
          2.6206e+07 2.62204e+07 2.62214e+07 2.62094e+07 2.62084e+07 2.62224e+07 2.62234e+07 2.62114e+07 2.62104e+07 2.62243e+07 2.62252e+07 2.62132e+07
          2.62123e+07 2.6226e+07 2.62269e+07 2.62149e+07 2.6214e+07 2.62277e+07 2.62285e+07 2.62165e+07 2.62157e+07 2.62293e+07 2.62301e+07 2.62181e+07