<?xml version="1.0"?>
<VTKFile type="UnstructuredGrid" version="0.1" byte_order="LittleEndian">
  <UnstructuredGrid>
    <Piece NumberOfCells="330" NumberOfPoints="368">
      <PointData Scalars="Sn" Vectors="velocityW">
        <DataArray type="Float32" Name="Sn" NumberOfComponents="1" format="ascii">
          0.81814 0.818138 0.908876 0.908875 0.818131 0.90887 0.818121 0.908862 0.818107 0.908852 0.81809 0.908839
          0.818072 0.908826 0.818052 0.908811 0.818032 0.908797 0.818012 0.908783 0.817994 0.90877 0.817978 0.908759
          0.817964 0.90875 0.817955 0.908744 0.817948 0.90874 0.817946 0.908738 0.943602 0.9436 0.943593 0.943581
          0.943566 0.943549 0.943531 0.943512 0.943494 0.943477 0.943461 0.943448 0.943438 0.94343 0.943425 0.943424
          0.957271 0.957267 0.957257 0.957242 0.957222 0.957199 0.957175 0.95715 0.957127 0.957106 0.957087 0.957071
          0.957059 0.957049 0.957044 0.957042 0.963398 0.963394 0.963382 0.963362 0.963338 0.96331 0.963281 0.963253
          0.963226 0.963201 0.96318 0.963161 0.963147 0.963136 0.96313 0.963127 0.966802 0.966797 0.966782 0.966759
          0.966731 0.966699 0.966666 0.966634 0.966603 0.966576 0.966552 0.966531 0.966515 0.966503 0.966496 0.966493
          0.969159 0.969154 0.969137 0.96911 0.969078 0.969043 0.969006 0.968971 0.968937 0.968907 0.968881 0.968858
          0.96884 0.968827 0.968819 0.968816 0.971077 0.971071 0.971051 0.971022 0.970986 0.970947 0.970907 0.970869
          0.970833 0.9708 0.970772 0.970747 0.970727 0.970713 0.970703 0.9707 0.972786 0.972778 0.972757 0.972724
          0.972685 0.972642 0.972599 0.972558 0.97252 0.972485 0.972455 0.972429 0.972407 0.972391 0.972381 0.972377
          0.974379 0.974371 0.974347 0.974311 0.974269 0.974223 0.974177 0.974134 0.974093 0.974057 0.974025 0.973996
          0.973973 0.973955 0.973944 0.97394 0.975901 0.975892 0.975865 0.975827 0.975781 0.975732 0.975684 0.975638
          0.975596 0.975558 0.975524 0.975494 0.975469 0.97545 0.975438 0.975433 0.977376 0.977366 0.977336 0.977294
          0.977245 0.977194 0.977143 0.977096 0.977052 0.977013 0.976977 0.976945 0.976919 0.976898 0.976885 0.97688
          0.978823 0.978811 0.978778 0.978732 0.978679 0.978626 0.978573 0.978525 0.978479 0.978438 0.978401 0.978368
          0.97834 0.978317 0.978303 0.978297 0.980261 0.980247 0.980209 0.980159 0.980103 0.980046 0.979992 0.979942
          0.979895 0.979853 0.979814 0.979779 0.979749 0.979725 0.979709 0.979703 0.981719 0.981701 0.981656 0.9816
          0.981539 0.98148 0.981424 0.981371 0.981324 0.981279 0.981239 0.981202 0.981171 0.981144 0.981126 0.981119
          0.983158 0.983136 0.983086 0.983024 0.98296 0.9829 0.982844 0.982792 0.982745 0.9827 0.98266 0.982623
          0.98259 0.982563 0.982544 0.982536 0.984593 0.984565 0.984503 0.984433 0.984364 0.984302 0.984245 0.984194
          0.984147 0.984102 0.984061 0.984024 0.98399 0.983962 0.983941 0.983933 0.986127 0.986083 0.985996 0.985902
          0.985816 0.985744 0.985682 0.985627 0.985578 0.985531 0.985487 0.985448 0.985413 0.985382 0.985358 0.985348
          0.98819 0.988103 0.98795 0.987789 0.987646 0.987532 0.987449 0.987379 0.987316 0.987256 0.987199 0.987149
          0.987104 0.987063 0.98703 0.987015 0.992116 0.991856 0.991457 0.991057 0.990682 0.990346 0.990193 0.990079
          0.989976 0.989876 0.989783 0.9897 0.989626 0.989558 0.9895 0.989473 1 1 1 1
          1 0.999751 0.99905 0.998434 0.997925 0.997439 0.997017 0.996657 0.996348 0.996063 0.995821 0.995694
          1 1 1 1 1 1 1 1 1 1 1 1
          1 1 1 1 1 1 1 1 1 1 1 1
          1 1 1 1 1 1 1 1
        </DataArray>
        <DataArray type="Float32" Name="Sw" NumberOfComponents="1" format="ascii">
          0.18186 0.181862 0.0911235 0.0911252 0.181869 0.0911301 0.181879 0.0911379 0.181893 0.0911483 0.181909 0.0911607
          0.181928 0.0911744 0.181948 0.0911888 0.181968 0.0912032 0.181988 0.091217 0.182006 0.0912296 0.182022 0.0912406
          0.182036 0.0912496 0.182045 0.0912562 0.182052 0.0912603 0.182054 0.0912617 0.0563977 0.0564002 0.0564074 0.0564188
          0.0564336 0.0564507 0.0564692 0.056488 0.0565063 0.0565234 0.0565387 0.0565518 0.0565623 0.0565699 0.0565746 0.0565762
          0.0427293 0.0427327 0.0427427 0.0427584 0.0427785 0.0428013 0.0428255 0.0428496 0.0428727 0.042894 0.0429127 0.0429286
          0.0429413 0.0429506 0.0429562 0.0429581 0.0366016 0.0366059 0.0366184 0.0366378 0.0366623 0.0366899 0.0367188 0.0367472
          0.0367742 0.0367988 0.0368204 0.0368387 0.0368533 0.0368639 0.0368704 0.0368726 0.0331983 0.0332034 0.0332182 0.033241
          0.0332695 0.0333012 0.0333341 0.0333663 0.0333965 0.033424 0.0334481 0.0334685 0.0334849 0.0334969 0.0335043 0.0335068
          0.0308406 0.0308465 0.0308635 0.0308895 0.0309218 0.0309574 0.0309939 0.0310294 0.0310626 0.0310926 0.0311191 0.0311415
          0.0311597 0.0311731 0.0311813 0.0311841 0.0289227 0.0289295 0.0289487 0.0289779 0.0290138 0.029053 0.0290929 0.0291314
          0.0291672 0.0291996 0.0292282 0.0292527 0.0292726 0.0292874 0.0292965 0.0292997 0.0272142 0.0272218 0.0272433 0.0272757
          0.0273151 0.0273577 0.0274006 0.0274417 0.0274799 0.0275145 0.0275451 0.0275715 0.0275931 0.0276093 0.0276195 0.0276229
          0.0256207 0.0256291 0.0256531 0.0256887 0.0257314 0.0257771 0.0258227 0.0258662 0.0259065 0.025943 0.0259755 0.0260036
          0.0260269 0.0260446 0.0260558 0.0260596 0.0240986 0.0241081 0.0241346 0.0241735 0.0242194 0.024268 0.0243161 0.0243616
          0.0244037 0.0244419 0.0244761 0.0245059 0.0245309 0.0245501 0.0245623 0.0245666 0.0226237 0.0226344 0.0226637 0.022706
          0.0227552 0.0228064 0.0228566 0.022904 0.0229477 0.0229874 0.0230231 0.0230546 0.0230812 0.023102 0.0231154 0.0231201
          0.0211771 0.0211892 0.0212221 0.0212682 0.0213206 0.0213744 0.0214265 0.0214755 0.0215206 0.0215618 0.021599 0.0216321
          0.0216604 0.0216827 0.0216975 0.0217027 0.0197389 0.0197531 0.0197906 0.0198413 0.0198972 0.0199536 0.0200077 0.0200582
          0.0201046 0.0201472 0.020186 0.0202206 0.0202507 0.0202749 0.0202911 0.020297 0.0182814 0.0182992 0.0183435 0.0184005
          0.0184609 0.0185202 0.0185764 0.0186285 0.0186764 0.0187206 0.0187611 0.0187975 0.0188295 0.0188557 0.018874 0.0188807
          0.016842 0.0168636 0.0169144 0.0169764 0.0170396 0.0170997 0.017156 0.0172078 0.0172553 0.0172995 0.0173403 0.0173771
          0.0174095 0.0174369 0.0174563 0.0174637 0.0154071 0.0154354 0.0154968 0.0155674 0.0156358 0.0156979 0.0157545 0.0158062
          0.0158534 0.0158979 0.0159391 0.0159763 0.0160095 0.016038 0.0160592 0.0160675 0.0138725 0.0139167 0.0140037 0.0140977
          0.0141837 0.014256 0.0143179 0.0143726 0.0144222 0.0144693 0.014513 0.0145523 0.0145874 0.0146183 0.0146421 0.0146519
          0.01181 0.0118966 0.0120501 0.0122108 0.0123538 0.012468 0.0125514 0.0126211 0.0126839 0.0127444 0.0128007 0.0128512
          0.0128964 0.0129373 0.0129703 0.0129848 0.00788358 0.00814442 0.0085433 0.00894254 0.00931806 0.0096538 0.00980654 0.00992101
          0.0100239 0.0101243 0.010217 0.0102997 0.0103735 0.010442 0.0104996 0.0105271 0 0 0 0
          0 0.000248692 0.000950481 0.0015658 0.0020755 0.00256055 0.00298289 0.00334285 0.00365245 0.00393718 0.0041789 0.00430609
          0 0 0 0 0 0 0 0 0 0 0 0
          0 0 0 0 0 0 0 0 0 0 0 0
          0 0 0 0 0 0 0 0
        </DataArray>
        <DataArray type="Float32" Name="pn" NumberOfComponents="1" format="ascii">
          100003 100003 100002 100002 100003 100002 100003 100002 100003 100002 100003 100002
          100003 100002 100003 100002 100003 100002 100003 100002 100003 100002 100003 100002
          100003 100002 100003 100002 100003 100002 100003 100002 100002 100002 100002 100002
          100002 100002 100002 100002 100002 100002 100002 100002 100002 100002 100002 100002
          100002 100002 100002 100002 100002 100002 100002 100002 100002 100002 100002 100002
          100002 100002 100002 100002 100002 100002 100002 100002 100002 100002 100002 100002
          100002 100002 100002 100002 100002 100002 100002 100002 100001 100001 100001 100001
          100001 100001 100001 100001 100001 100001 100001 100001 100001 100001 100001 100001
          100001 100001 100001 100001 100001 100001 100001 100001 100001 100001 100001 100001
          100001 100001 100001 100001 100001 100001 100001 100001 100001 100001 100001 100001
          100001 100001 100001 100001 100001 100001 100001 100001 100001 100001 100001 100001
          100001 100001 100001 100001 100001 100001 100001 100001 100001 100001 100001 100001
          100001 100001 100001 100001 100001 100001 100001 100001 100001 100001 100001 100001
          100001 100001 100001 100001 100001 100001 100001 100001 100001 100001 100001 100001
          100001 100001 100001 100001 100001 100001 100001 100001 100001 100001 100001 100001
          100001 100001 100001 100001 100001 100001 100001 100001 100001 100001 100001 100001
          100000 100000 100000 100000 100000 100000 100000 100000 100000 100000 100000 100000
          100000 100000 100000 100000 100000 100000 100000 100000 100000 100000 100000 100000
          100000 100000 100000 100000 100000 100000 100000 100000 100000 100000 100000 100000
          100000 100000 100000 100000 100000 100000 100000 100000 100000 100000 100000 100000
          100000 100000 100000 100000 100000 100000 100000 100000 100000 100000 100000 100000
          100000 100000 100000 100000 100000 100000 100000 100000 100000 100000 100000 100000
          100000 100000 100000 100000 100000 100000 100000 100000 100000 100000 100000 100000
          100000 100000 100000 100000 100000 100000 100000 100000 100000 100000 100000 100000
          100000 100000 100000 100000 100000 100000 100000 100000 100000 100000 100000 100000
          100000 100000 100000 100000 100000 100000 100000 100000 100000 100000 100000 100000
          100000 100000 100000 100000 100000 100000 100000 100000 100000 100000 100000 100000
          100000 100000 100000 100000 100000 100000 100000 100000 100000 100000 100000 100000
          100000 100000 100000 100000 100000 100000 100000 100000 100000 100000 100000 100000
          100000 100000 100000 100000 100000 100000 100000 100000 100000 100000 100000 100000
          100000 100000 100000 100000 100000 100000 100000 100000
        </DataArray>
        <DataArray type="Float32" Name="pw" NumberOfComponents="1" format="ascii">
          97946.3 97946.3 97650.6 97650.6 97946.4 97650.6 97946.4 97650.7 97946.4 97650.7 97946.4 97650.8
          97946.5 97650.9 97946.5 97650.9 97946.6 97651 97946.6 97651.1 97946.7 97651.1 97946.7 97651.2
          97946.7 97651.2 97946.8 97651.2 97946.8 97651.3 97946.8 97651.3 97425 97425 97425.1 97425.2
          97425.3 97425.5 97425.6 97425.8 97426 97426.1 97426.3 97426.4 97426.5 97426.5 97426.6 97426.6
          97282.2 97282.3 97282.4 97282.6 97282.8 97283.1 97283.4 97283.7 97284 97284.3 97284.5 97284.7
          97284.9 97285 97285 97285.1 97197.3 97197.4 97197.6 97197.9 97198.3 97198.7 97199.1 97199.6
          97200 97200.3 97200.7 97200.9 97201.2 97201.3 97201.4 97201.5 97141.5 97141.6 97141.8 97142.2
          97142.7 97143.3 97143.9 97144.4 97144.9 97145.4 97145.8 97146.2 97146.5 97146.7 97146.8 97146.8
          97098 97098.1 97098.5 97099 97099.6 97100.3 97101 97101.6 97102.3 97102.9 97103.4 97103.8
          97104.1 97104.4 97104.5 97104.6 97059.1 97059.3 97059.7 97060.3 97061 97061.9 97062.7 97063.5
          97064.2 97064.9 97065.5 97066 97066.4 97066.8 97066.9 97067 97021.3 97021.5 97022 97022.7
          97023.6 97024.6 97025.6 97026.5 97027.4 97028.2 97028.9 97029.5 97030 97030.3 97030.5 97030.6
          96982.9 96983.1 96983.7 96984.6 96985.7 96986.8 96988 96989 96990 96990.9 96991.7 96992.4
          96993 96993.4 96993.7 96993.8 96942.9 96943.2 96943.9 96945 96946.2 96947.5 96948.8 96950.1
          96951.2 96952.2 96953.1 96953.9 96954.6 96955.1 96955.4 96955.6 96900.5 96900.8 96901.7 96902.9
          96904.4 96905.9 96907.4 96908.8 96910.1 96911.3 96912.3 96913.2 96914 96914.6 96915 96915.2
          96854.6 96855 96856.1 96857.7 96859.4 96861.2 96862.9 96864.5 96865.9 96867.3 96868.5 96869.5
          96870.4 96871.1 96871.6 96871.8 96804.1 96804.7 96806 96807.9 96810 96812 96814 96815.8
          96817.5 96819 96820.4 96821.6 96822.7 96823.6 96824.1 96824.4 96746.8 96747.5 96749.3 96751.7
          96754.2 96756.6 96758.9 96761 96763 96764.8 96766.4 96767.8 96769.1 96770.2 96770.9 96771.2
          96682.4 96683.4 96685.9 96688.8 96691.8 96694.6 96697.2 96699.6 96701.8 96703.8 96705.6 96707.3
          96708.8 96710 96710.9 96711.2 96608.5 96610.1 96613.5 96617.3 96621.1 96624.4 96627.5 96630.2
          96632.7 96635 96637.2 96639.2 96640.9 96642.4 96643.5 96643.9 96518.7 96521.3 96526.5 96532
          96537.1 96541.4 96545.1 96548.3 96551.2 96554 96556.6 96558.9 96561 96562.8 96564.2 96564.8
          96396.6 96401.7 96410.8 96420.3 96428.8 96435.5 96440.5 96444.6 96448.3 96451.9 96455.2 96458.2
          96460.9 96463.3 96465.3 96466.1 96164.2 96179.6 96203.2 96226.9 96249.1 96268.9 96278 96284.8
          96290.8 96296.8 96302.3 96307.2 96311.5 96315.6 96319 96320.6 95697.6 95697.6 95697.6 95697.6
          95697.6 95712.3 95753.8 95790.2 95820.4 95849.1 95874.1 95895.4 95913.7 95930.6 95944.9 95952.4
          95697.5 95697.5 95697.5 95697.5 95697.5 95697.5 95697.5 95697.5 95697.5 95697.5 95697.5 95697.5
          95697.5 95697.5 95697.5 95697.5 95697.5 95697.5 95697.5 95697.5 95697.5 95697.5 95697.5 95697.5
          95697.5 95697.5 95697.5 95697.5 95697.5 95697.5 95697.5 95697.5
        </DataArray>
        <DataArray type="Float32" Name="pc" NumberOfComponents="1" format="ascii">
          2056.5 2056.5 2351.89 2351.88 2056.48 2351.86 2056.46 2351.82 2056.43 2351.77 2056.39 2351.71
          2056.35 2351.64 2056.3 2351.57 2056.26 2351.5 2056.21 2351.43 2056.17 2351.37 2056.14 2351.31
          2056.1 2351.27 2056.08 2351.24 2056.07 2351.22 2056.06 2351.21 2577.16 2577.14 2577.07 2576.97
          2576.84 2576.69 2576.53 2576.37 2576.2 2576.06 2575.92 2575.81 2575.72 2575.65 2575.61 2575.59
          2719.68 2719.64 2719.52 2719.32 2719.07 2718.78 2718.48 2718.18 2717.9 2717.63 2717.4 2717.2
          2717.04 2716.93 2716.86 2716.84 2804.33 2804.26 2804.07 2803.78 2803.4 2802.98 2802.54 2802.1
          2801.69 2801.32 2800.99 2800.71 2800.49 2800.33 2800.23 2800.2 2859.96 2859.87 2859.61 2859.21
          2858.72 2858.16 2857.59 2857.03 2856.51 2856.03 2855.62 2855.26 2854.98 2854.77 2854.65 2854.6
          2903.25 2903.13 2902.8 2902.3 2901.68 2901 2900.3 2899.62 2898.98 2898.41 2897.9 2897.47
          2897.13 2896.87 2896.71 2896.66 2941.97 2941.83 2941.42 2940.81 2940.05 2939.23 2938.39 2937.59
          2936.84 2936.16 2935.57 2935.06 2934.65 2934.34 2934.15 2934.08 2979.62 2979.45 2978.95 2978.21
          2977.31 2976.33 2975.35 2974.42 2973.55 2972.77 2972.07 2971.48 2970.99 2970.62 2970.39 2970.32
          3017.89 3017.68 3017.08 3016.19 3015.12 3013.98 3012.85 3011.77 3010.78 3009.88 3009.08 3008.39
          3007.82 3007.38 3007.11 3007.02 3057.78 3057.52 3056.8 3055.74 3054.49 3053.17 3051.86 3050.63
          3049.5 3048.47 3047.56 3046.76 3046.09 3045.58 3045.25 3045.14 3100.13 3099.81 3098.92 3097.66
          3096.19 3094.66 3093.17 3091.77 3090.48 3089.31 3088.27 3087.34 3086.57 3085.96 3085.57 3085.43
          3145.86 3145.45 3144.36 3142.84 3141.11 3139.35 3137.64 3136.04 3134.58 3133.25 3132.04 3130.98
          3130.07 3129.35 3128.88 3128.71 3196.29 3195.76 3194.38 3192.51 3190.46 3188.41 3186.44 3184.61
          3182.94 3181.41 3180.02 3178.78 3177.71 3176.85 3176.27 3176.07 3253.6 3252.86 3251.01 3248.65
          3246.15 3243.72 3241.42 3239.31 3237.37 3235.59 3233.96 3232.5 3231.23 3230.18 3229.45 3229.19
          3317.87 3316.84 3314.42 3311.49 3308.52 3305.71 3303.1 3300.71 3298.52 3296.5 3294.64 3292.97
          3291.49 3290.26 3289.38 3289.05 3391.7 3390.13 3386.75 3382.88 3379.16 3375.82 3372.78 3370.03
          3367.52 3365.18 3363.02 3361.07 3359.34 3357.86 3356.77 3356.34 3481.48 3478.86 3473.71 3468.15
          3463.06 3458.78 3455.12 3451.88 3448.94 3446.16 3443.57 3441.25 3439.17 3437.34 3435.93 3435.35
          3603.54 3598.42 3589.33 3579.82 3571.36 3564.6 3559.66 3555.54 3551.82 3548.24 3544.91 3541.92
          3539.25 3536.82 3534.87 3534.01 3835.92 3820.48 3796.87 3773.24 3751.02 3731.15 3722.11 3715.34
          3709.25 3703.3 3697.82 3692.93 3688.56 3684.5 3681.09 3679.47 4302.49 4302.49 4302.49 4302.49
          4302.49 4287.77 4246.23 4209.82 4179.65 4150.95 4125.95 4104.65 4086.32 4069.47 4055.17 4047.64
          4302.49 4302.49 4302.49 4302.49 4302.49 4302.49 4302.49 4302.49 4302.49 4302.49 4302.49 4302.49
          4302.49 4302.49 4302.49 4302.49 4302.49 4302.49 4302.49 4302.49 4302.49 4302.49 4302.49 4302.49
          4302.49 4302.49 4302.49 4302.49 4302.49 4302.49 4302.49 4302.49
        </DataArray>
        <DataArray type="Float32" Name="rhoW" NumberOfComponents="1" format="ascii">
          997.047 997.047 997.047 997.047 997.047 997.047 997.047 997.047 997.047 997.047 997.047 997.047
          997.047 997.047 997.047 997.047 997.047 997.047 997.047 997.047 997.047 997.047 997.047 997.047
          997.047 997.047 997.047 997.047 997.047 997.047 997.047 997.047 997.047 997.047 997.047 997.047
          997.047 997.047 997.047 997.047 997.047 997.047 997.047 997.047 997.047 997.047 997.047 997.047
          997.046 997.046 997.046 997.046 997.046 997.046 997.046 997.046 997.046 997.046 997.046 997.046
          997.046 997.046 997.046 997.046 997.046 997.046 997.046 997.046 997.046 997.046 997.046 997.046
          997.046 997.046 997.046 997.046 997.046 997.046 997.046 997.046 997.046 997.046 997.046 997.046
          997.046 997.046 997.046 997.046 997.046 997.046 997.046 997.046 997.046 997.046 997.046 997.046
          997.046 997.046 997.046 997.046 997.046 997.046 997.046 997.046 997.046 997.046 997.046 997.046
          997.046 997.046 997.046 997.046 997.046 997.046 997.046 997.046 997.046 997.046 997.046 997.046
          997.046 997.046 997.046 997.046 997.046 997.046 997.046 997.046 997.046 997.046 997.046 997.046
          997.046 997.046 997.046 997.046 997.046 997.046 997.046 997.046 997.046 997.046 997.046 997.046
          997.046 997.046 997.046 997.046 997.046 997.046 997.046 997.046 997.046 997.046 997.046 997.046
          997.046 997.046 997.046 997.046 997.046 997.046 997.046 997.046 997.046 997.046 997.046 997.046
          997.046 997.046 997.046 997.046 997.046 997.046 997.046 997.046 997.046 997.046 997.046 997.046
          997.046 997.046 997.046 997.046 997.046 997.046 997.046 997.046 997.046 997.046 997.046 997.046
          997.046 997.046 997.046 997.046 997.046 997.046 997.046 997.046 997.046 997.046 997.046 997.046
          997.046 997.046 997.046 997.046 997.046 997.046 997.046 997.046 997.046 997.046 997.046 997.046
          997.046 997.046 997.046 997.046 997.046 997.046 997.046 997.046 997.046 997.046 997.046 997.046
          997.046 997.046 997.046 997.046 997.046 997.046 997.046 997.046 997.046 997.046 997.046 997.046
          997.046 997.046 997.046 997.046 997.046 997.046 997.046 997.046 997.046 997.046 997.046 997.046
          997.046 997.046 997.046 997.046 997.046 997.046 997.046 997.046 997.046 997.046 997.046 997.046
          997.046 997.046 997.046 997.046 997.046 997.046 997.046 997.046 997.046 997.046 997.046 997.046
          997.046 997.046 997.046 997.046 997.046 997.046 997.046 997.046 997.046 997.046 997.046 997.046
          997.046 997.046 997.046 997.046 997.046 997.046 997.046 997.046 997.046 997.046 997.046 997.046
          997.046 997.046 997.046 997.046 997.046 997.046 997.046 997.046 997.046 997.046 997.046 997.046
          997.046 997.046 997.046 997.046 997.046 997.046 997.046 997.046 997.046 997.046 997.046 997.046
          997.046 997.046 997.046 997.046 997.046 997.046 997.046 997.046 997.046 997.046 997.046 997.046
          997.046 997.046 997.046 997.046 997.046 997.046 997.046 997.046 997.046 997.046 997.046 997.046
          997.046 997.046 997.046 997.046 997.046 997.046 997.046 997.046 997.046 997.046 997.046 997.046
          997.046 997.046 997.046 997.046 997.046 997.046 997.046 997.046
        </DataArray>
        <DataArray type="Float32" Name="rhoN" NumberOfComponents="1" format="ascii">
          1.15427 1.15427 1.15427 1.15427 1.15427 1.15427 1.15427 1.15427 1.15427 1.15427 1.15427 1.15427
          1.15427 1.15427 1.15427 1.15427 1.15427 1.15427 1.15427 1.15427 1.15427 1.15427 1.15427 1.15427
          1.15427 1.15427 1.15427 1.15427 1.15427 1.15427 1.15427 1.15427 1.15426 1.15426 1.15426 1.15426
          1.15426 1.15426 1.15426 1.15426 1.15426 1.15426 1.15426 1.15426 1.15426 1.15426 1.15426 1.15426
          1.15426 1.15426 1.15426 1.15426 1.15426 1.15426 1.15426 1.15426 1.15426 1.15426 1.15426 1.15426
          1.15426 1.15426 1.15426 1.15426 1.15426 1.15426 1.15426 1.15426 1.15426 1.15426 1.15426 1.15426
          1.15426 1.15426 1.15426 1.15426 1.15426 1.15426 1.15426 1.15426 1.15425 1.15425 1.15425 1.15425
          1.15425 1.15425 1.15425 1.15425 1.15425 1.15425 1.15425 1.15425 1.15425 1.15425 1.15425 1.15425
          1.15425 1.15425 1.15425 1.15425 1.15425 1.15425 1.15425 1.15425 1.15425 1.15425 1.15425 1.15425
          1.15425 1.15425 1.15425 1.15425 1.15425 1.15425 1.15425 1.15425 1.15425 1.15425 1.15425 1.15425
          1.15425 1.15425 1.15425 1.15425 1.15425 1.15425 1.15425 1.15425 1.15425 1.15425 1.15425 1.15425
          1.15425 1.15425 1.15425 1.15425 1.15425 1.15425 1.15425 1.15425 1.15425 1.15425 1.15425 1.15425
          1.15425 1.15425 1.15425 1.15425 1.15425 1.15425 1.15425 1.15425 1.15425 1.15425 1.15425 1.15425
          1.15425 1.15425 1.15425 1.15425 1.15425 1.15425 1.15425 1.15425 1.15425 1.15425 1.15425 1.15425
          1.15425 1.15425 1.15425 1.15425 1.15425 1.15425 1.15425 1.15425 1.15424 1.15424 1.15424 1.15424
          1.15424 1.15424 1.15424 1.15424 1.15424 1.15424 1.15424 1.15424 1.15424 1.15424 1.15424 1.15424
          1.15424 1.15424 1.15424 1.15424 1.15424 1.15424 1.15424 1.15424 1.15424 1.15424 1.15424 1.15424
          1.15424 1.15424 1.15424 1.15424 1.15424 1.15424 1.15424 1.15424 1.15424 1.15424 1.15424 1.15424
          1.15424 1.15424 1.15424 1.15424 1.15424 1.15424 1.15424 1.15424 1.15424 1.15424 1.15424 1.15424
          1.15424 1.15424 1.15424 1.15424 1.15424 1.15424 1.15424 1.15424 1.15424 1.15424 1.15424 1.15424
          1.15424 1.15424 1.15424 1.15424 1.15424 1.15424 1.15424 1.15424 1.15424 1.15424 1.15424 1.15424
          1.15424 1.15424 1.15424 1.15424 1.15424 1.15424 1.15424 1.15424 1.15424 1.15424 1.15424 1.15424
          1.15424 1.15424 1.15424 1.15424 1.15424 1.15424 1.15424 1.15424 1.15424 1.15424 1.15424 1.15424
          1.15424 1.15424 1.15424 1.15424 1.15424 1.15424 1.15424 1.15424 1.15424 1.15424 1.15424 1.15424
          1.15424 1.15424 1.15424 1.15424 1.15424 1.15424 1.15424 1.15424 1.15424 1.15424 1.15424 1.15424
          1.15424 1.15424 1.15424 1.15424 1.15424 1.15424 1.15424 1.15424 1.15424 1.15424 1.15424 1.15424
          1.15424 1.15424 1.15424 1.15424 1.15424 1.15424 1.15424 1.15424 1.15678 1.15661 1.15634 1.15606
          1.1554 1.15424 1.15424 1.15424 1.15424 1.15424 1.15424 1.15424 1.15424 1.15424 1.15424 1.15424
          1.15941 1.15923 1.159 1.15878 1.15836 1.15769 1.1576 1.15755 1.1575 1.15746 1.15742 1.15739
          1.15736 1.15733 1.15731 1.15729 1.16176 1.16156 1.16137 1.1612 1.161 1.16074 1.16059 1.16048
          1.16039 1.16031 1.16024 1.16018 1.16012 1.16007 1.16002 1.15999
        </DataArray>
        <DataArray type="Float32" Name="mobW" NumberOfComponents="1" format="ascii">
          6.39944 6.39966 0.819943 0.819988 6.40033 0.820122 6.4014 0.820335 6.40283 0.820617 6.40455 0.820953
          6.40649 0.821325 6.40856 0.821716 6.41065 0.822107 6.4127 0.822482 6.41459 0.822825 6.41626 0.823125
          6.41764 0.823369 6.41866 0.823549 6.4193 0.82366 6.41951 0.823697 0.188644 0.18867 0.188745 0.188865
          0.189019 0.189198 0.189391 0.189588 0.18978 0.189959 0.19012 0.190257 0.190367 0.190448 0.190497 0.190513
          0.078316 0.0783364 0.0783956 0.0784883 0.0786068 0.078742 0.0788851 0.0790284 0.0791656 0.0792917 0.0794034 0.0794981
          0.0795737 0.0796289 0.0796625 0.0796738 0.0473229 0.0473413 0.0473946 0.0474773 0.0475819 0.0476999 0.0478234 0.0479455
          0.0480613 0.048167 0.0482602 0.048339 0.048402 0.0484481 0.0484762 0.0484857 0.0342326 0.0342503 0.0343013 0.03438
          0.0344787 0.034589 0.0347032 0.0348153 0.0349209 0.0350169 0.0351014 0.0351731 0.0352306 0.0352729 0.0352988 0.0353076
          0.0267108 0.0267282 0.0267781 0.0268548 0.02695 0.0270554 0.0271636 0.0272691 0.027368 0.0274577 0.0275369 0.0276043
          0.0276587 0.027699 0.0277238 0.0277322 0.021455 0.0214722 0.0215212 0.0215959 0.0216879 0.0217887 0.0218914 0.0219909
          0.0220838 0.0221681 0.0222426 0.0223064 0.0223584 0.0223972 0.0224213 0.0224294 0.0173821 0.017399 0.0174469 0.0175192
          0.0176073 0.017703 0.0177996 0.0178927 0.0179793 0.018058 0.0181279 0.0181881 0.0182376 0.0182749 0.0182982 0.0183062
          0.0140689 0.0140853 0.0141318 0.0142011 0.0142845 0.0143742 0.014464 0.01455 0.01463 0.0147026 0.0147675 0.0148238
          0.0148706 0.0149062 0.0149287 0.0149364 0.0113152 0.0113311 0.0113758 0.0114416 0.0115197 0.0116026 0.0116849 0.0117634
          0.0118362 0.0119025 0.011962 0.0120142 0.0120579 0.0120916 0.0121131 0.0121206 0.00900555 0.00902101 0.00906376 0.00912555
          0.00919768 0.00927328 0.00934775 0.00941834 0.00948374 0.00954353 0.00959747 0.00964514 0.0096856 0.00971721 0.00973769 0.00974484
          0.00706083 0.00707589 0.00711674 0.00717434 0.00724016 0.00730813 0.00737448 0.00743708 0.00749505 0.00754823 0.00759652 0.00763957
          0.00767654 0.00770588 0.00772523 0.00773207 0.00542005 0.00543496 0.00547422 0.00552769 0.00558709 0.0056473 0.00570554 0.00576022
          0.00581083 0.00585749 0.00590017 0.00593851 0.00597183 0.00599879 0.00601697 0.00602351 0.00403245 0.00404779 0.00408624 0.00413601
          0.00418921 0.00424181 0.00429209 0.00433904 0.00438248 0.00442281 0.00445999 0.00449362 0.0045232 0.00454767 0.00456467 0.00457094
          0.0029113 0.0029264 0.00296214 0.00300613 0.00305139 0.00309485 0.00313588 0.00317398 0.00320921 0.00324219 0.00327279 0.00330057
          0.00332524 0.00334606 0.00336098 0.00336664 0.00201736 0.00203295 0.0020671 0.00210682 0.0021458 0.00218156 0.00221453 0.00224485
          0.00227286 0.00229937 0.00232414 0.0023467 0.00236689 0.00238436 0.00239734 0.00240246 0.00128243 0.00130065 0.001337 0.00137703
          0.00141432 0.00144615 0.00147378 0.00149849 0.00152114 0.00154282 0.0015631 0.00158153 0.00159808 0.00161276 0.00162411 0.00162882
          0.000605026 0.000627111 0.000667568 0.000711681 0.000752508 0.000786167 0.000811353 0.000832784 0.000852427 0.000871632 0.000889721 0.000906177
          0.000921079 0.000934702 0.000945771 0.000950663 5.27347e-05 6.74337e-05 9.46538e-05 0.00012817 0.000165949 0.00020526 0.000224971 0.000240519
          0.000255066 0.000269816 0.000283909 0.000296865 0.000308763 0.000320069 0.000329785 0.000334482 0 0 0 0
          0 0 0 0 0 0 0 0 0 0 0 0
          0 0 0 0 0 0 0 0 0 0 0 0
          0 0 0 0 0 0 0 0 0 0 0 0
          0 0 0 0 0 0 0 0
        </DataArray>
        <DataArray type="Float32" Name="mobN" NumberOfComponents="1" format="ascii">
          40116.5 40116.4 48144.1 48144 40115.8 48143.5 40114.9 48142.7 40113.7 48141.6 40112.3 48140.4
          40110.6 48139 40108.9 48137.5 40107.1 48136.1 40105.4 48134.7 40103.8 48133.4 40102.4 48132.3
          40101.3 48131.4 40100.4 48130.7 40099.9 48130.3 40099.7 48130.1 51781.6 51781.4 51780.6 51779.5
          51778 51776.3 51774.5 51772.6 51770.8 51769.1 51767.6 51766.3 51765.2 51764.5 51764 51763.9
          53045.4 53045.1 53044.3 53043 53041.3 53039.3 53037.3 53035.3 53033.3 53031.5 53029.9 53028.6
          53027.5 53026.7 53026.3 53026.1 53533.2 53532.8 53531.9 53530.4 53528.6 53526.5 53524.4 53522.2
          53520.2 53518.4 53516.8 53515.4 53514.3 53513.5 53513 53512.8 53777.5 53777.1 53776.1 53774.6
          53772.6 53770.4 53768.1 53765.9 53763.8 53761.9 53760.3 53758.8 53757.7 53756.9 53756.4 53756.2
          53934.5 53934.1 53933 53931.3 53929.3 53927 53924.6 53922.3 53920.2 53918.2 53916.5 53915
          53913.9 53913 53912.4 53912.3 54054.3 54053.9 54052.7 54051 54048.8 54046.4 54044 54041.6
          54039.4 54037.5 54035.7 54034.2 54033 54032.1 54031.5 54031.3 54154.8 54154.4 54153.2 54151.3
          54149.1 54146.6 54144.2 54141.8 54139.6 54137.6 54135.8 54134.3 54133.1 54132.1 54131.5 54131.3
          54243.1 54242.7 54241.4 54239.5 54237.2 54234.7 54232.2 54229.9 54227.7 54225.7 54223.9 54222.4
          54221.1 54220.2 54219.5 54219.3 54322.3 54321.8 54320.5 54318.5 54316.2 54313.8 54311.3 54309
          54306.9 54304.9 54303.2 54301.6 54300.3 54299.4 54298.7 54298.5 54394.2 54393.7 54392.3 54390.3
          54388 54385.5 54383.2 54380.9 54378.8 54376.9 54375.2 54373.7 54372.4 54371.4 54370.8 54370.5
          54459.8 54459.3 54457.8 54455.8 54453.5 54451.2 54448.8 54446.7 54444.7 54442.8 54441.2 54439.7
          54438.4 54437.4 54436.8 54436.5 54520.2 54519.6 54518.1 54516.1 54513.8 54511.5 54509.3 54507.2
          54505.3 54503.6 54502 54500.5 54499.3 54498.3 54497.6 54497.4 54576.3 54575.7 54574 54571.9
          54569.7 54567.5 54565.4 54563.4 54561.6 54560 54558.4 54557 54555.8 54554.8 54554.1 54553.9
          54626.6 54625.9 54624.2 54622.1 54620 54618 54616.1 54614.3 54612.7 54611.2 54609.8 54608.5
          54607.4 54606.4 54605.8 54605.5 54671.4 54670.6 54668.8 54666.7 54664.6 54662.8 54661.1 54659.5
          54658.1 54656.7 54655.4 54654.3 54653.2 54652.4 54651.7 54651.4 54713.5 54712.4 54710.1 54707.7