<?xml version="1.0"?>
<VTKFile type="PolyData" version="0.1" byte_order="LittleEndian">
<PolyData>
<Piece NumberOfLines="0" NumberOfPoints="430">
<Points>
<DataArray type="Float32" Name="Coordinates" NumberOfComponents="3" format="ascii">
0.3 0 0 0.9 0 0 1.5 0 0 2.1 0 0 2.7 0 0 3.3 0 0 3.9 0 0 4.5 0 0 5.1 0 0 5.7 0 0 0.3 0.000239325 0 0.9 0.000239325 0 1.5 0.000239325 0 2.1 0.000239325 0 2.7 0.000239325 0 3.3 0.000239325 0 
3.9 0.000239325 0 4.5 0.000239325 0 5.1 0.000239325 0 5.7 0.000239325 0 0.3 0.000574381 0 0.9 0.000574381 0 1.5 0.000574381 0 2.1 0.000574381 0 2.7 0.000574381 0 3.3 0.000574381 0 3.9 0.000574381 0 4.5 0.000574381 0 5.1 0.000574381 0 5.7 0.000574381 0 0.3 0.00104346 0 0.9 0.00104346 0 
1.5 0.00104346 0 2.1 0.00104346 0 2.7 0.00104346 0 3.3 0.00104346 0 3.9 0.00104346 0 4.5 0.00104346 0 5.1 0.00104346 0 5.7 0.00104346 0 0.3 0.00170017 0 0.9 0.00170017 0 1.5 0.00170017 0 2.1 0.00170017 0 2.7 0.00170017 0 3.3 0.00170017 0 3.9 0.00170017 0 4.5 0.00170017 0 
5.1 0.00170017 0 5.7 0.00170017 0 0.3 0.00261956 0 0.9 0.00261956 0 1.5 0.00261956 0 2.1 0.00261956 0 2.7 0.00261956 0 3.3 0.00261956 0 3.9 0.00261956 0 4.5 0.00261956 0 5.1 0.00261956 0 5.7 0.00261956 0 0.3 0.00390671 0 0.9 0.00390671 0 1.5 0.00390671 0 2.1 0.00390671 0 
2.7 0.00390671 0 3.3 0.00390671 0 3.9 0.00390671 0 4.5 0.00390671 0 5.1 0.00390671 0 5.7 0.00390671 0 0.3 0.00570872 0 0.9 0.00570872 0 1.5 0.00570872 0 2.1 0.00570872 0 2.7 0.00570872 0 3.3 0.00570872 0 3.9 0.00570872 0 4.5 0.00570872 0 5.1 0.00570872 0 5.7 0.00570872 0 
0.3 0.00823153 0 0.9 0.00823153 0 1.5 0.00823153 0 2.1 0.00823153 0 2.7 0.00823153 0 3.3 0.00823153 0 3.9 0.00823153 0 4.5 0.00823153 0 5.1 0.00823153 0 5.7 0.00823153 0 0.3 0.0117635 0 0.9 0.0117635 0 1.5 0.0117635 0 2.1 0.0117635 0 2.7 0.0117635 0 3.3 0.0117635 0 
3.9 0.0117635 0 4.5 0.0117635 0 5.1 0.0117635 0 5.7 0.0117635 0 0.3 0.0167082 0 0.9 0.0167082 0 1.5 0.0167082 0 2.1 0.0167082 0 2.7 0.0167082 0 3.3 0.0167082 0 3.9 0.0167082 0 4.5 0.0167082 0 5.1 0.0167082 0 5.7 0.0167082 0 0.3 0.0236308 0 0.9 0.0236308 0 
1.5 0.0236308 0 2.1 0.0236308 0 2.7 0.0236308 0 3.3 0.0236308 0 3.9 0.0236308 0 4.5 0.0236308 0 5.1 0.0236308 0 5.7 0.0236308 0 0.3 0.0333224 0 0.9 0.0333224 0 1.5 0.0333224 0 2.1 0.0333224 0 2.7 0.0333224 0 3.3 0.0333224 0 3.9 0.0333224 0 4.5 0.0333224 0 
5.1 0.0333224 0 5.7 0.0333224 0 0.3 0.0468907 0 0.9 0.0468907 0 1.5 0.0468907 0 2.1 0.0468907 0 2.7 0.0468907 0 3.3 0.0468907 0 3.9 0.0468907 0 4.5 0.0468907 0 5.1 0.0468907 0 5.7 0.0468907 0 0.3 0.0658863 0 0.9 0.0658863 0 1.5 0.0658863 0 2.1 0.0658863 0 
2.7 0.0658863 0 3.3 0.0658863 0 3.9 0.0658863 0 4.5 0.0658863 0 5.1 0.0658863 0 5.7 0.0658863 0 0.3 0.0924801 0 0.9 0.0924801 0 1.5 0.0924801 0 2.1 0.0924801 0 2.7 0.0924801 0 3.3 0.0924801 0 3.9 0.0924801 0 4.5 0.0924801 0 5.1 0.0924801 0 5.7 0.0924801 0 
0.3 0.129712 0 0.9 0.129712 0 1.5 0.129712 0 2.1 0.129712 0 2.7 0.129712 0 3.3 0.129712 0 3.9 0.129712 0 4.5 0.129712 0 5.1 0.129712 0 5.7 0.129712 0 0.3 0.181835 0 0.9 0.181835 0 1.5 0.181835 0 2.1 0.181835 0 2.7 0.181835 0 3.3 0.181835 0 
3.9 0.181835 0 4.5 0.181835 0 5.1 0.181835 0 5.7 0.181835 0 0.3 0.254809 0 0.9 0.254809 0 1.5 0.254809 0 2.1 0.254809 0 2.7 0.254809 0 3.3 0.254809 0 3.9 0.254809 0 4.5 0.254809 0 5.1 0.254809 0 5.7 0.254809 0 0.3 0.356972 0 0.9 0.356972 0 
1.5 0.356972 0 2.1 0.356972 0 2.7 0.356972 0 3.3 0.356972 0 3.9 0.356972 0 4.5 0.356972 0 5.1 0.356972 0 5.7 0.356972 0 0.3 0.5 0 0.9 0.5 0 1.5 0.5 0 2.1 0.5 0 2.7 0.5 0 3.3 0.5 0 3.9 0.5 0 4.5 0.5 0 
5.1 0.5 0 5.7 0.5 0 0 0.000119663 0 0.6 0.000119663 0 1.2 0.000119663 0 1.8 0.000119663 0 2.4 0.000119663 0 3 0.000119663 0 3.6 0.000119663 0 4.2 0.000119663 0 4.8 0.000119663 0 5.4 0.000119663 0 6 0.000119663 0 0 0.000406853 0 0.6 0.000406853 0 1.2 0.000406853 0 
1.8 0.000406853 0 2.4 0.000406853 0 3 0.000406853 0 3.6 0.000406853 0 4.2 0.000406853 0 4.8 0.000406853 0 5.4 0.000406853 0 6 0.000406853 0 0 0.00080892 0 0.6 0.00080892 0 1.2 0.00080892 0 1.8 0.00080892 0 2.4 0.00080892 0 3 0.00080892 0 3.6 0.00080892 0 4.2 0.00080892 0 
4.8 0.00080892 0 5.4 0.00080892 0 6 0.00080892 0 0 0.00137181 0 0.6 0.00137181 0 1.2 0.00137181 0 1.8 0.00137181 0 2.4 0.00137181 0 3 0.00137181 0 3.6 0.00137181 0 4.2 0.00137181 0 4.8 0.00137181 0 5.4 0.00137181 0 6 0.00137181 0 0 0.00215986 0 0.6 0.00215986 0 
1.2 0.00215986 0 1.8 0.00215986 0 2.4 0.00215986 0 3 0.00215986 0 3.6 0.00215986 0 4.2 0.00215986 0 4.8 0.00215986 0 5.4 0.00215986 0 6 0.00215986 0 0 0.00326313 0 0.6 0.00326313 0 1.2 0.00326313 0 1.8 0.00326313 0 2.4 0.00326313 0 3 0.00326313 0 3.6 0.00326313 0 
4.2 0.00326313 0 4.8 0.00326313 0 5.4 0.00326313 0 6 0.00326313 0 0 0.00480771 0 0.6 0.00480771 0 1.2 0.00480771 0 1.8 0.00480771 0 2.4 0.00480771 0 3 0.00480771 0 3.6 0.00480771 0 4.2 0.00480771 0 4.8 0.00480771 0 5.4 0.00480771 0 6 0.00480771 0 0 0.00697012 0 
0.6 0.00697012 0 1.2 0.00697012 0 1.8 0.00697012 0 2.4 0.00697012 0 3 0.00697012 0 3.6 0.00697012 0 4.2 0.00697012 0 4.8 0.00697012 0 5.4 0.00697012 0 6 0.00697012 0 0 0.0099975 0 0.6 0.0099975 0 1.2 0.0099975 0 1.8 0.0099975 0 2.4 0.0099975 0 3 0.0099975 0 
3.6 0.0099975 0 4.2 0.0099975 0 4.8 0.0099975 0 5.4 0.0099975 0 6 0.0099975 0 0 0.0142358 0 0.6 0.0142358 0 1.2 0.0142358 0 1.8 0.0142358 0 2.4 0.0142358 0 3 0.0142358 0 3.6 0.0142358 0 4.2 0.0142358 0 4.8 0.0142358 0 5.4 0.0142358 0 6 0.0142358 0 
0 0.0201695 0 0.6 0.0201695 0 1.2 0.0201695 0 1.8 0.0201695 0 2.4 0.0201695 0 3 0.0201695 0 3.6 0.0201695 0 4.2 0.0201695 0 4.8 0.0201695 0 5.4 0.0201695 0 6 0.0201695 0 0 0.0284766 0 0.6 0.0284766 0 1.2 0.0284766 0 1.8 0.0284766 0 2.4 0.0284766 0 
3 0.0284766 0 3.6 0.0284766 0 4.2 0.0284766 0 4.8 0.0284766 0 5.4 0.0284766 0 6 0.0284766 0 0 0.0401066 0 0.6 0.0401066 0 1.2 0.0401066 0 1.8 0.0401066 0 2.4 0.0401066 0 3 0.0401066 0 3.6 0.0401066 0 4.2 0.0401066 0 4.8 0.0401066 0 5.4 0.0401066 0 
6 0.0401066 0 0 0.0563885 0 0.6 0.0563885 0 1.2 0.0563885 0 1.8 0.0563885 0 2.4 0.0563885 0 3 0.0563885 0 3.6 0.0563885 0 4.2 0.0563885 0 4.8 0.0563885 0 5.4 0.0563885 0 6 0.0563885 0 0 0.0791832 0 0.6 0.0791832 0 1.2 0.0791832 0 1.8 0.0791832 0 
2.4 0.0791832 0 3 0.0791832 0 3.6 0.0791832 0 4.2 0.0791832 0 4.8 0.0791832 0 5.4 0.0791832 0 6 0.0791832 0 0 0.111096 0 0.6 0.111096 0 1.2 0.111096 0 1.8 0.111096 0 2.4 0.111096 0 3 0.111096 0 3.6 0.111096 0 4.2 0.111096 0 4.8 0.111096 0 
5.4 0.111096 0 6 0.111096 0 0 0.155774 0 0.6 0.155774 0 1.2 0.155774 0 1.8 0.155774 0 2.4 0.155774 0 3 0.155774 0 3.6 0.155774 0 4.2 0.155774 0 4.8 0.155774 0 5.4 0.155774 0 6 0.155774 0 0 0.218322 0 0.6 0.218322 0 1.2 0.218322 0 
1.8 0.218322 0 2.4 0.218322 0 3 0.218322 0 3.6 0.218322 0 4.2 0.218322 0 4.8 0.218322 0 5.4 0.218322 0 6 0.218322 0 0 0.30589 0 0.6 0.30589 0 1.2 0.30589 0 1.8 0.30589 0 2.4 0.30589 0 3 0.30589 0 3.6 0.30589 0 4.2 0.30589 0 
4.8 0.30589 0 5.4 0.30589 0 6 0.30589 0 0 0.428486 0 0.6 0.428486 0 1.2 0.428486 0 1.8 0.428486 0 2.4 0.428486 0 3 0.428486 0 3.6 0.428486 0 4.2 0.428486 0 4.8 0.428486 0 5.4 0.428486 0 6 0.428486 0 
</DataArray>
</Points>
<PointData Scalars="v" Vectors="faceVelocity">
<DataArray type="Float32" Name="v" NumberOfComponents="1" format="ascii">
0 0 0 0 0 0 0 0 0 0 3.94956e-05 1.97127e-07 3.58586e-08 1.33835e-08 6.06295e-09 3.27245e-09 
2.15402e-09 1.64163e-09 1.19703e-09 1.04446e-09 9.34963e-05 1.11213e-06 2.06407e-07 7.70206e-08 3.48855e-08 1.88285e-08 1.23943e-08 9.44669e-09 6.88998e-09 5.97345e-09 0.000166627 3.5827e-06 
6.80632e-07 2.53926e-07 1.1499e-07 6.20602e-08 4.08553e-08 3.1142e-08 2.272e-08 1.95518e-08 0.000264342 9.20499e-06 1.80459e-06 6.7316e-07 3.04762e-07 1.64473e-07 1.08287e-07 8.25519e-08 
6.02498e-08 5.13297e-08 0.00039245 2.08738e-05 4.27391e-06 1.59467e-06 7.21752e-07 3.89498e-07 2.56483e-07 1.95565e-07 1.42807e-07 1.19971e-07 0.000555959 4.35125e-05 9.46025e-06 3.53485e-06 
1.59952e-06 8.63224e-07 5.68598e-07 4.33677e-07 3.16911e-07 2.61045e-07 0.000756857 8.47267e-05 1.99884e-05 7.50354e-06 3.39606e-06 1.83337e-06 1.20833e-06 9.22058e-07 6.74457e-07 5.40386e-07 
0.000990685 0.000154459 4.05893e-05 1.5425e-05 6.9948e-06 3.78097e-06 2.49485e-06 1.90512e-06 1.39529e-06 1.0755e-06 0.00124262 0.000261702 7.87545e-05 3.07921e-05 1.40752e-05 7.6418e-06 
5.05225e-06 3.85776e-06 2.82915e-06 2.06778e-06 0.00148593 0.000406601 0.000143451 5.95214e-05 2.79565e-05 1.53975e-05 1.01988e-05 7.74149e-06 5.67983e-06 3.86664e-06 0.00168739 0.000572275 
0.000239693 0.000110563 5.55863e-05 3.17723e-05 2.11154e-05 1.5755e-05 1.15372e-05 7.18371e-06 0.00182006 0.000727262 0.000359301 0.000191463 0.000107623 6.57123e-05 4.4396e-05 3.26152e-05 
2.38539e-05 1.35155e-05 0.00187312 0.000840534 0.00047506 0.000293843 0.000189106 0.000126772 8.94128e-05 6.60957e-05 4.87393e-05 2.55447e-05 0.001849 0.000897946 0.000554813 0.000385716 
0.000282266 0.000211585 0.000161015 0.000124013 9.41288e-05 4.70477e-05 0.00175206 0.000901338 0.000585736 0.000436687 0.00034931 0.000288703 0.000240737 0.000199724 0.0001607 7.95436e-05 
0.00158226 0.000853663 0.000570271 0.000440832 0.000369673 0.000323797 0.000288632 0.000257074 0.000221385 0.00011195 0.00133562 0.000752 0.000509674 0.000401269 0.000344385 0.000310276 
0.00028618 0.000265373 0.000238066 0.000123623 0.00100153 0.000587001 0.000400285 0.000317718 0.000275756 0.000251796 0.00023592 0.000222759 0.000202893 0.000107935 0.000568509 0.000345282 
0.000235667 0.00018725 0.000163096 0.000149691 0.000141145 0.000134201 0.000122562 6.67098e-05 0 0 0 0 0 0 0 0 
0 0 0.1 0.00098268 0.000488473 0.000398575 0.000365023 0.000349824 0.000341622 0.000336223 0.000332109 0.00032911 0.000326493 0.1 0.00329834 0.00165981 
0.0013544 0.00124045 0.00118884 0.00116099 0.00114266 0.00112868 0.00111849 0.00110967 0.1 0.00645778 0.00329766 0.00269108 0.00246481 0.00236235 0.00230707 0.00227067 
0.00224293 0.0022227 0.00220534 0.1 0.0107232 0.00558637 0.00455949 0.00417647 0.0040031 0.00390955 0.00384796 0.00380101 0.00376674 0.00373772 0.1 0.0163959 
0.0087808 0.00716932 0.00656796 0.00629586 0.00614903 0.00605235 0.00597863 0.00592478 0.00588001 0.1 0.0237812 0.0132282 0.0108107 0.00990627 0.00949714 0.00927636 
0.00913092 0.00901997 0.00893885 0.00887313 0.1 0.0331086 0.0193859 0.0158804 0.0145591 0.0139609 0.013638 0.013425 0.0132625 0.0131435 0.0130505 0.1 
0.0443886 0.0278041 0.0229047 0.0210208 0.020165 0.0197019 0.019396 0.0191623 0.018991 0.0188638 0.1 0.057201 0.0389829 0.0324995 0.0298891 0.0286864 
0.0280306 0.0275963 0.0272647 0.0270213 0.0268528 0.1 0.0704769 0.0528946 0.0450443 0.0415584 0.0398742 0.0389333 0.038309 0.0378379 0.0374922 0.0372741 
0.1 0.0825386 0.0681792 0.0598378 0.0554142 0.0530196 0.0516006 0.0506547 0.0499604 0.049453 0.0491657 0.1 0.0917872 0.0821922 0.0747876 0.0697794 
0.0665581 0.0644572 0.0630163 0.0619728 0.0612105 0.0608188 0.1 0.0976536 0.0926449 0.0875263 0.0829993 0.0793965 0.0766968 0.0747065 0.0732263 0.0721261 
0.0715945 0.1 0.100762 0.0989494 0.0964308 0.0935294 0.0905873 0.0879088 0.0856475 0.0838185 0.0823852 0.0817063 0.1 0.102188 0.102112 0.101415 
0.100266 0.098754 0.0970146 0.0952163 0.0935084 0.0920067 0.0912738 0.1 0.102738 0.103508 0.103759 0.103693 0.103365 0.1028 0.102028 0.101104 
0.100126 0.099604 0.1 0.102845 0.104018 0.104716 0.105172 0.105463 0.105619 0.105647 0.105551 0.105359 0.105224 0.1 0.102737 0.104088 
0.104984 0.105669 0.106231 0.106711 0.107123 0.107473 0.107762 0.10789 0.1 0.102546 0.103967 0.104934 0.105701 0.106363 0.106962 0.107519 
0.108039 0.10851 0.108752 0.1 0.102385 0.103834 0.104823 0.105609 0.106293 0.106922 0.107514 0.108077 0.108592 0.108872 
</DataArray>
<DataArray type="Float32" Name="faceVelocity" NumberOfComponents="3" format="ascii">
0 0 0 0 0 0 0 0 0 0 0 0 0 0 0 0 0 0 0 0 0 0 0 0 0 0 0 0 0 0 0 3.94956e-05 0 0 1.97127e-07 0 0 3.58586e-08 0 0 1.33835e-08 0 0 6.06295e-09 0 0 3.27245e-09 0 
0 2.15402e-09 0 0 1.64163e-09 0 0 1.19703e-09 0 0 1.04446e-09 0 0 9.34963e-05 0 0 1.11213e-06 0 0 2.06407e-07 0 0 7.70206e-08 0 0 3.48855e-08 0 0 1.88285e-08 0 0 1.23943e-08 0 0 9.44669e-09 0 0 6.88998e-09 0 0 5.97345e-09 0 0 0.000166627 0 0 3.5827e-06 0 
0 6.80632e-07 0 0 2.53926e-07 0 0 1.1499e-07 0 0 6.20602e-08 0 0 4.08553e-08 0 0 3.1142e-08 0 0 2.272e-08 0 0 1.95518e-08 0 0 0.000264342 0 0 9.20499e-06 0 0 1.80459e-06 0 0 6.7316e-07 0 0 3.04762e-07 0 0 1.64473e-07 0 0 1.08287e-07 0 0 8.25519e-08 0 
0 6.02498e-08 0 0 5.13297e-08 0 0 0.00039245 0 0 2.08738e-05 0 0 4.27391e-06 0 0 1.59467e-06 0 0 7.21752e-07 0 0 3.89498e-07 0 0 2.56483e-07 0 0 1.95565e-07 0 0 1.42807e-07 0 0 1.19971e-07 0 0 0.000555959 0 0 4.35125e-05 0 0 9.46025e-06 0 0 3.53485e-06 0 
0 1.59952e-06 0 0 8.63224e-07 0 0 5.68598e-07 0 0 4.33677e-07 0 0 3.16911e-07 0 0 2.61045e-07 0 0 0.000756857 0 0 8.47267e-05 0 0 1.99884e-05 0 0 7.50354e-06 0 0 3.39606e-06 0 0 1.83337e-06 0 0 1.20833e-06 0 0 9.22058e-07 0 0 6.74457e-07 0 0 5.40386e-07 0 
0 0.000990685 0 0 0.000154459 0 0 4.05893e-05 0 0 1.5425e-05 0 0 6.9948e-06 0 0 3.78097e-06 0 0 2.49485e-06 0 0 1.90512e-06 0 0 1.39529e-06 0 0 1.0755e-06 0 0 0.00124262 0 0 0.000261702 0 0 7.87545e-05 0 0 3.07921e-05 0 0 1.40752e-05 0 0 7.6418e-06 0 
0 5.05225e-06 0 0 3.85776e-06 0 0 2.82915e-06 0 0 2.06778e-06 0 0 0.00148593 0 0 0.000406601 0 0 0.000143451 0 0 5.95214e-05 0 0 2.79565e-05 0 0 1.53975e-05 0 0 1.01988e-05 0 0 7.74149e-06 0 0 5.67983e-06 0 0 3.86664e-06 0 0 0.00168739 0 0 0.000572275 0 
0 0.000239693 0 0 0.000110563 0 0 5.55863e-05 0 0 3.17723e-05 0 0 2.11154e-05 0 0 1.5755e-05 0 0 1.15372e-05 0 0 7.18371e-06 0 0 0.00182006 0 0 0.000727262 0 0 0.000359301 0 0 0.000191463 0 0 0.000107623 0 0 6.57123e-05 0 0 4.4396e-05 0 0 3.26152e-05 0 
0 2.38539e-05 0 0 1.35155e-05 0 0 0.00187312 0 0 0.000840534 0 0 0.00047506 0 0 0.000293843 0 0 0.000189106 0 0 0.000126772 0 0 8.94128e-05 0 0 6.60957e-05 0 0 4.87393e-05 0 0 2.55447e-05 0 0 0.001849 0 0 0.000897946 0 0 0.000554813 0 0 0.000385716 0 
0 0.000282266 0 0 0.000211585 0 0 0.000161015 0 0 0.000124013 0 0 9.41288e-05 0 0 4.70477e-05 0 0 0.00175206 0 0 0.000901338 0 0 0.000585736 0 0 0.000436687 0 0 0.00034931 0 0 0.000288703 0 0 0.000240737 0 0 0.000199724 0 0 0.0001607 0 0 7.95436e-05 0 
0 0.00158226 0 0 0.000853663 0 0 0.000570271 0 0 0.000440832 0 0 0.000369673 0 0 0.000323797 0 0 0.000288632 0 0 0.000257074 0 0 0.000221385 0 0 0.00011195 0 0 0.00133562 0 0 0.000752 0 0 0.000509674 0 0 0.000401269 0 0 0.000344385 0 0 0.000310276 0 
0 0.00028618 0 0 0.000265373 0 0 0.000238066 0 0 0.000123623 0 0 0.00100153 0 0 0.000587001 0 0 0.000400285 0 0 0.000317718 0 0 0.000275756 0 0 0.000251796 0 0 0.00023592 0 0 0.000222759 0 0 0.000202893 0 0 0.000107935 0 0 0.000568509 0 0 0.000345282 0 
0 0.000235667 0 0 0.00018725 0 0 0.000163096 0 0 0.000149691 0 0 0.000141145 0 0 0.000134201 0 0 0.000122562 0 0 6.67098e-05 0 0 0 0 0 0 0 0 0 0 0 0 0 0 0 0 0 0 0 0 0 0 0 0 0 
0 0 0 0 0 0 0.1 0 0 0.00098268 0 0 0.000488473 0 0 0.000398575 0 0 0.000365023 0 0 0.000349824 0 0 0.000341622 0 0 0.000336223 0 0 0.000332109 0 0 0.00032911 0 0 0.000326493 0 0 0.1 0 0 0.00329834 0 0 0.00165981 0 0 
0.0013544 0 0 0.00124045 0 0 0.00118884 0 0 0.00116099 0 0 0.00114266 0 0 0.00112868 0 0 0.00111849 0 0 0.00110967 0 0 0.1 0 0 0.00645778 0 0 0.00329766 0 0 0.00269108 0 0 0.00246481 0 0 0.00236235 0 0 0.00230707 0 0 0.00227067 0 0 
0.00224293 0 0 0.0022227 0 0 0.00220534 0 0 0.1 0 0 0.0107232 0 0 0.00558637 0 0 0.00455949 0 0 0.00417647 0 0 0.0040031 0 0 0.00390955 0 0 0.00384796 0 0 0.00380101 0 0 0.00376674 0 0 0.00373772 0 0 0.1 0 0 0.0163959 0 0 
0.0087808 0 0 0.00716932 0 0 0.00656796 0 0 0.00629586 0 0 0.00614903 0 0 0.00605235 0 0 0.00597863 0 0 0.00592478 0 0 0.00588001 0 0 0.1 0 0 0.0237812 0 0 0.0132282 0 0 0.0108107 0 0 0.00990627 0 0 0.00949714 0 0 0.00927636 0 0 
0.00913092 0 0 0.00901997 0 0 0.00893885 0 0 0.00887313 0 0 0.1 0 0 0.0331086 0 0 0.0193859 0 0 0.0158804 0 0 0.0145591 0 0 0.0139609 0 0 0.013638 0 0 0.013425 0 0 0.0132625 0 0 0.0131435 0 0 0.0130505 0 0 0.1 0 0 
0.0443886 0 0 0.0278041 0 0 0.0229047 0 0 0.0210208 0 0 0.020165 0 0 0.0197019 0 0 0.019396 0 0 0.0191623 0 0 0.018991 0 0 0.0188638 0 0 0.1 0 0 0.057201 0 0 0.0389829 0 0 0.0324995 0 0 0.0298891 0 0 0.0286864 0 0 
0.0280306 0 0 0.0275963 0 0 0.0272647 0 0 0.0270213 0 0 0.0268528 0 0 0.1 0 0 0.0704769 0 0 0.0528946 0 0 0.0450443 0 0 0.0415584 0 0 0.0398742 0 0 0.0389333 0 0 0.038309 0 0 0.0378379 0 0 0.0374922 0 0 0.0372741 0 0 
0.1 0 0 0.0825386 0 0 0.0681792 0 0 0.0598378 0 0 0.0554142 0 0 0.0530196 0 0 0.0516006 0 0 0.0506547 0 0 0.0499604 0 0 0.049453 0 0 0.0491657 0 0 0.1 0 0 0.0917872 0 0 0.0821922 0 0 0.0747876 0 0 0.0697794 0 0 
0.0665581 0 0 0.0644572 0 0 0.0630163 0 0 0.0619728 0 0 0.0612105 0 0 0.0608188 0 0 0.1 0 0 0.0976536 0 0 0.0926449 0 0 0.0875263 0 0 0.0829993 0 0 0.0793965 0 0 0.0766968 0 0 0.0747065 0 0 0.0732263 0 0 0.0721261 0 0 
0.0715945 0 0 0.1 0 0 0.100762 0 0 0.0989494 0 0 0.0964308 0 0 0.0935294 0 0 0.0905873 0 0 0.0879088 0 0 0.0856475 0 0 0.0838185 0 0 0.0823852 0 0 0.0817063 0 0 0.1 0 0 0.102188 0 0 0.102112 0 0 0.101415 0 0 
0.100266 0 0 0.098754 0 0 0.0970146 0 0 0.0952163 0 0 0.0935084 0 0 0.0920067 0 0 0.0912738 0 0 0.1 0 0 0.102738 0 0 0.103508 0 0 0.103759 0 0 0.103693 0 0 0.103365 0 0 0.1028 0 0 0.102028 0 0 0.101104 0 0 
0.100126 0 0 0.099604 0 0 0.1 0 0 0.102845 0 0 0.104018 0 0 0.104716 0 0 0.105172 0 0 0.105463 0 0 0.105619 0 0 0.105647 0 0 0.105551 0 0 0.105359 0 0 0.105224 0 0 0.1 0 0 0.102737 0 0 0.104088 0 0 
0.104984 0 0 0.105669 0 0 0.106231 0 0 0.106711 0 0 0.107123 0 0 0.107473 0 0 0.107762 0 0 0.10789 0 0 0.1 0 0 0.102546 0 0 0.103967 0 0 0.104934 0 0 0.105701 0 0 0.106363 0 0 0.106962 0 0 0.107519 0 0 
0.108039 0 0 0.10851 0 0 0.108752 0 0 0.1 0 0 0.102385 0 0 0.103834 0 0 0.104823 0 0 0.105609 0 0 0.106293 0 0 0.106922 0 0 0.107514 0 0 0.108077 0 0 0.108592 0 0 0.108872 0 0 
</DataArray>
</PointData>
</Piece>
</PolyData>
</VTKFile>