<?xml version="1.0"?>
<VTKFile type="UnstructuredGrid" version="0.1" byte_order="LittleEndian">
  <UnstructuredGrid>
    <Piece NumberOfPoints="231" NumberOfCells="200">
      <PointData Scalars="wetting phase pressure">
<DataArray type="Float32" Name="wetting phase pressure" NumberOfComponents="1" format="ascii">
500000 500000 500000 500000 500000 500000 500000 500000 500000 500000 500000 500000 
500000 500000 500000 500000 500000 500000 500000 500000 500000 500000 500000 500000 
500000 500000 500000 500000 500000 500000 500000 500000 500000 500000 500000 500000 
500000 500000 500000 500000 500000 500000 500000 500000 500000 500000 500000 500000 
500000 500000 500000 500000 500000 500000 500000 500000 500000 500000 500000 500000 
500000 500000 500000 500000 500000 500000 500000 500000 500000 500000 500000 500000 
500000 500000 500000 500000 500000 500000 500000 500000 500000 500000 500000 500000 
500000 500000 500000 500000 500000 500000 500000 500000 500000 500000 500000 500000 
500000 500000 500000 500000 500000 500000 500000 500000 500000 500000 500000 500000 
500000 500000 500000 500000 500000 500000 500000 500000 500000 500000 500000 500000 
500000 500000 500000 500000 500000 500000 500000 500000 500000 500000 500000 500000 
500000 500000 500000 500000 500000 500000 500000 500000 500000 500000 500000 500000 
500000 500000 500000 500000 500000 500000 500000 500000 500000 500000 500000 500000 
500000 500000 500000 500000 500000 500000 500000 500000 500000 500000 500000 500000 
500000 500000 500000 500000 500000 500000 500000 500000 500000 500000 500000 500000 
500000 500000 500000 500000 500000 500000 500000 500000 500000 500000 500000 500000 
500000 500000 500000 500000 500000 500000 500000 500000 500000 500000 500000 500000 
500000 500000 500000 500000 500000 500000 500000 500000 500000 500000 500000 500000 
500000 500000 500000 500000 500000 500000 500000 500000 500000 500000 500000 500000 
500000 500000 500000 
</DataArray>
<DataArray type="Float32" Name="wetting phase saturation" NumberOfComponents="1" format="ascii">
0 0.0213052 0 0.0227266 0.0916253 0.0981321 0.207695 0.224671 0.341512 0.372913 0.470286 0.495943 
0.588416 0.609274 0.693483 0.707457 0.783001 0.792762 0.854687 0.861528 0.908006 0.912506 0.944902 0.947635 
0.968788 0.970308 0.983321 0.984069 0.991665 0.991962 0.996172 0.996266 0.998418 0.998454 0.999419 0.999437 
0.99981 0.999817 0.999943 0.999946 0.999959 0.999961 0 0.0265505 0.114364 0.264742 0.456789 0.587431 
0.681562 0.759117 0.831376 0.889092 0.930717 0.958777 0.976617 0.987321 0.99339 0.996737 0.998651 0.999525 
0.99985 0.999956 0.999968 0 0.0318679 0.135396 0.313137 0.539528 0.654526 0.804873 0.946537 0.987415 
0.997185 0.999284 0.999718 0.999777 0.999713 0.999377 0.999058 0.999843 0.999926 0.999975 0.999992 0.999994 
0 0.0368884 0.154386 0.355299 0.611281 0.832415 0.999667 1 1 1 1 1 
1 1 1 1 0.999975 0.99999 0.999997 0.999999 0.999999 0 0.03915 0.163248 
0.376287 0.648492 0.88941 0.999912 1 1 1 1 1 1 1 1 
1 0.999997 0.999999 1 1 1 0 0.0368884 0.154386 0.355299 0.611281 0.832415 
0.999667 1 1 1 1 1 1 1 1 1 0.999975 0.99999 
0.999997 0.999999 0.999999 0 0.0318679 0.135396 0.313137 0.539528 0.654526 0.804873 0.946537 0.987415 
0.997185 0.999284 0.999718 0.999777 0.999713 0.999377 0.999058 0.999843 0.999926 0.999975 0.999992 0.999994 
0 0.0265505 0.114364 0.264742 0.456789 0.587431 0.681562 0.759117 0.831376 0.889092 0.930717 0.958777 
0.976617 0.987321 0.99339 0.996737 0.998651 0.999525 0.99985 0.999956 0.999968 0 0.0227266 0.098132 
0.224671 0.372913 0.495943 0.609274 0.707457 0.792762 0.861528 0.912506 0.947635 0.970308 0.984069 0.991962 
0.996266 0.998454 0.999437 0.999817 0.999946 0.999961 0 0.0213052 0.0916253 0.207695 0.341512 0.470286 
0.588416 0.693483 0.783001 0.854687 0.908006 0.944902 0.968788 0.983321 0.991665 0.996172 0.998418 0.999419 
0.99981 0.999943 0.999959 
</DataArray>
<DataArray type="Float32" Name="nonwetting phase saturation" NumberOfComponents="1" format="ascii">
1 0.978695 1 0.977273 0.908375 0.901868 0.792305 0.775329 0.658488 0.627087 0.529714 0.504057 
0.411584 0.390726 0.306517 0.292543 0.216999 0.207238 0.145313 0.138472 0.0919937 0.0874943 0.0550975 0.0523647 
0.0312123 0.0296919 0.0166785 0.0159305 0.00833524 0.00803795 0.00382849 0.00373353 0.00158167 0.0015458 0.000580633 0.000562804 
0.000190376 0.000182768 5.65844e-05 5.40008e-05 4.0964e-05 3.91094e-05 1 0.973449 0.885636 0.735258 0.543211 0.412569 
0.318438 0.240883 0.168624 0.110908 0.0692832 0.0412232 0.023383 0.012679 0.00660992 0.00326266 0.00134885 0.000474854 
0.000149805 4.35751e-05 3.16551e-05 1 0.968132 0.864604 0.686863 0.460472 0.345474 0.195127 0.0534634 0.0125855 
0.00281475 0.000715715 0.000282196 0.000222582 0.000286776 0.000622651 0.000942478 0.000156706 7.44307e-05 2.53911e-05 7.57781e-06 5.72202e-06 
1 0.963112 0.845614 0.644701 0.388719 0.167585 0.000333115 -1.29866e-10 -5.25672e-13 7.57378e-14 6.25846e-14 1.01939e-14 
1.12856e-14 4.86327e-14 9.07758e-13 1.74514e-10 2.46332e-05 1.00516e-05 3.16583e-06 8.97055e-07 6.57049e-07 1 0.96085 0.836752 
0.623713 0.351508 0.11059 8.77839e-05 7.62446e-15 1.26239e-30 -2.50608e-41 6.68209e-31 2.11252e-31 3.23971e-31 2.52678e-30 8.69299e-29 
7.48842e-15 2.89632e-06 1.05513e-06 3.04906e-07 8.09054e-08 5.57277e-08 1 0.963112 0.845614 0.644701 0.388719 0.167585 
0.000333115 -1.29865e-10 -5.25697e-13 7.57307e-14 6.25843e-14 1.01939e-14 1.12856e-14 4.86326e-14 9.07758e-13 1.74512e-10 2.46332e-05 1.00516e-05 
3.16583e-06 8.97054e-07 6.57049e-07 1 0.968132 0.864604 0.686863 0.460472 0.345474 0.195127 0.0534634 0.0125855 
0.00281475 0.000715714 0.000282196 0.000222582 0.000286776 0.000622651 0.000942478 0.000156706 7.44307e-05 2.53911e-05 7.57781e-06 5.72202e-06 
1 0.973449 0.885636 0.735258 0.543211 0.412569 0.318438 0.240883 0.168624 0.110908 0.0692832 0.0412232 
0.023383 0.012679 0.00660992 0.00326266 0.00134885 0.000474854 0.000149805 4.35751e-05 3.16551e-05 1 0.977273 0.901868 
0.775329 0.627087 0.504057 0.390726 0.292543 0.207238 0.138472 0.0874943 0.0523647 0.0296919 0.0159305 0.00803795 
0.00373353 0.0015458 0.000562804 0.000182768 5.40008e-05 3.91094e-05 1 0.978695 0.908375 0.792305 0.658488 0.529714 
0.411584 0.306517 0.216999 0.145313 0.0919937 0.0550975 0.0312123 0.0166785 0.00833524 0.00382849 0.00158167 0.000580633 
0.000190376 5.65844e-05 4.0964e-05 
</DataArray>
      </PointData>
      <CellData>
      </CellData>
      <Points>
<DataArray type="Float32" Name="Coordinates" NumberOfComponents="3" format="ascii">
0 0 0 5 0 0 0 5 0 5 5 0 
10 0 0 10 5 0 15 0 0 15 5 0 
20 0 0 20 5 0 25 0 0 25 5 0 
30 0 0 30 5 0 35 0 0 35 5 0 
40 0 0 40 5 0 45 0 0 45 5 0 
50 0 0 50 5 0 55 0 0 55 5 0 
60 0 0 60 5 0 65 0 0 65 5 0 
70 0 0 70 5 0 75 0 0 75 5 0 
80 0 0 80 5 0 85 0 0 85 5 0 
90 0 0 90 5 0 95 0 0 95 5 0 
100 0 0 100 5 0 0 10 0 5 10 0 
10 10 0 15 10 0 20 10 0 25 10 0 
30 10 0 35 10 0 40 10 0 45 10 0 
50 10 0 55 10 0 60 10 0 65 10 0 
70 10 0 75 10 0 80 10 0 85 10 0 
90 10 0 95 10 0 100 10 0 0 15 0 
5 15 0 10 15 0 15 15 0 20 15 0 
25 15 0 30 15 0 35 15 0 40 15 0 
45 15 0 50 15 0 55 15 0 60 15 0 
65 15 0 70 15 0 75 15 0 80 15 0 
85 15 0 90 15 0 95 15 0 100 15 0 
0 20 0 5 20 0 10 20 0 15 20 0 
20 20 0 25 20 0 30 20 0 35 20 0 
40 20 0 45 20 0 50 20 0 55 20 0 
60 20 0 65 20 0 70 20 0 75 20 0 
80 20 0 85 20 0 90 20 0 95 20 0 
100 20 0 0 25 0 5 25 0 10 25 0 
15 25 0 20 25 0 25 25 0 30 25 0 
35 25 0 40 25 0 45 25 0 50 25 0 
55 25 0 60 25 0 65 25 0 70 25 0 
75 25 0 80 25 0 85 25 0 90 25 0 
95 25 0 100 25 0 0 30 0 5 30 0 
10 30 0 15 30 0 20 30 0 25 30 0 
30 30 0 35 30 0 40 30 0 45 30 0 
50 30 0 55 30 0 60 30 0 65 30 0 
70 30 0 75 30 0 80 30 0 85 30 0 
90 30 0 95 30 0 100 30 0 0 35 0 
5 35 0 10 35 0 15 35 0 20 35 0 
25 35 0 30 35 0 35 35 0 40 35 0 
45 35 0 50 35 0 55 35 0 60 35 0 
65 35 0 70 35 0 75 35 0 80 35 0 
85 35 0 90 35 0 95 35 0 100 35 0 
0 40 0 5 40 0 10 40 0 15 40 0 
20 40 0 25 40 0 30 40 0 35 40 0 
40 40 0 45 40 0 50 40 0 55 40 0 
60 40 0 65 40 0 70 40 0 75 40 0 
80 40 0 85 40 0 90 40 0 95 40 0 
100 40 0 0 45 0 5 45 0 10 45 0 
15 45 0 20 45 0 25 45 0 30 45 0 
35 45 0 40 45 0 45 45 0 50 45 0 
55 45 0 60 45 0 65 45 0 70 45 0 
75 45 0 80 45 0 85 45 0 90 45 0 
95 45 0 100 45 0 0 50 0 5 50 0 
10 50 0 15 50 0 20 50 0 25 50 0 
30 50 0 35 50 0 40 50 0 45 50 0 
50 50 0 55 50 0 60 50 0 65 50 0 
70 50 0 75 50 0 80 50 0 85 50 0 
90 50 0 95 50 0 100 50 0 
</DataArray>
      </Points>
      <Cells>
<DataArray type="Int32" Name="connectivity" NumberOfComponents="1" format="ascii">
0 1 3 2 1 4 5 3 4 6 7 5 
6 8 9 7 8 10 11 9 10 12 13 11 
12 14 15 13 14 16 17 15 16 18 19 17 
18 20 21 19 20 22 23 21 22 24 25 23 
24 26 27 25 26 28 29 27 28 30 31 29 
30 32 33 31 32 34 35 33 34 36 37 35 
36 38 39 37 38 40 41 39 2 3 43 42 
3 5 44 43 5 7 45 44 7 9 46 45 
9 11 47 46 11 13 48 47 13 15 49 48 
15 17 50 49 17 19 51 50 19 21 52 51 
21 23 53 52 23 25 54 53 25 27 55 54 
27 29 56 55 29 31 57 56 31 33 58 57 
33 35 59 58 35 37 60 59 37 39 61 60 
39 41 62 61 42 43 64 63 43 44 65 64 
44 45 66 65 45 46 67 66 46 47 68 67 
47 48 69 68 48 49 70 69 49 50 71 70 
50 51 72 71 51 52 73 72 52 53 74 73 
53 54 75 74 54 55 76 75 55 56 77 76 
56 57 78 77 57 58 79 78 58 59 80 79 
59 60 81 80 60 61 82 81 61 62 83 82 
63 64 85 84 64 65 86 85 65 66 87 86 
66 67 88 87 67 68 89 88 68 69 90 89 
69 70 91 90 70 71 92 91 71 72 93 92 
72 73 94 93 73 74 95 94 74 75 96 95 
75 76 97 96 76 77 98 97 77 78 99 98 
78 79 100 99 79 80 101 100 80 81 102 101 
81 82 103 102 82 83 104 103 84 85 106 105 
85 86 107 106 86 87 108 107 87 88 109 108 
88 89 110 109 89 90 111 110 90 91 112 111 
91 92 113 112 92 93 114 113 93 94 115 114 
94 95 116 115 95 96 117 116 96 97 118 117 
97 98 119 118 98 99 120 119 99 100 121 120 
100 101 122 121 101 102 123 122 102 103 124 123 
103 104 125 124 105 106 127 126 106 107 128 127 
107 108 129 128 108 109 130 129 109 110 131 130 
110 111 132 131 111 112 133 132 112 113 134 133 
113 114 135 134 114 115 136 135 115 116 137 136 
116 117 138 137 117 118 139 138 118 119 140 139 
119 120 141 140 120 121 142 141 121 122 143 142 
122 123 144 143 123 124 145 144 124 125 146 145 
126 127 148 147 127 128 149 148 128 129 150 149 
129 130 151 150 130 131 152 151 131 132 153 152 
132 133 154 153 133 134 155 154 134 135 156 155 
135 136 157 156 136 137 158 157 137 138 159 158 
138 139 160 159 139 140 161 160 140 141 162 161 
141 142 163 162 142 143 164 163 143 144 165 164 
144 145 166 165 145 146 167 166 147 148 169 168 
148 149 170 169 149 150 171 170 150 151 172 171 
151 152 173 172 152 153 174 173 153 154 175 174 
154 155 176 175 155 156 177 176 156 157 178 177 
157 158 179 178 158 159 180 179 159 160 181 180 
160 161 182 181 161 162 183 182 162 163 184 183 
163 164 185 184 164 165 186 185 165 166 187 186 
166 167 188 187 168 169 190 189 169 170 191 190 
170 171 192 191 171 172 193 192 172 173 194 193 
173 174 195 194 174 175 196 195 175 176 197 196 
176 177 198 197 177 178 199 198 178 179 200 199 
179 180 201 200 180 181 202 201 181 182 203 202 
182 183 204 203 183 184 205 204 184 185 206 205 
185 186 207 206 186 187 208 207 187 188 209 208 
189 190 211 210 190 191 212 211 191 192 213 212 
192 193 214 213 193 194 215 214 194 195 216 215 
195 196 217 216 196 197 218 217 197 198 219 218 
198 199 220 219 199 200 221 220 200 201 222 221 
201 202 223 222 202 203 224 223 203 204 225 224 
204 205 226 225 205 206 227 226 206 207 228 227 
207 208 229 228 208 209 230 229 
</DataArray>
<DataArray type="Int32" Name="offsets" NumberOfComponents="1" format="ascii">
4 8 12 16 20 24 28 32 36 40 44 48 
52 56 60 64 68 72 76 80 84 88 92 96 
100 104 108 112 116 120 124 128 132 136 140 144 
148 152 156 160 164 168 172 176 180 184 188 192 
196 200 204 208 212 216 220 224 228 232 236 240 
244 248 252 256 260 264 268 272 276 280 284 288 
292 296 300 304 308 312 316 320 324 328 332 336 
340 344 348 352 356 360 364 368 372 376 380 384 
388 392 396 400 404 408 412 416 420 424 428 432 
436 440 444 448 452 456 460 464 468 472 476 480 
484 488 492 496 500 504 508 512 516 520 524 528 
532 536 540 544 548 552 556 560 564 568 572 576 
580 584 588 592 596 600 604 608 612 616 620 624 
628 632 636 640 644 648 652 656 660 664 668 672 
676 680 684 688 692 696 700 704 708 712 716 720 
724 728 732 736 740 744 748 752 756 760 764 768 
772 776 780 784 788 792 796 800 
</DataArray>
<DataArray type="UInt8" Name="types" NumberOfComponents="1" format="ascii">
9 9 9 9 9 9 9 9 9 9 9 9 
9 9 9 9 9 9 9 9 9 9 9 9 
9 9 9 9 9 9 9 9 9 9 9 9 
9 9 9 9 9 9 9 9 9 9 9 9 
9 9 9 9 9 9 9 9 9 9 9 9 
9 9 9 9 9 9 9 9 9 9 9 9 
9 9 9 9 9 9 9 9 9 9 9 9 
9 9 9 9 9 9 9 9 9 9 9 9 
9 9 9 9 9 9 9 9 9 9 9 9 
9 9 9 9 9 9 9 9 9 9 9 9 
9 9 9 9 9 9 9 9 9 9 9 9 
9 9 9 9 9 9 9 9 9 9 9 9 
9 9 9 9 9 9 9 9 9 9 9 9 
9 9 9 9 9 9 9 9 9 9 9 9 
9 9 9 9 9 9 9 9 9 9 9 9 
9 9 9 9 9 9 9 9 9 9 9 9 
9 9 9 9 9 9 9 9 
</DataArray>
      </Cells>
    </Piece>
  </UnstructuredGrid>
</VTKFile>
