<?xml version="1.0"?>
<VTKFile type="PolyData" version="0.1" byte_order="LittleEndian">
  <PolyData>
    <Piece NumberOfLines="1" NumberOfPoints="21">
      <CellData Scalars="p">
        <DataArray type="Float32" Name="p" NumberOfComponents="1" format="ascii">
          1
        </DataArray>
        <DataArray type="Float32" Name="process rank" NumberOfComponents="1" format="ascii">
          0
        </DataArray>
      </CellData>
      <PointData Scalars="r">
        <DataArray type="Float32" Name="r" NumberOfComponents="1" format="ascii">
          0.05 0.1 0.2 0.3 0.4 0.5 0.6 0.7 0.8 0.9 1.0 1.1 1.2 1.3 1.4 1.5 1.6 1.7 1.8 1.9 2.0
        </DataArray>
      </PointData>
      <Points>
        <DataArray type="Float32" Name="Coordinates" NumberOfComponents="3" format="ascii">
          0 0 0 0 0 0.05 0 0 0.1 0 0 0.15
          0 0 0.2 0 0 0.25 0 0 0.3 0 0 0.35
          0 0 0.4 0 0 0.45 0 0 0.5 0 0 0.55
          0 0 0.6 0 0 0.65 0 0 0.7 0 0 0.75
          0 0 0.8 0 0 0.85 0 0 0.9 0 0 0.95
          0 0 1
        </DataArray>
      </Points>
      <Lines>
        <DataArray type="Int32" Name="connectivity" NumberOfComponents="1" format="ascii">
          0 1 2 3 4 5 6 7 8 9 10 11 12 13 14 15 16 17 18 19 20
        </DataArray>
        <DataArray type="Int32" Name="offsets" NumberOfComponents="1" format="ascii">
          21
        </DataArray>
      </Lines>
    </Piece>
  </PolyData>
</VTKFile>
