<?xml version="1.0"?>
<VTKFile type="UnstructuredGrid" version="0.1" byte_order="LittleEndian">
  <UnstructuredGrid>
    <Piece NumberOfCells="72" NumberOfPoints="91">
      <PointData Scalars="Sw">
        <DataArray type="Float32" Name="Sw" NumberOfComponents="1" format="ascii">
          0.277174 0.238389 0.192218 0.173155 0.16982 0.132484 0.12314 0.120773 0.120103 0.120062 0.120007 0.120005
          0.12 0.12 0.12 0.12 0.12 0.12 0.12 0.12 0.12 0.12 0.12 0.12
          0.12 0.12 0.18949 0.160889 0.133705 0.120654 0.120051 0.120004 0.12 0.12 0.12 0.119999
          0.119998 0.119999 0.12 0.187151 0.169358 0.120884 0.120002 0.12 0.12 0.12 0.12 0.12
          0.12 0.119999 0.12 0.12 0.182608 0.174912 0.121575 0.120002 0.12 0.12 0.12 0.12
          0.12 0.12 0.12 0.12 0.12 0.173625 0.160808 0.144347 0.12122 0.120097 0.120008 0.12
          0.12 0.12 0.12 0.12 0.12 0.12 0.156977 0.16399 0.144801 0.122762 0.120235 0.120021
          0.120002 0.12 0.12 0.12 0.12 0.12 0.12
        </DataArray>
        <DataArray type="Float32" Name="Sn" NumberOfComponents="1" format="ascii">
          0 0 0 0 0 0 0 0 0 0 0 0
          0 0 0 0 0 0 0 0 0 0 0 0
          0 0 0 0 0 0 0 0 0 0 0 0
          0 0 0 0 0 0 0 0 0 0 0 0
          0 0 0 0 0 0 0.0699944 0.0699992 0.0699901 0.0699856 0.0699813 0
          0 0 0 0 0 0 0 0.0649223 0.0709346 0.0700858 0.0700073 0.0699788
          0 0 0 0 0 0 0 0 0 0 0 0
          0 0 0 0 0 0 0
        </DataArray>
        <DataArray type="Float32" Name="Sg" NumberOfComponents="1" format="ascii">
          0.722826 0.761611 0.807782 0.826845 0.83018 0.867516 0.87686 0.879227 0.879897 0.879938 0.879993 0.879995
          0.88 0.88 0.88 0.88 0.88 0.88 0.88 0.88 0.88 0.88 0.88 0.88
          0.88 0.88 0.81051 0.839111 0.866295 0.879346 0.879949 0.879996 0.88 0.88 0.88 0.880001
          0.880002 0.880001 0.88 0.812849 0.830642 0.879116 0.879998 0.88 0.88 0.88 0.88 0.88
          0.88 0.880001 0.88 0.88 0.817392 0.825088 0.80843 0.809998 0.81001 0.810014 0.810019 0.88
          0.88 0.88 0.88 0.88 0.88 0.826375 0.839192 0.790731 0.807846 0.809817 0.809985 0.810021
          0.88 0.88 0.88 0.88 0.88 0.88 0.843023 0.83601 0.855199 0.877238 0.879765 0.879979
          0.879998 0.88 0.88 0.88 0.88 0.88 0.88
        </DataArray>
        <DataArray type="Float32" Name="pw" NumberOfComponents="1" format="ascii">
          99778.8 99712.1 99652.1 99583 99559.9 99239.8 98920.3 98834.1 98803.9 98801.1 98793.1 98791.6
          98785.6 98784 98778.5 98776.7 98772.2 98769.8 98768 98764.8 87197.8 87191.9 87176.7 87173.1
          87159.3 87159.3 99644.6 99533.8 99265.4 98828.8 98799.4 98790.1 98782.5 98774.8 98766.5 98755.7
          98736.9 98725.7 98715.9 99640.1 99574.7 87578.1 87248 87238.2 87229.7 87221.4 87212.8 87202.9
          87187 98728.6 98723.3 98715.9 99627.5 99593.1 83068.2 82370.9 82359.9 82350.5 82341.2 87204.5
          87194.4 87180.8 98726.5 98722.1 98715.9 99598.6 99530.6 99025.8 98364 98303.3 98289.4 98279.2
          98756.4 98747.3 98738.5 98729 98721.9 98715.9 99533.9 99543.4 99407.3 98894.1 98793.3 98775.7
          98765.1 98755.3 98746 98737 98728.5 98721.2 98715.9
        </DataArray>
        <DataArray type="Float32" Name="pn" NumberOfComponents="1" format="ascii">
          99778.8 99712.1 99652.1 99583 99559.9 99239.8 98920.3 98834.1 98803.9 98801.1 98793.1 98791.6
          98785.6 98784 98778.5 98776.7 98772.2 98769.8 98768 98764.8 87197.8 87191.9 87176.7 87173.1
          87159.3 87159.3 99644.6 99533.8 99265.4 98828.8 98799.4 98790.1 98782.5 98774.8 98766.5 98755.7
          98736.9 98725.7 98715.9 99640.1 99574.7 87578.1 87248 87238.2 87229.7 87221.4 87212.8 87202.9
          87187 98728.6 98723.3 98715.9 99627.5 99593.1 95523.7 95474.3 95462.6 95452.4 95442.3 87204.5
          87194.4 87180.8 98726.5 98722.1 98715.9 99598.6 99530.6 99649.3 99624.3 99609.8 99599.5 99589.2
          98756.4 98747.3 98738.5 98729 98721.9 98715.9 99533.9 99543.4 99407.3 98894.1 98793.3 98775.7
          98765.1 98755.3 98746 98737 98728.5 98721.2 98715.9
        </DataArray>
        <DataArray type="Float32" Name="pg" NumberOfComponents="1" format="ascii">
          100140 100112 100127 100110 100099 100098 100091 100090 100084 100083 100077 100076
          100070 100068 100063 100061 100056 100054 100052 100049 100038 100033 100017 100014
          100000 100000 100126 100110 100098 100089 100082 100074 100067 100059 100051 100040
          100021 100010 100000 100127 100116 100101 100088 100079 100070 100062 100054 100044
          100028 100013 100007 100000 100126 100115 100099 100085 100074 100065 100055 100045
          100035 100021 100011 100006 100000 100124 100108 100092 100081 100070 100060 100051
          100041 100031 100023 100013 100006 100000 100130 100106 100090 100079 100069 100059
          100049 100039 100030 100021 100013 100005 100000
        </DataArray>
        <DataArray type="Float32" Name="rhow" NumberOfComponents="1" format="ascii">
          974.311 980.773 974.821 986.046 994.766 996.318 997.953 998.07 998.222 998.23 998.243 998.244
          998.245 998.245 998.245 998.245 998.245 998.245 998.245 998.245 998.24 998.24 998.24 998.24
          998.24 998.24 975.322 989.024 996.774 998.107 998.234 998.244 998.245 998.245 998.245 998.245
          998.245 998.245 998.245 975.36 990.752 998.071 998.23 998.239 998.24 998.24 998.24 998.24
          998.24 998.245 998.246 998.245 975.328 990.48 998.085 998.263 998.275 998.277 998.277 998.259
          998.249 998.251 998.271 998.273 998.245 974.891 986.702 996.1 998.044 998.26 998.282 998.284
          998.283 998.283 998.282 998.281 998.278 998.245 974.271 979.885 993.533 997.748 998.21 998.255
          998.259 998.259 998.259 998.259 998.259 998.259 998.245
        </DataArray>
        <DataArray type="Float32" Name="rhon" NumberOfComponents="1" format="ascii">
          822.723 832.657 823.475 841.607 859.852 864.122 869.535 869.981 870.58 870.613 870.666 870.668
          870.673 870.673 870.673 870.673 870.673 870.673 870.673 870.673 870.673 870.673 870.673 870.673
          870.673 870.673 824.219 847.176 865.506 870.127 870.627 870.669 870.673 870.673 870.673 870.673
          870.674 870.673 870.673 824.276 850.654 870.004 870.633 870.67 870.673 870.673 870.673 870.673
          870.673 870.673 870.673 870.673 824.229 850.091 869.905 870.617 870.668 870.673 870.674 870.673
          870.673 870.673 870.673 870.673 870.673 823.58 842.795 863.282 869.72 870.578 870.665 870.674
          870.673 870.673 870.673 870.673 870.673 870.673 822.663 831.234 856.779 868.725 870.475 870.655
          870.671 870.673 870.673 870.673 870.673 870.673 870.673
        </DataArray>
        <DataArray type="Float32" Name="rhog" NumberOfComponents="1" format="ascii">
          0.850137 0.93735 0.857234 1.00403 1.11802 1.14249 1.17304 1.17554 1.17886 1.17903 1.17925 1.17925
          1.1792 1.17919 1.17912 1.1791 1.17905 1.17902 1.179 1.17896 1.17883 1.17876 1.17858 1.17854
          1.17838 1.17838 0.864264 1.04125 1.15034 1.17636 1.17909 1.17924 1.17917 1.17908 1.17898 1.17885
          1.17863 1.1785 1.17838 0.864811 1.0633 1.17581 1.17921 1.1793 1.17922 1.17912 1.17901 1.1789
          1.17871 1.17853 1.17867 1.17838 0.86436 1.05979 1.18428 1.18764 1.18777 1.18768 1.18757 1.18325
          1.18089 1.18115 1.18429 1.18459 1.17838 0.858203 1.01217 1.15253 1.18315 1.18728 1.18759 1.18751
          1.18721 1.187 1.18684 1.18633 1.1857 1.17838 0.849468 0.925729 1.10234 1.17135 1.18124 1.18215
          1.18212 1.18199 1.18187 1.18174 1.18162 1.18152 1.17838
        </DataArray>
        <DataArray type="Float32" Name="x^w_H2O" NumberOfComponents="1" format="ascii">
          0.999994 0.999993 0.999994 0.999991 0.999988 0.999987 0.999986 0.999985 0.999985 0.999985 0.999985 0.999985
          0.999985 0.999985 0.999985 0.999985 0.999985 0.999985 0.999985 0.999985 0.999985 0.999985 0.999985 0.999985
          0.999985 0.999985 0.999994 0.99999 0.999987 0.999985 0.999985 0.999985 0.999985 0.999985 0.999985 0.999985
          0.999985 0.999985 0.999985 0.999994 0.99999 0.999985 0.999985 0.999985 0.999985 0.999985 0.999985 0.999985
          0.999985 0.999985 0.999985 0.999985 0.999994 0.99999 0.999978 0.999978 0.999978 0.999978 0.999978 0.999982
          0.999984 0.999983 0.999981 0.99998 0.999985 0.999994 0.999991 0.999975 0.999978 0.999978 0.999978 0.999978
          0.999979 0.999979 0.999979 0.999979 0.999979 0.999985 0.999994 0.999993 0.999987 0.999983 0.999983 0.999983
          0.999983 0.999983 0.999983 0.999983 0.999983 0.999983 0.999985
        </DataArray>
        <DataArray type="Float32" Name="x^w_mesitylene" NumberOfComponents="1" format="ascii">
          6.06217e-26 7.18536e-21 5.24837e-24 7.5515e-20 1.17128e-12 7.52325e-12 2.3644e-12 1.24695e-11 2.69235e-12 1.41836e-11 2.68891e-12 1.41707e-11
          2.65149e-12 1.3859e-11 2.61371e-12 1.31822e-11 2.57255e-12 1.16971e-11 2.51376e-12 9.09906e-12 6.48816e-11 5.19149e-11 3.93622e-10 4.25428e-10
          3.02334e-09 3.02334e-09 3.58982e-23 3.32016e-19 9.73273e-11 1.06954e-10 1.0606e-10 1.04826e-10 1.01842e-10 9.42095e-11 7.4845e-11 4.76613e-11
          4.7498e-11 4.86529e-11 3.02334e-09 3.58839e-23 4.2907e-19 1.50495e-08 9.26312e-09 4.93954e-09 2.69422e-09 1.66869e-09 1.14102e-09 7.40511e-10
          4.4353e-10 5.87145e-11 1.62765e-07 3.02334e-09 3.52649e-23 3.56521e-19 7.35506e-06 6.93453e-06 6.90526e-06 6.90224e-06 6.90182e-06 3.51479e-06
          1.69791e-06 2.03876e-06 4.68365e-06 4.97276e-06 3.02334e-09 1.17637e-23 2.16473e-19 1.24248e-05 7.46769e-06 6.95691e-06 6.90732e-06 6.90208e-06
          6.75911e-06 6.67597e-06 6.62834e-06 6.31018e-06 5.8698e-06 3.02334e-09 1.90095e-26 2.54941e-20 2.01275e-06 2.47646e-06 2.56422e-06 2.57198e-06
          2.55949e-06 2.5469e-06 2.53371e-06 2.52021e-06 2.50652e-06 2.49012e-06 3.02334e-09
        </DataArray>
        <DataArray type="Float32" Name="x^w_Air" NumberOfComponents="1" format="ascii">
          5.68335e-06 7.39875e-06 5.82638e-06 8.73623e-06 1.18065e-05 1.28049e-05 1.43687e-05 1.45157e-05 1.47182e-05 1.47293e-05 1.47466e-05 1.47472e-05
          1.47477e-05 1.47476e-05 1.47468e-05 1.47466e-05 1.47459e-05 1.47455e-05 1.47452e-05 1.47448e-05 1.47432e-05 1.47423e-05 1.474e-05 1.47394e-05
          1.47373e-05 1.47373e-05 5.96626e-06 9.56296e-06 1.3169e-05 1.45647e-05 1.47338e-05 1.47474e-05 1.47474e-05 1.47463e-05 1.47451e-05 1.47435e-05
          1.47408e-05 1.4739e-05 1.47373e-05 5.97699e-06 1.01093e-05 1.4525e-05 1.47369e-05 1.47481e-05 1.47479e-05 1.47467e-05 1.47454e-05 1.47439e-05
          1.47415e-05 1.47394e-05 1.47377e-05 1.47373e-05 5.96812e-06 1.00185e-05 1.44556e-05 1.46963e-05 1.47124e-05 1.47128e-05 1.47117e-05 1.47265e-05
          1.47341e-05 1.47304e-05 1.47155e-05 1.47134e-05 1.47373e-05 5.84594e-06 8.90985e-06 1.25395e-05 1.43911e-05 1.46807e-05 1.47092e-05 1.47108e-05
          1.47098e-05 1.47088e-05 1.47076e-05 1.47078e-05 1.47089e-05 1.47373e-05 5.67095e-06 7.17287e-06 1.11744e-05 1.4095e-05 1.46669e-05 1.47271e-05
          1.47315e-05 1.47306e-05 1.47293e-05 1.4728e-05 1.47268e-05 1.47257e-05 1.47373e-05
        </DataArray>
        <DataArray type="Float32" Name="x^n_H2O" NumberOfComponents="1" format="ascii">
          1e-10 1e-10 1e-10 1e-10 1e-10 1e-10 1e-10 1e-10 1e-10 1e-10 1e-10 1e-10
          1e-10 1e-10 1e-10 1e-10 1e-10 1e-10 1e-10 1e-10 1e-10 1e-10 1e-10 1e-10
          1e-10 1e-10 1e-10 1e-10 1e-10 1e-10 1e-10 1e-10 1e-10 1e-10 1e-10 1e-10
          1e-10 1e-10 1e-10 1e-10 1e-10 1e-10 1e-10 1e-10 1e-10 1e-10 1e-10 1e-10
          1e-10 1e-10 1e-10 1e-10 1e-10 1e-10 1e-10 1e-10 1e-10 1e-10 1e-10 1e-10
          1e-10 1e-10 1e-10 1e-10 1e-10 1e-10 1e-10 1e-10 1e-10 1e-10 1e-10 1e-10
          1e-10 1e-10 1e-10 1e-10 1e-10 1e-10 1e-10 1e-10 1e-10 1e-10 1e-10 1e-10
          1e-10 1e-10 1e-10 1e-10 1e-10 1e-10 1e-10
        </DataArray>
        <DataArray type="Float32" Name="x^n_mesitylene" NumberOfComponents="1" format="ascii">
          3.98579e-22 7.95518e-17 3.58351e-20 1.39971e-15 7.29603e-08 6.45737e-07 3.11869e-07 1.706e-06 3.87068e-07 2.04471e-06 3.8933e-07 2.05218e-06
          3.8412e-07 2.00777e-06 3.78661e-07 1.90977e-06 3.72698e-07 1.69463e-06 3.6418e-07 1.31823e-06 9.39963e-06 7.52112e-06 5.70254e-05 6.16333e-05
          0.000438002 0.000438002 2.54501e-19 8.69189e-15 9.30018e-06 1.48106e-05 1.53069e-05 1.51822e-05 1.47541e-05 1.36487e-05 1.08433e-05 6.90514e-06
          6.88175e-06 7.04884e-06 0.000438002 2.55136e-19 1.40828e-14 0.00206297 0.00133758 0.000715419 0.000390314 0.000241748 0.000165303 0.00010728
          6.42559e-05 8.50639e-06 0.0235806 0.000438002 2.50135e-19 1.12746e-14 1 1 1 1 1 0.509193
          0.245979 0.295359 0.678526 0.720408 0.000438002 8.07446e-20 4.31192e-15 1 1 1 1 1
          0.979236 0.967167 0.960263 0.914173 0.850368 0.000438002 1.24615e-22 2.61145e-16 0.100488 0.305765 0.365431 0.372046
          0.37076 0.36898 0.367071 0.365115 0.363131 0.360754 0.000438002
        </DataArray>
        <DataArray type="Float32" Name="x^n_Air" NumberOfComponents="1" format="ascii">
          1e-10 1e-10 1e-10 1e-10 1e-10 1e-10 1e-10 1e-10 1e-10 1e-10 1e-10 1e-10
          1e-10 1e-10 1e-10 1e-10 1e-10 1e-10 1e-10 1e-10 1e-10 1e-10 1e-10 1e-10
          1e-10 1e-10 1e-10 1e-10 1e-10 1e-10 1e-10 1e-10 1e-10 1e-10 1e-10 1e-10
          1e-10 1e-10 1e-10 1e-10 1e-10 1e-10 1e-10 1e-10 1e-10 1e-10 1e-10 1e-10
          1e-10 1e-10 1e-10 1e-10 1e-10 1e-10 1e-10 1e-10 1e-10 1e-10 1e-10 1e-10
          1e-10 1e-10 1e-10 1e-10 1e-10 1e-10 1e-10 1e-10 1e-10 1e-10 1e-10 1e-10
          1e-10 1e-10 1e-10 1e-10 1e-10 1e-10 1e-10 1e-10 1e-10 1e-10 1e-10 1e-10
          1e-10 1e-10 1e-10 1e-10 1e-10 1e-10 1e-10
        </DataArray>
        <DataArray type="Float32" Name="x^g_H2O" NumberOfComponents="1" format="ascii">
          0.400392 0.245962 0.386512 0.152274 0.0498621 0.0372203 0.0252041 0.0243844 0.0233173 0.0232601 0.0231698 0.0231661
          0.0231601 0.0231602 0.023161 0.0231613 0.0231624 0.0231629 0.0231635 0.0231641 0.0231668 0.0231681 0.0231716 0.0231724
          0.0231757 0.0231757 0.373126 0.110604 0.0337593 0.0241198 0.0232367 0.0231644 0.0231604 0.0231617 0.0231635 0.0231656
          0.0231692 0.0231725 0.0231757 0.372112 0.0897671 0.0243392 0.0232241 0.023163 0.0231598 0.0231613 0.0231633 0.0231656
          0.0231692 0.0231722 0.0231737 0.0231757 0.372951 0.0928975 0.0245205 0.023253 0.0231667 0.0231597 0.0231606 0.0231655
          0.0231678 0.0231709 0.0231736 0.0231746 0.0231757 0.38462 0.142443 0.0394682 0.0248645 0.0233241 0.0231761 0.0231625
          0.0231659 0.0231685 0.0231706 0.0231728 0.0231746 0.0231757 0.401545 0.264489 0.0610641 0.0267608 0.0235063 0.0231938
          0.0231667 0.0231664 0.0231685 0.0231706 0.0231726 0.0231744 0.0231757
        </DataArray>
        <DataArray type="Float32" Name="x^g_mesitylene" NumberOfComponents="1" format="ascii">
          2.00232e-23 2.37397e-18 1.73375e-21 2.49498e-17 3.87028e-10 2.48594e-09 7.81336e-10 4.12068e-09 8.89771e-10 4.6875e-09 8.88701e-10 4.68356e-09
          8.76397e-10 4.58089e-09 8.63969e-10 4.35748e-09 8.50416e-10 3.86687e-09 8.31019e-10 3.00813e-09 2.1452e-08 1.71658e-08 1.30172e-07 1.40695e-07
          1e-06 1e-06 1.18588e-20 1.09697e-16 3.21606e-08 3.53445e-08 3.50519e-08 3.46464e-08 3.36628e-08 3.11424e-08 2.47432e-08 1.57582e-08
          1.57071e-08 1.60909e-08 1e-06 1.18539e-20 1.41755e-16 4.97276e-06 3.06117e-06 1.63251e-06 8.90512e-07 5.51592e-07 3.77201e-07 2.44825e-07
          1.46661e-07 1.9418e-08 5.3832e-05 1e-06 1.16495e-20 1.17788e-16 0.00243035 0.00229173 0.00228229 0.00228151 0.00228159 0.00116203
          0.000561403 0.000674196 0.001549 0.00164469 1e-06 3.88613e-21 7.15237e-17 0.00410583 0.00246802 0.00229945 0.00228328 0.00228178
          0.00223474 0.00220745 0.00219189 0.00208688 0.00194138 1e-06 6.27941e-24 8.4235e-18 0.000665141 0.000818468 0.000847556 0.000850206
          0.000846161 0.00084208 0.000837797 0.000833408 0.000828954 0.000823589 1e-06
        </DataArray>
        <DataArray type="Float32" Name="x^g_Air" NumberOfComponents="1" format="ascii">
          0.599608 0.754038 0.613488 0.847726 0.950138 0.96278 0.974796 0.975616 0.976683 0.97674 0.97683 0.976834
          0.97684 0.97684 0.976839 0.976839 0.976838 0.976837 0.976837 0.976836 0.976833 0.976832 0.976828 0.976827
          0.976823 0.976823 0.626874 0.889396 0.966241 0.97588 0.976763 0.976836 0.97684 0.976838 0.976836 0.976834
          0.976831 0.976828 0.976823 0.627888 0.910233 0.975656 0.976773 0.976835 0.976839 0.976838 0.976836 0.976834
          0.976831 0.976828 0.976772 0.976823 0.627049 0.907103 0.973049 0.974455 0.974551 0.974559 0.974558 0.975672
          0.976271 0.976155 0.975277 0.975181 0.976823 0.61538 0.857557 0.956426 0.972667 0.974376 0.974541 0.974556
          0.974599 0.974624 0.974638 0.97474 0.974884 0.976823 0.598455 0.735511 0.938271 0.972421 0.975646 0.975956
          0.975987 0.975991 0.975994 0.975996 0.975998 0.976002 0.976823
        </DataArray>
        <DataArray type="Float32" Name="porosity" NumberOfComponents="1" format="ascii">
          0.42 0.42 0.42 0.42 0.42 0.42 0.42 0.42 0.42 0.42 0.42 0.42
          0.42 0.42 0.42 0.42 0.42 0.42 0.42 0.42 0.42 0.42 0.42 0.42
          0.42 0.42 0.42 0.42 0.42 0.42 0.42 0.42 0.42 0.42 0.42 0.42
          0.42 0.42 0.42 0.42 0.42 0.42 0.42 0.42 0.42 0.42 0.42 0.42
          0.42 0.42 0.42 0.42 0.42 0.42 0.42 0.42 0.42 0.42 0.42 0.42
          0.42 0.42 0.42 0.42 0.42 0.42 0.42 0.42 0.42 0.42 0.42 0.42
          0.42 0.42 0.42 0.42 0.42 0.42 0.42 0.42 0.42 0.42 0.42 0.42
          0.42 0.42 0.42 0.42 0.42 0.42 0.42
        </DataArray>
        <DataArray type="Float32" Name="permeability" NumberOfComponents="1" format="ascii">
          9.14e-10 9.14e-10 9.14e-10 9.14e-10 9.14e-10 9.14e-10 9.14e-10 9.14e-10 9.14e-10 9.14e-10 9.14e-10 9.14e-10
          9.14e-10 9.14e-10 9.14e-10 9.14e-10 9.14e-10 9.14e-10 9.14e-10 9.14e-10 6.28e-12 6.28e-12 6.28e-12 6.28e-12
          6.28e-12 6.28e-12 9.14e-10 9.14e-10 9.14e-10 9.14e-10 9.14e-10 9.14e-10 9.14e-10 9.14e-10 9.14e-10 9.14e-10
          9.14e-10 9.14e-10 9.14e-10 9.14e-10 9.14e-10 6.28e-12 6.28e-12 6.28e-12 6.28e-12 6.28e-12 6.28e-12 6.28e-12
          6.28e-12 9.14e-10 9.14e-10 9.14e-10 9.14e-10 9.14e-10 6.28e-12 6.28e-12 6.28e-12 6.28e-12 6.28e-12 6.28e-12
          6.28e-12 6.28e-12 9.14e-10 9.14e-10 9.14e-10 9.14e-10 9.14e-10 9.14e-10 9.14e-10 9.14e-10 9.14e-10 9.14e-10
          9.14e-10 9.14e-10 9.14e-10 9.14e-10 9.14e-10 9.14e-10 9.14e-10 9.14e-10 9.14e-10 9.14e-10 9.14e-10 9.14e-10
          9.14e-10 9.14e-10 9.14e-10 9.14e-10 9.14e-10 9.14e-10 9.14e-10
        </DataArray>
        <DataArray type="Float32" Name="temperature" NumberOfComponents="1" format="ascii">
          349.064 337.775 348.215 327.455 305.994 300.889 294.375 293.837 293.112 293.072 293.008 293.006
          293 293 293 293 293 293 293 293 293 293 293 293
          293 293 347.374 320.965 299.228 293.66 293.056 293.004 293 293 293 292.999
          292.999 292.999 293 347.31 316.884 293.809 293.048 293.004 293 293 293 293
          293 293 293 293 347.363 317.546 293.929 293.067 293.006 292.999 292.998 293
          293 293 293 293 293 348.097 326.075 301.896 294.152 293.114 293.01 292.999
          293 293 293 293 293 293 349.131 339.402 309.648 295.353 293.24 293.022
          293.002 293 293 293 293 293 293
        </DataArray>
        <DataArray type="Float32" Name="phase presence" NumberOfComponents="1" format="ascii">
          6 6 6 6 6 6 6 6 6 6 6 6
          6 6 6 6 6 6 6 6 6 6 6 6
          6 6 6 6 6 6 6 6 6 6 6 6
          6 6 6 6 6 6 6 6 6 6 6 6
          6 6 6 6 6 6 1 1 1 1 1 6
          6 6 6 6 6 6 6 1 1 1 1 1
          6 6 6 6 6 6 6 6 6 6 6 6
          6 6 6 6 6 6 6
        </DataArray>
      </PointData>
      <CellData Scalars="process rank">
        <DataArray type="Float32" Name="process rank" NumberOfComponents="1" format="ascii">
          0 0 0 0 0 0 0 0 0 0 0 0
          0 0 0 0 0 0 0 0 0 0 0 0
          0 0 0 0 0 0 0 0 0 0 0 0
          0 0 0 0 0 0 0 0 0 0 0 0
          0 0 0 0 0 0 0 0 0 0 0 0
          0 0 0 0 0 0 0 0 0 0 0 0
        </DataArray>
      </CellData>
      <Points>
        <DataArray type="Float32" Name="Coordinates" NumberOfComponents="3" format="ascii">
          0 0 0 0.125 0 0 0 0.123333 0 0.125 0.123333 0
          0.25 0 0 0.25 0.123333 0 0.375 0 0 0.375 0.123333 0
          0.5 0 0 0.5 0.123333 0 0.625 0 0 0.625 0.123333 0
          0.75 0 0 0.75 0.123333 0 0.875 0 0 0.875 0.123333 0
          1 0 0 1 0.123333 0 1.125 0 0 1.125 0.123333 0
          1.25 0 0 1.25 0.123333 0 1.375 0 0 1.375 0.123333 0
          1.5 0 0 1.5 0.123333 0 0 0.246667 0 0.125 0.246667 0
          0.25 0.246667 0 0.375 0.246667 0 0.5 0.246667 0 0.625 0.246667 0
          0.75 0.246667 0 0.875 0.246667 0 1 0.246667 0 1.125 0.246667 0
          1.25 0.246667 0 1.375 0.246667 0 1.5 0.246667 0 0 0.37 0
          0.125 0.37 0 0.25 0.37 0 0.375 0.37 0 0.5 0.37 0
          0.625 0.37 0 0.75 0.37 0 0.875 0.37 0 1 0.37 0
          1.125 0.37 0 1.25 0.37 0 1.375 0.37 0 1.5 0.37 0
          0 0.493333 0 0.125 0.493333 0 0.25 0.493333 0 0.375 0.493333 0
          0.5 0.493333 0 0.625 0.493333 0 0.75 0.493333 0 0.875 0.493333 0
          1 0.493333 0 1.125 0.493333 0 1.25 0.493333 0 1.375 0.493333 0
          1.5 0.493333 0 0 0.616667 0 0.125 0.616667 0 0.25 0.616667 0
          0.375 0.616667 0 0.5 0.616667 0 0.625 0.616667 0 0.75 0.616667 0
          0.875 0.616667 0 1 0.616667 0 1.125 0.616667 0 1.25 0.616667 0
          1.375 0.616667 0 1.5 0.616667 0 0 0.74 0 0.125 0.74 0
          0.25 0.74 0 0.375 0.74 0 0.5 0.74 0 0.625 0.74 0
          0.75 0.74 0 0.875 0.74 0 1 0.74 0 1.125 0.74 0
          1.25 0.74 0 1.375 0.74 0 1.5 0.74 0
        </DataArray>
      </Points>
      <Cells>
        <DataArray type="Int32" Name="connectivity" NumberOfComponents="1" format="ascii">
          0 1 3 2 1 4 5 3 4 6 7 5
          6 8 9 7 8 10 11 9 10 12 13 11
          12 14 15 13 14 16 17 15 16 18 19 17
          18 20 21 19 20 22 23 21 22 24 25 23
          2 3 27 26 3 5 28 27 5 7 29 28
          7 9 30 29 9 11 31 30 11 13 32 31
          13 15 33 32 15 17 34 33 17 19 35 34
          19 21 36 35 21 23 37 36 23 25 38 37
          26 27 40 39 27 28 41 40 28 29 42 41
          29 30 43 42 30 31 44 43 31 32 45 44
          32 33 46 45 33 34 47 46 34 35 48 47
          35 36 49 48 36 37 50 49 37 38 51 50
          39 40 53 52 40 41 54 53 41 42 55 54
          42 43 56 55 43 44 57 56 44 45 58 57
          45 46 59 58 46 47 60 59 47 48 61 60
          48 49 62 61 49 50 63 62 50 51 64 63
          52 53 66 65 53 54 67 66 54 55 68 67
          55 56 69 68 56 57 70 69 57 58 71 70
          58 59 72 71 59 60 73 72 60 61 74 73
          61 62 75 74 62 63 76 75 63 64 77 76
          65 66 79 78 66 67 80 79 67 68 81 80
          68 69 82 81 69 70 83 82 70 71 84 83
          71 72 85 84 72 73 86 85 73 74 87 86
          74 75 88 87 75 76 89 88 76 77 90 89
        </DataArray>
        <DataArray type="Int32" Name="offsets" NumberOfComponents="1" format="ascii">
          4 8 12 16 20 24 28 32 36 40 44 48
          52 56 60 64 68 72 76 80 84 88 92 96
          100 104 108 112 116 120 124 128 132 136 140 144
          148 152 156 160 164 168 172 176 180 184 188 192
          196 200 204 208 212 216 220 224 228 232 236 240
          244 248 252 256 260 264 268 272 276 280 284 288
        </DataArray>
        <DataArray type="UInt8" Name="types" NumberOfComponents="1" format="ascii">
          9 9 9 9 9 9 9 9 9 9 9 9
          9 9 9 9 9 9 9 9 9 9 9 9
          9 9 9 9 9 9 9 9 9 9 9 9
          9 9 9 9 9 9 9 9 9 9 9 9
          9 9 9 9 9 9 9 9 9 9 9 9
          9 9 9 9 9 9 9 9 9 9 9 9
        </DataArray>
      </Cells>
    </Piece>
  </UnstructuredGrid>
</VTKFile>
