<?xml version="1.0"?>
<VTKFile type="UnstructuredGrid" version="0.1" byte_order="LittleEndian">
  <UnstructuredGrid>
    <Piece NumberOfCells="1056" NumberOfPoints="1125">
      <PointData Scalars="Sw">
        <DataArray type="Float32" Name="Sw" NumberOfComponents="1" format="ascii">
          0.453028 0.478015 0.217629 0.217436 0.478131 0.217242 0.464548 0.214146 0.443881 0.201028 0.426039 0.175412
          0.38846 0.156036 0.294217 0.150798 0.209478 0.132748 0.142021 0.120126 0.120177 0.120003 0.12 0.12
          0.12 0.12 0.12 0.12 0.12 0.12 0.12 0.12 0.12 0.12 0.12 0.12
          0.12 0.12 0.12 0.12 0.12 0.12 0.12 0.12 0.12 0.12 0.12 0.12
          0.12 0.12 0.12 0.12 0.12 0.12 0.12 0.12 0.12 0.12 0.12 0.12
          0.12 0.12 0.12 0.12 0.12 0.12 0.12 0.12 0.12 0.12 0.12 0.12
          0.12 0.12 0.12 0.12 0.12 0.12 0.12 0.12 0.12 0.12 0.12 0.12
          0.12 0.12 0.12 0.12 0.12 0.12 0.198978 0.198212 0.198271 0.196118 0.181883 0.149734
          0.125553 0.121238 0.120073 0.120012 0.120002 0.12 0.12 0.12 0.12 0.12 0.12 0.12
          0.12 0.12 0.12 0.12 0.12 0.12 0.12 0.12 0.12 0.12 0.12 0.12
          0.12 0.12 0.12 0.12 0.12 0.12 0.12 0.12 0.12 0.12 0.12 0.12
          0.12 0.12 0.12 0.196298 0.19545 0.195558 0.193655 0.178201 0.145285 0.122493 0.120296 0.120055
          0.12001 0.120002 0.12 0.12 0.12 0.12 0.12 0.12 0.12 0.12 0.12 0.12
          0.12 0.12 0.12 0.12 0.12 0.12 0.12 0.12 0.12 0.12 0.12 0.12
          0.12 0.12 0.12 0.12 0.12 0.12 0.12 0.12 0.12 0.12 0.12 0.12
          0.1956 0.194673 0.194588 0.192704 0.177019 0.143753 0.122195 0.120278 0.120052 0.120009 0.120001 0.12
          0.12 0.12 0.12 0.12 0.12 0.12 0.12 0.12 0.12 0.12 0.12 0.12
          0.12 0.12 0.12 0.12 0.12 0.12 0.12 0.12 0.12 0.12 0.12 0.12
          0.12 0.12 0.12 0.12 0.12 0.12 0.12 0.12 0.12 0.195158 0.194133 0.193617
          0.191421 0.176355 0.143323 0.122161 0.120283 0.120053 0.120009 0.120001 0.12 0.12 0.12 0.12
          0.12 0.12 0.12 0.12 0.12 0.12 0.12 0.12 0.12 0.12 0.12 0.12
          0.12 0.12 0.12 0.12 0.12 0.12 0.12 0.119999 0.119999 0.119999 0.119999 0.119999
          0.119999 0.119999 0.119999 0.119999 0.119999 0.12 0.194738 0.193641 0.192533 0.189458 0.175629 0.143403
          0.122295 0.120308 0.120058 0.12001 0.120002 0.12 0.12 0.12 0.12 0.12 0.12 0.12
          0.12 0.12 0.12 0.12 0.12 0.12 0.12 0.12 0.12 0.12 0.12 0.12
          0.12 0.12 0.12 0.12 0.119999 0.119999 0.119999 0.119999 0.119999 0.119999 0.119999 0.119999
          0.119999 0.119999 0.12 0.194301 0.19321 0.191479 0.18662 0.174452 0.143606 0.122557 0.120353 0.120067
          0.120012 0.120002 0.12 0.12 0.12 0.12 0.12 0.12 0.12 0.12 0.12 0.12
          0.12 0.12 0.12 0.12 0.12 0.12 0.12 0.12 0.12 0.12 0.12 0.12
          0.12 0.119999 0.119999 0.119999 0.119999 0.119999 0.119999 0.119999 0.119999 0.12 0.119999 0.12
          0.19381 0.19286 0.190694 0.18261 0.172621 0.143657 0.122908 0.120415 0.120078 0.120014 0.120002 0.12
          0.12 0.12 0.12 0.12 0.12 0.12 0.12 0.12 0.12 0.12 0.12 0.12
          0.12 0.12 0.12 0.12 0.12 0.12 0.12 0.12 0.12 0.119999 0.119999 0.119999
          0.119999 0.119999 0.119999 0.119999 0.12 0.12 0.12 0.12 0.12 0.193216 0.192561 0.190548
          0.176613 0.17017 0.145298 0.123403 0.120473 0.120086 0.120015 0.120002 0.12 0.12 0.12 0.12
          0.12 0.12 0.12 0.12 0.12 0.12 0.12 0.12 0.12 0.12 0.12 0.12
          0.12 0.12 0.12 0.12 0.12 0.12 0.119999 0.119999 0.119999 0.119999 0.119999 0.119999
          0.119999 0.12 0.12 0.12 0.12 0.12 0.192455 0.192202 0.191823 0.164538 0.165788 0.158714
          0.126529 0.120453 0.120077 0.120013 0.120002 0.12 0.12 0.12 0.12 0.12 0.12 0.12
          0.12 0.12 0.12 0.12 0.119999 0.119999 0.119999 0.119999 0.119999 0.119999 0.119999 0.119999
          0.119999 0.119999 0.119999 0.119999 0.119999 0.119999 0.119999 0.119999 0.119999 0.12 0.12 0.12
          0.12 0.12 0.12 0.19147 0.191607 0.193395 0.196285 0.151306 0.121744 0.120029 0.120005 0.120001
          0.12 0.12 0.12 0.12 0.12 0.12 0.12 0.12 0.12 0.12 0.12 0.12
          0.12 0.12 0.12 0.12 0.12 0.12 0.12 0.12 0.12 0.12 0.12 0.12
          0.12 0.12 0.12 0.119999 0.12 0.12 0.12 0.12 0.12 0.12 0.12 0.12
          0.190227 0.190652 0.193843 0.188878 0.140688 0.120101 0.120009 0.120002 0.12 0.12 0.12 0.12
          0.12 0.12 0.12 0.12 0.12 0.12 0.12 0.12 0.12 0.12 0.12 0.12
          0.12 0.12 0.12 0.12 0.12 0.12 0.12 0.12 0.12 0.12 0.12 0.12
          0.12 0.12 0.12 0.12 0.12 0.12 0.12 0.119999 0.12 0.188713 0.189319 0.19301
          0.185933 0.137698 0.120072 0.120005 0.12 0.12 0.12 0.12 0.12 0.12 0.12 0.12
          0.12 0.12 0.12 0.12 0.12 0.12 0.12 0.12 0.119999 0.12 0.12 0.12
          0.12 0.12 0.12 0.12 0.12 0.12 0.12 0.12 0.12 0.12 0.12 0.12
          0.12 0.12 0.12 0.12 0.119999 0.12 0.186925 0.187638 0.192038 0.185267 0.137321 0.120067
          0.120005 0.120001 0.12 0.12 0.12 0.12 0.12 0.12 0.12 0.12 0.12 0.12
          0.12 0.12 0.12 0.12 0.12 0.12 0.12 0.12 0.12 0.12 0.12 0.12
          0.12 0.12 0.12 0.12 0.12 0.12 0.12 0.12 0.12 0.12 0.12 0.12
          0.119999 0.119998 0.12 0.184857 0.185593 0.190687 0.185658 0.138177 0.120071 0.120005 0.120001 0.12
          0.12 0.12 0.12 0.12 0.12 0.12 0.12 0.12 0.12 0.12 0.12 0.12
          0.12 0.12 0.12 0.12 0.12 0.12 0.12 0.12 0.12 0.12 0.12 0.12
          0.12 0.12 0.12 0.12 0.12 0.12 0.12 0.12 0.12 0.12 0.119998 0.12
          0.182502 0.183141 0.188671 0.186194 0.139854 0.120085 0.120005 0.120001 0.12 0.12 0.12 0.12
          0.12 0.12 0.12 0.12 0.12 0.12 0.12 0.12 0.12 0.12 0.12 0.12
          0.12 0.12 0.12 0.12 0.12 0.12 0.12 0.12 0.12 0.12 0.12 0.12
          0.119999 0.12 0.12 0.12 0.12 0.12 0.119999 0.119998 0.12 0.17986 0.180275 0.185785
          0.186339 0.142179 0.120116 0.120008 0.120001 0.12 0.12 0.12 0.12 0.12 0.12 0.12
          0.12 0.12 0.12 0.12 0.12 0.12 0.12 0.12 0.12 0.12 0.12 0.12
          0.12 0.12 0.12 0.12 0.12 0.12 0.12 0.12 0.12 0.12 0.12 0.12
          0.12 0.12 0.12 0.119999 0.119998 0.12 0.176926 0.17704 0.18202 0.182674 0.150473 0.123925
          0.120293 0.120003 0.12 0.12 0.12 0.12 0.12 0.12 0.12 0.12 0.12 0.12
          0.12 0.12 0.12 0.12 0.12 0.12 0.12 0.12 0.12 0.12 0.12 0.12
          0.12 0.12 0.12 0.12 0.12 0.12 0.12 0.12 0.12 0.12 0.12 0.12
          0.119999 0.119998 0.12 0.173676 0.173487 0.178446 0.163236 0.178918 0.168892 0.145814 0.120772 0.119987
          0.11998 0.119991 0.119997 0.119999 0.119999 0.12 0.12 0.12 0.12 0.12 0.12 0.12
          0.12 0.12 0.119999 0.119998 0.119999 0.119999 0.119999 0.119999 0.12 0.12 0.12 0.12
          0.12 0.12 0.12 0.12 0.12 0.12 0.12 0.12 0.12 0.12 0.119998 0.12
          0.170054 0.169526 0.175269 0.182149 0.177329 0.147267 0.125151 0.120278 0.119994 0.119979 0.11999 0.119996
          0.119999 0.119999 0.12 0.12 0.12 0.12 0.12 0.12 0.12 0.12 0.12 0.119999
          0.119998 0.119998 0.119999 0.119999 0.12 0.12 0.12 0.12 0.12 0.12 0.12 0.12
          0.12 0.12 0.12 0.12 0.12 0.12 0.12 0.119998 0.12 0.165966 0.164901 0.171159
          0.179578 0.177068 0.149458 0.125919 0.120326 0.120021 0.119988 0.119992 0.119996 0.119998 0.119999 0.119999
          0.119999 0.119999 0.119999 0.119999 0.119999 0.119999 0.12 0.12 0.12 0.119991 0.119997 0.119999
          0.12 0.12 0.12 0.12 0.12 0.12 0.12 0.12 0.12 0.12 0.12 0.12
          0.12 0.12 0.12 0.12 0.119999 0.12 0.161288 0.159328 0.165135 0.173802 0.175232 0.151373
          0.125813 0.120662 0.120106 0.120011 0.119998 0.119998 0.119999 0.119999 0.119999 0.119999 0.119999 0.119999
          0.119999 0.119999 0.119999 0.12 0.12 0.119999 0.119999 0.119999 0.119999 0.119999 0.119999 0.119999
          0.119999 0.119999 0.119999 0.119999 0.119999 0.119999 0.119999 0.12 0.12 0.12 0.12 0.12
          0.12 0.119999 0.12 0.155806 0.152446 0.157405 0.165666 0.17046 0.152436 0.126904 0.12081 0.120151
          0.120026 0.120003 0.12 0.119999 0.119999 0.119999 0.119999 0.119999 0.119999 0.119999 0.119999 0.119999
          0.119999 0.119999 0.119999 0.119999 0.119999 0.119999 0.119999 0.119999 0.119999 0.119999 0.119999 0.119999
          0.119999 0.119999 0.119999 0.119999 0.119999 0.12 0.12 0.12 0.12 0.12 0.119999 0.12
          0.149301 0.142204 0.145986 0.153052 0.159764 0.148972 0.126905 0.120896 0.120166 0.12003 0.120005 0.12
          0.12 0.119999 0.119999 0.119999 0.119999 0.119999 0.119999 0.119999 0.119999 0.119999 0.119999 0.119999
          0.119999 0.119999 0.119999 0.119999 0.119999 0.119999 0.119999 0.119999 0.119999 0.119999 0.119999 0.119999
          0.119999 0.12 0.12 0.12 0.12 0.12 0.12 0.119999 0.12
        </DataArray>
        <DataArray type="Float32" Name="Sn" NumberOfComponents="1" format="ascii">
          0 0 0 0 0 0 0 0 0 0 0 0
          0 0 0 0 0 0 0 0 0 0 0 0
          0 0 0 0 0 0 0 0 0 0 0 0
          0 0 0 0 0 0 0 0 0 0 0 0
          0 0 0 0 0 0 0 0 0 0 0 0
          0 0 0 0 0 0 0 0 0 0 0 0
          0 0 0 0 0 0 0 0 0 0 0 0
          0 0 0 0 0 0 0 0 0 0 0 0
          0 0 0 0 0 0 0 0 0 0 0 0
          0 0 0 0 0 0 0 0 0 0 0 0
          0 0 0 0 0 0 0 0 0 0 0 0
          0 0 0 0 0 0 0 0 0 0 0 0
          0 0 0 0 0 0 0 0 0 0 0 0
          0 0 0 0 0 0 0 0 0 0 0 0
          0 0 0 0 0 0 0 0 0 0 0 0
          0 0 0 0 0 0 0 0 0 0 0 0
          0 0 0 0 0 0 0 0 0 0 0 0
          0 0 0 0 0 0 0 0 0 0 0 0
          0 0 0 0 0 0 0 0 0 0 0 0
          0 0 0 0 0 0 0 0 0 0 0 0
          0 0 0 0 0 0 0 0 0 0 0 0
          0 0 0 0 0 0 0 0 0 0 0 0
          0 0 0 0 0 0 0 0 0 0 0 0
          0 0 0 0 0 0 0 0 0 0 0 0
          0 0 0 0 0 0 0 0 0 0 0 0
          0 0 0 0 0 0 0 0 0 0 0 0
          0 0 0 0 0 0 0 0 0 0 0 0
          0 0 0 0 0 0 0 0 0 0 0 0
          0 0 0 0 0 0 0 0 0 0 0 0
          0 0 0 0 0 0 0 0 0 0 0 0
          0 0 0 0 0 0 0 0 0 0 0 0
          0 0 0 0 0 0 0 0 0 0 0 0
          0 0 0 0 0 0 0 0 0 0 0 0
          0 0 0 0 0 0 0 0 0 0 0 0
          0 0 0 0 0 0 0 0 0 0 0 0
          0 0 0 0 0 0 0 0 0 0 0 0
          0 0 0 0 0 0 0 0 0 0 0 0
          0 0 0 0 0 0 0 0 0 0 0 0
          0 0 0 0 0 0 0 0 0 0 0 0
          0 0 0 0 0 0 0 0 0 0 0 0
          0 0 0 0 0 0 0 0 0 0 0 0
          0 0 0 0 0 0 0 0 0 0 0 0
          0 0 0 0 0 0 0 0 0 0 0 0
          0 0 0 0 0 0 0 0 0 0 0 0
          0 0 0 0 0 0 0 0 0 0 0 0
          0 0 0 0 0 0 0 0 0 0 0 0
          0 0 0 0 0 0 0 0 0 0 0 0
          0 0 0 0 0 0 0 0 0 0 0 0
          0 0 0 0 0 0 0 0 0 0 0 0
          0 0 0 0.0696677 0.0698962 0.0699069 0.0699098 0.0699099 0.0699092 0.0699084 0.0699076 0.0699069
          0.0699061 0.0699052 0.069904 0.0699026 0.069901 0.0698991 0.0698965 0.0698908 0.0698315 0 0 0
          0 0 0 0 0 0 0 0 0 0 0 0
          0 0 0 0 0 0 0 0 0 0 0 0
          0.0697797 0.0700012 0.0700001 0.07 0.07 0.07 0.07 0.07 0.07 0.07 0.07 0.07
          0.07 0.07 0.07 0.07 0.07 0.0699492 0 0 0 0 0 0
          0 0 0 0 0 0 0 0 0 0 0 0
          0 0 0 0 0 0 0 0 0 0.0697865 0.0700012 0.0700001
          0.07 0.07 0.07 0.07 0.07 0.07 0.07 0.07 0.07 0.07 0.07 0.07
          0.07 0.07 0.0699614 0 0 0 0 0 0 0 0 0
          0 0 0 0 0 0 0 0 0 0 0 0
          0 0 0 0 0 0 0.0697902 0.0700013 0.07 0.0699999 0.07 0.07
          0.07 0.07 0.07 0.07 0.07 0.07 0.07 0.07 0.07 0.07 0.07 0.0699689
          0 0 0 0 0 0 0 0 0 0 0 0
          0 0 0 0 0 0 0 0 0 0 0 0
          0 0 0 0.0697958 0.0700019 0.0699997 0.0699997 0.0699999 0.07 0.07 0.07 0.07
          0.07 0.07 0.07 0.07 0.07 0.07 0.07 0.07 0.0699761 0 0 0
          0 0 0 0 0 0 0 0 0 0 0 0
          0 0 0 0 0 0 0 0 0 0 0 0
          0.0698056 0.070006 0.0699992 0.0699992 0.0699997 0.0699999 0.07 0.07 0.07 0.07 0.07 0.07
          0.07 0.07 0.07 0.07 0.07 0.0699859 0 0 0 0 0 0
          0 0 0 0 0 0 0 0 0 0 0 0
          0 0 0 0 0 0 0 0 0 0.0553835 0.0701893 0.06999
          0.0699827 0.0699921 0.0699971 0.0699989 0.0699995 0.0699996 0.0699997 0.0699997 0.0699997 0.0699997 0.0699997 0.0699997
          0.0699997 0.0699997 0.069995 0 0 0 0 0 0 0 0 0
          0 0 0 0 0 0 0 0 0 0 0 0
          0 0 0 0 0 0 0.0559249 0.0702557 0.0699968 0.0699813 0.0699908 0.0699966
          0.0699987 0.0699994 0.0699996 0.0699996 0.0699996 0.0699996 0.0699997 0.0699997 0.0699997 0.0699997 0.0699998 0.0699964
          0 0 0 0 0 0 0 0 0 0 0 0
          0 0 0 0 0 0 0 0 0 0 0 0
          0 0 0 0.0560399 0.0700949 0.0698255 0.0698004 0.0698076 0.0698143 0.0698183 0.0698209 0.0698229
          0.0698247 0.0698263 0.0698259 0.0698235 0.0698182 0.0698069 0.0697836 0.0697356 0.0696077 0 0 0
          0 0 0 0 0 0 0 0 0 0 0 0
          0 0 0 0 0 0 0 0 0 0 0 0
          0 0 0 0 0 0 0 0 0 0 0 0
          0 0 0 0 0 0 0 0 0 0 0 0
          0 0 0 0 0 0 0 0 0 0 0 0
          0 0 0 0 0 0 0 0 0 0 0 0
          0 0 0 0 0 0 0 0 0 0 0 0
          0 0 0 0 0 0 0 0 0 0 0 0
          0 0 0 0 0 0 0 0 0 0 0 0
          0 0 0 0 0 0 0 0 0 0 0 0
          0 0 0 0 0 0 0 0 0 0 0 0
          0 0 0 0 0 0 0 0 0 0 0 0
          0 0 0 0 0 0 0 0 0
        </DataArray>
        <DataArray type="Float32" Name="Sg" NumberOfComponents="1" format="ascii">
          0.546972 0.521985 0.782371 0.782564 0.521869 0.782758 0.535452 0.785854 0.556119 0.798972 0.573961 0.824588
          0.61154 0.843964 0.705783 0.849202 0.790522 0.867252 0.857979 0.879874 0.879823 0.879997 0.88 0.88
          0.88 0.88 0.88 0.88 0.88 0.88 0.88 0.88 0.88 0.88 0.88 0.88
          0.88 0.88 0.88 0.88 0.88 0.88 0.88 0.88 0.88 0.88 0.88 0.88
          0.88 0.88 0.88 0.88 0.88 0.88 0.88 0.88 0.88 0.88 0.88 0.88
          0.88 0.88 0.88 0.88 0.88 0.88 0.88 0.88 0.88 0.88 0.88 0.88
          0.88 0.88 0.88 0.88 0.88 0.88 0.88 0.88 0.88 0.88 0.88 0.88
          0.88 0.88 0.88 0.88 0.88 0.88 0.801022 0.801788 0.801729 0.803882 0.818117 0.850266
          0.874447 0.878762 0.879927 0.879988 0.879998 0.88 0.88 0.88 0.88 0.88 0.88 0.88
          0.88 0.88 0.88 0.88 0.88 0.88 0.88 0.88 0.88 0.88 0.88 0.88
          0.88 0.88 0.88 0.88 0.88 0.88 0.88 0.88 0.88 0.88 0.88 0.88
          0.88 0.88 0.88 0.803702 0.80455 0.804442 0.806345 0.821799 0.854715 0.877507 0.879704 0.879945
          0.87999 0.879999 0.88 0.88 0.88 0.88 0.88 0.88 0.88 0.88 0.88 0.88
          0.88 0.88 0.88 0.88 0.88 0.88 0.88 0.88 0.88 0.88 0.88 0.88
          0.88 0.88 0.88 0.88 0.88 0.88 0.88 0.88 0.88 0.88 0.88 0.88
          0.8044 0.805327 0.805412 0.807296 0.822981 0.856247 0.877805 0.879722 0.879948 0.879991 0.879999 0.88
          0.88 0.88 0.88 0.88 0.88 0.88 0.88 0.88 0.88 0.88 0.88 0.88
          0.88 0.88 0.88 0.88 0.88 0.88 0.88 0.88 0.88 0.88 0.88 0.88
          0.88 0.88 0.88 0.88 0.88 0.88 0.88 0.88 0.88 0.804842 0.805867 0.806383
          0.808579 0.823645 0.856677 0.877839 0.879717 0.879947 0.879991 0.879999 0.88 0.88 0.88 0.88
          0.88 0.88 0.88 0.88 0.88 0.88 0.88 0.88 0.88 0.88 0.88 0.88
          0.88 0.88 0.88 0.88 0.88 0.88 0.88 0.88 0.880001 0.880001 0.880001 0.880001
          0.880001 0.880001 0.880001 0.880001 0.880001 0.88 0.805262 0.806359 0.807467 0.810542 0.824371 0.856597
          0.877705 0.879692 0.879942 0.87999 0.879998 0.88 0.88 0.88 0.88 0.88 0.88 0.88
          0.88 0.88 0.88 0.88 0.88 0.88 0.88 0.88 0.88 0.88 0.88 0.88
          0.88 0.88 0.88 0.88 0.880001 0.880001 0.880001 0.880001 0.880001 0.880001 0.880001 0.880001
          0.880001 0.880001 0.88 0.805699 0.80679 0.808521 0.81338 0.825548 0.856394 0.877443 0.879647 0.879933
          0.879988 0.879998 0.88 0.88 0.88 0.88 0.88 0.88 0.88 0.88 0.88 0.88
          0.88 0.88 0.88 0.88 0.88 0.88 0.88 0.88 0.88 0.88 0.88 0.88
          0.88 0.880001 0.880001 0.880001 0.880001 0.880001 0.880001 0.880001 0.880001 0.88 0.880001 0.88
          0.80619 0.80714 0.809306 0.81739 0.827379 0.856343 0.877092 0.879585 0.879922 0.879986 0.879998 0.88
          0.88 0.88 0.88 0.88 0.88 0.88 0.88 0.88 0.88 0.88 0.88 0.88
          0.88 0.88 0.88 0.88 0.88 0.88 0.88 0.88 0.88 0.880001 0.880001 0.880001
          0.880001 0.880001 0.880001 0.880001 0.88 0.88 0.88 0.88 0.88 0.806784 0.807439 0.809452
          0.823387 0.82983 0.854702 0.876597 0.879527 0.879914 0.879985 0.879998 0.88 0.88 0.88 0.88
          0.88 0.88 0.88 0.88 0.88 0.88 0.88 0.88 0.88 0.88 0.88 0.88
          0.88 0.88 0.88 0.88 0.88 0.88 0.880001 0.880001 0.880001 0.880001 0.880001 0.880001
          0.88 0.88 0.88 0.88 0.88 0.88 0.807545 0.807798 0.808177 0.835462 0.834212 0.841286
          0.873471 0.879547 0.879923 0.879987 0.879998 0.88 0.88 0.88 0.88 0.88 0.88 0.88
          0.88 0.88 0.88 0.88 0.880001 0.880001 0.880001 0.880001 0.880001 0.880001 0.880001 0.880001
          0.88 0.880001 0.880001 0.880001 0.880001 0.880001 0.880001 0.880001 0.88 0.88 0.88 0.88
          0.88 0.88 0.88 0.80853 0.808393 0.806605 0.803715 0.848694 0.878256 0.879972 0.879995 0.879999
          0.88 0.88 0.88 0.88 0.88 0.88 0.88 0.88 0.88 0.88 0.88 0.88
          0.88 0.88 0.88 0.88 0.88 0.88 0.88 0.88 0.88 0.88 0.88 0.88
          0.88 0.88 0.88 0.880001 0.88 0.88 0.88 0.88 0.88 0.88 0.88 0.88
          0.809773 0.809348 0.806157 0.811122 0.859312 0.879899 0.879991 0.879998 0.88 0.88 0.88 0.88
          0.88 0.88 0.88 0.88 0.88 0.88 0.88 0.88 0.88 0.88 0.88 0.88
          0.88 0.88 0.88 0.88 0.88 0.88 0.88 0.88 0.88 0.88 0.88 0.88
          0.88 0.88 0.88 0.88 0.88 0.88 0.88 0.880001 0.88 0.811287 0.810681 0.80699
          0.814067 0.862302 0.879928 0.810327 0.810103 0.810093 0.81009 0.81009 0.810091 0.810092 0.810093 0.810093
          0.810094 0.810095 0.810096 0.810098 0.810099 0.810101 0.810104 0.81011 0.810169 0.88 0.88 0.88
          0.88 0.88 0.88 0.88 0.88 0.88 0.88 0.88 0.88 0.88 0.88 0.88
          0.88 0.88 0.88 0.88 0.880001 0.88 0.813075 0.812362 0.807962 0.814733 0.862679 0.879933
          0.810215 0.809998 0.81 0.81 0.81 0.81 0.81 0.81 0.81 0.81 0.81 0.81
          0.81 0.81 0.81 0.81 0.81 0.810051 0.88 0.88 0.88 0.88 0.88 0.88
          0.88 0.88 0.88 0.88 0.88 0.88 0.88 0.88 0.88 0.88 0.88 0.88
          0.880001 0.880002 0.88 0.815143 0.814407 0.809313 0.814342 0.861823 0.879929 0.810209 0.809998 0.81
          0.81 0.81 0.81 0.81 0.81 0.81 0.81 0.81 0.81 0.81 0.81 0.81
          0.81 0.81 0.810039 0.88 0.88 0.88 0.88 0.88 0.88 0.88 0.88 0.88
          0.88 0.88 0.88 0.88 0.88 0.88 0.88 0.88 0.88 0.88 0.880002 0.88
          0.817498 0.816859 0.811329 0.813806 0.860146 0.879915 0.810205 0.809998 0.81 0.81 0.81 0.81
          0.81 0.81 0.81 0.81 0.81 0.81 0.81 0.81 0.81 0.81 0.81 0.810031
          0.88 0.88 0.88 0.88 0.88 0.88 0.88 0.88 0.88 0.88 0.88 0.88
          0.880001 0.88 0.88 0.88 0.88 0.88 0.880001 0.880002 0.88 0.82014 0.819725 0.814215
          0.813661 0.857821 0.879884 0.810196 0.809997 0.81 0.81 0.81 0.81 0.81 0.81 0.81
          0.81 0.81 0.81 0.81 0.81 0.81 0.81 0.81 0.810024 0.88 0.88 0.88
          0.88 0.88 0.88 0.88 0.88 0.88 0.88 0.88 0.88 0.88 0.88 0.88
          0.88 0.88 0.88 0.880001 0.880002 0.88 0.823074 0.82296 0.81798 0.817326 0.849527 0.876074
          0.809901 0.809991 0.810001 0.810001 0.81 0.81 0.81 0.81 0.81 0.81 0.81 0.81
          0.81 0.81 0.81 0.81 0.81 0.810014 0.88 0.88 0.88 0.88 0.88 0.88
          0.88 0.88 0.88 0.88 0.88 0.88 0.88 0.88 0.88 0.88 0.88 0.88
          0.880001 0.880002 0.88 0.826324 0.826513 0.821554 0.836764 0.821082 0.831108 0.798802 0.809039 0.810023
          0.810037 0.810017 0.810006 0.810002 0.810001 0.810001 0.810001 0.810001 0.810001 0.810001 0.810001 0.810001
          0.810001 0.810001 0.810006 0.880002 0.880001 0.880001 0.880001 0.880001 0.88 0.88 0.88 0.88
          0.88 0.88 0.88 0.88 0.88 0.88 0.88 0.88 0.88 0.88 0.880002 0.88
          0.829946 0.830474 0.824731 0.817851 0.822671 0.852733 0.818924 0.809466 0.810009 0.81004 0.81002 0.810007
          0.810003 0.810001 0.810001 0.810001 0.810001 0.810001 0.810001 0.810001 0.810001 0.810001 0.81 0.810004
          0.880002 0.880002 0.880001 0.880001 0.88 0.88 0.88 0.88 0.88 0.88 0.88 0.88
          0.88 0.88 0.88 0.88 0.88 0.88 0.88 0.880001 0.88 0.834034 0.835099 0.828842
          0.820422 0.822932 0.850542 0.818041 0.809579 0.810154 0.810211 0.8102 0.810189 0.810184 0.81018 0.810178
          0.810176 0.810175 0.810175 0.810177 0.810183 0.810194 0.810217 0.810264 0.810392 0.880009 0.880003 0.880001
          0.88 0.88 0.88 0.88 0.88 0.88 0.88 0.88 0.88 0.88 0.88 0.88
          0.88 0.88 0.88 0.88 0.880001 0.88 0.838712 0.840672 0.834865 0.826198 0.824768 0.848627
          0.874187 0.879338 0.879894 0.879989 0.880002 0.880002 0.880001 0.880001 0.880001 0.880001 0.880001 0.880001
          0.880001 0.880001 0.880001 0.88 0.88 0.880001 0.880001 0.880001 0.880001 0.880001 0.880001 0.880001
          0.880001 0.880001 0.880001 0.880001 0.880001 0.880001 0.880001 0.88 0.88 0.88 0.88 0.88
          0.88 0.880001 0.88 0.844194 0.847554 0.842595 0.834334 0.82954 0.847564 0.873096 0.87919 0.879849
          0.879974 0.879997 0.88 0.880001 0.880001 0.880001 0.880001 0.880001 0.880001 0.880001 0.880001 0.880001
          0.880001 0.880001 0.880001 0.880001 0.880001 0.880001 0.880001 0.880001 0.880001 0.880001 0.880001 0.880001
          0.880001 0.880001 0.880001 0.880001 0.880001 0.88 0.88 0.88 0.88 0.88 0.880001 0.88
          0.850699 0.857796 0.854014 0.846948 0.840236 0.851028 0.873095 0.879104 0.879834 0.87997 0.879995 0.88
          0.88 0.880001 0.880001 0.880001 0.880001 0.880001 0.880001 0.880001 0.880001 0.880001 0.880001 0.880001
          0.880001 0.880001 0.880001 0.880001 0.880001 0.880001 0.880001 0.880001 0.880001 0.880001 0.880001 0.880001
          0.880001 0.88 0.88 0.88 0.88 0.88 0.88 0.880001 0.88
        </DataArray>
        <DataArray type="Float32" Name="pw" NumberOfComponents="1" format="ascii">
          99842.3 99840.4 99676.6 99671.6 99834.3 99666 99824.7 99656.1 99813.4 99628.8 99804 99562.6
          99786.5 99479 99731.3 99444.5 99636.2 99224.4 99365.6 98795.8 98796.2 98789.6 98788.1 98787.7
          98786.3 98785.9 98784.5 98784.1 98782.6 98782.3 98780.8 98780.4 98778.9 98778.6 98777.1 98776.7
          98775.2 98774.9 98773.4 98773 98771.5 98771.2 98769.7 98769.3 98767.8 98767.5 98766 98765.6
          98764.2 98763.8 98762.4 98762 98760.6 98760.2 98758.8 98758.4 98757.1 98756.7 98755.4 98755
          98753.8 98753.4 98752.4 98751.9 98751 98750.6 98749.9 98749.5 98749.1 98748.6 98748.7 98748.2
          87189.4 87188.9 87184.6 87184 87180.3 87179.7 87176.4 87175.9 87172.8 87172.4 87169.5 87169.1
          87166.2 87165.8 87162.9 87162.6 87159.3 87159.3 99642.5 99636.6 99631.9 99622.7 99584.2 99440.4
          98996.2 98839.1 98795.4 98791.4 98789.3 98787.4 98785.6 98783.8 98781.9 98780.1 98778.2 98776.4
          98774.5 98772.7 98770.8 98769 98767.1 98765.3 98763.4 98761.6 98759.8 98758 98756.3 98754.6
          98752.9 98751.4 98750 98748.8 98747.8 98747.3 87187.9 87183 87178.8 87175.1 87171.8 87168.6
          87165.5 87162.4 87159.3 99636.2 99630.1 99625.8 99617 99573.4 99404.3 98885.8 98805 98794.5
          98791.1 98789 98787.1 98785.3 98783.4 98781.6 98779.7 98777.9 98776 98774.2 98772.3 98770.5
          98768.6 98766.7 98764.9 98763 98761.2 98759.4 98757.6 98755.8 98754.1 98752.4 98750.7 98749.2
          98747.8 98746.7 98746 87186.3 87181.5 87177.5 87174.1 87171 87168.1 87165.2 87162.2 87159.3
          99634.4 99628.1 99623.4 99614.7 99569.7 99389.8 98874.9 98804.1 98794.2 98790.8 98788.7 98786.8
          98785 98783.1 98781.3 98779.4 98777.5 98775.7 98773.8 98772 98770.1 98768.2 98766.4 98764.5
          98762.7 98760.8 98759 98757.1 98755.3 98753.5 98751.8 98750 98748.3 98746.7 98745.2 98744.1
          87183.6 87179.1 87175.8 87172.9 87170.1 87167.5 87164.8 87162.2 87159.3 99633.3 99626.9 99621.2
          99611.7 99567.6 99385.5 98873.6 98804.2 98794 98790.6 98788.4 98786.5 98784.7 98782.8 98780.9
          98779.1 98777.2 98775.3 98773.5 98771.6 98769.7 98767.9 98766 98764.1 98762.3 98760.4 98758.5
          98756.7 98754.8 98753 98751.1 98749.3 98747.4 98745.5 98743.6 98741.2 98737.2 98734.1 98731.3
          98728.6 98726.1 98723.6 98721.2 98718.6 98715.9 99632.6 99626 99619 99607.3 99565.3 99386.2
          98878.4 98804.9 98794 98790.4 98788.2 98786.2 98784.3 98782.5 98780.6 98778.7 98776.9 98775
          98773.1 98771.2 98769.4 98767.5 98765.6 98763.7 98761.9 98760 98758.1 98756.2 98754.3 98752.4
          98750.5 98748.5 98746.5 98744.4 98742.1 98739.5 98736.5 98733.5 98730.7 98728.1 98725.7 98723.2
          98720.9 98718.4 98715.9 99632.2 99625.6 99617.1 99600.7 99561.8 99388.3 98887.7 98806.4 98794.1
          98790.2 98787.9 98785.9 98784 98782.1 98780.3 98778.4 98776.5 98774.6 98772.8 98770.9 98769
          98767.1 98765.2 98763.4 98761.5 98759.6 98757.7 98755.8 98753.8 98751.9 98749.9 98747.8 98745.6
          98743.4 98740.9 98738.3 98735.5 98732.7 98730.1 98727.6 98725.2 98722.9 98720.6 98718.3 98715.9
          99632 99625.7 99616.1 99590.9 99556.1 99388.9 98900.2 98808.5 98794.3 98790 98787.6 98785.6
          98783.7 98781.8 98779.9 98778 98776.2 98774.3 98772.4 98770.5 98768.6 98766.8 98764.9 98763
          98761.1 98759.2 98757.3 98755.3 98753.3 98751.3 98749.3 98747.1 98744.9 98742.5 98739.9 98737.2
          98734.4 98731.8 98729.3 98726.9 98724.7 98722.5 98720.3 98718.1 98715.9 99631.8 99626.2 99617
          99574.6 99548 99404.5 98918 98810.4 98794.4 98789.8 98787.3 98785.3 98783.4 98781.5 98779.6
          98777.7 98775.8 98773.9 98772 98770.2 98768.3 98766.4 98764.5 98762.6 98760.7 98758.8 98756.9
          98754.9 98752.9 98750.9 98748.8 98746.6 98744.2 98741.8 98739.1 98736.2 98733.3 98730.6 98728.3
          98726.2 98724.1 98722.1 98720 98718 98715.9 99631.5 99626.8 99621.8 99532.7 99531.5 99495
          99030.3 98809.4 98793.7 98789.4 98787 98785 98783.1 98781.1 98779.2 98777.3 98775.5 98773.6
          98771.7 98769.8 98767.9 98766 98764.1 98762.2 98760.3 98758.4 98756.5 98754.5 98752.5 98750.4
          98748.3 98746.1 98743.7 98741.2 98738.5 98735.5 98731.6 98729.3 98727.3 98725.4 98723.6 98721.7
          98719.8 98717.9 98715.9 99630.7 99627.1 99627.5 99631.3 93781.1 87871.1 87250.3 87239.1 87235.1
          87232.6 87230.4 87228.3 87226.3 87224.3 87222.4 87220.4 87218.5 87216.6 87214.7 87212.8 87210.8
          87208.9 87207 87205.1 87203.1 87201.2 87199.2 87197.2 87195.1 87193 87190.8 87188.5 87186
          87183.3 87180.2 87175.9 98728.8 98727.8 98726.3 98724.7 98723 98721.3 98719.5 98717.7 98715.9
          99629.2 99626.4 99630.4 99617 92843.3 87283 87245.7 87239.4 87235.9 87233.2 87230.8 87228.6
          87226.4 87224.3 87222.3 87220.3 87218.3 87216.3 87214.3 87212.3 87210.3 87208.4 87206.4 87204.3
          87202.3 87200.3 87198.3 87196.2 87194.1 87191.9 87189.6 87187.1 87184.4 87181.4 87177.8 87173.3
          98727.1 98726.4 98725.3 98724 98722.5 98720.9 98719.3 98717.6 98715.9 99626.6 99624.3 99629.9
          99611.3 92456 87274.9 82388.1 82371.2 82367.1 82364 82361.4 82359 82356.8 82354.6 82352.5
          82350.5 82348.4 82346.4 82344.5 82342.5 82340.5 82338.6 82336.8 82337.5 87201.5 87199.5 87197.4
          87195.3 87193.1 87190.8 87188.4 87185.9 87183 87179.8 87176.1 87171.8 98725.9 98725.4 98724.5
          98723.3 98722 98720.6 98719.1 98717.5 98715.9 99622.8 99620.9 99628.4 99610.4 92401.7 87274.2
          82383.7 82367.2 82363.3 82360.2 82357.4 82354.9 82352.5 82350.2 82348 82345.9 82343.7 82341.6
          82339.5 82337.4 82335.3 82333.2 82331.1 82331.3 87200.7 87198.7 87196.6 87194.4 87192.2 87189.9
          87187.5 87184.8 87181.9 87178.7 87175 87170.8 98725.1 98724.7 98723.9 98722.9 98721.6 98720.3
          98718.9 98717.4 98715.9 99617.5 99615.8 99625.3 99611.5 92525.3 87275.8 82383.6 82367.4 82363.4
          82360.3 82357.4 82354.9 82352.4 82350.1 82347.8 82345.6 82343.4 82341.3 82339.1 82337 82334.8
          82332.6 82330.4 82330 87200 87197.9 87195.8 87193.6 87191.4 87189.1 87186.6 87184 87181.1
          87178 87174.4 87170.3 98724.7 98724.3 98723.5 98722.5 98721.4 98720.1 98718.7 98717.3 98715.9
          99610.8 99608.9 99620 99612.2 92745 87279.9 82383.1 82367 82363.2 82360.1 82357.3 82354.7
          82352.3 82349.9 82347.6 82345.4 82343.1 82340.9 82338.7 82336.5 82334.3 82332.1 82329.8 82329
          87199.3 87197.2 87195.1 87192.9 87190.6 87188.3 87185.9 87183.4 87180.6 87177.6 87174.1 87170.2
          98724.5 98724.1 98723.3 98722.3 98721.2 98719.9 98718.6 98717.3 98715.9 99602.5 99599.9 99611.7
          99611.2 93011.1 87289.5 82382.5 82366.2 82362.5 82359.7 82357 82354.5 82352.1 82349.7 82347.4
          82345.1 82342.8 82340.6 82338.3 82336.1 82333.8 82331.5 82329.2 82328.1 87198.6 87196.5 87194.4
          87192.2 87190 87187.7 87185.3 87182.9 87180.3 87177.5 87174.3 87170.5 98724.7 98724.2 98723.3
          98722.3 98721.1 98719.8 98718.6 98717.2 98715.9 99592.5 99589 99599.9 99599.3 93724.7 88657.5
          82503.8 82365.7 82361.6 82359.1 82356.6 82354.2 82351.8 82349.5 82347.1 82344.8 82342.5 82340.2
          82337.9 82335.6 82333.3 82331 82328.7 82327 87198 87195.9 87193.7 87191.5 87189.3 87187.1
          87184.8 87182.5 87180.2 87177.7 87175.1 87171.6 98725.3 98724.6 98723.5 98722.3 98721 98719.8
          98718.5 98717.2 98715.9 99580.7 99576.1 99587.7 99527.9 99578.3 99540.9 99072.1 98340.5 98304.2
          98301.8 98299.4 98297.1 98294.7 98292.4 98290.1 98287.8 98285.4 98283.1 98280.8 98278.5 98276.1
          98273.8 98271.5 98269.1 98754.1 98752 98749.8 98747.6 98745.4 98743.2 98741 98738.8 98736.6
          98734.3 98732 98729.7 98726.8 98725 98723.6 98722.3 98721 98719.7 98718.5 98717.2 98715.9
          99566.8 99560.8 99576.2 99591.6 99572.7 99422 98595.6 98318.8 98303.7 98301.4 98299 98296.7
          98294.4 98292 98289.7 98287.4 98285.1 98282.7 98280.4 98278.1 98275.8 98273.4 98271.1 98268.8
          98753.8 98751.6 98749.5 98747.3 98745.1 98742.9 98740.7 98738.5 98736.3 98734 98731.8 98729.5
          98727.3 98725.4 98723.8 98722.3 98721 98719.7 98718.4 98717.2 98715.9 99550.1 99541.6 99561.2
          99583.2 99571 99438.3 98626.9 98320 98305 98301.9 98299.5 98297.2 98294.8 98292.5 98290.2
          98287.9 98285.5 98283.2 98280.9 98278.6 98276.3 98274.1 98272 98270.3 98753.5 98751.3 98749.1
          98746.9 98744.7 98742.5 98740.3 98738.1 98735.9 98733.8 98731.6 98729.4 98727.4 98725.5 98723.8