<?xml version="1.0"?>
<VTKFile type="UnstructuredGrid" version="0.1" byte_order="LittleEndian">
  <UnstructuredGrid>
    <Piece NumberOfCells="72" NumberOfPoints="91">
      <PointData Scalars="Sw">
        <DataArray type="Float32" Name="Sw" NumberOfComponents="1" format="ascii">
          0.277064 0.238326 0.192167 0.173171 0.169782 0.132501 0.123138 0.120775 0.120103 0.120062 0.120007 0.120005
          0.12 0.12 0.12 0.12 0.12 0.12 0.12 0.12 0.12 0.12 0.12 0.12
          0.12 0.12 0.189441 0.160903 0.133721 0.120655 0.120051 0.120004 0.12 0.12 0.12 0.119999
          0.119998 0.119999 0.12 0.187104 0.169391 0.120893 0.120002 0.12 0.12 0.12 0.12 0.12
          0.12 0.12 0.12 0.12 0.182564 0.174947 0.121585 0.120003 0.12 0.12 0.12 0.120001
          0.12 0.12 0.12 0.12 0.12 0.173584 0.16082 0.144374 0.121222 0.120097 0.120008 0.12
          0.12 0.12 0.12 0.12 0.12 0.12 0.156937 0.163985 0.144814 0.122764 0.120236 0.120021
          0.120002 0.12 0.12 0.12 0.12 0.12 0.12
        </DataArray>
        <DataArray type="Float32" Name="Sn" NumberOfComponents="1" format="ascii">
          0 0 0 0 0 0 0 0 0 0 0 0
          0 0 0 0 0 0 0 0 0 0 0 0
          0 0 0 0 0 0 0 0 0 0 0 0
          0 0 0 0 0 0 0 0 0 0 0 0
          0 0 0 0 0 0 0.0699707 0.0699886 0.0699803 0.0699765 0.069968 0
          0 0 0 0 0 0 0 0.0649122 0.0709236 0.0700741 0.0699956 0.0699658
          0 0 0 0 0 0 0 0 0 0 0 0
          0 0 0 0 0 0 0
        </DataArray>
        <DataArray type="Float32" Name="Sg" NumberOfComponents="1" format="ascii">
          0.722936 0.761674 0.807833 0.826829 0.830218 0.867499 0.876862 0.879225 0.879897 0.879938 0.879993 0.879995
          0.88 0.88 0.88 0.88 0.88 0.88 0.88 0.88 0.88 0.88 0.88 0.88
          0.88 0.88 0.810559 0.839097 0.866279 0.879345 0.879949 0.879996 0.88 0.88 0.88 0.880001
          0.880002 0.880001 0.88 0.812896 0.830609 0.879107 0.879997 0.88 0.88 0.88 0.88 0.88
          0.88 0.88 0.88 0.88 0.817436 0.825053 0.808444 0.810009 0.81002 0.810024 0.810032 0.879999
          0.88 0.88 0.88 0.88 0.88 0.826416 0.83918 0.790713 0.807854 0.809829 0.809996 0.810034
          0.88 0.88 0.88 0.88 0.88 0.88 0.843063 0.836015 0.855186 0.877236 0.879764 0.879979
          0.879998 0.88 0.88 0.88 0.88 0.88 0.88
        </DataArray>
        <DataArray type="Float32" Name="pw" NumberOfComponents="1" format="ascii">
          99778.8 99712.1 99652 99583 99559.8 99240.2 98920.3 98834.2 98803.9 98801.1 98793.1 98791.6
          98785.6 98784.1 98778.5 98776.8 98772.2 98769.8 98768 98764.8 87197.8 87191.9 87176.7 87173.2
          87159.3 87159.3 99644.5 99533.9 99265.8 98828.8 98799.4 98790.1 98782.5 98774.8 98766.5 98755.7
          98736.9 98725.7 98715.9 99640 99574.8 87581.3 87248.2 87238.3 87229.8 87221.5 87212.9 87202.9
          87187 98728.6 98723.3 98715.9 99627.4 99593.2 83073.6 82371.6 82360.3 82350.9 82341.8 87204.5
          87194.5 87180.9 98726.5 98722.1 98715.9 99598.5 99530.7 99026.2 98364.1 98303.3 98289.4 98279.2
          98756.4 98747.3 98738.5 98729 98721.9 98715.9 99533.8 99543.4 99407.4 98894.2 98793.3 98775.7
          98765.1 98755.3 98746 98737 98728.5 98721.2 98715.9
        </DataArray>
        <DataArray type="Float32" Name="pn" NumberOfComponents="1" format="ascii">
          99778.8 99712.1 99652 99583 99559.8 99240.2 98920.3 98834.2 98803.9 98801.1 98793.1 98791.6
          98785.6 98784.1 98778.5 98776.8 98772.2 98769.8 98768 98764.8 87197.8 87191.9 87176.7 87173.2
          87159.3 87159.3 99644.5 99533.9 99265.8 98828.8 98799.4 98790.1 98782.5 98774.8 98766.5 98755.7
          98736.9 98725.7 98715.9 99640 99574.8 87581.3 87248.2 87238.3 87229.8 87221.5 87212.9 87202.9
          87187 98728.6 98723.3 98715.9 99627.4 99593.2 95520.7 95472.9 95461.2 95451.1 95440.4 87204.5
          87194.5 87180.9 98726.5 98722.1 98715.9 99598.5 99530.7 99649.3 99624.3 99609.8 99599.4 99589
          98756.4 98747.3 98738.5 98729 98721.9 98715.9 99533.8 99543.4 99407.4 98894.2 98793.3 98775.7
          98765.1 98755.3 98746 98737 98728.5 98721.2 98715.9
        </DataArray>
        <DataArray type="Float32" Name="pg" NumberOfComponents="1" format="ascii">
          100140 100112 100127 100110 100099 100098 100091 100090 100084 100083 100077 100076
          100070 100068 100063 100061 100056 100054 100052 100049 100038 100033 100017 100014
          100000 100000 100126 100110 100098 100089 100082 100074 100067 100059 100051 100040
          100021 100010 100000 100127 100116 100101 100088 100079 100070 100062 100054 100044
          100028 100013 100007 100000 100126 100115 100099 100085 100074 100065 100055 100045
          100035 100021 100011 100006 100000 100125 100108 100092 100081 100070 100060 100051
          100041 100031 100023 100013 100006 100000 100130 100106 100090 100079 100069 100059
          100049 100039 100030 100021 100013 100005 100000
        </DataArray>
        <DataArray type="Float32" Name="rhow" NumberOfComponents="1" format="ascii">
          974.313 980.774 974.824 986.046 994.766 996.318 997.953 998.07 998.222 998.23 998.243 998.244
          998.245 998.245 998.245 998.245 998.245 998.245 998.245 998.245 998.24 998.24 998.24 998.24
          998.24 998.24 975.326 989.023 996.773 998.108 998.234 998.244 998.245 998.245 998.245 998.245
          998.245 998.245 998.245 975.364 990.751 998.076 998.24 998.251 998.251 998.25 998.248 998.245
          998.244 998.246 998.246 998.245 975.332 990.479 998.084 998.263 998.275 998.276 998.277 998.264
          998.258 998.259 998.271 998.272 998.245 974.895 986.701 996.099 998.044 998.26 998.282 998.284
          998.283 998.282 998.282 998.28 998.277 998.245 974.273 979.886 993.533 997.749 998.211 998.256
          998.26 998.261 998.261 998.261 998.261 998.261 998.245
        </DataArray>
        <DataArray type="Float32" Name="rhon" NumberOfComponents="1" format="ascii">
          822.725 832.658 823.48 841.606 859.85 864.121 869.535 869.98 870.58 870.613 870.666 870.668
          870.673 870.673 870.673 870.673 870.673 870.673 870.673 870.673 870.673 870.673 870.673 870.673
          870.673 870.673 824.225 847.173 865.505 870.127 870.627 870.67 870.673 870.673 870.673 870.673
          870.674 870.673 870.673 824.282 850.651 870.005 870.634 870.67 870.673 870.673 870.673 870.673
          870.673 870.674 870.674 870.673 824.235 850.089 869.904 870.617 870.668 870.673 870.674 870.673
          870.673 870.673 870.672 870.671 870.673 823.585 842.793 863.279 869.719 870.578 870.665 870.674
          870.672 870.671 870.671 870.672 870.671 870.673 822.666 831.236 856.779 868.727 870.476 870.656
          870.673 870.675 870.675 870.675 870.674 870.674 870.673
        </DataArray>
        <DataArray type="Float32" Name="rhog" NumberOfComponents="1" format="ascii">
          0.85016 0.937357 0.85728 1.00402 1.11801 1.14248 1.17304 1.17554 1.17886 1.17903 1.17925 1.17925
          1.1792 1.17919 1.17912 1.17911 1.17905 1.17902 1.179 1.17896 1.17884 1.17877 1.17859 1.17855
          1.17838 1.17838 0.864316 1.04124 1.15035 1.17639 1.17914 1.1793 1.17923 1.17915 1.17904 1.17889
          1.17867 1.17853 1.17838 0.864865 1.06331 1.17684 1.1814 1.18186 1.18173 1.18131 1.18073 1.18007
          1.17958 1.17863 1.17876 1.17838 0.864413 1.05983 1.18428 1.18764 1.18776 1.18768 1.18757 1.18416
          1.18273 1.18277 1.18428 1.18451 1.17838 0.858252 1.0122 1.15252 1.18314 1.18728 1.18759 1.18751
          1.18719 1.18695 1.18675 1.18626 1.18563 1.17838 0.849499 0.925767 1.10241 1.17148 1.18141 1.18235
          1.18235 1.18226 1.18217 1.18209 1.18201 1.18191 1.17838
        </DataArray>
        <DataArray type="Float32" Name="x^w_H2O" NumberOfComponents="1" format="ascii">
          0.999994 0.999993 0.999994 0.999991 0.999988 0.999987 0.999986 0.999985 0.999985 0.999985 0.999985 0.999985
          0.999985 0.999985 0.999985 0.999985 0.999985 0.999985 0.999985 0.999985 0.999985 0.999985 0.999985 0.999985
          0.999985 0.999985 0.999994 0.99999 0.999987 0.999985 0.999985 0.999985 0.999985 0.999985 0.999985 0.999985
          0.999985 0.999985 0.999985 0.999994 0.99999 0.999985 0.999983 0.999983 0.999983 0.999983 0.999984 0.999984
          0.999985 0.999985 0.999985 0.999985 0.999994 0.99999 0.999978 0.999978 0.999978 0.999978 0.999978 0.999981
          0.999982 0.999982 0.999981 0.99998 0.999985 0.999994 0.999991 0.999975 0.999978 0.999978 0.999978 0.999978
          0.999979 0.999979 0.999979 0.999979 0.999979 0.999985 0.999994 0.999993 0.999987 0.999983 0.999983 0.999983
          0.999983 0.999983 0.999982 0.999982 0.999982 0.999982 0.999985
        </DataArray>
        <DataArray type="Float32" Name="x^w_mesitylene" NumberOfComponents="1" format="ascii">
          7.00454e-13 9.28526e-12 9.66329e-12 8.11846e-10 4.07128e-10 2.38388e-09 8.03181e-10 3.79443e-09 9.5307e-10 4.59967e-09 1.00027e-09 4.85092e-09
          1.0369e-09 5.00671e-09 1.07368e-09 5.02531e-09 1.10981e-09 4.68424e-09 1.16788e-09 3.8665e-09 2.31178e-09 6.25431e-09 3.25876e-09 7.48278e-09
          3.02334e-09 3.02334e-09 4.99279e-11 9.06741e-09 1.8772e-08 2.79934e-08 3.72619e-08 4.64306e-08 5.33635e-08 5.52527e-08 4.68052e-08 3.0327e-08
          3.05873e-08 3.07059e-08 3.02334e-09 1.03864e-10 1.90154e-08 8.47859e-07 1.78055e-06 2.07479e-06 2.03551e-06 1.77161e-06 1.3862e-06 9.52473e-07
          7.08964e-07 7.53872e-08 2.39773e-07 3.02334e-09 1.6264e-10 4.47173e-08 7.35525e-06 6.9346e-06 6.90537e-06 6.90237e-06 6.90197e-06 4.24438e-06
          3.18221e-06 3.34802e-06 4.67718e-06 4.90937e-06 3.02334e-09 1.55496e-10 3.82114e-08 1.24277e-05 7.46801e-06 6.95693e-06 6.90729e-06 6.90209e-06
          6.743e-06 6.63912e-06 6.56725e-06 6.25716e-06 5.8164e-06 3.02334e-09 7.51876e-11 2.5569e-08 2.07485e-06 2.57485e-06 2.68915e-06 2.72369e-06
          2.73831e-06 2.75664e-06 2.7752e-06 2.79329e-06 2.80942e-06 2.80423e-06 3.02334e-09
        </DataArray>
        <DataArray type="Float32" Name="x^w_Air" NumberOfComponents="1" format="ascii">
          5.68379e-06 7.39889e-06 5.8273e-06 8.736e-06 1.18062e-05 1.28045e-05 1.43686e-05 1.45156e-05 1.47182e-05 1.47293e-05 1.47466e-05 1.47471e-05
          1.47477e-05 1.47475e-05 1.47468e-05 1.47466e-05 1.47459e-05 1.47455e-05 1.47452e-05 1.47448e-05 1.47431e-05 1.47422e-05 1.474e-05 1.47394e-05
          1.47373e-05 1.47373e-05 5.96729e-06 9.5625e-06 1.31686e-05 1.45646e-05 1.47337e-05 1.47472e-05 1.47472e-05 1.47461e-05 1.47449e-05 1.47434e-05
          1.47407e-05 1.47389e-05 1.47373e-05 5.97807e-06 1.01089e-05 1.45211e-05 1.47283e-05 1.4738e-05 1.47379e-05 1.4738e-05 1.47386e-05 1.47393e-05
          1.47381e-05 1.47392e-05 1.47375e-05 1.47373e-05 5.96917e-06 1.00181e-05 1.44555e-05 1.46963e-05 1.47124e-05 1.47128e-05 1.47116e-05 1.4723e-05
          1.47269e-05 1.4724e-05 1.47153e-05 1.47132e-05 1.47373e-05 5.84692e-06 8.90939e-06 1.25387e-05 1.43909e-05 1.46807e-05 1.47092e-05 1.47108e-05
          1.47095e-05 1.47084e-05 1.47074e-05 1.47076e-05 1.47086e-05 1.47373e-05 5.67158e-06 7.17299e-06 1.1174e-05 1.4095e-05 1.46668e-05 1.4727e-05
          1.47312e-05 1.47302e-05 1.47287e-05 1.47272e-05 1.47258e-05 1.47244e-05 1.47373e-05
        </DataArray>
        <DataArray type="Float32" Name="x^n_H2O" NumberOfComponents="1" format="ascii">
          1e-10 1e-10 1e-10 1e-10 1e-10 1e-10 1e-10 1e-10 1e-10 1e-10 1e-10 1e-10
          1e-10 1e-10 1e-10 1e-10 1e-10 1e-10 1e-10 1e-10 1e-10 1e-10 1e-10 1e-10
          1e-10 1e-10 1e-10 1e-10 1e-10 1e-10 1e-10 1e-10 1e-10 1e-10 1e-10 1e-10
          1e-10 1e-10 1e-10 1e-10 1e-10 1e-10 1e-10 1e-10 1e-10 1e-10 1e-10 1e-10
          1e-10 1e-10 1e-10 1e-10 1e-10 1e-10 1e-10 1e-10 1e-10 1e-10 1e-10 1e-10
          1e-10 1e-10 1e-10 1e-10 1e-10 1e-10 1e-10 1e-10 1e-10 1e-10 1e-10 1e-10
          1e-10 1e-10 1e-10 1e-10 1e-10 1e-10 1e-10 1e-10 1e-10 1e-10 1e-10 1e-10
          1e-10 1e-10 1e-10 1e-10 1e-10 1e-10 1e-10
        </DataArray>
        <DataArray type="Float32" Name="x^n_mesitylene" NumberOfComponents="1" format="ascii">
          4.60591e-09 1.02806e-07 6.59954e-08 1.50465e-05 2.53576e-05 0.000204589 0.000105938 0.00051912 0.000137019 0.000663087 0.000144829 0.000702504
          0.000150216 0.00072533 0.00015555 0.000728045 0.000160785 0.000678632 0.000169195 0.00056016 0.000334915 0.000906086 0.000472109 0.00108406
          0.000438002 0.000438002 3.54064e-07 0.000237334 0.00179357 0.00387646 0.00537786 0.00672485 0.00773108 0.0080049 0.00678104 0.0043938
          0.00443166 0.00444869 0.000438002 7.38694e-07 0.000624008 0.116227 0.257121 0.300515 0.294898 0.256669 0.20083 0.137991
          0.102713 0.0109225 0.0347387 0.000438002 1.15394e-06 0.00141399 1 1 1 1 1 0.614902
          0.461034 0.485049 0.677546 0.711143 0.000438002 1.06758e-06 0.000761027 1 1 1 1 1
          0.976806 0.961706 0.95129 0.906398 0.84252 0.000438002 4.92964e-07 0.000261931 0.103584 0.317952 0.383292 0.39405
          0.39672 0.399428 0.402117 0.404735 0.407066 0.406286 0.000438002
        </DataArray>
        <DataArray type="Float32" Name="x^n_Air" NumberOfComponents="1" format="ascii">
          1e-10 1e-10 1e-10 1e-10 1e-10 1e-10 1e-10 1e-10 1e-10 1e-10 1e-10 1e-10
          1e-10 1e-10 1e-10 1e-10 1e-10 1e-10 1e-10 1e-10 1e-10 1e-10 1e-10 1e-10
          1e-10 1e-10 1e-10 1e-10 1e-10 1e-10 1e-10 1e-10 1e-10 1e-10 1e-10 1e-10
          1e-10 1e-10 1e-10 1e-10 1e-10 1e-10 1e-10 1e-10 1e-10 1e-10 1e-10 1e-10
          1e-10 1e-10 1e-10 1e-10 1e-10 1e-10 1e-10 1e-10 1e-10 1e-10 1e-10 1e-10
          1e-10 1e-10 1e-10 1e-10 1e-10 1e-10 1e-10 1e-10 1e-10 1e-10 1e-10 1e-10
          1e-10 1e-10 1e-10 1e-10 1e-10 1e-10 1e-10 1e-10 1e-10 1e-10 1e-10 1e-10
          1e-10 1e-10 1e-10 1e-10 1e-10 1e-10 1e-10
        </DataArray>
        <DataArray type="Float32" Name="x^g_H2O" NumberOfComponents="1" format="ascii">
          0.400349 0.24595 0.386424 0.152287 0.0498671 0.0372243 0.0252046 0.0243848 0.0233174 0.0232601 0.0231698 0.0231661
          0.0231601 0.0231602 0.023161 0.0231613 0.0231624 0.0231629 0.0231635 0.0231641 0.0231668 0.0231681 0.0231716 0.0231724
          0.0231757 0.0231757 0.373028 0.110622 0.0337627 0.0241196 0.0232362 0.0231639 0.02316 0.0231614 0.0231633 0.0231655
          0.0231691 0.0231724 0.0231757 0.372009 0.0897814 0.0243385 0.0232232 0.0231621 0.0231589 0.0231605 0.0231626 0.0231651
          0.0231686 0.023171 0.0231728 0.0231757 0.372851 0.0929059 0.0245211 0.0232532 0.023167 0.0231601 0.0231611 0.0231651
          0.0231669 0.0231703 0.0231749 0.023177 0.0231757 0.384525 0.142461 0.0394768 0.0248655 0.0233241 0.023176 0.0231625
          0.0231679 0.0231712 0.0231733 0.023175 0.0231773 0.0231757 0.401485 0.264471 0.0610663 0.0267579 0.0235031 0.0231907
          0.0231637 0.0231632 0.0231654 0.0231677 0.0231699 0.023173 0.0231757
        </DataArray>
        <DataArray type="Float32" Name="x^g_mesitylene" NumberOfComponents="1" format="ascii">
          2.31358e-10 3.06776e-09 3.19217e-09 2.6823e-07 1.34528e-07 7.87718e-07 2.65417e-07 1.25391e-06 3.14972e-07 1.52013e-06 3.30593e-07 1.60328e-06
          3.42727e-07 1.65489e-06 3.54909e-07 1.66116e-06 3.66876e-07 1.54852e-06 3.86086e-07 1.27826e-06 7.64349e-07 2.068e-06 1.07768e-06 2.47466e-06
          1e-06 1e-06 1.64934e-08 2.99583e-06 6.20295e-06 9.25085e-06 1.23147e-05 1.5346e-05 1.76388e-05 1.82646e-05 1.54735e-05 1.0027e-05
          1.01149e-05 1.01553e-05 1e-06 3.43104e-08 6.28226e-06 0.000280156 0.000588417 0.000685717 0.000672791 0.000585613 0.000458255 0.000314902
          0.000234432 2.49319e-05 7.93015e-05 1e-06 5.37268e-08 1.47737e-05 0.00243041 0.00229175 0.00228233 0.00228156 0.00228164 0.00140324
          0.00105218 0.00110715 0.00154686 0.00162372 1e-06 5.1368e-08 1.26252e-05 0.00410682 0.00246813 0.00229945 0.00228328 0.00228178
          0.00222941 0.00219527 0.00217169 0.00206935 0.00192372 1e-06 2.48367e-08 8.44828e-06 0.000685663 0.000850988 0.00088885 0.000900357
          0.00090528 0.000911428 0.000917649 0.000923715 0.000929127 0.000927478 1e-06
        </DataArray>
        <DataArray type="Float32" Name="x^g_Air" NumberOfComponents="1" format="ascii">
          0.599651 0.75405 0.613576 0.847713 0.950133 0.962775 0.974795 0.975614 0.976682 0.976738 0.97683 0.976832
          0.97684 0.976838 0.976839 0.976837 0.976837 0.976836 0.976836 0.976835 0.976832 0.97683 0.976827 0.976825
          0.976823 0.976823 0.626972 0.889375 0.966231 0.975871 0.976752 0.976821 0.976822 0.97682 0.976821 0.976825
          0.976821 0.976817 0.976823 0.627991 0.910212 0.975381 0.976188 0.976152 0.976168 0.976254 0.976379 0.97652
          0.976597 0.976804 0.976748 0.976823 0.627149 0.907079 0.973049 0.974455 0.974551 0.974558 0.974557 0.975432
          0.975781 0.975723 0.975278 0.975199 0.976823 0.615475 0.857526 0.956416 0.972666 0.974376 0.974541 0.974556
          0.974603 0.974634 0.974655 0.974756 0.974899 0.976823 0.598515 0.73552 0.938248 0.972391 0.975608 0.975909
          0.975931 0.975925 0.975917 0.975909 0.975901 0.975899 0.976823
        </DataArray>
        <DataArray type="Float32" Name="porosity" NumberOfComponents="1" format="ascii">
          0.42 0.42 0.42 0.42 0.42 0.42 0.42 0.42 0.42 0.42 0.42 0.42
          0.42 0.42 0.42 0.42 0.42 0.42 0.42 0.42 0.42 0.42 0.42 0.42
          0.42 0.42 0.42 0.42 0.42 0.42 0.42 0.42 0.42 0.42 0.42 0.42
          0.42 0.42 0.42 0.42 0.42 0.42 0.42 0.42 0.42 0.42 0.42 0.42
          0.42 0.42 0.42 0.42 0.42 0.42 0.42 0.42 0.42 0.42 0.42 0.42
          0.42 0.42 0.42 0.42 0.42 0.42 0.42 0.42 0.42 0.42 0.42 0.42
          0.42 0.42 0.42 0.42 0.42 0.42 0.42 0.42 0.42 0.42 0.42 0.42
          0.42 0.42 0.42 0.42 0.42 0.42 0.42
        </DataArray>
        <DataArray type="Float32" Name="permeability" NumberOfComponents="1" format="ascii">
          9.14e-10 9.14e-10 9.14e-10 9.14e-10 9.14e-10 9.14e-10 9.14e-10 9.14e-10 9.14e-10 9.14e-10 9.14e-10 9.14e-10
          9.14e-10 9.14e-10 9.14e-10 9.14e-10 9.14e-10 9.14e-10 9.14e-10 9.14e-10 6.28e-12 6.28e-12 6.28e-12 6.28e-12
          6.28e-12 6.28e-12 9.14e-10 9.14e-10 9.14e-10 9.14e-10 9.14e-10 9.14e-10 9.14e-10 9.14e-10 9.14e-10 9.14e-10
          9.14e-10 9.14e-10 9.14e-10 9.14e-10 9.14e-10 6.28e-12 6.28e-12 6.28e-12 6.28e-12 6.28e-12 6.28e-12 6.28e-12
          6.28e-12 9.14e-10 9.14e-10 9.14e-10 9.14e-10 9.14e-10 6.28e-12 6.28e-12 6.28e-12 6.28e-12 6.28e-12 6.28e-12
          6.28e-12 6.28e-12 9.14e-10 9.14e-10 9.14e-10 9.14e-10 9.14e-10 9.14e-10 9.14e-10 9.14e-10 9.14e-10 9.14e-10
          9.14e-10 9.14e-10 9.14e-10 9.14e-10 9.14e-10 9.14e-10 9.14e-10 9.14e-10 9.14e-10 9.14e-10 9.14e-10 9.14e-10
          9.14e-10 9.14e-10 9.14e-10 9.14e-10 9.14e-10 9.14e-10 9.14e-10
        </DataArray>
        <DataArray type="Float32" Name="temperature" NumberOfComponents="1" format="ascii">
          349.061 337.774 348.209 327.457 305.996 300.891 294.375 293.837 293.112 293.072 293.008 293.006
          293 293 293 293 293 293 293 293 293 293 293 293
          293 293 347.368 320.968 299.23 293.66 293.055 293.004 293 293 293 292.999
          292.999 292.999 293 347.303 316.887 293.808 293.047 293.003 293 292.999 293 293
          293 292.999 292.999 293 347.357 317.548 293.929 293.067 293.006 293 292.999 293
          293 293 293.001 293.002 293 348.091 326.078 301.9 294.153 293.114 293.01 292.999
          293.001 293.002 293.002 293.002 293.002 293 349.127 339.4 309.648 295.351 293.238 293.02
          293 292.998 292.998 292.998 292.998 292.999 293
        </DataArray>
        <DataArray type="Float32" Name="phase presence" NumberOfComponents="1" format="ascii">
          6 6 6 6 6 6 6 6 6 6 6 6
          6 6 6 6 6 6 6 6 6 6 6 6
          6 6 6 6 6 6 6 6 6 6 6 6
          6 6 6 6 6 6 6 6 6 6 6 6
          6 6 6 6 6 6 1 1 1 1 1 6
          6 6 6 6 6 6 6 1 1 1 1 1
          6 6 6 6 6 6 6 6 6 6 6 6
          6 6 6 6 6 6 6
        </DataArray>
      </PointData>
      <CellData Scalars="process rank">
        <DataArray type="Float32" Name="process rank" NumberOfComponents="1" format="ascii">
          0 0 0 0 0 0 0 0 0 0 0 0
          0 0 0 0 0 0 0 0 0 0 0 0
          0 0 0 0 0 0 0 0 0 0 0 0
          0 0 0 0 0 0 0 0 0 0 0 0
          0 0 0 0 0 0 0 0 0 0 0 0
          0 0 0 0 0 0 0 0 0 0 0 0
        </DataArray>
      </CellData>
      <Points>
        <DataArray type="Float32" Name="Coordinates" NumberOfComponents="3" format="ascii">
          0 0 0 0.125 0 0 0 0.123333 0 0.125 0.123333 0
          0.25 0 0 0.25 0.123333 0 0.375 0 0 0.375 0.123333 0
          0.5 0 0 0.5 0.123333 0 0.625 0 0 0.625 0.123333 0
          0.75 0 0 0.75 0.123333 0 0.875 0 0 0.875 0.123333 0
          1 0 0 1 0.123333 0 1.125 0 0 1.125 0.123333 0
          1.25 0 0 1.25 0.123333 0 1.375 0 0 1.375 0.123333 0
          1.5 0 0 1.5 0.123333 0 0 0.246667 0 0.125 0.246667 0
          0.25 0.246667 0 0.375 0.246667 0 0.5 0.246667 0 0.625 0.246667 0
          0.75 0.246667 0 0.875 0.246667 0 1 0.246667 0 1.125 0.246667 0
          1.25 0.246667 0 1.375 0.246667 0 1.5 0.246667 0 0 0.37 0
          0.125 0.37 0 0.25 0.37 0 0.375 0.37 0 0.5 0.37 0
          0.625 0.37 0 0.75 0.37 0 0.875 0.37 0 1 0.37 0
          1.125 0.37 0 1.25 0.37 0 1.375 0.37 0 1.5 0.37 0
          0 0.493333 0 0.125 0.493333 0 0.25 0.493333 0 0.375 0.493333 0
          0.5 0.493333 0 0.625 0.493333 0 0.75 0.493333 0 0.875 0.493333 0
          1 0.493333 0 1.125 0.493333 0 1.25 0.493333 0 1.375 0.493333 0
          1.5 0.493333 0 0 0.616667 0 0.125 0.616667 0 0.25 0.616667 0
          0.375 0.616667 0 0.5 0.616667 0 0.625 0.616667 0 0.75 0.616667 0
          0.875 0.616667 0 1 0.616667 0 1.125 0.616667 0 1.25 0.616667 0
          1.375 0.616667 0 1.5 0.616667 0 0 0.74 0 0.125 0.74 0
          0.25 0.74 0 0.375 0.74 0 0.5 0.74 0 0.625 0.74 0
          0.75 0.74 0 0.875 0.74 0 1 0.74 0 1.125 0.74 0
          1.25 0.74 0 1.375 0.74 0 1.5 0.74 0
        </DataArray>
      </Points>
      <Cells>
        <DataArray type="Int32" Name="connectivity" NumberOfComponents="1" format="ascii">
          0 1 3 2 1 4 5 3 4 6 7 5
          6 8 9 7 8 10 11 9 10 12 13 11
          12 14 15 13 14 16 17 15 16 18 19 17
          18 20 21 19 20 22 23 21 22 24 25 23
          2 3 27 26 3 5 28 27 5 7 29 28
          7 9 30 29 9 11 31 30 11 13 32 31
          13 15 33 32 15 17 34 33 17 19 35 34
          19 21 36 35 21 23 37 36 23 25 38 37
          26 27 40 39 27 28 41 40 28 29 42 41
          29 30 43 42 30 31 44 43 31 32 45 44
          32 33 46 45 33 34 47 46 34 35 48 47
          35 36 49 48 36 37 50 49 37 38 51 50
          39 40 53 52 40 41 54 53 41 42 55 54
          42 43 56 55 43 44 57 56 44 45 58 57
          45 46 59 58 46 47 60 59 47 48 61 60
          48 49 62 61 49 50 63 62 50 51 64 63
          52 53 66 65 53 54 67 66 54 55 68 67
          55 56 69 68 56 57 70 69 57 58 71 70
          58 59 72 71 59 60 73 72 60 61 74 73
          61 62 75 74 62 63 76 75 63 64 77 76
          65 66 79 78 66 67 80 79 67 68 81 80
          68 69 82 81 69 70 83 82 70 71 84 83
          71 72 85 84 72 73 86 85 73 74 87 86
          74 75 88 87 75 76 89 88 76 77 90 89
        </DataArray>
        <DataArray type="Int32" Name="offsets" NumberOfComponents="1" format="ascii">
          4 8 12 16 20 24 28 32 36 40 44 48
          52 56 60 64 68 72 76 80 84 88 92 96
          100 104 108 112 116 120 124 128 132 136 140 144
          148 152 156 160 164 168 172 176 180 184 188 192
          196 200 204 208 212 216 220 224 228 232 236 240
          244 248 252 256 260 264 268 272 276 280 284 288
        </DataArray>
        <DataArray type="UInt8" Name="types" NumberOfComponents="1" format="ascii">
          9 9 9 9 9 9 9 9 9 9 9 9
          9 9 9 9 9 9 9 9 9 9 9 9
          9 9 9 9 9 9 9 9 9 9 9 9
          9 9 9 9 9 9 9 9 9 9 9 9
          9 9 9 9 9 9 9 9 9 9 9 9
          9 9 9 9 9 9 9 9 9 9 9 9
        </DataArray>
      </Cells>
    </Piece>
  </UnstructuredGrid>
</VTKFile>
