<?xml version="1.0"?>
<VTKFile type="UnstructuredGrid" version="0.1" byte_order="LittleEndian">
  <UnstructuredGrid>
    <Piece NumberOfPoints="546" NumberOfCells="500">
      <PointData>
      </PointData>
      <CellData Scalars="saturation">
<DataArray type="Float32" Name="saturation" NumberOfComponents="1" format="ascii">
0.954361 0.954361 0.954361 0.954361 0.954361 0.954361 0.954361 0.954361 0.954361 0.954361 0.954361 0.954361 
0.954361 0.954361 0.954361 0.954361 0.954361 0.954361 0.954361 0.954361 0.924474 0.924474 0.924474 0.924474 
0.924474 0.924474 0.924474 0.924474 0.924474 0.924474 0.924474 0.924474 0.924474 0.924474 0.924474 0.924474 
0.924474 0.924474 0.924474 0.924474 0.901894 0.901894 0.901894 0.901894 0.901894 0.901894 0.901894 0.901894 
0.901894 0.901894 0.901894 0.901894 0.901894 0.901894 0.901894 0.901894 0.901894 0.901894 0.901894 0.901894 
0.883356 0.883356 0.883356 0.883356 0.883356 0.883356 0.883356 0.883356 0.883356 0.883356 0.883356 0.883356 
0.883356 0.883356 0.883356 0.883356 0.883356 0.883356 0.883356 0.883356 0.868466 0.868466 0.868466 0.868466 
0.868466 0.868466 0.868466 0.868466 0.868466 0.868466 0.868466 0.868466 0.868466 0.868466 0.868466 0.868466 
0.868466 0.868466 0.868466 0.868466 0.85622 0.856219 0.856219 0.856219 0.856219 0.856219 0.856219 0.856219 
0.856219 0.856219 0.856219 0.856219 0.856219 0.856219 0.856219 0.856219 0.856219 0.856219 0.856219 0.85622 
0.844303 0.844303 0.844303 0.844303 0.844303 0.844303 0.844303 0.844303 0.844303 0.844303 0.844303 0.844303 
0.844303 0.844303 0.844303 0.844303 0.844303 0.844303 0.844303 0.844303 0.820348 0.820348 0.820348 0.820348 
0.820348 0.820348 0.820348 0.820348 0.820348 0.820348 0.820348 0.820348 0.820348 0.820348 0.820348 0.820348 
0.820348 0.820348 0.820348 0.820348 0.446578 0.446578 0.446578 0.446578 0.446578 0.446578 0.446578 0.446578 
0.446578 0.446578 0.446578 0.446578 0.446578 0.446578 0.446578 0.446578 0.446578 0.446578 0.446578 0.446578 
0 0 0 0 0 0 0 0 0 0 0 0 
0 0 0 0 0 0 0 0 0 0 0 0 
0 0 0 0 0 0 0 0 0 0 0 0 
0 0 0 0 0 0 0 0 0 0 0 0 
0 0 0 0 0 0 0 0 0 0 0 0 
0 0 0 0 0 0 0 0 0 0 0 0 
0 0 0 0 0 0 0 0 0 0 0 0 
0 0 0 0 0 0 0 0 0 0 0 0 
0 0 0 0 0 0 0 0 0 0 0 0 
0 0 0 0 0 0 0 0 0 0 0 0 
0 0 0 0 0 0 0 0 0 0 0 0 
0 0 0 0 0 0 0 0 0 0 0 0 
0 0 0 0 0 0 0 0 0 0 0 0 
0 0 0 0 0 0 0 0 0 0 0 0 
0 0 0 0 0 0 0 0 0 0 0 0 
0 0 0 0 0 0 0 0 0 0 0 0 
0 0 0 0 0 0 0 0 0 0 0 0 
0 0 0 0 0 0 0 0 0 0 0 0 
0 0 0 0 0 0 0 0 0 0 0 0 
0 0 0 0 0 0 0 0 0 0 0 0 
0 0 0 0 0 0 0 0 0 0 0 0 
0 0 0 0 0 0 0 0 0 0 0 0 
0 0 0 0 0 0 0 0 0 0 0 0 
0 0 0 0 0 0 0 0 0 0 0 0 
0 0 0 0 0 0 0 0 0 0 0 0 
0 0 0 0 0 0 0 0 0 0 0 0 
0 0 0 0 0 0 0 0 
</DataArray>
<DataArray type="Float32" Name="total pressure p~" NumberOfComponents="1" format="ascii">
200000 200000 200000 200000 200000 200000 200000 200000 200000 200000 200000 200000 
200000 200000 200000 200000 200000 200000 200000 200000 200000 200000 200000 200000 
200000 200000 200000 200000 200000 200000 200000 200000 200000 200000 200000 200000 
200000 200000 200000 200000 200000 200000 200000 200000 200000 200000 200000 200000 
200000 200000 200000 200000 200000 200000 200000 200000 200000 200000 200000 200000 
200000 200000 200000 200000 200000 200000 200000 200000 200000 200000 200000 200000 
200000 200000 200000 200000 200000 200000 200000 200000 199999 199999 199999 199999 
199999 199999 199999 199999 199999 199999 199999 199999 199999 199999 199999 199999 
199999 199999 199999 199999 199999 199999 199999 199999 199999 199999 199999 199999 
199999 199999 199999 199999 199999 199999 199999 199999 199999 199999 199999 199999 
199999 199999 199999 199999 199999 199999 199999 199999 199999 199999 199999 199999 
199999 199999 199999 199999 199999 199999 199999 199999 199999 199999 199999 199999 
199999 199999 199999 199999 199999 199999 199999 199999 199999 199999 199999 199999 
199999 199999 199999 199999 199999 199999 199999 199999 199999 199999 199999 199999 
199999 199999 199999 199999 199999 199999 199999 199999 199999 199999 199999 199999 
199999 199999 199999 199999 199999 199999 199999 199999 199999 199999 199999 199999 
199999 199999 199999 199999 199999 199999 199999 199999 199999 199999 199999 199999 
199999 199999 199999 199999 199999 199999 199999 199999 199999 199999 199999 199999 
199999 199999 199999 199999 199999 199999 199999 199999 199999 199999 199999 199999 
199999 199999 199999 199999 199999 199999 199999 199999 199999 199999 199999 199999 
199999 199999 199999 199999 199999 199999 199999 199999 199999 199999 199999 199999 
199999 199999 199999 199999 199999 199999 199999 199999 199999 199999 199999 199999 
199999 199999 199999 199999 199999 199999 199999 199999 199999 199999 199999 199999 
199999 199999 199999 199999 199999 199999 199999 199999 199999 199999 199999 199999 
199999 199999 199999 199999 199999 199999 199999 199999 199999 199999 199999 199999 
199999 199999 199999 199999 199999 199999 199999 199999 199999 199999 199999 199999 
199999 199999 199999 199999 199999 199999 199999 199999 199999 199999 199999 199999 
199999 199999 199999 199999 199999 199999 199999 199999 199999 199999 199999 199999 
199999 199999 199999 199999 199999 199999 199999 199999 199999 199999 199999 199999 
199999 199999 199999 199999 199999 199999 199999 199999 199999 199999 199999 199999 
199999 199999 199999 199999 199999 199999 199999 199999 199999 199999 199999 199999 
199999 199999 199999 199999 199999 199999 199999 199999 199998 199998 199998 199998 
199998 199998 199998 199998 199998 199998 199998 199998 199998 199998 199998 199998 
199998 199998 199998 199998 199998 199998 199998 199998 199998 199998 199998 199998 
199998 199998 199998 199998 199998 199998 199998 199998 199998 199998 199998 199998 
199998 199998 199998 199998 199998 199998 199998 199998 199998 199998 199998 199998 
199998 199998 199998 199998 199998 199998 199998 199998 199998 199998 199998 199998 
199998 199998 199998 199998 199998 199998 199998 199998 199998 199998 199998 199998 
199998 199998 199998 199998 199998 199998 199998 199998 199998 199998 199998 199998 
199998 199998 199998 199998 199998 199998 199998 199998 199998 199998 199998 199998 
199998 199998 199998 199998 199998 199998 199998 199998 199998 199998 199998 199998 
199998 199998 199998 199998 199998 199998 199998 199998 
</DataArray>
      </CellData>
      <Points>
<DataArray type="Float32" Name="Coordinates" NumberOfComponents="3" format="ascii">
0 0 0 20 0 0 0 20 0 20 20 0 
40 0 0 40 20 0 60 0 0 60 20 0 
80 0 0 80 20 0 100 0 0 100 20 0 
120 0 0 120 20 0 140 0 0 140 20 0 
160 0 0 160 20 0 180 0 0 180 20 0 
200 0 0 200 20 0 220 0 0 220 20 0 
240 0 0 240 20 0 260 0 0 260 20 0 
280 0 0 280 20 0 300 0 0 300 20 0 
320 0 0 320 20 0 340 0 0 340 20 0 
360 0 0 360 20 0 380 0 0 380 20 0 
400 0 0 400 20 0 0 40 0 20 40 0 
40 40 0 60 40 0 80 40 0 100 40 0 
120 40 0 140 40 0 160 40 0 180 40 0 
200 40 0 220 40 0 240 40 0 260 40 0 
280 40 0 300 40 0 320 40 0 340 40 0 
360 40 0 380 40 0 400 40 0 0 60 0 
20 60 0 40 60 0 60 60 0 80 60 0 
100 60 0 120 60 0 140 60 0 160 60 0 
180 60 0 200 60 0 220 60 0 240 60 0 
260 60 0 280 60 0 300 60 0 320 60 0 
340 60 0 360 60 0 380 60 0 400 60 0 
0 80 0 20 80 0 40 80 0 60 80 0 
80 80 0 100 80 0 120 80 0 140 80 0 
160 80 0 180 80 0 200 80 0 220 80 0 
240 80 0 260 80 0 280 80 0 300 80 0 
320 80 0 340 80 0 360 80 0 380 80 0 
400 80 0 0 100 0 20 100 0 40 100 0 
60 100 0 80 100 0 100 100 0 120 100 0 
140 100 0 160 100 0 180 100 0 200 100 0 
220 100 0 240 100 0 260 100 0 280 100 0 
300 100 0 320 100 0 340 100 0 360 100 0 
380 100 0 400 100 0 0 120 0 20 120 0 
40 120 0 60 120 0 80 120 0 100 120 0 
120 120 0 140 120 0 160 120 0 180 120 0 
200 120 0 220 120 0 240 120 0 260 120 0 
280 120 0 300 120 0 320 120 0 340 120 0 
360 120 0 380 120 0 400 120 0 0 140 0 
20 140 0 40 140 0 60 140 0 80 140 0 
100 140 0 120 140 0 140 140 0 160 140 0 
180 140 0 200 140 0 220 140 0 240 140 0 
260 140 0 280 140 0 300 140 0 320 140 0 
340 140 0 360 140 0 380 140 0 400 140 0 
0 160 0 20 160 0 40 160 0 60 160 0 
80 160 0 100 160 0 120 160 0 140 160 0 
160 160 0 180 160 0 200 160 0 220 160 0 
240 160 0 260 160 0 280 160 0 300 160 0 
320 160 0 340 160 0 360 160 0 380 160 0 
400 160 0 0 180 0 20 180 0 40 180 0 
60 180 0 80 180 0 100 180 0 120 180 0 
140 180 0 160 180 0 180 180 0 200 180 0 
220 180 0 240 180 0 260 180 0 280 180 0 
300 180 0 320 180 0 340 180 0 360 180 0 
380 180 0 400 180 0 0 200 0 20 200 0 
40 200 0 60 200 0 80 200 0 100 200 0 
120 200 0 140 200 0 160 200 0 180 200 0 
200 200 0 220 200 0 240 200 0 260 200 0 
280 200 0 300 200 0 320 200 0 340 200 0 
360 200 0 380 200 0 400 200 0 0 220 0 
20 220 0 40 220 0 60 220 0 80 220 0 
100 220 0 120 220 0 140 220 0 160 220 0 
180 220 0 200 220 0 220 220 0 240 220 0 
260 220 0 280 220 0 300 220 0 320 220 0 
340 220 0 360 220 0 380 220 0 400 220 0 
0 240 0 20 240 0 40 240 0 60 240 0 
80 240 0 100 240 0 120 240 0 140 240 0 
160 240 0 180 240 0 200 240 0 220 240 0 
240 240 0 260 240 0 280 240 0 300 240 0 
320 240 0 340 240 0 360 240 0 380 240 0 
400 240 0 0 260 0 20 260 0 40 260 0 
60 260 0 80 260 0 100 260 0 120 260 0 
140 260 0 160 260 0 180 260 0 200 260 0 
220 260 0 240 260 0 260 260 0 280 260 0 
300 260 0 320 260 0 340 260 0 360 260 0 
380 260 0 400 260 0 0 280 0 20 280 0 
40 280 0 60 280 0 80 280 0 100 280 0 
120 280 0 140 280 0 160 280 0 180 280 0 
200 280 0 220 280 0 240 280 0 260 280 0 
280 280 0 300 280 0 320 280 0 340 280 0 
360 280 0 380 280 0 400 280 0 0 300 0 
20 300 0 40 300 0 60 300 0 80 300 0 
100 300 0 120 300 0 140 300 0 160 300 0 
180 300 0 200 300 0 220 300 0 240 300 0 
260 300 0 280 300 0 300 300 0 320 300 0 
340 300 0 360 300 0 380 300 0 400 300 0 
0 320 0 20 320 0 40 320 0 60 320 0 
80 320 0 100 320 0 120 320 0 140 320 0 
160 320 0 180 320 0 200 320 0 220 320 0 
240 320 0 260 320 0 280 320 0 300 320 0 
320 320 0 340 320 0 360 320 0 380 320 0 
400 320 0 0 340 0 20 340 0 40 340 0 
60 340 0 80 340 0 100 340 0 120 340 0 
140 340 0 160 340 0 180 340 0 200 340 0 
220 340 0 240 340 0 260 340 0 280 340 0 
300 340 0 320 340 0 340 340 0 360 340 0 
380 340 0 400 340 0 0 360 0 20 360 0 
40 360 0 60 360 0 80 360 0 100 360 0 
120 360 0 140 360 0 160 360 0 180 360 0 
200 360 0 220 360 0 240 360 0 260 360 0 
280 360 0 300 360 0 320 360 0 340 360 0 
360 360 0 380 360 0 400 360 0 0 380 0 
20 380 0 40 380 0 60 380 0 80 380 0 
100 380 0 120 380 0 140 380 0 160 380 0 
180 380 0 200 380 0 220 380 0 240 380 0 
260 380 0 280 380 0 300 380 0 320 380 0 
340 380 0 360 380 0 380 380 0 400 380 0 
0 400 0 20 400 0 40 400 0 60 400 0 
80 400 0 100 400 0 120 400 0 140 400 0 
160 400 0 180 400 0 200 400 0 220 400 0 
240 400 0 260 400 0 280 400 0 300 400 0 
320 400 0 340 400 0 360 400 0 380 400 0 
400 400 0 0 420 0 20 420 0 40 420 0 
60 420 0 80 420 0 100 420 0 120 420 0 
140 420 0 160 420 0 180 420 0 200 420 0 
220 420 0 240 420 0 260 420 0 280 420 0 
300 420 0 320 420 0 340 420 0 360 420 0 
380 420 0 400 420 0 0 440 0 20 440 0 
40 440 0 60 440 0 80 440 0 100 440 0 
120 440 0 140 440 0 160 440 0 180 440 0 
200 440 0 220 440 0 240 440 0 260 440 0 
280 440 0 300 440 0 320 440 0 340 440 0 
360 440 0 380 440 0 400 440 0 0 460 0 
20 460 0 40 460 0 60 460 0 80 460 0 
100 460 0 120 460 0 140 460 0 160 460 0 
180 460 0 200 460 0 220 460 0 240 460 0 
260 460 0 280 460 0 300 460 0 320 460 0 
340 460 0 360 460 0 380 460 0 400 460 0 
0 480 0 20 480 0 40 480 0 60 480 0 
80 480 0 100 480 0 120 480 0 140 480 0 
160 480 0 180 480 0 200 480 0 220 480 0 
240 480 0 260 480 0 280 480 0 300 480 0 
320 480 0 340 480 0 360 480 0 380 480 0 
400 480 0 0 500 0 20 500 0 40 500 0 
60 500 0 80 500 0 100 500 0 120 500 0 
140 500 0 160 500 0 180 500 0 200 500 0 
220 500 0 240 500 0 260 500 0 280 500 0 
300 500 0 320 500 0 340 500 0 360 500 0 
380 500 0 400 500 0 
</DataArray>
      </Points>
      <Cells>
<DataArray type="Int32" Name="connectivity" NumberOfComponents="1" format="ascii">
0 1 3 2 1 4 5 3 4 6 7 5 
6 8 9 7 8 10 11 9 10 12 13 11 
12 14 15 13 14 16 17 15 16 18 19 17 
18 20 21 19 20 22 23 21 22 24 25 23 
24 26 27 25 26 28 29 27 28 30 31 29 
30 32 33 31 32 34 35 33 34 36 37 35 
36 38 39 37 38 40 41 39 2 3 43 42 
3 5 44 43 5 7 45 44 7 9 46 45 
9 11 47 46 11 13 48 47 13 15 49 48 
15 17 50 49 17 19 51 50 19 21 52 51 
21 23 53 52 23 25 54 53 25 27 55 54 
27 29 56 55 29 31 57 56 31 33 58 57 
33 35 59 58 35 37 60 59 37 39 61 60 
39 41 62 61 42 43 64 63 43 44 65 64 
44 45 66 65 45 46 67 66 46 47 68 67 
47 48 69 68 48 49 70 69 49 50 71 70 
50 51 72 71 51 52 73 72 52 53 74 73 
53 54 75 74 54 55 76 75 55 56 77 76 
56 57 78 77 57 58 79 78 58 59 80 79 
59 60 81 80 60 61 82 81 61 62 83 82 
63 64 85 84 64 65 86 85 65 66 87 86 
66 67 88 87 67 68 89 88 68 69 90 89 
69 70 91 90 70 71 92 91 71 72 93 92 
72 73 94 93 73 74 95 94 74 75 96 95 
75 76 97 96 76 77 98 97 77 78 99 98 
78 79 100 99 79 80 101 100 80 81 102 101 
81 82 103 102 82 83 104 103 84 85 106 105 
85 86 107 106 86 87 108 107 87 88 109 108 
88 89 110 109 89 90 111 110 90 91 112 111 
91 92 113 112 92 93 114 113 93 94 115 114 
94 95 116 115 95 96 117 116 96 97 118 117 
97 98 119 118 98 99 120 119 99 100 121 120 
100 101 122 121 101 102 123 122 102 103 124 123 
103 104 125 124 105 106 127 126 106 107 128 127 
107 108 129 128 108 109 130 129 109 110 131 130 
110 111 132 131 111 112 133 132 112 113 134 133 
113 114 135 134 114 115 136 135 115 116 137 136 
116 117 138 137 117 118 139 138 118 119 140 139 
119 120 141 140 120 121 142 141 121 122 143 142 
122 123 144 143 123 124 145 144 124 125 146 145 
126 127 148 147 127 128 149 148 128 129 150 149 
129 130 151 150 130 131 152 151 131 132 153 152 
132 133 154 153 133 134 155 154 134 135 156 155 
135 136 157 156 136 137 158 157 137 138 159 158 
138 139 160 159 139 140 161 160 140 141 162 161 
141 142 163 162 142 143 164 163 143 144 165 164 
144 145 166 165 145 146 167 166 147 148 169 168 
148 149 170 169 149 150 171 170 150 151 172 171 
151 152 173 172 152 153 174 173 153 154 175 174 
154 155 176 175 155 156 177 176 156 157 178 177 
157 158 179 178 158 159 180 179 159 160 181 180 
160 161 182 181 161 162 183 182 162 163 184 183 
163 164 185 184 164 165 186 185 165 166 187 186 
166 167 188 187 168 169 190 189 169 170 191 190 
170 171 192 191 171 172 193 192 172 173 194 193 
173 174 195 194 174 175 196 195 175 176 197 196 
176 177 198 197 177 178 199 198 178 179 200 199 
179 180 201 200 180 181 202 201 181 182 203 202 
182 183 204 203 183 184 205 204 184 185 206 205 
185 186 207 206 186 187 208 207 187 188 209 208 
189 190 211 210 190 191 212 211 191 192 213 212 
192 193 214 213 193 194 215 214 194 195 216 215 
195 196 217 216 196 197 218 217 197 198 219 218 
198 199 220 219 199 200 221 220 200 201 222 221 
201 202 223 222 202 203 224 223 203 204 225 224 
204 205 226 225 205 206 227 226 206 207 228 227 
207 208 229 228 208 209 230 229 210 211 232 231 
211 212 233 232 212 213 234 233 213 214 235 234 
214 215 236 235 215 216 237 236 216 217 238 237 
217 218 239 238 218 219 240 239 219 220 241 240 
220 221 242 241 221 222 243 242 222 223 244 243 
223 224 245 244 224 225 246 245 225 226 247 246 
226 227 248 247 227 228 249 248 228 229 250 249 
229 230 251 250 231 232 253 252 232 233 254 253 
233 234 255 254 234 235 256 255 235 236 257 256 
236 237 258 257 237 238 259 258 238 239 260 259 
239 240 261 260 240 241 262 261 241 242 263 262 
242 243 264 263 243 244 265 264 244 245 266 265 
245 246 267 266 246 247 268 267 247 248 269 268 
248 249 270 269 249 250 271 270 250 251 272 271 
252 253 274 273 253 254 275 274 254 255 276 275 
255 256 277 276 256 257 278 277 257 258 279 278 
258 259 280 279 259 260 281 280 260 261 282 281 
261 262 283 282 262 263 284 283 263 264 285 284 
264 265 286 285 265 266 287 286 266 267 288 287 
267 268 289 288 268 269 290 289 269 270 291 290 
270 271 292 291 271 272 293 292 273 274 295 294 
274 275 296 295 275 276 297 296 276 277 298 297 
277 278 299 298 278 279 300 299 279 280 301 300 
280 281 302 301 281 282 303 302 282 283 304 303 
283 284 305 304 284 285 306 305 285 286 307 306 
286 287 308 307 287 288 309 308 288 289 310 309 
289 290 311 310 290 291 312 311 291 292 313 312 
292 293 314 313 294 295 316 315 295 296 317 316 
296 297 318 317 297 298 319 318 298 299 320 319 
299 300 321 320 300 301 322 321 301 302 323 322 
302 303 324 323 303 304 325 324 304 305 326 325 
305 306 327 326 306 307 328 327 307 308 329 328 
308 309 330 329 309 310 331 330 310 311 332 331 
311 312 333 332 312 313 334 333 313 314 335 334 
315 316 337 336 316 317 338 337 317 318 339 338 
318 319 340 339 319 320 341 340 320 321 342 341 
321 322 343 342 322 323 344 343 323 324 345 344 
324 325 346 345 325 326 347 346 326 327 348 347 
327 328 349 348 328 329 350 349 329 330 351 350 
330 331 352 351 331 332 353 352 332 333 354 353 
333 334 355 354 334 335 356 355 336 337 358 357 
337 338 359 358 338 339 360 359 339 340 361 360 
340 341 362 361 341 342 363 362 342 343 364 363 
343 344 365 364 344 345 366 365 345 346 367 366 
346 347 368 367 347 348 369 368 348 349 370 369 
349 350 371 370 350 351 372 371 351 352 373 372 
352 353 374 373 353 354 375 374 354 355 376 375 
355 356 377 376 357 358 379 378 358 359 380 379 
359 360 381 380 360 361 382 381 361 362 383 382 
362 363 384 383 363 364 385 384 364 365 386 385 
365 366 387 386 366 367 388 387 367 368 389 388 
368 369 390 389 369 370 391 390 370 371 392 391 
371 372 393 392 372 373 394 393 373 374 395 394 
374 375 396 395 375 376 397 396 376 377 398 397 
378 379 400 399 379 380 401 400 380 381 402 401 
381 382 403 402 382 383 404 403 383 384 405 404 
384 385 406 405 385 386 407 406 386 387 408 407 
387 388 409 408 388 389 410 409 389 390 411 410 
390 391 412 411 391 392 413 412 392 393 414 413 
393 394 415 414 394 395 416 415 395 396 417 416 
396 397 418 417 397 398 419 418 399 400 421 420 
400 401 422 421 401 402 423 422 402 403 424 423 
403 404 425 424 404 405 426 425 405 406 427 426 
406 407 428 427 407 408 429 428 408 409 430 429 
409 410 431 430 410 411 432 431 411 412 433 432 
412 413 434 433 413 414 435 434 414 415 436 435 
415 416 437 436 416 417 438 437 417 418 439 438 
418 419 440 439 420 421 442 441 421 422 443 442 
422 423 444 443 423 424 445 444 424 425 446 445 
425 426 447 446 426 427 448 447 427 428 449 448 
428 429 450 449 429 430 451 450 430 431 452 451 
431 432 453 452 432 433 454 453 433 434 455 454 
434 435 456 455 435 436 457 456 436 437 458 457 
437 438 459 458 438 439 460 459 439 440 461 460 
441 442 463 462 442 443 464 463 443 444 465 464 
444 445 466 465 445 446 467 466 446 447 468 467 
447 448 469 468 448 449 470 469 449 450 471 470 
450 451 472 471 451 452 473 472 452 453 474 473 
453 454 475 474 454 455 476 475 455 456 477 476 
456 457 478 477 457 458 479 478 458 459 480 479 
459 460 481 480 460 461 482 481 462 463 484 483 
463 464 485 484 464 465 486 485 465 466 487 486 
466 467 488 487 467 468 489 488 468 469 490 489 
469 470 491 490 470 471 492 491 471 472 493 492 
472 473 494 493 473 474 495 494 474 475 496 495 
475 476 497 496 476 477 498 497 477 478 499 498 
478 479 500 499 479 480 501 500 480 481 502 501 
481 482 503 502 483 484 505 504 484 485 506 505 
485 486 507 506 486 487 508 507 487 488 509 508 
488 489 510 509 489 490 511 510 490 491 512 511 
491 492 513 512 492 493 514 513 493 494 515 514 
494 495 516 515 495 496 517 516 496 497 518 517 
497 498 519 518 498 499 520 519 499 500 521 520 
500 501 522 521 501 502 523 522 502 503 524 523 
504 505 526 525 505 506 527 526 506 507 528 527 
507 508 529 528 508 509 530 529 509 510 531 530 
510 511 532 531 511 512 533 532 512 513 534 533 
513 514 535 534 514 515 536 535 515 516 537 536 
516 517 538 537 517 518 539 538 518 519 540 539 
519 520 541 540 520 521 542 541 521 522 543 542 
522 523 544 543 523 524 545 544 
</DataArray>
<DataArray type="Int32" Name="offsets" NumberOfComponents="1" format="ascii">
4 8 12 16 20 24 28 32 36 40 44 48 
52 56 60 64 68 72 76 80 84 88 92 96 
100 104 108 112 116 120 124 128 132 136 140 144 
148 152 156 160 164 168 172 176 180 184 188 192 
196 200 204 208 212 216 220 224 228 232 236 240 
244 248 252 256 260 264 268 272 276 280 284 288 
292 296 300 304 308 312 316 320 324 328 332 336 
340 344 348 352 356 360 364 368 372 376 380 384 
388 392 396 400 404 408 412 416 420 424 428 432 
436 440 444 448 452 456 460 464 468 472 476 480 
484 488 492 496 500 504 508 512 516 520 524 528 
532 536 540 544 548 552 556 560 564 568 572 576 
580 584 588 592 596 600 604 608 612 616 620 624 
628 632 636 640 644 648 652 656 660 664 668 672 
676 680 684 688 692 696 700 704 708 712 716 720 
724 728 732 736 740 744 748 752 756 760 764 768 
772 776 780 784 788 792 796 800 804 808 812 816 
820 824 828 832 836 840 844 848 852 856 860 864 
868 872 876 880 884 888 892 896 900 904 908 912 
916 920 924 928 932 936 940 944 948 952 956 960 
964 968 972 976 980 984 988 992 996 1000 1004 1008 
1012 1016 1020 1024 1028 1032 1036 1040 1044 1048 1052 1056 
1060 1064 1068 1072 1076 1080 1084 1088 1092 1096 1100 1104 
1108 1112 1116 1120 1124 1128 1132 1136 1140 1144 1148 1152 
1156 1160 1164 1168 1172 1176 1180 1184 1188 1192 1196 1200 
1204 1208 1212 1216 1220 1224 1228 1232 1236 1240 1244 1248 
1252 1256 1260 1264 1268 1272 1276 1280 1284 1288 1292 1296 
1300 1304 1308 1312 1316 1320 1324 1328 1332 1336 1340 1344 
1348 1352 1356 1360 1364 1368 1372 1376 1380 1384 1388 1392 
1396 1400 1404 1408 1412 1416 1420 1424 1428 1432 1436 1440 
1444 1448 1452 1456 1460 1464 1468 1472 1476 1480 1484 1488 
1492 1496 1500 1504 1508 1512 1516 1520 1524 1528 1532 1536 
1540 1544 1548 1552 1556 1560 1564 1568 1572 1576 1580 1584 
1588 1592 1596 1600 1604 1608 1612 1616 1620 1624 1628 1632 
1636 1640 1644 1648 1652 1656 1660 1664 1668 1672 1676 1680 
1684 1688 1692 1696 1700 1704 1708 1712 1716 1720 1724 1728 
1732 1736 1740 1744 1748 1752 1756 1760 1764 1768 1772 1776 
1780 1784 1788 1792 1796 1800 1804 1808 1812 1816 1820 1824 
1828 1832 1836 1840 1844 1848 1852 1856 1860 1864 1868 1872 
1876 1880 1884 1888 1892 1896 1900 1904 1908 1912 1916 1920 
1924 1928 1932 1936 1940 1944 1948 1952 1956 1960 1964 1968 
1972 1976 1980 1984 1988 1992 1996 2000 
</DataArray>
<DataArray type="UInt8" Name="types" NumberOfComponents="1" format="ascii">
9 9 9 9 9 9 9 9 9 9 9 9 
9 9 9 9 9 9 9 9 9 9 9 9 
9 9 9 9 9 9 9 9 9 9 9 9 
9 9 9 9 9 9 9 9 9 9 9 9 
9 9 9 9 9 9 9 9 9 9 9 9 
9 9 9 9 9 9 9 9 9 9 9 9 
9 9 9 9 9 9 9 9 9 9 9 9 
9 9 9 9 9 9 9 9 9 9 9 9 
9 9 9 9 9 9 9 9 9 9 9 9 
9 9 9 9 9 9 9 9 9 9 9 9 
9 9 9 9 9 9 9 9 9 9 9 9 
9 9 9 9 9 9 9 9 9 9 9 9 
9 9 9 9 9 9 9 9 9 9 9 9 
9 9 9 9 9 9 9 9 9 9 9 9 
9 9 9 9 9 9 9 9 9 9 9 9 
9 9 9 9 9 9 9 9 9 9 9 9 
9 9 9 9 9 9 9 9 9 9 9 9 
9 9 9 9 9 9 9 9 9 9 9 9 
9 9 9 9 9 9 9 9 9 9 9 9 
9 9 9 9 9 9 9 9 9 9 9 9 
9 9 9 9 9 9 9 9 9 9 9 9 
9 9 9 9 9 9 9 9 9 9 9 9 
9 9 9 9 9 9 9 9 9 9 9 9 
9 9 9 9 9 9 9 9 9 9 9 9 
9 9 9 9 9 9 9 9 9 9 9 9 
9 9 9 9 9 9 9 9 9 9 9 9 
9 9 9 9 9 9 9 9 9 9 9 9 
9 9 9 9 9 9 9 9 9 9 9 9 
9 9 9 9 9 9 9 9 9 9 9 9 
9 9 9 9 9 9 9 9 9 9 9 9 
9 9 9 9 9 9 9 9 9 9 9 9 
9 9 9 9 9 9 9 9 9 9 9 9 
9 9 9 9 9 9 9 9 9 9 9 9 
9 9 9 9 9 9 9 9 9 9 9 9 
9 9 9 9 9 9 9 9 9 9 9 9 
9 9 9 9 9 9 9 9 9 9 9 9 
9 9 9 9 9 9 9 9 9 9 9 9 
9 9 9 9 9 9 9 9 9 9 9 9 
9 9 9 9 9 9 9 9 9 9 9 9 
9 9 9 9 9 9 9 9 9 9 9 9 
9 9 9 9 9 9 9 9 9 9 9 9 
9 9 9 9 9 9 9 9 
</DataArray>
      </Cells>
    </Piece>
  </UnstructuredGrid>
</VTKFile>
