-- The following file was written from MATLAB using the MRST toolbox.

SPECGRID
40 40 10 1 F
/

COORD
    0.000000     0.000000     0.000000     0.000000     0.000000     0.250000 
    0.030000     0.000000     0.000000     0.030000     0.000000     0.250000 
    0.060000     0.000000     0.000000     0.060000     0.000000     0.250000 
    0.090000     0.000000     0.000000     0.090000     0.000000     0.250000 
    0.120000     0.000000     0.000000     0.120000     0.000000     0.250000 
    0.150000     0.000000     0.000000     0.150000     0.000000     0.250000 
    0.180000     0.000000     0.000000     0.180000     0.000000     0.250000 
    0.210000     0.000000     0.000000     0.210000     0.000000     0.250000 
    0.240000     0.000000     0.000000     0.240000     0.000000     0.250000 
    0.270000     0.000000     0.000000     0.270000     0.000000     0.250000 
    0.300000     0.000000     0.000000     0.300000     0.000000     0.250000 
    0.330000     0.000000     0.000000     0.330000     0.000000     0.250000 
    0.360000     0.000000     0.000000     0.360000     0.000000     0.250000 
    0.390000     0.000000     0.000000     0.390000     0.000000     0.250000 
    0.420000     0.000000     0.000000     0.420000     0.000000     0.250000 
    0.450000     0.000000     0.000000     0.450000     0.000000     0.250000 
    0.480000     0.000000     0.000000     0.480000     0.000000     0.250000 
    0.510000     0.000000     0.000000     0.510000     0.000000     0.250000 
    0.540000     0.000000     0.000000     0.540000     0.000000     0.250000 
    0.570000     0.000000     0.000000     0.570000     0.000000     0.250000 
    0.600000     0.000000     0.000000     0.600000     0.000000     0.250000 
    0.620000     0.000000     0.000000     0.620000     0.000000     0.250000 
    0.640000     0.000000     0.000000     0.640000     0.000000     0.250000 
    0.660000     0.000000     0.000000     0.660000     0.000000     0.250000 
    0.680000     0.000000     0.000000     0.680000     0.000000     0.250000 
    0.700000     0.000000     0.000000     0.700000     0.000000     0.250000 
    0.720000     0.000000     0.000000     0.720000     0.000000     0.250000 
    0.740000     0.000000     0.000000     0.740000     0.000000     0.250000 
    0.760000     0.000000     0.000000     0.760000     0.000000     0.250000 
    0.780000     0.000000     0.000000     0.780000     0.000000     0.250000 
    0.800000     0.000000     0.000000     0.800000     0.000000     0.250000 
    0.820000     0.000000     0.000000     0.820000     0.000000     0.250000 
    0.840000     0.000000     0.000000     0.840000     0.000000     0.250000 
    0.860000     0.000000     0.000000     0.860000     0.000000     0.250000 
    0.880000     0.000000     0.000000     0.880000     0.000000     0.250000 
    0.900000     0.000000     0.000000     0.900000     0.000000     0.250000 
    0.920000     0.000000     0.000000     0.920000     0.000000     0.250000 
    0.940000     0.000000     0.000000     0.940000     0.000000     0.250000 
    0.960000     0.000000     0.000000     0.960000     0.000000     0.250000 
    0.980000     0.000000     0.000000     0.980000     0.000000     0.250000 
    1.000000     0.000000     0.000000     1.000000     0.000000     0.250000 
    0.000000     0.025000     0.000000     0.000000     0.035000     0.250000 
    0.030000     0.025000     0.000000     0.030000     0.035000     0.250000 
    0.060000     0.025000     0.000000     0.060000     0.035000     0.250000 
    0.090000     0.025000     0.000000     0.090000     0.035000     0.250000 
    0.120000     0.025000     0.000000     0.120000     0.035000     0.250000 
    0.150000     0.025000     0.000000     0.150000     0.035000     0.250000 
    0.180000     0.025000     0.000000     0.180000     0.035000     0.250000 
    0.210000     0.025000     0.000000     0.210000     0.035000     0.250000 
    0.240000     0.025000     0.000000     0.240000     0.035000     0.250000 
    0.270000     0.025000     0.000000     0.270000     0.035000     0.250000 
    0.300000     0.025000     0.000000     0.300000     0.035000     0.250000 
    0.330000     0.025000     0.000000     0.330000     0.035000     0.250000 
    0.360000     0.025000     0.000000     0.360000     0.035000     0.250000 
    0.390000     0.025000     0.000000     0.390000     0.035000     0.250000 
    0.420000     0.025000     0.000000     0.420000     0.035000     0.250000 
    0.450000     0.025000     0.000000     0.450000     0.035000     0.250000 
    0.480000     0.025000     0.000000     0.480000     0.035000     0.250000 
    0.510000     0.025000     0.000000     0.510000     0.035000     0.250000 
    0.540000     0.025000     0.000000     0.540000     0.035000     0.250000 
    0.570000     0.025000     0.000000     0.570000     0.035000     0.250000 
    0.600000     0.025000     0.000000     0.600000     0.035000     0.250000 
    0.620000     0.025000     0.000000     0.620000     0.035000     0.250000 
    0.640000     0.025000     0.000000     0.640000     0.035000     0.250000 
    0.660000     0.025000     0.000000     0.660000     0.035000     0.250000 
    0.680000     0.025000     0.000000     0.680000     0.035000     0.250000 
    0.700000     0.025000     0.000000     0.700000     0.035000     0.250000 
    0.720000     0.025000     0.000000     0.720000     0.035000     0.250000 
    0.740000     0.025000     0.000000     0.740000     0.035000     0.250000 
    0.760000     0.025000     0.000000     0.760000     0.035000     0.250000 
    0.780000     0.025000     0.000000     0.780000     0.035000     0.250000 
    0.800000     0.025000     0.000000     0.800000     0.035000     0.250000 
    0.820000     0.025000     0.000000     0.820000     0.035000     0.250000 
    0.840000     0.025000     0.000000     0.840000     0.035000     0.250000 
    0.860000     0.025000     0.000000     0.860000     0.035000     0.250000 
    0.880000     0.025000     0.000000     0.880000     0.035000     0.250000 
    0.900000     0.025000     0.000000     0.900000     0.035000     0.250000 
    0.920000     0.025000     0.000000     0.920000     0.035000     0.250000 
    0.940000     0.025000     0.000000     0.940000     0.035000     0.250000 
    0.960000     0.025000     0.000000     0.960000     0.035000     0.250000 
    0.980000     0.025000     0.000000     0.980000     0.035000     0.250000 
    1.000000     0.025000     0.000000     1.000000     0.035000     0.250000 
    0.000000     0.050000     0.000000     0.000000     0.070000     0.250000 
    0.030000     0.050000     0.000000     0.030000     0.070000     0.250000 
    0.060000     0.050000     0.000000     0.060000     0.070000     0.250000 
    0.090000     0.050000     0.000000     0.090000     0.070000     0.250000 
    0.120000     0.050000     0.000000     0.120000     0.070000     0.250000 
    0.150000     0.050000     0.000000     0.150000     0.070000     0.250000 
    0.180000     0.050000     0.000000     0.180000     0.070000     0.250000 
    0.210000     0.050000     0.000000     0.210000     0.070000     0.250000 
    0.240000     0.050000     0.000000     0.240000     0.070000     0.250000 
    0.270000     0.050000     0.000000     0.270000     0.070000     0.250000 
    0.300000     0.050000     0.000000     0.300000     0.070000     0.250000 
    0.330000     0.050000     0.000000     0.330000     0.070000     0.250000 
    0.360000     0.050000     0.000000     0.360000     0.070000     0.250000 
    0.390000     0.050000     0.000000     0.390000     0.070000     0.250000 
    0.420000     0.050000     0.000000     0.420000     0.070000     0.250000 
    0.450000     0.050000     0.000000     0.450000     0.070000     0.250000 
    0.480000     0.050000     0.000000     0.480000     0.070000     0.250000 
    0.510000     0.050000     0.000000     0.510000     0.070000     0.250000 
    0.540000     0.050000     0.000000     0.540000     0.070000     0.250000 
    0.570000     0.050000     0.000000     0.570000     0.070000     0.250000 
    0.600000     0.050000     0.000000     0.600000     0.070000     0.250000 
    0.620000     0.050000     0.000000     0.620000     0.070000     0.250000 
    0.640000     0.050000     0.000000     0.640000     0.070000     0.250000 
    0.660000     0.050000     0.000000     0.660000     0.070000     0.250000 
    0.680000     0.050000     0.000000     0.680000     0.070000     0.250000 
    0.700000     0.050000     0.000000     0.700000     0.070000     0.250000 
    0.720000     0.050000     0.000000     0.720000     0.070000     0.250000 
    0.740000     0.050000     0.000000     0.740000     0.070000     0.250000 
    0.760000     0.050000     0.000000     0.760000     0.070000     0.250000 
    0.780000     0.050000     0.000000     0.780000     0.070000     0.250000 
    0.800000     0.050000     0.000000     0.800000     0.070000     0.250000 
    0.820000     0.050000     0.000000     0.820000     0.070000     0.250000 
    0.840000     0.050000     0.000000     0.840000     0.070000     0.250000 
    0.860000     0.050000     0.000000     0.860000     0.070000     0.250000 
    0.880000     0.050000     0.000000     0.880000     0.070000     0.250000 
    0.900000     0.050000     0.000000     0.900000     0.070000     0.250000 
    0.920000     0.050000     0.000000     0.920000     0.070000     0.250000 
    0.940000     0.050000     0.000000     0.940000     0.070000     0.250000 
    0.960000     0.050000     0.000000     0.960000     0.070000     0.250000 
    0.980000     0.050000     0.000000     0.980000     0.070000     0.250000 
    1.000000     0.050000     0.000000     1.000000     0.070000     0.250000 
    0.000000     0.075000     0.000000     0.000000     0.105000     0.250000 
    0.030000     0.075000     0.000000     0.030000     0.105000     0.250000 
    0.060000     0.075000     0.000000     0.060000     0.105000     0.250000 
    0.090000     0.075000     0.000000     0.090000     0.105000     0.250000 
    0.120000     0.075000     0.000000     0.120000     0.105000     0.250000 
    0.150000     0.075000     0.000000     0.150000     0.105000     0.250000 
    0.180000     0.075000     0.000000     0.180000     0.105000     0.250000 
    0.210000     0.075000     0.000000     0.210000     0.105000     0.250000 
    0.240000     0.075000     0.000000     0.240000     0.105000     0.250000 
    0.270000     0.075000     0.000000     0.270000     0.105000     0.250000 
    0.300000     0.075000     0.000000     0.300000     0.105000     0.250000 
    0.330000     0.075000     0.000000     0.330000     0.105000     0.250000 
    0.360000     0.075000     0.000000     0.360000     0.105000     0.250000 
    0.390000     0.075000     0.000000     0.390000     0.105000     0.250000 
    0.420000     0.075000     0.000000     0.420000     0.105000     0.250000 
    0.450000     0.075000     0.000000     0.450000     0.105000     0.250000 
    0.480000     0.075000     0.000000     0.480000     0.105000     0.250000 
    0.510000     0.075000     0.000000     0.510000     0.105000     0.250000 
    0.540000     0.075000     0.000000     0.540000     0.105000     0.250000 
    0.570000     0.075000     0.000000     0.570000     0.105000     0.250000 
    0.600000     0.075000     0.000000     0.600000     0.105000     0.250000 
    0.620000     0.075000     0.000000     0.620000     0.105000     0.250000 
    0.640000     0.075000     0.000000     0.640000     0.105000     0.250000 
    0.660000     0.075000     0.000000     0.660000     0.105000     0.250000 
    0.680000     0.075000     0.000000     0.680000     0.105000     0.250000 
    0.700000     0.075000     0.000000     0.700000     0.105000     0.250000 
    0.720000     0.075000     0.000000     0.720000     0.105000     0.250000 
    0.740000     0.075000     0.000000     0.740000     0.105000     0.250000 
    0.760000     0.075000     0.000000     0.760000     0.105000     0.250000 
    0.780000     0.075000     0.000000     0.780000     0.105000     0.250000 
    0.800000     0.075000     0.000000     0.800000     0.105000     0.250000 
    0.820000     0.075000     0.000000     0.820000     0.105000     0.250000 
    0.840000     0.075000     0.000000     0.840000     0.105000     0.250000 
    0.860000     0.075000     0.000000     0.860000     0.105000     0.250000 
    0.880000     0.075000     0.000000     0.880000     0.105000     0.250000 
    0.900000     0.075000     0.000000     0.900000     0.105000     0.250000 
    0.920000     0.075000     0.000000     0.920000     0.105000     0.250000 
    0.940000     0.075000     0.000000     0.940000     0.105000     0.250000 
    0.960000     0.075000     0.000000     0.960000     0.105000     0.250000 
    0.980000     0.075000     0.000000     0.980000     0.105000     0.250000 
    1.000000     0.075000     0.000000     1.000000     0.105000     0.250000 
    0.000000     0.100000     0.000000     0.000000     0.140000     0.250000 
    0.030000     0.100000     0.000000     0.030000     0.140000     0.250000 
    0.060000     0.100000     0.000000     0.060000     0.140000     0.250000 
    0.090000     0.100000     0.000000     0.090000     0.140000     0.250000 
    0.120000     0.100000     0.000000     0.120000     0.140000     0.250000 
    0.150000     0.100000     0.000000     0.150000     0.140000     0.250000 
    0.180000     0.100000     0.000000     0.180000     0.140000     0.250000 
    0.210000     0.100000     0.000000     0.210000     0.140000     0.250000 
    0.240000     0.100000     0.000000     0.240000     0.140000     0.250000 
    0.270000     0.100000     0.000000     0.270000     0.140000     0.250000 
    0.300000     0.100000     0.000000     0.300000     0.140000     0.250000 
    0.330000     0.100000     0.000000     0.330000     0.140000     0.250000 
    0.360000     0.100000     0.000000     0.360000     0.140000     0.250000 
    0.390000     0.100000     0.000000     0.390000     0.140000     0.250000 
    0.420000     0.100000     0.000000     0.420000     0.140000     0.250000 
    0.450000     0.100000     0.000000     0.450000     0.140000     0.250000 
    0.480000     0.100000     0.000000     0.480000     0.140000     0.250000 
    0.510000     0.100000     0.000000     0.510000     0.140000     0.250000 
    0.540000     0.100000     0.000000     0.540000     0.140000     0.250000 
    0.570000     0.100000     0.000000     0.570000     0.140000     0.250000 
    0.600000     0.100000     0.000000     0.600000     0.140000     0.250000 
    0.620000     0.100000     0.000000     0.620000     0.140000     0.250000 
    0.640000     0.100000     0.000000     0.640000     0.140000     0.250000 
    0.660000     0.100000     0.000000     0.660000     0.140000     0.250000 
    0.680000     0.100000     0.000000     0.680000     0.140000     0.250000 
    0.700000     0.100000     0.000000     0.700000     0.140000     0.250000 
    0.720000     0.100000     0.000000     0.720000     0.140000     0.250000 
    0.740000     0.100000     0.000000     0.740000     0.140000     0.250000 
    0.760000     0.100000     0.000000     0.760000     0.140000     0.250000 
    0.780000     0.100000     0.000000     0.780000     0.140000     0.250000 
    0.800000     0.100000     0.000000     0.800000     0.140000     0.250000 
    0.820000     0.100000     0.000000     0.820000     0.140000     0.250000 
    0.840000     0.100000     0.000000     0.840000     0.140000     0.250000 
    0.860000     0.100000     0.000000     0.860000     0.140000     0.250000 
    0.880000     0.100000     0.000000     0.880000     0.140000     0.250000 
    0.900000     0.100000     0.000000     0.900000     0.140000     0.250000 
    0.920000     0.100000     0.000000     0.920000     0.140000     0.250000 
    0.940000     0.100000     0.000000     0.940000     0.140000     0.250000 
    0.960000     0.100000     0.000000     0.960000     0.140000     0.250000 
    0.980000     0.100000     0.000000     0.980000     0.140000     0.250000 
    1.000000     0.100000     0.000000     1.000000     0.140000     0.250000 
    0.000000     0.125000     0.000000     0.000000     0.175000     0.250000 
    0.030000     0.125000     0.000000     0.030000     0.175000     0.250000 
    0.060000     0.125000     0.000000     0.060000     0.175000     0.250000 
    0.090000     0.125000     0.000000     0.090000     0.175000     0.250000 
    0.120000     0.125000     0.000000     0.120000     0.175000     0.250000 
    0.150000     0.125000     0.000000     0.150000     0.175000     0.250000 
    0.180000     0.125000     0.000000     0.180000     0.175000     0.250000 
    0.210000     0.125000     0.000000     0.210000     0.175000     0.250000 
    0.240000     0.125000     0.000000     0.240000     0.175000     0.250000 
    0.270000     0.125000     0.000000     0.270000     0.175000     0.250000 
    0.300000     0.125000     0.000000     0.300000     0.175000     0.250000 
    0.330000     0.125000     0.000000     0.330000     0.175000     0.250000 
    0.360000     0.125000     0.000000     0.360000     0.175000     0.250000 
    0.390000     0.125000     0.000000     0.390000     0.175000     0.250000 
    0.420000     0.125000     0.000000     0.420000     0.175000     0.250000 
    0.450000     0.125000     0.000000     0.450000     0.175000     0.250000 
    0.480000     0.125000     0.000000     0.480000     0.175000     0.250000 
    0.510000     0.125000     0.000000     0.510000     0.175000     0.250000 
    0.540000     0.125000     0.000000     0.540000     0.175000     0.250000 
    0.570000     0.125000     0.000000     0.570000     0.175000     0.250000 
    0.600000     0.125000     0.000000     0.600000     0.175000     0.250000 
    0.620000     0.125000     0.000000     0.620000     0.175000     0.250000 
    0.640000     0.125000     0.000000     0.640000     0.175000     0.250000 
    0.660000     0.125000     0.000000     0.660000     0.175000     0.250000 
    0.680000     0.125000     0.000000     0.680000     0.175000     0.250000 
    0.700000     0.125000     0.000000     0.700000     0.175000     0.250000 
    0.720000     0.125000     0.000000     0.720000     0.175000     0.250000 
    0.740000     0.125000     0.000000     0.740000     0.175000     0.250000 
    0.760000     0.125000     0.000000     0.760000     0.175000     0.250000 
    0.780000     0.125000     0.000000     0.780000     0.175000     0.250000 
    0.800000     0.125000     0.000000     0.800000     0.175000     0.250000 
    0.820000     0.125000     0.000000     0.820000     0.175000     0.250000 
    0.840000     0.125000     0.000000     0.840000     0.175000     0.250000 
    0.860000     0.125000     0.000000     0.860000     0.175000     0.250000 
    0.880000     0.125000     0.000000     0.880000     0.175000     0.250000 
    0.900000     0.125000     0.000000     0.900000     0.175000     0.250000 
    0.920000     0.125000     0.000000     0.920000     0.175000     0.250000 
    0.940000     0.125000     0.000000     0.940000     0.175000     0.250000 
    0.960000     0.125000     0.000000     0.960000     0.175000     0.250000 
    0.980000     0.125000     0.000000     0.980000     0.175000     0.250000 
    1.000000     0.125000     0.000000     1.000000     0.175000     0.250000 
    0.000000     0.150000     0.000000     0.000000     0.210000     0.250000 
    0.030000     0.150000     0.000000     0.030000     0.210000     0.250000 
    0.060000     0.150000     0.000000     0.060000     0.210000     0.250000 
    0.090000     0.150000     0.000000     0.090000     0.210000     0.250000 
    0.120000     0.150000     0.000000     0.120000     0.210000     0.250000 
    0.150000     0.150000     0.000000     0.150000     0.210000     0.250000 
    0.180000     0.150000     0.000000     0.180000     0.210000     0.250000 
    0.210000     0.150000     0.000000     0.210000     0.210000     0.250000 
    0.240000     0.150000     0.000000     0.240000     0.210000     0.250000 
    0.270000     0.150000     0.000000     0.270000     0.210000     0.250000 
    0.300000     0.150000     0.000000     0.300000     0.210000     0.250000 
    0.330000     0.150000     0.000000     0.330000     0.210000     0.250000 
    0.360000     0.150000     0.000000     0.360000     0.210000     0.250000 
    0.390000     0.150000     0.000000     0.390000     0.210000     0.250000 
    0.420000     0.150000     0.000000     0.420000     0.210000     0.250000 
    0.450000     0.150000     0.000000     0.450000     0.210000     0.250000 
    0.480000     0.150000     0.000000     0.480000     0.210000     0.250000 
    0.510000     0.150000     0.000000     0.510000     0.210000     0.250000 
    0.540000     0.150000     0.000000     0.540000     0.210000     0.250000 
    0.570000     0.150000     0.000000     0.570000     0.210000     0.250000 
    0.600000     0.150000     0.000000     0.600000     0.210000     0.250000 
    0.620000     0.150000     0.000000     0.620000     0.210000     0.250000 
    0.640000     0.150000     0.000000     0.640000     0.210000     0.250000 
    0.660000     0.150000     0.000000     0.660000     0.210000     0.250000 
    0.680000     0.150000     0.000000     0.680000     0.210000     0.250000 
    0.700000     0.150000     0.000000     0.700000     0.210000     0.250000 
    0.720000     0.150000     0.000000     0.720000     0.210000     0.250000 
    0.740000     0.150000     0.000000     0.740000     0.210000     0.250000 
    0.760000     0.150000     0.000000     0.760000     0.210000     0.250000 
    0.780000     0.150000     0.000000     0.780000     0.210000     0.250000 
    0.800000     0.150000     0.000000     0.800000     0.210000     0.250000 
    0.820000     0.150000     0.000000     0.820000     0.210000     0.250000 
    0.840000     0.150000     0.000000     0.840000     0.210000     0.250000 
    0.860000     0.150000     0.000000     0.860000     0.210000     0.250000 
    0.880000     0.150000     0.000000     0.880000     0.210000     0.250000 
    0.900000     0.150000     0.000000     0.900000     0.210000     0.250000 
    0.920000     0.150000     0.000000     0.920000     0.210000     0.250000 
    0.940000     0.150000     0.000000     0.940000     0.210000     0.250000 
    0.960000     0.150000     0.000000     0.960000     0.210000     0.250000 
    0.980000     0.150000     0.000000     0.980000     0.210000     0.250000 
    1.000000     0.150000     0.000000     1.000000     0.210000     0.250000 
    0.000000     0.175000     0.000000     0.000000     0.245000     0.250000 
    0.030000     0.175000     0.000000     0.030000     0.245000     0.250000 
    0.060000     0.175000     0.000000     0.060000     0.245000     0.250000 
    0.090000     0.175000     0.000000     0.090000     0.245000     0.250000 
    0.120000     0.175000     0.000000     0.120000     0.245000     0.250000 
    0.150000     0.175000     0.000000     0.150000     0.245000     0.250000 
    0.180000     0.175000     0.000000     0.180000     0.245000     0.250000 
    0.210000     0.175000     0.000000     0.210000     0.245000     0.250000 
    0.240000     0.175000     0.000000     0.240000     0.245000     0.250000 
    0.270000     0.175000     0.000000     0.270000     0.245000     0.250000 
    0.300000     0.175000     0.000000     0.300000     0.245000     0.250000 
    0.330000     0.175000     0.000000     0.330000     0.245000     0.250000 
    0.360000     0.175000     0.000000     0.360000     0.245000     0.250000 
    0.390000     0.175000     0.000000     0.390000     0.245000     0.250000 
    0.420000     0.175000     0.000000     0.420000     0.245000     0.250000 
    0.450000     0.175000     0.000000     0.450000     0.245000     0.250000 
    0.480000     0.175000     0.000000     0.480000     0.245000     0.250000 
    0.510000     0.175000     0.000000     0.510000     0.245000     0.250000 
    0.540000     0.175000     0.000000     0.540000     0.245000     0.250000 
    0.570000     0.175000     0.000000     0.570000     0.245000     0.250000 
    0.600000     0.175000     0.000000     0.600000     0.245000     0.250000 
    0.620000     0.175000     0.000000     0.620000     0.245000     0.250000 
    0.640000     0.175000     0.000000     0.640000     0.245000     0.250000 
    0.660000     0.175000     0.000000     0.660000     0.245000     0.250000 
    0.680000     0.175000     0.000000     0.680000     0.245000     0.250000 
    0.700000     0.175000     0.000000     0.700000     0.245000     0.250000 
    0.720000     0.175000     0.000000     0.720000     0.245000     0.250000 
    0.740000     0.175000     0.000000     0.740000     0.245000     0.250000 
    0.760000     0.175000     0.000000     0.760000     0.245000     0.250000 
    0.780000     0.175000     0.000000     0.780000     0.245000     0.250000 
    0.800000     0.175000     0.000000     0.800000     0.245000     0.250000 
    0.820000     0.175000     0.000000     0.820000     0.245000     0.250000 
    0.840000     0.175000     0.000000     0.840000     0.245000     0.250000 
    0.860000     0.175000     0.000000     0.860000     0.245000     0.250000 
    0.880000     0.175000     0.000000     0.880000     0.245000     0.250000 
    0.900000     0.175000     0.000000     0.900000     0.245000     0.250000 
    0.920000     0.175000     0.000000     0.920000     0.245000     0.250000 
    0.940000     0.175000     0.000000     0.940000     0.245000     0.250000 
    0.960000     0.175000     0.000000     0.960000     0.245000     0.250000 
    0.980000     0.175000     0.000000     0.980000     0.245000     0.250000 
    1.000000     0.175000     0.000000     1.000000     0.245000     0.250000 
    0.000000     0.200000     0.000000     0.000000     0.280000     0.250000 
    0.030000     0.200000     0.000000     0.030000     0.280000     0.250000 
    0.060000     0.200000     0.000000     0.060000     0.280000     0.250000 
    0.090000     0.200000     0.000000     0.090000     0.280000     0.250000 
    0.120000     0.200000     0.000000     0.120000     0.280000     0.250000 
    0.150000     0.200000     0.000000     0.150000     0.280000     0.250000 
    0.180000     0.200000     0.000000     0.180000     0.280000     0.250000 
    0.210000     0.200000     0.000000     0.210000     0.280000     0.250000 
    0.240000     0.200000     0.000000     0.240000     0.280000     0.250000 
    0.270000     0.200000     0.000000     0.270000     0.280000     0.250000 
    0.300000     0.200000     0.000000     0.300000     0.280000     0.250000 
    0.330000     0.200000     0.000000     0.330000     0.280000     0.250000 
    0.360000     0.200000     0.000000     0.360000     0.280000     0.250000 
    0.390000     0.200000     0.000000     0.390000     0.280000     0.250000 
    0.420000     0.200000     0.000000     0.420000     0.280000     0.250000 
    0.450000     0.200000     0.000000     0.450000     0.280000     0.250000 
    0.480000     0.200000     0.000000     0.480000     0.280000     0.250000 
    0.510000     0.200000     0.000000     0.510000     0.280000     0.250000 
    0.540000     0.200000     0.000000     0.540000     0.280000     0.250000 
    0.570000     0.200000     0.000000     0.570000     0.280000     0.250000 
    0.600000     0.200000     0.000000     0.600000     0.280000     0.250000 
    0.620000     0.200000     0.000000     0.620000     0.280000     0.250000 
    0.640000     0.200000     0.000000     0.640000     0.280000     0.250000 
    0.660000     0.200000     0.000000     0.660000     0.280000     0.250000 
    0.680000     0.200000     0.000000     0.680000     0.280000     0.250000 
    0.700000     0.200000     0.000000     0.700000     0.280000     0.250000 
    0.720000     0.200000     0.000000     0.720000     0.280000     0.250000 
    0.740000     0.200000     0.000000     0.740000     0.280000     0.250000 
    0.760000     0.200000     0.000000     0.760000     0.280000     0.250000 
    0.780000     0.200000     0.000000     0.780000     0.280000     0.250000 
    0.800000     0.200000     0.000000     0.800000     0.280000     0.250000 
    0.820000     0.200000     0.000000     0.820000     0.280000     0.250000 
    0.840000     0.200000     0.000000     0.840000     0.280000     0.250000 
    0.860000     0.200000     0.000000     0.860000     0.280000     0.250000 
    0.880000     0.200000     0.000000     0.880000     0.280000     0.250000 
    0.900000     0.200000     0.000000     0.900000     0.280000     0.250000 
    0.920000     0.200000     0.000000     0.920000     0.280000     0.250000 
    0.940000     0.200000     0.000000     0.940000     0.280000     0.250000 
    0.960000     0.200000     0.000000     0.960000     0.280000     0.250000 
    0.980000     0.200000     0.000000     0.980000     0.280000     0.250000 
    1.000000     0.200000     0.000000     1.000000     0.280000     0.250000 
    0.000000     0.225000     0.000000     0.000000     0.315000     0.250000 
    0.030000     0.225000     0.000000     0.030000     0.315000     0.250000 
    0.060000     0.225000     0.000000     0.060000     0.315000     0.250000 
    0.090000     0.225000     0.000000     0.090000     0.315000     0.250000 
    0.120000     0.225000     0.000000     0.120000     0.315000     0.250000 
    0.150000     0.225000     0.000000     0.150000     0.315000     0.250000 
    0.180000     0.225000     0.000000     0.180000     0.315000     0.250000 
    0.210000     0.225000     0.000000     0.210000     0.315000     0.250000 
    0.240000     0.225000     0.000000     0.240000     0.315000     0.250000 