<?xml version="1.0"?>
<!--
SPDX-FileCopyrightText: Copyright © DuMux Project contributors, see AUTHORS.md in root folder
SPDX-License-Identifier: CC0-1.0
-->

<VTKFile type="UnstructuredGrid" version="1.0" byte_order="LittleEndian" header_type="UInt64">
  <UnstructuredGrid>
    <Piece NumberOfPoints="1325" NumberOfCells="2544">
      <PointData Scalars="vertexData">
        <DataArray type="Float64" Name="vertexData" format="ascii" RangeMin="-0.9996902853162234" RangeMax="0.9973094549606686">
          0.5984721441039564 0.5119266228517438 0.4198311032595559 0.32318450699968687 0.2230343108482811 0.12046593379578334
          0.016591892229347906 -0.0874620198152698 -0.19056806039603486 -0.2916078813138529 -0.3894864203038108 -0.4831428501849334
          -0.5715613187423437 -0.6537835677069807 -0.7289184407332103 -0.7961509812048658 -0.8547525556772788 -0.9040879997010148
          -0.9436221923009624 -0.9729267032825379 -0.9916838847277322 -0.9996902853162234 -0.9968591776103961 -0.9832211989046016
          -0.9589242746631385 0.5858594899668452 0.5027162099445688 0.4147785140927439 0.3230650010070051 0.22863006079834763
          0.13255122704456546 0.035916281686886854 -0.06018993190692745 -0.15469719400364637 -0.24656409583403718 -0.3347890185872004
          -0.418421932569905 -0.49657517102859805 -0.5684334265914199 -0.6332627258087865 -0.6904183819666159 -0.739351721694548
          -0.7796157095927534 -0.8108691576680827 -0.8328796635098996 -0.8455251974982855 -0.8487942295650577 -0.8427846859870152
          -0.8277013900205883 -0.8038523267765285 0.5436117578432356 0.4691867174265718 0.39200385752291106 0.3131377128900026
          0.23366341530963444 0.15464023218501718 0.07709520012227063 0.0020096260102317456 -0.06969569989220624 -0.13717408473819376
          -0.19966332156477573 -0.25649667627115963 -0.3071119323253227 -0.3510571837010825 -0.3879970955426398 -0.4177151883478038
          -0.44011535397270307 -0.4552217601026401 -0.46317521539338835 -0.46422952145191665 -0.45874489712201494 -0.447180159959687
          -0.430083151724921 -0.4080802129688946 -0.38186381453382756 0.4614144899719319 0.39721049409888287 0.3329595509067885
          0.2698146703611027 0.20888252991937442 0.15120355528088675 0.09773361234113857 0.04932714590432135 0.006722385684559374
          -0.0294718666016348 -0.058785836768366274 -0.08089702649798758 -0.09563500366527458 -0.10298376592323585 -0.10308106498488102
          -0.09621464913541397 -0.08281655474259075 -0.06345353303954587 -0.038816314029678285 -0.009705697253153763 0.02298355858463344
          0.05827928072322416 0.09515179290749173 0.13253290019371353 0.16933695719759803 0.3304572354276952 0.27353290027108484
          0.21918809841994077 0.16865188544357926 0.12306207450976882 0.08344246938031237 0.050682739923972264 0.02552053737255669
          0.00852676315499262 0.00009440675882859561 0.0004305608978879668 0.009552282989765735 0.02728630939164033 0.05327232066355374
          0.08697004523548749 0.1276701633680123 0.174507975040166 0.22648065025877712 0.28246737920272663 0.341251074045935
          0.40154275119055394 0.46200738794472435 0.521289905043529 0.5780424108950595 0.6309512192133198 0.15185876697136147
          0.09621936891299716 0.04507717018148546 -0.0002877845255504338 -0.03872090971492908 -0.06921811980084706 -0.09094660567603363
          -0.10326211657229643 -0.10572305402313746 -0.09809956580809798 -0.08037850301690058 -0.052763863644165486 -0.015672447478857245
          0.03027401540433321 0.08426264199452578 0.14530586743785695 0.21226138020822022 0.2838568120837479 0.3587159039865276
          0.4353861718629395 0.5123709051363582 0.5881586771376226 0.6612560062179712 0.7302172918786145 0.7936761211894754
          -0.05805518271958346 -0.11863115084277229 -0.1737670502562008 -0.2221625798961771 -0.2626631457362542 -0.2942845451018121
          -0.3162344625677707 -0.3279291053247475 -0.32900611051550727 -0.3193323011467316 -0.2990064193139891 -0.26835751649656436
          -0.22793707556150047 -0.17850747327848737 -0.12102641653426631 -0.05662482547012518 0.013416798032524114 0.0876951161590559
          0.1647160402522708 0.24292478501579498 0.3207412108840629 0.39659305835579706 0.46894898311569433 0.5363531826727805
          0.5974558776755252 -0.2685413258969798 -0.3375164401883522 -0.4009525074481463 -0.4575476997635109 -0.5061480673689159
          -0.5457723699276396 -0.575633210036149 -0.5951546192541991 -0.6039836361274628 -0.6019985160465059 -0.5893110686667219
          -0.566264857026586 -0.5334265832084354 -0.4915754072020874 -0.4416841762909726 -0.3849003111066187 -0.32252013152212394
          -0.25595997203544835 -0.186727269876703 -0.11638713568338901 -0.04652761127937462 0.02127289195938169 0.08548064447415649
          0.1446405247141128 0.19740589477847248 -0.4414739898515351 -0.5177473781339255 -0.5888740773187442 -0.6535546976743751
          -0.7106228761761048 -0.7590688222173042 -0.7980613547141964 -0.826964852071171 -0.8453524936047194 -0.8530154000367969
          -0.8499667075342942 -0.8364417487498382 -0.8128921341948185 -0.7799767184634588 -0.7385474757918723 -0.6896312854173074
          -0.6344086452749048 -0.5741880623755838 -0.5103788389034675 -0.44446090702749635 -0.3779539147479171 -0.31238485532160754
          -0.24925591564269184 -0.19001224852477336 -0.13601263448471035 -0.5418936527862391 -0.6198876614808712 -0.6933084462064469
          -0.7608767952778072 -0.8214166455346232 -0.8738794390797636 -0.9173634478033269 -0.9511327856926217 -0.9746309286957499
          -0.9874921737435064 -0.9895487887753297 -0.9808339276569111 -0.961581009608479 -0.9322190970232219 -0.8933638352340701
          -0.8458056364535002 -0.7904932134201469 -0.7285153495441552 -0.6610784347609564 -0.5894829862232824 -0.5150975945478042
          -0.43933096684188155 -0.3636053748087404 -0.2893265747978611 -0.21785760817162922 -0.5478795365566665 -0.6192511896849714
          -0.6867151485705669 -0.7490777949077658 -0.8052147818862107 -0.8540909251722402 -0.8947801245513972 -0.9264816767087293
          -0.9485358096073624 -0.9604355218197453 -0.9618367048565004 -0.9525645559057436 -0.9326173702339675 -0.9021673190180631
          -0.8615574760642026 -0.8112969384833785 -0.7520512808867803 -0.6846323845187421 -0.6099829876924273 -0.5291619778863237
          -0.4433241342389331 -0.3537019706555603 -0.2615821134973191 -0.16828503058593 -0.07513976403402522 -0.45626970551265705
          -0.5122871302743834 -0.5652607580259833 -0.6142088483235714 -0.6581882482091529 -0.6963095138453769 -0.7277531080412185
          -0.7517835250257435 -0.7677624372209314 -0.7751607072962083 -0.7735681823138733 -0.762702074690143 -0.7424131907010254
          -0.7126903900391318 -0.6736618374143161 -0.6255958789727535 -0.5688975044707566 -0.5041047187708854 -0.4318815826899567
          -0.35300852692779333 -0.2683735073441585 -0.178957574314583 -0.08582309730348642 0.00990362674905118 0.10704676586035773
          -0.28302184475336756 -0.31660423341015836 -0.348327055636411 -0.37757513792675734 -0.40374977845041543 -0.4262780595485028
          -0.4446228346087527 -0.45829184690718294 -0.4668463676501179 -0.4699092678532466 -0.46717234887861375 -0.4584025809370401
          -0.4434475385162835 -0.42223968480798924 -0.39479916750520916 -0.361236186436327 -0.32175080715369897 -0.2766330035889615
          -0.2262603693803529 -0.17109415204410222 -0.11167587669088182 -0.04862016480691328 0.017390972568923732 0.08561665612941663
          0.15526671493489727 -0.0592484349249449 -0.06618043794332289 -0.07272311121318367 -0.07874660685465547 -0.08412382013416521
          -0.08873242955963456 -0.09245693088552963 -0.09519059643763565 -0.09683735369915444 -0.09731354818190247 -0.09654957645912796
          -0.09449130280051445 -0.09110135175223527 -0.08636017110115439 -0.0802668279705587 -0.07283959283468688 -0.06411628832862147
          -0.054154220942862444 -0.04303012199049947 -0.030839560569559513 -0.017696184342971544 -0.003730687941046993 0.010910439418991209
          0.0260666231548686 0.041564715511169546 0.17507873264020385 0.19565845813526145 0.2150882796972683 0.23298563403276545
          0.24897674842929296 0.26270266598749537 0.2738251276603107 0.28203249660758595 0.28704508381206767 0.28862042970483764
          0.2865579028670577 0.2807027952391452 0.2709501190888877 0.2572474823430948 0.23959702120541856 0.21805751818898084
          0.1927444942430872 0.16383062996899272 0.1315448264598869 0.09617011839558222 0.05804180903794139 0.01754400803003734
          -0.02489477964665573 -0.06880560838497525 -0.11368477512106882 0.37819396502767605 0.4237183174319384 0.46674809128764244
          0.5064664156628018 0.542082068407693 0.5728431290236536 0.5980494735505484 0.6170650397911257 0.6293291000535676
          0.6343665521822184 0.6317969510170379 0.6213424909705298 0.6028339664767285 0.5762155338938758 0.5415481793684668
          0.49901033080639884 0.4488978395646716 0.39162145108686586 0.3277036051848022 0.2577716148585829 0.18255086297563855
          0.10285670619389749 0.0195828283091125 -0.06630938263536802 -0.15380395570989797 0.5136947396045128 0.5784164945668423
          0.6396278932946553 0.6962225274446703 0.7471468562860275 0.7914181616635496 0.8281427587975303 0.8565316238189536
          0.8759149717780996 0.8857545352151837 0.8856539500238784 0.8753664649665467 0.8548005071466414 0.8240219621853546
          0.7832550882404572 0.7328788943072085 0.6734231173736112 0.6055591555553073 0.5300912278787341 0.44794347927278966
          0.3601447055401197 0.26781396502285004 0.1721407197762278 0.07436811395530608 -0.024229142570727308 0.5573578776999
          0.6331636910839669 0.7047137421678678 0.7707594298189382 0.8301385209890914 0.8817972068193365 0.9248101061239571
          0.9583984637936906 0.9819442614047577 0.9950024336989782 0.9973094549606686 0.9887883035027473 0.9695500566083358
          0.9398920070369347 0.9002917619911661 0.8513987385165034 0.7940217978450256 0.7291135145438992 0.6577530092039784
          0.5811250454201701 0.5004981692038699 0.417199694583211 0.3325921484271336 0.24804706863936138 0.16491828624026117
          0.5025166878762162 0.5805739021507109 0.6537600389789666 0.7207811855227383 0.7804631811551123 0.8317749097494141
          0.8738496618773408 0.9060029676741851 0.9277461718611848 0.9387965519208998 0.9390828120234161 0.9287464103486487
          0.9081387475560866 0.8778133260084291 0.8385146447998846 0.7911623971813776 0.7368326348955415 0.6767354339101915
          0.6121895532799977 0.5445956450144466 0.4754071056743224 0.40609995415370786 0.33814247169538714 0.27296488383604095
          0.2119297883089188 0.36209049277938155 0.43515675755643873 0.5028421414447285 0.563845473614751 0.617008314859006
          0.6613387946848512 0.6960336954226122 0.7204950371843267 0.7343429242154558 0.7374241725502851 0.7298149377213026
          0.711819243136826 0.6839623882373088 0.6469802056350717 0.6018023281417648 0.549532743792972 0.49142631855464697
          0.42886174249896186 0.36331106936444546 0.2963096779533488 0.22942256816075204 0.16421002139207877 0.10219560822693095
          0.044832856821870194 -0.0065267289239675135 0.16555282173526523 0.2301596258251811 0.2891910900717573 0.34134529181051404
          0.38546922745756884 0.4205834570603062 0.4459041293857994 0.46085907882882526 0.4651010186459404 0.45851434338830277
          0.4412182665147984 0.41356369101701734 0.3761260394921667 0.329692599546012 0.2752453292692131 0.21393992600290024
          0.14708055513003299 0.07609196396828215 0.002487463599077979 -0.0721621150324578 -0.14626358427690395 -0.21823562609342667
          -0.2865430184089546 -0.34972993967590776 -0.40645142940302975 -0.04917674603155876 0.008263893732977465 0.06061409364048592
          0.10658020216359468 0.1450063486984579 0.17489918622841438 0.1954489638164496 0.20604697352021834 0.20629859679313897
          0.1960314021296111 0.17529928486589968 0.14438132928022507 0.10377597694735831 0.054189802189518646 -0.0034763772877674697
          -0.0681473177063341 -0.13859599887909427 -0.21346943178958563 -0.2913183697406256 -0.3706266388837075 -0.4498443125048073
          -0.5274201624818738 -0.6018355730650015 -0.6716353635818505 -0.7354596743561806 -0.2464734508505166 -0.19103049976492345
          -0.13924099763070946 -0.09236366157981131 -0.05154695330244108 -0.017805455562645456 0.008000777942060267 0.025184331177400827
          0.033244284839223925 0.031876788945622674 0.020981202523306 0.0006626595117599456 -0.028770384694656394 -0.06681179314548383
          -0.11276806988038827 -0.1657727556014737 -0.22480310050562194 -0.2887017806633042 -0.3561992808138381 -0.42594077347780984
          -0.4965124746069501 -0.566471519671075 -0.6343742825580249 -0.6988062055397769 -0.7584108294873363 -0.4022803375550563
          -0.34232916439892946 -0.2837002714507641 -0.2275866502249869 -0.17511167518359164 -0.12730733541671735 -0.08509551078298888
          -0.04926958971829739 -0.020480444444143826 0.0007765716853487792 0.014170143328843457 0.019539398475389665 0.016896745674186742
          0.006426943156110933 -0.011516365000126311 -0.036417887908840034 -0.06761117981517882 -0.10429124607723642 -0.14553049433823045
          -0.19029737645757958 -0.23747564617414377 -0.285886866833546 -0.3343129130707053 -0.3815204353043501 -0.42628429056974754
          -0.508196893964649 -0.4389818253833009 -0.36832714676901734 -0.2973455529601219 -0.22712686765080461 -0.15872024117813135
          -0.09311773330195326 -0.03123706572453683 0.026091529135113044 0.07813954657843802 0.12429079982606175 0.16405014893240694
          0.19705141636137347 0.22306159868552833 0.24198299787502353 0.2538538560175771 0.2588454049536124 0.25725770396212244
          0.249512442193897 0.23614377341359963 0.2177879829917456 0.195169860813596 0.1690894737383228 0.1404056511483234
          0.11002052988391 -0.56901789769194 -0.48976923530855493 -0.40661521751986496 -0.32059909371300443 -0.23278331756482978
          -0.14423722157063026 -0.05602094228147172 0.030826429883926292 0.11530226850772192 0.19645118558122557 0.27337898161623153
          0.34526173017120304 0.4113575831651591 0.47101356947180617 0.5236747355154435 0.5688882851906539 0.6063095879210301
          0.6357034627583907 0.6569468064871781 0.6700269655473614 0.6750409369440884 0.6721909406597184 0.6617803409761231
          0.6442066939978618 0.6199547203943508 -0.5953939658197611 -0.5097235465176095 -0.4186961058830707 -0.3233147526228565
          -0.22462940825306324 -0.12372306919358345 -0.021701984286722435 0.08031891465064069 0.18122605731388258 0.279921866098209
          0.3753345726413837 0.4664322619059008 0.5522320104587849 0.631812731269023 0.7043232245865347 0.7689930736783348
          0.8251401548893835 0.8721775295310245 0.909620769229796 0.9370918797663027 0.9543240686141229 0.9611636764613698
          0.9575719232453463 0.9436247984434633 0.9195117467667697 -0.5953939658197611 -0.5097235465176095 -0.4186961058830707
          -0.3233147526228565 -0.22462940825306324 -0.12372306919358345 -0.021701984286722435 0.08031891465064069 0.18122605731388258
          0.279921866098209 0.3753345726413837 0.4664322619059008 0.5522320104587849 0.631812731269023 0.7043232245865347
          0.7689930736783348 0.8251401548893835 0.8721775295310245 0.909620769229796 0.9370918797663027 0.9543240686141229
          0.9611636764613698 0.9575719232453463 0.9436247984434633 0.9195117467667697 -0.56901789769194 -0.48976923530855493
          -0.40661521751986496 -0.32059909371300443 -0.23278331756482978 -0.14423722157063026 -0.05602094228147172 0.030826429883926292
          0.11530226850772192 0.19645118558122557 0.27337898161623153 0.34526173017120304 0.4113575831651591 0.47101356947180617
          0.5236747355154435 0.5688882851906539 0.6063095879210301 0.6357034627583907 0.6569468064871781 0.6700269655473614
          0.6750409369440884 0.6721909406597184 0.6617803409761231 0.6442066939978618 0.6199547203943508 -0.508196893964649
          -0.4389818253833009 -0.36832714676901734 -0.2973455529601219 -0.22712686765080461 -0.15872024117813135 -0.09311773330195326
          -0.03123706572453683 0.026091529135113044 0.07813954657843802 0.12429079982606175 0.16405014893240694 0.19705141636137347
          0.22306159868552833 0.24198299787502353 0.2538538560175771 0.2588454049536124 0.25725770396212244 0.249512442193897
          0.23614377341359963 0.2177879829917456 0.195169860813596 0.1690894737383228 0.1404056511483234 0.11002052988391
          -0.4022803375550563 -0.34232916439892946 -0.2837002714507641 -0.2275866502249869 -0.17511167518359164 -0.12730733541671735
          -0.08509551078298888 -0.04926958971829739 -0.020480444444143826 0.0007765716853487792 0.014170143328843457 0.019539398475389665
          0.016896745674186742 0.006426943156110933 -0.011516365000126311 -0.036417887908840034 -0.06761117981517882 -0.10429124607723642
          -0.14553049433823045 -0.19029737645757958 -0.23747564617414377 -0.285886866833546 -0.3343129130707053 -0.3815204353043501
          -0.42628429056974754 -0.2464734508505166 -0.19103049976492345 -0.13924099763070946 -0.09236366157981131 -0.05154695330244108
          -0.017805455562645456 0.008000777942060267 0.025184331177400827 0.033244284839223925 0.031876788945622674 0.020981202523306
          0.0006626595117599456 -0.028770384694656394 -0.06681179314548383 -0.11276806988038827 -0.1657727556014737 -0.22480310050562194
          -0.2887017806633042 -0.3561992808138381 -0.42594077347780984 -0.4965124746069501 -0.566471519671075 -0.6343742825580249
          -0.6988062055397769 -0.7584108294873363 -0.04917674603155876 0.008263893732977465 0.06061409364048592 0.10658020216359468
          0.1450063486984579 0.17489918622841438 0.1954489638164496 0.20604697352021834 0.20629859679313897 0.1960314021296111
          0.17529928486589968 0.14438132928022507 0.10377597694735831 0.054189802189518646 -0.0034763772877674697 -0.0681473177063341
          -0.13859599887909427 -0.21346943178958563 -0.2913183697406256 -0.3706266388837075 -0.4498443125048073 -0.5274201624818738
          -0.6018355730650015 -0.6716353635818505 -0.7354596743561806 0.16555282173526523 0.2301596258251811 0.2891910900717573
          0.34134529181051404 0.38546922745756884 0.4205834570603062 0.4459041293857994 0.46085907882882526 0.4651010186459404
          0.45851434338830277 0.4412182665147984 0.41356369101701734 0.3761260394921667 0.329692599546012 0.2752453292692131
          0.21393992600290024 0.14708055513003299 0.07609196396828215 0.002487463599077979 -0.0721621150324578 -0.14626358427690395
          -0.21823562609342667 -0.2865430184089546 -0.34972993967590776 -0.40645142940302975 0.36209049277938155 0.43515675755643873
          0.5028421414447285 0.563845473614751 0.617008314859006 0.6613387946848512 0.6960336954226122 0.7204950371843267
          0.7343429242154558 0.7374241725502851 0.7298149377213026 0.711819243136826 0.6839623882373088 0.6469802056350717
          0.6018023281417648 0.549532743792972 0.49142631855464697 0.42886174249896186 0.36331106936444546 0.2963096779533488
          0.22942256816075204 0.16421002139207877 0.10219560822693095 0.044832856821870194 -0.0065267289239675135 0.5025166878762162
          0.5805739021507109 0.6537600389789666 0.7207811855227383 0.7804631811551123 0.8317749097494141 0.8738496618773408
          0.9060029676741851 0.9277461718611848 0.9387965519208998 0.9390828120234161 0.9287464103486487 0.9081387475560866
          0.8778133260084291 0.8385146447998846 0.7911623971813776 0.7368326348955415 0.6767354339101915 0.6121895532799977
          0.5445956450144466 0.4754071056743224 0.40609995415370786 0.33814247169538714 0.27296488383604095 0.2119297883089188
          0.5573578776999 0.6331636910839669 0.7047137421678678 0.7707594298189382 0.8301385209890914 0.8817972068193365
          0.9248101061239571 0.9583984637936906 0.9819442614047577 0.9950024336989782 0.9973094549606686 0.9887883035027473
          0.9695500566083358 0.9398920070369347 0.9002917619911661 0.8513987385165034 0.7940217978450256 0.7291135145438992
          0.6577530092039784 0.5811250454201701 0.5004981692038699 0.417199694583211 0.3325921484271336 0.24804706863936138
          0.16491828624026117 0.5136947396045128 0.5784164945668423 0.6396278932946553 0.6962225274446703 0.7471468562860275
          0.7914181616635496 0.8281427587975303 0.8565316238189536 0.8759149717780996 0.8857545352151837 0.8856539500238784
          0.8753664649665467 0.8548005071466414 0.8240219621853546 0.7832550882404572 0.7328788943072085 0.6734231173736112
          0.6055591555553073 0.5300912278787341 0.44794347927278966 0.3601447055401197 0.26781396502285004 0.1721407197762278
          0.07436811395530608 -0.024229142570727308 0.37819396502767605 0.4237183174319384 0.46674809128764244 0.5064664156628018
          0.542082068407693 0.5728431290236536 0.5980494735505484 0.6170650397911257 0.6293291000535676 0.6343665521822184
          0.6317969510170379 0.6213424909705298 0.6028339664767285 0.5762155338938758 0.5415481793684668 0.49901033080639884
          0.4488978395646716 0.39162145108686586 0.3277036051848022 0.2577716148585829 0.18255086297563855 0.10285670619389749
          0.0195828283091125 -0.06630938263536802 -0.15380395570989797 0.17507873264020385 0.19565845813526145 0.2150882796972683
          0.23298563403276545 0.24897674842929296 0.26270266598749537 0.2738251276603107 0.28203249660758595 0.28704508381206767
          0.28862042970483764 0.2865579028670577 0.2807027952391452 0.2709501190888877 0.2572474823430948 0.23959702120541856
          0.21805751818898084 0.1927444942430872 0.16383062996899272 0.1315448264598869 0.09617011839558222 0.05804180903794139
          0.01754400803003734 -0.02489477964665573 -0.06880560838497525 -0.11368477512106882 -0.0592484349249449 -0.06618043794332289
          -0.07272311121318367 -0.07874660685465547 -0.08412382013416521 -0.08873242955963456 -0.09245693088552963 -0.09519059643763565
          -0.09683735369915444 -0.09731354818190247 -0.09654957645912796 -0.09449130280051445 -0.09110135175223527 -0.08636017110115439
          -0.0802668279705587 -0.07283959283468688 -0.06411628832862147 -0.054154220942862444 -0.04303012199049947 -0.030839560569559513
          -0.017696184342971544 -0.003730687941046993 0.010910439418991209 0.0260666231548686 0.041564715511169546 -0.28302184475336756
          -0.31660423341015836 -0.348327055636411 -0.37757513792675734 -0.40374977845041543 -0.4262780595485028 -0.4446228346087527
          -0.45829184690718294 -0.4668463676501179 -0.4699092678532466 -0.46717234887861375 -0.4584025809370401 -0.4434475385162835
          -0.42223968480798924 -0.39479916750520916 -0.361236186436327 -0.32175080715369897 -0.2766330035889615 -0.2262603693803529
          -0.17109415204410222 -0.11167587669088182 -0.04862016480691328 0.017390972568923732 0.08561665612941663 0.15526671493489727
          -0.45626970551265705 -0.5122871302743834 -0.5652607580259833 -0.6142088483235714 -0.6581882482091529 -0.6963095138453769
          -0.7277531080412185 -0.7517835250257435 -0.7677624372209314 -0.7751607072962083 -0.7735681823138733 -0.762702074690143
          -0.7424131907010254 -0.7126903900391318 -0.6736618374143161 -0.6255958789727535 -0.5688975044707566 -0.5041047187708854
          -0.4318815826899567 -0.35300852692779333 -0.2683735073441585 -0.178957574314583 -0.08582309730348642 0.00990362674905118
          0.10704676586035773 -0.5478795365566665 -0.6192511896849714 -0.6867151485705669 -0.7490777949077658 -0.8052147818862107
          -0.8540909251722402 -0.8947801245513972 -0.9264816767087293 -0.9485358096073624 -0.9604355218197453 -0.9618367048565004
          -0.9525645559057436 -0.9326173702339675 -0.9021673190180631 -0.8615574760642026 -0.8112969384833785 -0.7520512808867803
          -0.6846323845187421 -0.6099829876924273 -0.5291619778863237 -0.4433241342389331 -0.3537019706555603 -0.2615821134973191
          -0.16828503058593 -0.07513976403402522 -0.5418936527862391 -0.6198876614808712 -0.6933084462064469 -0.7608767952778072
          -0.8214166455346232 -0.8738794390797636 -0.9173634478033269 -0.9511327856926217 -0.9746309286957499 -0.9874921737435064
          -0.9895487887753297 -0.9808339276569111 -0.961581009608479 -0.9322190970232219 -0.8933638352340701 -0.8458056364535002
          -0.7904932134201469 -0.7285153495441552 -0.6610784347609564 -0.5894829862232824 -0.5150975945478042 -0.43933096684188155
          -0.3636053748087404 -0.2893265747978611 -0.21785760817162922 -0.4414739898515351 -0.5177473781339255 -0.5888740773187442
          -0.6535546976743751 -0.7106228761761048 -0.7590688222173042 -0.7980613547141964 -0.826964852071171 -0.8453524936047194
          -0.8530154000367969 -0.8499667075342942 -0.8364417487498382 -0.8128921341948185 -0.7799767184634588 -0.7385474757918723
          -0.6896312854173074 -0.6344086452749048 -0.5741880623755838 -0.5103788389034675 -0.44446090702749635 -0.3779539147479171
          -0.31238485532160754 -0.24925591564269184 -0.19001224852477336 -0.13601263448471035 -0.2685413258969798 -0.3375164401883522
          -0.4009525074481463 -0.4575476997635109 -0.5061480673689159 -0.5457723699276396 -0.575633210036149 -0.5951546192541991
          -0.6039836361274628 -0.6019985160465059 -0.5893110686667219 -0.566264857026586 -0.5334265832084354 -0.4915754072020874
          -0.4416841762909726 -0.3849003111066187 -0.32252013152212394 -0.25595997203544835 -0.186727269876703 -0.11638713568338901
          -0.04652761127937462 0.02127289195938169 0.08548064447415649 0.1446405247141128 0.19740589477847248 -0.05805518271958346
          -0.11863115084277229 -0.1737670502562008 -0.2221625798961771 -0.2626631457362542 -0.2942845451018121 -0.3162344625677707
          -0.3279291053247475 -0.32900611051550727 -0.3193323011467316 -0.2990064193139891 -0.26835751649656436 -0.22793707556150047
          -0.17850747327848737 -0.12102641653426631 -0.05662482547012518 0.013416798032524114 0.0876951161590559 0.1647160402522708
          0.24292478501579498 0.3207412108840629 0.39659305835579706 0.46894898311569433 0.5363531826727805 0.5974558776755252
          0.15185876697136147 0.09621936891299716 0.04507717018148546 -0.0002877845255504338 -0.03872090971492908 -0.06921811980084706
          -0.09094660567603363 -0.10326211657229643 -0.10572305402313746 -0.09809956580809798 -0.08037850301690058 -0.052763863644165486
          -0.015672447478857245 0.03027401540433321 0.08426264199452578 0.14530586743785695 0.21226138020822022 0.2838568120837479
          0.3587159039865276 0.4353861718629395 0.5123709051363582 0.5881586771376226 0.6612560062179712 0.7302172918786145
          0.7936761211894754 0.3304572354276952 0.27353290027108484 0.21918809841994077 0.16865188544357926 0.12306207450976882
          0.08344246938031237 0.050682739923972264 0.02552053737255669 0.00852676315499262 0.00009440675882859561 0.0004305608978879668
          0.009552282989765735 0.02728630939164033 0.05327232066355374 0.08697004523548749 0.1276701633680123 0.174507975040166
          0.22648065025877712 0.28246737920272663 0.341251074045935 0.40154275119055394 0.46200738794472435 0.521289905043529
          0.5780424108950595 0.6309512192133198 0.4614144899719319 0.39721049409888287 0.3329595509067885 0.2698146703611027
          0.20888252991937442 0.15120355528088675 0.09773361234113857 0.04932714590432135 0.006722385684559374 -0.0294718666016348
          -0.058785836768366274 -0.08089702649798758 -0.09563500366527458 -0.10298376592323585 -0.10308106498488102 -0.09621464913541397
          -0.08281655474259075 -0.06345353303954587 -0.038816314029678285 -0.009705697253153763 0.02298355858463344 0.05827928072322416
          0.09515179290749173 0.13253290019371353 0.16933695719759803 0.5436117578432356 0.4691867174265718 0.39200385752291106
          0.3131377128900026 0.23366341530963444 0.15464023218501718 0.07709520012227063 0.0020096260102317456 -0.06969569989220624
          -0.13717408473819376 -0.19966332156477573 -0.25649667627115963 -0.3071119323253227 -0.3510571837010825 -0.3879970955426398
          -0.4177151883478038 -0.44011535397270307 -0.4552217601026401 -0.46317521539338835 -0.46422952145191665 -0.45874489712201494
          -0.447180159959687 -0.430083151724921 -0.4080802129688946 -0.38186381453382756 0.5858594899668452 0.5027162099445688
          0.4147785140927439 0.3230650010070051 0.22863006079834763 0.13255122704456546 0.035916281686886854 -0.06018993190692745
          -0.15469719400364637 -0.24656409583403718 -0.3347890185872004 -0.418421932569905 -0.49657517102859805 -0.5684334265914199
          -0.6332627258087865 -0.6904183819666159 -0.739351721694548 -0.7796157095927534 -0.8108691576680827 -0.8328796635098996
          -0.8455251974982855 -0.8487942295650577 -0.8427846859870152 -0.8277013900205883 -0.8038523267765285
        </DataArray>
      </PointData>
      <CellData>
        <DataArray type="Float64" Name="elementMarker" format="ascii" RangeMin="-0.9791588281128605" RangeMax="0.9770361468601823">
          0.5335007742543859 0.5654194189741818 0.4488454134013479 0.47647378229635223 0.35367600736647864 0.3859313747839956
          0.25824312421787793 0.2897612729516577 0.15868382389620997 0.19473853289706475 0.0616864669869334 0.08986968435656557
          -0.03724522334510347 -0.011651281966345016 -0.14424242473831703 -0.1007830485752812 -0.2309563903838455 -0.2122910452378447
          -0.32361317824168284 -0.30921946581723364 -0.43035040101954974 -0.38089912382030544 -0.4955194741136156 -0.49104203383239403
          -0.5729307217756663 -0.5739733524926408 -0.6719882447496591 -0.618493240035729 -0.7066106963267561 -0.7194440492489543