<?xml version="1.0"?>
<!--
SPDX-FileCopyrightInfo: Copyright © DuMux Project contributors, see AUTHORS.md in root folder
SPDX-License-Identifier: CC-BY-4.0
-->

<VTKFile type="UnstructuredGrid" version="0.1" byte_order="LittleEndian">
  <UnstructuredGrid>
    <Piece NumberOfCells="5055" NumberOfPoints="5069">
      <PointData Scalars="S_aq">
        <DataArray type="Float32" Name="S_aq" NumberOfComponents="1" format="ascii">
          1 1 1 1 1 1 1 1 1 1 1 1
          1 1 1 1 1 1 1 1 1 1 1 1
          1 1 1 1 1 1 1 1 1 1 1 1
          1 1 1 1 1 1 1 1 1 1 1 1
          1 1 1 1 1 1 1 1 1 1 1 1
          1 1 1 1 1 1 1 1 1 1 1 1
          1 1 1 1 1 1 1 1 1 1 1 1
          1 1 1 1 1 1 1 1 1 1 1 1
          1 1 1 1 1 1 1 1 1 1 1 1
          1 1 1 1 1 1 1 1 1 1 1 1
          1 1 1 1 1 1 1 1 1 1 1 1
          1 1 1 1 1 1 1 1 1 1 1 1
          1 1 1 1 1 1 1 1 1 1 1 1
          1 1 1 1 1 1 1 1 1 1 1 1
          1 1 1 1 1 1 1 1 1 1 1 1
          1 1 1 1 1 1 1 1 1 1 1 1
          1 1 1 1 1 1 1 1 1 1 1 1
          1 1 1 1 1 1 1 1 1 1 1 1
          1 1 1 1 1 1 1 1 1 1 1 1
          1 1 1 1 1 1 1 1 1 1 1 1
          1 1 1 1 1 1 1 1 1 1 1 1
          1 1 1 1 1 1 1 1 1 1 1 1
          1 1 1 1 1 1 1 1 1 1 1 1
          1 1 1 1 1 1 1 1 1 1 1 1
          1 1 1 1 1 1 1 1 1 1 1 1
          1 1 1 1 1 1 1 1 1 1 1 1
          1 1 1 1 1 1 1 1 1 1 1 1
          1 1 1 1 1 1 1 1 1 1 1 1
          1 1 1 1 1 1 1 1 1 1 1 1
          1 1 1 1 1 1 1 1 1 1 1 1
          1 1 1 1 1 1 1 1 1 1 1 1
          1 1 1 1 1 1 1 1 1 1 1 1
          1 1 1 1 1 1 1 1 1 1 1 1
          1 1 1 1 1 1 1 1 1 1 1 1
          1 1 1 1 1 1 1 1 1 1 1 1
          1 1 1 1 1 1 1 1 1 1 1 1
          1 1 1 1 1 1 1 1 1 1 1 1
          1 1 1 1 1 1 1 1 1 1 1 1
          1 1 1 1 1 1 1 1 1 1 1 1
          1 1 1 1 1 1 1 1 1 1 1 1
          1 1 1 1 1 1 1 1 1 1 1 1
          1 1 1 1 1 1 1 1 1 1 1 1
          1 1 1 1 1 1 1 1 1 1 1 1
          1 1 1 1 1 1 1 1 1 1 1 1
          1 1 1 1 1 1 1 1 1 1 1 1
          1 1 1 1 1 1 1 1 1 1 1 1
          1 1 1 1 1 1 1 1 1 1 1 1
          1 1 1 1 1 1 1 1 1 1 1 1
          1 1 1 1 1 1 1 1 1 1 1 1
          1 1 1 1 1 1 1 1 1 1 1 1
          1 1 1 1 1 1 1 1 1 1 1 1
          1 1 1 1 1 1 1 1 1 1 1 1
          1 1 1 1 1 1 1 1 1 1 1 1
          1 1 1 1 1 1 1 1 1 1 1 1
          1 1 1 1 1 1 1 1 1 1 1 1
          1 1 1 1 1 1 1 1 1 1 1 1
          1 1 1 1 1 1 1 1 1 1 1 1
          1 1 1 1 1 1 1 1 1 1 1 1
          1 1 1 1 1 1 1 1 1 1 1 1
          1 1 1 1 1 1 1 1 1 1 1 1
          1 1 1 1 1 1 1 1 1 1 1 1
          1 1 1 1 1 1 1 1 1 1 1 1
          1 1 1 1 1 1 1 1 1 1 1 1
          1 1 1 1 1 1 1 1 1 1 1 1
          1 1 1 1 1 1 1 1 1 1 1 1
          1 1 1 1 1 1 1 1 1 1 1 1
          1 1 1 1 1 1 1 1 1 1 1 1
          1 1 1 1 1 1 1 1 1 1 1 1
          1 1 1 1 1 1 1 1 1 1 1 1
          1 1 1 1 1 1 1 1 1 1 1 1
          1 1 1 1 1 1 1 1 1 1 1 1
          1 1 1 1 1 1 1 1 1 1 1 1
          1 1 1 1 1 1 1 1 1 1 1 1
          1 1 1 1 1 1 1 1 1 1 1 1
          1 1 1 1 1 1 1 1 1 1 1 1
          1 1 1 1 1 1 1 1 1 1 1 1
          1 1 1 1 1 1 1 1 1 1 1 1
          1 1 1 1 1 1 1 1 1 1 1 1
          1 1 1 1 1 1 1 1 1 1 1 1
          1 1 1 1 1 1 1 1 1 1 1 1
          1 1 1 1 1 1 1 1 1 1 1 1
          1 1 1 1 1 1 1 1 1 1 1 1
          1 1 1 1 1 1 1 1 1 1 1 1
          1 1 1 1 1 1 1 1 1 1 1 1
          1 1 1 1 1 1 1 1 1 1 1 1
          1 1 1 1 1 1 1 1 1 1 1 1
          1 1 1 1 1 1 1 1 1 1 1 1
          1 1 1 1 1 1 1 1 1 1 1 1
          1 1 1 1 1 1 1 1 1 1 1 1
          1 1 1 1 1 1 1 1 1 1 1 1
          1 1 1 1 1 1 1 1 1 1 1 1
          1 1 1 1 1 1 1 1 1 1 1 1
          1 1 1 1 1 1 1 1 1 1 1 1
          1 1 1 1 1 1 1 1 1 1 1 1
          1 1 1 1 1 1 1 1 1 1 1 1
          1 1 1 1 1 1 1 1 1 1 1 1
          1 1 1 1 1 1 1 1 1 1 1 1
          1 1 1 1 1 1 1 1 1 1 1 1
          1 1 1 1 1 1 1 1 1 1 1 1
          1 1 1 1 1 1 1 1 1 1 1 1
          1 1 1 1 1 1 1 1 1 1 1 1
          1 1 1 1 1 1 1 1 1 0.939481 0.939481 0.939476
          0.939476 0.939469 0.939469 0.939476 0.939469 1 1 1 1 1 1 1
          1 1 1 1 1 1 1 1 1 1 1 1
          1 1 1 1 1 1 1 1 1 1 1 1
          1 1 1 0.98368 0.966791 0.983788 0.966059 0.992748 0.993739 0.950487 0.943337 0.948183
          0.941994 0.940719 0.939857 0.940171 0.939664 0.939588 0.93951 0.939525 0.939491 0.939496 0.939491 0.939491
          0.939487 0.939483 0.939482 0.93949 0.939486 0.93949 0.939486 0.939492 0.939486 0.939498 0.939493 0.939482
          0.939485 0.939567 0.940138 0.939529 0.939934 0.943077 0.952928 0.942629 0.954062 0.967836 0.97986 0.970874
          0.983425 0.994315 0.984542 0.96958 0.980231 0.967615 0.987927 0.966203 0.99557 0.952799 0.950065 0.944234
          0.942701 0.941518 0.940411 0.942093 0.940516 0.939887 0.939827 0.939601 0.940435 0.946731 0.942657 0.940274
          0.939889 0.939672 0.939675 0.939562 0.939516 0.939546 0.939502 0.939483 0.939476 0.93947 0.939489 0.939648
          0.939523 0.939525 0.939493 0.939483 0.939476 0.939472 0.939468 0.939467 0.939559 0.939513 0.939627 0.939483
          0.939473 0.939489 0.939544 0.939473 0.939495 0.939467 0.940316 0.940011 0.941314 0.946183 0.945089 0.958731
          0.940594 0.943832 0.960195 0.941559 0.963024 0.939945 0.939796 0.939601 0.975788 0.987128 0.983669 0.99167
          0.972836 1 0.999999 0.999999 0.999994 0.999999 0.999997 0.999994 0.999981 0.999966 0.99998 0.999963
          0.999937 0.999874 0.999812 0.999925 0.999995 0.999978 0.999991 0.999997 0.99999 0.999997 0.99999 0.999952
          0.999953 0.999997 0.99999 0.999999 0.999994 0.999955 0.99997 0.999913 0.999917 0.999944 0.999779 0.99985
          0.999762 0.99991 0.999745 0.999999 0.999997 0.999985 0.999996 1 1 0.999986 0.999998 0.999992
          0.999998 0.999956 0.999971 0.99992 1 1 1 1 1 1 1 1
          1 1 1 1 1 0.999948 0.999933 0.999959 1 1 0.99997 0.999978
          1 1 1 1 1 1 1 1 1 1 0.999999 0.999884
          0.999865 0.999901 1 0.999918 1 1 0.999999 0.999999 1 1 0.999997 0.999997
          0.999996 0.999994 0.999991 0.999801 0.999777 0.999823 0.999998 0.999846 1 1 0.999994 0.999994
          1 1 0.999992 0.999992 0.999984 0.999981 0.999979 0.999709 0.99969 0.999731 0.999987 0.999754
          1 1 0.99999 0.999991 1 1 0.999989 0.999991 0.999976 0.999975 0.999975 0.999647
          0.999644 0.999659 0.999976 0.999671 1 1 0.999989 0.999991 1 1 0.99999 0.999992
          0.999976 0.999976 0.999979 0.999655 0.999675 0.999648 0.999975 0.999641 1 1 0.999992 0.999994
          1 1 0.999994 0.999997 0.999984 0.999987 0.999991 0.999752 0.999786 0.999723 0.999981 0.999694
          1 1 0.999997 0.999999 1 1 0.999999 1 0.999996 0.999998 0.999999 0.999885
          0.999911 0.999852 0.999994 0.999819 1 1 1 1 1 1 1 1
          1 1 1 0.999968 0.999977 0.999952 1 0.999936 1 1 1 1
          1 1 1 1 0.999979 0.999999 0.999946 0.999999 0.999998 0.999913 0.999993 0.999838
          0.999998 1 1 0.999958 0.999872 0.999893 0.999712 0.999786 0.999678 0.99953 0.999333 0.999551
          0.999274 0.998945 0.998771 0.998258 0.999228 0.999828 0.999683 0.99955 0.999586 0.999095 0.999178 0.999622
          0.999747 0.999269 0.999502 0.998682 0.998853 0.999223 0.998194 0.998756 0.997891 0.998541 0.997665 0.999865
          0.999926 0.999726 0.999846 0.999986 0.999993 0.999961 0.99998 0.99976 0.999936 0.999968 0.999873 0.999934
          0.999597 0.999573 0.999298 1 1 0.999999 1 1 1 0.999999 1 1
          0.999997 0.999998 0.999993 1 1 1 0.999999 0.999997 1 1 1 1
          0.999993 0.999979 0.999991 0.999984 0.999958 0.999785 0.999614 0.999864 0.999999 0.999998 0.999942 0.999967
          1 1 1 0.999999 0.999966 0.999935 0.999999 0.999998 0.999999 0.999995 0.999904 0.999851
          0.999869 0.999807 0.999703 0.998854 0.998438 0.999149 0.999931 0.999443 0.999997 0.999991 0.999993 0.999981
          0.999798 0.999724 0.999987 0.999972 0.999956 0.99965 0.999554 0.99945 0.9993 0.99911 0.997009 0.996452
          0.997515 0.999597 0.99802 0.99994 0.999917 0.999459 0.99934 0.999894 0.999864 0.999221 0.999079 0.998681
          0.998443 0.998167 0.994728 0.994119 0.995311 0.998917 0.995899 0.999834 0.9998 0.998937 0.998783 0.999765
          0.999726 0.998629 0.99847 0.997596 0.997305 0.99701 0.992268 0.99164 0.992894 0.99789 0.99351 0.999687
          0.999642 0.99831 0.998144 0.999597 0.999551 0.997978 0.997816 0.996422 0.996128 0.995844 0.989747 0.989138
          0.990377 0.996717 0.991004 0.999504 0.99946 0.997653 0.9975 0.999415 0.999376 0.997348 0.997214 0.995296
          0.995032 0.994802 0.987385 0.986888 0.987956 0.99556 0.988527 0.999337 0.999312 0.997082 0.996991 0.999287
          0.99928 0.996902 0.996874 0.994415 0.994258 0.994208 0.985706 0.985589 0.986045 0.994573 0.986394 0.999273
          0.999288 0.996848 0.996898 0.999302 0.999343 0.996949 0.997084 0.994246 0.994334 0.994566 0.985856 0.986346
          0.985663 0.994161 0.985488 0.999383 0.999442 0.997221 0.997429 0.999501 0.999569 0.997638 0.997892 0.99516
          0.995524 0.995972 0.98841 0.989383 0.987626 0.994801 0.986853 0.999636 0.999703 0.998147 0.998411 0.999768
          0.99982 0.998674 0.998902 0.996904 0.997389 0.997824 0.992432 0.993374 0.991401 0.996425 0.990355 0.999871
          0.999903 0.999128 0.99929 0.999936 0.999954 0.999451 0.999555 0.998582 0.9989 0.999111 0.995836 0.996437
          0.995068 0.998259 0.994301 0.999987 0.999972 0.999993 0.999981 0.999659 0.999729 0.999997 0.999991 0.999999
          0.999995 0.999798 0.999846 0.999458 0.999595 0.999691 0.997996 0.998377 0.997519 0.999317 0.99704 0.999999
          0.999998 1 0.999999 0.999894 0.999923 1 1 1 0.999953 0.999966 0.999846 0.999906
          0.999938 0.999308 0.999489 0.999032 0.999786 0.998754 0.999996 0.999987 0.999974 0.999987 0.999763 0.999968
          0.999627 0.999959 0.999948 0.99949 0.999792 0.999207 0.999731 0.99997 0.999669 0.999538 0.998903 0.999284
          0.998382 0.998264 0.997472 0.997475 0.996379 0.997856 0.996678 0.995171 0.995604 0.993701 0.997112 0.999027
          0.998612 0.996646 0.996972 0.995331 0.995805 0.997447 0.998229 0.996509 0.997545 0.994514 0.995502 0.996817
          0.994385 0.996014 0.993025 0.993826 0.992003 0.998989 0.999422 0.998562 0.999168 0.999807 0.9999 0.999693
          0.999838 0.998897 0.999574 0.999775 0.999419 0.999691 0.998578 0.998102 0.997579 0.999987 0.999994 0.999972
          0.999986 1 1 1 0.999979 1 1 0.999999 1 0.999966 0.999957 0.999931
          1 1 1 1 1 1 1 0.999999 0.999988 0.999999 0.999998 0.999977
          0.999962 0.999819 0.99998 1 0.999999 1 1 1 0.999997 0.999992 0.999977 0.999902
          0.999993 0.999984 0.999935 0.999826 0.999557 0.99981 0.999663 0.999157 0.998515 0.997069 0.999103 0.999955
          0.999676 0.999885 0.999733 0.999287 0.998678 0.999577 0.999245 0.998059 0.99704 0.997489 0.996352 0.994641
          0.990633 0.987102 0.993189 0.998625 0.99561 0.998901 0.998331 0.996023 0.994678 0.997753 0.996985 0.99334
          0.991719 0.990581 0.988142 0.985351 0.975082 0.970704 0.979289 0.992924 0.983458 0.996227 0.995355 0.990029
          0.988184 0.994489 0.993554 0.986305 0.984387 0.979588 0.976621 0.973691 0.957663 0.953596 0.961976 0.982532
          0.966296 0.992601 0.991563 0.982461 0.980586 0.990496 0.989401 0.978717 0.97692 0.967961 0.965175 0.962563
          0.942178 0.938823 0.945847 0.970758 0.949566 0.988297 0.987205 0.97512 0.97341 0.986112 0.985054 0.971701
          0.970084 0.957548 0.95515 0.952911 0.929514 0.926768 0.93249 0.959966 0.935516 0.983996 0.982971 0.968469
          0.966936 0.981944 0.980961 0.965406 0.96396 0.948604 0.946535 0.944593 0.919061 0.916741 0.921544 0.950691
          0.924064 0.979978 0.979065 0.962522 0.961196 0.978155 0.977367 0.959885 0.958751 0.940907 0.939174 0.937671
          0.910334 0.908557 0.91237 0.942672 0.914462 0.976589 0.976032 0.957646 0.956837 0.975496 0.975298 0.956078
          0.95576 0.935137 0.93414 0.933672 0.904393 0.903779 0.905564 0.936222 0.906865 0.975132 0.975387 0.955516
          0.95582 0.975681 0.976426 0.956216 0.957208 0.933649 0.934123 0.935322 0.904095 0.905357 0.903609 0.933332
          0.903347 0.977212 0.97842 0.958298 0.959971 0.97966 0.981222 0.961734 0.963985 0.938796 0.941069 0.943995
          0.911763 0.915103 0.909188 0.936693 0.906868 0.982801 0.984535 0.9663 0.96892 0.986274 0.987959 0.971566
          0.974259 0.950603 0.954232 0.958045 0.927221 0.931938 0.922863 0.947065 0.918676 0.989628 0.991046 0.976937
          0.979409 0.992422 0.993473 0.981856 0.983999 0.965576 0.969237 0.972557 0.946404 0.950995 0.941576 0.96188
          0.936744 0.994491 0.99532 0.986108 0.987933 0.99615 0.996842 0.989711 0.99126 0.978747 0.981622 0.984235
          0.964034 0.968125 0.959809 0.975819 0.955531 0.99754 0.998083 0.992757 0.993994 0.998623 0.998988 0.995217
          0.996208 0.989104 0.991339 0.993127 0.97994 0.983487 0.976082 0.986813 0.972173 0.999343 0.99949 0.997205
          0.997849 0.99963 0.998917 0.998481 0.997897 0.995976 0.997149 0.996753 0.992305 0.99288 0.989705 0.994803
          0.986953 0.998189 0.996358 0.99728 0.99522 0.994526 0.992052 0.99315 0.989956 0.994036 0.991709 0.98746
          0.989371 0.98437 0.991411 0.996297 0.993352 0.989911 0.991397 0.987642 0.989591 0.993234 0.995209 0.992029
          0.994405 0.987786 0.990797 0.993641 0.98958 0.992938 0.986 0.985304 0.982841 0.997051 0.998251 0.996528
          0.99792 0.999258 0.999607 0.999089 0.999515 0.9976 0.998919 0.999425 0.998771 0.999347 0.997319 0.996034
          0.995598 0.999905 0.999953 0.999873 0.999936 0.999998 0.999999 0.999996 0.999999 0.999919 0.999994 0.999998
          0.999991 0.999998 0.999904 0.99984 0.999811 1 1 1 1 1 0.999999 0.999999
          0.999977 0.999999 0.999997 0.999955 0.999954 0.999764 0.999976 1 0.999999 1 0.999997 0.999961
          0.999955 0.999771 0.999925 0.999659 0.999585 0.998731 0.999579 0.999229 0.997731 0.997619 0.994587 0.998627
          0.999914 0.999572 0.999385 0.998337 0.997833 0.995416 0.997234 0.994829 0.992981 0.988212 0.992356 0.988123
          0.980585 0.976723 0.965184 0.984312 0.996154 0.9914 0.992405 0.988212 0.983148 0.97606 0.983832 0.978262
          0.968786 0.960521 0.962328 0.951751 0.94046 0.924788 0.910314 0.939061 0.972666 0.953181 0.972569 0.966378
          0.952162 0.943757 0.960142 0.953944 0.935397 0.927471 0.9183 0.907587 0.897728 0.869989 0.858476 0.882748
          0.929195 0.896033 0.947782 0.941952 0.919671 0.912493 0.936209 0.930925 0.905508 0.899219 0.879725 0.871583
          0.864363 0.828557 0.820453 0.837776 0.888227 0.847504 0.925751 0.921062 0.89315 0.887744 0.916483 0.912352
          0.882552 0.87792 0.851416 0.84564 0.840525 0.799764 0.79419 0.806098 0.857484 0.8128 0.908325 0.904685
          0.873452 0.869445 0.901142 0.897903 0.86558 0.862067 0.831283 0.827115 0.823347 0.779782 0.775791 0.784231
          0.835636 0.788904 0.894743 0.891824 0.858665 0.855536 0.888974 0.886328 0.852497 0.849684 0.816403 0.813198
          0.810242 0.765167 0.762115 0.768501 0.819722 0.771971 0.883747 0.88138 0.846954 0.844453 0.879092 0.877087
          0.842047 0.83993 0.804775 0.802275 0.800073 0.753985 0.75177 0.75652 0.807387 0.759182 0.875193 0.873708
          0.837945 0.836363 0.872387 0.871638 0.83497 0.834132 0.796371 0.794928 0.794035 0.746679 0.745831 0.748087
          0.798019 0.749718 0.871114 0.871303 0.833549 0.833663 0.871769 0.873045 0.834091 0.83532 0.793491 0.793906
          0.795125 0.745956 0.747306 0.745435 0.793416 0.745278 0.874634 0.877086 0.836907 0.839363 0.879871 0.88351
          0.842205 0.845933 0.799226 0.802143 0.805981 0.754895 0.758995 0.751756 0.796734 0.749074 0.887471 0.892187
          0.85005 0.854989 0.89718 0.902704 0.860282 0.866216 0.815417 0.820994 0.827309 0.775075 0.781882 0.769094
          0.810256 0.76357 0.908411 0.914307 0.872411 0.878931 0.920262 0.926087 0.885578 0.892236 0.841039 0.848312
          0.855689 0.80471 0.812781 0.796776 0.833956 0.789068 0.931896 0.937553 0.898932 0.905617 0.943207 0.948901
          0.912363 0.919398 0.870719 0.878435 0.886673 0.837794 0.846994 0.829276 0.863153 0.820962 0.954624 0.960426
          0.926565 0.93418 0.96622 0.971781 0.941928 0.949823 0.904617 0.914351 0.924609 0.878747 0.890988 0.867419
          0.895232 0.856645 0.977233 0.981872 0.957687 0.965012 0.986315 0.988231 0.97207 0.976672 0.945225 0.955262
          0.963049 0.92935 0.940749 0.916514 0.935009 0.903628 0.989928 0.988466 0.980848 0.981492 0.986879 0.980807
          0.981798 0.976574 0.973523 0.976144 0.97225 0.966086 0.967707 0.959268 0.970229 0.951594 0.980333 0.9843
          0.977806 0.98273 0.988494 0.992308 0.98761 0.991802 0.981455 0.986992 0.991444 0.986768 0.99134 0.980591
          0.975504 0.973569 0.995219 0.997069 0.994945 0.996896 0.998634 0.999272 0.998548 0.999229 0.996774 0.998484
          0.999192 0.998501 0.999204 0.996777 0.994762 0.994752 0.999783 0.999889 0.999768 0.999882 0.999989 0.999996
          0.999988 0.999996 0.999875 0.999987 0.999996 0.999988 0.999997 0.999879 0.999755 0.999762 0.999999 0.999997
          0.999954 0.999994 0.999912 0.999998 0.999911 0.999572 0.999829 0.999255 0.99987 0.999747 0.998937 0.999739
          0.998836 0.999867 0.999997 0.999991 0.999991 0.999998 0.999223 0.997663 0.998649 0.996329 0.996 0.991406
          0.993918 0.98745 0.995019 0.991788 0.983298 0.988709 0.976065 0.993923 0.998066 0.99756 0.986264 0.975998
          0.980326 0.967095 0.96508 0.949492 0.952753 0.933282 0.956238 0.936339 0.910178 0.897566 0.857348 0.931216
          0.973642 0.958241 0.933375 0.91524 0.9128 0.890522 0.897007 0.879331 0.868479 0.847436 0.853635 0.825348
          0.798783 0.727903 0.686705 0.77107 0.882513 0.814759 0.862219 0.846591 0.827315 0.809126 0.831721 0.81846
          0.792037 0.776903 0.751693 0.73133 0.713557 0.58455 0.558717 0.614544 0.773885 0.648582 0.805931 0.794895
          0.762745 0.750328 0.784497 0.775412 0.738713 0.728608 0.683192 0.670233 0.659086 0.501214 0.487439 0.517499
          0.697275 0.536413 0.766875 0.759435 0.719149 0.710937 0.752431 0.7463 0.703227 0.696513 0.639887 0.63161
          0.624494 0.456389 0.448745 0.465317 0.648756 0.475482 0.740516 0.735433 0.690201 0.684686 0.730612 0.726322
          0.679469 0.674868 0.612066 0.606638 0.601923 0.430897 0.426376 0.436122 0.617823 0.441964 0.722233 0.718553
          0.670498 0.666612 0.715032 0.711843 0.662911 0.659613 0.593565 0.58987 0.586659 0.415639 0.412937 0.418797
          0.59746 0.422312 0.708795 0.70606 0.656479 0.65373 0.703474 0.701247 0.651152 0.649008 0.581051 0.578656
          0.576771 0.406842 0.405568 0.408549 0.583624 0.410534 0.699205 0.697622 0.647071 0.645674 0.696286 0.695551
          0.644545 0.644113 0.574034 0.573234 0.573218 0.403959 0.404432 0.404103 0.575092 0.404585 0.695138 0.695485
          0.644025 0.644804 0.696227 0.697858 0.645999 0.648192 0.574802 0.576467 0.579226 0.409145 0.412213 0.406973
          0.573528 0.405322 0.699938 0.702997 0.65085 0.654581 0.706542 0.711119 0.658806 0.664136 0.58678 0.59161
          0.597617 0.426185 0.43286 0.42066 0.582425 0.415928 0.716198 0.722306 0.669974 0.676901 0.7289 0.736413
          0.684328 0.692738 0.611821 0.620051 0.629393 0.459659 0.471373 0.449479 0.604132 0.440512 0.744334 0.752851
          0.701585 0.711078 0.761612 0.770522 0.720858 0.730777 0.65002 0.661247 0.672803 0.516044 0.534138 0.499488
          0.639292 0.484591 0.779551 0.788721 0.740864 0.751068 0.798134 0.808353 0.761579 0.772958 0.697048 0.70982
          0.723576 0.596557 0.619561 0.574582 0.684783 0.553735 0.819128 0.831264 0.784984 0.798494 0.84412 0.858178
          0.812843 0.828535 0.754073 0.770958 0.789217 0.692965 0.718671 0.667874 0.738069 0.643335 0.872831 0.888112
          0.844978 0.862272 0.90363 0.918461 0.880018 0.897788 0.828395 0.849099 0.870403 0.797987 0.824922 0.77129
          0.808317 0.74481 0.932913 0.944909 0.915534 0.931885 0.956082 0.963947 0.947699 0.961138 0.913701 0.936069
          0.958512 0.911782 0.955956 0.880277 0.892085 0.852176 0.972474 0.980433 0.972564 0.981284 0.987019 0.991505
          0.987997 0.992141 0.983022 0.989443 0.993009 0.991692 0.994437 0.986352 0.973821 0.97749 0.994887 0.996861
          0.995332 0.997165 0.998551 0.999226 0.998727 0.999319 0.997537 0.998922 0.999417 0.999212 0.999568 0.998136
          0.99592 0.996863 0.999771 0.999884 0.999805 0.999901 0.999989 0.999996 0.999991 0.999997 0.999918 0.999994
          0.999998 0.999996 0.999999 0.999941 0.999839 0.999884 0.999997 0.999991 0.999869 0.999994 0.999908 0.999998
          0.999748 0.99897 0.999823 0.999236 0.999947 0.999897 0.999494 0.999932 0.999617 0.999962 0.999999 0.999997
          0.999999 1 0.998063 0.995688 0.998591 0.996704 0.993229 0.988149 0.994744 0.991036 0.997643 0.996084
          0.993136 0.996832 0.99424 0.998137 0.999066 0.999293 0.982534 0.973733 0.98689 0.980368 0.964451 0.953133
          0.973867 0.96622 0.984268 0.978641 0.972052 0.981057 0.974915 0.986309 0.989855 0.991429 0.941173 0.928456
          0.958639 0.951263 0.914969 0.900754 0.944148 0.937625 0.959419 0.953656 0.948637 0.957885 0.953398 0.963168
          0.965541 0.968811 0.885565 0.869587 0.931401 0.925654 0.852503 0.834522 0.920103 0.914871 0.940156 0.936641
          0.933639 0.943162 0.940797 0.946061 0.944073 0.949389 0.815623 0.796201 0.90973 0.904779 0.776484 0.756946
          0.899864 0.895089 0.928654 0.926584 0.924782 0.935741 0.934613 0.937134 0.930955 0.938771 0.737832 0.719497
          0.890319 0.885639 0.70209 0.685818 0.880963 0.876367 0.921668 0.920301 0.919057 0.932153 0.931562 0.93285
          0.923134 0.933646 0.670715 0.656865 0.871798 0.867326 0.64422 0.632794 0.862923 0.85866 0.916782 0.915733
          0.914756 0.930129 0.929741 0.930561 0.917877 0.931029 0.622503 0.613339 0.854529 0.850607 0.605215 0.598131
          0.846901 0.8435 0.912962 0.912156 0.911449 0.928764 0.928523 0.929059 0.913821 0.929379 0.592018 0.586903
          0.840424 0.837784 0.582744 0.579621 0.835617 0.834075 0.910343 0.910001 0.909914 0.928195 0.928367 0.928216
          0.910821 0.928322 0.577522 0.576594 0.83321 0.833228 0.576863 0.578549 0.834176 0.836286 0.910661 0.911649
          0.91327 0.930524 0.932172 0.929455 0.910072 0.928726 0.581706 0.586608 0.839548 0.844136 0.593322 0.602122
          0.849908 0.856882 0.918313 0.921733 0.925779 0.940381 0.944231 0.9371 0.915424 0.934294 0.613048 0.626289
          0.864745 0.873326 0.641802 0.659599 0.882218 0.891165 0.93486 0.9396 0.944282 0.957183 0.9615 0.952767
          0.930165 0.948371 0.679458 0.70112 0.899835 0.908017 0.724126 0.748009 0.915539 0.922356 0.952928 0.956787
          0.960181 0.972833 0.975752 0.969373 0.948769 0.965626 0.772131 0.795747 0.928512 0.933914 0.818094 0.83845
          0.938698 0.942748 0.96587 0.968208 0.970085 0.982176 0.983486 0.980418 0.96328 0.978387 0.856428 0.871818
          0.946296 0.949265 0.884839 0.895882 0.951905 0.954308 0.973128 0.974373 0.975494 0.986158 0.986808 0.98543
          0.97178 0.984593 0.905353 0.913749 0.956577 0.958894 0.921321 0.928426 0.961209 0.963633 0.977746 0.978931
          0.980199 0.988699 0.989392 0.988054 0.976594 0.987416 0.935123 0.941559 0.966106 0.968683 0.947793 0.954044
          0.971351 0.974245 0.982915 0.984378 0.986001 0.991657 0.992519 0.990874 0.981518 0.99011 0.960327 0.966826
          0.977319 0.980689 0.973653 0.979989 0.98432 0.987717 0.989691 0.991778 0.993629 0.995566 0.996614 0.994453
          0.987739 0.993431 0.986077 0.99029 0.991284 0.993711 0.993884 0.99593 0.996073 0.997441 0.996924 0.998286
          0.998929 0.999171 0.999469 0.998459 0.995556 0.997734 0.997831 0.998724 0.998701 0.999222 0.999486 0.999716
          0.999692 0.999827 0.999699 0.999887 0.999937 0.999944 0.999968 0.999849 0.999502 0.999754 0.999929 0.999964
          0.999958 0.999979 0.999998 0.999999 0.999999 1 0.999993 1 1 0.999999 0.999986 0.999993
          1 1 0.999986 0.999979 0.999967 0.999734 0.999961 0.999712 0.999977 0.999955 0.99969 0.999945
          0.999661 0.999973 1 1 1 1 0.999493 0.99854 0.999455 0.998475 0.997399 0.995008
          0.997311 0.994915 0.998397 0.997194 0.994767 0.997064 0.9946 0.998307 0.999415 0.999364 0.99242 0.987528
          0.992294 0.987353 0.982415 0.976468 0.982207 0.976252 0.987075 0.98187 0.975867 0.981481 0.97541 0.986757
          0.992087 0.991852 0.970527 0.965109 0.970306 0.964912 0.960054 0.955835 0.959897 0.955751 0.964464 0.959449
          0.955335 0.958878 0.954779 0.963908 0.969874 0.969354 0.95211 0.949088 0.952116 0.949207 0.946508 0.944469
          0.946753 0.944849 0.948918 0.94655 0.944741 0.94615 0.944413 0.948452 0.951753 0.951232 0.942775 0.941465
          0.943295 0.942124 0.940398 0.939581 0.941193 0.940509 0.942209 0.941371 0.940773 0.941244 0.940699 0.94202
          0.943284 0.943028 0.93892 0.938412 0.939974 0.939586 0.937996 0.937667 0.939284 0.939064 0.940005 0.939772
          0.939615 0.939813 0.939681 0.940014 0.940319 0.940291 0.937389 0.937159 0.938889 0.938757 0.936956 0.936781
          0.938648 0.938561 0.939422 0.939366 0.939328 0.939488 0.939463 0.939528 0.939499 0.939587 0.936622 0.936486
          0.938488 0.938429 0.936366 0.936278 0.938382 0.938358 0.939285 0.939277 0.939286 0.939441 0.939457 0.939441
          0.939301 0.939448 0.93622 0.936235 0.938358 0.938423 0.936327 0.936598 0.938562 0.938877 0.93941 0.939576
          0.939919 0.939767 0.940125 0.939592 0.939318 0.939495 0.937056 0.93789 0.939382 0.940272 0.93908 0.940875
          0.941531 0.943413 0.9414 0.942728 0.944703 0.943067 0.945136 0.941675 0.940461 0.940691 0.943173 0.94619
          0.945817 0.948948 0.94971 0.953821 0.952584 0.956787 0.950479 0.954247 0.958563 0.955059 0.959489 0.951158
          0.947221 0.947769 0.958244 0.962925 0.961278 0.965974 0.967656 0.972281 0.970678 0.975208 0.967883 0.972595
          0.977074 0.973659 0.978093 0.96894 0.963146 0.964161 0.976772 0.980861 0.979563 0.983452 0.984758 0.988062
          0.987119 0.990163 0.98511 0.988648 0.9915 0.989392 0.992073 0.985953 0.98135 0.982301 0.991137 0.99334
          0.992801 0.994714 0.995365 0.996804 0.996498 0.997692 0.995648 0.997281 0.998308 0.997551 0.998489 0.996011
          0.993883 0.994336 0.998174 0.998894 0.998773 0.99927 0.999529 0.99973 0.999719 0.999841 0.999571 0.99989
          0.999945 0.999909 0.999955 0.999627 0.999216 0.999318 0.999915 0.999953 0.999957 0.999976 0.999991 0.999995
          0.999996 0.999998 0.999999 1 1 1 0.999998 0.999999 1 1 1 1
          1 1 1 1 1 1 1 1 1 1 1 1
          1 1 1 1 1 1 1 1 1 1 1 1
          1 1 1 1 1 1 1 1 1 1 1 1
          1 1 1 1 1 1 1 1 1 1 0.999968 1
          0.999962 1 0.999936 0.999631 0.999924 0.9996 0.999956 0.999912 0.999568 0.9999 0.999536 0.99995
          1 1 1 1 0.999312 0.998218 0.999258 0.99813 0.996935 0.994437 0.996813 0.994282
          0.998044 0.996694 0.994134 0.996585 0.993996 0.997963 0.999204 0.99915 0.991619 0.986442 0.991396 0.986135
          0.981091 0.974947 0.980705 0.974481 0.985836 0.980323 0.974014 0.979946 0.973547 0.985547 0.991177 0.990969
          0.968822 0.963336 0.968281 0.962753 0.958286 0.954201 0.957683 0.953613 0.962162 0.957072 0.953019 0.956453
          0.95242 0.961563 0.967736 0.967186 0.950689 0.947965 0.950138 0.947471 0.945728 0.94406 0.945302 0.943704
          0.946979 0.944882 0.943356 0.944469 0.943019 0.946491 0.949585 0.949032 0.942744 0.9418 0.942457 0.941574
          0.94108 0.940582 0.940908 0.940453 0.941357 0.940744 0.940331 0.94059 0.940219 0.941151 0.942179 0.941913
          0.940213 0.939968 0.940121 0.939902 0.939791 0.939679 0.939748 0.939651 0.939841 0.939706 0.939623 0.939669
          0.939598 0.939785 0.940033 0.939954 0.939601 0.939553 0.939585 0.939545 0.939522 0.939505 0.939521 0.939507
          0.939535 0.939516 0.939505 0.939511 0.939503 0.939524 0.939567 0.939551 0.939496 0.939493 0.939503 0.939501
          0.939496 0.939514 0.939505 0.939524 0.939502 0.939507 0.939525 0.939506 0.939523 0.939502 0.939554 0.939654
          0.939564 0.939665 0.939834 0.940206 0.939849 0.940234 0.939668 0.939856 0.940254 0.939858 0.94027 0.939666
          0.939565 0.939563 0.940796 0.941826 0.940848 0.941927 0.943286 0.945455 0.943459 0.945735 0.942023 0.943631
          0.94602 0.943808 0.946318 0.942118 0.940893 0.940935 0.94821 0.951739 0.948619 0.952296 0.95578 0.960329
          0.956482 0.961153 0.952872 0.957208 0.962001 0.95797 0.962884 0.953479 0.949042 0.949487 0.965093 0.969915
          0.966009 0.970869 0.974643 0.979033 0.9756 0.979938 0.971838 0.976567 0.980845 0.977549 0.981756 0.972832
          0.966947 0.967916 0.983174 0.986727 0.984009 0.987461 0.990072 0.992581 0.990699 0.993045 0.988192 0.991294
          0.993498 0.991855 0.993934 0.988916 0.984839 0.985664 0.994741 0.996334 0.995113 0.996625 0.997793 0.998653
          0.998006 0.998794 0.996909 0.998214 0.99893 0.998403 0.999051 0.997176 0.995478 0.995827 0.999414 0.999682
          0.999491 0.999725 0.999928 0.999965 0.999941 0.999971 0.999767 0.999954 0.999977 0.999964 0.999982 0.999802
          0.999567 0.99963 1 1 1 1 1 1 1 1 1 1
          1 1 1 1 0.999944 1 0.999938 1 0.999887 0.999505 0.999875 0.999475
          0.999932 0.999864 0.999446 0.999854 0.999423 0.999927 1 1 1 1 0.999097 0.997884
          0.999047 0.997811 0.996479 0.993864 0.996383 0.993742 0.997742 0.996291 0.993626 0.996213 0.993522 0.997683
          0.998998 0.998958 0.990767 0.985265 0.990574 0.984992 0.979573 0.973079 0.979204 0.972609 0.984727 0.978838
          0.972137 0.978477 0.971661 0.984473 0.990389 0.990218 0.96663 0.960956 0.966066 0.960337 0.955826 0.951815
          0.955188 0.951205 0.959705 0.954539 0.950588 0.953876 0.949964 0.959057 0.965494 0.964911 0.948478 0.946008
          0.947924 0.94553 0.944065 0.942691 0.94367 0.942376 0.945057 0.943285 0.942073 0.942913 0.941784 0.944591
          0.94737 0.946817 0.941657 0.940956 0.941415 0.940775 0.940447 0.940115 0.940315 0.940021 0.940605 0.940194