<?xml version="1.0"?>
<!--
SPDX-FileCopyrightText: Copyright © DuMux Project contributors, see AUTHORS.md in root folder
SPDX-License-Identifier: CC0-1.0
-->
<VTKFile type="ImageData" version="0.1" byte_order="LittleEndian" header_type="UInt32">
  <ImageData WholeExtent="0 4 0 4 0 0" Origin="0 0 0" Spacing="200 100 0" Direction="1 0 0 0 1 0 0 0 0">
  <Piece Extent="0 4 0 4 0 0">
    <PointData Scalars="vdata">
      <DataArray type="Float32" Name="vdata" format="ascii" NumberOfComponents="1">
        0 1 2 3 4 5 6 7 8 9 10 11 12 13 14 15 16 17 18 19 20 21 22 23 24
      </DataArray>
    </PointData>
    <CellData Scalars="index">
      <DataArray type="Int32" Name="index" format="ascii" NumberOfComponents="1">
        0 1 2 3 4 5 6 7 8 9 10 11 12 13 14 15
      </DataArray>
      <DataArray type="Int32" Name="rank" format="ascii" NumberOfComponents="1">
        0 0 0 0 0 0 0 0 0 0 0 0 0 0 0 0 0
      </DataArray>
    </CellData>
  </Piece>
  </ImageData>
</VTKFile>
