<?xml version="1.0"?>
<VTKFile type="UnstructuredGrid" version="0.1" byte_order="LittleEndian">
  <UnstructuredGrid>
    <Piece NumberOfCells="330" NumberOfPoints="368">
      <PointData Scalars="Sn" Vectors="velocityW">
        <DataArray type="Float32" Name="Sn" NumberOfComponents="1" format="ascii">
          0.826239 0.826237 0.921678 0.921676 0.826231 0.921671 0.826222 0.921662 0.826209 0.92165 0.826193 0.921638
          0.826176 0.921624 0.826157 0.921611 0.826139 0.921598 0.826121 0.921587 0.826105 0.921577 0.826091 0.921569
          0.82608 0.921562 0.826071 0.921557 0.826066 0.921554 0.826065 0.921553 0.947557 0.947554 0.947545 0.947533
          0.947517 0.947501 0.947484 0.947469 0.947455 0.947443 0.947432 0.947424 0.947417 0.947413 0.94741 0.947409
          0.955596 0.955592 0.95558 0.955563 0.955543 0.955522 0.955502 0.955484 0.955467 0.955453 0.955442 0.955432
          0.955425 0.955419 0.955416 0.955415 0.95915 0.959144 0.95913 0.959108 0.959083 0.959057 0.959033 0.959011
          0.958992 0.958976 0.958962 0.958951 0.958943 0.958936 0.958933 0.958931 0.961473 0.961466 0.961447 0.96142
          0.961389 0.961358 0.96133 0.961304 0.961283 0.961264 0.961249 0.961236 0.961226 0.961219 0.961214 0.961213
          0.963424 0.963415 0.963392 0.963359 0.963322 0.963285 0.963252 0.963223 0.963198 0.963178 0.96316 0.963146
          0.963134 0.963126 0.96312 0.963118 0.965243 0.965232 0.965204 0.965163 0.965119 0.965077 0.965039 0.965006
          0.964979 0.964956 0.964936 0.96492 0.964907 0.964896 0.96489 0.964888 0.967 0.966987 0.966951 0.966903
          0.966851 0.966802 0.966759 0.966723 0.966693 0.966667 0.966645 0.966627 0.966611 0.9666 0.966592 0.96659
          0.968718 0.968701 0.968657 0.968599 0.968538 0.968482 0.968434 0.968394 0.96836 0.968332 0.968307 0.968286
          0.968269 0.968255 0.968246 0.968243 0.970406 0.970385 0.970331 0.970261 0.97019 0.970126 0.970072 0.970028
          0.96999 0.969958 0.96993 0.969906 0.969886 0.96987 0.969859 0.969855 0.972071 0.972045 0.971979 0.971896
          0.971814 0.971742 0.971681 0.971631 0.971588 0.971552 0.971521 0.971493 0.97147 0.97145 0.971438 0.971433
          0.973723 0.973691 0.973612 0.973514 0.973419 0.973338 0.973269 0.973213 0.973164 0.973123 0.973087 0.973055
          0.973027 0.973004 0.972988 0.972982 0.975372 0.975334 0.97524 0.975126 0.975019 0.974927 0.97485 0.974785
          0.97473 0.974682 0.97464 0.974602 0.974569 0.974541 0.974521 0.974514 0.977035 0.976988 0.976878 0.976748
          0.976628 0.976526 0.976439 0.976365 0.976301 0.976245 0.976195 0.97615 0.97611 0.976076 0.976051 0.976042
          0.978732 0.978677 0.978548 0.978403 0.978271 0.978158 0.97806 0.977976 0.977901 0.977835 0.977776 0.977722
          0.977673 0.97763 0.977599 0.977587 0.980505 0.980437 0.980289 0.980127 0.979984 0.979861 0.979752 0.979656
          0.979569 0.979491 0.979419 0.979354 0.979293 0.979239 0.979198 0.979182 0.982265 0.982189 0.98203 0.981864
          0.98172 0.981594 0.981482 0.981381 0.981288 0.981203 0.981123 0.981049 0.980979 0.980916 0.980866 0.980846
          0.984057 0.983968 0.983796 0.983626 0.983482 0.983356 0.983243 0.983139 0.983041 0.982949 0.982862 0.982778
          0.982697 0.982623 0.982562 0.982535 0.985991 0.98587 0.985665 0.985481 0.985333 0.985207 0.985094 0.984989
          0.984889 0.984793 0.9847 0.984608 0.984516 0.984428 0.984353 0.984317 0.98875 0.988507 0.988168 0.987898
          0.987697 0.98753 0.987386 0.987254 0.98713 0.987011 0.986895 0.986778 0.986658 0.986538 0.986432 0.986372
          0.995664 0.99446 0.993336 0.992627 0.992162 0.991807 0.991522 0.991278 0.991058 0.990854 0.990662 0.990467
          0.990266 0.990052 0.989861 0.989694 1 1 1 1 1 1 1 1
          1 1 1 1 1 1 1 1
        </DataArray>
        <DataArray type="Float32" Name="Sw" NumberOfComponents="1" format="ascii">
          0.173761 0.173763 0.0783217 0.0783237 0.173769 0.0783294 0.173778 0.0783383 0.173791 0.0783497 0.173807 0.0783625
          0.173824 0.0783759 0.173843 0.0783891 0.173861 0.0784017 0.173879 0.0784131 0.173895 0.0784231 0.173909 0.0784315
          0.17392 0.0784381 0.173929 0.0784429 0.173934 0.0784458 0.173935 0.0784468 0.0524434 0.0524463 0.0524547 0.0524674
          0.0524829 0.0524995 0.052516 0.0525315 0.0525454 0.0525575 0.0525677 0.0525761 0.0525827 0.0525874 0.0525902 0.0525912
          0.0444044 0.0444084 0.0444198 0.0444366 0.0444566 0.0444776 0.0444979 0.0445164 0.0445327 0.0445466 0.0445583 0.0445678
          0.0445752 0.0445806 0.0445839 0.044585 0.0408504 0.0408557 0.0408704 0.0408919 0.0409171 0.0409429 0.0409673 0.0409891
          0.0410081 0.0410242 0.0410377 0.0410487 0.0410573 0.0410636 0.0410675 0.0410688 0.0385274 0.0385341 0.0385528 0.0385797
          0.0386106 0.0386416 0.0386703 0.0386957 0.0387174 0.0387359 0.0387513 0.0387639 0.038774 0.0387814 0.0387859 0.0387875
          0.0365762 0.0365847 0.0366081 0.0366413 0.0366784 0.0367149 0.0367481 0.036777 0.0368016 0.0368224 0.0368398 0.0368543
          0.0368659 0.0368745 0.0368799 0.0368817 0.0347569 0.0347675 0.0347965 0.0348369 0.034881 0.0349234 0.0349612 0.0349937
          0.0350211 0.0350443 0.0350638 0.0350802 0.0350935 0.0351035 0.0351099 0.035112 0.0329995 0.0330128 0.0330486 0.0330974
          0.0331494 0.0331981 0.0332408 0.0332769 0.0333074 0.0333331 0.033355 0.0333735 0.0333887 0.0334004 0.0334079 0.0334105
          0.031282 0.0312986 0.0313427 0.0314014 0.0314623 0.031518 0.0315659 0.0316061 0.0316398 0.0316684 0.0316929 0.0317139
          0.0317315 0.0317452 0.031754 0.0317571 0.0295944 0.0296151 0.0296692 0.0297394 0.0298104 0.0298739 0.0299277 0.0299725
          0.0300101 0.0300421 0.0300697 0.0300937 0.030114 0.0301301 0.0301408 0.0301445 0.0279291 0.0279547 0.0280206 0.028104
          0.0281862 0.0282585 0.028319 0.0283693 0.0284115 0.0284477 0.0284791 0.0285066 0.0285304 0.0285496 0.0285624 0.0285671
          0.0262772 0.0263087 0.0263881 0.0264861 0.0265805 0.0266623 0.0267306 0.0267875 0.0268355 0.0268768 0.026913 0.0269451
          0.026973 0.026996 0.0270118 0.0270176 0.0246277 0.024666 0.0247605 0.024874 0.0249811 0.0250732 0.0251503 0.0252151
          0.0252703 0.0253181 0.0253603 0.025398 0.0254313 0.0254592 0.0254788 0.025486 0.0229654 0.0230116 0.0231224 0.0232519
          0.0233717 0.0234744 0.0235613 0.0236353 0.0236993 0.0237553 0.0238051 0.0238499 0.02389 0.0239242 0.0239489 0.0239582
          0.0212676 0.0213231 0.0214516 0.0215969 0.0217288 0.0218422 0.0219396 0.0220242 0.0220985 0.0221646 0.0222241 0.022278
          0.022327 0.0223695 0.022401 0.0224132 0.0194952 0.0195627 0.0197114 0.0198727 0.0200157 0.0201394 0.0202478 0.0203441
          0.0204306 0.020509 0.0205805 0.0206464 0.020707 0.0207608 0.0208018 0.0208183 0.017735 0.0178109 0.0179699 0.0181361
          0.0182805 0.0184061 0.0185177 0.0186188 0.0187115 0.0187971 0.0188767 0.0189512 0.0190208 0.019084 0.0191336 0.0191543
          0.0159431 0.0160317 0.0162035 0.016374 0.0165182 0.0166441 0.0167572 0.0168613 0.0169589 0.017051 0.0171383 0.0172221
          0.0173025 0.0173773 0.0174381 0.0174648 0.0140092 0.0141299 0.0143346 0.0145193 0.0146668 0.0147934 0.0149062 0.015011
          0.0151107 0.0152068 0.0152998 0.0153921 0.0154836 0.0155719 0.0156469 0.0156827 0.0112498 0.011493 0.011832 0.0121018
          0.0123028 0.0124696 0.0126141 0.0127459 0.0128698 0.0129892 0.0131048 0.0132222 0.0133419 0.0134623 0.0135684 0.0136284
          0.00433627 0.00553992 0.00666443 0.0073732 0.00783817 0.00819279 0.00847759 0.00872232 0.00894176 0.00914616 0.00933801 0.00953261
          0.00973365 0.00994786 0.0101394 0.010306 0 0 0 0 0 0 0 0
          0 0 0 0 0 0 0 0
        </DataArray>
        <DataArray type="Float32" Name="pn" NumberOfComponents="1" format="ascii">
          100003 100003 100002 100002 100003 100002 100003 100002 100003 100002 100003 100002
          100003 100002 100003 100002 100003 100002 100003 100002 100003 100002 100003 100002
          100003 100002 100003 100002 100003 100002 100003 100002 100002 100002 100002 100002
          100002 100002 100002 100002 100002 100002 100002 100002 100002 100002 100002 100002
          100002 100002 100002 100002 100002 100002 100002 100002 100002 100002 100002 100002
          100002 100002 100002 100002 100002 100002 100002 100002 100002 100002 100002 100002
          100002 100002 100002 100002 100002 100002 100002 100002 100001 100001 100001 100001
          100001 100001 100001 100001 100001 100001 100001 100001 100001 100001 100001 100001
          100001 100001 100001 100001 100001 100001 100001 100001 100001 100001 100001 100001
          100001 100001 100001 100001 100001 100001 100001 100001 100001 100001 100001 100001
          100001 100001 100001 100001 100001 100001 100001 100001 100001 100001 100001 100001
          100001 100001 100001 100001 100001 100001 100001 100001 100001 100001 100001 100001
          100001 100001 100001 100001 100001 100001 100001 100001 100001 100001 100001 100001
          100001 100001 100001 100001 100001 100001 100001 100001 100001 100001 100001 100001
          100001 100001 100001 100001 100001 100001 100001 100001 100001 100001 100001 100001
          100001 100001 100001 100001 100001 100001 100001 100001 100001 100001 100001 100001
          100001 100001 100001 100001 100001 100001 100001 100001 100000 100000 100000 100000
          100000 100000 100000 100000 100000 100000 100000 100000 100000 100000 100000 100000
          100000 100000 100000 100000 100000 100000 100000 100000 100000 100000 100000 100000
          100000 100000 100000 100000 100000 100000 100000 100000 100000 100000 100000 100000
          100000 100000 100000 100000 100000 100000 100000 100000 100000 100000 100000 100000
          100000 100000 100000 100000 100000 100000 100000 100000 100000 100000 100000 100000
          100000 100000 100000 100000 100000 100000 100000 100000 100000 100000 100000 100000
          100000 100000 100000 100000 100000 100000 100000 100000 100000 100000 100000 100000
          100000 100000 100000 100000 100000 100000 100000 100000 100000 100000 100000 100000
          100000 100000 100000 100000 100000 100000 100000 100000 100000 100000 100000 100000
          100000 100000 100000 100000 100000 100000 100000 100000 100000 100000 100000 100000
          100000 100000 100000 100000 100000 100000 100000 100000 100000 100000 100000 100000
          100000 100000 100000 100000 100000 100000 100000 100000 100000 100000 100000 100000
          100000 100000 100000 100000 100000 100000 100000 100000 100000 100000 100000 100000
          100000 100000 100000 100000 100000 100000 100000 100000
        </DataArray>
        <DataArray type="Float32" Name="pw" NumberOfComponents="1" format="ascii">
          98019.1 98019.1 97742.5 97742.5 98019.1 97742.6 98019.1 97742.6 98019.2 97742.7 98019.2 97742.7
          98019.2 97742.8 98019.3 97742.8 98019.3 97742.9 98019.3 97743 98019.4 97743 98019.4 97743
          98019.4 97743.1 98019.4 97743.1 98019.4 97743.1 98019.4 97743.1 97590.9 97590.9 97591 97591.1
          97591.2 97591.3 97591.4 97591.6 97591.7 97591.8 97591.8 97591.9 97591.9 97592 97592 97592
          97523.9 97523.9 97524 97524.2 97524.4 97524.6 97524.8 97524.9 97525.1 97525.2 97525.3 97525.4
          97525.5 97525.5 97525.6 97525.6 97489.1 97489.2 97489.4 97489.6 97489.8 97490.1 97490.3 97490.6
          97490.8 97490.9 97491.1 97491.2 97491.3 97491.3 97491.4 97491.4 97464.2 97464.3 97464.5 97464.8
          97465.1 97465.5 97465.8 97466.1 97466.3 97466.5 97466.7 97466.8 97466.9 97467 97467.1 97467.1
          97441.8 97441.9 97442.1 97442.5 97443 97443.4 97443.8 97444.1 97444.4 97444.6 97444.9 97445
          97445.2 97445.3 97445.3 97445.3 97419.4 97419.5 97419.9 97420.4 97420.9 97421.5 97421.9 97422.4
          97422.7 97423 97423.2 97423.4 97423.6 97423.7 97423.8 97423.8 97396.3 97396.4 97396.9 97397.6
          97398.3 97398.9 97399.5 97400 97400.4 97400.8 97401 97401.3 97401.5 97401.6 97401.7 97401.8
          97372.1 97372.3 97373 97373.8 97374.7 97375.5 97376.2 97376.8 97377.2 97377.6 97378 97378.3
          97378.5 97378.7 97378.9 97378.9 97346.5 97346.9 97347.7 97348.8 97349.9 97350.9 97351.7 97352.4
          97353 97353.5 97353.9 97354.2 97354.6 97354.8 97355 97355 97319.3 97319.8 97320.9 97322.3
          97323.6 97324.9 97325.9 97326.7 97327.4 97328 97328.5 97329 97329.4 97329.7 97329.9 97330
          97290.1 97290.6 97292.1 97293.9 97295.6 97297.1 97298.3 97299.3 97300.2 97300.9 97301.6 97302.1
          97302.6 97303 97303.3 97303.4 97258.2 97258.9 97260.8 97263.1 97265.2 97267 97268.6 97269.8
          97270.9 97271.8 97272.6 97273.4 97274 97274.6 97274.9 97275.1 97222.8 97223.9 97226.3 97229.2
          97231.8 97234 97235.9 97237.5 97238.8 97240 97241.1 97242 97242.9 97243.6 97244.1 97244.3
          97182.7 97184.1 97187.3 97190.8 97194 97196.8 97199.1 97201.1 97202.9 97204.4 97205.8 97207.1
          97208.2 97209.2 97209.9 97210.2 97135.4 97137.3 97141.5 97146 97149.9 97153.3 97156.2 97158.8
          97161.1 97163.2 97165.1 97166.8 97168.4 97169.8 97170.8 97171.2 97081.5 97084 97089.1 97094.5
          97099 97103 97106.4 97109.5 97112.3 97114.9 97117.3 97119.5 97121.6 97123.5 97124.9 97125.5
          97017.1 97020.5 97027.2 97033.6 97039 97043.6 97047.7 97051.4 97054.9 97058.2 97061.2 97064.1
          97066.9 97069.4 97071.5 97072.4 96934.5 96939.8 96948.9 96957 96963.5 96969.1 96974.1 96978.7
          96983 96987 96991 96994.8 96998.6 97002.2 97005.3 97006.7 96812.6 96823.4 96838.3 96850.2
          96859.1 96866.5 96872.9 96878.7 96884.1 96889.4 96894.5 96899.7 96905 96910.3 96915 96917.6
          96507.4 96560.5 96610.1 96641.4 96662 96677.6 96690.2 96701 96710.7 96719.7 96728.2 96736.8
          96745.7 96755.1 96763.6 96770.9 96315.9 96315.9 96315.9 96315.9 96315.9 96315.9 96315.9 96315.9
          96315.9 96315.9 96315.9 96315.9 96315.9 96315.9 96315.9 96315.9
        </DataArray>
        <DataArray type="Float32" Name="pc" NumberOfComponents="1" format="ascii">
          1983.75 1983.75 2259.97 2259.96 1983.73 2259.93 1983.71 2259.89 1983.69 2259.84 1983.66 2259.78
          1983.63 2259.72 1983.59 2259.65 1983.55 2259.6 1983.52 2259.54 1983.49 2259.5 1983.46 2259.46
          1983.44 2259.43 1983.42 2259.4 1983.41 2259.39 1983.41 2259.39 2411.29 2411.27 2411.21 2411.11
          2411 2410.87 2410.75 2410.63 2410.53 2410.44 2410.36 2410.3 2410.25 2410.22 2410.2 2410.19
          2478.01 2477.97 2477.86 2477.71 2477.52 2477.33 2477.15 2476.98 2476.83 2476.7 2476.59 2476.5
          2476.44 2476.39 2476.36 2476.35 2512.53 2512.47 2512.32 2512.1 2511.84 2511.58 2511.33 2511.11
          2510.91 2510.75 2510.61 2510.5 2510.41 2510.35 2510.31 2510.3 2537.23 2537.16 2536.95 2536.65
          2536.31 2535.97 2535.65 2535.38 2535.14 2534.93 2534.77 2534.63 2534.52 2534.44 2534.39 2534.37
          2559.51 2559.41 2559.13 2558.74 2558.3 2557.87 2557.48 2557.15 2556.86 2556.61 2556.41 2556.24
          2556.11 2556 2555.94 2555.92 2581.72 2581.59 2581.22 2580.71 2580.16 2579.63 2579.15 2578.75
          2578.4 2578.11 2577.87 2577.67 2577.5 2577.37 2577.3 2577.27 2604.68 2604.5 2604.02 2603.36
          2602.66 2602.01 2601.43 2600.95 2600.54 2600.2 2599.91 2599.66 2599.46 2599.3 2599.2 2599.17
          2628.74 2628.5 2627.86 2627.01 2626.13 2625.33 2624.64 2624.07 2623.58 2623.18 2622.83 2622.53
          2622.28 2622.08 2621.96 2621.91 2654.17 2653.85 2653 2651.91 2650.81 2649.83 2649 2648.31
          2647.73 2647.24 2646.81 2646.45 2646.14 2645.89 2645.73 2645.67 2681.28 2680.84 2679.73 2678.33
          2676.95 2675.74 2674.74 2673.9 2673.2 2672.6 2672.09 2671.63 2671.24 2670.93 2670.71 2670.64
          2710.45 2709.87 2708.41 2706.62 2704.91 2703.43 2702.2 2701.17 2700.31 2699.57 2698.93 2698.36
          2697.86 2697.45 2697.17 2697.07 2742.26 2741.49 2739.59 2737.32 2735.2 2733.38 2731.86 2730.6
          2729.52 2728.59 2727.77 2727.04 2726.4 2725.86 2725.49 2725.35 2777.53 2776.5 2774.05 2771.2
          2768.58 2766.35 2764.48 2762.89 2761.52 2760.33 2759.27 2758.33 2757.48 2756.76 2756.24 2756.04
          2817.6 2816.21 2813.03 2809.47 2806.26 2803.53 2801.2 2799.18 2797.43 2795.87 2794.47 2793.21
          2792.07 2791.09 2790.36 2790.08 2864.82 2862.91 2858.72 2854.23 2850.3 2846.94 2844.01 2841.43
          2839.13 2837.06 2835.18 2833.45 2831.88 2830.48 2829.42 2829 2918.71 2916.21 2911.04 2905.72
          2901.15 2897.22 2893.77 2890.66 2887.84 2885.26 2882.87 2880.65 2878.58 2876.72 2875.26 2874.66
          2983.04 2979.59 2972.98 2966.53 2961.17 2956.54 2952.44 2948.69 2945.22 2941.98 2938.92 2936.02
          2933.25 2930.69 2928.63 2927.73 3065.6 3060.27 3051.24 3043.08 3036.57 3030.98 3026.01 3021.44
          3017.14 3013.05 3009.12 3005.27 3001.48 2997.87 2994.83 2993.38 3187.43 3176.7 3161.73 3149.82
          3140.94 3133.58 3127.2 3121.38 3115.91 3110.64 3105.53 3100.35 3095.06 3089.75 3085.06 3082.41
          3492.68 3439.53 3389.89 3358.59 3338.06 3322.41 3309.83 3299.03 3289.34 3280.31 3271.84 3263.25
          3254.38 3244.92 3236.46 3229.1 3684.13 3684.13 3684.13 3684.13 3684.13 3684.13 3684.13 3684.13
          3684.13 3684.13 3684.13 3684.13 3684.13 3684.13 3684.13 3684.13
        </DataArray>
        <DataArray type="Float32" Name="rhoW" NumberOfComponents="1" format="ascii">
          997.055 997.055 997.057 997.057 997.055 997.057 997.055 997.057 997.055 997.057 997.055 997.057
          997.055 997.057 997.055 997.057 997.055 997.057 997.055 997.057 997.055 997.057 997.055 997.057
          997.055 997.057 997.055 997.057 997.055 997.057 997.055 997.057 997.062 997.062 997.062 997.062
          997.062 997.061 997.061 997.061 997.061 997.06 997.06 997.06 997.06 997.06 997.06 997.06
          997.072 997.072 997.072 997.071 997.071 997.07 997.07 997.069 997.069 997.068 997.068 997.068
          997.067 997.067 997.067 997.067 997.09 997.09 997.09 997.089 997.088 997.087 997.086 997.085
          997.083 997.083 997.082 997.081 997.081 997.08 997.08 997.08 997.119 997.119 997.118 997.117
          997.115 997.113 997.111 997.109 997.107 997.106 997.104 997.103 997.102 997.102 997.101 997.101
          997.161 997.16 997.159 997.157 997.154 997.151 997.148 997.145 997.142 997.139 997.137 997.135
          997.134 997.132 997.132 997.132 997.215 997.214 997.212 997.209 997.206 997.202 997.197 997.193
          997.188 997.184 997.181 997.178 997.176 997.174 997.173 997.172 997.278 997.278 997.276 997.273
          997.268 997.263 997.257 997.251 997.245 997.24 997.235 997.231 997.228 997.225 997.224 997.223
          997.349 997.348 997.346 997.343 997.339 997.333 997.326 997.318 997.311 997.304 997.298 997.293
          997.288 997.285 997.283 997.282 997.421 997.421 997.42 997.418 997.414 997.407 997.4 997.392
          997.383 997.375 997.368 997.361 997.356 997.351 997.349 997.348 997.493 997.493 997.493 997.493
          997.49 997.484 997.477 997.468 997.459 997.45 997.442 997.434 997.427 997.422 997.419 997.418
          997.56 997.561 997.563 997.565 997.563 997.559 997.553 997.545 997.536 997.526 997.517 997.508
          997.501 997.495 997.491 997.489 997.621 997.623 997.628 997.631 997.633 997.63 997.625 997.618
          997.61 997.601 997.591 997.583 997.574 997.568 997.563 997.562 997.674 997.678 997.685 997.692
          997.696 997.696 997.693 997.687 997.68 997.672 997.663 997.654 997.646 997.639 997.635 997.633
          997.721 997.725 997.736 997.746 997.752 997.754 997.753 997.75 997.744 997.737 997.73 997.722
          997.715 997.708 997.703 997.701 997.76 997.766 997.78 997.792 997.801 997.806 997.807 997.805
          997.802 997.797 997.791 997.785 997.779 997.773 997.769 997.767 997.792 997.801 997.817 997.832
          997.844 997.851 997.854 997.854 997.852 997.849 997.845 997.841 997.837 997.833 997.83 997.828
          997.819 997.83 997.849 997.867 997.88 997.889 997.894 997.896 997.896 997.895 997.893 997.891
          997.889 997.887 997.886 997.885 997.841 997.855 997.877 997.896 997.911 997.921 997.928 997.932
          997.934 997.934 997.934 997.934 997.934 997.935 997.936 997.937 997.859 997.877 997.9 997.921
          997.938 997.949 997.957 997.962 997.965 997.968 997.969 997.971 997.973 997.977 997.981 997.984
          997.873 997.896 997.921 997.943 997.96 997.973 997.982 997.988 997.993 997.996 997.999 998.003
          998.007 998.013 998.019 998.027 997.892 997.919 997.945 997.968 997.986 997.999 998.009 998.016
          998.021 998.026 998.03 998.034 998.04 998.049 998.056 998.071
        </DataArray>
        <DataArray type="Float32" Name="rhoN" NumberOfComponents="1" format="ascii">
          1.15431 1.15431 1.15435 1.15435 1.15431 1.15435 1.15431 1.15435 1.15431 1.15435 1.15431 1.15434
          1.15431 1.15434 1.15431 1.15434 1.15431 1.15434 1.15431 1.15434 1.15431 1.15434 1.15431 1.15434
          1.15431 1.15434 1.15431 1.15434 1.15431 1.15434 1.15431 1.15434 1.15444 1.15443 1.15443 1.15443
          1.15443 1.15442 1.15442 1.15441 1.15441 1.15441 1.1544 1.1544 1.1544 1.1544 1.1544 1.1544
          1.15462 1.15461 1.15461 1.1546 1.15459 1.15458 1.15457 1.15456 1.15456 1.15455 1.15454 1.15453
          1.15453 1.15453 1.15452 1.15452 1.15495 1.15495 1.15494 1.15492 1.1549 1.15488 1.15486 1.15484
          1.15482 1.15481 1.15479 1.15478 1.15477 1.15476 1.15476 1.15476 1.15548 1.15548 1.15546 1.15544
          1.1554 1.15537 1.15533 1.1553 1.15526 1.15523 1.15521 1.15518 1.15517 1.15515 1.15515 1.15514
          1.15625 1.15624 1.15622 1.15618 1.15613 1.15607 1.15602 1.15596 1.1559 1.15585 1.15581 1.15577
          1.15575 1.15573 1.15571 1.15571 1.15726 1.15724 1.15721 1.15716 1.15709 1.15701 1.15693 1.15684
          1.15676 1.15669 1.15662 1.15657 1.15653 1.15649 1.15647 1.15647 1.15846 1.15844 1.15841 1.15835
          1.15826 1.15816 1.15805 1.15794 1.15783 1.15773 1.15764 1.15756 1.1575 1.15745 1.15742 1.15741
          1.15979 1.15978 1.15975 1.15969 1.1596 1.15948 1.15935 1.15921 1.15907 1.15894 1.15883 1.15873
          1.15864 1.15858 1.15854 1.15853 1.16119 1.16119 1.16117 1.16112 1.16104 1.16092 1.16078 1.16062
          1.16046 1.1603 1.16016 1.16003 1.15992 1.15984 1.15979 1.15977 1.16258 1.16259 1.16259 1.16258
          1.16252 1.16241 1.16227 1.1621 1.16192 1.16175 1.16158 1.16143 1.1613 1.1612 1.16114 1.16112
          1.1639 1.16392 1.16397 1.16399 1.16397 1.16389 1.16376 1.1636 1.16342 1.16323 1.16305 1.16288
          1.16274 1.16262 1.16254 1.16251 1.16511 1.16515 1.16525 1.16533 1.16535 1.16531 1.16521 1.16506
          1.16489 1.16471 1.16453 1.16435 1.16419 1.16406 1.16397 1.16394 1.16619 1.16626 1.16641 1.16654
          1.16662 1.16662 1.16656 1.16645 1.1663 1.16614 1.16596 1.16579 1.16562 1.16548 1.16539 1.16535
          1.16712 1.16722 1.16743 1.16764 1.16777 1.16782 1.1678 1.16772 1.16761 1.16747 1.16732 1.16716
          1.16701 1.16687 1.16677 1.16674 1.16793 1.16806 1.16833 1.1686 1.16878 1.16888 1.1689 1.16887
          1.16879 1.16869 1.16857 1.16844 1.16831 1.1682 1.16811 1.16807 1.1686 1.16878 1.16911 1.16943
          1.16966 1.16981 1.16987 1.16988 1.16984 1.16978 1.1697 1.16961 1.16952 1.16943 1.16937 1.16934
          1.16916 1.16939 1.16978 1.17015 1.17043 1.17061 1.17071 1.17076 1.17076 1.17074 1.1707 1.17065
          1.17061 1.17057 1.17054 1.17053 1.16961 1.16991 1.17036 1.17077 1.17108 1.1713 1.17143 1.17151
          1.17155 1.17157 1.17157 1.17157 1.17157 1.17159 1.17161 1.17163 1.16998 1.17036 1.17085 1.17129
          1.17164 1.17189 1.17205 1.17216 1.17223 1.17228 1.17231 1.17235 1.17241 1.17249 1.17257 1.17264
          1.17029 1.17076 1.17128 1.17175 1.17212 1.17239 1.17259 1.17272 1.17282 1.1729 1.17296 1.17303
          1.17312 1.17327 1.17339 1.17356 1.17504 1.17521 1.17542 1.17564 1.17579 1.17588 1.17591 1.1759
          1.17586 1.1758 1.17572 1.17566 1.1756 1.17559 1.1756 1.17529
        </DataArray>
        <DataArray type="Float32" Name="mobW" NumberOfComponents="1" format="ascii">
          6.42513 6.42535 0.623026 0.623074 6.426 0.623212 6.42704 0.623426 6.42843 0.623699 6.4301 0.624007
          6.43196 0.624329 6.43392 0.624649 6.43588 0.624951 6.43777 0.625226 6.43949 0.625467 6.44099 0.625669
          6.44221 0.625829 6.44311 0.625945 6.44365 0.626015 6.44384 0.626039 0.184729 0.184761 0.184854 0.184994
          0.185166 0.18535 0.185534 0.185706 0.185861 0.185997 0.186111 0.186205 0.186278 0.186331 0.186363 0.186374
          0.109952 0.109984 0.110074 0.110209 0.11037 0.110539 0.110703 0.110853 0.110985 0.111099 0.111194 0.111272
          0.111333 0.111377 0.111403 0.111412 0.0843327 0.0843684 0.0844687 0.0846161 0.0847889 0.0849672 0.0851367 0.0852896
          0.0854228 0.0855364 0.0856316 0.0857096 0.085771 0.0858156 0.0858429 0.0858521 0.0697782 0.0698191 0.069933 0.0700984
          0.070289 0.0704822 0.0706631 0.0708241 0.0709635 0.0710821 0.0711817 0.0712638 0.071329 0.0713769 0.0714063 0.0714163
          0.0588129 0.0588594 0.058988 0.059172 0.0593803 0.0595878 0.0597793 0.0599482 0.0600936 0.0602175 0.0603221 0.060409
          0.0604788 0.0605306 0.0605627 0.0605736 0.0495989 0.049651 0.049794 0.0499951 0.0502185 0.0504371 0.0506361 0.0508103
          0.0509601 0.0510881 0.0511969 0.0512883 0.0513625 0.0514183 0.0514533 0.0514653 0.04161 0.0416676 0.0418238 0.0420395
          0.0422742 0.0424997 0.0427024 0.0428789 0.0430308 0.0431613 0.0432733 0.0433684 0.0434467 0.0435064 0.0435442 0.0435573
          0.0346484 0.0347112 0.0348794 0.0351068 0.0353488 0.035577 0.0357797 0.0359555 0.0361073 0.0362387 0.0363526 0.0364506
          0.0365324 0.0365958 0.0366366 0.0366508 0.028597 0.0286648 0.0288434 0.0290795 0.0293247 0.0295517 0.0297514 0.0299242
          0.0300741 0.0302048 0.0303194 0.0304193 0.0305041 0.0305709 0.0306147 0.0306301 0.0233577 0.0234299 0.0236169 0.0238582
          0.0241029 0.0243256 0.0245199 0.0246881 0.0248345 0.0249634 0.0250777 0.0251786 0.0252657 0.0253357 0.0253825 0.0253991
          0.0188383 0.0189141 0.0191069 0.0193493 0.0195897 0.0198053 0.0199926 0.0201551 0.0202974 0.0204236 0.0205366 0.0206377
          0.0207265 0.0207993 0.020849 0.0208669 0.0149526 0.0150309 0.0152258 0.0154646 0.0156963 0.0159022 0.0160812 0.0162373
          0.016375 0.0164981 0.0166093 0.0167099 0.0167996 0.0168748 0.0169274 0.0169468 0.0116208 0.0117002 0.011893 0.0121227
          0.012341 0.0125342 0.0127033 0.0128523 0.0129851 0.0131048 0.0132138 0.0133134 0.0134036 0.0134808 0.0135363 0.0135573
          0.00877025 0.00884935 0.00903534 0.00925004 0.00945 0.00962716 0.00978425 0.00992482 0.0100519 0.0101676 0.010274 0.0103723
          0.0104625 0.0105414 0.0105999 0.0106226 0.00633314 0.00641122 0.00658628 0.00678044 0.00695714 0.00711454 0.00725652 0.00738625
          0.00750576 0.00761646 0.00771955 0.00781594 0.00790574 0.0079862 0.0080478 0.00807268 0.00439991 0.00446933 0.00461778 0.00477675
          0.00491861 0.00504571 0.00516192 0.00527006 0.00537159 0.00546735 0.00555795 0.00564407 0.00572563 0.00580033 0.00585937 0.00588416
          0.00287531 0.00293721 0.00306026 0.00318581 0.00329494 0.00339313 0.00348389 0.00356979 0.00365211 0.00373145 0.00380809 0.00388275
          0.0039552 0.00402335 0.00407925 0.00410395 0.00166855 0.00172901 0.00183496 0.00193386 0.00201531 0.00208737 0.00215351 0.00221669
          0.00227826 0.00233893 0.00239886 0.00245926 0.00252001 0.00257935 0.00263032 0.00265479 0.000601186 0.000667364 0.000767088 0.000852553
          0.000919875 0.000978364 0.00103114 0.00108102 0.00112949 0.00117759 0.00122548 0.00127531 0.00132739 0.00138087 0.00142908 0.00145659
          0 6.52267e-07 1.4973e-05 4.01296e-05 6.59346e-05 9.14014e-05 0.000115852 0.000139923 0.000164049 0.000188786 0.000214072 0.00024182
          0.000272769 0.000308334 0.000342521 0.000374045 0 0 0 0 0 0 0 0
          0 0 0 0 0 0 0 0
        </DataArray>
        <DataArray type="Float32" Name="mobN" NumberOfComponents="1" format="ascii">
          40747.7 40747.6 49897.3 49897.1 40747 49896.4 40746.1 49895.4 40744.9 49894.1 40743.5 49892.6
          40741.9 49891 40740.3 49889.4 40738.6 49888 40737 49886.6 40735.5 49885.5 40734.3 49884.5
          40733.2 49883.7 40732.5 49883.2 40732 49882.8 40731.9 49882.7 52806.4 52806 52805.1 52803.8
          52802.1 52800.3 52798.5 52796.8 52795.2 52793.9 52792.8 52791.9 52791.1 52790.6 52790.3 52790.2
          53609.8 53609.4 53608.2 53606.5 53604.5 53602.3 53600.2 53598.3 53596.6 53595.1 53593.8 53592.8
          53592 53591.5 53591.1 53591 53941.8 53941.3 53939.8 53937.6 53935.1 53932.4 53929.8 53927.5
          53925.4 53923.7 53922.2 53921 53920 53919.3 53918.9 53918.8 54154.2 54153.6 54151.7 54148.9
          54145.6 54142.3 54139.1 54136.3 54133.8 54131.6 54129.8 54128.3 54127.1 54126.2 54125.7 54125.5
          54331.8 54331 54328.6 54325.1 54321.1 54317 54313.1 54309.6 54306.5 54303.9 54301.6 54299.7
          54298.2 54297.1 54296.4 54296.2 54497 54495.9 54493 54488.8 54484 54479.1 54474.5 54470.2
          54466.5 54463.2 54460.4 54458.1 54456.2 54454.7 54453.9 54453.6 54655.4 54654.2 54650.8 54645.9
          54640.3 54634.6 54629.2 54624.2 54619.8 54615.8 54612.4 54609.4 54607.1 54605.3 54604.2 54603.8
          54808 54806.6 54802.8 54797.3 54791.2 54784.8 54778.7 54773 54767.8 54763.1 54759 54755.4
          54752.5 54750.2 54748.8 54748.3 54954 54952.5 54948.5 54942.8 54936.2 54929.5 54922.8 54916.5
          54910.6 54905.2 54900.4 54896.2 54892.6 54889.9 54888.1 54887.5 55092.7 55091.2 55087.1 55081.4
          55074.8 55067.9 55061 55054.3 55047.9 55041.9 55036.4 55031.5 55027.3 55024 55021.8 55021.1
          55223.3 55221.9 55218.1 55212.6 55206.4 55199.7 55192.8 55185.9 55179.2 55172.7 55166.7 55161.2
          55156.4 55152.5 55149.9 55149 55345.5 55344.3 55340.9 55336.1 55330.5 55324.3 55317.7 55310.9
          55304.1 55297.4 55291.1 55285.1 55279.8 55275.4 55272.3 55271.2 55459.3 55458.3 55455.7 55451.8