<?xml version="1.0"?>
<VTKFile type="UnstructuredGrid" version="0.1" byte_order="LittleEndian">
  <UnstructuredGrid>
    <Piece NumberOfCells="330" NumberOfPoints="368">
      <PointData Scalars="Sn" Vectors="velocityW">
        <DataArray type="Float32" Name="Sn" NumberOfComponents="1" format="ascii">
          0.825981 0.825979 0.921574 0.921572 0.825973 0.921567 0.825963 0.921558 0.82595 0.921546 0.825935 0.921534
          0.825917 0.92152 0.825899 0.921507 0.825881 0.921494 0.825864 0.921483 0.825848 0.921473 0.825834 0.921465
          0.825823 0.921458 0.825815 0.921453 0.82581 0.92145 0.825808 0.921449 0.94752 0.947517 0.947508 0.947495
          0.94748 0.947463 0.947446 0.94743 0.947416 0.947404 0.947393 0.947385 0.947378 0.947373 0.94737 0.947369
          0.955593 0.955589 0.955577 0.95556 0.955539 0.955517 0.955496 0.955477 0.95546 0.955446 0.955433 0.955423
          0.955416 0.95541 0.955406 0.955405 0.959174 0.959169 0.959153 0.959131 0.959105 0.959078 0.959052 0.959028
          0.959008 0.958991 0.958976 0.958965 0.958955 0.958948 0.958944 0.958943 0.961529 0.961522 0.961502 0.961474
          0.961441 0.961408 0.961376 0.961349 0.961325 0.961304 0.961287 0.961273 0.961262 0.961254 0.961249 0.961247
          0.963519 0.96351 0.963485 0.96345 0.96341 0.96337 0.963333 0.9633 0.963272 0.963249 0.963229 0.963212
          0.963199 0.963189 0.963183 0.963181 0.965385 0.965374 0.965344 0.9653 0.965252 0.965205 0.965162 0.965124
          0.965092 0.965064 0.965041 0.965022 0.965006 0.964994 0.964987 0.964984 0.967197 0.967183 0.967146 0.967094
          0.967037 0.966981 0.966932 0.966889 0.966852 0.966821 0.966794 0.966771 0.966753 0.966739 0.96673 0.966727
          0.968972 0.968956 0.968911 0.968849 0.968783 0.96872 0.968663 0.968614 0.968573 0.968537 0.968506 0.96848
          0.968458 0.968441 0.968431 0.968427 0.970719 0.970699 0.970645 0.970574 0.970498 0.970427 0.970363 0.970308
          0.970261 0.970221 0.970185 0.970155 0.97013 0.97011 0.970097 0.970092 0.972441 0.972417 0.972355 0.972273
          0.972188 0.972108 0.972038 0.971976 0.971923 0.971878 0.971837 0.971803 0.971773 0.971749 0.971734 0.971728
          0.974146 0.974117 0.974045 0.973953 0.973859 0.973771 0.973694 0.973626 0.973567 0.973515 0.97347 0.97343
          0.973395 0.973367 0.973348 0.973342 0.975842 0.975809 0.975726 0.975623 0.975521 0.975426 0.975341 0.975267
          0.975202 0.975144 0.975093 0.975047 0.975007 0.974975 0.974952 0.974944 0.977546 0.977507 0.977413 0.977299
          0.977189 0.977088 0.976997 0.976916 0.976844 0.976781 0.976723 0.976672 0.976626 0.976587 0.976561 0.976551
          0.979285 0.979238 0.979129 0.979005 0.978887 0.97878 0.978683 0.978596 0.978518 0.978448 0.978384 0.978326
          0.978274 0.97823 0.978198 0.978186 0.981085 0.981029 0.98091 0.98078 0.980655 0.980542 0.980438 0.980345
          0.980261 0.980184 0.980115 0.98005 0.979991 0.97994 0.979902 0.979887 0.982867 0.982799 0.982667 0.982531
          0.982406 0.982292 0.982188 0.982094 0.982008 0.98193 0.981859 0.981792 0.981731 0.981677 0.981635 0.981619
          0.984701 0.984609 0.984459 0.984315 0.984187 0.984072 0.983967 0.983872 0.983786 0.983707 0.983635 0.983566
          0.983503 0.983446 0.983401 0.983383 0.986834 0.986667 0.986455 0.986275 0.986123 0.985991 0.985873 0.985768
          0.985674 0.985589 0.985512 0.985439 0.985373 0.985313 0.985264 0.985244 0.990435 0.989974 0.989485 0.989163
          0.988914 0.988703 0.988519 0.98836 0.988221 0.988098 0.987989 0.987887 0.987795 0.987712 0.987642 0.987612
          1 1 0.998441 0.996993 0.995957 0.995163 0.994531 0.994028 0.993618 0.993277 0.992995 0.992737
          0.99252 0.992326 0.992164 0.992087 1 1 1 1 1 1 1 1
          1 1 1 1 1 1 1 1
        </DataArray>
        <DataArray type="Float32" Name="Sw" NumberOfComponents="1" format="ascii">
          0.174019 0.174021 0.0784258 0.0784277 0.174027 0.0784335 0.174037 0.0784424 0.17405 0.0784537 0.174065 0.0784664
          0.174082 0.0784798 0.174101 0.0784931 0.174119 0.0785056 0.174136 0.078517 0.174152 0.0785269 0.174166 0.0785353
          0.174177 0.0785419 0.174185 0.0785467 0.17419 0.0785496 0.174192 0.0785506 0.0524802 0.0524832 0.0524917 0.0525045
          0.0525202 0.0525371 0.0525539 0.0525697 0.0525839 0.0525962 0.0526067 0.0526153 0.052622 0.0526268 0.0526297 0.0526307
          0.0444073 0.0444114 0.044423 0.0444403 0.044461 0.0444827 0.0445037 0.0445229 0.0445399 0.0445545 0.0445667 0.0445767
          0.0445845 0.0445901 0.0445935 0.0445947 0.0408259 0.0408313 0.0408465 0.040869 0.0408952 0.0409224 0.0409482 0.0409715
          0.0409918 0.0410091 0.0410236 0.0410354 0.0410448 0.0410516 0.0410557 0.0410571 0.0384714 0.0384784 0.038498 0.0385264
          0.0385592 0.0385925 0.0386236 0.0386513 0.0386753 0.0386957 0.0387128 0.0387269 0.0387381 0.0387463 0.0387513 0.038753
          0.0364812 0.0364901 0.0365148 0.0365501 0.0365902 0.0366302 0.0366672 0.0366997 0.0367277 0.0367514 0.0367714 0.0367881
          0.0368014 0.0368112 0.0368173 0.0368194 0.0346147 0.0346258 0.0346564 0.0346996 0.0347478 0.0347951 0.0348382 0.0348759
          0.0349081 0.0349355 0.0349587 0.0349782 0.0349939 0.0350057 0.0350131 0.0350156 0.0328034 0.0328171 0.0328545 0.0329065
          0.0329634 0.0330185 0.0330681 0.0331112 0.033148 0.0331794 0.0332062 0.0332288 0.0332474 0.0332614 0.0332703 0.0332734
          0.0310278 0.0310445 0.0310895 0.031151 0.0312172 0.0312804 0.0313368 0.0313856 0.0314274 0.0314632 0.0314939 0.0315202
          0.0315419 0.0315587 0.0315694 0.0315731 0.0292811 0.0293012 0.0293546 0.0294262 0.029502 0.0295733 0.0296367 0.0296916
          0.0297388 0.0297794 0.0298146 0.0298449 0.0298704 0.0298903 0.0299032 0.0299078 0.0275588 0.0275827 0.0276451 0.0277271
          0.0278123 0.0278919 0.0279624 0.0280236 0.0280766 0.0281225 0.0281625 0.0281975 0.0282273 0.0282509 0.0282664 0.0282719
          0.0258545 0.0258826 0.0259547 0.0260471 0.0261415 0.0262289 0.0263065 0.0263742 0.0264332 0.0264848 0.0265303 0.0265704
          0.026605 0.0266329 0.0266516 0.0266582 0.0241582 0.0241912 0.0242737 0.0243766 0.0244794 0.024574 0.0246585 0.0247328
          0.0247981 0.0248557 0.0249069 0.0249526 0.0249926 0.0250254 0.0250479 0.0250559 0.022454 0.0224931 0.0225873 0.0227005
          0.022811 0.0229123 0.0230033 0.023084 0.0231556 0.0232194 0.0232766 0.0233283 0.0233742 0.0234126 0.0234394 0.0234492
          0.0207146 0.0207622 0.0208708 0.0209955 0.0211129 0.0212203 0.0213174 0.0214044 0.0214822 0.0215522 0.0216157 0.0216737
          0.0217258 0.0217704 0.0218023 0.0218142 0.0189152 0.0189706 0.0190895 0.0192203 0.0193447 0.0194585 0.0195618 0.019655
          0.0197392 0.0198156 0.0198854 0.0199501 0.0200089 0.0200602 0.0200984 0.0201128 0.0171326 0.0172009 0.0173326 0.0174691
          0.0175945 0.0177085 0.0178123 0.0179063 0.0179917 0.0180695 0.0181408 0.0182078 0.0182689 0.0183232 0.0183649 0.018381
          0.0152994 0.015391 0.0155409 0.0156848 0.0158127 0.0159281 0.0160329 0.0161278 0.0162141 0.0162931 0.0163654 0.0164341
          0.016497 0.0165538 0.016599 0.0166168 0.0131664 0.0133326 0.0135451 0.0137253 0.0138766 0.0140093 0.0141273 0.0142322
          0.0143263 0.0144112 0.0144879 0.0145608 0.0146267 0.0146867 0.0147357 0.0147558 0.00956496 0.0100261 0.0105146 0.010837
          0.0110856 0.0112972 0.0114807 0.0116397 0.0117788 0.0119019 0.0120106 0.0121133 0.0122045 0.0122879 0.0123577 0.012388
          0 0 0.00155902 0.0030069 0.00404284 0.0048373 0.00546878 0.00597216 0.00638184 0.00672265 0.00700532 0.0072626
          0.00747963 0.00767377 0.0078359 0.00791316 0 0 0 0 0 0 0 0
          0 0 0 0 0 0 0 0
        </DataArray>
        <DataArray type="Float32" Name="pn" NumberOfComponents="1" format="ascii">
          100003 100003 100002 100002 100003 100002 100003 100002 100003 100002 100003 100002
          100003 100002 100003 100002 100003 100002 100003 100002 100003 100002 100003 100002
          100003 100002 100003 100002 100003 100002 100003 100002 100002 100002 100002 100002
          100002 100002 100002 100002 100002 100002 100002 100002 100002 100002 100002 100002
          100002 100002 100002 100002 100002 100002 100002 100002 100002 100002 100002 100002
          100002 100002 100002 100002 100002 100002 100002 100002 100002 100002 100002 100002
          100002 100002 100002 100002 100002 100002 100002 100002 100001 100001 100001 100001
          100001 100001 100001 100001 100001 100001 100001 100001 100001 100001 100001 100001
          100001 100001 100001 100001 100001 100001 100001 100001 100001 100001 100001 100001
          100001 100001 100001 100001 100001 100001 100001 100001 100001 100001 100001 100001
          100001 100001 100001 100001 100001 100001 100001 100001 100001 100001 100001 100001
          100001 100001 100001 100001 100001 100001 100001 100001 100001 100001 100001 100001
          100001 100001 100001 100001 100001 100001 100001 100001 100001 100001 100001 100001
          100001 100001 100001 100001 100001 100001 100001 100001 100001 100001 100001 100001
          100001 100001 100001 100001 100001 100001 100001 100001 100001 100001 100001 100001
          100001 100001 100001 100001 100001 100001 100001 100001 100001 100001 100001 100001
          100000 100000 100000 100000 100000 100000 100000 100000 100000 100000 100000 100000
          100000 100000 100000 100000 100000 100000 100000 100000 100000 100000 100000 100000
          100000 100000 100000 100000 100000 100000 100000 100000 100000 100000 100000 100000
          100000 100000 100000 100000 100000 100000 100000 100000 100000 100000 100000 100000
          100000 100000 100000 100000 100000 100000 100000 100000 100000 100000 100000 100000
          100000 100000 100000 100000 100000 100000 100000 100000 100000 100000 100000 100000
          100000 100000 100000 100000 100000 100000 100000 100000 100000 100000 100000 100000
          100000 100000 100000 100000 100000 100000 100000 100000 100000 100000 100000 100000
          100000 100000 100000 100000 100000 100000 100000 100000 100000 100000 100000 100000
          100000 100000 100000 100000 100000 100000 100000 100000 100000 100000 100000 100000
          100000 100000 100000 100000 100000 100000 100000 100000 100000 100000 100000 100000
          100000 100000 100000 100000 100000 100000 100000 100000 100000 100000 100000 100000
          100000 100000 100000 100000 100000 100000 100000 100000 100000 100000 100000 100000
          100000 100000 100000 100000 100000 100000 100000 100000 100000 100000 100000 100000
          100000 100000 100000 100000 100000 100000 100000 100000
        </DataArray>
        <DataArray type="Float32" Name="pw" NumberOfComponents="1" format="ascii">
          98019.6 98019.6 97743 97743 98019.6 97743 98019.6 97743.1 98019.6 97743.1 98019.7 97743.2
          98019.7 97743.3 98019.8 97743.3 98019.8 97743.4 98019.8 97743.4 98019.9 97743.5 98019.9 97743.5
          98019.9 97743.5 98019.9 97743.6 98019.9 97743.6 98019.9 97743.6 97591.2 97591.2 97591.2 97591.3
          97591.5 97591.6 97591.7 97591.8 97591.9 97592 97592.1 97592.2 97592.2 97592.3 97592.3 97592.3
          97523.9 97524 97524.1 97524.2 97524.4 97524.6 97524.8 97525 97525.1 97525.3 97525.4 97525.5
          97525.6 97525.6 97525.6 97525.6 97488.9 97488.9 97489.1 97489.3 97489.6 97489.9 97490.1 97490.4
          97490.6 97490.8 97490.9 97491 97491.1 97491.2 97491.2 97491.2 97463.6 97463.7 97463.9 97464.2
          97464.6 97464.9 97465.3 97465.6 97465.9 97466.1 97466.3 97466.4 97466.5 97466.6 97466.7 97466.7
          97440.6 97440.7 97441 97441.4 97441.9 97442.4 97442.8 97443.2 97443.5 97443.8 97444 97444.2
          97444.4 97444.5 97444.6 97444.6 97417.6 97417.7 97418.1 97418.6 97419.3 97419.9 97420.4 97420.9
          97421.3 97421.6 97421.9 97422.1 97422.4 97422.5 97422.6 97422.6 97393.6 97393.8 97394.3 97395
          97395.8 97396.5 97397.2 97397.8 97398.3 97398.7 97399 97399.4 97399.6 97399.8 97399.9 97399.9
          97368.4 97368.6 97369.3 97370.2 97371.1 97372 97372.9 97373.6 97374.2 97374.7 97375.1 97375.5
          97375.8 97376.1 97376.2 97376.3 97341.6 97341.9 97342.8 97343.9 97345.1 97346.2 97347.2 97348
          97348.8 97349.4 97350 97350.4 97350.8 97351.1 97351.3 97351.4 97313 97313.4 97314.5 97315.9
          97317.3 97318.7 97319.9 97320.9 97321.8 97322.6 97323.2 97323.8 97324.3 97324.7 97325 97325.1
          97282.2 97282.7 97284.1 97285.8 97287.5 97289.2 97290.6 97291.8 97292.9 97293.9 97294.7 97295.4
          97296 97296.5 97296.9 97297 97248.6 97249.2 97250.9 97253.1 97255.2 97257.1 97258.8 97260.3
          97261.6 97262.7 97263.8 97264.7 97265.5 97266.1 97266.5 97266.7 97211.2 97212.1 97214.3 97216.9
          97219.4 97221.6 97223.7 97225.5 97227 97228.4 97229.7 97230.8 97231.8 97232.7 97233.2 97233.5
          97168.6 97169.8 97172.6 97175.8 97178.8 97181.5 97183.9 97186.1 97188 97189.7 97191.3 97192.7
          97194 97195 97195.8 97196.1 97118.5 97120.2 97123.7 97127.5 97131.1 97134.4 97137.3 97139.9
          97142.3 97144.4 97146.3 97148.1 97149.7 97151.1 97152.2 97152.6 97061.1 97063.4 97068 97072.6
          97076.8 97080.6 97084 97087.1 97089.8 97092.3 97094.6 97096.7 97098.7 97100.4 97101.7 97102.2
          96991 96994.8 97001 97006.8 97012 97016.5 97020.6 97024.3 97027.6 97030.6 97033.3 97035.9
          97038.2 97040.3 97041.9 97042.6 96897.3 96904.6 96914 96922 96928.6 96934.5 96939.7 96944.3
          96948.5 96952.2 96955.6 96958.8 96961.8 96964.4 96966.6 96967.5 96738.2 96758.6 96780.2 96794.4
          96805.4 96814.7 96822.8 96829.8 96836 96841.4 96846.2 96850.8 96854.8 96858.5 96861.5 96862.9
          96315.9 96315.9 96384.7 96448.7 96494.4 96529.5 96557.4 96579.6 96597.7 96612.7 96625.2 96636.6
          96646.1 96654.7 96661.9 96665.3 96315.9 96315.9 96315.9 96315.9 96315.9 96315.9 96315.9 96315.9
          96315.9 96315.9 96315.9 96315.9 96315.9 96315.9 96315.9 96315.9
        </DataArray>
        <DataArray type="Float32" Name="pc" NumberOfComponents="1" format="ascii">
          1983.25 1983.24 2259.48 2259.47 1983.23 2259.45 1983.21 2259.41 1983.19 2259.35 1983.16 2259.3
          1983.13 2259.23 1983.09 2259.17 1983.06 2259.11 1983.02 2259.06 1982.99 2259.02 1982.97 2258.98
          1982.94 2258.95 1982.93 2258.92 1982.92 2258.91 1982.91 2258.91 2411.02 2411 2410.93 2410.84
          2410.72 2410.59 2410.47 2410.35 2410.24 2410.15 2410.07 2410.01 2409.96 2409.92 2409.9 2409.89
          2477.98 2477.94 2477.83 2477.68 2477.49 2477.29 2477.09 2476.92 2476.76 2476.63 2476.51 2476.42
          2476.35 2476.3 2476.27 2476.26 2512.78 2512.72 2512.57 2512.34 2512.07 2511.79 2511.53 2511.29
          2511.08 2510.9 2510.76 2510.64 2510.54 2510.47 2510.43 2510.42 2537.85 2537.77 2537.55 2537.24
          2536.88 2536.51 2536.17 2535.86 2535.6 2535.38 2535.19 2535.03 2534.91 2534.82 2534.77 2534.75
          2560.63 2560.53 2560.24 2559.82 2559.34 2558.87 2558.44 2558.05 2557.72 2557.45 2557.21 2557.02
          2556.86 2556.75 2556.67 2556.65 2583.52 2583.38 2582.99 2582.45 2581.84 2581.24 2580.7 2580.22
          2579.82 2579.48 2579.18 2578.94 2578.74 2578.6 2578.5 2578.47 2607.34 2607.16 2606.65 2605.94
          2605.17 2604.42 2603.75 2603.17 2602.68 2602.26 2601.9 2601.59 2601.35 2601.16 2601.04 2601
          2632.45 2632.21 2631.55 2630.65 2629.68 2628.76 2627.95 2627.24 2626.64 2626.12 2625.68 2625.3
          2624.99 2624.75 2624.59 2624.54 2659.11 2658.79 2657.95 2656.82 2655.62 2654.5 2653.51 2652.65
          2651.92 2651.29 2650.74 2650.28 2649.88 2649.57 2649.37 2649.3 2687.61 2687.19 2686.12 2684.71
          2683.26 2681.91 2680.71 2679.68 2678.79 2678.02 2677.35 2676.76 2676.26 2675.87 2675.61 2675.52
          2718.33 2717.8 2716.45 2714.72 2712.96 2711.34 2709.91 2708.67 2707.59 2706.65 2705.82 2705.09
          2704.46 2703.96 2703.62 2703.5 2751.87 2751.19 2749.48 2747.37 2745.27 2743.35 2741.64 2740.14
          2738.84 2737.69 2736.67 2735.76 2734.97 2734.32 2733.88 2733.72 2789.13 2788.23 2786.07 2783.49
          2781 2778.72 2776.69 2774.9 2773.31 2771.91 2770.65 2769.52 2768.53 2767.69 2767.11 2766.9
          2831.68 2830.44 2827.64 2824.46 2821.48 2818.78 2816.35 2814.2 2812.28 2810.56 2809.01 2807.6
          2806.33 2805.26 2804.49 2804.2 2881.72 2880.07 2876.56 2872.73 2869.13 2865.87 2862.93 2860.3
          2857.94 2855.82 2853.88 2852.1 2850.49 2849.09 2848.05 2847.66 2939.12 2936.75 2932.22 2927.58
          2923.37 2919.58 2916.17 2913.1 2910.34 2907.84 2905.57 2903.44 2901.51 2899.81 2898.5 2898
          3009.14 3005.31 2999.14 2993.3 2988.19 2983.63 2979.54 2975.88 2972.57 2969.58 2966.85 2964.28
          2961.95 2959.85 2958.19 2957.54 3102.81 3095.48 3086.09 3078.14 3071.46 3065.6 3060.39 3055.76
          3051.6 3047.85 3044.47 3041.25 3038.34 3035.69 3033.53 3032.64 3261.82 3241.46 3219.9 3205.66
          3194.68 3185.34 3177.24 3170.22 3164.08 3158.64 3153.84 3149.31 3145.28 3141.6 3138.52 3137.18
          3684.13 3684.13 3615.3 3551.37 3505.63 3470.56 3442.68 3420.45 3402.36 3387.32 3374.83 3363.48
          3353.89 3345.32 3338.16 3334.75 3684.13 3684.13 3684.13 3684.13 3684.13 3684.13 3684.13 3684.13
          3684.13 3684.13 3684.13 3684.13 3684.13 3684.13 3684.13 3684.13
        </DataArray>
        <DataArray type="Float32" Name="rhoW" NumberOfComponents="1" format="ascii">
          997.055 997.055 997.056 997.056 997.055 997.056 997.055 997.056 997.055 997.056 997.055 997.056
          997.055 997.056 997.055 997.055 997.055 997.055 997.055 997.055 997.055 997.055 997.055 997.055
          997.055 997.055 997.055 997.055 997.055 997.055 997.055 997.055 997.057 997.057 997.057 997.057
          997.057 997.057 997.057 997.057 997.057 997.057 997.057 997.057 997.057 997.057 997.057 997.057
          997.06 997.06 997.06 997.06 997.06 997.06 997.06 997.06 997.06 997.059 997.059 997.059
          997.059 997.059 997.059 997.059 997.066 997.066 997.066 997.066 997.066 997.066 997.065 997.065
          997.065 997.065 997.064 997.064 997.064 997.064 997.064 997.064 997.076 997.076 997.076 997.075
          997.075 997.075 997.074 997.074 997.073 997.073 997.072 997.072 997.072 997.071 997.071 997.071
          997.089 997.089 997.089 997.089 997.089 997.088 997.087 997.087 997.086 997.085 997.084 997.084
          997.083 997.083 997.082 997.082 997.107 997.107 997.107 997.107 997.106 997.106 997.105 997.104
          997.103 997.101 997.1 997.099 997.098 997.098 997.097 997.097 997.127 997.127 997.128 997.128
          997.128 997.127 997.126 997.125 997.123 997.122 997.12 997.119 997.118 997.117 997.116 997.116
          997.15 997.15 997.151 997.152 997.152 997.152 997.151 997.149 997.147 997.145 997.143 997.142
          997.14 997.139 997.138 997.138 997.173 997.174 997.175 997.177 997.178 997.178 997.177 997.175
          997.173 997.171 997.169 997.167 997.165 997.164 997.163 997.163 997.196 997.197 997.2 997.202
          997.204 997.204 997.204 997.202 997.2 997.198 997.196 997.193 997.191 997.19 997.189 997.189
          997.218 997.219 997.223 997.227 997.229 997.23 997.23 997.229 997.227 997.225 997.222 997.22
          997.218 997.216 997.215 997.215 997.237 997.24 997.245 997.25 997.253 997.255 997.255 997.254
          997.252 997.25 997.248 997.246 997.244 997.242 997.241 997.24 997.254 997.258 997.264 997.271
          997.275 997.277 997.278 997.277 997.276 997.274 997.272 997.27 997.268 997.266 997.265 997.265
          997.269 997.274 997.282 997.29 997.295 997.298 997.299 997.299 997.297 997.296 997.294 997.292
          997.29 997.289 997.288 997.287 997.281 997.288 997.299 997.307 997.313 997.316 997.317 997.317
          997.317 997.315 997.314 997.312 997.311 997.309 997.308 997.308 997.29 997.3 997.313 997.323
          997.329 997.332 997.334 997.334 997.334 997.333 997.331 997.33 997.329 997.327 997.326 997.326
          997.297 997.311 997.326 997.336 997.343 997.346 997.348 997.349 997.348 997.348 997.346 997.345
          997.344 997.343 997.342 997.341 997.3 997.32 997.338 997.349 997.355 997.359 997.361 997.361
          997.361 997.361 997.36 997.359 997.358 997.357 997.356 997.355 997.301 997.328 997.349 997.36
          997.366 997.37 997.372 997.372 997.372 997.372 997.371 997.37 997.37 997.369 997.368 997.367
          997.302 997.338 997.359 997.37 997.376 997.379 997.381 997.382 997.382 997.382 997.381 997.381
          997.38 997.38 997.379 997.377 997.304 997.352 997.377 997.386 997.391 997.394 997.396 997.396
          997.396 997.396 997.395 997.394 997.394 997.393 997.393 997.39
        </DataArray>
        <DataArray type="Float32" Name="rhoN" NumberOfComponents="1" format="ascii">
          1.15431 1.15431 1.15432 1.15432 1.15431 1.15432 1.15431 1.15432 1.15431 1.15432 1.15431 1.15432
          1.15431 1.15432 1.15431 1.15432 1.15431 1.15432 1.15431 1.15432 1.15431 1.15432 1.15431 1.15432
          1.15431 1.15432 1.15431 1.15432 1.15431 1.15432 1.15431 1.15432 1.15434 1.15434 1.15434 1.15434
          1.15434 1.15434 1.15434 1.15434 1.15434 1.15434 1.15434 1.15434 1.15434 1.15433 1.15433 1.15433
          1.1544 1.1544 1.1544 1.1544 1.1544 1.15439 1.15439 1.15439 1.15439 1.15438 1.15438 1.15438
          1.15438 1.15438 1.15438 1.15438 1.15451 1.15451 1.15451 1.1545 1.1545 1.1545 1.15449 1.15449
          1.15448 1.15448 1.15447 1.15447 1.15446 1.15446 1.15446 1.15446 1.15468 1.15468 1.15468 1.15467
          1.15467 1.15466 1.15465 1.15464 1.15463 1.15463 1.15462 1.15461 1.1546 1.1546 1.1546 1.15459
          1.15492 1.15492 1.15492 1.15492 1.15491 1.15491 1.15489 1.15488 1.15486 1.15485 1.15483 1.15482
          1.15481 1.1548 1.1548 1.1548 1.15524 1.15525 1.15525 1.15524 1.15524 1.15523 1.15521 1.15519
          1.15517 1.15515 1.15513 1.15511 1.15509 1.15508 1.15508 1.15507 1.15562 1.15563 1.15563 1.15564
          1.15563 1.15562 1.15561 1.15558 1.15555 1.15552 1.1555 1.15547 1.15545 1.15543 1.15542 1.15542
          1.15604 1.15605 1.15606 1.15608 1.15608 1.15608 1.15606 1.15603 1.156 1.15596 1.15592 1.15589
          1.15587 1.15584 1.15583 1.15583 1.15648 1.15649 1.15652 1.15654 1.15656 1.15656 1.15654 1.15652
          1.15648 1.15644 1.1564 1.15636 1.15633 1.1563 1.15629 1.15628 1.1569 1.15692 1.15697 1.15701
          1.15705 1.15706 1.15704 1.15702 1.15698 1.15694 1.15689 1.15685 1.15682 1.15679 1.15677 1.15676
          1.15731 1.15734 1.1574 1.15747 1.15752 1.15754 1.15754 1.15751 1.15748 1.15744 1.15739 1.15735
          1.15731 1.15728 1.15726 1.15725 1.15767 1.15772 1.15781 1.15791 1.15797 1.158 1.15801 1.15799
          1.15796 1.15792 1.15787 1.15783 1.1578 1.15776 1.15774 1.15773 1.158 1.15806 1.15819 1.1583
          1.15839 1.15843 1.15844 1.15843 1.1584 1.15837 1.15833 1.15829 1.15825 1.15822 1.1582 1.15819
          1.15827 1.15836 1.15853 1.15867 1.15876 1.15882 1.15884 1.15883 1.15881 1.15878 1.15875 1.15871
          1.15868 1.15865 1.15863 1.15862 1.1585 1.15863 1.15883 1.159 1.1591 1.15916 1.15919 1.15919
          1.15918 1.15915 1.15912 1.15909 1.15906 1.15904 1.15902 1.159 1.15867 1.15886 1.15911 1.15929
          1.1594 1.15947 1.1595 1.15951 1.1595 1.15948 1.15945 1.15943 1.1594 1.15938 1.15936 1.15935
          1.15879 1.15906 1.15936 1.15955 1.15967 1.15974 1.15978 1.15979 1.15978 1.15977 1.15974 1.15972
          1.1597 1.15968 1.15967 1.15965 1.15887 1.15924 1.15959 1.15979 1.15991 1.15998 1.16002 1.16003
          1.16003 1.16002 1.16 1.15998 1.15996 1.15995 1.15993 1.15991 1.15889 1.1594 1.15979 1.16
          1.16012 1.16019 1.16023 1.16024 1.16024 1.16023 1.16022 1.1602 1.16019 1.16018 1.16016 1.16013
          1.16118 1.16133 1.16 1.1602 1.16031 1.16038 1.16042 1.16043 1.16043 1.16043 1.16041 1.1604
          1.16039 1.16038 1.16037 1.16033 1.165 1.1654 1.16521 1.16507 1.16499 1.1649 1.16481 1.16472
          1.16463 1.16453 1.16444 1.16434 1.16425 1.16416 1.16407 1.16397
        </DataArray>
        <DataArray type="Float32" Name="mobW" NumberOfComponents="1" format="ascii">
          6.45284 6.45305 0.62559 0.625637 6.45369 0.625773 6.45473 0.625986 6.4561 0.626256 6.45775 0.626561
          6.45959 0.626881 6.46153 0.627198 6.46348 0.627497 6.46534 0.62777 6.46705 0.628009 6.46853 0.628209
          6.46973 0.628367 6.47062 0.628482 6.47116 0.628552 6.47134 0.628575 0.18521 0.185242 0.185335 0.185476
          0.185647 0.185832 0.186017 0.18619 0.186346 0.186482 0.186597 0.186692 0.186766 0.186819 0.186851 0.186862
          0.110089 0.110121 0.110212 0.110347 0.110509 0.11068 0.110846 0.110998 0.111132 0.111248 0.111345 0.111424
          0.111487 0.111532 0.111559 0.111568 0.0843525 0.0843882 0.0844889 0.0846372 0.0848116 0.0849923 0.0851647 0.0853208
          0.0854573 0.0855741 0.0856722 0.0857526 0.085816 0.0858622 0.0858903 0.0858998 0.0697261 0.069767 0.0698812 0.0700477
          0.0702405 0.0704372 0.0706223 0.0707881 0.0709322 0.0710552 0.0711588 0.0712444 0.0713125 0.0713624 0.0713931 0.0714035
          0.058699 0.0587453 0.058874 0.0590591 0.0592704 0.0594827 0.0596802 0.0598555 0.0600073 0.0601371 0.060247 0.0603385
          0.060412 0.0604665 0.0605003 0.0605118 0.0494235 0.0494752 0.0496175 0.0498196 0.0500467 0.0502716 0.0504786 0.0506613
          0.0508192 0.0509547 0.0510701 0.0511672 0.051246 0.0513051 0.0513422 0.0513548 0.0413718 0.0414283 0.0415824 0.0417982
          0.0420369 0.0422703 0.0424831 0.0426703 0.0428323 0.0429718 0.0430916 0.0431933 0.043277 0.0433405 0.0433808 0.0433947
          0.0343484 0.0344089 0.0345724 0.0347978 0.0350431 0.0352801 0.0354949 0.0356835 0.0358472 0.035989 0.0361118 0.0362172
          0.036305 0.0363726 0.036416 0.036431 0.0282408 0.0283044 0.0284743 0.0287043 0.0289509 0.0291866 0.0293994 0.0295866
          0.0297497 0.029892 0.0300163 0.0301242 0.0302152 0.0302864 0.0303327 0.0303489 0.0229558 0.0230214 0.0231941 0.0234237
          0.0236658 0.0238954 0.0241025 0.0242854 0.0244458 0.0245867 0.024711 0.02482 0.0249133 0.0249874 0.0250364 0.0250536
          0.0184048 0.0184713 0.0186435 0.0188674 0.0190996 0.0193184 0.0195163 0.0196921 0.0198474 0.0199851 0.0201075 0.0202162
          0.0203105 0.0203868 0.020438 0.0204563 0.0145027 0.0145694 0.0147378 0.0149512 0.0151685 0.0153724 0.0155577 0.0157235
          0.0158714 0.0160036 0.0161223 0.016229 0.0163228 0.0164001 0.0164532 0.0164723 0.0111683 0.0112347 0.011397 0.011596
          0.0117941 0.0119795 0.0121491 0.0123022 0.01244 0.0125644 0.0126773 0.0127799 0.0128715 0.0129485 0.0130025 0.0130224
          0.00832409 0.00839078 0.00854598 0.00872832 0.00890383 0.00906791 0.00921908 0.00935684 0.00948212 0.00959627 0.00970082 0.00979722
          0.00988442 0.00995927 0.0100134 0.0100336 0.00592472 0.00598685 0.00612366 0.00627842 0.00642934 0.00657041 0.00670121 0.0068214
          0.00693175 0.00703324 0.00712698 0.00721475 0.00729512 0.00736571 0.00741861 0.00743883 0.00404002 0.00409988 0.0042192 0.00434682
          0.00446714 0.00457927 0.00468352 0.00477973 0.00486859 0.00495081 0.00502711 0.00509946 0.00516618 0.00522587 0.00527206 0.00529011
          0.00255786 0.00261827 0.0027209 0.00282302 0.00291643 0.00300294 0.00308335 0.00315765 0.0032265 0.00329045 0.00334989 0.00340699
          0.00345983 0.00350798 0.00354661 0.00356214 0.00133938 0.0014141 0.0015143 0.00160339 0.00168106 0.00175138 0.00181573 0.00187436
          0.00192808 0.00197752 0.00202294 0.0020667 0.00210684 0.00214379 0.00217434 0.00218708 0.000264905 0.000345485 0.000446498 0.000522567
          0.000586601 0.000644975 0.000698595 0.000747329 0.000791784 0.000832544 0.000869653 0.000905665 0.000938469 0.000969098 0.000995251 0.00100686
          0 0 0 0 0 0 4.63559e-07 3.53608e-06 9.41807e-06 1.74057e-05 2.65793e-05 3.7206e-05
          4.80236e-05 5.92485e-05 6.98122e-05 7.5255e-05 0 0 0 0 0 0 0 0
          0 0 0 0 0 0 0 0
        </DataArray>
        <DataArray type="Float32" Name="mobN" NumberOfComponents="1" format="ascii">
          40724.2 40724 49884.8 49884.6 40723.5 49883.9 40722.6 49882.9 40721.5 49881.6 40720.1 49880.1
          40718.5 49878.6 40716.9 49877.1 40715.2 49875.6 40713.6 49874.3 40712.2 49873.1 40710.9 49872.2
          40709.9 49871.4 40709.2 49870.9 40708.7 49870.5 40708.6 49870.4 52800.8 52800.5 52799.6 52798.3
          52796.6 52794.8 52793.1 52791.4 52789.9 52788.6 52787.5 52786.6 52785.9 52785.3 52785 52784.9
          53605.4 53605 53603.9 53602.3 53600.3 53598.2 53596.2 53594.3 53592.7 53591.2 53590.1 53589.1
          53588.3 53587.7 53587.4 53587.3 53935.5 53935 53933.7 53931.6 53929.2 53926.8 53924.4 53922.2
          53920.3 53918.6 53917.3 53916.1 53915.2 53914.6 53914.2 53914 54143.4 54142.8 54141.1 54138.7
          54135.8 54132.8 54130 54127.5 54125.2 54123.3 54121.7 54120.4 54119.3 54118.5 54118 54117.8
          54313.7 54313 54311 54308 54304.6 54301.2 54297.9 54295 54292.4 54290.2 54288.3 54286.7
          54285.4 54284.4 54283.8 54283.6 54468.6 54467.8 54465.4 54462 54458.2 54454.2 54450.6 54447.2
          54444.3 54441.7 54439.5 54437.6 54436 54434.9 54434.2 54433.9 54614 54613 54610.4 54606.6
          54602.3 54598 54593.9 54590.2 54586.9 54583.9 54581.4 54579.2 54577.4 54576 54575.1 54574.8
          54751.1 54750.1 54747.1 54743.1 54738.5 54733.8 54729.4 54725.4 54721.7 54718.5 54715.6 54713.1
          54711 54709.4 54708.3 54708 54880.1 54878.9 54875.9 54871.6 54866.9 54862 54857.4 54853.1
          54849.2 54845.6 54842.4 54839.6 54837.2 54835.4 54834.2 54833.8 55000.8 54999.7 54996.6 54992.3
          54987.5 54982.6 54977.9 54973.4 54969.3 54965.4 54962 54958.9 54956.3 54954.2 54952.8 54952.3
          55113.3 55112.3 55109.3 55105.2 55100.5 55095.7 55090.9 55086.3 55082 55078.1 55074.4 55071.1
          55068.2 55065.9 55064.4 55063.8 55218 55217 55214.3 55210.5 55206 55201.4 55196.7 55192.1
          55187.8 55183.7 55179.9 55176.5 55173.4 55170.9 55169.2 55168.6 55315.2 55314.5 55312.2 55308.7