<?xml version="1.0"?>
<VTKFile type="UnstructuredGrid" version="0.1" byte_order="LittleEndian">
  <UnstructuredGrid>
    <Piece NumberOfCells="345" NumberOfPoints="384">
      <PointData Scalars="temperature" Vectors="v">
        <DataArray type="Float32" Name="temperature" NumberOfComponents="1" format="ascii">
          297.188 296.989 297.492 296.679 296.883 296.214 296.844 295.997 296.82 295.931 296.806 295.914
          296.799 295.908 296.796 295.904 296.796 295.9 296.797 295.894 296.8 295.888 296.802 295.88
          296.804 295.872 296.805 295.862 296.808 295.856 296.819 295.85 298.047 297.599 297.081 296.612
          296.245 295.979 295.79 295.656 295.558 295.484 295.424 295.374 295.329 295.288 295.251 295.233
          298.156 298.076 297.923 297.712 297.469 297.215 296.967 296.735 296.522 296.331 296.159 296.006
          295.869 295.746 295.634 295.579 298.167 298.16 298.141 298.106 298.052 297.98 297.892 297.79
          297.679 297.56 297.436 297.309 297.182 297.056 296.93 296.865 298.169 298.169 298.167 298.165
          298.159 298.151 298.138 298.121 298.099 298.072 298.04 298.003 297.961 297.915 297.865 297.837
          298.17 298.17 298.17 298.17 298.17 298.169 298.168 298.167 298.165 298.162 298.158 298.154
          298.148 298.141 298.132 298.128 298.171 298.171 298.171 298.171 298.171 298.171 298.171 298.171
          298.171 298.171 298.171 298.171 298.17 298.17 298.169 298.169 298.173 298.173 298.173 298.173
          298.173 298.173 298.173 298.173 298.173 298.173 298.173 298.173 298.173 298.173 298.173 298.173
          298.175 298.175 298.175 298.175 298.175 298.175 298.175 298.175 298.175 298.175 298.175 298.175
          298.175 298.175 298.175 298.175 298.178 298.178 298.178 298.178 298.178 298.178 298.178 298.178
          298.178 298.178 298.178 298.178 298.178 298.178 298.178 298.178 298.181 298.181 298.181 298.181
          298.181 298.181 298.181 298.181 298.181 298.181 298.181 298.181 298.181 298.181 298.181 298.181
          298.185 298.185 298.185 298.185 298.185 298.185 298.185 298.185 298.185 298.185 298.185 298.185
          298.185 298.185 298.185 298.185 298.19 298.19 298.19 298.19 298.19 298.19 298.19 298.19
          298.19 298.19 298.19 298.19 298.19 298.19 298.19 298.19 298.197 298.197 298.197 298.197
          298.197 298.197 298.197 298.197 298.197 298.197 298.197 298.197 298.197 298.197 298.197 298.197
          298.205 298.205 298.205 298.205 298.205 298.205 298.205 298.205 298.205 298.205 298.205 298.205
          298.205 298.205 298.205 298.205 298.216 298.216 298.216 298.216 298.216 298.216 298.216 298.216
          298.216 298.216 298.216 298.216 298.216 298.216 298.216 298.216 298.231 298.231 298.231 298.231
          298.231 298.231 298.231 298.231 298.231 298.231 298.231 298.231 298.231 298.231 298.231 298.231
          298.253 298.253 298.253 298.253 298.253 298.253 298.253 298.253 298.253 298.253 298.253 298.253
          298.253 298.253 298.253 298.253 298.286 298.286 298.286 298.286 298.286 298.286 298.286 298.286
          298.286 298.286 298.286 298.286 298.286 298.286 298.286 298.286 298.342 298.342 298.342 298.342
          298.342 298.342 298.342 298.342 298.342 298.342 298.342 298.342 298.342 298.342 298.342 298.342
          298.457 298.457 298.457 298.457 298.457 298.458 298.458 298.458 298.458 298.458 298.458 298.458
          298.458 298.458 298.458 298.458 298.82 298.82 298.82 298.82 298.82 298.82 298.82 298.82
          298.82 298.82 298.82 298.82 298.82 298.82 298.82 298.82 298.15 298.152 298.154 298.155
          298.154 298.152 298.151 298.149 298.148 298.146 298.145 298.144 298.143 298.143 298.142 298.15
        </DataArray>
        <DataArray type="Float32" Name="pg" NumberOfComponents="1" format="ascii">
          100000 100000 100000 100000 100000 100000 100000 100000 100000 100000 100000 100000
          100000 100000 100000 100000 100000 100000 100000 100000 100000 100000 100000 100000
          100000 100000 100000 100000 100000 100000 100000 100000 100000 100000 100000 100000
          100000 100000 100000 100000 100000 100000 100000 100000 100000 100000 100000 100000
          100000 100000 100000 100000 100000 100000 100000 100000 100000 100000 100000 100000
          100000 100000 100000 100000 100000 100000 100000 100000 100000 100000 100000 100000
          100000 100000 100000 100000 100000 100000 100000 100000 100000 100000 100000 100000
          100000 100000 100000 100000 100000 100000 100000 100000 100000 100000 100000 100000
          100000 100000 100000 100000 100000 100000 100000 100000 100000 100000 100000 100000
          100000 100000 100000 100000 100000 100000 100000 100000 100000 100000 100000 100000
          100000 100000 100000 100000 100000 100000 100000 100000 100000 100000 100000 100000
          100000 100000 100000 100000 100000 100000 100000 100000 100000 100000 100000 100000
          100000 100000 100000 100000 100000 100000 100000 100000 100000 100000 100000 100000
          100000 100000 100000 100000 100000 100000 100000 100000 100000 100000 100000 100000
          100000 100000 100000 100000 100000 100000 100000 100000 100000 100000 100000 100000
          100000 100000 100000 100000 100000 100000 100000 100000 100000 100000 100000 100000
          100000 100000 100000 100000 100000 100000 100000 100000 100000 100000 100000 100000
          100000 100000 100000 100000 100000 100000 100000 100000 100000 100000 100000 100000
          100000 100000 100000 100000 100000 100000 100000 100000 100000 100000 100000 100000
          100000 100000 100000 100000 100000 100000 100000 100000 100000 100000 100000 100000
          100000 100000 100000 100000 100000 100000 100000 100000 100000 100000 100000 100000
          100000 100000 100000 100000 100000 100000 100000 100000 100000 100000 100000 100000
          100000 100000 100000 100000 100000 100000 100000 100000 100000 100000 100000 100000
          100000 100000 100000 100000 100000 100000 100000 100000 100000 100000 100000 100000
          100000 100000 100000 100000 100000 100000 100000 100000 100000 100000 100000 100000
          100000 100000 100000 100000 100000 100000 100000 100000 100000 100000 100000 100000
          100000 100000 100000 100000 100000 100000 100000 100000 100000 100000 100000 100000
          100000 100000 100000 100000 100000 100000 100000 100000 100000 100000 100000 100000
          100000 100000 100000 100000 100000 100000 100000 100000 100000 100000 100000 100000
          100000 100000 100000 100000 100000 100000 100000 100000 100000 100000 100000 100000
          100000 100000 100000 100000 100000 100000 100000 100000 100000 100000 100000 100000
          100000 100000 100000 100000 100000 100000 100000 100000 100000 100000 100000 100000
        </DataArray>
        <DataArray type="Float32" Name="delP" NumberOfComponents="1" format="ascii">
          0.00203936 0.00189037 0.00203931 0.00189032 0.00175395 0.001763 0.00161899 0.00162719 0.00148508 0.00149105 0.00135275 0.00135297
          0.001219 0.00121626 0.0010846 0.00108014 0.000949217 0.000944957 0.000813577 0.000810046 0.000677602 0.000675399 0.000541805 0.000540678
          0.000405894 0.000405907 0.000270423 0.000270947 0.00013477 0.000135867 0 0 0.00201568 0.00189071 0.0017513 0.00161811
          0.00148479 0.00135264 0.00121896 0.00108457 0.000949186 0.000813543 0.000677565 0.000541768 0.000405862 0.000270399 0.000134799 0
          0.00202689 0.00189318 0.00176068 0.00162466 0.00148826 0.00135086 0.0012147 0.00107903 0.00094416 0.000809457 0.000674938 0.000540308
          0.000405586 0.000270688 0.000135592 0 0.00202446 0.00189033 0.00175388 0.00162003 0.00148598 0.00135263 0.00121816 0.00108328
          0.000947698 0.000812022 0.000676117 0.000540434 0.000404661 0.00026936 0.000133763 0 0.00202738 0.00189315 0.00175971 0.00162415
          0.00148838 0.00135181 0.00121602 0.00108044 0.000945402 0.000810432 0.000675603 0.000540682 0.000405694 0.000270601 0.00013534 0
          0.00202567 0.00189082 0.00175507 0.00162082 0.00148641 0.00135249 0.00121783 0.00108295 0.000947546 0.000812091 0.000676423 0.000540925
          0.000405326 0.000270067 0.000134717 0 0.00202799 0.00189315 0.001759 0.00162358 0.0014881 0.00135203 0.00121646 0.00108096
          0.000945851 0.000810765 0.000675807 0.000540784 0.00040573 0.000270603 0.000135385 0 0.00202652 0.00189137 0.00175597 0.00162139
          0.0014867 0.00135233 0.00121749 0.00108255 0.000947218 0.000811875 0.000676351 0.000540958 0.000405475 0.000270237 0.000134949 0
          0.00202842 0.00189326 0.00175862 0.00162325 0.00148793 0.00135218 0.00121677 0.00108132 0.000946159 0.000810983 0.000675921 0.000540808
          0.000405691 0.000270525 0.000135298 0 0.00202724 0.00189194 0.0017567 0.00162185 0.00148696 0.00135227 0.00121729 0.00108227
          0.000946997 0.00081172 0.000676304 0.000540979 0.000405582 0.000270348 0.000135084 0 0.00202877 0.00189345 0.0017585 0.00162312
          0.00148787 0.00135231 0.00121699 0.00108158 0.00094639 0.000811156 0.000676022 0.000540844 0.000405682 0.000270485 0.000135254 0
          0.00202786 0.0018925 0.00175729 0.00162224 0.00148722 0.00135228 0.00121721 0.00108212 0.000946872 0.000811624 0.000676283 0.000540997
          0.000405663 0.000270424 0.000135167 0 0.00202908 0.00189369 0.00175855 0.00162316 0.00148791 0.00135245 0.00121717 0.00108179
          0.000946571 0.000811296 0.000676116 0.00054089 0.000405697 0.000270473 0.00013524 0 0.00202842 0.00189302 0.0017578 0.0016226
          0.00148748 0.00135237 0.00121723 0.00108206 0.000946829 0.00081158 0.00067629 0.000541017 0.000405725 0.000270474 0.00013522 0
          0.0020294 0.00189398 0.00175873 0.00162331 0.00148803 0.0013526 0.00121733 0.00108196 0.000946721 0.000811414 0.000676205 0.00054094
          0.000405728 0.000270478 0.000135246 0 0.00202893 0.0018935 0.00175825 0.00162295 0.00148776 0.00135252 0.00121733 0.00108209
          0.000946855 0.000811585 0.000676321 0.000541042 0.000405776 0.000270507 0.000135257 0 0.00202977 0.00189432 0.00175899 0.00162353
          0.00148822 0.00135278 0.00121749 0.0010821 0.000946852 0.000811516 0.000676288 0.000540991 0.000405769 0.000270493 0.000135265 0
          0.00202944 0.00189395 0.00175867 0.00162328 0.00148804 0.00135271 0.00121748 0.00108217 0.000946928 0.000811624 0.000676371 0.000541072
          0.00040582 0.000270529 0.000135287 0 0.00203027 0.00189473 0.00175933 0.00162378 0.00148843 0.00135294 0.00121764 0.00108222
          0.000946954 0.000811591 0.000676353 0.000541031 0.000405805 0.000270507 0.000135286 0 0.00203 0.00189435 0.00175904 0.00162356
          0.00148829 0.00135289 0.00121763 0.00108227 0.000947008 0.00081167 0.000676416 0.000541096 0.00040585 0.000270541 0.000135306 0
          0.0020312 0.00189511 0.00175966 0.00162392 0.00148856 0.001353 0.00121769 0.00108225 0.000946978 0.000811606 0.000676363 0.000541034
          0.000405808 0.000270506 0.000135287 0 0.00202961 0.00189436 0.00175905 0.00162368 0.00148836 0.00135297 0.00121766 0.00108229
          0.000947007 0.00081166 0.0006764 0.000541079 0.000405832 0.000270531 0.000135295 0 0.00202976 0.0018945 0.00175917 0.00162366
          0.00148824 0.00135278 0.00121745 0.00108207 0.000946801 0.000811474 0.000676237 0.000540944 0.000405725 0.000270458 0.000135217 0
        </DataArray>
        <DataArray type="Float32" Name="XH2Og" NumberOfComponents="1" format="ascii">
          0.00992562 0.0104601 0.00834658 0.00895507 0.0113316 0.00950935 0.0117464 0.00995477 0.0120018 0.010286 0.012201 0.0105435
          0.012365 0.0107541 0.0125098 0.010934 0.0126449 0.0110938 0.0127746 0.0112401 0.0129003 0.0113768 0.013025 0.0115068
          0.0131468 0.0116315 0.013268 0.0117523 0.0133794 0.0118677 0.0134666 0.0119308 0.00803911 0.00818722 0.00839345 0.0086222
          0.00884768 0.00905767 0.00924908 0.00942279 0.00958112 0.00972666 0.00986184 0.00998872 0.0101089 0.0102237 0.010334 0.0103893
          0.00800784 0.00802498 0.00806046 0.00811393 0.00818212 0.00826089 0.00834644 0.00843576 0.0085267 0.00861783 0.00870819 0.00879723
          0.00888467 0.00897042 0.00905481 0.00909615 0.00800594 0.00800707 0.00801024 0.00801644 0.00802634 0.00804025 0.00805821 0.00808004
          0.00810541 0.00813396 0.00816529 0.00819903 0.00823483 0.00827237 0.00831153 0.00833058 0.00800619 0.00800624 0.0080064 0.00800678
          0.00800753 0.00800878 0.00801066 0.0080133 0.00801679 0.0080212 0.00802659 0.00803298 0.0080404 0.00804884 0.00805833 0.00806291
          0.00800653 0.00800653 0.00800654 0.00800655 0.00800658 0.00800665 0.00800676 0.00800693 0.00800718 0.00800753 0.00800801 0.00800863
          0.00800942 0.00801039 0.00801158 0.00801217 0.00800698 0.00800698 0.00800698 0.00800698 0.00800698 0.00800699 0.00800699 0.008007
          0.00800701 0.00800702 0.00800705 0.00800708 0.00800713 0.00800719 0.00800727 0.00800732 0.0080075 0.00800751 0.00800751 0.00800751
          0.00800751 0.00800751 0.00800752 0.00800752 0.00800752 0.00800752 0.00800752 0.00800753 0.00800753 0.00800753 0.00800754 0.00800755
          0.0080082 0.0080082 0.0080082 0.0080082 0.0080082 0.0080082 0.0080082 0.00800821 0.00800821 0.00800821 0.00800821 0.00800821
          0.00800821 0.00800821 0.00800821 0.00800822 0.00800904 0.00800904 0.00800904 0.00800904 0.00800904 0.00800905 0.00800905 0.00800905
          0.00800905 0.00800905 0.00800905 0.00800905 0.00800906 0.00800906 0.00800906 0.00800906 0.0080101 0.00801011 0.00801011 0.00801011
          0.00801011 0.00801011 0.00801011 0.00801012 0.00801012 0.00801012 0.00801012 0.00801012 0.00801012 0.00801012 0.00801012 0.00801012
          0.00801142 0.00801143 0.00801143 0.00801143 0.00801143 0.00801143 0.00801143 0.00801144 0.00801144 0.00801144 0.00801144 0.00801144
          0.00801144 0.00801144 0.00801144 0.00801144 0.00801309 0.00801309 0.00801309 0.00801309 0.0080131 0.0080131 0.0080131 0.0080131
          0.0080131 0.0080131 0.00801311 0.00801311 0.00801311 0.00801311 0.00801311 0.00801311 0.0080152 0.0080152 0.0080152 0.00801521
          0.00801521 0.00801521 0.00801521 0.00801521 0.00801521 0.00801522 0.00801522 0.00801522 0.00801522 0.00801522 0.00801522 0.00801522
          0.00801793 0.00801793 0.00801793 0.00801793 0.00801794 0.00801794 0.00801794 0.00801794 0.00801794 0.00801795 0.00801795 0.00801795
          0.00801795 0.00801795 0.00801795 0.00801795 0.00802153 0.00802154 0.00802154 0.00802154 0.00802154 0.00802154 0.00802155 0.00802155
          0.00802155 0.00802155 0.00802155 0.00802156 0.00802156 0.00802156 0.00802156 0.00802156 0.00802646 0.00802646 0.00802646 0.00802646
          0.00802647 0.00802647 0.00802647 0.00802648 0.00802648 0.00802648 0.00802648 0.00802648 0.00802649 0.00802649 0.00802649 0.00802649
          0.0080335 0.0080335 0.00803351 0.00803351 0.00803351 0.00803352 0.00803352 0.00803353 0.00803353 0.00803353 0.00803353 0.00803354
          0.00803354 0.00803354 0.00803354 0.00803355 0.00804428 0.00804428 0.00804428 0.00804429 0.0080443 0.0080443 0.0080443 0.00804431
          0.00804431 0.00804432 0.00804432 0.00804432 0.00804433 0.00804433 0.00804433 0.00804434 0.00806261 0.00806261 0.00806262 0.00806263
          0.00806264 0.00806264 0.00806265 0.00806266 0.00806267 0.00806268 0.00806268 0.00806269 0.0080627 0.0080627 0.00806271 0.00806272
          0.00810017 0.00810019 0.00810021 0.00810024 0.00810026 0.00810029 0.00810031 0.00810034 0.00810036 0.00810039 0.00810041 0.00810043
          0.00810045 0.00810047 0.00810049 0.00810051 0.00821835 0.00821823 0.00821812 0.008218 0.00821788 0.00821776 0.00821764 0.00821753
          0.00821741 0.00821729 0.00821717 0.00821705 0.00821694 0.00821682 0.00821671 0.00821665 0.008 0.00800128 0.00800231 0.00800286
          0.0080031 0.00800312 0.00800306 0.00800296 0.00800289 0.00800287 0.00800292 0.00800304 0.00800325 0.00800353 0.00800389 0.008
        </DataArray>
        <DataArray type="Float32" Name="XAirg" NumberOfComponents="1" format="ascii">
          0.990074 0.98954 0.991653 0.991045 0.988668 0.990491 0.988254 0.990045 0.987998 0.989714 0.987799 0.989456
          0.987635 0.989246 0.98749 0.989066 0.987355 0.988906 0.987225 0.98876 0.9871 0.988623 0.986975 0.988493
          0.986853 0.988368 0.986732 0.988248 0.986621 0.988132 0.986533 0.988069 0.991961 0.991813 0.991607 0.991378
          0.991152 0.990942 0.990751 0.990577 0.990419 0.990273 0.990138 0.990011 0.989891 0.989776 0.989666 0.989611
          0.991992 0.991975 0.99194 0.991886 0.991818 0.991739 0.991654 0.991564 0.991473 0.991382 0.991292 0.991203
          0.991115 0.99103 0.990945 0.990904 0.991994 0.991993 0.99199 0.991984 0.991974 0.99196 0.991942 0.99192
          0.991895 0.991866 0.991835 0.991801 0.991765 0.991728 0.991688 0.991669 0.991994 0.991994 0.991994 0.991993
          0.991992 0.991991 0.991989 0.991987 0.991983 0.991979 0.991973 0.991967 0.99196 0.991951 0.991942 0.991937
          0.991993 0.991993 0.991993 0.991993 0.991993 0.991993 0.991993 0.991993 0.991993 0.991992 0.991992 0.991991
          0.991991 0.99199 0.991988 0.991988 0.991993 0.991993 0.991993 0.991993 0.991993 0.991993 0.991993 0.991993
          0.991993 0.991993 0.991993 0.991993 0.991993 0.991993 0.991993 0.991993 0.991992 0.991992 0.991992 0.991992
          0.991992 0.991992 0.991992 0.991992 0.991992 0.991992 0.991992 0.991992 0.991992 0.991992 0.991992 0.991992
          0.991992 0.991992 0.991992 0.991992 0.991992 0.991992 0.991992 0.991992 0.991992 0.991992 0.991992 0.991992
          0.991992 0.991992 0.991992 0.991992 0.991991 0.991991 0.991991 0.991991 0.991991 0.991991 0.991991 0.991991
          0.991991 0.991991 0.991991 0.991991 0.991991 0.991991 0.991991 0.991991 0.99199 0.99199 0.99199 0.99199
          0.99199 0.99199 0.99199 0.99199 0.99199 0.99199 0.99199 0.99199 0.99199 0.99199 0.99199 0.99199
          0.991989 0.991989 0.991989 0.991989 0.991989 0.991989 0.991989 0.991989 0.991989 0.991989 0.991989 0.991989
          0.991989 0.991989 0.991989 0.991989 0.991987 0.991987 0.991987 0.991987 0.991987 0.991987 0.991987 0.991987
          0.991987 0.991987 0.991987 0.991987 0.991987 0.991987 0.991987 0.991987 0.991985 0.991985 0.991985 0.991985
          0.991985 0.991985 0.991985 0.991985 0.991985 0.991985 0.991985 0.991985 0.991985 0.991985 0.991985 0.991985
          0.991982 0.991982 0.991982 0.991982 0.991982 0.991982 0.991982 0.991982 0.991982 0.991982 0.991982 0.991982
          0.991982 0.991982 0.991982 0.991982 0.991978 0.991978 0.991978 0.991978 0.991978 0.991978 0.991978 0.991978
          0.991978 0.991978 0.991978 0.991978 0.991978 0.991978 0.991978 0.991978 0.991974 0.991974 0.991974 0.991974
          0.991974 0.991974 0.991974 0.991974 0.991974 0.991974 0.991974 0.991974 0.991974 0.991974 0.991974 0.991974
          0.991966 0.991966 0.991966 0.991966 0.991966 0.991966 0.991966 0.991966 0.991966 0.991966 0.991966 0.991966
          0.991966 0.991966 0.991966 0.991966 0.991956 0.991956 0.991956 0.991956 0.991956 0.991956 0.991956 0.991956
          0.991956 0.991956 0.991956 0.991956 0.991956 0.991956 0.991956 0.991956 0.991937 0.991937 0.991937 0.991937
          0.991937 0.991937 0.991937 0.991937 0.991937 0.991937 0.991937 0.991937 0.991937 0.991937 0.991937 0.991937
          0.9919 0.9919 0.9919 0.9919 0.9919 0.9919 0.9919 0.9919 0.9919 0.9919 0.9919 0.9919
          0.9919 0.9919 0.991899 0.991899 0.991782 0.991782 0.991782 0.991782 0.991782 0.991782 0.991782 0.991782
          0.991783 0.991783 0.991783 0.991783 0.991783 0.991783 0.991783 0.991783 0.992 0.991999 0.991998 0.991997
          0.991997 0.991997 0.991997 0.991997 0.991997 0.991997 0.991997 0.991997 0.991997 0.991996 0.991996 0.992
        </DataArray>
        <DataArray type="Float32" Name="h" NumberOfComponents="1" format="ascii">
          48654.3 49769 45068.8 45737.5 51809.4 46626.7 52793 47502.4 53398.1 48251.3 53875.5 48867.5
          54272.9 49380.6 54627.2 49820.6 54960.1 50210.1 55281.6 50564.9 55594.1 50895.2 55903.7 51207.5
          56206.5 51506.1 56507.2 51793.7 56784.3 52071.8 57011 52221.5 44877.5 44784.6 44763.3 44847.6
          45027.6 45271.7 45549.7 45840.1 46130 46412.3 46684.2 46944.9 47195 47435.4 47668.7 47786.6
          44911.8 44871.9 44802.8 44719.5 44638.8 44573.6 44531 44513.3 44519.9 44548.4 44595.5 44658.1
          44733.1 44818 44911 44956 44918.5 44914.1 44902.4 44881.5 44850.8 44811.6 44765.8 44716
          44664.3 44612.9 44563.5 44517.5 44475.8 44438.9 44407 44386.6 44920.8 44920.6 44919.8 44917.8
          44914.2 44908.5 44900.2 44889.1 44875.1 44858.3 44838.8 44816.8 44792.6 44766.4 44738.6 44721.7
          44922.7 44922.7 44922.7 44922.6 44922.4 44922 44921.4 44920.4 44919 44917.1 44914.5 44911.2
          44907.2 44902.3 44896.6 44893.2 44925.2 44925.2 44925.2 44925.3 44925.3 44925.2 44925.2 44925.2
          44925.1 44925 44924.9 44924.6 44924.3 44924 44923.4 44923.2 44928.2 44928.2 44928.2 44928.2
          44928.2 44928.2 44928.2 44928.2 44928.3 44928.3 44928.3 44928.3 44928.2 44928.2 44928.2 44928.3
          44932.1 44932.1 44932.1 44932.1 44932.1 44932.1 44932.1 44932.1 44932.1 44932.1 44932.1 44932.1
          44932.1 44932.1 44932.1 44932.2 44936.8 44936.8 44936.8 44936.8 44936.8 44936.8 44936.8 44936.9
          44936.9 44936.9 44936.9 44936.9 44936.9 44936.9 44936.9 44936.9 44942.8 44942.8 44942.8 44942.8
          44942.8 44942.8 44942.8 44942.8 44942.8 44942.8 44942.9 44942.9 44942.9 44942.9 44942.9 44942.9
          44950.2 44950.2 44950.2 44950.2 44950.2 44950.2 44950.2 44950.2 44950.3 44950.3 44950.3 44950.3
          44950.3 44950.3 44950.3 44950.3 44959.5 44959.5 44959.6 44959.6 44959.6 44959.6 44959.6 44959.6
          44959.6 44959.6 44959.6 44959.6 44959.6 44959.6 44959.6 44959.6 44971.4 44971.4 44971.4 44971.4
          44971.4 44971.4 44971.4 44971.4 44971.4 44971.5 44971.5 44971.5 44971.5 44971.5 44971.5 44971.5
          44986.7 44986.7 44986.7 44986.7 44986.7 44986.7 44986.7 44986.8 44986.8 44986.8 44986.8 44986.8
          44986.8 44986.8 44986.8 44986.8 45006.9 45006.9 45006.9 45006.9 45007 45007 45007 45007
          45007 45007 45007 45007 45007 45007 45007 45007 45034.5 45034.5 45034.6 45034.6
          45034.6 45034.6 45034.6 45034.6 45034.6 45034.6 45034.7 45034.7 45034.7 45034.7 45034.7 45034.7
          45074.1 45074.1 45074.1 45074.1 45074.1 45074.1 45074.2 45074.2 45074.2 45074.2 45074.2 45074.2
          45074.2 45074.2 45074.2 45074.3 45134.5 45134.5 45134.5 45134.6 45134.6 45134.6 45134.6 45134.7
          45134.7 45134.7 45134.7 45134.7 45134.7 45134.7 45134.8 45134.8 45237.3 45237.4 45237.4 45237.4
          45237.5 45237.5 45237.5 45237.6 45237.6 45237.6 45237.6 45237.7 45237.7 45237.7 45237.7 45237.8
          45448 45448.1 45448.2 45448.2 45448.3 45448.4 45448.5 45448.6 45448.7 45448.7 45448.8 45448.9
          45449 45449 45449.1 45449.2 46111.4 46111.1 46110.8 46110.5 46110.2 46109.8 46109.5 46109.1
          46108.8 46108.5 46108.1 46107.8 46107.5 46107.1 46106.8 46106.7 44886.1 44891.8 44896.2 44897.8
          44897.7 44896.4 44894.6 44892.6 44890.8 44889.2 44888.1 44887.4 44887.1 44887.3 44888 44886.1
        </DataArray>
        <DataArray type="Float32" Name="rho" NumberOfComponents="1" format="ascii">
          1.165 1.1654 1.16491 1.16768 1.16521 1.16912 1.16507 1.16966 1.16499 1.16969 1.1649 1.16958
          1.16481 1.16945 1.16472 1.16934 1.16463 1.16925 1.16453 1.16917 1.16444 1.16909 1.16434 1.16903
          1.16425 1.16898 1.16416 1.16893 1.16407 1.16888 1.16397 1.16886 1.16296 1.16461 1.16649 1.16818
          1.16946 1.17037 1.17098 1.17139 1.17167 1.17186 1.172 1.17211 1.1722 1.17228 1.17235 1.17239
          1.16256 1.16286 1.16343 1.16422 1.16512 1.16606 1.16697 1.16782 1.1686 1.16929 1.1699 1.17044
          1.17092 1.17135 1.17174 1.17193 1.16252 1.16254 1.16261 1.16275 1.16295 1.16322 1.16355 1.16393
          1.16435 1.1648 1.16526 1.16573 1.16621 1.16668 1.16714 1.16739 1.16251 1.16251 1.16251 1.16253
          1.16255 1.16258 1.16263 1.16269 1.16278 1.16288 1.163 1.16314 1.1633 1.16347 1.16366 1.16376
          1.1625 1.1625 1.1625 1.16251 1.16251 1.16251 1.16251 1.16252 1.16252 1.16253 1.16255 1.16257
          1.16259 1.16262 1.16265 1.16267 1.1625 1.1625 1.1625 1.1625 1.1625 1.1625 1.1625 1.1625
          1.1625 1.1625 1.1625 1.1625 1.1625 1.16251 1.16251 1.16251 1.16249 1.16249 1.16249 1.16249
          1.16249 1.16249 1.16249 1.16249 1.16249 1.16249 1.16249 1.16249 1.16249 1.16249 1.16249 1.16249
          1.16248 1.16248 1.16248 1.16248 1.16248 1.16248 1.16248 1.16248 1.16248 1.16248 1.16248 1.16248
          1.16248 1.16248 1.16248 1.16248 1.16247 1.16247 1.16247 1.16247 1.16247 1.16247 1.16247 1.16247
          1.16247 1.16247 1.16247 1.16247 1.16247 1.16247 1.16247 1.16247 1.16246 1.16246 1.16246 1.16246
          1.16246 1.16246 1.16246 1.16246 1.16246 1.16246 1.16246 1.16246 1.16246 1.16246 1.16246 1.16246
          1.16244 1.16244 1.16244 1.16244 1.16244 1.16244 1.16244 1.16244 1.16244 1.16244 1.16244 1.16244
          1.16244 1.16244 1.16244 1.16244 1.16242 1.16242 1.16242 1.16242 1.16242 1.16242 1.16242 1.16242
          1.16242 1.16242 1.16242 1.16242 1.16242 1.16242 1.16242 1.16242 1.16239 1.16239 1.16239 1.16239
          1.16239 1.16239 1.16239 1.16239 1.16239 1.16239 1.16239 1.16239 1.16239 1.16239 1.16239 1.16239
          1.16236 1.16236 1.16236 1.16236 1.16236 1.16236 1.16236 1.16236 1.16236 1.16236 1.16236 1.16236
          1.16236 1.16236 1.16236 1.16236 1.16231 1.16231 1.16231 1.16231 1.16231 1.16231 1.16231 1.16231
          1.16231 1.16231 1.16231 1.16231 1.16231 1.16231 1.16231 1.16231 1.16225 1.16225 1.16225 1.16225
          1.16225 1.16225 1.16225 1.16225 1.16225 1.16225 1.16225 1.16225 1.16225 1.16225 1.16225 1.16225
          1.16216 1.16216 1.16216 1.16216 1.16216 1.16216 1.16216 1.16216 1.16216 1.16216 1.16216 1.16216
          1.16216 1.16216 1.16216 1.16216 1.16203 1.16203 1.16203 1.16203 1.16203 1.16203 1.16203 1.16203
          1.16203 1.16203 1.16203 1.16203 1.16203 1.16203 1.16203 1.16203 1.16179 1.16179 1.16179 1.16179
          1.16179 1.16179 1.16179 1.16179 1.16179 1.16179 1.16179 1.16179 1.16179 1.16179 1.16179 1.16179
          1.16132 1.16132 1.16132 1.16132 1.16132 1.16132 1.16132 1.16132 1.16132 1.16132 1.16132 1.16132
          1.16132 1.16132 1.16132 1.16132 1.15983 1.15983 1.15983 1.15983 1.15983 1.15983 1.15983 1.15983
          1.15983 1.15983 1.15983 1.15983 1.15983 1.15983 1.15983 1.15983 1.16259 1.16258 1.16257 1.16257
          1.16257 1.16258 1.16258 1.16259 1.16259 1.1626 1.16261 1.16261 1.16261 1.16261 1.16261 1.16259
        </DataArray>
        <DataArray type="Float32" Name="mu" NumberOfComponents="1" format="ascii">
          1.80489e-05 1.80318e-05 1.80861e-05 1.80388e-05 1.80142e-05 1.80087e-05 1.80064e-05 1.79921e-05 1.80016e-05 1.79842e-05 1.79981e-05 1.79796e-05
          1.79954e-05 1.79763e-05 1.79932e-05 1.79736e-05 1.79913e-05 1.79711e-05 1.79895e-05 1.79687e-05 1.79878e-05 1.79665e-05 1.79861e-05 1.79642e-05
          1.79844e-05 1.7962e-05 1.79828e-05 1.79598e-05 1.79813e-05 1.79579e-05 1.79805e-05 1.79567e-05 1.81168e-05 1.80934e-05 1.80659e-05 1.80404e-05
          1.80198e-05 1.80041e-05 1.79924e-05 1.79835e-05 1.79766e-05 1.7971e-05 1.79662e-05 1.7962e-05 1.79582e-05 1.79545e-05 1.79512e-05 1.79496e-05
          1.81224e-05 1.81184e-05 1.81106e-05 1.80999e-05 1.80874e-05 1.80742e-05 1.80612e-05 1.80489e-05 1.80375e-05 1.80271e-05 1.80177e-05 1.80092e-05
          1.80014e-05 1.79943e-05 1.79878e-05 1.79846e-05 1.8123e-05 1.81226e-05 1.81217e-05 1.81199e-05 1.81172e-05 1.81136e-05 1.81092e-05 1.81041e-05
          1.80984e-05 1.80924e-05 1.8086e-05 1.80796e-05 1.8073e-05 1.80665e-05 1.806e-05 1.80566e-05 1.8123e-05 1.8123e-05 1.8123e-05 1.81228e-05
          1.81226e-05 1.81221e-05 1.81215e-05 1.81207e-05 1.81196e-05 1.81182e-05 1.81166e-05 1.81148e-05 1.81127e-05 1.81104e-05 1.81079e-05 1.81065e-05
          1.81231e-05 1.81231e-05 1.81231e-05 1.81231e-05 1.81231e-05 1.8123e-05 1.8123e-05 1.81229e-05 1.81228e-05 1.81227e-05 1.81225e-05 1.81223e-05
          1.8122e-05 1.81216e-05 1.81212e-05 1.8121e-05 1.81231e-05 1.81231e-05 1.81231e-05 1.81231e-05 1.81231e-05 1.81231e-05 1.81231e-05 1.81231e-05
          1.81231e-05 1.81231e-05 1.81231e-05 1.81231e-05 1.81231e-05 1.81231e-05 1.8123e-05 1.8123e-05 1.81232e-05 1.81232e-05 1.81232e-05 1.81232e-05
          1.81232e-05 1.81232e-05 1.81232e-05 1.81232e-05 1.81232e-05 1.81232e-05 1.81232e-05 1.81232e-05 1.81232e-05 1.81232e-05 1.81232e-05 1.81232e-05
          1.81233e-05 1.81233e-05 1.81233e-05 1.81233e-05 1.81233e-05 1.81233e-05 1.81233e-05 1.81233e-05 1.81233e-05 1.81233e-05 1.81233e-05 1.81233e-05
          1.81233e-05 1.81233e-05 1.81233e-05 1.81233e-05 1.81234e-05 1.81234e-05 1.81234e-05 1.81234e-05 1.81234e-05 1.81234e-05 1.81234e-05 1.81234e-05
          1.81234e-05 1.81234e-05 1.81234e-05 1.81234e-05 1.81234e-05 1.81234e-05 1.81234e-05 1.81234e-05 1.81236e-05 1.81236e-05 1.81236e-05 1.81236e-05
          1.81236e-05 1.81236e-05 1.81236e-05 1.81236e-05 1.81236e-05 1.81236e-05 1.81236e-05 1.81236e-05 1.81236e-05 1.81236e-05 1.81236e-05 1.81236e-05
          1.81237e-05 1.81237e-05 1.81237e-05 1.81237e-05 1.81237e-05 1.81237e-05 1.81237e-05 1.81237e-05 1.81237e-05 1.81237e-05 1.81237e-05 1.81237e-05
          1.81237e-05 1.81237e-05 1.81237e-05 1.81237e-05 1.81239e-05 1.81239e-05 1.81239e-05 1.81239e-05 1.81239e-05 1.81239e-05 1.81239e-05 1.81239e-05
          1.81239e-05 1.81239e-05 1.81239e-05 1.81239e-05 1.81239e-05 1.81239e-05 1.81239e-05 1.81239e-05 1.81242e-05 1.81242e-05 1.81242e-05 1.81242e-05
          1.81242e-05 1.81242e-05 1.81242e-05 1.81242e-05 1.81242e-05 1.81242e-05 1.81242e-05 1.81242e-05 1.81242e-05 1.81242e-05 1.81242e-05 1.81242e-05
          1.81246e-05 1.81246e-05 1.81246e-05 1.81246e-05 1.81246e-05 1.81246e-05 1.81246e-05 1.81246e-05 1.81246e-05 1.81246e-05 1.81246e-05 1.81246e-05