<?xml version="1.0"?>
<VTKFile type="UnstructuredGrid" version="0.1" byte_order="LittleEndian">
  <UnstructuredGrid>
    <Piece NumberOfCells="345" NumberOfPoints="384">
      <PointData Scalars="temperature" Vectors="v">
        <DataArray type="Float32" Name="temperature" NumberOfComponents="1" format="ascii">
          294.673 294.547 298.15 297.027 294.428 296.448 294.322 296.105 294.239 295.875 294.176 295.707
          294.13 295.578 294.096 295.475 294.07 295.39 294.048 295.319 294.029 295.257 294.006 295.202
          293.979 295.15 293.936 295.098 293.903 295.046 293.827 295.016 298.15 297.996 297.771 297.546
          297.341 297.16 297.003 296.866 296.747 296.642 296.549 296.466 296.39 296.321 296.256 296.223
          298.15 298.137 298.106 298.059 297.999 297.931 297.859 297.785 297.711 297.638 297.568 297.5
          297.435 297.372 297.312 297.281 298.15 298.149 298.147 298.143 298.135 298.125 298.111 298.094
          298.075 298.054 298.03 298.005 297.979 297.951 297.923 297.908 298.15 298.15 298.15 298.15
          298.149 298.148 298.147 298.145 298.143 298.14 298.137 298.132 298.128 298.122 298.116 298.112
          298.15 298.15 298.15 298.15 298.15 298.15 298.15 298.15 298.15 298.149 298.149 298.149
          298.148 298.148 298.147 298.147 298.15 298.15 298.15 298.15 298.15 298.15 298.15 298.15
          298.15 298.15 298.15 298.15 298.15 298.15 298.15 298.15 298.15 298.15 298.15 298.15
          298.15 298.15 298.15 298.15 298.15 298.15 298.15 298.15 298.15 298.15 298.15 298.15
          298.15 298.15 298.15 298.15 298.15 298.15 298.15 298.15 298.15 298.15 298.15 298.15
          298.15 298.15 298.15 298.15 298.15 298.15 298.15 298.15 298.15 298.15 298.15 298.15
          298.15 298.15 298.15 298.15 298.15 298.15 298.15 298.15 298.15 298.15 298.15 298.15
          298.15 298.15 298.15 298.15 298.15 298.15 298.15 298.15 298.15 298.15 298.15 298.15
          298.15 298.15 298.15 298.15 298.15 298.15 298.15 298.15 298.15 298.15 298.15 298.15
          298.15 298.15 298.15 298.15 298.15 298.15 298.15 298.15 298.15 298.15 298.15 298.15
          298.15 298.15 298.15 298.15 298.15 298.15 298.15 298.15 298.15 298.15 298.15 298.15
          298.15 298.15 298.15 298.15 298.15 298.15 298.15 298.15 298.15 298.15 298.15 298.15
          298.15 298.15 298.15 298.15 298.15 298.15 298.15 298.15 298.15 298.15 298.15 298.15
          298.15 298.15 298.15 298.15 298.15 298.15 298.15 298.15 298.15 298.15 298.15 298.15
          298.15 298.15 298.15 298.15 298.15 298.15 298.15 298.15 298.15 298.15 298.15 298.15
          298.15 298.15 298.15 298.15 298.15 298.15 298.15 298.15 298.15 298.15 298.15 298.15
          298.15 298.15 298.15 298.15 298.15 298.15 298.15 298.15 298.15 298.15 298.15 298.15
          298.15 298.15 298.15 298.15 298.15 298.15 298.15 298.15 298.15 298.15 298.15 298.15
          298.15 298.15 298.15 298.15 298.15 298.15 298.15 298.15 298.15 298.15 298.15 298.15
          298.15 298.15 298.15 298.15 298.15 298.15 298.15 298.15 298.15 298.15 298.15 298.15
          298.15 298.15 298.15 298.15 298.15 298.15 298.15 298.15 298.15 298.15 298.15 298.15
          298.15 298.15 298.15 298.15 298.15 298.15 298.15 298.15 298.15 298.15 298.15 298.15
          298.15 298.15 298.15 298.15 298.15 298.15 298.15 298.15 298.15 298.15 298.15 298.15
          298.15 298.15 298.15 298.15 298.15 298.15 298.15 298.15 298.15 298.15 298.15 298.15
        </DataArray>
        <DataArray type="Float32" Name="pg" NumberOfComponents="1" format="ascii">
          100000 100000 100000 100000 100000 100000 100000 100000 100000 100000 100000 100000
          100000 100000 100000 100000 100000 100000 100000 100000 100000 100000 100000 100000
          100000 100000 100000 100000 100000 100000 100000 100000 100000 100000 100000 100000
          100000 100000 100000 100000 100000 100000 100000 100000 100000 100000 100000 100000
          100000 100000 100000 100000 100000 100000 100000 100000 100000 100000 100000 100000
          100000 100000 100000 100000 100000 100000 100000 100000 100000 100000 100000 100000
          100000 100000 100000 100000 100000 100000 100000 100000 100000 100000 100000 100000
          100000 100000 100000 100000 100000 100000 100000 100000 100000 100000 100000 100000
          100000 100000 100000 100000 100000 100000 100000 100000 100000 100000 100000 100000
          100000 100000 100000 100000 100000 100000 100000 100000 100000 100000 100000 100000
          100000 100000 100000 100000 100000 100000 100000 100000 100000 100000 100000 100000
          100000 100000 100000 100000 100000 100000 100000 100000 100000 100000 100000 100000
          100000 100000 100000 100000 100000 100000 100000 100000 100000 100000 100000 100000
          100000 100000 100000 100000 100000 100000 100000 100000 100000 100000 100000 100000
          100000 100000 100000 100000 100000 100000 100000 100000 100000 100000 100000 100000
          100000 100000 100000 100000 100000 100000 100000 100000 100000 100000 100000 100000
          100000 100000 100000 100000 100000 100000 100000 100000 100000 100000 100000 100000
          100000 100000 100000 100000 100000 100000 100000 100000 100000 100000 100000 100000
          100000 100000 100000 100000 100000 100000 100000 100000 100000 100000 100000 100000
          100000 100000 100000 100000 100000 100000 100000 100000 100000 100000 100000 100000
          100000 100000 100000 100000 100000 100000 100000 100000 100000 100000 100000 100000
          100000 100000 100000 100000 100000 100000 100000 100000 100000 100000 100000 100000
          100000 100000 100000 100000 100000 100000 100000 100000 100000 100000 100000 100000
          100000 100000 100000 100000 100000 100000 100000 100000 100000 100000 100000 100000
          100000 100000 100000 100000 100000 100000 100000 100000 100000 100000 100000 100000
          100000 100000 100000 100000 100000 100000 100000 100000 100000 100000 100000 100000
          100000 100000 100000 100000 100000 100000 100000 100000 100000 100000 100000 100000
          100000 100000 100000 100000 100000 100000 100000 100000 100000 100000 100000 100000
          100000 100000 100000 100000 100000 100000 100000 100000 100000 100000 100000 100000
          100000 100000 100000 100000 100000 100000 100000 100000 100000 100000 100000 100000
          100000 100000 100000 100000 100000 100000 100000 100000 100000 100000 100000 100000
          100000 100000 100000 100000 100000 100000 100000 100000 100000 100000 100000 100000
        </DataArray>
        <DataArray type="Float32" Name="delP" NumberOfComponents="1" format="ascii">
          0.00203412 0.00191311 0.00199604 0.00187503 0.00176329 0.00175162 0.00162555 0.00162006 0.00148807 0.0014872 0.00135279 0.0013521
          0.00121724 0.00121727 0.00108225 0.00108176 0.000946962 0.0009466 0.000811873 0.000811193 0.000676586 0.00067597 0.00054141 0.000540695
          0.000406132 0.000405396 0.000270874 0.000270297 0.0001357 0.000134794 0 0 0.00204243 0.00190586 0.00176121 0.001624
          0.00148704 0.00135202 0.00121664 0.00108177 0.000946558 0.00081153 0.000676283 0.000541139 0.000405864 0.000270649 0.000135391 0
          0.0020112 0.00187913 0.00175301 0.00162008 0.00148682 0.00135157 0.00121671 0.00108122 0.000946092 0.000810725 0.000675544 0.000540308
          0.000405062 0.00026998 0.000134599 0 0.00203716 0.00190193 0.00176067 0.0016242 0.00148751 0.00135242 0.00121693 0.00108193
          0.000946624 0.00081151 0.000676198 0.000541006 0.000405687 0.000270465 0.000135161 0 0.00201685 0.001883 0.00175375 0.00162017
          0.00148669 0.00135151 0.00121673 0.00108133 0.000946248 0.000810914 0.000675749 0.000540511 0.000405278 0.000270155 0.000134877 0
          0.00203443 0.00189897 0.00176011 0.00162406 0.00148767 0.00135252 0.00121702 0.00108196 0.000946633 0.000811503 0.000676193 0.000541006
          0.000405698 0.000270492 0.000135209 0 0.00202071 0.00188602 0.00175452 0.00162037 0.00148659 0.00135144 0.00121667 0.00108132
          0.000946273 0.000810962 0.000675811 0.000540575 0.000405364 0.000270221 0.000134994 0 0.00203248 0.00189696 0.00175964 0.00162387
          0.00148777 0.00135257 0.00121708 0.00108197 0.00094663 0.000811477 0.000676168 0.000540979 0.00040568 0.000270479 0.000135203 0
          0.00202346 0.00188832 0.00175529 0.00162069 0.00148659 0.00135144 0.00121665 0.00108134 0.000946296 0.000811003 0.000675863 0.000540627
          0.000405434 0.00027027 0.000135072 0 0.00203117 0.00189565 0.00175927 0.00162368 0.00148784 0.00135259 0.00121713 0.00108197
          0.000946638 0.000811463 0.00067616 0.000540964 0.000405676 0.000270473 0.000135207 0 0.0020254 0.00189005 0.00175603 0.00162111
          0.00148668 0.0013515 0.00121665 0.00108137 0.000946325 0.000811045 0.000675912 0.000540674 0.000405496 0.000270312 0.000135127 0
          0.00203034 0.00189486 0.001759 0.00162352 0.00148788 0.0013526 0.00121719 0.00108198 0.000946657 0.000811458 0.000676166 0.000540958
          0.000405684 0.000270472 0.000135217 0 0.00202677 0.00189133 0.00175671 0.00162157 0.00148686 0.00135163 0.00121671 0.00108143
          0.000946367 0.000811094 0.000675961 0.000540719 0.000405549 0.000270347 0.000135164 0 0.00202986 0.0018944 0.00175883 0.00162341
          0.00148792 0.00135261 0.00121724 0.001082 0.000946687 0.000811463 0.000676183 0.00054096 0.000405699 0.000270475 0.000135228 0
          0.00202772 0.00189226 0.00175731 0.00162202 0.00148709 0.00135182 0.0012168 0.00108152 0.000946426 0.000811154 0.000676012 0.000540764
          0.000405595 0.000270376 0.000135193 0 0.00202961 0.00189417 0.00175874 0.00162334 0.00148795 0.00135262 0.00121729 0.00108202
          0.000946724 0.000811476 0.000676209 0.000540968 0.000405718 0.000270479 0.000135242 0 0.00202838 0.00189291 0.00175778 0.00162243
          0.00148735 0.00135203 0.00121693 0.00108163 0.000946501 0.000811223 0.000676065 0.000540809 0.000405635 0.000270401 0.000135216 0
          0.00202948 0.00189405 0.00175869 0.00162331 0.00148797 0.00135264 0.00121733 0.00108204 0.00094676 0.000811491 0.000676234 0.000540977
          0.000405737 0.000270483 0.000135256 0 0.0020288 0.00189336 0.00175813 0.00162275 0.00148757 0.00135223 0.00121706 0.00108175
          0.000946576 0.000811293 0.000676114 0.000540851 0.000405667 0.000270421 0.000135234 0 0.00202937 0.00189396 0.00175864 0.00162328
          0.00148796 0.00135263 0.00121734 0.00108204 0.000946773 0.000811494 0.000676244 0.000540978 0.000405744 0.000270484 0.000135263 0
          0.002029 0.00189361 0.00175832 0.00162295 0.0014877 0.00135237 0.00121713 0.00108183 0.000946616 0.000811338 0.000676134 0.000540874
          0.000405678 0.000270431 0.000135239 0 0.00202918 0.00189384 0.00175852 0.00162319 0.00148788 0.00135257 0.00121728 0.00108199
          0.000946727 0.000811453 0.000676209 0.000540949 0.00040572 0.000270469 0.000135248 0 0.00202909 0.00189375 0.00175836 0.001623
          0.00148768 0.00135236 0.00121708 0.0010818 0.000946555 0.000811302 0.000676081 0.000540844 0.000405639 0.000270412 0.000135217 0
        </DataArray>
        <DataArray type="Float32" Name="XH2Og" NumberOfComponents="1" format="ascii">
          0.00979198 0.0102586 0.008 0.00873408 0.010627 0.009194 0.0109219 0.00952669 0.0111749 0.00979297 0.0114058 0.0100222
          0.0116229 0.0102292 0.011833 0.0104224 0.0120401 0.0106071 0.0122483 0.0107871 0.0124583 0.0109649 0.0126778 0.0111438
          0.0129097 0.011327 0.013178 0.0115213 0.0133521 0.0117093 0.014219 0.0119101 0.008 0.00811303 0.0082861 0.00847156
          0.00865254 0.00882426 0.00898645 0.00914034 0.00928758 0.00942985 0.00956863 0.00970543 0.00984182 0.00997985 0.01012 0.0101973
          0.008 0.00801058 0.00803707 0.0080788 0.0081327 0.00819563 0.00826494 0.00833869 0.00841547 0.00849435 0.00857475 0.00865634
          0.00873901 0.00882293 0.00890856 0.00895183 0.008 0.00800063 0.00800277 0.00800731 0.00801481 0.00802557 0.00803969 0.00805708
          0.0080776 0.00810105 0.0081272 0.00815584 0.00818679 0.0082199 0.00825514 0.0082731 0.008 0.00800002 0.00800012 0.00800038
          0.00800092 0.00800186 0.00800329 0.00800533 0.00800807 0.00801157 0.00801591 0.00802111 0.00802723 0.00803428 0.00804231 0.00804649
          0.008 0.008 0.00800001 0.00800002 0.00800004 0.00800008 0.00800016 0.00800029 0.00800048 0.00800075 0.00800112 0.00800161
          0.00800224 0.00800303 0.00800399 0.00800448 0.008 0.008 0.008 0.008 0.008 0.008 0.008 0.00800001
          0.00800001 0.00800002 0.00800004 0.00800007 0.0080001 0.00800015 0.00800021 0.00800023 0.008 0.008 0.008 0.008
          0.008 0.008 0.008 0.008 0.008 0.008 0.008 0.008 0.00800001 0.00800001 0.00800001 0.008
          0.008 0.008 0.008 0.008 0.008 0.008 0.008 0.008 0.008 0.008 0.008 0.008
          0.008 0.008 0.008 0.00799999 0.008 0.008 0.008 0.008 0.008 0.008 0.008 0.008
          0.008 0.008 0.008 0.008 0.008 0.008 0.008 0.008 0.008 0.008 0.008 0.008
          0.008 0.008 0.008 0.008 0.008 0.008 0.008 0.008 0.008 0.008 0.008 0.008
          0.008 0.008 0.008 0.008 0.008 0.008 0.008 0.008 0.008 0.008 0.008 0.008
          0.008 0.008 0.008 0.008 0.008 0.008 0.008 0.008 0.008 0.008 0.008 0.008
          0.008 0.008 0.008 0.008 0.008 0.008 0.008 0.008 0.008 0.008 0.008 0.008
          0.008 0.008 0.008 0.008 0.008 0.008 0.008 0.008 0.008 0.008 0.008 0.008
          0.008 0.008 0.008 0.008 0.008 0.008 0.008 0.008 0.008 0.008 0.008 0.008
          0.008 0.008 0.008 0.008 0.008 0.008 0.008 0.008 0.008 0.008 0.008 0.008
          0.008 0.008 0.008 0.008 0.008 0.008 0.008 0.008 0.008 0.008 0.008 0.008
          0.008 0.008 0.008 0.008 0.008 0.008 0.008 0.008 0.008 0.008 0.008 0.008
          0.008 0.008 0.008 0.008 0.008 0.008 0.008 0.008 0.008 0.008 0.008 0.008
          0.008 0.008 0.008 0.008 0.008 0.008 0.008 0.008 0.008 0.008 0.008 0.008
          0.008 0.008 0.008 0.008 0.008 0.008 0.008 0.008 0.008 0.008 0.008 0.008
          0.008 0.008 0.008 0.008 0.008 0.008 0.008 0.008 0.008 0.008 0.008 0.00800001
          0.008 0.008 0.008 0.008 0.008 0.008 0.008 0.008 0.008 0.008 0.008 0.008
          0.008 0.008 0.008 0.00800001 0.008 0.008 0.008 0.008 0.008 0.008 0.00799999 0.00799999
          0.00799999 0.00799999 0.00799999 0.00799999 0.00799998 0.00799998 0.00799998 0.00799999 0.008 0.00799968 0.00799922 0.00799869
          0.00799812 0.00799755 0.00799701 0.0079965 0.00799605 0.00799565 0.00799532 0.00799505 0.00799485 0.00799471 0.00799465 0.008
        </DataArray>
        <DataArray type="Float32" Name="XAirg" NumberOfComponents="1" format="ascii">
          0.990208 0.989741 0.992 0.991266 0.989373 0.990806 0.989078 0.990473 0.988825 0.990207 0.988594 0.989978
          0.988377 0.989771 0.988167 0.989578 0.98796 0.989393 0.987752 0.989213 0.987542 0.989035 0.987322 0.988856
          0.98709 0.988673 0.986822 0.988479 0.986648 0.988291 0.985781 0.98809 0.992 0.991887 0.991714 0.991528
          0.991347 0.991176 0.991014 0.99086 0.990712 0.99057 0.990431 0.990295 0.990158 0.99002 0.98988 0.989803
          0.992 0.991989 0.991963 0.991921 0.991867 0.991804 0.991735 0.991661 0.991585 0.991506 0.991425 0.991344
          0.991261 0.991177 0.991091 0.991048 0.992 0.991999 0.991997 0.991993 0.991985 0.991974 0.99196 0.991943
          0.991922 0.991899 0.991873 0.991844 0.991813 0.99178 0.991745 0.991727 0.992 0.992 0.992 0.992
          0.991999 0.991998 0.991997 0.991995 0.991992 0.991988 0.991984 0.991979 0.991973 0.991966 0.991958 0.991953
          0.992 0.992 0.992 0.992 0.992 0.992 0.992 0.992 0.992 0.991999 0.991999 0.991998
          0.991998 0.991997 0.991996 0.991996 0.992 0.992 0.992 0.992 0.992 0.992 0.992 0.992
          0.992 0.992 0.992 0.992 0.992 0.992 0.992 0.992 0.992 0.992 0.992 0.992
          0.992 0.992 0.992 0.992 0.992 0.992 0.992 0.992 0.992 0.992 0.992 0.992
          0.992 0.992 0.992 0.992 0.992 0.992 0.992 0.992 0.992 0.992 0.992 0.992
          0.992 0.992 0.992 0.992 0.992 0.992 0.992 0.992 0.992 0.992 0.992 0.992
          0.992 0.992 0.992 0.992 0.992 0.992 0.992 0.992 0.992 0.992 0.992 0.992
          0.992 0.992 0.992 0.992 0.992 0.992 0.992 0.992 0.992 0.992 0.992 0.992
          0.992 0.992 0.992 0.992 0.992 0.992 0.992 0.992 0.992 0.992 0.992 0.992
          0.992 0.992 0.992 0.992 0.992 0.992 0.992 0.992 0.992 0.992 0.992 0.992
          0.992 0.992 0.992 0.992 0.992 0.992 0.992 0.992 0.992 0.992 0.992 0.992
          0.992 0.992 0.992 0.992 0.992 0.992 0.992 0.992 0.992 0.992 0.992 0.992
          0.992 0.992 0.992 0.992 0.992 0.992 0.992 0.992 0.992 0.992 0.992 0.992
          0.992 0.992 0.992 0.992 0.992 0.992 0.992 0.992 0.992 0.992 0.992 0.992
          0.992 0.992 0.992 0.992 0.992 0.992 0.992 0.992 0.992 0.992 0.992 0.992
          0.992 0.992 0.992 0.992 0.992 0.992 0.992 0.992 0.992 0.992 0.992 0.992
          0.992 0.992 0.992 0.992 0.992 0.992 0.992 0.992 0.992 0.992 0.992 0.992
          0.992 0.992 0.992 0.992 0.992 0.992 0.992 0.992 0.992 0.992 0.992 0.992
          0.992 0.992 0.992 0.992 0.992 0.992 0.992 0.992 0.992 0.992 0.992 0.992
          0.992 0.992 0.992 0.992 0.992 0.992 0.992 0.992 0.992 0.992 0.992 0.992
          0.992 0.992 0.992 0.992 0.992 0.992 0.992 0.992 0.992 0.992 0.992 0.992
          0.992 0.992 0.992 0.992 0.992 0.992 0.992 0.992 0.992 0.992 0.992 0.992
          0.992 0.992 0.992 0.992 0.992 0.992 0.992 0.992 0.992 0.992 0.992001 0.992001
          0.992002 0.992002 0.992003 0.992004 0.992004 0.992004 0.992005 0.992005 0.992005 0.992005 0.992005 0.992
        </DataArray>
        <DataArray type="Float32" Name="h" NumberOfComponents="1" format="ascii">
          45739 46758 44886.1 45548.8 47543.2 46089.6 48159.1 46557.2 48695.8 46977.3 49199.1 47369.8
          49686.1 47747 50168 48116.9 50650.6 48484.8 51139.8 48854.9 51636.8 49229.5 52153.7 49613.3
          52696.2 50011.1 53311.9 50435.5 53705.8 50845.3 55759.8 51309 44886.1 45007.5 45205.2 45432.2
          45668.8 45907.5 46146.6 46386 46626.8 46870 47116.9 47369 47627.9 47896.8 48175.3 48332.3
          44886.1 44899.2 44933 44987.4 45059.3 45145.4 45242.8 45349.1 45463 45583.4 45709.6 45841.3
          45978.6 46121.7 46271.5 46346.6 44886.1 44887 44890.1 44896.6 44907.5 44923.3 44944.2 44970.2
          45001.2 45037.1 45077.7 45122.8 45172.2 45225.9 45283.9 45312.6 44886.1 44886.1 44886.3 44886.7
          44887.5 44889 44891.3 44894.6 44899 44904.7 44911.8 44920.3 44930.4 44942.1 44955.6 44962.2
          44886.1 44886.1 44886.1 44886.1 44886.2 44886.3 44886.4 44886.6 44886.9 44887.4 44888.1 44888.9
          44890 44891.4 44893.1 44893.8 44886.1 44886.1 44886.1 44886.1 44886.1 44886.1 44886.1 44886.1
          44886.1 44886.1 44886.2 44886.2 44886.3 44886.4 44886.5 44886.5 44886.1 44886.1 44886.1 44886.1
          44886.1 44886.1 44886.1 44886.1 44886.1 44886.1 44886.1 44886.1 44886.1 44886.1 44886.1 44886.1
          44886.1 44886.1 44886.1 44886.1 44886.1 44886.1 44886.1 44886.1 44886.1 44886.1 44886.1 44886.1
          44886.1 44886.1 44886.1 44886.1 44886.1 44886.1 44886.1 44886.1 44886.1 44886.1 44886.1 44886.1
          44886.1 44886.1 44886.1 44886.1 44886.1 44886.1 44886.1 44886.1 44886.1 44886.1 44886.1 44886.1
          44886.1 44886.1 44886.1 44886.1 44886.1 44886.1 44886.1 44886.1 44886.1 44886.1 44886.1 44886.1
          44886.1 44886.1 44886.1 44886.1 44886.1 44886.1 44886.1 44886.1 44886.1 44886.1 44886.1 44886.1
          44886.1 44886.1 44886.1 44886.1 44886.1 44886.1 44886.1 44886.1 44886.1 44886.1 44886.1 44886.1
          44886.1 44886.1 44886.1 44886.1 44886.1 44886.1 44886.1 44886.1 44886.1 44886.1 44886.1 44886.1
          44886.1 44886.1 44886.1 44886.1 44886.1 44886.1 44886.1 44886.1 44886.1 44886.1 44886.1 44886.1
          44886.1 44886.1 44886.1 44886.1 44886.1 44886.1 44886.1 44886.1 44886.1 44886.1 44886.1 44886.1
          44886.1 44886.1 44886.1 44886.1 44886.1 44886.1 44886.1 44886.1 44886.1 44886.1 44886.1 44886.1
          44886.1 44886.1 44886.1 44886.1 44886.1 44886.1 44886.1 44886.1 44886.1 44886.1 44886.1 44886.1
          44886.1 44886.1 44886.1 44886.1 44886.1 44886.1 44886.1 44886.1 44886.1 44886.1 44886.1 44886.1
          44886.1 44886.1 44886.1 44886.1 44886.1 44886.1 44886.1 44886.1 44886.1 44886.1 44886.1 44886.1
          44886.1 44886.1 44886.1 44886.1 44886.1 44886.1 44886.1 44886.1 44886.1 44886.1 44886.1 44886.1
          44886.1 44886.1 44886.1 44886.1 44886.1 44886.1 44886.1 44886.1 44886.1 44886.1 44886.1 44886.1
          44886.1 44886.1 44886.1 44886.1 44886.1 44886.1 44886.1 44886.1 44886.1 44886.1 44886.1 44886.1
          44886.1 44886.1 44886.1 44886.1 44886.1 44886.1 44886.1 44886.1 44886.1 44886.1 44886.1 44886.1
          44886.1 44886.1 44886.1 44886.1 44886.1 44886.1 44886.1 44886.1 44886.1 44886.1 44886.1 44886.1
          44886.1 44886.1 44886.1 44886.1 44886.1 44886.1 44886.1 44886.1 44886.1 44885.3 44884.2 44882.9
          44881.5 44880.1 44878.7 44877.5 44876.3 44875.4 44874.5 44873.9 44873.4 44873 44872.9 44886.1
        </DataArray>
        <DataArray type="Float32" Name="rho" NumberOfComponents="1" format="ascii">
          1.17504 1.17521 1.16259 1.16647 1.17542 1.16842 1.17564 1.16954 1.17579 1.17026 1.17588 1.17077
          1.17591 1.17113 1.1759 1.1714 1.17586 1.17161 1.1758 1.17176 1.17572 1.17188 1.17566 1.17198
          1.1756 1.17205 1.17559 1.17212 1.1756 1.1722 1.17529 1.17217 1.16259 1.16311 1.16386 1.16462
          1.16529 1.16588 1.16638 1.16681 1.16718 1.16749 1.16776 1.16799 1.16819 1.16837 1.16853 1.1686
          1.16259 1.16263 1.16273 1.16289 1.16308 1.1633 1.16354 1.16377 1.16401 1.16424 1.16446 1.16467
          1.16486 1.16505 1.16523 1.16532 1.16259 1.16259 1.1626 1.16261 1.16263 1.16267 1.16271 1.16276
          1.16282 1.16289 1.16297 1.16304 1.16312 1.16321 1.16329 1.16334 1.16259 1.16259 1.16259 1.16259
          1.16259 1.16259 1.1626 1.1626 1.16261 1.16262 1.16263 1.16264 1.16266 1.16267 1.16269 1.1627
          1.16259 1.16259 1.16259 1.16259 1.16259 1.16259 1.16259 1.16259 1.16259 1.16259 1.16259 1.16259
          1.16259 1.16259 1.1626 1.1626 1.16259 1.16259 1.16259 1.16259 1.16259 1.16259 1.16259 1.16259
          1.16259 1.16259 1.16259 1.16259 1.16259 1.16259 1.16259 1.16259 1.16259 1.16259 1.16259 1.16259
          1.16259 1.16259 1.16259 1.16259 1.16259 1.16259 1.16259 1.16259 1.16259 1.16259 1.16259 1.16259
          1.16259 1.16259 1.16259 1.16259 1.16259 1.16259 1.16259 1.16259 1.16259 1.16259 1.16259 1.16259
          1.16259 1.16259 1.16259 1.16259 1.16259 1.16259 1.16259 1.16259 1.16259 1.16259 1.16259 1.16259
          1.16259 1.16259 1.16259 1.16259 1.16259 1.16259 1.16259 1.16259 1.16259 1.16259 1.16259 1.16259
          1.16259 1.16259 1.16259 1.16259 1.16259 1.16259 1.16259 1.16259 1.16259 1.16259 1.16259 1.16259
          1.16259 1.16259 1.16259 1.16259 1.16259 1.16259 1.16259 1.16259 1.16259 1.16259 1.16259 1.16259
          1.16259 1.16259 1.16259 1.16259 1.16259 1.16259 1.16259 1.16259 1.16259 1.16259 1.16259 1.16259
          1.16259 1.16259 1.16259 1.16259 1.16259 1.16259 1.16259 1.16259 1.16259 1.16259 1.16259 1.16259
          1.16259 1.16259 1.16259 1.16259 1.16259 1.16259 1.16259 1.16259 1.16259 1.16259 1.16259 1.16259
          1.16259 1.16259 1.16259 1.16259 1.16259 1.16259 1.16259 1.16259 1.16259 1.16259 1.16259 1.16259
          1.16259 1.16259 1.16259 1.16259 1.16259 1.16259 1.16259 1.16259 1.16259 1.16259 1.16259 1.16259
          1.16259 1.16259 1.16259 1.16259 1.16259 1.16259 1.16259 1.16259 1.16259 1.16259 1.16259 1.16259
          1.16259 1.16259 1.16259 1.16259 1.16259 1.16259 1.16259 1.16259 1.16259 1.16259 1.16259 1.16259
          1.16259 1.16259 1.16259 1.16259 1.16259 1.16259 1.16259 1.16259 1.16259 1.16259 1.16259 1.16259
          1.16259 1.16259 1.16259 1.16259 1.16259 1.16259 1.16259 1.16259 1.16259 1.16259 1.16259 1.16259
          1.16259 1.16259 1.16259 1.16259 1.16259 1.16259 1.16259 1.16259 1.16259 1.16259 1.16259 1.16259
          1.16259 1.16259 1.16259 1.16259 1.16259 1.16259 1.16259 1.16259 1.16259 1.16259 1.16259 1.16259
          1.16259 1.16259 1.16259 1.16259 1.16259 1.16259 1.16259 1.16259 1.16259 1.16259 1.16259 1.16259
          1.16259 1.16259 1.16259 1.16259 1.16259 1.16259 1.16259 1.16259 1.16259 1.16259 1.16259 1.16259
          1.16259 1.16259 1.16259 1.16259 1.16259 1.16259 1.16259 1.16259 1.16259 1.16259 1.16259 1.16259
          1.16259 1.16259 1.16259 1.16259 1.16259 1.16259 1.16259 1.16259 1.16259 1.16259 1.16259 1.16259
        </DataArray>
        <DataArray type="Float32" Name="mu" NumberOfComponents="1" format="ascii">
          1.79315e-05 1.79188e-05 1.81222e-05 1.80585e-05 1.79079e-05 1.80244e-05 1.78987e-05 1.80033e-05 1.78911e-05 1.79886e-05 1.78848e-05 1.79773e-05
          1.78795e-05 1.79682e-05 1.78749e-05 1.79605e-05 1.78707e-05 1.79539e-05 1.78666e-05 1.79479e-05 1.78627e-05 1.79424e-05 1.78585e-05 1.79373e-05
          1.78539e-05 1.79322e-05 1.78481e-05 1.79269e-05 1.7844e-05 1.79218e-05 1.78281e-05 1.79175e-05 1.81222e-05 1.81133e-05 1.81002e-05 1.80868e-05
          1.80745e-05 1.80635e-05 1.80537e-05 1.8045e-05 1.80372e-05 1.80302e-05 1.80238e-05 1.80179e-05 1.80123e-05 1.8007e-05 1.80019e-05 1.79993e-05
          1.81222e-05 1.81215e-05 1.81196e-05 1.81168e-05 1.81132e-05 1.81091e-05 1.81046e-05 1.81001e-05 1.80955e-05 1.80909e-05 1.80864e-05 1.8082e-05
          1.80777e-05 1.80735e-05 1.80694e-05 1.80674e-05 1.81222e-05 1.81222e-05 1.81221e-05 1.81218e-05 1.81213e-05 1.81207e-05 1.81198e-05 1.81188e-05
          1.81176e-05 1.81162e-05 1.81147e-05 1.81131e-05 1.81114e-05 1.81096e-05 1.81078e-05 1.81068e-05 1.81222e-05 1.81222e-05 1.81222e-05 1.81222e-05
          1.81222e-05 1.81221e-05 1.81221e-05 1.81219e-05 1.81218e-05 1.81216e-05 1.81214e-05 1.81211e-05 1.81208e-05 1.81204e-05 1.812e-05 1.81198e-05
          1.81222e-05 1.81222e-05 1.81222e-05 1.81222e-05 1.81222e-05 1.81222e-05 1.81222e-05 1.81222e-05 1.81222e-05 1.81222e-05 1.81222e-05 1.81222e-05
          1.81221e-05 1.81221e-05 1.8122e-05 1.8122e-05 1.81222e-05 1.81222e-05 1.81222e-05 1.81222e-05 1.81222e-05 1.81222e-05 1.81222e-05 1.81222e-05
          1.81222e-05 1.81222e-05 1.81222e-05 1.81222e-05 1.81222e-05 1.81222e-05 1.81222e-05 1.81222e-05 1.81222e-05 1.81222e-05 1.81222e-05 1.81222e-05
          1.81222e-05 1.81222e-05 1.81222e-05 1.81222e-05 1.81222e-05 1.81222e-05 1.81222e-05 1.81222e-05 1.81222e-05 1.81222e-05 1.81222e-05 1.81222e-05
          1.81222e-05 1.81222e-05 1.81222e-05 1.81222e-05 1.81222e-05 1.81222e-05 1.81222e-05 1.81222e-05 1.81222e-05 1.81222e-05 1.81222e-05 1.81222e-05
          1.81222e-05 1.81222e-05 1.81222e-05 1.81222e-05 1.81222e-05 1.81222e-05 1.81222e-05 1.81222e-05 1.81222e-05 1.81222e-05 1.81222e-05 1.81222e-05
          1.81222e-05 1.81222e-05 1.81222e-05 1.81222e-05 1.81222e-05 1.81222e-05 1.81222e-05 1.81222e-05 1.81222e-05 1.81222e-05 1.81222e-05 1.81222e-05
          1.81222e-05 1.81222e-05 1.81222e-05 1.81222e-05 1.81222e-05 1.81222e-05 1.81222e-05 1.81222e-05 1.81222e-05 1.81222e-05 1.81222e-05 1.81222e-05
          1.81222e-05 1.81222e-05 1.81222e-05 1.81222e-05 1.81222e-05 1.81222e-05 1.81222e-05 1.81222e-05 1.81222e-05 1.81222e-05 1.81222e-05 1.81222e-05
          1.81222e-05 1.81222e-05 1.81222e-05 1.81222e-05 1.81222e-05 1.81222e-05 1.81222e-05 1.81222e-05 1.81222e-05 1.81222e-05 1.81222e-05 1.81222e-05
          1.81222e-05 1.81222e-05 1.81222e-05 1.81222e-05 1.81222e-05 1.81222e-05 1.81222e-05 1.81222e-05 1.81222e-05 1.81222e-05 1.81222e-05 1.81222e-05
          1.81222e-05 1.81222e-05 1.81222e-05 1.81222e-05 1.81222e-05 1.81222e-05 1.81222e-05 1.81222e-05 1.81222e-05 1.81222e-05 1.81222e-05 1.81222e-05
          1.81222e-05 1.81222e-05 1.81222e-05 1.81222e-05 1.81222e-05 1.81222e-05 1.81222e-05 1.81222e-05 1.81222e-05 1.81222e-05 1.81222e-05 1.81222e-05
          1.81222e-05 1.81222e-05 1.81222e-05 1.81222e-05 1.81222e-05 1.81222e-05 1.81222e-05 1.81222e-05 1.81222e-05 1.81222e-05 1.81222e-05 1.81222e-05
          1.81222e-05 1.81222e-05 1.81222e-05 1.81222e-05 1.81222e-05 1.81222e-05 1.81222e-05 1.81222e-05 1.81222e-05 1.81222e-05 1.81222e-05 1.81222e-05
          1.81222e-05 1.81222e-05 1.81222e-05 1.81222e-05 1.81222e-05 1.81222e-05 1.81222e-05 1.81222e-05 1.81222e-05 1.81222e-05 1.81222e-05 1.81222e-05
          1.81222e-05 1.81222e-05 1.81222e-05 1.81222e-05 1.81222e-05 1.81222e-05 1.81222e-05 1.81222e-05 1.81222e-05 1.81222e-05 1.81222e-05 1.81222e-05
          1.81222e-05 1.81222e-05 1.81222e-05 1.81222e-05 1.81222e-05 1.81222e-05 1.81222e-05 1.81222e-05 1.81222e-05 1.81222e-05 1.81222e-05 1.81222e-05
          1.81222e-05 1.81222e-05 1.81222e-05 1.81222e-05 1.81222e-05 1.81222e-05 1.81222e-05 1.81222e-05 1.81222e-05 1.81222e-05 1.81222e-05 1.81222e-05
          1.81222e-05 1.81222e-05 1.81222e-05 1.81222e-05 1.81222e-05 1.81222e-05 1.81222e-05 1.81222e-05 1.81222e-05 1.81222e-05 1.81222e-05 1.81222e-05
          1.81222e-05 1.81222e-05 1.81222e-05 1.81222e-05 1.81222e-05 1.81222e-05 1.81222e-05 1.81222e-05 1.81222e-05 1.81222e-05 1.81222e-05 1.81222e-05
          1.81222e-05 1.81222e-05 1.81222e-05 1.81222e-05 1.81222e-05 1.81222e-05 1.81222e-05 1.81222e-05 1.81222e-05 1.81222e-05 1.81222e-05 1.81222e-05
          1.81222e-05 1.81222e-05 1.81222e-05 1.81222e-05 1.81222e-05 1.81222e-05 1.81222e-05 1.81222e-05 1.81222e-05 1.81222e-05 1.81222e-05 1.81223e-05
          1.81223e-05 1.81223e-05 1.81223e-05 1.81223e-05 1.81223e-05 1.81223e-05 1.81223e-05 1.81223e-05 1.81223e-05 1.81223e-05 1.81223e-05 1.81222e-05
        </DataArray>
        <DataArray type="Float32" Name="v" NumberOfComponents="3" format="ascii">
          0.000918802 1.91316e-05 0 0.000919986 1.79294e-05 0 0.116839 0 0 0.117041 1.15784e-05 0
          0.000921723 1.67936e-05 0 0.117278 9.79135e-06 0 0.000922024 1.63795e-05 0 0.117397 1.2604e-05 0
          0.00092258 1.62278e-05 0 0.117488 1.32085e-05 0 0.000922933 1.62668e-05 0 0.117554 1.41696e-05 0