<?xml version="1.0"?>
<VTKFile type="UnstructuredGrid" version="0.1" byte_order="LittleEndian">
  <UnstructuredGrid>
    <Piece NumberOfCells="1936" NumberOfPoints="2025">
      <PointData Scalars="P">
        <DataArray type="Float32" Name="P" NumberOfComponents="1" format="ascii">
          0 0 0 5.41738e-08 0 1.08347e-07 0 1.62511e-07 0 2.16644e-07 0 2.70705e-07
          0 3.24621e-07 0 3.78288e-07 0 4.31561e-07 0 4.84248e-07 0 5.36106e-07 0 5.86841e-07
          0 6.36103e-07 0 6.8349e-07 0 7.28554e-07 0 7.70807e-07 0 8.09735e-07 0 8.44814e-07
          0 8.75525e-07 0 9.01376e-07 0 9.21924e-07 0 9.36792e-07 0 9.45688e-07 0 9.48414e-07
          0 9.44879e-07 0 9.35096e-07 0 9.19183e-07 0 8.97354e-07 0 8.69903e-07 0 8.37194e-07
          0 7.9964e-07 0 7.5769e-07 0 7.11808e-07 0 6.6246e-07 0 6.10104e-07 0 5.55173e-07
          0 4.98073e-07 0 4.39173e-07 0 3.78806e-07 0 3.17268e-07 0 2.54815e-07 0 1.91674e-07
          0 1.28044e-07 0 6.40984e-08 0 0 0 1.08347e-07 2.16699e-07 3.25047e-07 4.33355e-07 5.41545e-07
          6.4948e-07 7.56959e-07 8.63696e-07 9.6931e-07 1.07332e-06 1.17514e-06 1.27407e-06 1.36929e-06 1.45991e-06 1.54494e-06 1.62332e-06 1.694e-06
          1.75592e-06 1.80807e-06 1.84955e-06 1.87958e-06 1.89757e-06 1.90312e-06 1.89603e-06 1.87634e-06 1.8443e-06 1.80035e-06 1.74508e-06 1.67924e-06
          1.60368e-06 1.51931e-06 1.42708e-06 1.32792e-06 1.22278e-06 1.11251e-06 9.97936e-07 8.79804e-07 7.58776e-07 6.35441e-07 5.10311e-07 3.83833e-07
          2.56398e-07 1.28348e-07 0 0 1.62511e-07 3.25047e-07 4.87613e-07 6.50171e-07 8.1262e-07 9.74777e-07 1.13635e-06 1.29693e-06
          1.45595e-06 1.6127e-06 1.76631e-06 1.91571e-06 2.05968e-06 2.19685e-06 2.3257e-06 2.44462e-06 2.55197e-06 2.64611e-06 2.72548e-06 2.78866e-06
          2.83447e-06 2.86195e-06 2.87051e-06 2.85984e-06 2.83e-06 2.78139e-06 2.71468e-06 2.63084e-06 2.53103e-06 2.41654e-06 2.2888e-06 2.14926e-06
          1.99937e-06 1.84055e-06 1.67413e-06 1.50134e-06 1.32331e-06 1.14103e-06 9.55391e-07 7.6714e-07 5.7694e-07 3.85357e-07 1.92893e-07 0
          0 2.16644e-07 4.33355e-07 6.50171e-07 8.67074e-07 1.08396e-06 1.30062e-06 1.5167e-06 1.73167e-06 1.94481e-06 2.15519e-06 2.36164e-06
          2.56274e-06 2.75685e-06 2.94208e-06 3.11637e-06 3.27749e-06 3.42316e-06 3.5511e-06 3.65911e-06 3.74523e-06 3.80774e-06 3.84536e-06 3.85721e-06
          3.84289e-06 3.80251e-06 3.73662e-06 3.64621e-06 3.53263e-06 3.3975e-06 3.24267e-06 3.07009e-06 2.88178e-06 2.67974e-06 2.4659e-06 2.24208e-06
          2.00996e-06 1.77103e-06 1.52663e-06 1.27792e-06 1.0259e-06 7.7141e-07 5.15187e-07 2.57861e-07 0 0 2.70705e-07 5.41545e-07
          8.1262e-07 1.08396e-06 1.3555e-06 1.62701e-06 1.89811e-06 2.16819e-06 2.43638e-06 2.70155e-06 2.96225e-06 3.21671e-06 3.46284e-06 3.69822e-06
          3.92018e-06 4.12582e-06 4.31212e-06 4.47606e-06 4.61473e-06 4.72548e-06 4.80604e-06 4.85466e-06 4.87019e-06 4.85213e-06 4.80062e-06 4.71646e-06
          4.60099e-06 4.45601e-06 4.28372e-06 4.08655e-06 3.8671e-06 3.628e-06 3.37187e-06 3.10119e-06 2.8183e-06 2.52533e-06 2.22418e-06 1.9165e-06
          1.60373e-06 1.28709e-06 9.67593e-07 6.46103e-07 3.23355e-07 0 0 3.24621e-07 6.4948e-07 9.74777e-07 1.30062e-06 1.62701e-06
          1.95377e-06 2.28048e-06 2.60651e-06 2.93089e-06 3.25229e-06 3.56902e-06 3.87894e-06 4.1795e-06 4.46773e-06 4.74027e-06 4.99347e-06 5.22347e-06
          5.42636e-06 5.59837e-06 5.73604e-06 5.83642e-06 5.89721e-06 5.91693e-06 5.89496e-06 5.83154e-06 5.72774e-06 5.58535e-06 5.40677e-06 5.19485e-06
          4.95273e-06 4.68374e-06 4.39124e-06 4.0785e-06 3.74864e-06 3.40455e-06 3.04883e-06 2.68378e-06 2.3114e-06 1.93337e-06 1.55109e-06 1.16574e-06
          7.78255e-07 3.89446e-07 0 0 3.78288e-07 7.56959e-07 1.13635e-06 1.5167e-06 1.89811e-06 2.28048e-06 2.66347e-06 3.04641e-06
          3.42827e-06 3.80761e-06 4.18248e-06 4.55041e-06 4.9084e-06 5.25285e-06 5.57967e-06 5.88432e-06 6.16196e-06 6.40763e-06 6.61649e-06 6.78408e-06
          6.90658e-06 6.98105e-06 7.0056e-06 6.97946e-06 6.90303e-06 6.77776e-06 6.60603e-06 6.39095e-06 6.13621e-06 5.84579e-06 5.52389e-06 5.17467e-06
          4.80219e-06 4.41026e-06 4.00235e-06 3.58158e-06 3.15065e-06 2.71188e-06 2.26718e-06 1.81813e-06 1.36597e-06 9.11708e-07 4.5616e-07 0
          0 4.31561e-07 8.63696e-07 1.29693e-06 1.73167e-06 2.16819e-06 2.60651e-06 3.04641e-06 3.48727e-06 3.92806e-06 4.36726e-06 4.80273e-06
          5.23171e-06 5.65069e-06 6.05548e-06 6.44115e-06 6.80214e-06 7.13244e-06 7.42579e-06 7.67603e-06 7.87742e-06 8.02504e-06 8.11511e-06 8.14523e-06
          8.11452e-06 8.02359e-06 7.87442e-06 7.67018e-06 7.4149e-06 7.11327e-06 6.77034e-06 6.39131e-06 5.98131e-06 5.54526e-06 5.08775e-06 4.61291e-06
          4.12437e-06 3.62527e-06 3.1182e-06 2.60528e-06 2.0882e-06 1.56825e-06 1.04642e-06 5.23469e-07 0 0 4.84248e-07 9.6931e-07
          1.45595e-06 1.94481e-06 2.43638e-06 2.93089e-06 3.42827e-06 3.92806e-06 4.42931e-06 4.93047e-06 5.42931e-06 5.9228e-06 6.40701e-06 6.87708e-06
          7.32718e-06 7.75059e-06 8.13988e-06 8.48718e-06 8.78463e-06 9.02483e-06 9.20141e-06 9.3095e-06 9.34608e-06 9.31015e-06 9.20267e-06 9.0264e-06
          8.78552e-06 8.48529e-06 8.13167e-06 7.73098e-06 7.28963e-06 6.8139e-06 6.30969e-06 5.78245e-06 5.23702e-06 4.67761e-06 4.10773e-06 3.53025e-06
          2.94745e-06 2.36106e-06 1.77234e-06 1.18221e-06 5.9128e-07 0 0 5.36106e-07 1.07332e-06 1.6127e-06 2.15519e-06 2.70155e-06
          3.25229e-06 3.80761e-06 4.36726e-06 4.93047e-06 5.4958e-06 6.06102e-06 6.62292e-06 7.17722e-06 7.71842e-06 8.23971e-06 8.73305e-06 9.1893e-06
          9.59855e-06 9.95073e-06 1.02362e-05 1.04467e-05 1.05759e-05 1.062e-05 1.05778e-05 1.04509e-05 1.02432e-05 9.96037e-06 9.60915e-06 9.19715e-06
          8.73223e-06 8.22227e-06 7.67483e-06 7.097e-06 6.49517e-06 5.87496e-06 5.24114e-06 4.59762e-06 3.9475e-06 3.29311e-06 2.63616e-06 1.97779e-06
          1.31875e-06 6.59417e-07 0 0 5.86841e-07 1.17514e-06 1.76631e-06 2.36164e-06 2.96225e-06 3.56902e-06 4.18248e-06 4.80273e-06
          5.42931e-06 6.06102e-06 6.69576e-06 7.33033e-06 7.96021e-06 8.57933e-06 9.17992e-06 9.75242e-06 1.02856e-05 1.07671e-05 1.11838e-05 1.15231e-05
          1.1774e-05 1.19282e-05 1.19807e-05 1.19306e-05 1.17804e-05 1.15356e-05 1.12038e-05 1.07939e-05 1.03155e-05 9.77846e-06 9.19225e-06 8.566e-06
          7.9081e-06 7.22605e-06 6.52629e-06 5.81417e-06 5.09394e-06 4.36884e-06 3.64119e-06 2.91255e-06 2.18385e-06 1.45551e-06 7.27617e-07 0
          0 6.36103e-07 1.27407e-06 1.91571e-06 2.56274e-06 3.21671e-06 3.87894e-06 4.55041e-06 5.23171e-06 5.9228e-06 6.62292e-06 7.33033e-06
          8.04205e-06 8.75353e-06 9.45833e-06 1.01478e-05 1.08107e-05 1.14336e-05 1.20006e-05 1.24947e-05 1.28992e-05 1.3199e-05 1.33831e-05 1.34451e-05
          1.33843e-05 1.32051e-05 1.29152e-05 1.25254e-05 1.20471e-05 1.14926e-05 1.08737e-05 1.02021e-05 9.48858e-06 8.74309e-06 7.97436e-06 7.18971e-06
          6.39505e-06 5.5949e-06 4.79253e-06 3.9901e-06 3.18889e-06 2.38944e-06 1.59178e-06 7.9551e-07 0 0 6.8349e-07 1.36929e-06
          2.05968e-06 2.75685e-06 3.46284e-06 4.1795e-06 4.9084e-06 5.65069e-06 6.40701e-06 7.17722e-06 7.96021e-06 8.75353e-06 9.55297e-06 1.03521e-05
          1.11415e-05 1.19086e-05 1.2637e-05 1.33068e-05 1.38958e-05 1.43808e-05 1.47411e-05 1.49614e-05 1.50335e-05 1.49576e-05 1.47408e-05 1.43952e-05
          1.39354e-05 1.33766e-05 1.27338e-05 1.20216e-05 1.12536e-05 1.04428e-05 9.60099e-06 8.73821e-06 7.86277e-06 6.9811e-06 6.09782e-06 5.21606e-06
          4.33762e-06 3.46332e-06 2.59316e-06 1.72659e-06 8.62612e-07 0 0 7.28554e-07 1.45991e-06 2.19685e-06 2.94208e-06 3.69822e-06
          4.46773e-06 5.25285e-06 6.05548e-06 6.87708e-06 7.71842e-06 8.57933e-06 9.45833e-06 1.03521e-05 1.12546e-05 1.21566e-05 1.30442e-05 1.38982e-05
          1.46939e-05 1.54013e-05 1.59883e-05 1.64253e-05 1.66899e-05 1.67718e-05 1.66729e-05 1.6406e-05 1.59896e-05 1.54444e-05 1.47899e-05 1.40444e-05
          1.32249e-05 1.23475e-05 1.14277e-05 1.04794e-05 9.51424e-06 8.54164e-06 7.56835e-06 6.59892e-06 5.636e-06 4.68082e-06 3.73346e-06 2.79321e-06
          1.85873e-06 9.2832e-07 0 0 7.70807e-07 1.54494e-06 2.3257e-06 3.11637e-06 3.92018e-06 4.74027e-06 5.57967e-06 6.44115e-06
          7.32718e-06 8.23971e-06 9.17992e-06 1.01478e-05 1.11415e-05 1.21566e-05 1.31847e-05 1.42118e-05 1.52166e-05 1.61685e-05 1.70276e-05 1.7748e-05
          1.82849e-05 1.86048e-05 1.86934e-05 1.85578e-05 1.82209e-05 1.77126e-05 1.7062e-05 1.62939e-05 1.54289e-05 1.44859e-05 1.34836e-05 1.24407e-05
          1.13739e-05 1.02971e-05 9.22062e-06 8.15129e-06 7.09312e-06 6.04794e-06 5.01599e-06 3.99636e-06 2.98736e-06 1.98675e-06 9.91906e-07 0
          0 8.09735e-07 1.62332e-06 2.44462e-06 3.27749e-06 4.12582e-06 4.99347e-06 5.88432e-06 6.80214e-06 7.75059e-06 8.73305e-06 9.75242e-06
          1.08107e-05 1.19086e-05 1.30442e-05 1.42118e-05 1.53994e-05 1.65853e-05 1.77339e-05 1.87927e-05 1.96941e-05 2.03669e-05 2.07568e-05 2.08435e-05
          2.06456e-05 2.02066e-05 1.95764e-05 1.87962e-05 1.78945e-05 1.68915e-05 1.58061e-05 1.466e-05 1.34766e-05 1.22774e-05 1.10788e-05 9.89174e-06
          8.72254e-06 7.57395e-06 6.44637e-06 5.33863e-06 4.24849e-06 3.17305e-06 2.10894e-06 1.05253e-06 0 0 8.44814e-07 1.694e-06
          2.55197e-06 3.42316e-06 4.31212e-06 5.22347e-06 6.16196e-06 7.13244e-06 8.13988e-06 9.1893e-06 1.02856e-05 1.14336e-05 1.2637e-05 1.38982e-05
          1.52166e-05 1.65853e-05 1.79869e-05 1.93848e-05 2.07135e-05 2.18728e-05 2.27418e-05 2.32226e-05 2.32852e-05 2.29754e-05 2.23808e-05 2.15865e-05
          2.06495e-05 1.95962e-05 1.84376e-05 1.71877e-05 1.5873e-05 1.4527e-05 1.31788e-05 1.18477e-05 1.05442e-05 9.2726e-06 8.03338e-06 6.82473e-06
          5.64351e-06 4.48583e-06 3.34734e-06 2.22341e-06 1.10925e-06 0 0 8.75525e-07 1.75592e-06 2.64611e-06 3.5511e-06 4.47606e-06
          5.42636e-06 6.40763e-06 7.42579e-06 8.48718e-06 9.59855e-06 1.07671e-05 1.20006e-05 1.33068e-05 1.46939e-05 1.61685e-05 1.77339e-05 1.93848e-05
          2.10948e-05 2.27962e-05 2.43467e-05 2.55253e-05 2.61291e-05 2.61099e-05 2.55878e-05 2.4746e-05 2.37309e-05 2.26146e-05 2.14049e-05 2.00795e-05
          1.86359e-05 1.71157e-05 1.55769e-05 1.40607e-05 1.25874e-05 1.11638e-05 9.78978e-06 8.46195e-06 7.17546e-06 5.92473e-06 4.70391e-06 3.50703e-06
          2.32807e-06 1.16105e-06 0 0 9.01376e-07 1.80807e-06 2.72548e-06 3.65911e-06 4.61473e-06 5.59837e-06 6.61649e-06 7.67603e-06
          8.78463e-06 9.95073e-06 1.11838e-05 1.24947e-05 1.38958e-05 1.54013e-05 1.70276e-05 1.87927e-05 2.07135e-05 2.27962e-05 2.50003e-05 2.71896e-05
          2.89366e-05 2.97101e-05 2.94504e-05 2.85059e-05 2.72624e-05 2.59604e-05 2.4663e-05 2.33353e-05 2.18571e-05 2.01641e-05 1.83695e-05 1.65988e-05
          1.48966e-05 1.3276e-05 1.17332e-05 1.02604e-05 8.84904e-06 7.49035e-06 6.17602e-06 4.89806e-06 3.64879e-06 2.42081e-06 1.2069e-06 0
          0 9.21924e-07 1.84955e-06 2.78866e-06 3.74523e-06 4.72548e-06 5.73604e-06 6.78408e-06 7.87742e-06 9.02483e-06 1.02362e-05 1.15231e-05
          1.28992e-05 1.43808e-05 1.59883e-05 1.7748e-05 1.96941e-05 2.18728e-05 2.43467e-05 2.71896e-05 3.02726e-05 3.3652e-05 3.43368e-05 3.35278e-05
          3.16433e-05 2.97989e-05 2.8165e-05 2.67222e-05 2.53899e-05 2.3978e-05 2.174e-05 1.95913e-05 1.75417e-05 1.56483e-05 1.38859e-05 1.22324e-05
          1.06698e-05 9.18352e-06 7.76098e-06 6.39103e-06 5.06358e-06 3.76932e-06 2.4995e-06 1.24576e-06 0 0 9.36792e-07 1.87958e-06
          2.83447e-06 3.80774e-06 4.80604e-06 5.83642e-06 6.90658e-06 8.02504e-06 9.20141e-06 1.04467e-05 1.1774e-05 1.3199e-05 1.47411e-05 1.64253e-05
          1.82849e-05 2.03669e-05 2.27418e-05 2.55253e-05 2.89366e-05 3.3652e-05 3.78626e-05 3.79597e-05 3.65775e-05 3.35629e-05 3.12428e-05 2.94078e-05
          2.79191e-05 2.6688e-05 2.56637e-05 2.34389e-05 2.06319e-05 1.83274e-05 1.62705e-05 1.43882e-05 1.26413e-05 1.10033e-05 9.45463e-06 7.97929e-06
          6.56373e-06 5.19605e-06 3.8655e-06 2.56216e-06 1.27666e-06 0 0 9.45688e-07 1.89757e-06 2.86195e-06 3.84536e-06 4.85466e-06
          5.89721e-06 6.98105e-06 8.11511e-06 9.3095e-06 1.05759e-05 1.19282e-05 1.33831e-05 1.49614e-05 1.66899e-05 1.86048e-05 2.07568e-05 2.32226e-05
          2.61291e-05 2.97101e-05 3.43368e-05 3.79597e-05 3.79346e-05 3.65324e-05 3.35072e-05 3.12491e-05 2.94878e-05 2.80692e-05 2.69168e-05 2.60068e-05
          2.40847e-05 2.13084e-05 1.88841e-05 1.67242e-05 1.4758e-05 1.29426e-05 1.12484e-05 9.65298e-06 8.1382e-06 6.68882e-06 5.29159e-06 3.93462e-06
          2.60708e-06 1.29878e-06 0 0 9.48414e-07 1.90312e-06 2.87051e-06 3.85721e-06 4.87019e-06 5.91693e-06 7.0056e-06 8.14523e-06
          9.34608e-06 1.062e-05 1.19807e-05 1.34451e-05 1.50335e-05 1.67718e-05 1.86934e-05 2.08435e-05 2.32852e-05 2.61099e-05 2.94504e-05 3.35278e-05
          3.65775e-05 3.65324e-05 3.53515e-05 3.2716e-05 3.07932e-05 2.9241e-05 2.7964e-05 2.69183e-05 2.60897e-05 2.43064e-05 2.16184e-05 1.91895e-05
          1.699e-05 1.49798e-05 1.31244e-05 1.13958e-05 9.77136e-06 8.23218e-06 6.76212e-06 5.34709e-06 3.9745e-06 2.63285e-06 1.31142e-06 0
          0 9.44879e-07 1.89603e-06 2.85984e-06 3.84289e-06 4.85213e-06 5.89496e-06 6.97946e-06 8.11452e-06 9.31015e-06 1.05778e-05 1.19306e-05
          1.33843e-05 1.49576e-05 1.66729e-05 1.85578e-05 2.06456e-05 2.29754e-05 2.55878e-05 2.85059e-05 3.16433e-05 3.35629e-05 3.35072e-05 3.2716e-05
          3.13994e-05 2.99911e-05 2.87293e-05 2.76344e-05 2.67078e-05 2.59526e-05 2.42603e-05 2.16591e-05 1.92647e-05 1.70684e-05 1.50488e-05 1.31806e-05
          1.14399e-05 9.80514e-06 8.25754e-06 6.78078e-06 5.36044e-06 3.98361e-06 2.63851e-06 1.31413e-06 0 0 9.35096e-07 1.87634e-06
          2.83e-06 3.80251e-06 4.80062e-06 5.83154e-06 6.90303e-06 8.02359e-06 9.20267e-06 1.04509e-05 1.17804e-05 1.32051e-05 1.47408e-05 1.6406e-05
          1.82209e-05 2.02066e-05 2.23808e-05 2.4746e-05 2.72624e-05 2.97989e-05 3.12428e-05 3.12491e-05 3.07932e-05 2.99911e-05 2.90261e-05 2.8049e-05
          2.71376e-05 2.63271e-05 2.56378e-05 2.4013e-05 2.14871e-05 1.91388e-05 1.69696e-05 1.49667e-05 1.31102e-05 1.13788e-05 9.75233e-06 8.21254e-06
          6.74337e-06 5.33055e-06 3.9612e-06 2.62356e-06 1.30666e-06 0 0 9.19183e-07 1.8443e-06 2.78139e-06 3.73662e-06 4.71646e-06
          5.72774e-06 6.77776e-06 7.87442e-06 9.0264e-06 1.02432e-05 1.15356e-05 1.29152e-05 1.43952e-05 1.59896e-05 1.77126e-05 1.95764e-05 2.15865e-05
          2.37309e-05 2.59604e-05 2.8165e-05 2.94078e-05 2.94878e-05 2.9241e-05 2.87293e-05 2.8049e-05 2.72948e-05 2.65374e-05 2.58239e-05 2.51864e-05
          2.36037e-05 2.11322e-05 1.88301e-05 1.67029e-05 1.47379e-05 1.29151e-05 1.12134e-05 9.61334e-06 8.09737e-06 6.65e-06 5.25745e-06 3.90726e-06
          2.58801e-06 1.289e-06 0 0 8.97354e-07 1.80035e-06 2.71468e-06 3.64621e-06 4.60099e-06 5.58535e-06 6.60603e-06 7.67018e-06
          8.78552e-06 9.96037e-06 1.12038e-05 1.25254e-05 1.39354e-05 1.54444e-05 1.7062e-05 1.87962e-05 2.06495e-05 2.26146e-05 2.4663e-05 2.67222e-05
          2.79191e-05 2.80692e-05 2.7964e-05 2.76344e-05 2.71376e-05 2.65374e-05 2.58904e-05 2.52426e-05 2.46337e-05 2.30506e-05 2.06003e-05 1.8342e-05
          1.62725e-05 1.43669e-05 1.25993e-05 1.0947e-05 9.39077e-06 7.91401e-06 6.50214e-06 5.14223e-06 3.82256e-06 2.53234e-06 1.2614e-06 0
          0 8.69903e-07 1.74508e-06 2.63084e-06 3.53263e-06 4.45601e-06 5.40677e-06 6.39095e-06 7.4149e-06 8.48529e-06 9.60915e-06 1.07939e-05
          1.20471e-05 1.33766e-05 1.47899e-05 1.62939e-05 1.78945e-05 1.95962e-05 2.14049e-05 2.33353e-05 2.53899e-05 2.6688e-05 2.69168e-05 2.69183e-05
          2.67078e-05 2.63271e-05 2.58239e-05 2.52426e-05 2.46218e-05 2.40048e-05 2.23349e-05 1.98616e-05 1.76616e-05 1.56787e-05 1.3859e-05 1.21689e-05
          1.05851e-05 9.08926e-06 7.66614e-06 6.30263e-06 4.987e-06 3.70859e-06 2.45748e-06 1.2243e-06 0 0 8.37194e-07 1.67924e-06
          2.53103e-06 3.3975e-06 4.28372e-06 5.19485e-06 6.13621e-06 7.11327e-06 8.13167e-06 9.19715e-06 1.03155e-05 1.14926e-05 1.27338e-05 1.40444e-05
          1.54289e-05 1.68915e-05 1.84376e-05 2.00795e-05 2.18571e-05 2.3978e-05 2.56637e-05 2.60068e-05 2.60897e-05 2.59526e-05 2.56378e-05 2.51864e-05
          2.46337e-05 2.40048e-05 2.33144e-05 2.13244e-05 1.88274e-05 1.67737e-05 1.49264e-05 1.32235e-05 1.16336e-05 1.0136e-05 8.71548e-06 7.35903e-06
          6.05549e-06 4.79474e-06 3.56744e-06 2.36478e-06 1.17836e-06 0 0 7.9964e-07 1.60368e-06 2.41654e-06 3.24267e-06 4.08655e-06
          4.95273e-06 5.84579e-06 6.77034e-06 7.73098e-06 8.73223e-06 9.77846e-06 1.08737e-05 1.20216e-05 1.32249e-05 1.44859e-05 1.58061e-05 1.71877e-05
          1.86359e-05 2.01641e-05 2.174e-05 2.34389e-05 2.40847e-05 2.43064e-05 2.42603e-05 2.4013e-05 2.36037e-05 2.30506e-05 2.23349e-05 2.13244e-05
          1.93484e-05 1.74839e-05 1.5697e-05 1.40351e-05 1.24773e-05 1.10068e-05 9.61064e-06 8.27798e-06 6.99927e-06 5.76573e-06 4.56916e-06 3.40173e-06
          2.25591e-06 1.1244e-06 0 0 7.5769e-07 1.51931e-06 2.2888e-06 3.07009e-06 3.8671e-06 4.68374e-06 5.52389e-06 6.39131e-06
          7.28963e-06 8.22227e-06 9.19225e-06 1.02021e-05 1.12536e-05 1.23475e-05 1.34836e-05 1.466e-05 1.5873e-05 1.71157e-05 1.83695e-05 1.95913e-05
          2.06319e-05 2.13084e-05 2.16184e-05 2.16591e-05 2.14871e-05 2.11322e-05 2.06003e-05 1.98616e-05 1.88274e-05 1.74839e-05 1.5992e-05 1.44957e-05
          1.30413e-05 1.16446e-05 1.03062e-05 9.02201e-06 7.78672e-06 6.59446e-06 5.43911e-06 4.31451e-06 3.21446e-06 2.13278e-06 1.06334e-06 0
          0 7.11808e-07 1.42708e-06 2.14926e-06 2.88178e-06 3.628e-06 4.39124e-06 5.17467e-06 5.98131e-06 6.8139e-06 7.67483e-06 8.566e-06
          9.48858e-06 1.04428e-05 1.14277e-05 1.24407e-05 1.34766e-05 1.4527e-05 1.55769e-05 1.65988e-05 1.75417e-05 1.83274e-05 1.88841e-05 1.91895e-05
          1.92647e-05 1.91388e-05 1.88301e-05 1.8342e-05 1.76616e-05 1.67737e-05 1.5697e-05 1.44957e-05 1.32428e-05 1.19871e-05 1.0753e-05 9.55107e-06
          8.38437e-06 7.2524e-06 6.15272e-06 5.08175e-06 4.03532e-06 3.00881e-06 1.99742e-06 9.96168e-07 0 0 6.6246e-07 1.32792e-06
          1.99937e-06 2.67974e-06 3.37187e-06 4.0785e-06 4.80219e-06 5.54526e-06 6.30969e-06 7.097e-06 7.9081e-06 8.74309e-06 9.60099e-06 1.04794e-05
          1.13739e-05 1.22774e-05 1.31788e-05 1.40607e-05 1.48966e-05 1.56483e-05 1.62705e-05 1.67242e-05 1.699e-05 1.70684e-05 1.69696e-05 1.67029e-05
          1.62725e-05 1.56787e-05 1.49264e-05 1.40351e-05 1.30413e-05 1.19871e-05 1.0908e-05 9.8277e-06 8.75986e-06 7.71155e-06 6.68555e-06 5.6821e-06
          4.69978e-06 3.73613e-06 2.78803e-06 1.85191e-06 9.23904e-07 0 0 6.10104e-07 1.22278e-06 1.84055e-06 2.4659e-06 3.10119e-06
          3.74864e-06 4.41026e-06 5.08775e-06 5.78245e-06 6.49517e-06 7.22605e-06 7.97436e-06 8.73821e-06 9.51424e-06 1.02971e-05 1.10788e-05 1.18477e-05
          1.25874e-05 1.3276e-05 1.38859e-05 1.43882e-05 1.4758e-05 1.49798e-05 1.50488e-05 1.49667e-05 1.47379e-05 1.43669e-05 1.3859e-05 1.32235e-05
          1.24773e-05 1.16446e-05 1.0753e-05 9.8277e-06 8.88825e-06 7.94816e-06 7.0158e-06 6.09578e-06 5.19011e-06 4.29896e-06 3.42129e-06 2.5552e-06
          1.69823e-06 8.47521e-07 0 0 5.55173e-07 1.11251e-06 1.67413e-06 2.24208e-06 2.8183e-06 3.40455e-06 4.00235e-06 4.61291e-06
          5.23702e-06 5.87496e-06 6.52629e-06 7.18971e-06 7.86277e-06 8.54164e-06 9.22062e-06 9.89174e-06 1.05442e-05 1.11638e-05 1.17332e-05 1.22324e-05
          1.26413e-05 1.29426e-05 1.31244e-05 1.31806e-05 1.31102e-05 1.29151e-05 1.25993e-05 1.21689e-05 1.16336e-05 1.10068e-05 1.03062e-05 9.55107e-06
          8.75986e-06 7.94816e-06 7.1278e-06 6.30706e-06 5.49124e-06 4.68329e-06 3.88446e-06 3.09472e-06 2.31317e-06 1.53823e-06 7.67926e-07 0
          0 4.98073e-07 9.97936e-07 1.50134e-06 2.00996e-06 2.52533e-06 3.04883e-06 3.58158e-06 4.12437e-06 4.67761e-06 5.24114e-06 5.81417e-06
          6.39505e-06 6.9811e-06 7.56835e-06 8.15129e-06 8.72254e-06 9.2726e-06 9.78978e-06 1.02604e-05 1.06698e-05 1.10033e-05 1.12484e-05 1.13958e-05
          1.14399e-05 1.13788e-05 1.12134e-05 1.0947e-05 1.05851e-05 1.0136e-05 9.61064e-06 9.02201e-06 8.38437e-06 7.71155e-06 7.0158e-06 6.30706e-06
          5.59284e-06 4.87839e-06 4.16704e-06 3.46064e-06 2.75983e-06 2.06441e-06 1.37354e-06 6.85922e-07 0 0 4.39173e-07 8.79804e-07
          1.32331e-06 1.77103e-06 2.22418e-06 2.68378e-06 3.15065e-06 3.62527e-06 4.10773e-06 4.59762e-06 5.09394e-06 5.5949e-06 6.09782e-06 6.59892e-06
          7.09312e-06 7.57395e-06 8.03338e-06 8.46195e-06 8.84904e-06 9.18352e-06 9.45463e-06 9.65298e-06 9.77136e-06 9.80514e-06 9.75233e-06 9.61334e-06
          9.39077e-06 9.08926e-06 8.71548e-06 8.27798e-06 7.78672e-06 7.2524e-06 6.68555e-06 6.09578e-06 5.49124e-06 4.87839e-06 4.26206e-06 3.64557e-06
          3.031e-06 2.41939e-06 1.811e-06 1.20552e-06 6.02189e-07 0 0 3.78806e-07 7.58776e-07 1.14103e-06 1.52663e-06 1.9165e-06
          2.3114e-06 2.71188e-06 3.1182e-06 3.53025e-06 3.9475e-06 4.36884e-06 4.79253e-06 5.21606e-06 5.636e-06 6.04794e-06 6.44637e-06 6.82473e-06
          7.17546e-06 7.49035e-06 7.76098e-06 7.97929e-06 8.1382e-06 8.23218e-06 8.25754e-06 8.21254e-06 8.09737e-06 7.91401e-06 7.66614e-06 7.35903e-06
          6.99927e-06 6.59446e-06 6.15272e-06 5.6821e-06 5.19011e-06 4.68329e-06 4.16704e-06 3.64557e-06 3.12194e-06 2.5982e-06 2.07557e-06 1.55459e-06
          1.03528e-06 5.17283e-07 0 0 3.17268e-07 6.35441e-07 9.55391e-07 1.27792e-06 1.60373e-06 1.93337e-06 2.26718e-06 2.60528e-06
          2.94745e-06 3.29311e-06 3.64119e-06 3.9901e-06 4.33762e-06 4.68082e-06 5.01599e-06 5.33863e-06 5.64351e-06 5.92473e-06 6.17602e-06 6.39103e-06
          6.56373e-06 6.68882e-06 6.76212e-06 6.78078e-06 6.74337e-06 6.65e-06 6.50214e-06 6.30263e-06 6.05549e-06 5.76573e-06 5.43911e-06 5.08175e-06
          4.69978e-06 4.29896e-06 3.88446e-06 3.46064e-06 3.031e-06 2.5982e-06 2.16413e-06 1.72998e-06 1.29642e-06 8.63672e-07 4.31632e-07 0
          0 2.54815e-07 5.10311e-07 7.6714e-07 1.0259e-06 1.28709e-06 1.55109e-06 1.81813e-06 2.0882e-06 2.36106e-06 2.63616e-06 2.91255e-06
          3.18889e-06 3.46332e-06 3.73346e-06 3.99636e-06 4.24849e-06 4.48583e-06 4.70391e-06 4.89806e-06 5.06358e-06 5.19605e-06 5.29159e-06 5.34709e-06
          5.36044e-06 5.33055e-06 5.25745e-06 5.14223e-06 4.987e-06 4.79474e-06 4.56916e-06 4.31451e-06 4.03532e-06 3.73613e-06 3.42129e-06 3.09472e-06
          2.75983e-06 2.41939e-06 2.07557e-06 1.72998e-06 1.38369e-06 1.03736e-06 6.91298e-07 3.45549e-07 0 0 1.91674e-07 3.83833e-07
          5.7694e-07 7.7141e-07 9.67593e-07 1.16574e-06 1.36597e-06 1.56825e-06 1.77234e-06 1.97779e-06 2.18385e-06 2.38944e-06 2.59316e-06 2.79321e-06
          2.98736e-06 3.17305e-06 3.34734e-06 3.50703e-06 3.64879e-06 3.76932e-06 3.8655e-06 3.93462e-06 3.9745e-06 3.98361e-06 3.9612e-06 3.90726e-06
          3.82256e-06 3.70859e-06 3.56744e-06 3.40173e-06 3.21446e-06 3.00881e-06 2.78803e-06 2.5552e-06 2.31317e-06 2.06441e-06 1.811e-06 1.55459e-06
          1.29642e-06 1.03736e-06 7.77977e-07 5.18566e-07 2.59245e-07 0 0 1.28044e-07 2.56398e-07 3.85357e-07 5.15187e-07 6.46103e-07
          7.78255e-07 9.11708e-07 1.04642e-06 1.18221e-06 1.31875e-06 1.45551e-06 1.59178e-06 1.72659e-06 1.85873e-06 1.98675e-06 2.10894e-06 2.22341e-06
          2.32807e-06 2.42081e-06 2.4995e-06 2.56216e-06 2.60708e-06 2.63285e-06 2.63851e-06 2.62356e-06 2.58801e-06 2.53234e-06 2.45748e-06 2.36478e-06
          2.25591e-06 2.13278e-06 1.99742e-06 1.85191e-06 1.69823e-06 1.53823e-06 1.37354e-06 1.20552e-06 1.03528e-06 8.63672e-07 6.91298e-07 5.18566e-07
          3.45712e-07 1.72848e-07 0 0 6.40984e-08 1.28348e-07 1.92893e-07 2.57861e-07 3.23355e-07 3.89446e-07 4.5616e-07 5.23469e-07
          5.9128e-07 6.59417e-07 7.27617e-07 7.9551e-07 8.62612e-07 9.2832e-07 9.91906e-07 1.05253e-06 1.10925e-06 1.16105e-06 1.2069e-06 1.24576e-06
          1.27666e-06 1.29878e-06 1.31142e-06 1.31413e-06 1.30666e-06 1.289e-06 1.2614e-06 1.2243e-06 1.17836e-06 1.1244e-06 1.06334e-06 9.96168e-07
          9.23904e-07 8.47521e-07 7.67926e-07 6.85922e-07 6.02189e-07 5.17283e-07 4.31632e-07 3.45549e-07 2.59245e-07 1.72848e-07 8.64254e-08 0
          0 0 0 0 0 0 0 0 0 0 0 0
          0 0 0 0 0 0 0 0 0 0 0 0
          0 0 0 0 0 0 0 0 0 0 0 0
          0 0 0 0 0 0 0 0 0
        </DataArray>
        <DataArray type="Float32" Name="delp" NumberOfComponents="1" format="ascii">
          -100000 -100000 -100000 -100000 -100000 -100000 -100000 -100000 -100000 -100000 -100000 -100000
          -100000 -100000 -100000 -100000 -100000 -100000 -100000 -100000 -100000 -100000 -100000 -100000
          -100000 -100000 -100000 -100000 -100000 -100000 -100000 -100000 -100000 -100000 -100000 -100000
          -100000 -100000 -100000 -100000 -100000 -100000 -100000 -100000 -100000 -100000 -100000 -100000
          -100000 -100000 -100000 -100000 -100000 -100000 -100000 -100000 -100000 -100000 -100000 -100000
          -100000 -100000 -100000 -100000 -100000 -100000 -100000 -100000 -100000 -100000 -100000 -100000
          -100000 -100000 -100000 -100000 -100000 -100000 -100000 -100000 -100000 -100000 -100000 -100000
          -100000 -100000 -100000 -100000 -100000 -100000 -100000 -100000 -100000 -100000 -100000 -100000
          -100000 -100000 -100000 -100000 -100000 -100000 -100000 -100000 -100000 -100000 -100000 -100000
          -100000 -100000 -100000 -100000 -100000 -100000 -100000 -100000 -100000 -100000 -100000 -100000
          -100000 -100000 -100000 -100000 -100000 -100000 -100000 -100000 -100000 -100000 -100000 -100000
          -100000 -100000 -100000 -100000 -100000 -100000 -100000 -100000 -100000 -100000 -100000 -100000
          -100000 -100000 -100000 -100000 -100000 -100000 -100000 -100000 -100000 -100000 -100000 -100000
          -100000 -100000 -100000 -100000 -100000 -100000 -100000 -100000 -100000 -100000 -100000 -100000
          -100000 -100000 -100000 -100000 -100000 -100000 -100000 -100000 -100000 -100000 -100000 -100000
          -100000 -100000 -100000 -100000 -100000 -100000 -100000 -100000 -100000 -100000 -100000 -100000
          -100000 -100000 -100000 -100000 -100000 -100000 -100000 -100000 -100000 -100000 -100000 -100000
          -100000 -100000 -100000 -100000 -100000 -100000 -100000 -100000 -100000 -100000 -100000 -100000
          -100000 -100000 -100000 -100000 -100000 -100000 -100000 -100000 -100000 -100000 -100000 -100000
          -100000 -100000 -100000 -100000 -100000 -100000 -100000 -100000 -100000 -100000 -100000 -100000
          -100000 -100000 -100000 -100000 -100000 -100000 -100000 -100000 -100000 -100000 -100000 -100000
          -100000 -100000 -100000 -100000 -100000 -100000 -100000 -100000 -100000 -100000 -100000 -100000
          -100000 -100000 -100000 -100000 -100000 -100000 -100000 -100000 -100000 -100000 -100000 -100000
          -100000 -100000 -100000 -100000 -100000 -100000 -100000 -100000 -100000 -100000 -100000 -100000
          -100000 -100000 -100000 -100000 -100000 -100000 -100000 -100000 -100000 -100000 -100000 -100000
          -100000 -100000 -100000 -100000 -100000 -100000 -100000 -100000 -100000 -100000 -100000 -100000
          -100000 -100000 -100000 -100000 -100000 -100000 -100000 -100000 -100000 -100000 -100000 -100000
          -100000 -100000 -100000 -100000 -100000 -100000 -100000 -100000 -100000 -100000 -100000 -100000
          -100000 -100000 -100000 -100000 -100000 -100000 -100000 -100000 -100000 -100000 -100000 -100000
          -100000 -100000 -100000 -100000 -100000 -100000 -100000 -100000 -100000 -100000 -100000 -100000
          -100000 -100000 -100000 -100000 -100000 -100000 -100000 -100000 -100000 -100000 -100000 -100000
          -100000 -100000 -100000 -100000 -100000 -100000 -100000 -100000 -100000 -100000 -100000 -100000
          -100000 -100000 -100000 -100000 -100000 -100000 -100000 -100000 -100000 -100000 -100000 -100000
          -100000 -100000 -100000 -100000 -100000 -100000 -100000 -100000 -100000 -100000 -100000 -100000
          -100000 -100000 -100000 -100000 -100000 -100000 -100000 -100000 -100000 -100000 -100000 -100000
          -100000 -100000 -100000 -100000 -100000 -100000 -100000 -100000 -100000 -100000 -100000 -100000
          -100000 -100000 -100000 -100000 -100000 -100000 -100000 -100000 -100000 -100000 -100000 -100000
          -100000 -100000 -100000 -100000 -100000 -100000 -100000 -100000 -100000 -100000 -100000 -100000
          -100000 -100000 -100000 -100000 -100000 -100000 -100000 -100000 -100000 -100000 -100000 -100000
          -100000 -100000 -100000 -100000 -100000 -100000 -100000 -100000 -100000 -100000 -100000 -100000
          -100000 -100000 -100000 -100000 -100000 -100000 -100000 -100000 -100000 -100000 -100000 -100000
          -100000 -100000 -100000 -100000 -100000 -100000 -100000 -100000 -100000 -100000 -100000 -100000
          -100000 -100000 -100000 -100000 -100000 -100000 -100000 -100000 -100000 -100000 -100000 -100000
          -100000 -100000 -100000 -100000 -100000 -100000 -100000 -100000 -100000 -100000 -100000 -100000
          -100000 -100000 -100000 -100000 -100000 -100000 -100000 -100000 -100000 -100000 -100000 -100000
          -100000 -100000 -100000 -100000 -100000 -100000 -100000 -100000 -100000 -100000 -100000 -100000
          -100000 -100000 -100000 -100000 -100000 -100000 -100000 -100000 -100000 -100000 -100000 -100000
          -100000 -100000 -100000 -100000 -100000 -100000 -100000 -100000 -100000 -100000 -100000 -100000
          -100000 -100000 -100000 -100000 -100000 -100000 -100000 -100000 -100000 -100000 -100000 -100000
          -100000 -100000 -100000 -100000 -100000 -100000 -100000 -100000 -100000 -100000 -100000 -100000
          -100000 -100000 -100000 -100000 -100000 -100000 -100000 -100000 -100000 -100000 -100000 -100000
          -100000 -100000 -100000 -100000 -100000 -100000 -100000 -100000 -100000 -100000 -100000 -100000
          -100000 -100000 -100000 -100000 -100000 -100000 -100000 -100000 -100000 -100000 -100000 -100000