<?xml version="1.0"?>
<VTKFile type="UnstructuredGrid" version="0.1" byte_order="LittleEndian">
  <UnstructuredGrid>
    <Piece NumberOfCells="160" NumberOfPoints="205">
      <PointData Scalars="Sw">
        <DataArray type="Float32" Name="Sw" NumberOfComponents="1" format="ascii">
          0.97 0.970039 0.97 0.970049 0.970058 0.970071 0.970083 0.970102 0.970111 0.970117 0.970231 0.970302
          0.970253 0.970328 0.970179 0.970198 0.970197 0.970238 0.970217 0.970262 0.970237 0.970287 0.970258 0.970312
          0.970279 0.970337 0.9703 0.970362 0.970321 0.970387 0.970342 0.970412 0.970363 0.970438 0.970384 0.970463
          0.970405 0.970489 0.970426 0.970514 0.970448 0.970541 0.97047 0.970571 0.970483 0.970588 0.970482 0.970582
          0.97048 0.97058 0.970479 0.970578 0.970479 0.970578 0.970478 0.970577 0.970478 0.970576 0.970477 0.970576
          0.970477 0.970575 0.970477 0.970575 0.970476 0.970574 0.970476 0.970574 0.970476 0.970574 0.970475 0.970575
          0.970476 0.970579 0.970477 0.970587 0.970473 0.970599 0.97044 0.970594 0.97 0.97 0.97 0.964622
          0.969791 0.969876 0.968804 0.969444 0.969436 0.968919 0.969692 0.969658 0.969619 0.969581 0.96954 0.969501
          0.969463 0.969425 0.969387 0.969348 0.969269 0.969039 0.968207 0.965311 0.956663 0.940063 0.919202 0.896067
          0.871624 0.846184 0.819924 0.793399 0.766521 0.739563 0.712386 0.685835 0.659682 0.633248 0.606515 0.575924
          0.537909 0.4842 0.519531 0.12 0.12 0.12 0.12 0.12 0.120001 0.120001 0.12 0.12
          0.12 0.12 0.12 0.12 0.12 0.12 0.12 0.12 0.12 0.12 0.12 0.12
          0.12 0.12 0.12 0.12 0.12 0.12 0.12 0.12 0.12 0.12 0.12 0.12
          0.12 0.12 0.12 0.12 0.12 0.12 0.12 0.12 0.12 0.12 0.12 0.12
          0.12 0.120001 0.120001 0.12 0.12 0.12 0.12 0.12 0.12 0.12 0.12 0.12
          0.12 0.12 0.12 0.12 0.12 0.12 0.12 0.12 0.12 0.12 0.12 0.12
          0.12 0.12 0.12 0.12 0.12 0.12 0.12 0.12 0.12 0.12 0.12 0.12
          0.12
        </DataArray>
        <DataArray type="Float32" Name="Sn" NumberOfComponents="1" format="ascii">
          0 0 0 0 0 0 0 0 0 0 0 0
          0 0 0 0 0 0 0 0 0 0 0 0
          0 0 0 0 0 0 0 0 0 0 0 0
          0 0 0 0 0 0 0 0 0 0 0 0
          0 0 0 0 0 0 0 0 0 0 0 0
          0 0 0 0 0 0 0 0 0 0 0 0
          0 0 0 0 0 0 0 0 0 0 0 0
          0 0 0 0.000508854 0.000508862 0 0 0 0 0 0 0
          0 0 0 0 0 0 0 0 0 0 0 0
          0 0 0 0 0 0 0 0 0 0 0 0
          0 0 0 0 0 0 0 1.76725e-06 0.0495754 0.0495753 1.72013e-06 0
          0 0 0 0 0 0 0 0 0 0 0 0
          0 0 0 0 0 0 0 0 0 0 0 0
          0 0 0 0 0 0 0 0 0 0 0 0
          0.000565937 0.135124 0.135124 0.000565733 0 0 0 0 0 0 0 0
          0 0 0 0 0 0 0 0 0 0 0 0
          0 0 0 0 0 0 0 0 0 0 0 0
          0
        </DataArray>
        <DataArray type="Float32" Name="Sg" NumberOfComponents="1" format="ascii">
          0.03 0.029961 0.03 0.0299513 0.0299417 0.0299287 0.0299171 0.0298983 0.029889 0.0298829 0.0297691 0.0296985
          0.0297467 0.0296717 0.0298215 0.029802 0.0298034 0.0297617 0.0297835 0.0297377 0.0297632 0.0297134 0.0297423 0.0296884
          0.0297214 0.0296633 0.0297004 0.029638 0.0296794 0.0296128 0.0296584 0.0295875 0.0296373 0.0295622 0.0296163 0.0295368
          0.0295951 0.0295114 0.0295739 0.0294856 0.0295522 0.0294588 0.02953 0.029429 0.0295168 0.0294118 0.0295183 0.0294175
          0.0295196 0.0294202 0.0295205 0.0294216 0.0295211 0.0294223 0.0295217 0.029423 0.0295224 0.029424 0.0295227 0.0294242
          0.0295231 0.0294247 0.0295235 0.029425 0.0295242 0.0294261 0.0295244 0.0294261 0.0295244 0.0294258 0.0295245 0.0294253
          0.0295236 0.0294213 0.0295233 0.0294133 0.0295269 0.029401 0.0295597 0.0294059 0.03 0.03 0.03 0.035378
          0.0302092 0.0301243 0.0311964 0.0300475 0.0300547 0.0310814 0.0303081 0.0303423 0.0303806 0.0304193 0.0304599 0.0304992
          0.0305374 0.0305753 0.0306132 0.0306516 0.0307315 0.0309606 0.0317934 0.0346889 0.0433365 0.0599371 0.0807981 0.103933
          0.128376 0.153816 0.180076 0.206601 0.233479 0.260437 0.287614 0.314165 0.340318 0.366752 0.393486 0.424076
          0.462091 0.5158 0.480469 0.88 0.88 0.88 0.88 0.879998 0.830424 0.830424 0.879998 0.88
          0.88 0.88 0.88 0.88 0.88 0.88 0.88 0.88 0.88 0.88 0.88 0.88
          0.88 0.88 0.88 0.88 0.88 0.88 0.88 0.88 0.88 0.88 0.88 0.88
          0.88 0.88 0.88 0.88 0.88 0.88 0.88 0.88 0.88 0.88 0.88 0.88
          0.879434 0.744875 0.744875 0.879434 0.88 0.88 0.88 0.88 0.88 0.88 0.88 0.88
          0.88 0.88 0.88 0.88 0.88 0.88 0.88 0.88 0.88 0.88 0.88 0.88
          0.88 0.88 0.88 0.88 0.88 0.88 0.88 0.88 0.88 0.88 0.88 0.88
          0.88
        </DataArray>
        <DataArray type="Float32" Name="pw" NumberOfComponents="1" format="ascii">
          147725 147744 123200 123227 147756 123238 147764 123246 147785 123261 147972 123459
          147973 123460 147788 123264 147771 123254 147769 123250 147765 123246 147761 123243
          147757 123239 147754 123236 147751 123232 147748 123229 147745 123226 147741 123223
          147738 123220 147735 123216 147729 123211 147716 123198 147686 123168 147636 123118
          147576 123058 147514 122995 147450 122932 147387 122868 147323 122805 147260 122742
          147197 122679 147134 122615 147070 122552 147008 122489 146944 122426 146877 122359
          146800 122282 146690 122174 146492 121977 146086 121579 145273 120748 98675.2 98710.7
          98719.2 98730.5 98725.7 98956.9 98957.7 98728.1 98737.8 98731.8 98728.1 98724.4 98720.9 98717.5
          98714.3 98711.1 98708 98704.9 98701.8 98698.4 98693 98681.2 98651.9 98600.4 98540.1 98477
          98413.6 98350.1 98286.4 98223.5 98160.4 98097.5 98033.9 97971.1 97908.4 97843.7 97776.6 97697.9
          97595.7 97448.1 97547 87075.5 87088.1 87091.9 87096 87101.6 83284.2 83285.3 87104.7 87100.6
          87098.3 87095.6 87093 87090.4 87087.7 87085.1 87082.4 87079.8 87077.1 87074.4 87071.7 87069
          87066.4 87063.8 87061.4 87059.1 87056.8 87054.6 87052.4 87050.4 87048.5 87046.6 87044.9 87043.4
          87041.9 87040.6 87039.6 87038.9 87039.2 87042 87051.1 87075.5 87075.5 87053.5 87062.5 87066
          87070.8 83221.2 83222.4 87073.9 87070.7 87068.2 87065.6 87063 87060.4 87057.7 87055.1 87052.4
          87049.7 87047 87044.4 87041.7 87039 87036.3 87033.8 87031.4 87029 87026.8 87024.6 87022.4
          87020.4 87018.4 87016.6 87014.9 87013.3 87011.9 87010.6 87009.6 87008.9 87009.1 87012.7 87017.2
          87075.5
        </DataArray>
        <DataArray type="Float32" Name="pn" NumberOfComponents="1" format="ascii">
          147725 147744 123200 123227 147756 123238 147764 123246 147785 123261 147972 123459
          147973 123460 147788 123264 147771 123254 147769 123250 147765 123246 147761 123243
          147757 123239 147754 123236 147751 123232 147748 123229 147745 123226 147741 123223
          147738 123220 147735 123216 147729 123211 147716 123198 147686 123168 147636 123118
          147576 123058 147514 122995 147450 122932 147387 122868 147323 122805 147260 122742
          147197 122679 147134 122615 147070 122552 147008 122489 146944 122426 146877 122359
          146800 122282 146690 122174 146492 121977 146086 121579 145273 120748 98675.2 98710.7
          98719.2 98730.5 98725.7 98956.9 98957.7 98728.1 98737.8 98731.8 98728.1 98724.4 98720.9 98717.5
          98714.3 98711.1 98708 98704.9 98701.8 98698.4 98693 98681.2 98651.9 98600.4 98540.1 98477
          98413.6 98350.1 98286.4 98223.5 98160.4 98097.5 98033.9 97971.1 97908.4 97843.7 97776.6 97697.9
          97595.7 97448.1 97547 87075.5 87088.1 87091.9 87096 87101.6 92565 92566 87104.7 87100.6
          87098.3 87095.6 87093 87090.4 87087.7 87085.1 87082.4 87079.8 87077.1 87074.4 87071.7 87069
          87066.4 87063.8 87061.4 87059.1 87056.8 87054.6 87052.4 87050.4 87048.5 87046.6 87044.9 87043.4
          87041.9 87040.6 87039.6 87038.9 87039.2 87042 87051.1 87075.5 87075.5 87053.5 87062.5 87066
          87070.8 96325.6 96326.7 87073.9 87070.7 87068.2 87065.6 87063 87060.4 87057.7 87055.1 87052.4
          87049.7 87047 87044.4 87041.7 87039 87036.3 87033.8 87031.4 87029 87026.8 87024.6 87022.4
          87020.4 87018.4 87016.6 87014.9 87013.3 87011.9 87010.6 87009.6 87008.9 87009.1 87012.7 87017.2
          87075.5
        </DataArray>
        <DataArray type="Float32" Name="pg" NumberOfComponents="1" format="ascii">
          149050 149068 124525 124551 149081 124562 149089 124571 149110 124586 149296 124783
          149297 124784 149112 124588 149096 124578 149093 124574 149089 124570 149085 124566
          149081 124563 149078 124559 149075 124556 149071 124553 149068 124549 149065 124546
          149062 124543 149058 124540 149052 124534 149040 124521 149010 124491 148959 124441
          148900 124381 148837 124318 148773 124255 148710 124191 148646 124128 148583 124064
          148520 124001 148457 123938 148394 123875 148331 123812 148267 123749 148200 123682
          148123 123605 148014 123497 147816 123300 147409 122902 146598 122072 100000 100053
          100045 100056 100054 100283 100284 100056 100064 100058 100054 100051 100047 100044
          100041 100038 100035 100032 100029 100026 100024 100021 100018 100016 100014 100011
          100009 100007 100005 100003 100001 99999.5 99997.9 99996.5 99995.2 99994.1 99993.4 99993.7
          99995.6 100010 100000 100000 100013 100016 100021 100026 100011 100012 100029 100025
          100023 100020 100018 100015 100012 100010 100007 100004 100002 99998.9 99996.2 99993.5
          99990.9 99988.4 99985.9 99983.6 99981.3 99979.1 99977 99974.9 99973 99971.2 99969.4 99967.9
          99966.5 99965.2 99964.1 99963.4 99963.7 99966.5 99975.6 100000 100000 99978 99987 99990.6
          99995.2 99981.2 99982.3 99998.3 99995.2 99992.7 99990.1 99987.5 99984.9 99982.2 99979.6 99976.9
          99974.2 99971.6 99968.9 99966.2 99963.5 99960.9 99958.3 99955.9 99953.6 99951.3 99949.1 99947
          99944.9 99943 99941.1 99939.4 99937.9 99936.4 99935.2 99934.1 99933.5 99933.7 99937.2 99941.7
          100000
        </DataArray>
        <DataArray type="Float32" Name="rhow" NumberOfComponents="1" format="ascii">
          999.74 999.741 999.726 999.726 999.741 999.726 999.741 999.726 999.741 999.726 999.741 999.726
          999.741 999.726 999.741 999.726 999.741 999.726 999.741 999.726 999.741 999.726 999.741 999.726
          999.741 999.726 999.741 999.726 999.741 999.726 999.741 999.726 999.741 999.726 999.741 999.726
          999.741 999.726 999.74 999.726 999.74 999.726 999.74 999.726 999.74 999.726 999.74 999.726
          999.74 999.726 999.74 999.726 999.74 999.726 999.74 999.726 999.74 999.726 999.74 999.726
          999.74 999.726 999.74 999.726 999.74 999.726 999.74 999.726 999.74 999.726 999.74 999.726
          999.74 999.726 999.74 999.725 999.74 999.725 999.74 999.725 999.739 999.725 999.712 999.712
          999.712 999.712 999.712 999.731 999.731 999.712 999.712 999.712 999.712 999.712 999.712 999.712
          999.712 999.712 999.712 999.712 999.712 999.712 999.712 999.712 999.712 999.712 999.711 999.711
          999.711 999.711 999.711 999.711 999.711 999.711 999.711 999.711 999.711 999.711 999.711 999.711
          999.711 999.711 999.711 999.706 999.706 999.706 999.707 999.725 999.723 999.723 999.725 999.707
          999.706 999.706 999.706 999.706 999.706 999.706 999.706 999.706 999.706 999.706 999.706 999.706
          999.706 999.706 999.706 999.706 999.706 999.706 999.706 999.706 999.706 999.706 999.706 999.706
          999.706 999.706 999.706 999.706 999.706 999.706 999.706 999.706 999.706 999.706 999.706 999.707
          999.725 999.723 999.723 999.725 999.707 999.706 999.706 999.706 999.706 999.706 999.706 999.706
          999.706 999.706 999.706 999.706 999.706 999.706 999.706 999.706 999.706 999.706 999.706 999.706
          999.706 999.706 999.706 999.706 999.706 999.706 999.706 999.706 999.706 999.706 999.706 999.706
          999.706
        </DataArray>
        <DataArray type="Float32" Name="rhon" NumberOfComponents="1" format="ascii">
          878.771 878.771 878.771 878.771 878.771 878.771 878.771 878.771 878.771 878.771 878.771 878.771
          878.771 878.771 878.771 878.771 878.771 878.771 878.771 878.771 878.771 878.771 878.771 878.771
          878.771 878.771 878.771 878.771 878.771 878.771 878.771 878.771 878.771 878.771 878.771 878.771
          878.771 878.771 878.771 878.771 878.771 878.771 878.771 878.771 878.771 878.771 878.771 878.771
          878.771 878.771 878.771 878.771 878.771 878.771 878.771 878.771 878.771 878.771 878.771 878.771
          878.771 878.771 878.771 878.771 878.771 878.771 878.771 878.771 878.771 878.771 878.771 878.771
          878.771 878.771 878.771 878.771 878.771 878.771 878.771 878.771 878.771 878.771 878.771 878.771
          878.771 878.771 878.771 878.771 878.771 878.771 878.771 878.771 878.771 878.771 878.771 878.771
          878.771 878.771 878.771 878.771 878.771 878.771 878.771 878.771 878.771 878.771 878.771 878.771
          878.771 878.771 878.771 878.771 878.771 878.771 878.771 878.771 878.771 878.771 878.771 878.771
          878.771 878.771 878.771 878.771 878.771 878.771 878.771 878.771 878.771 878.771 878.771 878.771
          878.771 878.771 878.771 878.771 878.771 878.771 878.771 878.771 878.771 878.771 878.771 878.771
          878.771 878.771 878.771 878.771 878.771 878.771 878.771 878.771 878.771 878.771 878.771 878.771
          878.771 878.771 878.771 878.771 878.771 878.771 878.771 878.771 878.771 878.771 878.771 878.771
          878.771 878.771 878.771 878.771 878.771 878.771 878.771 878.771 878.771 878.771 878.771 878.771
          878.771 878.771 878.771 878.771 878.771 878.771 878.771 878.771 878.771 878.771 878.771 878.771
          878.771 878.771 878.771 878.771 878.771 878.771 878.771 878.771 878.771 878.771 878.771 878.771
          878.771
        </DataArray>
        <DataArray type="Float32" Name="rhog" NumberOfComponents="1" format="ascii">
          1.8278 1.82802 1.52611 1.52643 1.82818 1.52657 1.82827 1.52667 1.82853 1.52686 1.83083 1.52933
          1.83084 1.52933 1.82856 1.52689 1.82836 1.52676 1.82832 1.52671 1.82827 1.52666 1.82823 1.52662
          1.82818 1.52657 1.82814 1.52653 1.8281 1.52649 1.82806 1.52645 1.82802 1.52641 1.82798 1.52637
          1.82794 1.52633 1.8279 1.52629 1.82783 1.52622 1.82767 1.52606 1.8273 1.5257 1.82668 1.52507
          1.82595 1.52434 1.82517 1.52356 1.82439 1.52278 1.82361 1.522 1.82283 1.52122 1.82206 1.52044
          1.82128 1.51967 1.8205 1.51889 1.81973 1.51811 1.81895 1.51734 1.81817 1.51656 1.81735 1.51574
          1.8164 1.5148 1.81505 1.51346 1.81262 1.51104 1.80761 1.50614 1.79763 1.49594 1.22442 1.22507
          1.22497 1.22511 1.22511 1.23226 1.23227 1.22513 1.2252 1.22513 1.22509 1.22504 1.225 1.22496
          1.22492 1.22489 1.22485 1.22481 1.22478 1.22474 1.22471 1.22468 1.22465 1.22462 1.22459 1.22456
          1.22453 1.22451 1.22448 1.22446 1.22444 1.22442 1.2244 1.22438 1.22436 1.22435 1.22434 1.22434
          1.22437 1.22454 1.22442 1.22442 1.22458 1.22463 1.22499 1.22909 1.22891 1.22892 1.22913 1.22498
          1.2247 1.22467 1.22464 1.22461 1.22457 1.22454 1.22451 1.22447 1.22444 1.22441 1.22438 1.22434
          1.22431 1.22428 1.22425 1.22422 1.22419 1.22416 1.22414 1.22411 1.22409 1.22407 1.22405 1.22403
          1.22401 1.22399 1.22398 1.22397 1.22398 1.22401 1.22412 1.22442 1.22442 1.22415 1.22429 1.22449
          1.22872 1.22854 1.22856 1.22875 1.22448 1.22435 1.2243 1.22427 1.22424 1.2242 1.22417 1.22414
          1.22411 1.22407 1.22404 1.22401 1.22397 1.22394 1.22391 1.22388 1.22385 1.22382 1.2238 1.22377
          1.22374 1.22372 1.2237 1.22368 1.22366 1.22364 1.22362 1.22361 1.2236 1.22361 1.22365 1.2237
          1.22442
        </DataArray>
        <DataArray type="Float32" Name="x^w_H2O" NumberOfComponents="1" format="ascii">
          0.999973 0.999973 0.999977 0.999977 0.999973 0.999977 0.999973 0.999977 0.999973 0.999977 0.999973 0.999977
          0.999973 0.999977 0.999973 0.999977 0.999973 0.999977 0.999973 0.999977 0.999973 0.999977 0.999973 0.999977
          0.999973 0.999977 0.999973 0.999977 0.999973 0.999977 0.999973 0.999977 0.999973 0.999977 0.999973 0.999977
          0.999973 0.999977 0.999973 0.999977 0.999973 0.999977 0.999973 0.999977 0.999973 0.999977 0.999973 0.999977
          0.999973 0.999977 0.999973 0.999977 0.999973 0.999977 0.999973 0.999977 0.999973 0.999977 0.999973 0.999977
          0.999973 0.999977 0.999973 0.999977 0.999973 0.999977 0.999973 0.999977 0.999973 0.999977 0.999973 0.999977
          0.999973 0.999977 0.999973 0.999977 0.999973 0.999978 0.999973 0.999978 0.999973 0.999978 0.999982 0.999982
          0.999982 0.999982 0.999982 0.999978 0.999978 0.999982 0.999982 0.999982 0.999982 0.999982 0.999982 0.999982
          0.999982 0.999982 0.999982 0.999982 0.999982 0.999982 0.999982 0.999982 0.999982 0.999982 0.999982 0.999982
          0.999982 0.999982 0.999982 0.999982 0.999982 0.999982 0.999982 0.999982 0.999982 0.999982 0.999982 0.999982
          0.999982 0.999982 0.999982 0.999982 0.999982 0.999982 0.999982 0.999978 0.999978 0.999978 0.999978 0.999982
          0.999982 0.999982 0.999982 0.999982 0.999982 0.999982 0.999982 0.999982 0.999982 0.999982 0.999982 0.999982
          0.999982 0.999982 0.999982 0.999982 0.999982 0.999982 0.999982 0.999982 0.999982 0.999982 0.999982 0.999982
          0.999982 0.999982 0.999982 0.999982 0.999982 0.999982 0.999982 0.999982 0.999982 0.999982 0.999982 0.999982
          0.999978 0.999978 0.999978 0.999978 0.999982 0.999982 0.999982 0.999982 0.999982 0.999982 0.999982 0.999982
          0.999982 0.999982 0.999982 0.999982 0.999982 0.999982 0.999982 0.999982 0.999982 0.999982 0.999982 0.999982
          0.999982 0.999982 0.999982 0.999982 0.999982 0.999982 0.999982 0.999982 0.999982 0.999982 0.999982 0.999982
          0.999982
        </DataArray>
        <DataArray type="Float32" Name="x^w_mesitylene" NumberOfComponents="1" format="ascii">
          4.50629e-09 4.50254e-09 3.76482e-09 3.76129e-09 4.50212e-09 3.76085e-09 4.50033e-09 3.7591e-09 4.49971e-09 3.94752e-09 4.65213e-09 3.74384e-08
          4.64975e-09 3.73858e-08 4.49419e-09 3.94004e-09 4.49108e-09 3.74979e-09 4.48948e-09 3.74801e-09 4.48771e-09 3.74626e-09 4.48587e-09 3.74441e-09
          4.48402e-09 3.74255e-09 4.48217e-09 3.7407e-09 4.48033e-09 3.73884e-09 4.47848e-09 3.73699e-09 4.47664e-09 3.73513e-09 4.47479e-09 3.73328e-09
          4.47293e-09 3.7314e-09 4.47102e-09 3.72946e-09 4.46889e-09 3.72722e-09 4.46617e-09 3.7241e-09 4.46399e-09 3.72176e-09 4.4632e-09 3.72147e-09
          4.46174e-09 3.72016e-09 4.46e-09 3.71846e-09 4.45815e-09 3.71662e-09 4.45629e-09 3.71476e-09 4.45445e-09 3.71295e-09 4.45259e-09 3.71107e-09
          4.45073e-09 3.70922e-09 4.44885e-09 3.70733e-09 4.44704e-09 3.70556e-09 4.44515e-09 3.70365e-09 4.44318e-09 3.70164e-09 4.44101e-09 3.69941e-09
          4.43796e-09 3.69604e-09 4.4328e-09 3.69005e-09 4.42236e-09 3.67793e-09 4.40307e-09 3.6557e-09 4.43214e-09 3.69067e-09 3.02334e-09 3.02385e-09
          3.02389e-09 3.02816e-09 1.61861e-08 3.40605e-06 3.40605e-06 1.58836e-08 3.02802e-09 3.02372e-09 3.02345e-09 3.02343e-09 3.02343e-09 3.02343e-09
          3.02343e-09 3.02343e-09 3.02342e-09 3.02342e-09 3.02342e-09 3.02342e-09 3.02342e-09 3.02342e-09 3.02342e-09 3.02341e-09 3.02341e-09 3.02342e-09
          3.02341e-09 3.02341e-09 3.02345e-09 3.0234e-09 3.0234e-09 3.02339e-09 3.02344e-09 3.02338e-09 3.02337e-09 3.02336e-09 3.02336e-09 3.02337e-09
          3.02338e-09 3.02364e-09 3.02334e-09 3.02334e-09 3.75296e-09 9.70644e-09 2.46415e-07 3.40605e-06 3.40605e-06 3.40605e-06 3.40605e-06 1.97566e-07
          3.49547e-09 3.75193e-09 2.98376e-09 3.02735e-09 3.02344e-09 3.02364e-09 3.02357e-09 3.02352e-09 3.02347e-09 3.02341e-09 3.02336e-09 3.02331e-09
          3.02325e-09 3.0232e-09 3.02316e-09 3.02311e-09 3.02306e-09 3.02302e-09 3.02297e-09 3.02293e-09 3.02289e-09 3.02285e-09 3.02282e-09 3.02278e-09
          3.02275e-09 3.02272e-09 3.0227e-09 3.02268e-09 3.02268e-09 3.0227e-09 3.02276e-09 3.02334e-09 3.02334e-09 3.22643e-09 2.11301e-08 1.49368e-07
          3.40605e-06 3.40605e-06 3.40605e-06 3.40605e-06 9.0458e-08 1.94693e-08 2.15365e-09 3.11766e-09 3.0162e-09 3.02328e-09 3.02271e-09 3.02269e-09
          3.02263e-09 3.02258e-09 3.02253e-09 3.02247e-09 3.02242e-09 3.02237e-09 3.02232e-09 3.02227e-09 3.02222e-09 3.02217e-09 3.02213e-09 3.02209e-09
          3.02205e-09 3.02201e-09 3.02197e-09 3.02193e-09 3.0219e-09 3.02187e-09 3.02184e-09 3.02182e-09 3.0218e-09 3.0218e-09 3.02184e-09 3.02173e-09
          3.02334e-09
        </DataArray>
        <DataArray type="Float32" Name="x^w_Air" NumberOfComponents="1" format="ascii">
          2.72214e-05 2.72248e-05 2.27051e-05 2.27099e-05 2.72271e-05 2.2712e-05 2.72285e-05 2.27135e-05 2.72324e-05 2.27163e-05 2.72668e-05 2.27524e-05
          2.72669e-05 2.27525e-05 2.72329e-05 2.27167e-05 2.72298e-05 2.27148e-05 2.72293e-05 2.27142e-05 2.72285e-05 2.27134e-05 2.72278e-05 2.27127e-05
          2.72272e-05 2.27121e-05 2.72265e-05 2.27114e-05 2.72259e-05 2.27108e-05 2.72253e-05 2.27102e-05 2.72247e-05 2.27096e-05 2.72241e-05 2.2709e-05
          2.72236e-05 2.27084e-05 2.72229e-05 2.27078e-05 2.72218e-05 2.27067e-05 2.72195e-05 2.27044e-05 2.7214e-05 2.26989e-05 2.72047e-05 2.26896e-05
          2.71937e-05 2.26786e-05 2.71821e-05 2.2667e-05 2.71705e-05 2.26553e-05 2.71588e-05 2.26436e-05 2.71471e-05 2.26319e-05 2.71354e-05 2.26203e-05
          2.71238e-05 2.26087e-05 2.71122e-05 2.25971e-05 2.71005e-05 2.25854e-05 2.7089e-05 2.25738e-05 2.70772e-05 2.25621e-05 2.70649e-05 2.25498e-05
          2.70508e-05 2.25357e-05 2.70306e-05 2.25157e-05 2.69941e-05 2.24796e-05 2.69192e-05 2.24062e-05 2.67698e-05 2.22535e-05 1.81888e-05 1.81985e-05
          1.81971e-05 1.81991e-05 1.81988e-05 1.82203e-05 1.82205e-05 1.81991e-05 1.82005e-05 1.81995e-05 1.81988e-05 1.81981e-05 1.81975e-05 1.81969e-05
          1.81963e-05 1.81958e-05 1.81952e-05 1.81947e-05 1.81942e-05 1.81937e-05 1.81932e-05 1.81927e-05 1.81922e-05 1.81918e-05 1.81913e-05 1.81909e-05
          1.81905e-05 1.81901e-05 1.81897e-05 1.81894e-05 1.8189e-05 1.81887e-05 1.81884e-05 1.81882e-05 1.81879e-05 1.81877e-05 1.81876e-05 1.81877e-05
          1.8188e-05 1.81907e-05 1.81888e-05 1.81888e-05 1.81911e-05 1.81918e-05 1.81911e-05 1.81729e-05 1.81701e-05 1.81703e-05 1.81735e-05 1.81923e-05
          1.8193e-05 1.81925e-05 1.81921e-05 1.81916e-05 1.81911e-05 1.81906e-05 1.81901e-05 1.81896e-05 1.81891e-05 1.81886e-05 1.81881e-05 1.81876e-05
          1.81872e-05 1.81867e-05 1.81862e-05 1.81858e-05 1.81854e-05 1.8185e-05 1.81846e-05 1.81842e-05 1.81839e-05 1.81835e-05 1.81832e-05 1.81829e-05
          1.81827e-05 1.81824e-05 1.81822e-05 1.81821e-05 1.81821e-05 1.81827e-05 1.81843e-05 1.81888e-05 1.81888e-05 1.81848e-05 1.81863e-05 1.81862e-05
          1.81672e-05 1.81646e-05 1.81648e-05 1.81678e-05 1.81874e-05 1.81874e-05 1.8187e-05 1.81865e-05 1.8186e-05 1.81856e-05 1.81851e-05 1.81846e-05
          1.81841e-05 1.81836e-05 1.81831e-05 1.81826e-05 1.81821e-05 1.81816e-05 1.81812e-05 1.81807e-05 1.81803e-05 1.81799e-05 1.81795e-05 1.81791e-05
          1.81787e-05 1.81783e-05 1.8178e-05 1.81777e-05 1.81774e-05 1.81771e-05 1.81769e-05 1.81767e-05 1.81766e-05 1.81766e-05 1.81773e-05 1.81781e-05
          1.81888e-05
        </DataArray>
        <DataArray type="Float32" Name="x^n_H2O" NumberOfComponents="1" format="ascii">
          1e-10 1e-10 1e-10 1e-10 1e-10 1e-10 1e-10 1e-10 1e-10 1e-10 1e-10 1e-10
          1e-10 1e-10 1e-10 1e-10 1e-10 1e-10 1e-10 1e-10 1e-10 1e-10 1e-10 1e-10
          1e-10 1e-10 1e-10 1e-10 1e-10 1e-10 1e-10 1e-10 1e-10 1e-10 1e-10 1e-10
          1e-10 1e-10 1e-10 1e-10 1e-10 1e-10 1e-10 1e-10 1e-10 1e-10 1e-10 1e-10
          1e-10 1e-10 1e-10 1e-10 1e-10 1e-10 1e-10 1e-10 1e-10 1e-10 1e-10 1e-10
          1e-10 1e-10 1e-10 1e-10 1e-10 1e-10 1e-10 1e-10 1e-10 1e-10 1e-10 1e-10
          1e-10 1e-10 1e-10 1e-10 1e-10 1e-10 1e-10 1e-10 1e-10 1e-10 1e-10 1e-10
          1e-10 1e-10 1e-10 1e-10 1e-10 1e-10 1e-10 1e-10 1e-10 1e-10 1e-10 1e-10
          1e-10 1e-10 1e-10 1e-10 1e-10 1e-10 1e-10 1e-10 1e-10 1e-10 1e-10 1e-10
          1e-10 1e-10 1e-10 1e-10 1e-10 1e-10 1e-10 1e-10 1e-10 1e-10 1e-10 1e-10
          1e-10 1e-10 1e-10 1e-10 1e-10 1e-10 1e-10 1e-10 1e-10 1e-10 1e-10 1e-10
          1e-10 1e-10 1e-10 1e-10 1e-10 1e-10 1e-10 1e-10 1e-10 1e-10 1e-10 1e-10
          1e-10 1e-10 1e-10 1e-10 1e-10 1e-10 1e-10 1e-10 1e-10 1e-10 1e-10 1e-10
          1e-10 1e-10 1e-10 1e-10 1e-10 1e-10 1e-10 1e-10 1e-10 1e-10 1e-10 1e-10
          1e-10 1e-10 1e-10 1e-10 1e-10 1e-10 1e-10 1e-10 1e-10 1e-10 1e-10 1e-10
          1e-10 1e-10 1e-10 1e-10 1e-10 1e-10 1e-10 1e-10 1e-10 1e-10 1e-10 1e-10
          1e-10 1e-10 1e-10 1e-10 1e-10 1e-10 1e-10 1e-10 1e-10 1e-10 1e-10 1e-10
          1e-10
        </DataArray>
        <DataArray type="Float32" Name="x^n_mesitylene" NumberOfComponents="1" format="ascii">
          0.00132302 0.00132192 0.00110533 0.0011043 0.0013218 0.00110417 0.00132127 0.00110365 0.00132109 0.00115897 0.00136584 0.0109917
          0.00136514 0.0109763 0.00131947 0.00115678 0.00131856 0.00110092 0.00131809 0.0011004 0.00131757 0.00109988 0.00131703 0.00109934
          0.00131649 0.00109879 0.00131594 0.00109825 0.0013154 0.00109771 0.00131486 0.00109716 0.00131432 0.00109662 0.00131378 0.00109607
          0.00131323 0.00109552 0.00131267 0.00109495 0.00131204 0.00109429 0.00131125 0.00109338 0.00131061 0.00109269 0.00131037 0.00109261
          0.00130994 0.00109222 0.00130943 0.00109172 0.00130889 0.00109118 0.00130834 0.00109063 0.00130781 0.0010901 0.00130726 0.00108955
          0.00130671 0.00108901 0.00130616 0.00108845 0.00130563 0.00108793 0.00130507 0.00108737 0.00130449 0.00108678 0.00130386 0.00108613
          0.00130296 0.00108514 0.00130145 0.00108338 0.00129838 0.00107982 0.00129272 0.0010733 0.00130125 0.00108356 0.000887638 0.000887786
          0.000887798 0.000889053 0.00475215 1 1 0.00466335 0.000889011 0.00088775 0.00088767 0.000887665 0.000887665 0.000887664
          0.000887663 0.000887662 0.000887662 0.000887661 0.000887661 0.00088766 0.00088766 0.00088766 0.000887659 0.000887659 0.000887659 0.00088766
          0.000887658 0.000887657 0.000887671 0.000887656 0.000887654 0.000887652 0.000887668 0.000887649 0.000887646 0.000887645 0.000887643 0.000887645
          0.00088765 0.000887725 0.000887638 0.000887638 0.00110185 0.00284976 0.0723463 1 1 1 1 0.0580043
          0.00102625 0.00110155 0.000876017 0.000888814 0.000887666 0.000887727 0.000887706 0.000887691 0.000887675 0.000887659 0.000887643 0.000887628
          0.000887612 0.000887597 0.000887583 0.000887569 0.000887556 0.000887543 0.00088753 0.000887518 0.000887506 0.000887495 0.000887484 0.000887474
          0.000887465 0.000887456 0.000887449 0.000887444 0.000887443 0.000887448 0.000887466 0.000887638 0.000887638 0.000947263 0.00620369 0.0438536
          1 1 1 1 0.026558 0.00571609 0.000632301 0.000915328 0.000885542 0.00088762 0.000887452 0.000887446
          0.00088743 0.000887414 0.000887398 0.000887383 0.000887367 0.000887351 0.000887337 0.000887322 0.000887309 0.000887295 0.000887282 0.00088727
          0.000887257 0.000887246 0.000887235 0.000887224 0.000887215 0.000887206 0.000887198 0.000887191 0.000887186 0.000887185 0.000887198 0.000887165
          0.000887638
        </DataArray>
        <DataArray type="Float32" Name="x^n_Air" NumberOfComponents="1" format="ascii">
          1e-10 1e-10 1e-10 1e-10 1e-10 1e-10 1e-10 1e-10 1e-10 1e-10 1e-10 1e-10
          1e-10 1e-10 1e-10 1e-10 1e-10 1e-10 1e-10 1e-10 1e-10 1e-10 1e-10 1e-10
          1e-10 1e-10 1e-10 1e-10 1e-10 1e-10 1e-10 1e-10 1e-10 1e-10 1e-10 1e-10
          1e-10 1e-10 1e-10 1e-10 1e-10 1e-10 1e-10 1e-10 1e-10 1e-10 1e-10 1e-10
          1e-10 1e-10 1e-10 1e-10 1e-10 1e-10 1e-10 1e-10 1e-10 1e-10 1e-10 1e-10
          1e-10 1e-10 1e-10 1e-10 1e-10 1e-10 1e-10 1e-10 1e-10 1e-10 1e-10 1e-10
          1e-10 1e-10 1e-10 1e-10 1e-10 1e-10 1e-10 1e-10 1e-10 1e-10 1e-10 1e-10
          1e-10 1e-10 1e-10 1e-10 1e-10 1e-10 1e-10 1e-10 1e-10 1e-10 1e-10 1e-10
          1e-10 1e-10 1e-10 1e-10 1e-10 1e-10 1e-10 1e-10 1e-10 1e-10 1e-10 1e-10
          1e-10 1e-10 1e-10 1e-10 1e-10 1e-10 1e-10 1e-10 1e-10 1e-10 1e-10 1e-10
          1e-10 1e-10 1e-10 1e-10 1e-10 1e-10 1e-10 1e-10 1e-10 1e-10 1e-10 1e-10
          1e-10 1e-10 1e-10 1e-10 1e-10 1e-10 1e-10 1e-10 1e-10 1e-10 1e-10 1e-10
          1e-10 1e-10 1e-10 1e-10 1e-10 1e-10 1e-10 1e-10 1e-10 1e-10 1e-10 1e-10
          1e-10 1e-10 1e-10 1e-10 1e-10 1e-10 1e-10 1e-10 1e-10 1e-10 1e-10 1e-10
          1e-10 1e-10 1e-10 1e-10 1e-10 1e-10 1e-10 1e-10 1e-10 1e-10 1e-10 1e-10
          1e-10 1e-10 1e-10 1e-10 1e-10 1e-10 1e-10 1e-10 1e-10 1e-10 1e-10 1e-10
          1e-10 1e-10 1e-10 1e-10 1e-10 1e-10 1e-10 1e-10 1e-10 1e-10 1e-10 1e-10
          1e-10
        </DataArray>
        <DataArray type="Float32" Name="x^g_H2O" NumberOfComponents="1" format="ascii">
          0.00824008 0.00823907 0.00986295 0.00986088 0.00823836 0.00985999 0.00823795 0.00985934 0.00823677 0.00985813 0.00822648 0.00984257
          0.00822644 0.00984251 0.00823664 0.00985795 0.00823756 0.00985879 0.00823771 0.00985906 0.00823794 0.00985938 0.00823815 0.00985968
          0.00823835 0.00985996 0.00823854 0.00986024 0.00823872 0.0098605 0.0082389 0.00986076 0.00823908 0.00986101 0.00823925 0.00986126
          0.00823943 0.00986152 0.00823963 0.0098618 0.00823994 0.00986225 0.00824066 0.00986326 0.00824231 0.00986562 0.00824509 0.00986962
          0.0082484 0.00987437 0.00825188 0.00987937 0.0082554 0.00988441 0.00825892 0.00988947 0.00826246 0.00989453 0.00826596 0.00989956
          0.00826947 0.00990459 0.00827298 0.00990963 0.00827652 0.0099147 0.00828003 0.00991974 0.00828358 0.00992484 0.00828732 0.00993019