<?xml version="1.0"?>
<VTKFile type="UnstructuredGrid" version="0.1" byte_order="LittleEndian">
  <UnstructuredGrid>
    <Piece NumberOfCells="2500" NumberOfPoints="2761">
      <PointData Scalars="Sw">
        <DataArray type="Float32" Name="Sw" NumberOfComponents="1" format="ascii">
          0.97 0.970005 0.97 0.97 0.970009 0.970007 0.970014 0.970014 0.970019 0.97002 0.970023 0.970024
          0.970027 0.970029 0.970032 0.970033 0.970036 0.970038 0.97004 0.970042 0.970044 0.970046 0.970048 0.970051
          0.970052 0.970055 0.970056 0.970059 0.97006 0.970063 0.970064 0.970067 0.970068 0.970071 0.970071 0.970076
          0.970075 0.97008 0.970079 0.970084 0.970083 0.970088 0.970087 0.970092 0.97009 0.970096 0.970094 0.9701
          0.970098 0.970104 0.970101 0.970108 0.970105 0.970112 0.970109 0.970116 0.970113 0.97012 0.970116 0.970123
          0.97012 0.970127 0.970123 0.970131 0.970127 0.970135 0.970131 0.970139 0.970134 0.970143 0.970138 0.970146
          0.970141 0.97015 0.970145 0.970154 0.970148 0.970158 0.970152 0.970162 0.970155 0.970165 0.970159 0.970169
          0.970162 0.970173 0.970166 0.970176 0.970169 0.97018 0.970172 0.970184 0.970176 0.970187 0.970179 0.970191
          0.970183 0.970195 0.970186 0.970199 0.97019 0.970202 0.970193 0.970206 0.970197 0.97021 0.9702 0.970213
          0.970203 0.970217 0.970207 0.970221 0.97021 0.970224 0.970214 0.970228 0.970217 0.970232 0.970221 0.970235
          0.970224 0.970239 0.970228 0.970243 0.970231 0.970246 0.970234 0.97025 0.970238 0.970254 0.970241 0.970258
          0.970245 0.970261 0.970248 0.970265 0.970252 0.970269 0.970255 0.970272 0.970258 0.970276 0.970262 0.97028
          0.970265 0.970283 0.970269 0.970287 0.970272 0.970291 0.970276 0.970294 0.970279 0.970298 0.970282 0.970302
          0.970286 0.970305 0.970289 0.970309 0.970293 0.970313 0.970296 0.970316 0.9703 0.97032 0.970303 0.970324
          0.970307 0.970327 0.97031 0.970331 0.970313 0.970335 0.970317 0.970338 0.97032 0.970342 0.970324 0.970346
          0.970327 0.970349 0.970331 0.970353 0.970334 0.970357 0.970337 0.970361 0.970341 0.970364 0.970344 0.970368
          0.970348 0.970372 0.970351 0.970375 0.970354 0.970379 0.970358 0.970383 0.970361 0.970386 0.970365 0.97039
          0.970368 0.970394 0.970372 0.970397 0.970375 0.970401 0.970379 0.970405 0.970382 0.970408 0.970385 0.970412
          0.970389 0.970416 0.970392 0.970419 0.970396 0.970423 0.970399 0.970427 0.970402 0.97043 0.970406 0.970434
          0.970409 0.970437 0.970412 0.970441 0.970416 0.970445 0.970419 0.970448 0.970422 0.970452 0.970426 0.970455
          0.970429 0.970459 0.970432 0.970462 0.970435 0.970466 0.970439 0.970469 0.970442 0.970473 0.970445 0.970476
          0.970448 0.970479 0.970451 0.970483 0.970454 0.970486 0.970456 0.970489 0.970459 0.970492 0.970462 0.970495
          0.970464 0.970498 0.970467 0.970501 0.970469 0.970503 0.970471 0.970505 0.970472 0.970507 0.970474 0.970508
          0.970475 0.970509 0.970476 0.97051 0.970477 0.970511 0.970477 0.970512 0.970478 0.970512 0.970479 0.970513
          0.970479 0.970513 0.97048 0.970514 0.97048 0.970514 0.97048 0.970514 0.970481 0.970514 0.970481 0.970515
          0.970481 0.970515 0.970481 0.970515 0.970481 0.970515 0.970481 0.970515 0.970481 0.970515 0.970481 0.970515
          0.970481 0.970515 0.970481 0.970515 0.970482 0.970515 0.970482 0.970515 0.970482 0.970515 0.970482 0.970515
          0.970482 0.970515 0.970482 0.970515 0.970482 0.970515 0.970482 0.970515 0.970482 0.970515 0.970481 0.970515
          0.970481 0.970515 0.970481 0.970515 0.970481 0.970515 0.970481 0.970515 0.970481 0.970515 0.970481 0.970515
          0.970481 0.970515 0.970481 0.970515 0.970481 0.970515 0.970481 0.970515 0.970481 0.970515 0.970481 0.970515
          0.970481 0.970515 0.970481 0.970515 0.970481 0.970515 0.970481 0.970515 0.970481 0.970515 0.970481 0.970515
          0.970481 0.970515 0.970481 0.970514 0.970481 0.970514 0.970481 0.970514 0.970481 0.970514 0.970481 0.970514
          0.970481 0.970514 0.970481 0.970514 0.970481 0.970514 0.970481 0.970514 0.970481 0.970514 0.970481 0.970514
          0.970481 0.970514 0.97048 0.970514 0.97048 0.970514 0.97048 0.970514 0.97048 0.970514 0.97048 0.970514
          0.97048 0.970514 0.97048 0.970514 0.97048 0.970514 0.97048 0.970514 0.97048 0.970514 0.97048 0.970513
          0.970479 0.970513 0.970479 0.970513 0.970479 0.970513 0.970479 0.970513 0.970479 0.970512 0.970478 0.970512
          0.970478 0.970512 0.970477 0.970511 0.970477 0.970511 0.970476 0.97051 0.970475 0.970509 0.970474 0.970508
          0.970473 0.970507 0.970471 0.970506 0.970469 0.970504 0.970467 0.970502 0.970465 0.9705 0.970462 0.970498
          0.970458 0.970495 0.970454 0.970491 0.97045 0.970487 0.970444 0.970482 0.970438 0.970476 0.970431 0.97047
          0.970423 0.970462 0.970413 0.970453 0.970402 0.970443 0.97039 0.970432 0.970377 0.970419 0.970361 0.970404
          0.970344 0.970388 0.970325 0.970369 0.970305 0.970349 0.970282 0.970327 0.970257 0.970302 0.97023 0.970275
          0.970202 0.970247 0.970174 0.970221 0.970143 0.970194 0.970075 0.97012 0.97 0.97 0.97 0.97
          0.970007 0.970017 0.970024 0.970029 0.970034 0.970038 0.970043 0.970048 0.970052 0.970056 0.970061 0.970065
          0.97007 0.970074 0.970079 0.970083 0.970087 0.970092 0.970096 0.9701 0.970105 0.970109 0.970113 0.970118
          0.970122 0.970126 0.97013 0.970134 0.970139 0.970143 0.970147 0.970151 0.970155 0.970159 0.970163 0.970167
          0.970171 0.970175 0.970179 0.970183 0.970187 0.970191 0.970195 0.970199 0.970203 0.970207 0.970211 0.970215
          0.970219 0.970223 0.970227 0.970231 0.970235 0.970239 0.970243 0.970247 0.970251 0.970255 0.970259 0.970263
          0.970267 0.970271 0.970275 0.970279 0.970283 0.970287 0.970291 0.970295 0.970299 0.970302 0.970307 0.97031
          0.970314 0.970318 0.970322 0.970326 0.97033 0.970334 0.970338 0.970342 0.970346 0.97035 0.970354 0.970358
          0.970362 0.970366 0.97037 0.970374 0.970378 0.970382 0.970386 0.97039 0.970394 0.970398 0.970402 0.970406
          0.97041 0.970414 0.970418 0.970422 0.970425 0.97043 0.970433 0.970437 0.970441 0.970445 0.970449 0.970453
          0.970457 0.970461 0.970465 0.970469 0.970473 0.970477 0.970481 0.970485 0.970489 0.970492 0.970496 0.9705
          0.970504 0.970508 0.970512 0.970515 0.970519 0.970523 0.970526 0.97053 0.970534 0.970537 0.970541 0.970544
          0.970548 0.97055 0.970551 0.970552 0.970553 0.970554 0.970554 0.970555 0.970555 0.970555 0.970556 0.970556
          0.970556 0.970556 0.970556 0.970557 0.970557 0.970557 0.970557 0.970557 0.970557 0.970557 0.970557 0.970557
          0.970557 0.970557 0.970557 0.970557 0.970557 0.970557 0.970557 0.970557 0.970557 0.970557 0.970556 0.970556
          0.970557 0.970557 0.970556 0.970556 0.970556 0.970556 0.970556 0.970556 0.970556 0.970556 0.970556 0.970556
          0.970556 0.970556 0.970556 0.970556 0.970556 0.970556 0.970556 0.970556 0.970556 0.970556 0.970556 0.970556
          0.970556 0.970556 0.970556 0.970556 0.970556 0.970556 0.970555 0.970555 0.970555 0.970555 0.970555 0.970555
          0.970555 0.970555 0.970555 0.970555 0.970555 0.970555 0.970555 0.970555 0.970554 0.970554 0.970554 0.970554
          0.970554 0.970553 0.970553 0.970552 0.970551 0.970551 0.97055 0.970549 0.970547 0.970546 0.970544 0.970541
          0.970538 0.970535 0.970531 0.970527 0.970521 0.970515 0.970507 0.970498 0.970488 0.970476 0.970462 0.970446
          0.970428 0.970408 0.970386 0.970361 0.970335 0.970313 0.970306 0.970245 0.97 0.97 0.97 0.970009
          0.970022 0.970029 0.970035 0.97004 0.970044 0.970049 0.970054 0.970059 0.970063 0.970068 0.970073 0.970077
          0.970082 0.970087 0.970091 0.970096 0.970101 0.970106 0.97011 0.970115 0.970119 0.970124 0.970129 0.970133
          0.970138 0.970143 0.970147 0.970152 0.970156 0.970161 0.970165 0.97017 0.970174 0.970178 0.970183 0.970187
          0.970192 0.970196 0.9702 0.970204 0.970209 0.970213 0.970217 0.970222 0.970226 0.97023 0.970235 0.970239
          0.970243 0.970247 0.970252 0.970256 0.97026 0.970265 0.970269 0.970273 0.970277 0.970282 0.970286 0.970291
          0.970295 0.970299 0.970304 0.970308 0.970312 0.970316 0.970321 0.970325 0.970329 0.970334 0.970338 0.970342
          0.970347 0.970351 0.970355 0.970359 0.970364 0.970368 0.970372 0.970377 0.970381 0.970385 0.970389 0.970394
          0.970398 0.970403 0.970407 0.970411 0.970416 0.97042 0.970424 0.970428 0.970432 0.970437 0.970441 0.970445
          0.97045 0.970454 0.970459 0.970463 0.970467 0.970471 0.970476 0.97048 0.970484 0.970489 0.970493 0.970497
          0.970501 0.970506 0.97051 0.970514 0.970519 0.970523 0.970527 0.970531 0.970536 0.97054 0.970544 0.970549
          0.970553 0.970557 0.970561 0.970566 0.97057 0.970574 0.970578 0.970583 0.970587 0.970591 0.970595 0.9706
          0.970602 0.970603 0.970604 0.970605 0.970605 0.970605 0.970605 0.970605 0.970606 0.970605 0.970606 0.970606
          0.970606 0.970606 0.970606 0.970606 0.970605 0.970605 0.970605 0.970605 0.970605 0.970605 0.970605 0.970605
          0.970605 0.970605 0.970605 0.970605 0.970605 0.970605 0.970605 0.970605 0.970605 0.970605 0.970605 0.970605
          0.970605 0.970605 0.970605 0.970605 0.970605 0.970605 0.970605 0.970605 0.970605 0.970605 0.970605 0.970605
          0.970604 0.970605 0.970605 0.970605 0.970604 0.970604 0.970604 0.970604 0.970604 0.970604 0.970604 0.970604
          0.970604 0.970604 0.970604 0.970604 0.970604 0.970604 0.970604 0.970604 0.970604 0.970604 0.970604 0.970604
          0.970604 0.970604 0.970604 0.970604 0.970604 0.970604 0.970604 0.970604 0.970604 0.970604 0.970604 0.970604
          0.970604 0.970603 0.970603 0.970603 0.970603 0.970603 0.970603 0.970602 0.970602 0.970601 0.9706 0.970599
          0.970598 0.970596 0.970594 0.970591 0.970587 0.970582 0.970576 0.970569 0.97056 0.970549 0.970537 0.970522
          0.970504 0.970484 0.970462 0.970437 0.970415 0.970436 0.970495 0.97 0.97 0.97 0.970015 0.97003
          0.970036 0.970042 0.970047 0.970051 0.970057 0.970061 0.970066 0.970071 0.970077 0.970082 0.970086 0.970092
          0.970096 0.970101 0.970107 0.970112 0.970117 0.970121 0.970127 0.970132 0.970137 0.970143 0.970146 0.970153
          0.970157 0.970162 0.970167 0.970173 0.970178 0.970181 0.970188 0.970191 0.970196 0.970201 0.970206 0.970211
          0.970215 0.97022 0.970225 0.970229 0.970234 0.970238 0.970244 0.970248 0.970253 0.970258 0.970262 0.970267
          0.970271 0.970277 0.970281 0.970286 0.97029 0.970295 0.9703 0.970304 0.970309 0.970314 0.970319 0.970324
          0.970328 0.970334 0.970337 0.970342 0.970347 0.970352 0.970357 0.970361 0.970367 0.97037 0.970375 0.97038
          0.970385 0.97039 0.970394 0.970398 0.970403 0.970408 0.970413 0.970417 0.970423 0.970427 0.970431 0.970436
          0.970441 0.970446 0.97045 0.970456 0.97046 0.970464 0.970469 0.970473 0.970479 0.970483 0.970488 0.970493
          0.970497 0.970502 0.970506 0.970512 0.970516 0.970521 0.970526 0.97053 0.970535 0.970539 0.970545 0.970549
          0.970554 0.970559 0.970563 0.970569 0.970572 0.970577 0.970582 0.970587 0.970592 0.970595 0.970602 0.970606
          0.970611 0.970616 0.970621 0.970626 0.97063 0.970635 0.97064 0.970645 0.970651 0.970655 0.970663 0.970663
          0.970665 0.970666 0.970665 0.970665 0.970665 0.970665 0.970665 0.970665 0.970664 0.970664 0.970664 0.970664
          0.970664 0.970663 0.970663 0.970663 0.970663 0.970663 0.970663 0.970663 0.970662 0.970662 0.970662 0.970662
          0.970662 0.970662 0.970662 0.970662 0.970662 0.970662 0.970662 0.970662 0.970662 0.970662 0.970662 0.970662
          0.970662 0.970662 0.970662 0.970661 0.970661 0.970662 0.970661 0.970661 0.970662 0.970661 0.970661 0.970661
          0.970661 0.970661 0.970661 0.970661 0.970661 0.970661 0.970661 0.970661 0.970661 0.970661 0.970661 0.97066
          0.970661 0.970661 0.970661 0.970661 0.97066 0.97066 0.970661 0.97066 0.97066 0.970661 0.97066 0.97066
          0.970661 0.97066 0.97066 0.970661 0.970661 0.97066 0.97066 0.970661 0.970661 0.970661 0.970661 0.970661
          0.970661 0.970661 0.970662 0.970662 0.970662 0.970662 0.970663 0.970663 0.970663 0.970663 0.970662 0.970662
          0.970661 0.97066 0.970658 0.970654 0.97065 0.970645 0.970638 0.970629 0.970618 0.970604 0.970587 0.970568
          0.970544 0.970517 0.970486 0.97045 0.970414 0.970438 0.97 0.97 0.961798 0.962786 0.963386 0.963974
          0.964593 0.965172 0.965658 0.966187 0.966581 0.966976 0.96732 0.967623 0.967892 0.968077 0.968316 0.968435
          0.968573 0.968677 0.968757 0.968822 0.968826 0.968851 0.968848 0.968825 0.968795 0.968683 0.968678 0.968593
          0.968565 0.968538 0.968522 0.968523 0.968487 0.968551 0.968538 0.968583 0.968637 0.968714 0.968776 0.968793
          0.96884 0.968872 0.968896 0.968921 0.968894 0.968952 0.968918 0.968928 0.968928 0.968925 0.968928 0.968882
          0.968922 0.968873 0.96887 0.968859 0.968848 0.968844 0.968798 0.968793 0.968779 0.968765 0.968758 0.968703
          0.968737 0.968681 0.968673 0.968658 0.968643 0.968635 0.968578 0.968611 0.968555 0.968547 0.968531 0.968516
          0.968509 0.96846 0.968453 0.968437 0.968422 0.968414 0.968357 0.96839 0.968334 0.968325 0.96831 0.968294
          0.968285 0.968228 0.968261 0.968204 0.968195 0.968187 0.968129 0.96816 0.968102 0.96809 0.968071 0.968051
          0.968037 0.967974 0.967999 0.967933 0.967912 0.967882 0.967848 0.967817 0.967734 0.967734 0.967638 0.967582
          0.967517 0.967391 0.967341 0.967185 0.967058 0.966901 0.966718 0.966511 0.966221 0.96598 0.965603 0.965222
          0.964773 0.964257 0.963673 0.962964 0.962205 0.961336 0.960358 0.959271 0.958015 0.956735 0.955086 0.953486
          0.951703 0.949758 0.947699 0.945481 0.943105 0.940609 0.937991 0.935202 0.932366 0.92938 0.926287 0.923105
          0.919824 0.916491 0.913068 0.909563 0.905992 0.90238 0.898715 0.894992 0.891224 0.887416 0.88357 0.879688
          0.875775 0.871831 0.867858 0.863859 0.859835 0.855774 0.851711 0.847612 0.843494 0.83936 0.835188 0.831028
          0.826833 0.822621 0.818403 0.814167 0.809916 0.80566 0.801393 0.797102 0.792826 0.788526 0.784224 0.779919
          0.775593 0.77129 0.766961 0.76264 0.758313 0.753988 0.749665 0.745326 0.741015 0.736684 0.732366 0.728054
          0.723715 0.719432 0.715105 0.71081 0.706514 0.702194 0.697926 0.693629 0.689316 0.68505 0.680748 0.676429
          0.672141 0.667819 0.663475 0.659102 0.654738 0.650306 0.645833 0.641303 0.636695 0.632011 0.627221 0.622299
          0.617234 0.612015 0.606581 0.600924 0.594995 0.588762 0.582188 0.57522 0.567847 0.559997 0.551676 0.54283
          0.533442 0.523495 0.512976 0.501936 0.490404 0.478427 0.466063 0.453391 0.440531 0.427531 0.414561 0.401653
          0.38895 0.37655 0.364564 0.353555 0.365382 0.519531 0.128284 0.128253 0.12823 0.1282 0.128177 0.12815
          0.128124 0.128101 0.128071 0.128048 0.128021 0.127995 0.127968 0.127941 0.127918 0.127888 0.127865 0.127839
          0.127812 0.127785 0.127759 0.127736 0.127709 0.127682 0.127656 0.127629 0.127609 0.127579 0.127556 0.127529
          0.127503 0.127476 0.127449 0.127426 0.127396 0.127373 0.127346 0.12732 0.12729 0.127264 0.127241 0.127214
          0.127188 0.127161 0.127134 0.127111 0.127081 0.127058 0.127031 0.127005 0.126978 0.126951 0.126929 0.126898
          0.126875 0.126849 0.126822 0.126795 0.126769 0.126746 0.126719 0.126692 0.126666 0.126639 0.126616 0.126586
          0.126563 0.126536 0.12651 0.126483 0.126456 0.126433 0.126403 0.12638 0.126353 0.126327 0.1263 0.126273
          0.12625 0.126224 0.126197 0.12617 0.126144 0.126121 0.12609 0.126067 0.126041 0.126014 0.125987 0.125961
          0.125938 0.125907 0.125885 0.125858 0.125831 0.125808 0.125778 0.125755 0.125728 0.125702 0.125675 0.125648
          0.125625 0.125595 0.125572 0.125545 0.125519 0.125492 0.125465 0.125442 0.125412 0.125389 0.125362 0.125336
          0.125313 0.125282 0.125259 0.125233 0.125206 0.125179 0.125152 0.12513 0.125099 0.125076 0.12505 0.125023
          0.124996 0.124969 0.124947 0.12492 0.124893 0.124866 0.12484 0.124817 0.124788 0.124779 0.124754 0.124729
          0.124704 0.124677 0.12465 0.124626 0.1246 0.124573 0.12455 0.124521 0.124495 0.12447 0.124445 0.12442
          0.124392 0.124366 0.124341 0.124316 0.124289 0.124262 0.124236 0.12421 0.124184 0.124159 0.124133 0.124107
          0.124081 0.124055 0.124029 0.124004 0.123978 0.123952 0.123926 0.1239 0.123874 0.123849 0.123822 0.123795
          0.12377 0.123743 0.123717 0.123691 0.123665 0.123639 0.123614 0.123587 0.123561 0.123535 0.123509 0.123484
          0.123456 0.12343 0.123404 0.123378 0.123352 0.123326 0.123301 0.123273 0.123247 0.123221 0.123195 0.12317
          0.123142 0.123117 0.12309 0.123064 0.123039 0.123011 0.122986 0.122961 0.122933 0.122907 0.122882 0.122854
          0.122828 0.122803 0.122778 0.122749 0.122723 0.122698 0.122673 0.122647 0.122619 0.122591 0.122565 0.12254
          0.122514 0.122488 0.122462 0.122436 0.12241 0.122383 0.122357 0.12233 0.122303 0.122276 0.122252 0.122228
          0.1222 0.122173 0.122146 0.12212 0.122095 0.122067 0.122042 0.122015 0.121988 0.121964 0.121935 0.121908
          0.121881 0.121855 0.121825 0.121798 0.121761 0.12 0.12 0.12 0.12 0.12 0.12 0.12
          0.12 0.12 0.12 0.12 0.12 0.12 0.12 0.12 0.12 0.12 0.12 0.12
          0.12 0.12 0.12 0.12 0.12 0.12 0.12 0.120003 0.120003 0.120003 0.120003 0.120003
          0.120003 0.120003 0.120003 0.120003 0.120003 0.120003 0.120003 0.12 0.12 0.12 0.12 0.12
          0.12 0.12 0.12 0.12 0.12 0.12 0.12 0.12 0.12 0.12 0.12 0.12
          0.12 0.12 0.12 0.12 0.12 0.12 0.12 0.12 0.12 0.12 0.12 0.12
          0.12 0.12 0.12 0.12 0.12 0.12 0.12 0.12 0.12 0.12 0.12 0.12
          0.12 0.12 0.12 0.12 0.12 0.12 0.12 0.12 0.12 0.12 0.12 0.12
          0.12 0.12 0.12 0.12 0.12 0.12 0.12 0.12 0.12 0.12 0.12 0.12
          0.12 0.12 0.12 0.12 0.12 0.12 0.12 0.12 0.12 0.12 0.12 0.12
          0.12 0.12 0.12 0.12 0.12 0.12 0.12 0.12 0.12 0.12 0.12 0.12
          0.12 0.12 0.12 0.12 0.12 0.12 0.12 0.12 0.12 0.12 0.12 0.12
          0.12 0.12 0.12 0.12 0.12 0.12 0.12 0.12 0.12 0.12 0.12 0.12
          0.12 0.12 0.12 0.12 0.12 0.12 0.12 0.12 0.12 0.12 0.12 0.12
          0.12 0.12 0.12 0.12 0.12 0.12 0.12 0.12 0.12 0.12 0.12 0.12
          0.12 0.12 0.12 0.12 0.12 0.12 0.12 0.12 0.12 0.12 0.12 0.12
          0.12 0.12 0.12 0.12 0.12 0.12 0.12 0.12 0.12 0.12 0.12 0.12
          0.12 0.12 0.12 0.12 0.12 0.12 0.12 0.12 0.12 0.12 0.12 0.12
          0.12 0.12 0.12 0.12 0.12 0.12 0.12 0.12 0.12 0.12 0.12 0.12
          0.12 0.12 0.12 0.12 0.12 0.12 0.12 0.12 0.12 0.12 0.12 0.12
          0.12 0.12 0.12 0.12 0.12 0.12 0.12 0.12 0.12 0.12 0.12 0.12
          0.12 0.12 0.12 0.12 0.12 0.12 0.12 0.12 0.12 0.12 0.12 0.12
          0.12 0.12 0.12 0.12 0.12 0.12 0.12 0.12 0.12 0.12 0.12 0.12
          0.12 0.12 0.12 0.12 0.12 0.120003 0.120003 0.120003 0.120003 0.120003 0.120003 0.120003
          0.120003 0.120003 0.120003 0.120003 0.120003 0.120003 0.120003 0.12 0.12 0.12 0.12 0.12
          0.12 0.12 0.12 0.12 0.12 0.12 0.12 0.12 0.12 0.12 0.12 0.12
          0.12 0.12 0.12 0.12 0.12 0.12 0.12 0.12 0.12 0.12 0.12 0.12
          0.12 0.12 0.12 0.12 0.12 0.12 0.12 0.12 0.12 0.12 0.12 0.12
          0.12 0.12 0.12 0.12 0.12 0.12 0.12 0.12 0.12 0.12 0.12 0.12
          0.12 0.12 0.12 0.12 0.12 0.12 0.12 0.12 0.12 0.12 0.12 0.12
          0.12 0.12 0.12 0.12 0.12 0.12 0.12 0.12 0.12 0.12 0.12 0.12
          0.12 0.12 0.12 0.12 0.12 0.12 0.12 0.12 0.12 0.12 0.12 0.12
          0.12 0.12 0.12 0.12 0.12 0.12 0.12 0.12 0.12 0.12 0.12 0.12
          0.12 0.12 0.12 0.12 0.12 0.12 0.12 0.12 0.12 0.12 0.12 0.12
          0.12 0.12 0.12 0.12 0.12 0.12 0.12 0.12 0.12 0.12 0.12 0.12
          0.12 0.12 0.12 0.12 0.12 0.12 0.12 0.12 0.12 0.12 0.12 0.12
          0.12 0.12 0.12 0.12 0.12 0.12 0.12 0.12 0.12 0.12 0.12 0.12
          0.12 0.12 0.12 0.12 0.12 0.12 0.12 0.12 0.12 0.12 0.12 0.12
          0.12 0.12 0.12 0.12 0.12 0.12 0.12 0.12 0.12 0.12 0.12 0.12
          0.12 0.12 0.12 0.12 0.12 0.12 0.12 0.12 0.12 0.12 0.12 0.12
          0.12 0.12 0.12 0.12 0.12 0.12 0.12 0.12 0.12 0.12 0.12 0.12
          0.12 0.12 0.12 0.12 0.12 0.12 0.12 0.12 0.12 0.12 0.12 0.12
          0.12 0.12 0.12 0.12 0.12 0.12 0.12 0.12 0.12 0.12 0.12 0.12
          0.12 0.12 0.12 0.12 0.12 0.12 0.12 0.12 0.12 0.12 0.12 0.12
          0.12 0.12 0.12 0.12 0.120003 0.120003 0.120003 0.120003 0.120003 0.120003 0.120003 0.120003
          0.120003 0.120003 0.120003 0.120003 0.120003 0.120003 0.12 0.12 0.12 0.12 0.12 0.12
          0.12 0.12 0.12 0.12 0.12 0.12 0.12 0.12 0.12 0.12 0.12 0.12
          0.12 0.12 0.12 0.12 0.12 0.12 0.12 0.12 0.12 0.12 0.12 0.12
          0.12 0.12 0.12 0.12 0.12 0.12 0.12 0.12 0.12 0.12 0.12 0.12
          0.12 0.12 0.12 0.12 0.12 0.12 0.12 0.12 0.12 0.12 0.12 0.12
          0.12 0.12 0.12 0.12 0.12 0.12 0.12 0.12 0.12 0.12 0.12 0.12
          0.12 0.12 0.12 0.12 0.12 0.12 0.12 0.12 0.12 0.12 0.12 0.12
          0.12 0.12 0.12 0.12 0.12 0.12 0.12 0.12 0.12 0.12 0.12 0.12
          0.12 0.12 0.12 0.12 0.12 0.12 0.12 0.12 0.12 0.12 0.12 0.12
          0.12 0.12 0.12 0.12 0.12 0.12 0.12 0.12 0.12 0.12 0.12 0.12
          0.12 0.12 0.12 0.12 0.12 0.12 0.12 0.12 0.12 0.12 0.12 0.12
          0.12 0.12 0.12 0.12 0.12 0.12 0.12 0.12 0.12 0.12 0.12 0.12
          0.12 0.12 0.12 0.12 0.12 0.12 0.12 0.12 0.12 0.12 0.12 0.12
          0.12 0.12 0.12 0.12 0.12 0.12 0.12 0.12 0.12 0.12 0.12 0.12
          0.12 0.12 0.12 0.12 0.12 0.12 0.12 0.12 0.12 0.12 0.12 0.12
          0.12 0.12 0.12 0.12 0.12 0.12 0.12 0.12 0.12 0.12 0.12 0.12
          0.12 0.12 0.12 0.12 0.12 0.12 0.12 0.12 0.12 0.12 0.12 0.12
          0.12 0.12 0.12 0.12 0.12 0.12 0.12 0.12 0.12 0.12 0.12 0.12
          0.12 0.12 0.12 0.12 0.12 0.12 0.12 0.12 0.12 0.12 0.12 0.12
          0.12 0.12 0.12 0.12 0.12 0.12 0.12 0.12 0.12 0.12 0.12 0.12
          0.12 0.12 0.120003 0.120003 0.120003 0.120003 0.120003 0.120003 0.120003 0.120003 0.120003 0.120003
          0.120003 0.120003 0.120003 0.120003 0.120003 0.120003 0.12 0.12 0.12 0.12 0.12 0.12
          0.12 0.12 0.12 0.12 0.12 0.12 0.12 0.12 0.12 0.12 0.12 0.12
          0.12 0.12 0.12 0.12 0.12 0.12 0.12 0.12 0.12 0.12 0.12 0.12
          0.12 0.12 0.12 0.12 0.12 0.12 0.12 0.12 0.12 0.12 0.12 0.12
          0.12 0.12 0.12 0.12 0.12 0.12 0.12 0.12 0.12 0.12 0.12 0.12
          0.12 0.12 0.12 0.12 0.12 0.12 0.12 0.12 0.12 0.12 0.12 0.12
          0.12 0.12 0.12 0.12 0.12 0.12 0.12 0.12 0.12 0.12 0.12 0.12
          0.12 0.12 0.12 0.12 0.12 0.12 0.12 0.12 0.12 0.12 0.12 0.12
          0.12 0.12 0.12 0.12 0.12 0.12 0.12 0.12 0.12 0.12 0.12 0.12
          0.12 0.12 0.12 0.12 0.12 0.12 0.12 0.12 0.12 0.12 0.12 0.12
          0.12 0.12 0.12 0.12 0.12 0.12 0.12 0.12 0.12 0.12 0.12 0.12
          0.12 0.12 0.12 0.12 0.12 0.12 0.12 0.12 0.12 0.12 0.12 0.12
          0.12 0.12 0.12 0.12 0.12 0.12 0.12 0.12 0.12 0.12 0.12 0.12
          0.12 0.12 0.12 0.12 0.12 0.12 0.12 0.12 0.12 0.12 0.12 0.12
          0.12 0.12 0.12 0.12 0.12 0.12 0.12 0.12 0.12 0.12 0.12 0.12
          0.12 0.12 0.12 0.12 0.12 0.12 0.12 0.12 0.12 0.12 0.12 0.12
          0.12 0.12 0.12 0.12 0.12 0.12 0.12 0.12 0.12 0.12 0.12 0.12
          0.12 0.12 0.12 0.12 0.12 0.12 0.12 0.12 0.12 0.12 0.12 0.12
          0.12
        </DataArray>
        <DataArray type="Float32" Name="Sn" NumberOfComponents="1" format="ascii">
          0 0 0 0 0 0 0 0 0 0 0 0
          0 0 0 0 0 0 0 0 0 0 0 0
          0 0 0 0 0 0 0 0 0 0 0 0
          0 0 0 0 0 0 0 0 0 0 0 0
          0 0 0 0 0 0 0 0 0 0 0 0
          0 0 0 0 0 0 0 0 0 0 0 0
          0 0 0 0 0 0 0 0 0 0 0 0
          0 0 0 0 0 0 0 0 0 0 0 0
          0 0 0 0 0 0 0 0 0 0 0 0
          0 0 0 0 0 0 0 0 0 0 0 0
          0 0 0 0 0 0 0 0 0 0 0 0
          0 0 0 0 0 0 0 0 0 0 0 0
          0 0 0 0 0 0 0 0 0 0 0 0
          0 0 0 0 0 0 0 0 0 0 0 0
          0 0 0 0 0 0 0 0 0 0 0 0
          0 0 0 0 0 0 0 0 0 0 0 0
          0 0 0 0 0 0 0 0 0 0 0 0
          0 0 0 0 0 0 0 0 0 0 0 0
          0 0 0 0 0 0 0 0 0 0 0 0
          0 0 0 0 0 0 0 0 0 0 0 0
          0 0 0 0 0 0 0 0 0 0 0 0
          0 0 0 0 0 0 0 0 0 0 0 0
          0 0 0 0 0 0 0 0 0 0 0 0
          0 0 0 0 0 0 0 0 0 0 0 0
          0 0 0 0 0 0 0 0 0 0 0 0
          0 0 0 0 0 0 0 0 0 0 0 0
          0 0 0 0 0 0 0 0 0 0 0 0
          0 0 0 0 0 0 0 0 0 0 0 0
          0 0 0 0 0 0 0 0 0 0 0 0
          0 0 0 0 0 0 0 0 0 0 0 0
          0 0 0 0 0 0 0 0 0 0 0 0
          0 0 0 0 0 0 0 0 0 0 0 0
          0 0 0 0 0 0 0 0 0 0 0 0
          0 0 0 0 0 0 0 0 0 0 0 0
          0 0 0 0 0 0 0 0 0 0 0 0
          0 0 0 0 0 0 0 0 0 0 0 0
          0 0 0 0 0 0 0 0 0 0 0 0
          0 0 0 0 0 0 0 0 0 0 0 0
          0 0 0 0 0 0 0 0 0 0 0 0
          0 0 0 0 0 0 0 0 0 0 0 0
          0 0 0 0 0 0 0 0 0 0 0 0
          0 0 0 0 0 0 0 0 0 0 0 0
          0 0 0 0 0 0 0 0 0 0 0 0
          0 0 0 0 0 0 0 0 0 0 0 0
          0 0 0 0 0 0 0 0 0 0 0 0
          0 0 0 0 0 0 0 0 0 0 0 0
          0 0 0 0 0 0 0 0 0 0 0 0
          0 0 0 0 0 0 0 0 0 0 0 0
          0 0 0 0 0 0 0 0 0 0 0 0
          0 0 0 0 0 0 0 0 0 0 0 0
          0 0 0 0 0 0 0 0 0 0 0 0
          0 0 0 0 0 0 0 0 0 0 0 0
          0 0 0 0 0 0 0 0 0 0 0 0
          0 0 0 0 0 0 0 0 0 0 0 0
          0 0 0 0 0 0 0 0 0 0 0 0
          0 0 0 0 0 0 0 0 0 0 0 0
          0 0 0 0 0 0 0 0 0 0 0 0
          0 0 0 0 0 0 0 0 0 0 0 0
          0 0 0 0 0 0 0 0 0 0 0 0
          0 0 0 0 0 0 0 0 0 0 0 0
          0 0 0 0 0 0 0 0 0 0 0 0
          0 0 0 0 0 0 0 0 0 0 0 0
          0 0 0 0 0 0 0 0 0 0 0 0
          0 0 0 0 0 0 0 0 0 0 0 0
          0 0 0 0 0 0 0 0 0 0 0 0
          0 0 0 0 0 0 0 0 0 0 0 0
          0 0 0 0 0 0 0 0 0 0 0 0
          0 0 0 0 0 0 0 0 0 0 0 0
          0 0 0 0 0 0 0 0 0 0 0 0
          0 0 0 0 0 0 0 0 0 0 0 0
          0 0 0 0 0 0 0 0 0 0 0 0
          0 0 0 0 0 0 0 0 0 0 0 0
          0 0 0 0 0 0 0 0 0 0 0 0
          0 0 0 0 0 0 0 0 0 0 0 0
          0 0 0 0 0 0 0 0 0 0 0 0
          0 0 0 0 0 0 0 0 0 0 0 0
          0 0 0 0 0 0 0 0 0 0 0 0
          0 0 0 0 0 0 0 0 0 0 0 0
          0 0 0 0 0 0 0 0 0 0 0 0
          0 0 0 0 0 0 0 0 0 0 0 0
          0 0 0 0 0 0 0 0 0 0 0 0
          0 0 0 0 0 0 0 0 0 0 0 0
          0 0 0 0 0 0 0 0 0 0 0 0
          0 0 0 0 0 0 0 0 0 0 0 0
          0 0 0 0 0 0 0 0 0 0 0 0
          0 0 0 0 0 0 0 0 0 0 0 0
          0 0 0 0 0 0 0 0 0 0 0 0
          0 0 0 0 0 0 0 0 0 0 0 0
          0 0 0 0 0 0 0 0 0 0 0 0
          0 0 0 0 0 0 0 0 0 0 0 0
          0 0 0 0 0 0 0 0 0 0 0 0
          0 0 0 0 0 0 0 0 0 0 0 0
          0 0 0 0 0 0 0 0 0 0 0 0
          0 0 0 0 0 0 0 0 0 0 0 0
          0 0 0 0 0 0 0 0 0 0 0 0
          0 0 0 0 0 0 0 0 0 0 0 0
          0 0 0 0 0 0 0 0 0 0 0 0
          0 0 0 0 0 0 0 0 0 0 0 0
          0 0 0 0 0 0 0 0 0 0 0 0
          0 0 0 0 0 0 0 0 0 0 0 0
          0 0 0 0 0 0 0 0 0 0 0 0
          0 0 0 0 0 0 0 0 0 0 0 0
          0 0 0 0 0 0 0 0 0 0 0 0
          0 0 0 0 0 0 0 0 0 0 0 0
          0 0 0 0 0 0 0 0 0 0 0 0
          0 0 0 0 0 0 0 0 0 0 0 0
          0 0 0 0 0 0 0 0 0 0 0 0
          0 0 0 0 0 0 0 0 0 0 0 0
          0 0 0 0 0 0 0 0 0 0 0 0
          0 0 0 0 0 0 0 0 0 0 0 0
          0 0 0 0 0 0 0 0 0 0 0 0
          0 0 0 0 0 0 0 0 0 0 0 0
          0 0 0 0 0 0 0 0 0 0 0 0
          0 0 0 0 0 0 0 0 0 0 0 0
          0 0 0 0 0 0 0 0 0 0 0 0
          0 0 0 0 0 0 0 0 0 0 0 0
          0 0 0 0 0 0 0 0 0 0 0 0
          0 0 0 0 0 0 0 0 0 0 0 0
          0 0 0 0 0 0 0 0 0 0 0 0
          0 0 0 0 0 0 0 0 0 0 0 0
          0 0 0 0 0 0 0 0 0 0 0 0
          0 0 0 0 0 0 0 0 0 0 0 0
          0 0 0 0 0 0 0 0 0 0 0 0
          0 0 0 0 0 0 0 0 0 0 0 0
          0 0 0 0 0 0 0 0 0 0 0 0
          0 0 0 0 0 0 0 0 0 0 0 0
          0 0 0 0 0 0 0 0 0 0 0 0
          0 0 0 0 0 0 0 0 3.47324e-07 1.84573e-05 1.93929e-05 1.94491e-05
          1.94831e-05 1.95158e-05 1.95478e-05 1.95772e-05 1.96105e-05 1.96151e-05 1.87261e-05 3.28998e-07 0 0 0 0
          0 0 0 0 0 0 0 0 0 0 0 0
          0 0 0 0 0 0 0 0 0 0 0 0
          0 0 0 0 0 0 0 0 0 0 0 0
          0 0 0 0 0 0 0 0 0 0 0 0
          0 0 0 0 0 0 0 0 0 0 0 0
          0 0 0 0 0 0 0 0 0 0 0 0
          0 0 0 0 0 0 0 0 0 0 0 0
          0 0 0 0 0 0 0 0 0 0 0 0
          0 0 0 0 0 0 0 0 0 0 0 0
          0 0 0 0 0 0 0 0 0 0 0 0
          0 0 0 0 0 0 0 0 0 0 0 0
          0 0 0 0 0 0 0 0 0 0 0 0
          0 0 0 0 0 0 0 0 0 0 0 0
          0 0 0 0 0 0 0 0 0 0 0 0
          0 0 0 0 0 0 0 0 0 0 0 0
          0 0 0 0 0 0 0 0 0 0 0 0
          0 0 0 0 0 0 0 0 0 0 0 0
          0 0 0 0 0 0 0 0 0 0 0 0
          0 0 0 0 0 0 0 0 0 0 0 0
          0 0 0 0 0 0 0 0.00789009 0.0140706 0.0141838 0.0141859 0.0141859
          0.0141859 0.0141859 0.0141858 0.0141858 0.0141836 0.0140704 0.00788978 0 0 0 0 0
          0 0 0 0 0 0 0 0 0 0 0 0
          0 0 0 0 0 0 0 0 0 0 0 0
          0 0 0 0 0 0 0 0 0 0 0 0
          0 0 0 0 0 0 0 0 0 0 0 0
          0 0 0 0 0 0 0 0 0 0 0 0
          0 0 0 0 0 0 0 0 0 0 0 0
          0 0 0 0 0 0 0 0 0 0 0 0
          0 0 0 0 0 0 0 0 0 0 0 0
          0 0 0 0 0 0 0 0 0 0 0 0
          0 0 0 0 0 0 0 0 0 0 0 0
          0 0 0 0 0 0 0 0 0 0 0 0
          0 0 0 0 0 0 0 0 0 0 0 0
          0 0 0 0 0 0 0 0 0 0 0 0
          0 0 0 0 0 0 0 0 0 0 0 0
          0 0 0 0 0 0 0 0 0 0 0 0
          0 0 0 0 0 0 0 0 0 0 0 0
          0 0 0 0 0 0 0 0 0 0 0 0
          0 0 0 0 0 0 0 0 0 0 0 0
          0 0 0 0 0 0 0 0 0 0 0 0
          0 0 0 0 0 0.000851433 0.0642949 0.0747114 0.0748128 0.0748178 0.0748179 0.0748179
          0.0748179 0.0748179 0.0748178 0.0748128 0.0747114 0.0642947 0.000850785 0 0 0 0 0
          0 0 0 0 0 0 0 0 0 0 0 0
          0 0 0 0 0 0 0 0 0 0 0 0
          0 0 0 0 0 0 0 0 0 0 0 0
          0 0 0 0 0 0 0 0 0 0 0 0
          0 0 0 0 0 0 0 0 0 0 0 0
          0 0 0 0 0 0 0 0 0 0 0 0
          0 0 0 0 0 0 0 0 0 0 0 0
          0 0 0 0 0 0 0 0 0 0 0 0
          0 0 0 0 0 0 0 0 0 0 0 0