<?xml version="1.0"?>
<VTKFile type="UnstructuredGrid" version="0.1" byte_order="LittleEndian">
  <UnstructuredGrid>
    <Piece NumberOfCells="1536" NumberOfPoints="1617">
      <PointData Scalars="Sn">
        <DataArray type="Float32" Name="Sn" NumberOfComponents="1" format="ascii">
          0 0 0 0 0 0 0 0 0 0 0 0
          0 0 0 0 0 0 0 0 0 0 0 0
          0 0 0 0 0 0 0 0 0 0 0 0
          0 0 0 0 0 0 0 0 0 0 0 0
          0 0 0 0 0 0 0 0 0 0 0 0
          0 0 0 0 0 0 0.0142413 0.00539168 0.0346264 0.0121503 0.0617333 0.020467
          0.0933371 0.0292817 0.129874 0.0378708 0.168225 0.0458625 0.207636 0.0529635 0.247582 0.0588832 0.2876 0.063253
          0.32702 0.0655877 0.364602 0.0653309 0.397963 0.0620179 0.422298 0.0555239 0.424508 0.0460298 0.319096 0.0303378
          0 0 0 0 0 0 0 0 0 0 0 0
          0 0 0 0 0 0 0 0 0 0 0 0
          0 0 0 0 0 0 0 0 0 0 0 0.00605158
          0.0134018 0.022012 0.0307733 0.0390171 0.046346 0.0524691 0.0570737 0.0597652 0.0600882 0.0576549 0.0523878 0.0447726
          0.0357394 0.023435 0 0 0 0 0 0 0 0 0 0
          0 0 0 0 0 0 0 0 0 0 0 0
          0 0 0 0 0 0 0 0 0 0 0 0
          0.00697713 0.015179 0.024422 0.0335815 0.0419982 0.0492859 0.0551373 0.0591955 0.0610149 0.0601307 0.0562556 0.0495727
          0.0409372 0.0315844 0.0202595 0 0 0 0 0 0 0 0 0
          0 0 0 0 0 0 0 0 0 0 0 0
          0 0 0 0 0 0 0 0 0 0 0 0
          0 0.00808346 0.0172066 0.0271056 0.036652 0.0452116 0.0524084 0.0579066 0.061291 0.0620662 0.0597919 0.0543562
          0.0462921 0.0368425 0.0274342 0.0171993 0 0 0 0 0 0 0 0
          0 0 0 0 0 0 0 0 0 0 0 0
          0 0 0 0 0 0 0 0 0 0 0 0
          0 0 0.00940145 0.0195088 0.0300755 0.0399798 0.0486243 0.0556367 0.0606356 0.0631381 0.0626175 0.0587242
          0.0516337 0.0423218 0.032378 0.0232459 0.0142504 0 0 0 0 0 0 0
          0 0 0 0 0 0 0 0 0 0 0 0
          0 0 0 0 0 0 0 0 0 0 0 0
          0 0 0 0.0109608 0.0221244 0.0333655 0.0435899 0.0522444 0.0589463 0.0632502 0.0646048 0.0624965
          0.0567714 0.0480299 0.0377411 0.0277043 0.0191685 0.0115115 0 0 0 0 0 0
          0 0 0 0 0 0 0 0 0 0 0 0
          0 0 0 0 0 0 0 0 0 0 0 0
          0 0 0 0 0.0127951 0.0251025 0.0370193 0.0475129 0.0560763 0.0622947 0.0656417 0.0655174
          0.0615058 0.0538 0.043563 0.0327113 0.0230181 0.0153444 0.00907364 0 0 0 0 0
          0 0 0 0 0 0 0 0 0 0 0 0
          0 0 0 0 0 0 0 0 0 0 0 0
          0 0 0 0 0 0.0149698 0.0285107 0.0410932 0.0517846 0.0601138 0.065606 0.0676479
          0.0656479 0.0594296 0.0497272 0.0383466 0.0274579 0.01852 0.0119007 0.0070178 0 0 0 0
          0 0 0 0 0 0 0 0 0 0 0 0
          0 0 0 0 0 0 0 0 0 0 0 0
          0 0 0 0 0 0 0.0175658 0.0324345 0.0456603 0.0564452 0.06433 0.0687506
          0.0690322 0.0647115 0.056065 0.0445681 0.0326026 0.0222439 0.0143882 0.00895624 0.00530413 0 0 0
          0 0 0 0 0 0 0 0 0 0 0 0
          0 0 0 0 0 0 0 0 0 0 0 0
          0 0 0 0 0 0 0 0.020694 0.0369916 0.0508192 0.0615363 0.0686554
          0.0715127 0.0694628 0.062382 0.0512794 0.0384843 0.0266474 0.017331 0.0107753 0.00659767 0.0038781 0 0
          0 0 0 0 0 0 0 0 0 0 0 0
          0 0 0 0 0 0 0 0 0 0 0 0
          0 0 0 0 0 0 0 0 0.0245155 0.0423534 0.0567069 0.0670885
          0.0729375 0.0735439 0.0684996 0.0583418 0.0450971 0.0318082 0.0208463 0.0129463 0.00781698 0.00472641 0.00270226 0
          0 0 0 0 0 0 0 0 0 0 0 0
          0 0 0 0 0 0 0 0 0 0 0 0
          0 0 0 0 0 0 0 0 0 0.0292807 0.0487892 0.0635184
          0.0730871 0.0768635 0.0743066 0.0656157 0.0523926 0.0377919 0.0250141 0.0155468 0.00927768 0.00553646 0.00324609 0.00175915
          0 0 0 0 0 0 0 0 0 0 0 0
          0 0 0 0 0 0 0 0 0 0 0 0
          0 0 0 0 0 0 0 0 0 0 0.0354234 0.0567672
          0.0715308 0.0793724 0.0798281 0.0730376 0.0603061 0.0446351 0.0299248 0.0186262 0.0110368 0.00646272 0.00377577 0.00209625
          0.00103432 0 0 0 0 0 0 0 0 0 0 0
          0 0 0 0 0 0 0 0 0 0 0 0
          0 0 0 0 0 0 0 0 0 0 3.98244e-36 0.0438467
          0.0672433 0.0810781 0.0853684 0.0807633 0.0688234 0.0523561 0.0356508 0.0222565 0.0131055 0.00753112 0.0043626 0.00243566
          0.00123807 0.000511822 0 0 0 0 0 0 0 0 0 0
          0 0 0 0 0 0 0 0 0 0 0 0
          0 0 0 0 0 0 0 0 0 0 0 2.43853e-32
          0.0576315 0.0824787 0.0920431 0.0894948 0.0781238 0.0609736 0.0422622 0.0265004 0.015532 0.00878032 0.00502044 0.00280941
          0.0014521 0.000632153 0.000177043 0 0 0 0 0 0 0 0 0
          0 0 0 0 0 0 0 0 0 0 0 0
          0 0 0 0 0 0 0 0 0 0 0 0
          -3.17451e-27 0.0982426 0.104943 0.101295 0.0888043 0.0705515 0.0498318 0.031475 0.0183806 0.0102754 0.00577218 0.0032309
          0.00169307 0.000765906 0.000240845 2.73288e-05 0 0 0 0 0 0 0 0
          0 0 0 0 0 0 0 0 0 0 0 0
          0 0 0 0 0 0 0 0 0 -2.15501e-38 -4.19725e-38 -6.96359e-38
          -7.76372e-37 7.13761e-19 0.120131 0.115468 0.101248 0.0811795 0.0585426 0.0374559 0.0218731 0.0121159 0.00667774 0.00373058
          0.00198035 0.000926383 0.000320497 4.71142e-05 9.87005e-07 0 0 0 0 0 0 0
          0 0 0 0 0 0 0 0 -2.46441e-38 -4.18129e-37 -3.24963e-36 -1.52862e-35
          -5.49489e-35 -1.67411e-34 -4.57029e-34 -1.15597e-33 -2.74052e-33 -6.0887e-33 -1.26028e-32 -2.46737e-32 -4.71657e-32 -8.75913e-32 -1.51594e-31 -2.01724e-31
          2.52626e-31 -3.58512e-30 3.93046e-10 0.130395 0.116988 0.0945064 0.0694521 0.0453264 0.0265976 0.0146261 0.00788758 0.00437388
          0.00234761 0.00113337 0.000427193 8.03825e-05 2.76226e-06 3.52563e-11 0 0 0 0 0 0
          0 0 0 0 0 0 0 1.97889e-37 -1.65546e-32 -1.96695e-31 1.42375e-31 2.36833e-29
          1.32361e-28 4.72598e-28 1.36517e-27 3.51989e-27 8.41365e-27 1.90438e-26 4.1306e-26 8.70949e-26 1.82911e-25 3.97348e-25 9.36677e-25 2.4876e-24
          7.88757e-24 3.26232e-23 1.29814e-22 4.25005e-06 0.136478 0.114399 0.0852112 0.0570103 0.0338244 0.0184759 0.00972833 0.00527334
          0.00284379 0.00141142 0.000575375 0.000136926 7.82456e-06 2.70564e-08 2.93862e-13 0 0 0 0 0
          0 0 0 0 0 0 0 0 2.93987e-29 -3.37672e-25 5.54928e-23 1.06144e-21
          8.57957e-21 3.48966e-20 1.04901e-19 2.67112e-19 6.1704e-19 1.33733e-18 2.75655e-18 5.42089e-18 1.01834e-17 1.86423e-17 3.453e-17 6.65755e-17
          1.3744e-16 3.22391e-16 9.50516e-16 4.72691e-15 8.7268e-05 0.140904 0.110053 0.0753665 0.0457398 0.0249093 0.0127863 0.0066274
          0.00354236 0.00179071 0.000779823 0.000228443 2.15551e-05 1.86404e-07 1.62351e-11 1.87563e-16 0 0 0 0
          0 0 0 0 0 0 0 0 1.31365e-35 2.87715e-21 1.73119e-17 6.47787e-15
          1.01161e-13 6.9318e-13 2.49781e-12 6.75454e-12 1.56285e-11 3.30448e-11 6.59266e-11 1.25535e-10 2.28318e-10 3.95855e-10 6.65156e-10 1.11845e-09
          1.9142e-09 3.36831e-09 6.25132e-09 1.26957e-08 3.31822e-08 0.000169965 0.145471 0.104693 0.0655674 0.0361339 0.018168 0.00886483
          0.00457295 0.00231701 0.00105552 0.000364436 5.44423e-05 1.13552e-06 5.91988e-10 1.83559e-15 7.61328e-21 0 0 0
          0 0 0 0 0 0 0 0 0 3.68906e-27 2.67613e-13 2.71346e-09
          7.1748e-08 2.53761e-07 6.12044e-07 1.08119e-06 1.66851e-06 2.39703e-06 3.3072e-06 4.44712e-06 5.85701e-06 7.55435e-06 9.52981e-06 1.18444e-05
          1.47148e-05 1.84132e-05 2.33087e-05 3.01884e-05 4.06968e-05 5.86945e-05 0.000482475 0.14893 0.0981649 0.0559068 0.0279556 0.0129833
          0.00618278 0.00306567 0.00142041 0.000547418 0.000118862 5.35348e-06 9.95287e-09 1.12038e-13 1.02624e-18 1.15763e-23 0 0
          0 0 0 0 0 0 0 0 0 0 1.30173e-18 5.48698e-07
          3.48869e-05 0.00013064 0.0002053 0.000285719 0.000349664 0.000406677 0.000460771 0.000514568 0.000569403 0.000625355 0.000681479 0.000736415
          0.000791102 0.000849172 0.000913434 0.000986253 0.00107315 0.00118497 0.00134008 0.00240516 0.147041 0.0902902 0.046191 0.0207644
          0.00893986 0.00415861 0.00189866 0.000769644 0.000216402 1.83464e-05 1.24077e-07 6.7848e-12 5.79433e-17 5.0252e-22 5.44424e-27 0
          0 0 0 0 0 0 0 0 0 0 0 5.35007e-10
          0.00033788 0.00128628 0.0017219 0.00190449 0.00214695 0.00229592 0.00241607 0.00252109 0.0026186 0.00271167 0.00280081 0.00288494
          0.00296303 0.0030365 0.00310878 0.00318387 0.0032649 0.00335584 0.00346835 0.00360482 0.005101 0.151586 0.0813188 0.0358342
          0.0141476 0.00577089 0.00249242 0.00100164 0.000322494 4.29538e-05 6.61137e-07 1.63454e-10 1.31816e-15 1.04572e-20 7.29355e-26 7.12012e-31
          0 0 0 0 0 0 0 0 0 0 0 0
          0 0.00225734 0.00424528 0.0139609 0.053139 0.131422 0.203216 0.2641 0.316666 0.362337 0.401672 0.434855
          0.461853 0.482423 0.496218 0.50307 0.503656 0.499135 0.490495 0.47996 0.464333 0.312535 0.17927 0.06678
          0.0231535 0.00775109 0.00295138 0.00110422 0.000364302 5.80238e-05 1.22111e-06 6.00891e-10 1.70591e-15 -3.17248e-20 -8.85178e-25 -1.57206e-29
          -1.90612e-34 0 0 0 0 0 0 0 0 0 0 0
          0 0 0 0 0.00185136 0.0064998 0.0335841 0.0510323 0.0606295 0.0660514 0.0693887 0.0717264
          0.0734634 0.0738562 0.0682305 0.054607 0.0378714 0.0233278 0.0133237 0.00739392 0.00414792 0.00217673 0.000998843 0.000312317
          2.9417e-05 2.18261e-07 1.59382e-11 3.1432e-17 -5.06842e-23 2.50806e-27 6.55119e-32 1.49609e-36 0 0 0 0
          0 0 0 0 0 0 0 0 0 0 0 0
          0 0 0 0 0 0.00171384 0.00612928 0.0328651 0.0489863 0.0561629 0.0591529 0.0603207
          0.0607589 0.060846 0.0598936 0.0528172 0.0386853 0.0240996 0.0133106 0.00704164 0.00377534 0.00189007 0.000798849 0.000211574
          1.4327e-05 5.84071e-08 1.20472e-12 5.58171e-18 1.70595e-23 -2.25181e-29 1.00619e-33 2.15399e-38 0 0 0 0
          0 0 0 0 0 0 0 0 0 0 0 0
          0 0 0 0 0 0 0.0016902 0.00614841 0.0342817 0.050766 0.05713 0.0594369
          0.0602092 0.0604469 0.0604432 0.0594406 0.0511526 0.035217 0.020416 0.0105612 0.0054303 0.00274628 0.00125226 0.000445029
          7.11968e-05 1.51698e-06 6.47444e-10 4.06507e-15 2.41626e-20 1.25542e-25 9.77854e-32 -2.5878e-36 0 0 0 0
          0 0 0 0 0 0 0 0 0 0 0 0
          0 0 0 0 0 0 0 0.00161877 0.00617938 0.0357983 0.0527472 0.05819
          0.0598713 0.0603564 0.060486 0.0604613 0.0594975 0.0497302 0.0315751 0.0167554 0.00811801 0.00401221 0.00187313 0.000759841
          0.000205116 1.46743e-05 6.54272e-08 1.62351e-12 8.81487e-18 3.88408e-23 3.11329e-29 -2.39113e-33 0 0 0 0
          0 0 0 0 0 0 0 0 0 0 0 0
          0 0 0 0 0 0 0 0 0.00145758 0.00621409 0.0373381 0.0548126
          0.0591207 0.0601979 0.0604568 0.0605157 0.0604887 0.0596394 0.0480512 0.0271423 0.0128354 0.00584557 0.00267078 0.00111387
          0.00037745 5.80021e-05 1.09072e-06 3.67059e-10 2.21974e-15 1.17311e-20 3.87667e-26 -2.12545e-31 -6.81552e-36 0 0 0
          0 0 0 0 0 0 0 0 0 0 0 0
          0 0 0 0 0 0 0 0 0 0.00113966 0.00599868 0.038957
          0.0569741 0.0598753 0.0604099 0.0605112 0.0605301 0.0605118 0.0598813 0.0460276 0.0213815 0.00863879 0.00359084 0.00142328
          0.000503228 0.000113233 4.79432e-06 7.06592e-09 5.21636e-14 2.32731e-19 1.25623e-25 -1.56672e-29 -2.87681e-34 0 0 0
          0 0 0 0 0 0 0 0 0 0 0 0
          0 0 0 0 0 0 0 0 0 0 0.000530342 0.00457386
          0.0408449 0.0592516 0.0603995 0.0605179 0.0605332 0.0605353 0.0605286 0.0602644 0.043605 0.0125827 0.00371966 0.00110596
          0.000291647 4.72235e-05 9.92114e-07 4.04567e-10 9.66289e-16 -1.52858e-20 -3.43889e-25 -4.87019e-30 -5.92925e-35 0 0 0
          0 0 0 0 0 0 0 0 0
        </DataArray>
        <DataArray type="Float32" Name="Sw" NumberOfComponents="1" format="ascii">
          1 1 1 1 1 1 1 1 1 1 1 1
          1 1 1 1 1 1 1 1 1 1 1 1
          1 1 1 1 1 1 1 1 1 1 1 1
          1 1 1 1 1 1 1 1 1 1 1 1
          1 1 1 1 1 1 1 1 1 1 1 1
          1 1 1 1 1 1 0.985759 0.994608 0.965374 0.98785 0.938267 0.979533
          0.906663 0.970718 0.870126 0.962129 0.831775 0.954138 0.792364 0.947036 0.752418 0.941117 0.7124 0.936747
          0.67298 0.934412 0.635398 0.934669 0.602037 0.937982 0.577702 0.944476 0.575492 0.95397 0.680904 0.969662
          1 1 1 1 1 1 1 1 1 1 1 1
          1 1 1 1 1 1 1 1 1 1 1 1
          1 1 1 1 1 1 1 1 1 1 1 0.993948
          0.986598 0.977988 0.969227 0.960983 0.953654 0.947531 0.942926 0.940235 0.939912 0.942345 0.947612 0.955227
          0.964261 0.976565 1 1 1 1 1 1 1 1 1 1
          1 1 1 1 1 1 1 1 1 1 1 1
          1 1 1 1 1 1 1 1 1 1 1 1
          0.993023 0.984821 0.975578 0.966419 0.958002 0.950714 0.944863 0.940804 0.938985 0.939869 0.943744 0.950427
          0.959063 0.968416 0.979741 1 1 1 1 1 1 1 1 1
          1 1 1 1 1 1 1 1 1 1 1 1
          1 1 1 1 1 1 1 1 1 1 1 1
          1 0.991917 0.982793 0.972894 0.963348 0.954788 0.947592 0.942093 0.938709 0.937934 0.940208 0.945644
          0.953708 0.963158 0.972566 0.982801 1 1 1 1 1 1 1 1
          1 1 1 1 1 1 1 1 1 1 1 1
          1 1 1 1 1 1 1 1 1 1 1 1
          1 1 0.990599 0.980491 0.969925 0.96002 0.951376 0.944363 0.939364 0.936862 0.937382 0.941276
          0.948366 0.957678 0.967622 0.976754 0.98575 1 1 1 1 1 1 1
          1 1 1 1 1 1 1 1 1 1 1 1
          1 1 1 1 1 1 1 1 1 1 1 1
          1 1 1 0.989039 0.977876 0.966635 0.95641 0.947756 0.941054 0.93675 0.935395 0.937503
          0.943229 0.95197 0.962259 0.972296 0.980832 0.988489 1 1 1 1 1 1
          1 1 1 1 1 1 1 1 1 1 1 1
          1 1 1 1 1 1 1 1 1 1 1 1
          1 1 1 1 0.987205 0.974898 0.962981 0.952487 0.943924 0.937705 0.934358 0.934483
          0.938494 0.9462 0.956437 0.967289 0.976982 0.984656 0.990926 1 1 1 1 1
          1 1 1 1 1 1 1 1 1 1 1 1
          1 1 1 1 1 1 1 1 1 1 1 1
          1 1 1 1 1 0.98503 0.971489 0.958907 0.948215 0.939886 0.934394 0.932352
          0.934352 0.94057 0.950273 0.961653 0.972542 0.98148 0.988099 0.992982 1 1 1 1
          1 1 1 1 1 1 1 1 1 1 1 1
          1 1 1 1 1 1 1 1 1 1 1 1
          1 1 1 1 1 1 0.982434 0.967565 0.95434 0.943555 0.93567 0.931249
          0.930968 0.935288 0.943935 0.955432 0.967397 0.977756 0.985612 0.991044 0.994696 1 1 1
          1 1 1 1 1 1 1 1 1 1 1 1
          1 1 1 1 1 1 1 1 1 1 1 1
          1 1 1 1 1 1 1 0.979306 0.963008 0.949181 0.938464 0.931345
          0.928487 0.930537 0.937618 0.948721 0.961516 0.973353 0.982669 0.989225 0.993402 0.996122 1 1
          1 1 1 1 1 1 1 1 1 1 1 1
          1 1 1 1 1 1 1 1 1 1 1 1
          1 1 1 1 1 1 1 1 0.975484 0.957647 0.943293 0.932912
          0.927063 0.926456 0.9315 0.941658 0.954903 0.968192 0.979154 0.987054 0.992183 0.995274 0.997298 1
          1 1 1 1 1 1 1 1 1 1 1 1
          1 1 1 1 1 1 1 1 1 1 1 1
          1 1 1 1 1 1 1 1 1 0.970719 0.951211 0.936482
          0.926913 0.923137 0.925693 0.934384 0.947607 0.962208 0.974986 0.984453 0.990722 0.994464 0.996754 0.998241
          1 1 1 1 1 1 1 1 1 1 1 1
          1 1 1 1 1 1 1 1 1 1 1 1
          1 1 1 1 1 1 1 1 1 1 0.964577 0.943233
          0.928469 0.920628 0.920172 0.926962 0.939694 0.955365 0.970075 0.981374 0.988963 0.993537 0.996224 0.997904
          0.998966 1 1 1 1 1 1 1 1 1 1 1
          1 1 1 1 1 1 1 1 1 1 1 1
          1 1 1 1 1 1 1 1 1 1 1 0.956153
          0.932757 0.918922 0.914632 0.919237 0.931177 0.947644 0.964349 0.977744 0.986894 0.992469 0.995637 0.997564
          0.998762 0.999488 1 1 1 1 1 1 1 1 1 1
          1 1 1 1 1 1 1 1 1 1 1 1
          1 1 1 1 1 1 1 1 1 1 1 1
          0.942369 0.917521 0.907957 0.910505 0.921876 0.939026 0.957738 0.9735 0.984468 0.99122 0.99498 0.997191
          0.998548 0.999368 0.999823 1 1 1 1 1 1 1 1 1
          1 1 1 1 1 1 1 1 1 1 1 1
          1 1 1 1 1 1 1 1 1 1 1 1
          1 0.901757 0.895057 0.898705 0.911196 0.929448 0.950168 0.968525 0.981619 0.989725 0.994228 0.996769
          0.998307 0.999234 0.999759 0.999973 1 1 1 1 1 1 1 1
          1 1 1 1 1 1 1 1 1 1 1 1
          1 1 1 1 1 1 1 1 1 1 1 1
          1 1 0.879869 0.884532 0.898752 0.91882 0.941457 0.962544 0.978127 0.987884 0.993322 0.996269
          0.99802 0.999074 0.99968 0.999953 0.999999 1 1 1 1 1 1 1
          1 1 1 1 1 1 1 1 1 1 1 1
          1 1 1 1 1 1 1 1 1 1 1 1
          1 1 1 0.869605 0.883012 0.905494 0.930548 0.954674 0.973402 0.985374 0.992112 0.995626
          0.997652 0.998867 0.999573 0.99992 0.999997 1 1 1 1 1 1 1
          1 1 1 1 1 1 1 1 1 1 1 1
          1 1 1 1 1 1 1 1 1 1 1 1
          1 1 1 0.999996 0.863522 0.885601 0.914789 0.94299 0.966176 0.981524 0.990272 0.994727
          0.997156 0.998589 0.999425 0.999863 0.999992 1 1 1 1 1 1 1
          1 1 1 1 1 1 1 1 1 1 1 1
          1 1 1 1 1 1 1 1 1 1 1 1
          1 1 1 1 0.999913 0.859096 0.889947 0.924634 0.95426 0.975091 0.987214 0.993373
          0.996458 0.998209 0.99922 0.999772 0.999978 1 1 1 1 1 1 1
          1 1 1 1 1 1 1 1 1 1 1 1
          1 1 1 1 1 1 1 1 1 1 1 1
          1 1 1 1 1 0.99983 0.854529 0.895307 0.934433 0.963866 0.981832 0.991135
          0.995427 0.997683 0.998944 0.999636 0.999946 0.999999 1 1 1 1 1 1
          1 1 1 1 1 1 1 1 1 1 1 1
          1 1 0.999999 0.999999 0.999998 0.999998 0.999997 0.999996 0.999994 0.999992 0.99999 0.999988
          0.999985 0.999982 0.999977 0.99997 0.999959 0.999941 0.999518 0.85107 0.901835 0.944093 0.972044 0.987017
          0.993817 0.996934 0.99858 0.999453 0.999881 0.999995 1 1 1 1 1 1
          1 1 1 1 1 1 1 1 1 1 1 0.999999
          0.999965 0.999869 0.999795 0.999714 0.99965 0.999593 0.999539 0.999485 0.999431 0.999375 0.999319 0.999264
          0.999209 0.999151 0.999087 0.999014 0.998927 0.998815 0.99866 0.997595 0.852959 0.90971 0.953809 0.979236
          0.99106 0.995841 0.998101 0.99923 0.999784 0.999982 1 1 1 1 1 1
          1 1 1 1 1 1 1 1 1 1 1 1
          0.999662 0.998714 0.998278 0.998096 0.997853 0.997704 0.997584 0.997479 0.997381 0.997288 0.997199 0.997115
          0.997037 0.996964 0.996891 0.996816 0.996735 0.996644 0.996532 0.996395 0.994899 0.848414 0.918681 0.964166
          0.985852 0.994229 0.997508 0.998998 0.999677 0.999957 0.999999 1 1 1 1 1
          1 1 1 1 1 1 1 1 1 1 1 1
          1 0.997743 0.995755 0.986039 0.946861 0.868578 0.796784 0.7359 0.683334 0.637663 0.598328 0.565145
          0.538147 0.517577 0.503782 0.49693 0.496344 0.500865 0.509505 0.52004 0.535667 0.687465 0.82073 0.93322
          0.976846 0.992249 0.997049 0.998896 0.999636 0.999942 0.999999 1 1 1 1 1
          1 1 1 1 1 1 1 1 1 1 1 1
          1 1 1 1 0.998149 0.9935 0.966416 0.948968 0.93937 0.933949 0.930611 0.928274
          0.926537 0.926144 0.931769 0.945393 0.962129 0.976672 0.986676 0.992606 0.995852 0.997823 0.999001 0.999688
          0.999971 1 1 1 1 1 1 1 1 1 1 1
          1 1 1 1 1 1 1 1 1 1 1 1
          1 1 1 1 1 0.998286 0.993871 0.967135 0.951014 0.943837 0.940847 0.939679
          0.939241 0.939154 0.940106 0.947183 0.961315 0.9759 0.986689 0.992958 0.996225 0.99811 0.999201 0.999788
          0.999986 1 1 1 1 1 1 1 1 1 1 1
          1 1 1 1 1 1 1 1 1 1 1 1
          1 1 1 1 1 1 0.99831 0.993852 0.965718 0.949234 0.94287 0.940563
          0.939791 0.939553 0.939557 0.940559 0.948847 0.964783 0.979584 0.989439 0.99457 0.997254 0.998748 0.999555
          0.999929 0.999999 1 1 1 1 1 1 1 1 1 1
          1 1 1 1 1 1 1 1 1 1 1 1
          1 1 1 1 1 1 1 0.998381 0.993821 0.964202 0.947253 0.94181
          0.940129 0.939644 0.939514 0.939539 0.940503 0.95027 0.968425 0.983245 0.991882 0.995988 0.998127 0.99924
          0.999795 0.999985 1 1 1 1 1 1 1 1 1 1
          1 1 1 1 1 1 1 1 1 1 1 1
          1 1 1 1 1 1 1 1 0.998542 0.993786 0.962662 0.945187
          0.940879 0.939802 0.939543 0.939484 0.939511 0.940361 0.951949 0.972858 0.987165 0.994154 0.997329 0.998886
          0.999623 0.999942 0.999999 1 1 1 1 1 1 1 1 1
          1 1 1 1 1 1 1 1 1 1 1 1
          1 1 1 1 1 1 1 1 1 0.99886 0.994001 0.961043
          0.943026 0.940125 0.93959 0.939489 0.93947 0.939488 0.940119 0.953972 0.978619 0.991361 0.996409 0.998577
          0.999497 0.999887 0.999995 1 1 1 1 1 1 1 1 1
          1 1 1 1 1 1 1 1 1 1 1 1
          1 1 1 1 1 1 1 1 1 1 0.99947 0.995426
          0.959155 0.940748 0.939601 0.939482 0.939467 0.939465 0.939471 0.939736 0.956395 0.987417 0.99628 0.998894
          0.999708 0.999953 0.999999 1 1 1 1 1 1 1 1 1
          1 1 1 1 1 1 1 1 1
        </DataArray>
        <DataArray type="Float32" Name="pn" NumberOfComponents="1" format="ascii">
          153955 152708 152269 151356 151850 150555 151146 149874 150540 149280 150005 148752
          149524 148276 149086 147842 148684 147443 148312 147073 147964 146727 147636 146401
          147326 146092 147030 145798 146747 145515 146474 145243 146209 144979 145952 144723
          145702 144473 145456 144228 145216 143988 144979 143751 144747 143519 144517 143289
          144291 143063 144067 142840 143847 142619 143629 142401 143414 142186 143201 141974
          142992 141764 142787 141558 142584 141356 142504 141241 142337 141074 142166 140890
          141984 140698 141789 140498 141588 140289 141380 140072 141167 139849 140950 139621
          140732 139391 140515 139163 140301 138939 140090 138724 139878 138519 139648 138320
          139240 138014 150583 149840 149145 148517 147955 147448 146987 146564 146174 145811
          145471 145149 144845 144553 144274 144004 143742 143487 143238 142995 142755 142520
          142288 142059 141833 141609 141389 141171 140955 140743 140533 140327 140124 140013
          139841 139655 139461 139260 139050 138831 138607 138377 138147 137919 137697 137485
          137283 137088 136788 148897 148266 147660 147095 146575 146098 145660 145254 144878
          144526 144195 143882 143583 143298 143023 142756 142498 142246 141999 141757 141519
          141285 141053 140825 140599 140376 140156 139937 139722 139509 139299 139092 138888
          138783 138606 138419 138224 138021 137809 137589 137363 137133 136902 136676 136457
          136248 136050 135858 135561 147211 146664 146132 145626 145152 144710 144299 143916
          143557 143220 142902 142599 142309 142031 141762 141502 141248 140999 140755 140516
          140280 140047 139816 139589 139364 139141 138920 138702 138486 138273 138062 137855
          137650 137550 137370 137181 136985 136779 136565 136342 136114 135883 135653 135429
          135213 135009 134815 134626 134335 145525 145046 144576 144125 143696 143291 142910
          142552 142215 141896 141593 141303 141024 140756 140495 140240 139992 139747 139507
          139271 139037 138806 138577 138350 138125 137903 137682 137464 137247 137033 136822
          136614 136408 136313 136131 135941 135742 135533 135316 135090 134860 134628 134400
          134178 133968 133768 133578 133393 133109 143838 143417 143002 142600 142214 141847
          141499 141168 140855 140556 140270 139996 139730 139472 139220 138973 138731 138492
          138256 138023 137792 137562 137335 137109 136885 136663 136442 136223 136006 135791
          135579 135370 135164 135072 134888 134696 134495 134283 134061 133833 133601 133369
          133142 132925 132720 132526 132341 132159 131882 142152 141782 141416 141059 140714
          140384 140069 139767 139480 139204 138937 138679 138428 138182 137940 137702 137467
          137234 137002 136773 136544 136317 136092 135867 135644 135421 135200 134981 134763
          134547 134334 134123 133916 133827 133642 133448 133242 133026 132801 132569 132335
          132105 131882 131671 131472 131284 131103 130925 130656 140466 140141 139819 139505
          139200 138906 138624 138353 138093 137841 137596 137356 137121 136888 136657 136428
          136200 135973 135747 135521 135296 135071 134847 134624 134401 134178 133957 133737
          133517 133300 133085 132873 132664 132578 132391 132194 131984 131763 131533 131299
          131064 130836 130619 130414 130223 130041 129864 129686 129430 138780 138496 138216
          137941 137674 137416 137168 136929 136697 136471 136249 136030 135811 135592 135373
          135153 134933 134712 134491 134269 134047 133825 133602 133380 133157 132935 132713
          132491 132270 132051 131834 131619 131408 131324 131136 130934 130719 130492 130258
          130021 129788 129564 129353 129157 128973 128796 128624 128444 128204 137094 136849
          136606 136368 136138 135916 135703 135496 135296 135098 134901 134702 134501 134296
          134089 133879 133666 133452 133235 133017 132798 132578 132357 132136 131913 131691
          131468 131245 131022 130800 130579 130361 130147 130066 129873 129666 129444 129211
          128973 128735 128505 128288 128086 127899 127722 127551 127379 127198 126978 135408
          135198 134991 134789 134594 134407 134230 134059 133892 133724 133554 133377 133194
          133004 132808 132607 132402 132193 131981 131767 131550 131332 131113 130892 130670
          130447 130223 129998 129773 129548 129323 129100 128881 128800 128602 128388 128158
          127919 127678 127442 127217 127010 126819 126641 126470 126303 126128 125952 125751
          133722 133545 133371 133202 133041 132890 132749 132617 132488 132355 132213 132059
          131893 131717 131532 131339 131141 130937 130729 130518 130304 130088 129870 129650
          129428 129204 128979 128753 128524 128295 128064 127834 127608 127526 127320 127095
          126857 126614 126372 126141 125926 125730 125551 125381 125217 125048 124875 124706
          124525 132036 131889 131745 131607 131478 131361 131259 131171 131088 130996 130884
          130753 130603 130439 130263 130078 129885 129685 129481 129272 129061 128846 128628
          128409 128187 127963 127737 127509 127277 127043 126805 126565 126327 126240 126020
          125784 125538 125292 125055 124834 124633 124451 124282 124120 123958 123788 123622
          123461 123299 130350 130230 130114 130004 129903 129817 129752 129718 129700 129658
          129577 129465 129328 129173 129004 128824 128635 128439 128237 128030 127820 127606
          127389 127170 126949 126724 126497 126267 126033 125795 125550 125297 125036 124933
          124691 124444 124196 123955 123729 123523 123339 123171 123012 122857 122692 122528
          122371 122220 122072 128664 128569 128476 128390 128314 128252 128214 128225 128359
          128360 128300 128200 128071 127922 127756 127579 127392 127197 126997 126791 126582
          126369 126153 125934 125713 125488 125261 125030 124794 124552 124302 124037 123758
          123563 123307 123066 122830 122605 122397 122212 122046 121891 121742 121584 121424
          121270 121122 120981 120846 126978 126904 126833 126768 126711 126667 126640 126627
          126774 126825 126780 126689 126569 126428 126272 126103 125925 125739 125547 125350
          125149 124943 124735 124522 124307 124087 123863 123634 123397 123149 122883 122584
          122182 122008 121857 121656 121449 121248 121067 120905 120755 120612 120464 120309
          120159 120015 119878 119747 119620 125291 125237 125185 125137 125095 125063 125043
          125037 125057 125065 125018 124934 124823 124694 124551 124397 124234 124064 123888
          123706 123520 123330 123135 122936 122732 122523 122307 122083 121846 121591 121309
          120978 120567 120502 120395 120238 120065 119896 119743 119602 119467 119330 119182
          119036 118897 118764 118637 118515 118394 123605 123568 123532 123499 123470 123448
          123433 123427 123407 123360 123293 123203 123095 122973 122840 122699 122550 122394
          122233 122067 121896 121720 121539 121354 121163 120965 120760 120543 120312 120059
          119777 119453 119074 119045 118962 118838 118696 118557 118428 118304 118180 118042
          117903 117768 117640 117517 117400 117284 117168 121919 121898 121876 121857 121839
          121825 121815 121809 121766 121682 121591 121490 121380 121263 121139 121008 120872
          120730 120584 120432 120276 120115 119949 119778 119600 119416 119223 119018 118797
          118557 118288 117985 117641 117638 117568 117465 117349 117235 117124 117013 116890
          116758 116629 116506 116388 116275 116164 116053 115941 120233 120226 120220 120212
          120205 120198 120191 120187 120127 120011 119898 119786 119674 119560 119443 119323
          119200 119072 118940 118803 118661 118515 118364 118207 118045 117875 117697 117507
          117303 117081 116834 116559 116276 116273 116210 116122 116024 115928 115830 115724
          115602 115480 115362 115249 115140 115035 114929 114822 114715 118547 118556 118563
          118568 118570 118569 118566 118562 118484 118339 118205 118082 117968 117859 117751
          117642 117532 117418 117300 117178 117051 116919 116783 116642 116496 116343 116182
          116011 115828 115629 115410 115167 114946 114942 114884 114805 114720 114634 114545
          114436 114321 114208 114100 113997 113897 113796 113694 113592 113489 116861 116886
          116909 116927 116939 116944 116942 116936 116835 116653 116499 116371 116259 116156
          116059 115964 115867 115768 115665 115558 115446 115330 115210 115085 114956 114821
          114681 114533 114375 114206 114022 113820 113709 113641 113583 113510 113433 113353
          113263 113154 113047 112944 112845 112750 112655 112559 112461 112362 112262 115175
          115219 115260 115293 115315 115325 115322 115310 115166 114933 114768 114643 114540
          114460 114404 114346 114288 114222 114150 114072 113990 113904 113814 113720 113622
          113520 113414 113305 113192 113073 112950 112822 112869 112364 112306 112233 112159
          112082 111983 111879 111781 111687 111597 111507 111416 111322 111228 111132 111036
          113489 113556 113619 113670 113705 113720 113710 113691 113400 113144 113000 112895
          112907 113082 113118 113098 113089 113053 113004 112947 112883 112815 112742 112666
          112584 112500 112413 112325 112236 112145 112052 111955 112019 111118 111050 110972
          110897 110812 110709 110612 110523 110437 110353 110266 110178 110087 109996 109903
          109810 111803 111899 111988 112063 112116 112140 112124 112026 111747 111593 111481
          111393 111365 111329 111317 111308 111299 111263 111214 111156 111093 111025 110952