<?xml version="1.0"?>
<VTKFile type="UnstructuredGrid" version="0.1" byte_order="LittleEndian">
  <UnstructuredGrid>
    <Piece NumberOfCells="1536" NumberOfPoints="1617">
      <PointData Scalars="Sn">
        <DataArray type="Float32" Name="Sn" NumberOfComponents="1" format="ascii">
          0 0 0 0 0 0 0 0 0 0 0 0
          0 0 0 0 0 0 0 0 0 0 0 0
          0 0 0 0 0 0 0 0 0 0 0 0
          0 0 0 0 0 0 0 0 0 0 0 0
          0 0 0 0 0 0 0 0 0 0 0 0
          0 0 0 0 0 0 0 -8.01595e-38 3.97326e-37 4.47795e-32 -1.40085e-34 -1.05278e-29
          -2.20641e-35 -1.78703e-30 0 -3.78821e-35 0 0 0 0 0 0 0 0
          0 0 0 0 0 0 0 0 0 0 0 0
          0 0 0 0 0 0 0 0 0 0 0 0
          0 0 0 0 0 0 0 0 0 0 0 0
          0 0 0 0 0 0 0 0 0 0 0 -1.31994e-32
          1.01427e-26 -1.26584e-24 -2.55972e-25 -7.68807e-30 1.05492e-35 0 0 0 0 0 0 0
          0 0 0 0 0 0 0 0 0 0 0 0
          0 0 0 0 0 0 0 0 0 0 0 0
          0 0 0 0 0 0 0 0 0 0 0 0
          -1.9432e-27 2.30907e-21 -4.84524e-20 -2.64053e-20 -1.6067e-24 5.01314e-30 4.95922e-35 0 0 0 0 0
          0 0 0 0 0 0 0 0 0 0 0 0
          0 0 0 0 0 0 0 0 0 0 0 0
          0 0 0 0 0 0 0 0 0 0 0 0
          0 -2.15791e-22 5.28939e-16 4.1618e-14 8.53586e-16 -3.13592e-20 1.67671e-24 9.26813e-30 3.44309e-35 0 0 0
          0 0 0 0 0 0 0 0 0 0 0 0
          0 0 0 0 0 0 0 0 0 0 0 0
          0 0 0 0 0 0 0 0 0 0 0 0
          0 0 7.16712e-20 1.24588e-10 1.1784e-08 1.53619e-09 6.2488e-14 3.85812e-19 1.48772e-24 4.52238e-30 1.18477e-35 0
          0 0 0 0 0 0 0 0 0 0 0 0
          0 0 0 0 0 0 0 0 0 0 0 0
          0 0 0 0 0 0 0 0 0 0 0 0
          0 0 0 1.11384e-11 7.85039e-07 8.52341e-06 2.92966e-06 1.45891e-08 6.64567e-14 2.00491e-19 5.08186e-25 1.14203e-30
          2.35819e-36 0 0 0 0 0 0 0 0 0 0 0
          0 0 0 0 0 0 0 0 0 0 0 0
          0 0 0 0 0 0 0 0 0 0 0 0
          0 0 0 0 2.22087e-07 7.71559e-05 0.000268924 0.000153677 9.37136e-06 9.92253e-09 2.29951e-14 4.66508e-20
          8.80612e-26 1.56674e-31 2.66554e-37 0 0 0 0 0 0 0 0 0
          0 0 0 0 0 0 0 0 0 0 0 0
          0 0 0 0 0 0 0 0 0 0 0 0
          0 0 0 0 0 3.9902e-05 0.000853296 0.00165261 0.00121477 0.000265684 5.4403e-06 1.86813e-09
          2.92557e-15 4.5244e-21 6.84853e-27 1.01486e-32 1.47745e-38 0 0 0 0 0 0 0
          0 0 0 0 0 0 0 0 0 0 0 0
          0 0 0 0 0 0 0 0 0 0 0 0
          0 0 0 0 0 0 0.000604893 0.00312992 0.00459555 0.00370595 0.00145594 0.000140049
          9.19786e-07 5.50971e-11 7.61085e-17 1.05436e-22 1.43756e-28 1.93402e-34 0 0 0 0 0 0
          0 0 0 0 0 0 0 0 0 0 0 0
          0 0 0 0 0 0 0 0 0 0 0 0
          0 0 0 0 0 0 0 0.0025871 0.00698209 0.00898921 0.00737067 0.00360107
          0.000744915 2.32624e-05 2.57148e-08 3.61008e-14 4.70379e-20 6.2518e-26 8.20495e-32 1.06571e-37 0 0 0 0
          0 0 0 0 0 0 0 0 0 0 0 0
          0 0 0 0 0 0 0 0 0 0 0 0
          0 0 0 0 0 0 0 0 0.00618867 0.012482 0.0147164 0.0119305
          0.00620063 0.00179339 0.00012929 6.68301e-07 2.45231e-11 3.06306e-17 3.8602e-23 4.80365e-29 5.91675e-35 0 0 0
          0 0 0 0 0 0 0 0 0 0 0 0
          0 0 0 0 0 0 0 0 0 0 0 0
          0 0 0 0 0 0 0 0 0 0.0115177 0.0195033 0.0212923
          0.0167794 0.0088185 0.00288127 0.000317854 3.66253e-06 6.86471e-10 6.29126e-16 4.83542e-22 2.27804e-28 -1.71462e-34 0 0
          0 0 0 0 0 0 0 0 0 0 0 0
          0 0 0 0 0 0 0 0 0 0 0 0
          0 0 0 0 0 0 0 0 0 0 0.0185803 0.0279015
          0.0284929 0.0214155 0.0110165 0.00365568 0.000479416 7.80555e-06 2.78713e-09 3.32749e-15 3.96767e-21 4.71088e-27 5.55386e-33 0
          0 0 0 0 0 0 0 0 0 0 0 0
          0 0 0 0 0 0 0 0 0 0 0 0
          0 0 0 0 0 0 0 0 0 0 0 0.0275329
          0.0376773 0.0359128 0.0252606 0.0122453 0.00389372 0.000509045 8.32328e-06 2.99469e-09 3.41509e-15 3.90069e-21 4.45025e-27 5.05222e-33
          0 0 0 0 0 0 0 0 0 0 0 0
          0 0 0 0 0 0 0 0 0 0 0 0
          0 0 0 0 0 0 0 0 0 0 0 0
          0.0401497 0.0493299 0.0427665 0.0275044 0.0121395 0.00353889 0.000395146 4.75817e-06 9.71655e-10 1.04517e-15 1.14e-21 1.24229e-27
          1.35057e-33 0 0 0 0 0 0 0 0 0 0 0
          0 0 0 0 0 0 0 0 0 0 0 0
          0 0 0 0 0 0 0 0 0 0 0 0
          1.07579e-35 0.0680198 0.0626553 0.047454 0.0273401 0.0106986 0.00273328 0.000219733 1.41188e-06 8.96559e-11 8.81133e-19 -9.50989e-23
          -2.00309e-28 -3.15706e-34 0 0 0 0 0 0 0 0 0 0
          0 0 0 0 0 0 0 0 0 0 0 0
          0 0 0 0 0 0 0 0 0 0 0 0
          0 6.71787e-31 0.0826327 0.0696029 0.0480265 0.024883 0.00855417 0.00181244 8.80015e-05 2.22866e-07 2.47131e-12 2.16016e-18
          1.93112e-24 1.71479e-30 1.50503e-36 0 0 0 0 0 0 0 0 0
          0 0 0 0 0 0 0 0 0 0 0 0
          0 0 0 0 0 0 0 0 0 0 0 0
          0 0 5.978e-18 0.0930101 0.0733222 0.0466394 0.0217636 0.00665474 0.00110704 2.94292e-05 2.50937e-08 3.57026e-14
          1.16495e-20 -8.34749e-27 -2.61404e-32 -4.25609e-38 0 0 0 0 0 0 0 0
          0 0 0 0 0 0 0 0 0 0 -4.33946e-38 -8.47244e-37
          -9.89554e-37 -5.99178e-36 -5.47667e-36 -2.77693e-35 -6.03358e-35 -9.72383e-35 -1.59611e-34 -3.3302e-36 2.42218e-35 4.09742e-35 1.69907e-35 6.26014e-35
          6.78366e-35 -3.90328e-34 -7.23091e-34 4.39413e-09 0.101307 0.0752516 0.04444 0.0188014 0.00519776 0.000654318 9.26929e-06 2.54163e-09
          2.10316e-15 1.81496e-21 9.1714e-32 -1.45008e-33 0 0 0 0 0 0 0 0
          0 0 0 0 0 0 0 0 0 0 2.07868e-33 -1.06549e-29
          -2.65295e-28 -7.68153e-28 -1.51154e-27 -2.51816e-27 -7.12523e-27 -1.039e-26 -1.53678e-26 -2.30567e-26 -1.67499e-26 -2.151e-26 -2.90697e-27 -5.4834e-27
          -1.85697e-27 -7.29735e-26 -2.51895e-26 -1.50434e-26 7.87583e-05 0.10815 0.0759266 0.0417637 0.0161523 0.00407937 0.00037986 2.87487e-06
          2.5225e-10 4.83763e-18 -1.60156e-22 -2.76036e-28 -7.6021e-38 0 0 0 0 0 0 0
          0 0 0 0 0 0 0 0 0 0 -2.71501e-30 2.02077e-24
          3.45946e-21 1.18438e-20 1.4534e-20 4.67356e-20 1.1375e-19 2.85733e-19 5.25424e-19 9.1642e-19 1.35454e-18 1.93683e-18 2.45458e-18 3.23739e-18
          4.30811e-18 5.63343e-18 8.08833e-18 1.18757e-17 2.07372e-17 0.000158126 0.114726 0.0754523 0.0385946 0.0137303 0.00317314 0.000213538
          8.59622e-07 2.3601e-11 1.61141e-17 1.16938e-23 8.69097e-30 0 0 0 0 0 0 0
          0 0 0 0 0 0 0 0 0 0 0 1.33582e-26
          1.84985e-15 8.83091e-12 1.28569e-10 3.36837e-10 5.63642e-10 8.30404e-10 1.13971e-09 1.50727e-09 1.93811e-09 2.40588e-09 2.78823e-09 3.0553e-09
          3.40629e-09 3.80985e-09 4.16028e-09 4.61542e-09 5.43838e-09 6.31837e-09 0.000231695 0.121102 0.0735762 0.034779 0.0114136 0.00238934
          0.000111761 2.30357e-07 1.81434e-12 1.08771e-18 6.82007e-25 4.24903e-31 2.54865e-37 0 0 0 0 0
          0 0 0 0 0 0 0 0 0 0 0 0
          1.79656e-12 1.32537e-07 6.83364e-06 2.00574e-05 2.83893e-05 3.43471e-05 3.95803e-05 4.44118e-05 4.91382e-05 5.37802e-05 5.80551e-05 6.10517e-05
          6.2817e-05 6.49283e-05 6.71249e-05 6.88217e-05 7.1248e-05 7.53357e-05 7.95832e-05 0.000313718 0.127346 0.0697885 0.0300973 0.00911028
          0.00167169 5.03838e-05 4.77013e-08 8.64701e-14 3.39881e-20 7.80735e-27 -6.74421e-33 -1.48721e-38 0 0 0 0
          0 0 0 0 0 0 0 0 0 0 0 0
          0 3.80948e-06 0.000517688 0.00189982 0.00220673 0.00231995 0.00244426 0.00255082 0.00264885 0.00274147 0.0028293 0.00291103
          0.00298506 0.00305225 0.00311565 0.00317887 0.00324482 0.00334333 0.00344652 0.00356036 0.00503121 0.12145 0.0631405 0.0242147
          0.00674988 0.000986309 1.61978e-05 5.31438e-09 3.24145e-15 3.46542e-24 -1.41176e-27 -2.05371e-33 0 0 0 0
          0 0 0 0 0 0 0 0 0 0 0 0
          0 0 0.00118332 0.0132936 0.0356068 0.116613 0.191327 0.251991 0.303456 0.347531 0.38502 0.416226
          0.44106 0.458975 0.4692 0.471175 0.465322 0.452956 0.444505 0.430871 0.408855 0.268257 0.151335 0.0539848
          0.0164682 0.00395196 0.000334592 1.79533e-06 7.9261e-11 4.71978e-17 1.52137e-23 1.34169e-31 -7.20168e-36 0 0 0
          0 0 0 0 0 0 0 0 0 0 0 0
          0 0 0 0 0.000323494 0.00566285 0.0334101 0.0509 0.060355 0.0655687 0.0686675 0.0707433
          0.0721958 0.072278 0.0662871 0.0522696 0.0349541 0.0190944 0.00779886 0.00180923 7.0252e-05 9.7058e-08 3.51584e-13 1.38264e-23
          3.09097e-31 -2.71734e-35 -2.17326e-38 0 0 0 0 0 0 0 0 0
          0 0 0 0 0 0 0 0 0 0 0 0
          0 0 0 0 0 0.000470351 0.00572603 0.0329606 0.0491426 0.0562598 0.0591885 0.0603146
          0.0607271 0.0607961 0.0598135 0.0526256 0.0382872 0.0232512 0.011384 0.00419043 0.000586726 6.97809e-06 1.11148e-09 5.03778e-16
          1.93726e-22 5.23964e-29 -1.95176e-36 0 0 0 0 0 0 0 0 0
          0 0 0 0 0 0 0 0 0 0 0 0
          0 0 0 0 0 0 0.000646615 0.00599563 0.0343847 0.0509068 0.0572151 0.0594759
          0.0602231 0.0604493 0.0604397 0.0594206 0.0510383 0.0349353 0.0197766 0.00911132 0.00311581 0.000314364 1.92342e-06 9.3304e-11
          4.43669e-17 2.02893e-23 8.4373e-30 2.9803e-36 0 0 0 0 0 0 0 0
          0 0 0 0 0 0 0 0 0 0 0 0
          0 0 0 0 0 0 0 0.00082356 0.00619773 0.0358835 0.0528572 0.0582488
          0.0598956 0.0603647 0.0604881 0.0604604 0.059485 0.0496358 0.0313477 0.0162611 0.00708131 0.00212425 0.000137319 3.72852e-07
          4.0357e-12 1.85953e-18 8.19481e-25 3.20516e-31 9.52103e-38 0 0 0 0 0 0 0
          0 0 0 0 0 0 0 0 0 0 0 0
          0 0 0 0 0 0 0 0 0.000921172 0.00630445 0.0373993 0.0548905
          0.0591557 0.0602102 0.0604605 0.0605166 0.0604883 0.0596316 0.047976 0.0269649 0.0124901 0.00510101 0.00120511 4.02165e-05
          3.43436e-08 4.30207e-14 1.62157e-20 4.54121e-27 -3.11713e-34 0 0 0 0 0 0 0
          0 0 0 0 0 0 0 0 0 0 0 0
          0 0 0 0 0 0 0 0 0 0.00083137 0.00607721 0.0389962
          0.0570206 0.0598913 0.0604145 0.0605123 0.0605304 0.0605116 0.0598773 0.0459758 0.0212562 0.00844583 0.00307308 0.000447254
          5.03972e-06 6.34718e-10 1.82361e-16 -1.63386e-23 -8.56388e-29 -9.61316e-35 0 0 0 0 0 0
          0 0 0 0 0 0 0 0 0 0 0 0
          0 0 0 0 0 0 0 0 0 0 0.000425775 0.00461925
          0.0408582 0.0592675 0.0604025 0.0605185 0.0605333 0.0605354 0.0605286 0.0602634 0.0435836 0.0125214 0.00366076 0.000833174
          3.05832e-05 2.61853e-08 2.91878e-14 4.6691e-21 -4.46591e-27 -6.59936e-33 0 0 0 0 0 0
          0 0 0 0 0 0 0 0 0
        </DataArray>
        <DataArray type="Float32" Name="Sw" NumberOfComponents="1" format="ascii">
          1 1 1 1 1 1 1 1 1 1 1 1
          1 1 1 1 1 1 1 1 1 1 1 1
          1 1 1 1 1 1 1 1 1 1 1 1
          1 1 1 1 1 1 1 1 1 1 1 1
          1 1 1 1 1 1 1 1 1 1 1 1
          1 1 1 1 1 1 1 1 1 1 1 1
          1 1 1 1 1 1 1 1 1 1 1 1
          1 1 1 1 1 1 1 1 1 1 1 1
          1 1 1 1 1 1 1 1 1 1 1 1
          1 1 1 1 1 1 1 1 1 1 1 1
          1 1 1 1 1 1 1 1 1 1 1 1
          1 1 1 1 1 1 1 1 1 1 1 1
          1 1 1 1 1 1 1 1 1 1 1 1
          1 1 1 1 1 1 1 1 1 1 1 1
          1 1 1 1 1 1 1 1 1 1 1 1
          1 1 1 1 1 1 1 1 1 1 1 1
          1 1 1 1 1 1 1 1 1 1 1 1
          1 1 1 1 1 1 1 1 1 1 1 1
          1 1 1 1 1 1 1 1 1 1 1 1
          1 1 1 1 1 1 1 1 1 1 1 1
          1 1 1 1 1 1 1 1 1 1 1 1
          1 1 1 1 1 1 1 1 1 1 1 1
          1 1 1 1 1 1 1 1 1 1 1 1
          1 1 1 1 1 1 1 1 1 1 1 1
          1 1 1 1 1 1 1 1 1 1 1 1
          1 1 1 1 1 1 1 1 1 1 1 1
          1 1 1 1 1 1 1 1 1 1 1 1
          1 1 1 1 0.999999 0.999991 0.999997 1 1 1 1 1
          1 1 1 1 1 1 1 1 1 1 1 1
          1 1 1 1 1 1 1 1 1 1 1 1
          1 1 1 1 1 1 1 1 1 1 1 1
          1 1 1 1 1 0.999923 0.999731 0.999846 0.999991 1 1 1
          1 1 1 1 1 1 1 1 1 1 1 1
          1 1 1 1 1 1 1 1 1 1 1 1
          1 1 1 1 1 1 1 1 1 1 1 1
          1 1 1 1 1 0.99996 0.999147 0.998347 0.998785 0.999734 0.999995 1
          1 1 1 1 1 1 1 1 1 1 1 1
          1 1 1 1 1 1 1 1 1 1 1 1
          1 1 1 1 1 1 1 1 1 1 1 1
          1 1 1 1 1 1 0.999395 0.99687 0.995404 0.996294 0.998544 0.99986
          0.999999 1 1 1 1 1 1 1 1 1 1 1
          1 1 1 1 1 1 1 1 1 1 1 1
          1 1 1 1 1 1 1 1 1 1 1 1
          1 1 1 1 1 1 1 0.997413 0.993018 0.991011 0.992629 0.996399
          0.999255 0.999977 1 1 1 1 1 1 1 1 1 1
          1 1 1 1 1 1 1 1 1 1 1 1
          1 1 1 1 1 1 1 1 1 1 1 1
          1 1 1 1 1 1 1 1 0.993811 0.987518 0.985284 0.988069
          0.993799 0.998207 0.999871 0.999999 1 1 1 1 1 1 1 1
          1 1 1 1 1 1 1 1 1 1 1 1
          1 1 1 1 1 1 1 1 1 1 1 1
          1 1 1 1 1 1 1 1 1 0.988482 0.980497 0.978708
          0.983221 0.991181 0.997119 0.999682 0.999996 1 1 1 1 1 1 1
          1 1 1 1 1 1 1 1 1 1 1 1
          1 1 1 1 1 1 1 1 1 1 1 1
          1 1 1 1 1 1 1 1 1 1 0.98142 0.972098
          0.971507 0.978584 0.988984 0.996344 0.999521 0.999992 1 1 1 1 1 1
          1 1 1 1 1 1 1 1 1 1 1 1
          1 1 1 1 1 1 1 1 1 1 1 1
          1 1 1 1 1 1 1 1 1 1 1 0.972467
          0.962323 0.964087 0.974739 0.987755 0.996106 0.999491 0.999992 1 1 1 1 1
          1 1 1 1 1 1 1 1 1 1 1 1
          1 1 1 1 1 1 1 1 1 1 1 1
          1 1 1 1 1 1 1 1 1 1 1 1
          0.95985 0.95067 0.957233 0.972496 0.987861 0.996461 0.999605 0.999995 1 1 1 1
          1 1 1 1 1 1 1 1 1 1 1 1
          1 1 1 1 1 1 1 1 1 1 1 1
          1 1 1 1 1 1 1 1 1 1 1 1
          1 0.93198 0.937345 0.952546 0.97266 0.989301 0.997267 0.99978 0.999999 1 1 1
          1 1 1 1 1 1 1 1 1 1 1 1
          1 1 1 1 1 1 1 1 1 1 1 1
          1 1 1 1 1 1 1 1 1 1 1 1
          1 1 0.917367 0.930397 0.951973 0.975117 0.991446 0.998188 0.999912 1 1 1
          1 1 1 1 1 1 1 1 1 1 1 1
          1 1 1 1 1 1 1 1 1 1 1 1
          1 1 1 1 1 1 1 1 1 1 1 1
          1 1 1 0.90699 0.926678 0.953361 0.978236 0.993345 0.998893 0.999971 1 1
          1 1 1 1 1 1 1 1 1 1 1 1
          1 1 1 1 1 1 1 1 1 1 1 1
          1 1 1 1 1 1 1 1 1 1 1 1
          1 1 1 1 0.898693 0.924748 0.95556 0.981199 0.994802 0.999346 0.999991 1
          1 1 1 1 1 1 1 1 1 1 1 1
          1 1 1 1 1 1 1 1 1 1 1 1
          1 1 1 1 1 1 1 1 1 1 1 1
          1 1 1 1 0.999921 0.89185 0.924073 0.958236 0.983848 0.995921 0.99962 0.999997
          1 1 1 1 1 1 1 1 1 1 1 1
          1 1 1 1 1 1 1 1 1 1 1 1
          1 1 1 1 1 1 1 1 1 1 1 1
          1 1 1 1 1 0.999842 0.885274 0.924548 0.961405 0.98627 0.996827 0.999786
          0.999999 1 1 1 1 1 1 1 1 1 1 1
          1 1 1 1 1 1 1 1 1 1 1 1
          1 1 1 1 1 1 1 1 1 1 1 1
          1 1 1 1 1 1 0.999768 0.878898 0.926424 0.965221 0.988586 0.997611
          0.999888 1 1 1 1 1 1 1 1 1 1 1
          1 1 1 1 1 1 1 1 1 1 1 1
          1 1 0.999993 0.99998 0.999972 0.999966 0.99996 0.999956 0.999951 0.999946 0.999942 0.999939
          0.999937 0.999935 0.999933 0.999931 0.999929 0.999925 0.99992 0.999686 0.872654 0.930211 0.969903 0.99089
          0.998328 0.99995 1 1 1 1 1 1 1 1 1 1
          1 1 1 1 1 1 1 1 1 1 1 1
          1 0.999996 0.999482 0.9981 0.997793 0.99768 0.997556 0.997449 0.997351 0.997259 0.997171 0.997089
          0.997015 0.996948 0.996884 0.996821 0.996755 0.996657 0.996553 0.99644 0.994969 0.87855 0.936859 0.975785
          0.99325 0.999014 0.999984 1 1 1 1 1 1 1 1 1
          1 1 1 1 1 1 1 1 1 1 1 1
          1 1 0.998817 0.986706 0.964393 0.883387 0.808673 0.748009 0.696544 0.652469 0.61498 0.583774
          0.55894 0.541025 0.5308 0.528825 0.534678 0.547044 0.555494 0.569129 0.591145 0.731743 0.848665 0.946015
          0.983532 0.996048 0.999665 0.999998 1 1 1 1 1 1 1 1
          1 1 1 1 1 1 1 1 1 1 1 1
          1 1 1 1 0.999677 0.994337 0.96659 0.9491 0.939645 0.934431 0.931333 0.929257
          0.927804 0.927722 0.933713 0.94773 0.965046 0.980906 0.992201 0.998191 0.99993 1 1 1
          1 1 1 1 1 1 1 1 1 1 1 1
          1 1 1 1 1 1 1 1 1 1 1 1
          1 1 1 1 1 0.99953 0.994274 0.967039 0.950857 0.94374 0.940811 0.939685
          0.939273 0.939204 0.940186 0.947374 0.961713 0.976749 0.988616 0.99581 0.999413 0.999993 1 1
          1 1 1 1 1 1 1 1 1 1 1 1
          1 1 1 1 1 1 1 1 1 1 1 1
          1 1 1 1 1 1 0.999353 0.994004 0.965615 0.949093 0.942785 0.940524
          0.939777 0.939551 0.93956 0.940579 0.948962 0.965065 0.980223 0.990889 0.996884 0.999686 0.999998 1
          1 1 1 1 1 1 1 1 1 1 1 1
          1 1 1 1 1 1 1 1 1 1 1 1
          1 1 1 1 1 1 1 0.999176 0.993802 0.964117 0.947143 0.941751
          0.940104 0.939635 0.939512 0.93954 0.940515 0.950364 0.968652 0.983739 0.992919 0.997876 0.999863 1
          1 1 1 1 1 1 1 1 1 1 1 1
          1 1 1 1 1 1 1 1 1 1 1 1
          1 1 1 1 1 1 1 1 0.999079 0.993696 0.962601 0.945109
          0.940844 0.93979 0.939539 0.939483 0.939512 0.940368 0.952024 0.973035 0.98751 0.994899 0.998795 0.99996
          1 1 1 1 1 1 1 1 1 1 1 1
          1 1 1 1 1 1 1 1 1 1 1 1
          1 1 1 1 1 1 1 1 1 0.999169 0.993923 0.961004
          0.942979 0.940109 0.939586 0.939488 0.93947 0.939488 0.940123 0.954024 0.978744 0.991554 0.996927 0.999553
          0.999995 1 1 1 1 1 1 1 1 1 1 1
          1 1 1 1 1 1 1 1 1 1 1 1
          1 1 1 1 1 1 1 1 1 1 0.999574 0.995381
          0.959142 0.940733 0.939597 0.939482 0.939467 0.939465 0.939471 0.939737 0.956416 0.987479 0.996339 0.999167
          0.999969 1 1 1 1 1 1 1 1 1 1 1
          1 1 1 1 1 1 1 1 1
        </DataArray>
        <DataArray type="Float32" Name="pn" NumberOfComponents="1" format="ascii">
          153955 152699 152269 151348 151833 150538 151121 149848 150506 149246 149962 148709
          149472 148225 149026 147782 148615 147374 148234 146995 147877 146640 147540 146305
          147221 145987 146916 145684 146623 145392 146341 145110 146067 144837 145801 144571
          145540 144312 145286 144057 145035 143807 144789 143561 144547 143319 144307 143080
          144071 142843 143837 142610 143607 142379 143378 142151 143153 141925 142930 141702
          142710 141482 142493 141265 142279 141051 142068 140840 141860 140632 141656 140428
          141455 140227 141257 140029 141062 139834 140870 139642 140681 139454 140495 139267
          140311 139084 140129 138902 139949 138722 139771 138544 139593 138366 139416 138190
          139240 138014 150583 149832 149128 148492 147921 147405 146936 146504 146105 145733
          145384 145054 144740 144439 144150 143871 143600 143336 143077 142824 142575 142330
          142088 141849 141613 141380 141149 140921 140695 140472 140252 140034 139820 139609
          139401 139197 138996 138798 138603 138412 138223 138038 137854 137673 137494 137316
          137139 136963 136788 148897 148258 147643 147070 146541 146056 145608 145194 144809
          144448 144108 143786 143479 143184 142899 142624 142356 142095 141838 141587 141339
          141095 140854 140616 140380 140147 139916 139688 139462 139239 139018 138801 138586
          138375 138167 137962 137761 137563 137369 137178 136990 136805 136623 136442 136264
          136087 135911 135736 135561 147211 146656 146115 145601 145118 144668 144248 143856
          143489 143143 142815 142504 142205 141918 141640 141369 141106 140848 140595 140345
          140100 139857 139617 139380 139144 138912 138681 138452 138226 138003 137782 137564
          137349 137137 136929 136724 136523 136326 136132 135942 135755 135570 135389 135210
          135032 134857 134682 134508 134335 145525 145037 144560 144100 143662 143249 142860
          142493 142147 141819 141507 141208 140920 140642 140372 140108 139850 139597 139347
          139101 138857 138616 138378 138141 137907 137674 137443 137215 136988 136764 136542
          136324 136108 135896 135687 135482 135281 135084 134891 134702 134516 134333 134153
          133975 133799 133625 133453 133280 133109 143838 143409 142986 142576 142181 141806
          141448 141110 140787 140480 140185 139901 139626 139359 139098 138842 138590 138341
          138096 137853 137612 137374 137136 136901 136667 136435 136204 135975 135748 135523
          135300 135081 134864 134651 134442 134237 134036 133839 133647 133458 133274 133093
          132914 132739 132565 132393 132222 132052 131882 142152 141773 141399 141034 140682
          140343 140019 139709 139413 139128 138852 138585 138325 138070 137819 137571 137326
          137083 136843 136603 136366 136129 135894 135659 135426 135194 134963 134733 134505
          134279 134055 133834 133617 133403 133194 132993 132789 132590 132398 132211 132029
          131849 131673 131500 131329 131159 130991 130823 130656 140466 140133 139803 139481
          139168 138866 138575 138296 138026 137766 137512 137263 137018 136776 136536 136298
          136060 135824 135588 135352 135118 134883 134650 134416 134184 133952 133720 133490
          133261 133033 132808 132585 132365 132151 131957 131766 131556 131341 131145 130960
          130780 130603 130430 130259 130091 129924 129759 129594 129430 138780 138489 138200
          137917 137642 137376 137120 136872 136632 136397 136166 135937 135709 135481 135252
          135023 134793 134563 134332 134101 133869 133637 133405 133173 132941 132709 132477
          132246 132015 131785 131558 131332 131110 130906 130737 130548 130336 130106 129890
          129704 129527 129353 129183 129016 128851 128688 128526 128365 128204 137094 136841
          136591 136346 136108 135878 135656 135441 135231 135025 134818 134610 134399 134185
          133969 133749 133527 133303 133077 132849 132621 132391 132161 131930 131698 131466
          131233 131000 130768 130536 130305 130076 129851 129679 129512 129312 129102 128873
          128639 128444 128270 128100 127934 127771 127610 127450 127292 127135 126978 135408
          135191 134977 134767 134565 134370 134184 134004 133828 133652 133472 133286 133093
          132893 132688 132478 132263 132045 131823 131599 131374 131146 130917 130687 130455
          130223 129989 129755 129520 129285 129050 128817 128587 128453 128258 128050 127841
          127626 127388 127181 127008 126844 126682 126523 126367 126212 126058 125904 125751
          133722 133538 133357 133181 133013 132854 132705 132564 132426 132284 132132 131969
          131793 131607 131413 131211 131002 130789 130572 130351 130128 129902 129674 129445
          129214 128981 128747 128511 128273 128034 127794 127554 127317 127198 126988 126775
          126564 126357 126128 125913 125743 125584 125428 125274 125122 124972 124822 124674
          124525 132036 131883 131732 131588 131452 131328 131218 131121 131028 130926 130805
          130663 130504 130330 130145 129950 129747 129538 129324 129106 128885 128660 128434
          128205 127974 127741 127505 127268 127027 126784 126538 126289 126040 125924 125704
          125484 125271 125070 124854 124639 124473 124321 124171 124023 123877 123731 123587
          123443 123299 130350 130224 130102 129986 129879 129786 129714 129671 129642 129590
          129498 129376 129229 129065 128886 128696 128497 128292 128080 127864 127644 127421
          127195 126967 126736 126503 126267 126028 125785 125538 125284 125025 124756 124630
          124393 124170 123962 123770 123566 123358 123200 123055 122912 122770 122630 122490
          122350 122211 122072 128664 128563 128466 128374 128293 128225 128180 128183 128303
          128293 128222 128112 127973 127813 127638 127451 127255 127051 126841 126626 126407
          126185 125959 125731 125501 125267 125031 124791 124547 124297 124038 123768 123484
          123279 123038 122829 122637 122459 122264 122070 121924 121787 121652 121517 121382
          121248 121114 120980 120846 126978 126899 126824 126754 126692 126643 126612 126596
          126730 126765 126708 126607 126478 126327 126161 125983 125796 125601 125400 125194
          124984 124770 124553 124332 124108 123881 123649 123412 123168 122915 122645 122345
          121947 121768 121638 121467 121300 121140 120954 120780 120647 120519 120391 120263
          120134 120006 119877 119749 119620 125291 125233 125177 125125 125080 125044 125021
          125012 125024 125017 124958 124864 124744 124606 124454 124292 124121 123943 123759
          123570 123376 123178 122976 122770 122560 122344 122123 121894 121654 121398 121117
          120793 120396 120327 120233 120101 119961 119820 119640 119490 119370 119251 119130
          119009 118887 118764 118641 118517 118394 123605 123565 123525 123489 123457 123432
          123415 123407 123380 123322 123243 123144 123027 122898 122757 122608 122452 122290
          122122 121949 121772 121590 121403 121212 121016 120814 120605 120386 120154 119904
          119628 119314 118954 118926 118853 118746 118629 118501 118331 118204 118095 117984
          117871 117756 117639 117522 117404 117286 117168 121919 121895 121871 121848 121828
          121812 121800 121793 121745 121650 121550 121441 121324 121200 121069 120932 120790
          120643 120491 120334 120172 120006 119835 119660 119478 119291 119096 118891 118672
          118435 118175 117885 117562 117562 117500 117410 117309 117187 117031 116923 116823
          116719 116613 116504 116393 116281 116168 116055 115941 120233 120224 120215 120205
          120196 120187 120180 120174 120110 119986 119866 119747 119628 119508 119387 119262
          119133 119001 118864 118723 118577 118427 118272 118112 117947 117776 117597 117408
          117207 116990 116753 116492 116227 116228 116172 116092 116002 115882 115742 115647
          115555 115458 115357 115254 115148 115041 114933 114824 114715 118547 118554 118559
          118563 118563 118561 118557 118552 118471 118320 118180 118052 117933 117819 117707
          117595 117480 117363 117242 117116 116986 116852 116713 116570 116422 116268 116107
          115938 115758 115565 115355 115125 114919 114919 114866 114792 114708 114587 114462
          114377 114291 114199 114104 114005 113905 113802 113698 113594 113489 116861 116885
          116906 116923 116933 116937 116934 116928 116825 116639 116481 116349 116234 116128
          116028 115930 115831 115729 115624 115514 115400 115281 115159 115033 114902 114766
          114625 114478 114323 114157 113978 113781 113632 113633 113578 113507 113427 113303
          113192 113114 113032 112945 112854 112760 112663 112564 112464 112364 112262 115175
          115218 115258 115290 115311 115320 115316 115304 115158 114924 114757 114630 114525
          114433 114347 114268 114190 114108 114020 113928 113831 113730 113625 113517 113404
          113288 113169 113046 112918 112783 112639 112481 112370 112368 112309 112237 112158
          112029 111931 111857 111778 111695 111607 111516 111423 111328 111231 111134 111036
          113489 113555 113617 113667 113702 113716 113705 113687 113396 113140 112996 112890
          112804 112731 112810 113090 113095 113052 113004 112946 112882 112813 112740 112662
          112580 112495 112407 112319 112231 112145 112056 111959 112023 111121 111057 110980
          110894 110763 110678 110606 110529 110448 110363 110275 110185 110093 109999 109905
          109810 111803 111898 111987 112061 112113 112137 112121 112023 111745 111592 111480
          111393 111320 111282 111316 111293 111295 111262 111213 111156 111092 111023 110950
          110872 110790 110704 110617 110529 110440 110355 110265 110169 110038 109925 109818
          109731 109626 109505 109432 109361 109285 109205 109122 109036 108948 108859 108768
          108676 108584 110117 110249 110371 110475 110553 110596 110594 110530 110420 110309
          110218 110142 110075 110015 109967 109991 109989 109940 109874 109798 109717 109633
          109546 109457 109364 109267 109173 109080 108984 108847 108739 108662 108586 108512
          108445 108384 108323 108259 108191 108119 108044 107965 107884 107800 107714 107626
          107537 107448 107358 108430 108609 108774 108917 109027 109099 109128 109114 109067
          109005 108942 108882 108824 108770 108726 108749 108746 108697 108629 108553 108473
          108389 108302 108214 108121 108024 107931 107838 107726 107595 107510 107437 107363
          107292 107223 107157 107091 107024 106955 106882 106807 106729 106648 106565 106481
          106395 106307 106220 106131 106744 106982 107201 107390 107539 107646 107710 107734
          107728 107700 107662 107618 107571 107523 107487 107510 107508 107458 107391 107316
          107236 107153 107067 106980 106887 106790 106697 106604 106484 106362 106283 106211
          106139 106068 105999 105930 105861 105792 105721 105648 105572 105494 105414 105333
          105249 105164 105078 104992 104905 105058 105373 105661 105904 106096 106237 106331
          106386 106408 106406 106387 106357 106320 106277 106249 106272 106272 106223 106156
          106080 106001 105919 105834 105748 105654 105556 105463 105367 105241 105131 105057
          104985 104914 104843 104773 104703 104633 104562 104490 104416 104340 104262 104183
          104102 104019 103935 103850 103765 103679 103372 103795 104168 104471 104703 104874
          104994 105070 105112 105127 105122 105103 105073 105036 105012 105037 105038 104990
          104922 104847 104768 104687 104603 104517 104422 104323 104228 104125 103998 103903
          103830 103759 103688 103617 103546 103476 103405 103333 103260 103186 103110 103032
          102953 102872 102790 102706 102622 102538 102452 101686 102276 102754 103108 103371
          103563 103699 103790 103843 103868 103872 103859 103833 103799 103776 103802 103808
          103761 103692 103617 103538 103457 103374 103288 103192 103087 102991 102873 102756
          102675 102604 102533 102462 102391 102320 102249 102177 102105 102032 101957 101881
          101803 101724 101644 101562 101479 101395 101311 101226 100000 100924 101457 101833
          102108 102308 102450 102545 102603 102631 102637 102626 102603 102570 102539 102560
          102582 102535 102464 102389 102311 102230 102147 102061 101962 101847 101726 101608
          101520 101449 101378 101307 101236 101165 101093 101022 100951 100878 100805 100730
          100654 100576 100497 100417 100335 100252 100169 100084 100000
        </DataArray>
        <DataArray type="Float32" Name="pw" NumberOfComponents="1" format="ascii">
          153955 152699 152269 151348 151833 150538 151121 149848 150506 149246 149962 148709