<?xml version="1.0"?>
<VTKFile type="UnstructuredGrid" version="0.1" byte_order="LittleEndian">
  <UnstructuredGrid>
    <Piece NumberOfCells="1536" NumberOfPoints="1617">
      <PointData Scalars="Sn">
        <DataArray type="Float32" Name="Sn" NumberOfComponents="1" format="ascii">
          0 0 0 0 0 0 0 0 0 0 0 0
          0 0 0 0 0 0 0 0 0 0 0 0
          0 0 0 0 0 0 0 0 0 0 0 0
          0 0 0 0 0 0 0 0 0 0 0 0
          0 0 0 0 0 0 0 0 0 0 0 0
          0 0 0 0 0 0 0 0 0 0 0 1.47044e-38
          0 0 0 0 0 0 0 0 0 0 0 0
          0 0 0 0 0 0 0 0 0 0 0 0
          0 0 0 0 0 0 0 0 0 0 0 0
          0 0 0 0 0 0 0 0 0 0 0 0
          0 0 0 0 0 0 0 0 0 0 0 0
          -2.14889e-34 3.7355e-31 2.26973e-33 0 0 0 0 0 0 0 0 0
          0 0 0 0 0 0 0 0 0 0 0 0
          0 0 0 0 0 0 0 0 0 0 0 0
          0 0 0 0 0 0 0 0 0 0 0 0
          9.7628e-35 -8.86131e-27 8.79892e-24 4.17794e-26 1.98382e-32 0 0 0 0 0 0 0
          0 0 0 0 0 0 0 0 0 0 0 0
          0 0 0 0 0 0 0 0 0 0 0 0
          0 0 0 0 0 0 0 0 0 0 0 0
          0 -8.69001e-33 9.18373e-20 3.31765e-16 8.64853e-19 3.52213e-25 2.89656e-32 0 0 0 0 0
          0 0 0 0 0 0 0 0 0 0 0 0
          0 0 0 0 0 0 0 0 0 0 0 0
          0 0 0 0 0 0 0 0 0 0 0 0
          0 0 2.15942e-21 1.5008e-11 1.10088e-09 2.40943e-11 1.08762e-17 4.15094e-25 1.79664e-32 0 0 0
          0 0 0 0 0 0 0 0 0 0 0 0
          0 0 0 0 0 0 0 0 0 0 0 0
          0 0 0 0 0 0 0 0 0 0 0 0
          0 0 0 2.10209e-12 3.02207e-07 2.87632e-06 3.89978e-07 1.88361e-10 8.76926e-18 1.92554e-25 5.59717e-33 0
          0 0 0 0 0 0 0 0 0 0 0 0
          0 0 0 0 0 0 0 0 0 0 0 0
          0 0 0 0 0 0 0 0 0 0 0 0
          0 0 0 0 1.0773e-07 5.41693e-05 0.000176643 6.24654e-05 1.12408e-06 1.09119e-10 2.30022e-18 4.00303e-26
          8.74827e-34 0 0 0 0 0 0 0 0 0 0 0
          0 0 0 0 0 0 0 0 0 0 0 0
          0 0 0 0 0 0 0 0 0 0 0 0
          0 0 0 0 0 3.14238e-05 0.000807959 0.00150485 0.000873961 0.00010186 5.51536e-07 1.66125e-11
          1.9777e-19 3.31116e-27 5.86118e-35 0 0 0 0 0 0 0 0 0
          0 0 0 0 0 0 0 0 0 0 0 0
          0 0 0 0 0 0 0 0 0 0 0 0
          0 0 0 0 0 0 0.000603354 0.00334495 0.00476167 0.00342569 0.00100069 4.47198e-05
          7.24717e-08 3.11737e-13 3.11607e-21 5.13373e-29 8.33995e-37 0 0 0 0 0 0 0
          0 0 0 0 0 0 0 0 0 0 0 0
          0 0 0 0 0 0 0 0 0 0 0 0
          0 0 0 0 0 0 0 0.00282292 0.00771136 0.00973728 0.00747461 0.00317402
          0.000427849 5.57602e-06 1.21791e-09 1.21941e-16 9.72413e-25 1.23882e-32 0 0 0 0 0 0
          0 0 0 0 0 0 0 0 0 0 0 0
          0 0 0 0 0 0 0 0 0 0 0 0
          0 0 0 0 0 0 0 0 0.00683319 0.0137761 0.0160993 0.0125535
          0.00600924 0.00137172 5.49409e-05 9.44293e-08 4.7968e-13 6.48873e-23 -6.79905e-29 -2.08845e-36 0 0 0 0
          0 0 0 0 0 0 0 0 0 0 0 0
          0 0 0 0 0 0 0 0 0 0 0 0
          0 0 0 0 0 0 0 0 0 0.0124913 0.021178 0.023147
          0.0178921 0.00887678 0.00251185 0.000182063 9.18178e-07 3.57691e-11 1.34639e-19 -1.11697e-27 -5.73138e-36 0 0 0
          0 0 0 0 0 0 0 0 0 0 0 0
          0 0 0 0 0 0 0 0 0 0 0 0
          0 0 0 0 0 0 0 0 0 0 0.0196595 0.0296516
          0.0305044 0.022782 0.0112386 0.00337674 0.000320167 2.64629e-06 2.60393e-10 5.74724e-18 -2.50917e-30 -1.4564e-34 0 0
          0 0 0 0 0 0 0 0 0 0 0 0
          0 0 0 0 0 0 0 0 0 0 0 0
          0 0 0 0 0 0 0 0 0 0 0 0.0285395
          0.0393059 0.0378231 0.0266121 0.0125274 0.00368874 0.000366068 3.28912e-06 3.77985e-10 1.12504e-17 -1.23502e-29 2.53522e-36 0
          0 0 0 0 0 0 0 0 0 0 0 0
          0 0 0 0 0 0 0 0 0 0 0 0
          0 0 0 0 0 0 0 0 0 0 0 0
          0.04099 0.0507409 0.0444327 0.0286259 0.0123833 0.0033749 0.000290108 1.98022e-06 1.36465e-10 1.53909e-18 -4.07727e-30 2.55696e-37
          0 0 0 0 0 0 0 0 0 0 0 0
          0 0 0 0 0 0 0 0 0 0 0 0
          0 0 0 0 0 0 0 0 0 0 0 0
          -1.76832e-35 0.0688677 0.0638335 0.0487819 0.0281265 0.0108723 0.00259609 0.000159456 5.81855e-07 1.2448e-11 1.51762e-20 -3.34917e-31
          2.86823e-38 0 0 0 0 0 0 0 0 0 0 0
          0 0 0 0 0 0 0 0 0 0 0 0
          0 0 0 0 0 0 0 0 0 0 0 0
          0 9.32635e-30 0.0831149 0.0703766 0.0489472 0.0253522 0.00868719 0.00170917 6.27196e-05 8.98357e-08 3.31155e-13 1.42086e-23
          -6.84914e-33 0 0 0 0 0 0 0 0 0 0 0
          0 0 0 0 0 0 0 0 0 0 0 0
          0 0 0 0 0 0 0 0 0 0 0 0
          0 0 4.59623e-18 0.0931147 0.0737216 0.0472178 0.022024 0.00676313 0.00103803 2.08281e-05 1.00953e-08 4.79986e-15
          4.15635e-27 -4.62621e-35 0 0 0 0 0 0 0 0 0 0
          0 0 0 0 0 0 0 0 0 0 0 0
          0 0 0 0 0 0 0 0 0 0 0 0
          0 0 0 4.06396e-09 0.101129 0.075362 0.0447589 0.0189375 0.00528476 0.000611093 6.57573e-06 1.03769e-09
          5.87713e-17 5.78017e-31 8.06964e-38 0 0 0 0 0 0 0 0 0
          0 0 0 0 0 0 0 0 0 0 0 0
          0 -1.37551e-38 0 -1.3977e-37 -1.34843e-37 -1.88549e-37 -1.11402e-36 1.81606e-37 -4.62515e-36 3.803e-37 -6.49724e-37 -3.53827e-35
          -6.47802e-37 1.20315e-37 -1.88637e-36 -1.17516e-36 7.69563e-05 0.107779 0.0758156 0.041891 0.0162136 0.00414555 0.000353848 2.05436e-06
          1.05393e-10 7.06103e-19 -7.33349e-33 0 0 0 0 0 0 0 0 0
          0 0 0 0 0 0 0 0 0 0 0 7.45937e-32
          5.19563e-24 1.75383e-21 1.55293e-20 5.07499e-20 1.23401e-19 2.56403e-19 4.90322e-19 8.81157e-19 1.46872e-18 2.13145e-18 2.6564e-18 3.32001e-18
          4.53259e-18 6.21039e-18 7.99669e-18 1.1645e-17 2.05981e-17 0.00015695 0.114178 0.0751801 0.0385908 0.0137516 0.00322233 0.000198968
          6.22484e-07 1.01999e-11 7.78648e-21 -5.48228e-34 0 0 0 0 0 0 0 0
          0 0 0 0 0 0 0 0 0 0 0 6.65109e-26
          1.49539e-15 8.9534e-12 1.31306e-10 3.46194e-10 5.83155e-10 8.58574e-10 1.17791e-09 1.55751e-09 2.00322e-09 2.49015e-09 2.90626e-09 3.16427e-09
          3.44674e-09 3.9049e-09 4.43153e-09 4.89979e-09 5.72245e-09 7.29537e-09 0.00023035 0.120424 0.0732053 0.0346953 0.0114267 0.00242736
          0.000104713 1.70733e-07 8.26256e-13 6.16574e-23 -2.23136e-35 0 0 0 0 0 0 0
          0 0 0 0 0 0 0 0 0 0 0 0
          1.35439e-12 1.2534e-07 6.85356e-06 2.00796e-05 2.84724e-05 3.4533e-05 3.97832e-05 4.46321e-05 4.93771e-05 5.40449e-05 5.83675e-05 6.15318e-05
          6.31725e-05 6.47666e-05 6.7271e-05 6.99387e-05 7.23668e-05 7.63177e-05 8.34887e-05 0.000312591 0.126568 0.0693742 0.0299756 0.00914616
          0.00170258 4.77604e-05 3.65782e-08 4.23229e-14 2.05271e-25 -9.02416e-37 0 0 0 0 0 0
          0 0 0 0 0 0 0 0 0 0 0 0
          0 3.52695e-06 0.000511327 0.00188951 0.00220624 0.00231898 0.00244319 0.00254955 0.00264732 0.00273965 0.00282718 0.00290857
          0.00298224 0.00304906 0.00311214 0.00317514 0.00324102 0.00333924 0.00344267 0.00355726 0.0050311 0.120676 0.0627362 0.0240924
          0.0067904 0.00100473 1.54786e-05 4.1821e-09 6.62462e-16 6.86972e-29 -7.60957e-37 0 0 0 0 0
          0 0 0 0 0 0 0 0 0 0 0 0
          0 0 0.00114679 0.0130597 0.0355583 0.116118 0.190795 0.251348 0.302671 0.346587 0.383914 0.414963
          0.439647 0.457407 0.467461 0.469252 0.463223 0.450678 0.442037 0.428423 0.406594 0.266515 0.150362 0.0536286
          0.0163768 0.00398102 0.000339398 1.71436e-06 6.27805e-11 2.17668e-19 -3.03784e-32 1.46736e-38 0 0 0 0
          0 0 0 0 0 0 0 0 0 0 0 0
          0 0 0 0 0.000318438 0.0056216 0.0333844 0.0508799 0.0603306 0.0655356 0.0686231 0.0706861
          0.0721247 0.0721927 0.0661881 0.0521537 0.0348108 0.0189458 0.00773221 0.0018123 6.98515e-05 8.9352e-08 2.58416e-13 6.24787e-24
          7.88017e-38 0 0 0 0 0 0 0 0 0 0 0
          0 0 0 0 0 0 0 0 0 0 0 0
          0 0 0 0 0 0.000468481 0.00570677 0.0329503 0.0491404 0.0562581 0.0591861 0.0603113
          0.0607231 0.0607915 0.0598083 0.0526182 0.0382707 0.0232089 0.0113253 0.00417378 0.000592126 7.05846e-06 1.06056e-09 4.87251e-17
          -5.32612e-32 6.87435e-38 0 0 0 0 0 0 0 0 0 0
          0 0 0 0 0 0 0 0 0 0 0 0
          0 0 0 0 0 0 0.000643101 0.00598706 0.0343803 0.0509071 0.0572153 0.0594755
          0.0602223 0.0604484 0.0604386 0.0594194 0.0510361 0.0349269 0.019747 0.00906874 0.00310498 0.000317461 1.95289e-06 8.98219e-11
          4.30654e-19 -5.69989e-33 0 0 0 0 0 0 0 0 0 0
          0 0 0 0 0 0 0 0 0 0 0 0
          0 0 0 0 0 0 0 0.000819559 0.00619366 0.0358822 0.0528581 0.0582493
          0.0598956 0.0603645 0.0604878 0.06046 0.0594846 0.0496351 0.0313433 0.0162402 0.00705188 0.00211818 0.000138901 3.80172e-07
          3.91502e-12 1.08268e-21 -2.79952e-34 0 0 0 0 0 0 0 0 0
          0 0 0 0 0 0 0 0 0 0 0 0
          0 0 0 0 0 0 0 0 0.000916558 0.00630482 0.0373992 0.0548914
          0.0591561 0.0602103 0.0604605 0.0605166 0.0604882 0.0596315 0.047976 0.0269631 0.0124769 0.00508076 0.00120297 4.08096e-05
          3.5222e-08 4.14736e-14 1.8497e-25 -2.03604e-36 0 0 0 0 0 0 0 0
          0 0 0 0 0 0 0 0 0 0 0 0
          0 0 0 0 0 0 0 0 0 0.000828005 0.00607819 0.0389966
          0.0570211 0.0598915 0.0604145 0.0605123 0.0605304 0.0605116 0.0598773 0.0459761 0.0212558 0.00843926 0.00306053 0.000447601
          5.14745e-06 6.57377e-10 2.06286e-17 -4.55803e-33 2.43242e-38 0 0 0 0 0 0 0
          0 0 0 0 0 0 0 0 0 0 0 0
          0 0 0 0 0 0 0 0 0 0 0.000424356 0.00462003
          0.0408584 0.0592676 0.0604026 0.0605185 0.0605333 0.0605354 0.0605286 0.0602634 0.0435838 0.0125218 0.00365905 0.000829847
          3.077e-05 2.70402e-08 2.86244e-14 9.78997e-26 6.8118e-38 0 0 0 0 0 0 0
          0 0 0 0 0 0 0 0 0
        </DataArray>
        <DataArray type="Float32" Name="Sw" NumberOfComponents="1" format="ascii">
          1 1 1 1 1 1 1 1 1 1 1 1
          1 1 1 1 1 1 1 1 1 1 1 1
          1 1 1 1 1 1 1 1 1 1 1 1
          1 1 1 1 1 1 1 1 1 1 1 1
          1 1 1 1 1 1 1 1 1 1 1 1
          1 1 1 1 1 1 1 1 1 1 1 1
          1 1 1 1 1 1 1 1 1 1 1 1
          1 1 1 1 1 1 1 1 1 1 1 1
          1 1 1 1 1 1 1 1 1 1 1 1
          1 1 1 1 1 1 1 1 1 1 1 1
          1 1 1 1 1 1 1 1 1 1 1 1
          1 1 1 1 1 1 1 1 1 1 1 1
          1 1 1 1 1 1 1 1 1 1 1 1
          1 1 1 1 1 1 1 1 1 1 1 1
          1 1 1 1 1 1 1 1 1 1 1 1
          1 1 1 1 1 1 1 1 1 1 1 1
          1 1 1 1 1 1 1 1 1 1 1 1
          1 1 1 1 1 1 1 1 1 1 1 1
          1 1 1 1 1 1 1 1 1 1 1 1
          1 1 1 1 1 1 1 1 1 1 1 1
          1 1 1 1 1 1 1 1 1 1 1 1
          1 1 1 1 1 1 1 1 1 1 1 1
          1 1 1 1 1 1 1 1 1 1 1 1
          1 1 1 1 1 1 1 1 1 1 1 1
          1 1 1 1 1 1 1 1 1 1 1 1
          1 1 1 1 1 1 1 1 1 1 1 1
          1 1 1 1 1 1 1 1 1 1 1 1
          1 1 1 1 1 0.999997 1 1 1 1 1 1
          1 1 1 1 1 1 1 1 1 1 1 1
          1 1 1 1 1 1 1 1 1 1 1 1
          1 1 1 1 1 1 1 1 1 1 1 1
          1 1 1 1 1 0.999946 0.999823 0.999938 0.999999 1 1 1
          1 1 1 1 1 1 1 1 1 1 1 1
          1 1 1 1 1 1 1 1 1 1 1 1
          1 1 1 1 1 1 1 1 1 1 1 1
          1 1 1 1 1 0.999969 0.999192 0.998495 0.999126 0.999898 0.999999 1
          1 1 1 1 1 1 1 1 1 1 1 1
          1 1 1 1 1 1 1 1 1 1 1 1
          1 1 1 1 1 1 1 1 1 1 1 1
          1 1 1 1 1 1 0.999397 0.996655 0.995238 0.996574 0.998999 0.999955
          1 1 1 1 1 1 1 1 1 1 1 1
          1 1 1 1 1 1 1 1 1 1 1 1
          1 1 1 1 1 1 1 1 1 1 1 1
          1 1 1 1 1 1 1 0.997177 0.992289 0.990263 0.992525 0.996826
          0.999572 0.999994 1 1 1 1 1 1 1 1 1 1
          1 1 1 1 1 1 1 1 1 1 1 1
          1 1 1 1 1 1 1 1 1 1 1 1
          1 1 1 1 1 1 1 1 0.993167 0.986224 0.983901 0.987447
          0.993991 0.998628 0.999945 1 1 1 1 1 1 1 1 1
          1 1 1 1 1 1 1 1 1 1 1 1
          1 1 1 1 1 1 1 1 1 1 1 1
          1 1 1 1 1 1 1 1 1 0.987509 0.978822 0.976853
          0.982108 0.991123 0.997488 0.999818 0.999999 1 1 1 1 1 1 1
          1 1 1 1 1 1 1 1 1 1 1 1
          1 1 1 1 1 1 1 1 1 1 1 1
          1 1 1 1 1 1 1 1 1 1 0.98034 0.970348
          0.969496 0.977218 0.988761 0.996623 0.99968 0.999997 1 1 1 1 1 1
          1 1 1 1 1 1 1 1 1 1 1 1
          1 1 1 1 1 1 1 1 1 1 1 1
          1 1 1 1 1 1 1 1 1 1 1 0.97146
          0.960694 0.962177 0.973388 0.987473 0.996311 0.999634 0.999997 1 1 1 1 1
          1 1 1 1 1 1 1 1 1 1 1 1
          1 1 1 1 1 1 1 1 1 1 1 1
          1 1 1 1 1 1 1 1 1 1 1 1
          0.95901 0.949259 0.955567 0.971374 0.987617 0.996625 0.99971 0.999998 1 1 1 1
          1 1 1 1 1 1 1 1 1 1 1 1
          1 1 1 1 1 1 1 1 1 1 1 1
          1 1 1 1 1 1 1 1 1 1 1 1
          1 0.931132 0.936166 0.951218 0.971874 0.989128 0.997404 0.999841 0.999999 1 1 1
          1 1 1 1 1 1 1 1 1 1 1 1
          1 1 1 1 1 1 1 1 1 1 1 1
          1 1 1 1 1 1 1 1 1 1 1 1
          1 1 0.916885 0.929623 0.951053 0.974648 0.991313 0.998291 0.999937 1 1 1
          1 1 1 1 1 1 1 1 1 1 1 1
          1 1 1 1 1 1 1 1 1 1 1 1
          1 1 1 1 1 1 1 1 1 1 1 1
          1 1 1 0.906885 0.926278 0.952782 0.977976 0.993237 0.998962 0.999979 1 1
          1 1 1 1 1 1 1 1 1 1 1 1
          1 1 1 1 1 1 1 1 1 1 1 1
          1 1 1 1 1 1 1 1 1 1 1 1
          1 1 1 1 0.898871 0.924638 0.955241 0.981062 0.994715 0.999389 0.999993 1
          1 1 1 1 1 1 1 1 1 1 1 1
          1 1 1 1 1 1 1 1 1 1 1 1
          1 1 1 1 1 1 1 1 1 1 1 1
          1 1 1 1 0.999923 0.892221 0.924184 0.958109 0.983786 0.995854 0.999646 0.999998
          1 1 1 1 1 1 1 1 1 1 1 1
          1 1 1 1 1 1 1 1 1 1 1 1
          1 1 1 1 1 1 1 1 1 1 1 1
          1 1 1 1 1 0.999843 0.885822 0.92482 0.961409 0.986248 0.996778 0.999801
          0.999999 1 1 1 1 1 1 1 1 1 1 1
          1 1 1 1 1 1 1 1 1 1 1 1
          1 1 1 1 1 1 1 1 1 1 1 1
          1 1 1 1 1 1 0.99977 0.879576 0.926795 0.965305 0.988573 0.997573
          0.999895 1 1 1 1 1 1 1 1 1 1 1
          1 1 1 1 1 1 1 1 1 1 1 1
          1 1 0.999993 0.99998 0.999972 0.999965 0.99996 0.999955 0.999951 0.999946 0.999942 0.999938
          0.999937 0.999935 0.999933 0.99993 0.999928 0.999924 0.999916 0.999687 0.873432 0.930626 0.970024 0.990854
          0.998297 0.999952 1 1 1 1 1 1 1 1 1 1
          1 1 1 1 1 1 1 1 1 1 1 1
          1 0.999996 0.999489 0.99811 0.997794 0.997681 0.997557 0.99745 0.997353 0.99726 0.997173 0.997091
          0.997018 0.996951 0.996888 0.996825 0.996759 0.996661 0.996557 0.996443 0.994969 0.879324 0.937264 0.975908
          0.99321 0.998995 0.999985 1 1 1 1 1 1 1 1 1
          1 1 1 1 1 1 1 1 1 1 1 1
          1 1 0.998853 0.98694 0.964442 0.883882 0.809205 0.748652 0.697329 0.653413 0.616086 0.585037
          0.560353 0.542593 0.532539 0.530748 0.536777 0.549322 0.557963 0.571577 0.593406 0.733485 0.849638 0.946371
          0.983623 0.996019 0.999661 0.999998 1 1 1 1 1 1 1 1
          1 1 1 1 1 1 1 1 1 1 1 1
          1 1 1 1 0.999682 0.994378 0.966616 0.94912 0.939669 0.934464 0.931377 0.929314
          0.927875 0.927807 0.933812 0.947846 0.965189 0.981054 0.992268 0.998188 0.99993 1 1 1
          1 1 1 1 1 1 1 1 1 1 1 1
          1 1 1 1 1 1 1 1 1 1 1 1
          1 1 1 1 1 0.999532 0.994293 0.96705 0.95086 0.943742 0.940814 0.939689
          0.939277 0.939208 0.940192 0.947382 0.961729 0.976791 0.988675 0.995826 0.999408 0.999993 1 1
          1 1 1 1 1 1 1 1 1 1 1 1
          1 1 1 1 1 1 1 1 1 1 1 1
          1 1 1 1 1 1 0.999357 0.994013 0.96562 0.949093 0.942785 0.940524
          0.939778 0.939552 0.939561 0.940581 0.948964 0.965073 0.980253 0.990931 0.996895 0.999683 0.999998 1
          1 1 1 1 1 1 1 1 1 1 1 1
          1 1 1 1 1 1 1 1 1 1 1 1
          1 1 1 1 1 1 1 0.99918 0.993806 0.964118 0.947142 0.941751
          0.940104 0.939636 0.939512 0.93954 0.940515 0.950365 0.968657 0.98376 0.992948 0.997882 0.999861 1
          1 1 1 1 1 1 1 1 1 1 1 1
          1 1 1 1 1 1 1 1 1 1 1 1
          1 1 1 1 1 1 1 1 0.999083 0.993695 0.962601 0.945109
          0.940844 0.93979 0.939539 0.939483 0.939512 0.940368 0.952024 0.973037 0.987523 0.994919 0.998797 0.999959
          1 1 1 1 1 1 1 1 1 1 1 1
          1 1 1 1 1 1 1 1 1 1 1 1
          1 1 1 1 1 1 1 1 1 0.999172 0.993922 0.961003
          0.942979 0.940108 0.939586 0.939488 0.93947 0.939488 0.940123 0.954024 0.978744 0.991561 0.996939 0.999552
          0.999995 1 1 1 1 1 1 1 1 1 1 1
          1 1 1 1 1 1 1 1 1 1 1 1
          1 1 1 1 1 1 1 1 1 1 0.999576 0.99538
          0.959142 0.940732 0.939597 0.939481 0.939467 0.939465 0.939471 0.939737 0.956416 0.987478 0.996341 0.99917
          0.999969 1 1 1 1 1 1 1 1 1 1 1
          1 1 1 1 1 1 1 1 1
        </DataArray>
        <DataArray type="Float32" Name="pn" NumberOfComponents="1" format="ascii">
          153955 152699 152269 151348 151833 150538 151121 149849 150506 149246 149962 148710
          149473 148225 149026 147783 148616 147375 148234 146996 147877 146641 147541 146306
          147221 145988 146916 145684 146624 145392 146341 145111 146068 144838 145801 144572
          145541 144312 145286 144058 145036 143808 144790 143562 144548 143320 144308 143081
          144072 142844 143838 142611 143608 142380 143379 142152 143154 141926 142931 141703
          142711 141483 142494 141266 142280 141052 142069 140841 141861 140633 141657 140429
          141455 140227 141257 140029 141062 139835 140871 139643 140682 139454 140495 139268
          140311 139084 140129 138902 139949 138722 139771 138544 139593 138367 139416 138190
          139240 138014 150583 149832 149128 148492 147921 147406 146936 146505 146106 145734
          145384 145054 144740 144440 144151 143872 143601 143337 143078 142825 142576 142331
          142089 141850 141614 141381 141150 140922 140696 140473 140253 140035 139821 139610
          139402 139198 138996 138798 138604 138412 138224 138038 137855 137673 137494 137316
          137139 136963 136788 148897 148258 147644 147070 146542 146056 145609 145195 144810
          144449 144109 143787 143479 143184 142900 142625 142357 142095 141839 141588 141340
          141096 140855 140617 140381 140148 139917 139689 139463 139240 139019 138802 138587
          138376 138168 137963 137762 137564 137370 137179 136991 136806 136623 136443 136264
          136087 135911 135736 135561 147211 146656 146115 145601 145118 144668 144248 143856
          143489 143143 142816 142504 142206 141918 141640 141370 141107 140849 140595 140346
          140101 139858 139618 139381 139145 138913 138682 138453 138227 138004 137783 137565
          137350 137138 136930 136725 136524 136326 136133 135942 135755 135571 135389 135210
          135033 134857 134682 134508 134335 145525 145037 144560 144100 143662 143249 142860
          142493 142147 141820 141507 141208 140921 140643 140373 140109 139851 139597 139348
          139102 138858 138617 138379 138142 137908 137675 137445 137216 136989 136765 136544
          136325 136109 135897 135688 135483 135282 135085 134892 134702 134516 134333 134153
          133975 133800 133626 133453 133280 133109 143838 143409 142986 142576 142182 141806
          141449 141110 140788 140480 140186 139902 139627 139360 139098 138842 138591 138342
          138097 137854 137613 137375 137138 136902 136668 136436 136205 135976 135749 135524
          135302 135082 134865 134652 134443 134238 134037 133840 133647 133459 133274 133093
          132915 132739 132565 132393 132222 132052 131882 142152 141773 141399 141035 140682
          140343 140019 139710 139413 139128 138853 138586 138325 138070 137819 137572 137327
          137084 136843 136604 136367 136130 135895 135660 135427 135195 134964 134734 134507
          134280 134057 133836 133618 133404 133195 132992 132788 132590 132399 132212 132029
          131850 131674 131500 131329 131159 130991 130823 130656 140466 140133 139803 139481
          139168 138866 138575 138296 138027 137766 137512 137263 137019 136777 136537 136298
          136061 135824 135588 135353 135119 134884 134651 134417 134185 133953 133722 133491
          133262 133035 132809 132586 132367 132152 131957 131764 131551 131338 131146 130961
          130780 130603 130430 130259 130091 129924 129759 129594 129430 138780 138489 138200
          137917 137642 137377 137120 136872 136632 136397 136166 135937 135709 135481 135253
          135024 134794 134564 134333 134102 133870 133638 133406 133174 132942 132710 132478
          132247 132016 131787 131559 131334 131112 130907 130741 130551 130333 130097 129889
          129705 129527 129353 129183 129016 128851 128688 128526 128365 128204 137094 136841
          136591 136346 136108 135878 135656 135441 135232 135025 134818 134610 134400 134186
          133969 133750 133528 133304 133078 132850 132622 132392 132162 131931 131699 131467
          131234 131002 130769 130537 130306 130078 129853 129685 129517 129315 129104 128868
          128633 128444 128270 128100 127934 127771 127610 127450 127292 127135 126978 135408
          135191 134977 134767 134565 134370 134184 134005 133829 133652 133472 133286 133093
          132894 132689 132478 132264 132045 131824 131600 131375 131147 130918 130688 130456
          130224 129991 129757 129522 129287 129052 128819 128589 128460 128262 128054 127843
          127625 127381 127179 127008 126844 126682 126523 126367 126212 126058 125904 125751
          133722 133538 133357 133181 133013 132854 132705 132565 132426 132284 132133 131969
          131794 131608 131413 131211 131003 130790 130573 130352 130129 129903 129676 129446
          129215 128982 128748 128512 128275 128036 127796 127556 127319 127203 126993 126779
          126566 126357 126122 125910 125742 125583 125427 125274 125122 124972 124822 124674
          124525 132036 131883 131733 131588 131452 131328 131218 131121 131029 130926 130805
          130664 130505 130331 130145 129950 129748 129539 129325 129107 128886 128662 128435
          128206 127975 127742 127507 127269 127029 126786 126540 126291 126043 125928 125708
          125487 125273 125070 124850 124635 124473 124320 124170 124023 123876 123731 123587
          123443 123299 130350 130224 130102 129986 129879 129786 129714 129671 129643 129590
          129499 129376 129230 129065 128887 128697 128498 128292 128081 127865 127645 127422
          127196 126968 126737 126504 126268 126029 125786 125539 125286 125027 124759 124633
          124397 124172 123964 123769 123562 123354 123199 123054 122912 122770 122630 122490
          122350 122211 122072 128664 128563 128466 128375 128293 128225 128181 128184 128303
          128293 128223 128112 127973 127814 127639 127452 127255 127052 126842 126627 126408
          126186 125960 125732 125502 125268 125032 124792 124548 124298 124040 123770 123487
          123282 123041 122831 122637 122458 122261 122067 121923 121787 121651 121516 121382
          121248 121114 120980 120846 126978 126899 126824 126754 126692 126644 126612 126596
          126730 126765 126709 126608 126478 126328 126162 125984 125797 125602 125401 125195
          124985 124771 124554 124333 124109 123882 123650 123414 123170 122916 122646 122346
          121948 121770 121639 121468 121300 121140 120950 120777 120646 120519 120391 120262
          120134 120006 119877 119749 119620 125291 125233 125177 125125 125080 125044 125021
          125013 125024 125017 124959 124864 124744 124606 124454 124292 124121 123943 123759
          123570 123377 123179 122977 122771 122561 122346 122124 121895 121655 121399 121118
          120794 120396 120327 120232 120100 119960 119820 119637 119488 119370 119250 119130
          119009 118886 118764 118641 118517 118394 123605 123565 123525 123489 123457 123432
          123415 123407 123380 123322 123244 123144 123028 122898 122758 122609 122453 122291
          122123 121950 121772 121590 121404 121213 121017 120815 120606 120387 120155 119905
          119628 119314 118954 118924 118852 118745 118628 118500 118328 118203 118094 117983
          117870 117755 117639 117522 117404 117286 117168 121919 121895 121871 121848 121828
          121812 121800 121794 121745 121651 121550 121442 121324 121200 121069 120933 120791
          120643 120491 120334 120173 120006 119836 119660 119479 119292 119096 118891 118672
          118436 118175 117885 117561 117560 117499 117409 117308 117186 117029 116922 116822
          116719 116612 116503 116393 116281 116168 116055 115941 120233 120224 120215 120206
          120196 120187 120180 120174 120110 119987 119866 119747 119628 119509 119387 119262
          119134 119001 118864 118723 118577 118427 118272 118112 117947 117776 117597 117408
          117207 116990 116753 116491 116225 116226 116170 116091 116000 115881 115740 115646
          115554 115457 115356 115253 115148 115041 114933 114824 114715 118547 118554 118559
          118563 118563 118561 118557 118552 118471 118320 118180 118052 117933 117819 117707
          117595 117481 117363 117242 117116 116986 116852 116713 116570 116422 116268 116107
          115938 115758 115565 115355 115124 114917 114918 114864 114791 114707 114587 114461
          114377 114290 114199 114103 114005 113904 113802 113698 113594 113489 116861 116885
          116906 116923 116933 116937 116934 116928 116825 116639 116481 116349 116234 116128
          116028 115930 115831 115729 115624 115514 115400 115282 115159 115033 114902 114766
          114625 114478 114323 114157 113977 113781 113630 113631 113577 113506 113426 113303
          113191 113114 113032 112944 112853 112759 112663 112564 112464 112364 112262 115175
          115218 115258 115290 115311 115320 115316 115304 115159 114924 114757 114630 114525
          114433 114348 114268 114190 114108 114020 113928 113831 113730 113625 113517 113404
          113288 113169 113046 112918 112783 112639 112482 112368 112367 112308 112236 112157
          112029 111930 111857 111778 111694 111606 111516 111423 111328 111231 111134 111036
          113489 113556 113617 113667 113702 113716 113705 113687 113396 113140 112996 112890
          112804 112731 112809 113088 113095 113052 113004 112946 112882 112813 112739 112661
          112579 112494 112407 112318 112230 112144 112055 111958 112023 111120 111056 110979
          110894 110763 110677 110606 110529 110448 110363 110275 110184 110092 109999 109905
          109810 111803 111898 111987 112061 112113 112137 112121 112023 111745 111592 111480
          111393 111320 111281 111315 111293 111295 111262 111213 111156 111091 111022 110949
          110871 110789 110704 110616 110528 110440 110354 110264 110168 110037 109924 109817
          109731 109626 109505 109431 109360 109284 109205 109122 109036 108948 108858 108768
          108676 108584 110117 110249 110371 110475 110553 110596 110594 110530 110420 110309
          110218 110142 110076 110015 109966 109991 109989 109940 109874 109798 109717 109633
          109546 109457 109364 109267 109173 109080 108984 108847 108739 108662 108585 108512
          108445 108383 108322 108258 108191 108119 108044 107965 107883 107799 107713 107626
          107537 107447 107358 108430 108609 108774 108917 109027 109099 109128 109114 109067
          109005 108942 108882 108825 108770 108726 108749 108747 108697 108630 108554 108473
          108389 108303 108214 108121 108024 107931 107838 107726 107595 107510 107436 107363
          107292 107223 107157 107091 107024 106954 106882 106806 106728 106648 106565 106480
          106394 106307 106219 106131 106744 106982 107201 107390 107540 107646 107710 107734
          107728 107700 107662 107618 107571 107523 107486 107510 107508 107459 107391 107316
          107236 107153 107067 106980 106887 106790 106697 106604 106484 106362 106283 106211
          106139 106068 105998 105930 105861 105792 105721 105647 105572 105494 105414 105332
          105249 105164 105078 104992 104905 105058 105373 105661 105904 106096 106237 106331
          106386 106408 106406 106387 106357 106320 106277 106249 106272 106272 106223 106156
          106080 106001 105919 105834 105748 105654 105557 105463 105367 105241 105131 105057
          104985 104914 104843 104772 104702 104632 104561 104489 104415 104340 104262 104182
          104101 104019 103935 103850 103765 103679 103372 103795 104168 104471 104703 104874
          104994 105070 105112 105127 105122 105103 105073 105036 105012 105037 105038 104991
          104922 104847 104768 104687 104603 104517 104422 104323 104228 104124 103998 103902
          103830 103759 103688 103617 103546 103475 103404 103332 103260 103185 103109 103032
          102953 102872 102790 102706 102622 102538 102452 101686 102276 102754 103108 103371
          103563 103699 103790 103843 103868 103872 103859 103833 103799 103776 103803 103808
          103761 103692 103617 103538 103457 103374 103288 103192 103088 102991 102873 102756
          102675 102604 102533 102462 102391 102320 102248 102177 102105 102031 101957 101881
          101803 101724 101644 101562 101479 101395 101311 101226 100000 100924 101457 101833
          102108 102308 102450 102545 102603 102631 102637 102626 102603 102570 102539 102560
          102582 102535 102464 102389 102311 102230 102147 102061 101963 101847 101726 101608
          101520 101449 101378 101307 101235 101164 101093 101022 100950 100878 100804 100730
          100654 100576 100497 100417 100335 100252 100169 100084 100000
        </DataArray>
        <DataArray type="Float32" Name="pw" NumberOfComponents="1" format="ascii">
          153955 152699 152269 151348 151833 150538 151121 149849 150506 149246 149962 148710
          149473 148225 149026 147783 148616 147375 148234 146996 147877 146641 147541 146306
          147221 145988 146916 145684 146624 145392 146341 145111 146068 144838 145801 144572
          145541 144312 145286 144058 145036 143808 144790 143562 144548 143320 144308 143081
          144072 142844 143838 142611 143608 142380 143379 142152 143154 141926 142931 141703
          142711 141483 142494 141266 142280 141052 142069 140841 141861 140633 141657 140429
          141455 140227 141257 140029 141062 139835 140871 139643 140682 139454 140495 139268
          140311 139084 140129 138902 139949 138722 139771 138544 139593 138367 139416 138190
          139240 138014 150583 149832 149128 148492 147921 147406 146936 146505 146106 145734