<?xml version="1.0"?>
<VTKFile type="UnstructuredGrid" version="0.1" byte_order="LittleEndian">
  <UnstructuredGrid>
    <Piece NumberOfCells="384" NumberOfPoints="425">
      <PointData Scalars="Sn">
        <DataArray type="Float32" Name="Sn" NumberOfComponents="1" format="ascii">
          0 0 0 0 0 0 0 0 0 0 0 0
          0 0 0 0 0 0 0 0 0 0 0 0
          0 0 0 0 0 0 0 0 0 0 0 0
          0 0 0 0 0 0 0 0 0 0 0 0
          0 0 0 0 0 0 0 0 0 0 0 0
          0 0 0 0 0 0 0 0 0 0 0 0
          0 0.0103898 0.18323 0 0 0 0 0 0 0 0 0
          0 0 0 0 0 0 0 0 0 0 0 0
          0 0 0.175532 0.279861 0 0 0 0 0 0 0 0
          0 0 0 0 0 0 0 0 0 0 0 0
          0 0 0.0124667 0.184126 0.283652 0 0 0 0 0 0 0
          0 0 0 0 0 0 0 0 0 0 0 0
          0 0 0 0 0.175894 0.28011 0 0 0 0 0 0
          0 0 0 0 0 0 0 0 0 0 0 0
          0 0 0 0 0 0.0259899 0.188354 0 0 0 0 0
          0 0 0 0 0 0 0 0 0 0 0 0
          0 0 0 0 0 0 0 0 0 0 0 0
          0 0 0 0 0 0 0 0 0 0 0 0
          0 0 0 0 0 0 0 0 0 0 0 0
          0 0 0 0 0 0 0 0 0 0 0 0
          0 0 0 0 0 0 0 0 0 0 0 0
          0 0 0 0 0 0 0 0 0 0 0 0
          0 0 0 0 0 0 0 0 0 0 0 0
          0 0 0 0 0 0 0 0 0 0 0 0
          0 0 0 0 0 0 0 0 0 0 0 0
          0 0 0 0 0 0 0 0 0 0 0 0
          0 0 0 0 0 0 0 0 0 0 0 0
          0 0 0 0 0 0 0 0 0 0 0 0
          0 0 0 0 0 0 0 0 0 0 0 0
          0 0 0 0 0 0 0 0 0 0 0 0
          0 0 0 0 0 0 0 0 0 0 0 0
          0 0 0 0 0 0 0 0 0 0 0 0
          0 0 0 0 0 0 0 0 0 0 0 0
          0 0 0 0 0 0 0 0 0 0 0 0
          0 0 0 0 0 0 0 0 0 0 0 0
          0 0 0 0 0
        </DataArray>
        <DataArray type="Float32" Name="Sw" NumberOfComponents="1" format="ascii">
          1 1 1 1 1 1 1 1 1 1 1 1
          1 1 1 1 1 1 1 1 1 1 1 1
          1 1 1 1 1 1 1 1 1 1 1 1
          1 1 1 1 1 1 1 1 1 1 1 1
          1 1 1 1 1 1 1 1 1 1 1 1
          1 1 1 1 1 1 1 1 1 1 1 1
          1 0.98961 0.81677 1 1 1 1 1 1 1 1 1
          1 1 1 1 1 1 1 1 1 1 1 1
          1 1 0.824468 0.720139 1 1 1 1 1 1 1 1
          1 1 1 1 1 1 1 1 1 1 1 1
          1 1 0.987533 0.815874 0.716348 1 1 1 1 1 1 1
          1 1 1 1 1 1 1 1 1 1 1 1
          1 1 1 1 0.824106 0.71989 1 1 1 1 1 1
          1 1 1 1 1 1 1 1 1 1 1 1
          1 1 1 1 1 0.97401 0.811646 1 1 1 1 1
          1 1 1 1 1 1 1 1 1 1 1 1
          1 1 1 1 1 1 1 1 1 1 1 1
          1 1 1 1 1 1 1 1 1 1 1 1
          1 1 1 1 1 1 1 1 1 1 1 1
          1 1 1 1 1 1 1 1 1 1 1 1
          1 1 1 1 1 1 1 1 1 1 1 1
          1 1 1 1 1 1 1 1 1 1 1 1
          1 1 1 1 1 1 1 1 1 1 1 1
          1 1 1 1 1 1 1 1 1 1 1 1
          1 1 1 1 1 1 1 1 1 1 1 1
          1 1 1 1 1 1 1 1 1 1 1 1
          1 1 1 1 1 1 1 1 1 1 1 1
          1 1 1 1 1 1 1 1 1 1 1 1
          1 1 1 1 1 1 1 1 1 1 1 1
          1 1 1 1 1 1 1 1 1 1 1 1
          1 1 1 1 1 1 1 1 1 1 1 1
          1 1 1 1 1 1 1 1 1 1 1 1
          1 1 1 1 1 1 1 1 1 1 1 1
          1 1 1 1 1 1 1 1 1 1 1 1
          1 1 1 1 1 1 1 1 1 1 1 1
          1 1 1 1 1
        </DataArray>
        <DataArray type="Float32" Name="pN" NumberOfComponents="1" format="ascii">
          5.01e+06 5.01293e+06 5.01e+06 5.01293e+06 5.01587e+06 5.01587e+06 5.0188e+06 5.0188e+06 5.02174e+06 5.02174e+06 5.02468e+06 5.02468e+06
          5.02762e+06 5.02762e+06 5.03056e+06 5.03056e+06 5.03351e+06 5.03351e+06 5.03647e+06 5.03646e+06 5.03943e+06 5.03942e+06 5.04239e+06 5.04239e+06
          5.04537e+06 5.04536e+06 5.04835e+06 5.04835e+06 5.05135e+06 5.05134e+06 5.05436e+06 5.05435e+06 5.05738e+06 5.05738e+06 5.06042e+06 5.06042e+06
          5.06347e+06 5.06347e+06 5.06651e+06 5.06652e+06 5.0695e+06 5.06956e+06 5.07237e+06 5.07251e+06 5.07488e+06 5.07525e+06 5.07661e+06 5.07733e+06
          5.0772e+06 5.07767e+06 5.01e+06 5.01293e+06 5.01587e+06 5.0188e+06 5.02174e+06 5.02467e+06 5.02762e+06 5.03056e+06 5.03351e+06 5.03646e+06
          5.03941e+06 5.04238e+06 5.04535e+06 5.04833e+06 5.05133e+06 5.05433e+06 5.05736e+06 5.0604e+06 5.06347e+06 5.06656e+06 5.06968e+06 5.07282e+06
          5.07609e+06 5.07965e+06 5.08341e+06 5.01e+06 5.01293e+06 5.01586e+06 5.0188e+06 5.02173e+06 5.02467e+06 5.02761e+06 5.03055e+06 5.0335e+06
          5.03645e+06 5.0394e+06 5.04236e+06 5.04533e+06 5.04831e+06 5.0513e+06 5.0543e+06 5.05732e+06 5.06036e+06 5.06344e+06 5.06657e+06 5.06978e+06
          5.07315e+06 5.07636e+06 5.08417e+06 5.08755e+06 5.01e+06 5.01293e+06 5.01586e+06 5.0188e+06 5.02173e+06 5.02466e+06 5.0276e+06 5.03054e+06
          5.03348e+06 5.03643e+06 5.03938e+06 5.04234e+06 5.0453e+06 5.04827e+06 5.05126e+06 5.05425e+06 5.05726e+06 5.0603e+06 5.06337e+06 5.0665e+06
          5.06975e+06 5.0732e+06 5.07803e+06 5.08517e+06 5.08882e+06 5.01e+06 5.01293e+06 5.01586e+06 5.01879e+06 5.02172e+06 5.02466e+06 5.02759e+06
          5.03053e+06 5.03347e+06 5.03641e+06 5.03936e+06 5.04231e+06 5.04527e+06 5.04823e+06 5.0512e+06 5.05418e+06 5.05718e+06 5.0602e+06 5.06324e+06
          5.06634e+06 5.06954e+06 5.07291e+06 5.07621e+06 5.08418e+06 5.08764e+06 5.01e+06 5.01293e+06 5.01586e+06 5.01879e+06 5.02172e+06 5.02465e+06
          5.02758e+06 5.03051e+06 5.03345e+06 5.03639e+06 5.03933e+06 5.04228e+06 5.04523e+06 5.04818e+06 5.05114e+06 5.05411e+06 5.05708e+06 5.06007e+06
          5.06307e+06 5.0661e+06 5.06917e+06 5.07229e+06 5.07564e+06 5.08047e+06 5.08318e+06 5.01e+06 5.01293e+06 5.01585e+06 5.01878e+06 5.02171e+06
          5.02464e+06 5.02757e+06 5.0305e+06 5.03343e+06 5.03636e+06 5.0393e+06 5.04224e+06 5.04518e+06 5.04813e+06 5.05108e+06 5.05403e+06 5.05698e+06
          5.05993e+06 5.06288e+06 5.06583e+06 5.06874e+06 5.0716e+06 5.07434e+06 5.07635e+06 5.07661e+06 5.01e+06 5.01292e+06 5.01585e+06 5.01877e+06
          5.0217e+06 5.02463e+06 5.02755e+06 5.03048e+06 5.03341e+06 5.03634e+06 5.03927e+06 5.0422e+06 5.04514e+06 5.04807e+06 5.05101e+06 5.05394e+06
          5.05687e+06 5.0598e+06 5.0627e+06 5.06557e+06 5.06837e+06 5.071e+06 5.07327e+06 5.07479e+06 5.07531e+06 5.01e+06 5.01291e+06 5.01583e+06
          5.01874e+06 5.02165e+06 5.02457e+06 5.02748e+06 5.03039e+06 5.0333e+06 5.0362e+06 5.03911e+06 5.042e+06 5.0449e+06 5.04778e+06 5.05066e+06
          5.05352e+06 5.05636e+06 5.05916e+06 5.06192e+06 5.0646e+06 5.06715e+06 5.06946e+06 5.07136e+06 5.07262e+06 5.07306e+06 5.01e+06 5.0129e+06
          5.01579e+06 5.01868e+06 5.02158e+06 5.02447e+06 5.02735e+06 5.03023e+06 5.0331e+06 5.03597e+06 5.03882e+06 5.04166e+06 5.04448e+06 5.04728e+06
          5.05005e+06 5.05278e+06 5.05546e+06 5.05808e+06 5.06059e+06 5.06298e+06 5.06517e+06 5.06708e+06 5.06858e+06 5.06955e+06 5.06988e+06 5.01e+06
          5.01288e+06 5.01576e+06 5.01863e+06 5.02151e+06 5.02438e+06 5.02724e+06 5.03009e+06 5.03293e+06 5.03576e+06 5.03857e+06 5.04135e+06 5.04411e+06
          5.04683e+06 5.0495e+06 5.05212e+06 5.05466e+06 5.0571e+06 5.05942e+06 5.06156e+06 5.06349e+06 5.06511e+06 5.06636e+06 5.06715e+06 5.06742e+06
          5.01e+06 5.01287e+06 5.01573e+06 5.01859e+06 5.02145e+06 5.0243e+06 5.02714e+06 5.02997e+06 5.03278e+06 5.03557e+06 5.03834e+06 5.04108e+06
          5.04378e+06 5.04643e+06 5.04903e+06 5.05154e+06 5.05397e+06 5.05627e+06 5.05842e+06 5.06039e+06 5.06212e+06 5.06355e+06 5.06463e+06 5.0653e+06
          5.06553e+06 5.01e+06 5.01285e+06 5.01571e+06 5.01856e+06 5.0214e+06 5.02423e+06 5.02706e+06 5.02987e+06 5.03266e+06 5.03542e+06 5.03816e+06
          5.04086e+06 5.04351e+06 5.04611e+06 5.04864e+06 5.05108e+06 5.05341e+06 5.05561e+06 5.05764e+06 5.05947e+06 5.06106e+06 5.06236e+06 5.06333e+06
          5.06393e+06 5.06414e+06 5.01e+06 5.01285e+06 5.01569e+06 5.01853e+06 5.02136e+06 5.02419e+06 5.027e+06 5.02979e+06 5.03256e+06 5.03531e+06
          5.03802e+06 5.0407e+06 5.04332e+06 5.04588e+06 5.04835e+06 5.05074e+06 5.053e+06 5.05512e+06 5.05707e+06 5.05881e+06 5.06031e+06 5.06153e+06
          5.06243e+06 5.06298e+06 5.06317e+06 5.01e+06 5.01284e+06 5.01568e+06 5.01851e+06 5.02134e+06 5.02416e+06 5.02696e+06 5.02975e+06 5.03251e+06
          5.03524e+06 5.03794e+06 5.0406e+06 5.0432e+06 5.04573e+06 5.04818e+06 5.05053e+06 5.05275e+06 5.05483e+06 5.05673e+06 5.05842e+06 5.05987e+06
          5.06104e+06 5.0619e+06 5.06243e+06 5.0626e+06 5.01e+06 5.01284e+06 5.01568e+06 5.01851e+06 5.02133e+06 5.02415e+06 5.02695e+06 5.02973e+06
          5.03249e+06 5.03522e+06 5.03791e+06 5.04056e+06 5.04316e+06 5.04568e+06 5.04812e+06 5.05046e+06 5.05267e+06 5.05473e+06 5.05662e+06 5.05829e+06
          5.05972e+06 5.06087e+06 5.06172e+06 5.06224e+06 5.06242e+06
        </DataArray>
        <DataArray type="Float32" Name="pW" NumberOfComponents="1" format="ascii">
          5e+06 5.00293e+06 5e+06 5.00293e+06 5.00587e+06 5.00587e+06 5.0088e+06 5.0088e+06 5.01174e+06 5.01174e+06 5.01468e+06 5.01468e+06
          5.01762e+06 5.01762e+06 5.02056e+06 5.02056e+06 5.02351e+06 5.02351e+06 5.02647e+06 5.02646e+06 5.02943e+06 5.02942e+06 5.03239e+06 5.03239e+06
          5.03537e+06 5.03536e+06 5.03835e+06 5.03835e+06 5.04135e+06 5.04134e+06 5.04436e+06 5.04435e+06 5.04738e+06 5.04738e+06 5.05042e+06 5.05042e+06
          5.05347e+06 5.05347e+06 5.05651e+06 5.05652e+06 5.0595e+06 5.05956e+06 5.06237e+06 5.06251e+06 5.06488e+06 5.06525e+06 5.06661e+06 5.06733e+06
          5.0672e+06 5.06767e+06 5e+06 5.00293e+06 5.00587e+06 5.0088e+06 5.01174e+06 5.01467e+06 5.01762e+06 5.02056e+06 5.02351e+06 5.02646e+06
          5.02941e+06 5.03238e+06 5.03535e+06 5.03833e+06 5.04133e+06 5.04433e+06 5.04736e+06 5.0504e+06 5.05347e+06 5.05656e+06 5.05968e+06 5.06282e+06
          5.06609e+06 5.06958e+06 5.07202e+06 5e+06 5.00293e+06 5.00586e+06 5.0088e+06 5.01173e+06 5.01467e+06 5.01761e+06 5.02055e+06 5.0235e+06
          5.02645e+06 5.0294e+06 5.03236e+06 5.03533e+06 5.03831e+06 5.0413e+06 5.0443e+06 5.04732e+06 5.05036e+06 5.05344e+06 5.05657e+06 5.05978e+06
          5.06315e+06 5.06636e+06 5.07285e+06 5.07514e+06 5e+06 5.00293e+06 5.00586e+06 5.0088e+06 5.01173e+06 5.01466e+06 5.0176e+06 5.02054e+06
          5.02348e+06 5.02643e+06 5.02938e+06 5.03234e+06 5.0353e+06 5.03827e+06 5.04126e+06 5.04425e+06 5.04726e+06 5.0503e+06 5.05337e+06 5.0565e+06
          5.05975e+06 5.0632e+06 5.06795e+06 5.07377e+06 5.07637e+06 5e+06 5.00293e+06 5.00586e+06 5.00879e+06 5.01172e+06 5.01466e+06 5.01759e+06
          5.02053e+06 5.02347e+06 5.02641e+06 5.02936e+06 5.03231e+06 5.03527e+06 5.03823e+06 5.0412e+06 5.04418e+06 5.04718e+06 5.0502e+06 5.05324e+06
          5.05634e+06 5.05954e+06 5.06291e+06 5.06621e+06 5.07286e+06 5.07523e+06 5e+06 5.00293e+06 5.00586e+06 5.00879e+06 5.01172e+06 5.01465e+06
          5.01758e+06 5.02051e+06 5.02345e+06 5.02639e+06 5.02933e+06 5.03228e+06 5.03523e+06 5.03818e+06 5.04114e+06 5.04411e+06 5.04708e+06 5.05007e+06
          5.05307e+06 5.0561e+06 5.05917e+06 5.06229e+06 5.06564e+06 5.0703e+06 5.07174e+06 5e+06 5.00293e+06 5.00585e+06 5.00878e+06 5.01171e+06
          5.01464e+06 5.01757e+06 5.0205e+06 5.02343e+06 5.02636e+06 5.0293e+06 5.03224e+06 5.03518e+06 5.03813e+06 5.04108e+06 5.04403e+06 5.04698e+06
          5.04993e+06 5.05288e+06 5.05583e+06 5.05874e+06 5.0616e+06 5.06434e+06 5.06635e+06 5.06661e+06 5e+06 5.00292e+06 5.00585e+06 5.00877e+06
          5.0117e+06 5.01463e+06 5.01755e+06 5.02048e+06 5.02341e+06 5.02634e+06 5.02927e+06 5.0322e+06 5.03514e+06 5.03807e+06 5.04101e+06 5.04394e+06
          5.04687e+06 5.0498e+06 5.0527e+06 5.05557e+06 5.05837e+06 5.061e+06 5.06327e+06 5.06479e+06 5.06531e+06 5e+06 5.00291e+06 5.00583e+06
          5.00874e+06 5.01165e+06 5.01457e+06 5.01748e+06 5.02039e+06 5.0233e+06 5.0262e+06 5.02911e+06 5.032e+06 5.0349e+06 5.03778e+06 5.04066e+06
          5.04352e+06 5.04636e+06 5.04916e+06 5.05192e+06 5.0546e+06 5.05715e+06 5.05946e+06 5.06136e+06 5.06262e+06 5.06306e+06 5e+06 5.0029e+06
          5.00579e+06 5.00868e+06 5.01158e+06 5.01447e+06 5.01735e+06 5.02023e+06 5.0231e+06 5.02597e+06 5.02882e+06 5.03166e+06 5.03448e+06 5.03728e+06
          5.04005e+06 5.04278e+06 5.04546e+06 5.04808e+06 5.05059e+06 5.05298e+06 5.05517e+06 5.05708e+06 5.05858e+06 5.05955e+06 5.05988e+06 5e+06
          5.00288e+06 5.00576e+06 5.00863e+06 5.01151e+06 5.01438e+06 5.01724e+06 5.02009e+06 5.02293e+06 5.02576e+06 5.02857e+06 5.03135e+06 5.03411e+06
          5.03683e+06 5.0395e+06 5.04212e+06 5.04466e+06 5.0471e+06 5.04942e+06 5.05156e+06 5.05349e+06 5.05511e+06 5.05636e+06 5.05715e+06 5.05742e+06
          5e+06 5.00287e+06 5.00573e+06 5.00859e+06 5.01145e+06 5.0143e+06 5.01714e+06 5.01997e+06 5.02278e+06 5.02557e+06 5.02834e+06 5.03108e+06
          5.03378e+06 5.03643e+06 5.03903e+06 5.04154e+06 5.04397e+06 5.04627e+06 5.04842e+06 5.05039e+06 5.05212e+06 5.05355e+06 5.05463e+06 5.0553e+06
          5.05553e+06 5e+06 5.00285e+06 5.00571e+06 5.00856e+06 5.0114e+06 5.01423e+06 5.01706e+06 5.01987e+06 5.02266e+06 5.02542e+06 5.02816e+06
          5.03086e+06 5.03351e+06 5.03611e+06 5.03864e+06 5.04108e+06 5.04341e+06 5.04561e+06 5.04764e+06 5.04947e+06 5.05106e+06 5.05236e+06 5.05333e+06
          5.05393e+06 5.05414e+06 5e+06 5.00285e+06 5.00569e+06 5.00853e+06 5.01136e+06 5.01419e+06 5.017e+06 5.01979e+06 5.02256e+06 5.02531e+06
          5.02802e+06 5.0307e+06 5.03332e+06 5.03588e+06 5.03835e+06 5.04074e+06 5.043e+06 5.04512e+06 5.04707e+06 5.04881e+06 5.05031e+06 5.05153e+06
          5.05243e+06 5.05298e+06 5.05317e+06 5e+06 5.00284e+06 5.00568e+06 5.00851e+06 5.01134e+06 5.01416e+06 5.01696e+06 5.01975e+06 5.02251e+06
          5.02524e+06 5.02794e+06 5.0306e+06 5.0332e+06 5.03573e+06 5.03818e+06 5.04053e+06 5.04275e+06 5.04483e+06 5.04673e+06 5.04842e+06 5.04987e+06
          5.05104e+06 5.0519e+06 5.05243e+06 5.0526e+06 5e+06 5.00284e+06 5.00568e+06 5.00851e+06 5.01133e+06 5.01415e+06 5.01695e+06 5.01973e+06
          5.02249e+06 5.02522e+06 5.02791e+06 5.03056e+06 5.03316e+06 5.03568e+06 5.03812e+06 5.04046e+06 5.04267e+06 5.04473e+06 5.04662e+06 5.04829e+06
          5.04972e+06 5.05087e+06 5.05172e+06 5.05224e+06 5.05242e+06
        </DataArray>
        <DataArray type="Float32" Name="pC" NumberOfComponents="1" format="ascii">
          10000 10000 10000 10000 10000 10000 10000 10000 10000 10000 10000 10000
          10000 10000 10000 10000 10000 10000 10000 10000 10000 10000 10000 10000
          10000 10000 10000 10000 10000 10000 10000 10000 10000 10000 10000 10000
          10000 10000 10000 10000 10000 10000 10000 10000 10000 10000 10000 10000
          10000 10000 10000 10000 10000 10000 10000 10000 10000 10000 10000 10000
          10000 10000 10000 10000 10000 10000 10000 10000 10000 10000 10000 10000
          10000 10065.6 11388.9 10000 10000 10000 10000 10000 10000 10000 10000 10000
          10000 10000 10000 10000 10000 10000 10000 10000 10000 10000 10000 10000
          10000 10000 11318.5 12401.8 10000 10000 10000 10000 10000 10000 10000 10000
          10000 10000 10000 10000 10000 10000 10000 10000 10000 10000 10000 10000
          10000 10000 10078.8 11397.2 12447.3 10000 10000 10000 10000 10000 10000 10000
          10000 10000 10000 10000 10000 10000 10000 10000 10000 10000 10000 10000
          10000 10000 10000 10000 11321.8 12404.8 10000 10000 10000 10000 10000 10000
          10000 10000 10000 10000 10000 10000 10000 10000 10000 10000 10000 10000
          10000 10000 10000 10000 10000 10166.5 11436.5 10000 10000 10000 10000 10000
          10000 10000 10000 10000 10000 10000 10000 10000 10000 10000 10000 10000
          10000 10000 10000 10000 10000 10000 10000 10000 10000 10000 10000 10000
          10000 10000 10000 10000 10000 10000 10000 10000 10000 10000 10000 10000
          10000 10000 10000 10000 10000 10000 10000 10000 10000 10000 10000 10000
          10000 10000 10000 10000 10000 10000 10000 10000 10000 10000 10000 10000
          10000 10000 10000 10000 10000 10000 10000 10000 10000 10000 10000 10000
          10000 10000 10000 10000 10000 10000 10000 10000 10000 10000 10000 10000
          10000 10000 10000 10000 10000 10000 10000 10000 10000 10000 10000 10000
          10000 10000 10000 10000 10000 10000 10000 10000 10000 10000 10000 10000
          10000 10000 10000 10000 10000 10000 10000 10000 10000 10000 10000 10000
          10000 10000 10000 10000 10000 10000 10000 10000 10000 10000 10000 10000
          10000 10000 10000 10000 10000 10000 10000 10000 10000 10000 10000 10000
          10000 10000 10000 10000 10000 10000 10000 10000 10000 10000 10000 10000
          10000 10000 10000 10000 10000 10000 10000 10000 10000 10000 10000 10000
          10000 10000 10000 10000 10000 10000 10000 10000 10000 10000 10000 10000
          10000 10000 10000 10000 10000 10000 10000 10000 10000 10000 10000 10000
          10000 10000 10000 10000 10000 10000 10000 10000 10000 10000 10000 10000
          10000 10000 10000 10000 10000 10000 10000 10000 10000 10000 10000 10000
          10000 10000 10000 10000 10000 10000 10000 10000 10000 10000 10000 10000
          10000 10000 10000 10000 10000 10000 10000 10000 10000 10000 10000 10000
          10000 10000 10000 10000 10000
        </DataArray>
        <DataArray type="Float32" Name="rhoW" NumberOfComponents="1" format="ascii">
          1063.94 1063.94 1063.94 1063.94 1063.94 1063.94 1063.95 1063.95 1063.95 1063.95 1063.95 1063.95
          1063.95 1063.95 1063.95 1063.95 1063.95 1063.95 1063.95 1063.95 1063.95 1063.95 1063.95 1063.95
          1063.96 1063.96 1063.96 1063.96 1063.96 1063.96 1063.96 1063.96 1063.96 1063.96 1063.96 1063.96
          1063.96 1063.96 1063.96 1063.96 1063.97 1063.97 1063.97 1063.97 1063.97 1063.98 1063.97 1064.22
          1064.03 1067.22 1063.94 1063.94 1063.94 1063.95 1063.95 1063.95 1063.95 1063.95 1063.95 1063.95
          1063.95 1063.95 1063.96 1063.96 1063.96 1063.96 1063.96 1063.96 1063.96 1063.96 1063.97 1063.99
          1064.36 1069.4 1069.41 1063.94 1063.94 1063.94 1063.95 1063.95 1063.95 1063.95 1063.95 1063.95
          1063.95 1063.95 1063.95 1063.96 1063.96 1063.96 1063.96 1063.96 1063.96 1063.96 1063.97 1063.98
          1064.23 1068.26 1069.41 1069.41 1063.94 1063.94 1063.94 1063.95 1063.95 1063.95 1063.95 1063.95
          1063.95 1063.95 1063.95 1063.95 1063.96 1063.96 1063.96 1063.96 1063.96 1063.96 1063.96 1063.97
          1063.99 1064.35 1069.4 1069.41 1069.41 1063.94 1063.94 1063.94 1063.95 1063.95 1063.95 1063.95
          1063.95 1063.95 1063.95 1063.95 1063.95 1063.96 1063.96 1063.96 1063.96 1063.96 1063.96 1063.96
          1063.97 1063.98 1064.23 1068.33 1069.41 1069.41 1063.94 1063.94 1063.94 1063.95 1063.95 1063.95
          1063.95 1063.95 1063.95 1063.95 1063.95 1063.95 1063.96 1063.96 1063.96 1063.96 1063.96 1063.96
          1063.96 1063.96 1063.97 1063.99 1064.42 1069.41 1069.41 1063.94 1063.94 1063.94 1063.95 1063.95
          1063.95 1063.95 1063.95 1063.95 1063.95 1063.95 1063.95 1063.96 1063.96 1063.96 1063.96 1063.96
          1063.96 1063.96 1063.96 1063.97 1063.97 1063.99 1064.31 1068.09 1063.94 1063.94 1063.94 1063.95
          1063.95 1063.95 1063.95 1063.95 1063.95 1063.95 1063.95 1063.95 1063.96 1063.96 1063.96 1063.96
          1063.96 1063.96 1063.96 1063.96 1063.97 1063.97 1063.97 1063.98 1064.06 1063.94 1063.94 1063.94
          1063.95 1063.95 1063.95 1063.95 1063.95 1063.95 1063.95 1063.95 1063.95 1063.96 1063.96 1063.96
          1063.96 1063.96 1063.96 1063.96 1063.96 1063.96 1063.97 1063.97 1063.97 1063.97 1063.94 1063.94
          1063.94 1063.95 1063.95 1063.95 1063.95 1063.95 1063.95 1063.95 1063.95 1063.95 1063.96 1063.96
          1063.96 1063.96 1063.96 1063.96 1063.96 1063.96 1063.96 1063.96 1063.97 1063.97 1063.97 1063.94
          1063.94 1063.94 1063.94 1063.95 1063.95 1063.95 1063.95 1063.95 1063.95 1063.95 1063.95 1063.96
          1063.96 1063.96 1063.96 1063.96 1063.96 1063.96 1063.96 1063.96 1063.96 1063.96 1063.96 1063.96
          1063.94 1063.94 1063.94 1063.94 1063.95 1063.95 1063.95 1063.95 1063.95 1063.95 1063.95 1063.95
          1063.96 1063.96 1063.96 1063.96 1063.96 1063.96 1063.96 1063.96 1063.96 1063.96 1063.96 1063.96
          1063.96 1063.94 1063.94 1063.94 1063.94 1063.95 1063.95 1063.95 1063.95 1063.95 1063.95 1063.95
          1063.95 1063.96 1063.96 1063.96 1063.96 1063.96 1063.96 1063.96 1063.96 1063.96 1063.96 1063.96
          1063.96 1063.96 1063.94 1063.94 1063.94 1063.94 1063.95 1063.95 1063.95 1063.95 1063.95 1063.95
          1063.95 1063.95 1063.96 1063.96 1063.96 1063.96 1063.96 1063.96 1063.96 1063.96 1063.96 1063.96
          1063.96 1063.96 1063.96 1063.94 1063.94 1063.94 1063.94 1063.95 1063.95 1063.95 1063.95 1063.95
          1063.95 1063.95 1063.95 1063.95 1063.96 1063.96 1063.96 1063.96 1063.96 1063.96 1063.96 1063.96
          1063.96 1063.96 1063.96 1063.96 1063.94 1063.94 1063.94 1063.94 1063.95 1063.95 1063.95 1063.95
          1063.95 1063.95 1063.95 1063.95 1063.95 1063.96 1063.96 1063.96 1063.96 1063.96 1063.96 1063.96
          1063.96 1063.96 1063.96 1063.96 1063.96
        </DataArray>
        <DataArray type="Float32" Name="rhoN" NumberOfComponents="1" format="ascii">
          113.379 113.475 113.379 113.475 113.572 113.572 113.669 113.669 113.765 113.765 113.862 113.862
          113.959 113.959 114.056 114.056 114.153 114.153 114.25 114.25 114.348 114.348 114.446 114.445
          114.544 114.543 114.642 114.642 114.741 114.74 114.84 114.839 114.939 114.939 115.039 115.039
          115.14 115.14 115.24 115.24 115.338 115.34 115.433 115.438 115.516 115.528 115.573 115.596
          115.592 115.608 113.379 113.475 113.572 113.668 113.765 113.862 113.959 114.056 114.153 114.25
          114.347 114.445 114.543 114.641 114.74 114.839 114.938 115.039 115.14 115.242 115.344 115.448
          115.555 115.673 115.796 113.379 113.475 113.572 113.668 113.765 113.862 113.959 114.055 114.152
          114.25 114.347 114.444 114.542 114.64 114.739 114.838 114.937 115.037 115.139 115.242 115.348
          115.458 115.564 115.821 115.933 113.379 113.475 113.572 113.668 113.765 113.862 113.958 114.055
          114.152 114.249 114.346 114.444 114.541 114.639 114.737 114.836 114.935 115.035 115.136 115.24
          115.347 115.46 115.619 115.854 115.975 113.379 113.475 113.572 113.668 113.765 113.861 113.958
          114.055 114.152 114.248 114.346 114.443 114.54 114.638 114.736 114.834 114.933 115.032 115.132
          115.234 115.34 115.451 115.56 115.822 115.936 113.379 113.475 113.571 113.668 113.764 113.861
          113.958 114.054 114.151 114.248 114.345 114.442 114.539 114.636 114.734 114.831 114.929 115.028
          115.127 115.226 115.327 115.43 115.541 115.7 115.789 113.379 113.475 113.571 113.668 113.764
          113.861 113.957 114.054 114.15 114.247 114.344 114.441 114.537 114.634 114.732 114.829 114.926
          115.023 115.12 115.217 115.313 115.408 115.498 115.564 115.573 113.379 113.475 113.571 113.668
          113.764 113.86 113.957 114.053 114.15 114.246 114.343 114.439 114.536 114.633 114.729 114.826
          114.922 115.019 115.115 115.209 115.301 115.388 115.462 115.513 115.53 113.379 113.475 113.571
          113.667 113.762 113.858 113.954 114.05 114.146 114.242 114.337 114.433 114.528 114.623 114.718
          114.812 114.905 114.998 115.089 115.177 115.261 115.337 115.4 115.441 115.456 113.379 113.474
          113.569 113.665 113.76 113.855 113.95 114.045 114.14 114.234 114.328 114.421 114.514 114.607
          114.698 114.788 114.876 114.962 115.045 115.124 115.196 115.259 115.308 115.34 115.351 113.379
          113.473 113.568 113.663 113.758 113.852 113.946 114.04 114.134 114.227 114.319 114.411 114.502
          114.592 114.68 114.766 114.85 114.93 115.006 115.077 115.14 115.194 115.235 115.261 115.27
          113.379 113.473 113.567 113.662 113.756 113.85 113.943 114.036 114.129 114.221 114.312 114.402
          114.491 114.579 114.664 114.747 114.827 114.903 114.974 115.038 115.095 115.142 115.178 115.2
          115.208 113.379 113.473 113.567 113.66 113.754 113.847 113.94 114.033 114.125 114.216 114.306
          114.395 114.482 114.568 114.651 114.732 114.808 114.881 114.948 115.008 115.06 115.103 115.135
          115.155 115.162 113.379 113.472 113.566 113.66 113.753 113.846 113.938 114.03 114.122 114.212
          114.302 114.39 114.476 114.56 114.642 114.72 114.795 114.865 114.929 114.986 115.036 115.076
          115.106 115.124 115.13 113.379 113.472 113.566 113.659 113.752 113.845 113.937 114.029 114.12
          114.21 114.299 114.386 114.472 114.555 114.636 114.714 114.787 114.855 114.918 114.973 115.021
          115.06 115.088 115.105 115.111 113.379 113.472 113.566 113.659 113.752 113.845 113.937 114.028
          114.119 114.209 114.298 114.385 114.471 114.554 114.634 114.711 114.784 114.852 114.914 114.969
          115.016 115.054 115.082 115.099 115.105
        </DataArray>
        <DataArray type="Float32" Name="mobW" NumberOfComponents="1" format="ascii">
          1150.62 1150.62 1150.62 1150.62 1150.62 1150.62 1150.62 1150.62 1150.62 1150.62 1150.62 1150.62
          1150.62 1150.62 1150.62 1150.62 1150.62 1150.62 1150.62 1150.62 1150.62 1150.62 1150.62 1150.62
          1150.62 1150.62 1150.62 1150.62 1150.62 1150.62 1150.62 1150.62 1150.62 1150.62 1150.62 1150.62
          1150.62 1150.62 1150.62 1150.62 1150.62 1150.62 1150.62 1150.62 1150.62 1150.62 1150.62 1150.62
          1150.62 1150.62 1150.62 1150.62 1150.62 1150.62 1150.62 1150.62 1150.62 1150.62 1150.62 1150.62
          1150.62 1150.62 1150.62 1150.62 1150.62 1150.62 1150.62 1150.62 1150.62 1150.62 1150.62 1150.62
          1150.62 1092 406.506 1150.62 1150.62 1150.62 1150.62 1150.62 1150.62 1150.62 1150.62 1150.62
          1150.62 1150.62 1150.62 1150.62 1150.62 1150.62 1150.62 1150.62 1150.62 1150.62 1150.62 1150.62
          1150.62 1150.62 427.184 205.613 1150.62 1150.62 1150.62 1150.62 1150.62 1150.62 1150.62 1150.62
          1150.62 1150.62 1150.62 1150.62 1150.62 1150.62 1150.62 1150.62 1150.62 1150.62 1150.62 1150.62
          1150.62 1150.62 1080.56 404.15 199.685 1150.62 1150.62 1150.62 1150.62 1150.62 1150.62 1150.62
          1150.62 1150.62 1150.62 1150.62 1150.62 1150.62 1150.62 1150.62 1150.62 1150.62 1150.62 1150.62
          1150.62 1150.62 1150.62 1150.62 426.194 205.219 1150.62 1150.62 1150.62 1150.62 1150.62 1150.62
          1150.62 1150.62 1150.62 1150.62 1150.62 1150.62 1150.62 1150.62 1150.62 1150.62 1150.62 1150.62
          1150.62 1150.62 1150.62 1150.62 1150.62 1008.23 393.165 1150.62 1150.62 1150.62 1150.62 1150.62
          1150.62 1150.62 1150.62 1150.62 1150.62 1150.62 1150.62 1150.62 1150.62 1150.62 1150.62 1150.62
          1150.62 1150.62 1150.62 1150.62 1150.62 1150.62 1150.62 1150.62 1150.62 1150.62 1150.62 1150.62
          1150.62 1150.62 1150.62 1150.62 1150.62 1150.62 1150.62 1150.62 1150.62 1150.62 1150.62 1150.62
          1150.62 1150.62 1150.62 1150.62 1150.62 1150.62 1150.62 1150.62 1150.62 1150.62 1150.62 1150.62
          1150.62 1150.62 1150.62 1150.62 1150.62 1150.62 1150.62 1150.62 1150.62 1150.62 1150.62 1150.62
          1150.62 1150.62 1150.62 1150.62 1150.62 1150.62 1150.62 1150.62 1150.62 1150.62 1150.62 1150.62
          1150.62 1150.62 1150.62 1150.62 1150.62 1150.62 1150.62 1150.62 1150.62 1150.62 1150.62 1150.62
          1150.62 1150.62 1150.62 1150.62 1150.62 1150.62 1150.62 1150.62 1150.62 1150.62 1150.62 1150.62
          1150.62 1150.62 1150.62 1150.62 1150.62 1150.62 1150.62 1150.62 1150.62 1150.62 1150.62 1150.62
          1150.62 1150.62 1150.62 1150.62 1150.62 1150.62 1150.62 1150.62 1150.62 1150.62 1150.62 1150.62
          1150.62 1150.62 1150.62 1150.62 1150.62 1150.62 1150.62 1150.62 1150.62 1150.62 1150.62 1150.62
          1150.62 1150.62 1150.62 1150.62 1150.62 1150.62 1150.62 1150.62 1150.62 1150.62 1150.62 1150.62
          1150.62 1150.62 1150.62 1150.62 1150.62 1150.62 1150.62 1150.62 1150.62 1150.62 1150.62 1150.62
          1150.62 1150.62 1150.62 1150.62 1150.62 1150.62 1150.62 1150.62 1150.62 1150.62 1150.62 1150.62
          1150.62 1150.62 1150.62 1150.62 1150.62 1150.62 1150.62 1150.62 1150.62 1150.62 1150.62 1150.62
          1150.62 1150.62 1150.62 1150.62 1150.62 1150.62 1150.62 1150.62 1150.62 1150.62 1150.62 1150.62
          1150.62 1150.62 1150.62 1150.62 1150.62 1150.62 1150.62 1150.62 1150.62 1150.62 1150.62 1150.62
          1150.62 1150.62 1150.62 1150.62 1150.62 1150.62 1150.62 1150.62 1150.62 1150.62 1150.62 1150.62
          1150.62 1150.62 1150.62 1150.62 1150.62 1150.62 1150.62 1150.62 1150.62 1150.62 1150.62 1150.62
          1150.62 1150.62 1150.62 1150.62 1150.62 1150.62 1150.62 1150.62 1150.62 1150.62 1150.62 1150.62
          1150.62 1150.62 1150.62 1150.62 1150.62
        </DataArray>
        <DataArray type="Float32" Name="mobN" NumberOfComponents="1" format="ascii">
          0 0 0 0 0 0 0 0 0 0 0 0
          0 0 0 0 0 0 0 0 0 0 0 0
          0 0 0 0 0 0 0 0 0 0 0 0
          0 0 0 0 0 0 0 0 0 0 0 0
          0 0 0 0 0 0 0 0 0 0 0 0
          0 0 0 0 0 0 0 0 0 0 0 0
          0 0.254805 1245.42 0 0 0 0 0 0 0 0 0
          0 0 0 0 0 0 0 0 0 0 0 0
          0 0 1100.86 4134.31 0 0 0 0 0 0 0 0
          0 0 0 0 0 0 0 0 0 0 0 0
          0 0 0.439641 1262.89 4292 0 0 0 0 0 0 0
          0 0 0 0 0 0 0 0 0 0 0 0
          0 0 0 0 1107.41 4144.56 0 0 0 0 0 0
          0 0 0 0 0 0 0 0 0 0 0 0
          0 0 0 0 0 3.94911 1347.97 0 0 0 0 0
          0 0 0 0 0 0 0 0 0 0 0 0
          0 0 0 0 0 0 0 0 0 0 0 0
          0 0 0 0 0 0 0 0 0 0 0 0
          0 0 0 0 0 0 0 0 0 0 0 0
          0 0 0 0 0 0 0 0 0 0 0 0
          0 0 0 0 0 0 0 0 0 0 0 0
          0 0 0 0 0 0 0 0 0 0 0 0
          0 0 0 0 0 0 0 0 0 0 0 0
          0 0 0 0 0 0 0 0 0 0 0 0
          0 0 0 0 0 0 0 0 0 0 0 0
          0 0 0 0 0 0 0 0 0 0 0 0
          0 0 0 0 0 0 0 0 0 0 0 0
          0 0 0 0 0 0 0 0 0 0 0 0
          0 0 0 0 0 0 0 0 0 0 0 0
          0 0 0 0 0 0 0 0 0 0 0 0
          0 0 0 0 0 0 0 0 0 0 0 0
          0 0 0 0 0 0 0 0 0 0 0 0
          0 0 0 0 0 0 0 0 0 0 0 0
          0 0 0 0 0 0 0 0 0 0 0 0
          0 0 0 0 0 0 0 0 0 0 0 0
          0 0 0 0 0
        </DataArray>
        <DataArray type="Float32" Name="X_l^Brine" NumberOfComponents="1" format="ascii">
          1 1 1 1 1 1 1 1 1 1 1 1
          1 1 1 1 1 1 1 1 1 1 1 1
          1 1 1 1 1 1 1 1 1 1 1 1