<?xml version="1.0"?>
<VTKFile type="UnstructuredGrid" version="0.1" byte_order="LittleEndian">
  <UnstructuredGrid>
    <Piece NumberOfCells="384" NumberOfPoints="425">
      <PointData Scalars="Sn">
        <DataArray type="Float32" Name="Sn" NumberOfComponents="1" format="ascii">
          0 0 0 0 0 0 0 0 0 0 0 0
          0 0 0 0 0 0 0 0 0 0 0 0
          0 0 0 0 0 0 0 0 0 0 0 0
          0 0 0 0 0 0 0 0 0 0 0 0
          0 0 0 0 0 0 0 0 0 0 0 0
          0 0 0 0 0 0 0 0 0 0 0 0
          0 0.0109396 0.183283 0 0 0 0 0 0 0 0 0
          0 0 0 0 0 0 0 0 0 0 0 0
          0 0 0.175619 0.279886 0 0 0 0 0 0 0 0
          0 0 0 0 0 0 0 0 0 0 0 0
          0 0 0.0131142 0.184207 0.283678 0 0 0 0 0 0 0
          0 0 0 0 0 0 0 0 0 0 0 0
          0 0 0 0 0.175994 0.280139 0 0 0 0 0 0
          0 0 0 0 0 0 0 0 0 0 0 0
          0 0 0 0 0 0.0265228 0.188458 0 0 0 0 0
          0 0 0 0 0 0 0 0 0 0 0 0
          0 0 0 0 0 0 0 0 0 0 0 0
          0 0 0 0 0 0 0 0 0 0 0 0
          0 0 0 0 0 0 0 0 0 0 0 0
          0 0 0 0 0 0 0 0 0 0 0 0
          0 0 0 0 0 0 0 0 0 0 0 0
          0 0 0 0 0 0 0 0 0 0 0 0
          0 0 0 0 0 0 0 0 0 0 0 0
          0 0 0 0 0 0 0 0 0 0 0 0
          0 0 0 0 0 0 0 0 0 0 0 0
          0 0 0 0 0 0 0 0 0 0 0 0
          0 0 0 0 0 0 0 0 0 0 0 0
          0 0 0 0 0 0 0 0 0 0 0 0
          0 0 0 0 0 0 0 0 0 0 0 0
          0 0 0 0 0 0 0 0 0 0 0 0
          0 0 0 0 0 0 0 0 0 0 0 0
          0 0 0 0 0 0 0 0 0 0 0 0
          0 0 0 0 0 0 0 0 0 0 0 0
          0 0 0 0 0 0 0 0 0 0 0 0
          0 0 0 0 0 0 0 0 0 0 0 0
          0 0 0 0 0
        </DataArray>
        <DataArray type="Float32" Name="Sw" NumberOfComponents="1" format="ascii">
          1 1 1 1 1 1 1 1 1 1 1 1
          1 1 1 1 1 1 1 1 1 1 1 1
          1 1 1 1 1 1 1 1 1 1 1 1
          1 1 1 1 1 1 1 1 1 1 1 1
          1 1 1 1 1 1 1 1 1 1 1 1
          1 1 1 1 1 1 1 1 1 1 1 1
          1 0.98906 0.816717 1 1 1 1 1 1 1 1 1
          1 1 1 1 1 1 1 1 1 1 1 1
          1 1 0.824381 0.720114 1 1 1 1 1 1 1 1
          1 1 1 1 1 1 1 1 1 1 1 1
          1 1 0.986886 0.815793 0.716322 1 1 1 1 1 1 1
          1 1 1 1 1 1 1 1 1 1 1 1
          1 1 1 1 0.824006 0.719861 1 1 1 1 1 1
          1 1 1 1 1 1 1 1 1 1 1 1
          1 1 1 1 1 0.973477 0.811542 1 1 1 1 1
          1 1 1 1 1 1 1 1 1 1 1 1
          1 1 1 1 1 1 1 1 1 1 1 1
          1 1 1 1 1 1 1 1 1 1 1 1
          1 1 1 1 1 1 1 1 1 1 1 1
          1 1 1 1 1 1 1 1 1 1 1 1
          1 1 1 1 1 1 1 1 1 1 1 1
          1 1 1 1 1 1 1 1 1 1 1 1
          1 1 1 1 1 1 1 1 1 1 1 1
          1 1 1 1 1 1 1 1 1 1 1 1
          1 1 1 1 1 1 1 1 1 1 1 1
          1 1 1 1 1 1 1 1 1 1 1 1
          1 1 1 1 1 1 1 1 1 1 1 1
          1 1 1 1 1 1 1 1 1 1 1 1
          1 1 1 1 1 1 1 1 1 1 1 1
          1 1 1 1 1 1 1 1 1 1 1 1
          1 1 1 1 1 1 1 1 1 1 1 1
          1 1 1 1 1 1 1 1 1 1 1 1
          1 1 1 1 1 1 1 1 1 1 1 1
          1 1 1 1 1 1 1 1 1 1 1 1
          1 1 1 1 1 1 1 1 1 1 1 1
          1 1 1 1 1
        </DataArray>
        <DataArray type="Float32" Name="pN" NumberOfComponents="1" format="ascii">
          5.01e+06 5.01297e+06 5.01e+06 5.01297e+06 5.01594e+06 5.01594e+06 5.01891e+06 5.0189e+06 5.02188e+06 5.02188e+06 5.02485e+06 5.02485e+06
          5.02782e+06 5.02782e+06 5.0308e+06 5.0308e+06 5.03379e+06 5.03378e+06 5.03677e+06 5.03677e+06 5.03977e+06 5.03977e+06 5.04277e+06 5.04277e+06
          5.04578e+06 5.04578e+06 5.0488e+06 5.0488e+06 5.05183e+06 5.05183e+06 5.05488e+06 5.05487e+06 5.05794e+06 5.05794e+06 5.06102e+06 5.06101e+06
          5.0641e+06 5.0641e+06 5.06718e+06 5.0672e+06 5.07022e+06 5.07027e+06 5.07313e+06 5.07327e+06 5.07568e+06 5.07605e+06 5.07743e+06 5.07816e+06
          5.07803e+06 5.07851e+06 5.01e+06 5.01297e+06 5.01593e+06 5.0189e+06 5.02187e+06 5.02484e+06 5.02782e+06 5.0308e+06 5.03378e+06 5.03676e+06
          5.03976e+06 5.04276e+06 5.04576e+06 5.04878e+06 5.05181e+06 5.05485e+06 5.05791e+06 5.061e+06 5.0641e+06 5.06723e+06 5.0704e+06 5.07358e+06
          5.0769e+06 5.08056e+06 5.08424e+06 5.01e+06 5.01297e+06 5.01593e+06 5.0189e+06 5.02187e+06 5.02484e+06 5.02781e+06 5.03079e+06 5.03377e+06
          5.03675e+06 5.03974e+06 5.04274e+06 5.04574e+06 5.04875e+06 5.05178e+06 5.05482e+06 5.05787e+06 5.06096e+06 5.06407e+06 5.06724e+06 5.07049e+06
          5.07391e+06 5.07716e+06 5.08498e+06 5.08837e+06 5.01e+06 5.01296e+06 5.01593e+06 5.0189e+06 5.02186e+06 5.02483e+06 5.0278e+06 5.03078e+06
          5.03376e+06 5.03674e+06 5.03972e+06 5.04271e+06 5.04571e+06 5.04872e+06 5.05174e+06 5.05477e+06 5.05781e+06 5.06089e+06 5.064e+06 5.06717e+06
          5.07046e+06 5.07395e+06 5.0789e+06 5.08596e+06 5.08961e+06 5.01e+06 5.01296e+06 5.01593e+06 5.01889e+06 5.02186e+06 5.02482e+06 5.02779e+06
          5.03076e+06 5.03374e+06 5.03672e+06 5.0397e+06 5.04268e+06 5.04568e+06 5.04867e+06 5.05168e+06 5.0547e+06 5.05773e+06 5.06078e+06 5.06386e+06
          5.067e+06 5.07023e+06 5.07365e+06 5.07698e+06 5.08494e+06 5.0884e+06 5.01e+06 5.01296e+06 5.01592e+06 5.01889e+06 5.02185e+06 5.02482e+06
          5.02778e+06 5.03075e+06 5.03372e+06 5.03669e+06 5.03967e+06 5.04265e+06 5.04563e+06 5.04862e+06 5.05162e+06 5.05462e+06 5.05763e+06 5.06065e+06
          5.06369e+06 5.06675e+06 5.06985e+06 5.073e+06 5.07637e+06 5.08122e+06 5.08392e+06 5.01e+06 5.01296e+06 5.01592e+06 5.01888e+06 5.02184e+06
          5.02481e+06 5.02777e+06 5.03073e+06 5.0337e+06 5.03667e+06 5.03964e+06 5.04261e+06 5.04559e+06 5.04857e+06 5.05155e+06 5.05454e+06 5.05752e+06
          5.06051e+06 5.06349e+06 5.06646e+06 5.06941e+06 5.07229e+06 5.07505e+06 5.07706e+06 5.07733e+06 5.01e+06 5.01296e+06 5.01592e+06 5.01888e+06
          5.02183e+06 5.02479e+06 5.02776e+06 5.03072e+06 5.03368e+06 5.03664e+06 5.03961e+06 5.04258e+06 5.04554e+06 5.04851e+06 5.05148e+06 5.05445e+06
          5.05741e+06 5.06037e+06 5.06331e+06 5.06621e+06 5.06903e+06 5.07168e+06 5.07396e+06 5.0755e+06 5.07602e+06 5.01e+06 5.01295e+06 5.01589e+06
          5.01884e+06 5.02179e+06 5.02473e+06 5.02768e+06 5.03062e+06 5.03356e+06 5.0365e+06 5.03944e+06 5.04237e+06 5.0453e+06 5.04822e+06 5.05112e+06
          5.05402e+06 5.05689e+06 5.05972e+06 5.06251e+06 5.06522e+06 5.06779e+06 5.07012e+06 5.07204e+06 5.07331e+06 5.07375e+06 5.01e+06 5.01293e+06
          5.01586e+06 5.01878e+06 5.02171e+06 5.02463e+06 5.02755e+06 5.03046e+06 5.03337e+06 5.03627e+06 5.03915e+06 5.04202e+06 5.04488e+06 5.04771e+06
          5.05051e+06 5.05327e+06 5.05598e+06 5.05862e+06 5.06116e+06 5.06357e+06 5.06578e+06 5.06771e+06 5.06922e+06 5.0702e+06 5.07054e+06 5.01e+06
          5.01291e+06 5.01582e+06 5.01873e+06 5.02164e+06 5.02454e+06 5.02743e+06 5.03032e+06 5.03319e+06 5.03605e+06 5.03889e+06 5.04171e+06 5.0445e+06
          5.04725e+06 5.04995e+06 5.05259e+06 5.05516e+06 5.05763e+06 5.05997e+06 5.06214e+06 5.06408e+06 5.06572e+06 5.06698e+06 5.06778e+06 5.06805e+06
          5.01e+06 5.0129e+06 5.0158e+06 5.01869e+06 5.02158e+06 5.02446e+06 5.02733e+06 5.03019e+06 5.03304e+06 5.03586e+06 5.03866e+06 5.04143e+06
          5.04416e+06 5.04684e+06 5.04946e+06 5.05201e+06 5.05446e+06 5.05679e+06 5.05896e+06 5.06095e+06 5.06269e+06 5.06414e+06 5.06523e+06 5.06591e+06
          5.06614e+06 5.01e+06 5.01289e+06 5.01577e+06 5.01865e+06 5.02153e+06 5.02439e+06 5.02725e+06 5.03009e+06 5.03291e+06 5.03571e+06 5.03848e+06
          5.04121e+06 5.04389e+06 5.04652e+06 5.04907e+06 5.05154e+06 5.05389e+06 5.05611e+06 5.05817e+06 5.06002e+06 5.06162e+06 5.06294e+06 5.06392e+06
          5.06452e+06 5.06473e+06 5.01e+06 5.01288e+06 5.01575e+06 5.01863e+06 5.02149e+06 5.02435e+06 5.02719e+06 5.03001e+06 5.03282e+06 5.0356e+06
          5.03834e+06 5.04104e+06 5.04369e+06 5.04628e+06 5.04878e+06 5.05119e+06 5.05348e+06 5.05562e+06 5.05759e+06 5.05935e+06 5.06087e+06 5.0621e+06
          5.063e+06 5.06356e+06 5.06375e+06 5.01e+06 5.01287e+06 5.01574e+06 5.01861e+06 5.02147e+06 5.02432e+06 5.02715e+06 5.02997e+06 5.03276e+06
          5.03553e+06 5.03826e+06 5.04094e+06 5.04357e+06 5.04613e+06 5.0486e+06 5.05098e+06 5.05323e+06 5.05533e+06 5.05725e+06 5.05895e+06 5.06042e+06
          5.0616e+06 5.06247e+06 5.063e+06 5.06318e+06 5.01e+06 5.01287e+06 5.01574e+06 5.0186e+06 5.02146e+06 5.02431e+06 5.02714e+06 5.02995e+06
          5.03274e+06 5.0355e+06 5.03823e+06 5.0409e+06 5.04353e+06 5.04608e+06 5.04855e+06 5.05091e+06 5.05314e+06 5.05523e+06 5.05713e+06 5.05882e+06
          5.06026e+06 5.06143e+06 5.06229e+06 5.06281e+06 5.06299e+06
        </DataArray>
        <DataArray type="Float32" Name="pW" NumberOfComponents="1" format="ascii">
          5e+06 5.00297e+06 5e+06 5.00297e+06 5.00594e+06 5.00594e+06 5.00891e+06 5.0089e+06 5.01188e+06 5.01188e+06 5.01485e+06 5.01485e+06
          5.01782e+06 5.01782e+06 5.0208e+06 5.0208e+06 5.02379e+06 5.02378e+06 5.02677e+06 5.02677e+06 5.02977e+06 5.02977e+06 5.03277e+06 5.03277e+06
          5.03578e+06 5.03578e+06 5.0388e+06 5.0388e+06 5.04183e+06 5.04183e+06 5.04488e+06 5.04487e+06 5.04794e+06 5.04794e+06 5.05102e+06 5.05101e+06
          5.0541e+06 5.0541e+06 5.05718e+06 5.0572e+06 5.06022e+06 5.06027e+06 5.06313e+06 5.06327e+06 5.06568e+06 5.06605e+06 5.06743e+06 5.06816e+06
          5.06803e+06 5.06851e+06 5e+06 5.00297e+06 5.00593e+06 5.0089e+06 5.01187e+06 5.01484e+06 5.01782e+06 5.0208e+06 5.02378e+06 5.02676e+06
          5.02976e+06 5.03276e+06 5.03576e+06 5.03878e+06 5.04181e+06 5.04485e+06 5.04791e+06 5.051e+06 5.0541e+06 5.05723e+06 5.0604e+06 5.06358e+06
          5.0669e+06 5.07049e+06 5.07285e+06 5e+06 5.00297e+06 5.00593e+06 5.0089e+06 5.01187e+06 5.01484e+06 5.01781e+06 5.02079e+06 5.02377e+06
          5.02675e+06 5.02974e+06 5.03274e+06 5.03574e+06 5.03875e+06 5.04178e+06 5.04482e+06 5.04787e+06 5.05096e+06 5.05407e+06 5.05724e+06 5.06049e+06
          5.06391e+06 5.06716e+06 5.07366e+06 5.07597e+06 5e+06 5.00296e+06 5.00593e+06 5.0089e+06 5.01186e+06 5.01483e+06 5.0178e+06 5.02078e+06
          5.02376e+06 5.02674e+06 5.02972e+06 5.03271e+06 5.03571e+06 5.03872e+06 5.04174e+06 5.04477e+06 5.04781e+06 5.05089e+06 5.054e+06 5.05717e+06
          5.06046e+06 5.06395e+06 5.06882e+06 5.07456e+06 5.07716e+06 5e+06 5.00296e+06 5.00593e+06 5.00889e+06 5.01186e+06 5.01482e+06 5.01779e+06
          5.02076e+06 5.02374e+06 5.02672e+06 5.0297e+06 5.03268e+06 5.03568e+06 5.03867e+06 5.04168e+06 5.0447e+06 5.04773e+06 5.05078e+06 5.05386e+06
          5.057e+06 5.06023e+06 5.06365e+06 5.06698e+06 5.07362e+06 5.076e+06 5e+06 5.00296e+06 5.00592e+06 5.00889e+06 5.01185e+06 5.01482e+06
          5.01778e+06 5.02075e+06 5.02372e+06 5.02669e+06 5.02967e+06 5.03265e+06 5.03563e+06 5.03862e+06 5.04162e+06 5.04462e+06 5.04763e+06 5.05065e+06
          5.05369e+06 5.05675e+06 5.05985e+06 5.063e+06 5.06637e+06 5.07105e+06 5.07248e+06 5e+06 5.00296e+06 5.00592e+06 5.00888e+06 5.01184e+06
          5.01481e+06 5.01777e+06 5.02073e+06 5.0237e+06 5.02667e+06 5.02964e+06 5.03261e+06 5.03559e+06 5.03857e+06 5.04155e+06 5.04454e+06 5.04752e+06
          5.05051e+06 5.05349e+06 5.05646e+06 5.05941e+06 5.06229e+06 5.06505e+06 5.06706e+06 5.06733e+06 5e+06 5.00296e+06 5.00592e+06 5.00888e+06
          5.01183e+06 5.01479e+06 5.01776e+06 5.02072e+06 5.02368e+06 5.02664e+06 5.02961e+06 5.03258e+06 5.03554e+06 5.03851e+06 5.04148e+06 5.04445e+06
          5.04741e+06 5.05037e+06 5.05331e+06 5.05621e+06 5.05903e+06 5.06168e+06 5.06396e+06 5.0655e+06 5.06602e+06 5e+06 5.00295e+06 5.00589e+06
          5.00884e+06 5.01179e+06 5.01473e+06 5.01768e+06 5.02062e+06 5.02356e+06 5.0265e+06 5.02944e+06 5.03237e+06 5.0353e+06 5.03822e+06 5.04112e+06
          5.04402e+06 5.04689e+06 5.04972e+06 5.05251e+06 5.05522e+06 5.05779e+06 5.06012e+06 5.06204e+06 5.06331e+06 5.06375e+06 5e+06 5.00293e+06
          5.00586e+06 5.00878e+06 5.01171e+06 5.01463e+06 5.01755e+06 5.02046e+06 5.02337e+06 5.02627e+06 5.02915e+06 5.03202e+06 5.03488e+06 5.03771e+06
          5.04051e+06 5.04327e+06 5.04598e+06 5.04862e+06 5.05116e+06 5.05357e+06 5.05578e+06 5.05771e+06 5.05922e+06 5.0602e+06 5.06054e+06 5e+06
          5.00291e+06 5.00582e+06 5.00873e+06 5.01164e+06 5.01454e+06 5.01743e+06 5.02032e+06 5.02319e+06 5.02605e+06 5.02889e+06 5.03171e+06 5.0345e+06
          5.03725e+06 5.03995e+06 5.04259e+06 5.04516e+06 5.04763e+06 5.04997e+06 5.05214e+06 5.05408e+06 5.05572e+06 5.05698e+06 5.05778e+06 5.05805e+06
          5e+06 5.0029e+06 5.0058e+06 5.00869e+06 5.01158e+06 5.01446e+06 5.01733e+06 5.02019e+06 5.02304e+06 5.02586e+06 5.02866e+06 5.03143e+06
          5.03416e+06 5.03684e+06 5.03946e+06 5.04201e+06 5.04446e+06 5.04679e+06 5.04896e+06 5.05095e+06 5.05269e+06 5.05414e+06 5.05523e+06 5.05591e+06
          5.05614e+06 5e+06 5.00289e+06 5.00577e+06 5.00865e+06 5.01153e+06 5.01439e+06 5.01725e+06 5.02009e+06 5.02291e+06 5.02571e+06 5.02848e+06
          5.03121e+06 5.03389e+06 5.03652e+06 5.03907e+06 5.04154e+06 5.04389e+06 5.04611e+06 5.04817e+06 5.05002e+06 5.05162e+06 5.05294e+06 5.05392e+06
          5.05452e+06 5.05473e+06 5e+06 5.00288e+06 5.00575e+06 5.00863e+06 5.01149e+06 5.01435e+06 5.01719e+06 5.02001e+06 5.02282e+06 5.0256e+06
          5.02834e+06 5.03104e+06 5.03369e+06 5.03628e+06 5.03878e+06 5.04119e+06 5.04348e+06 5.04562e+06 5.04759e+06 5.04935e+06 5.05087e+06 5.0521e+06
          5.053e+06 5.05356e+06 5.05375e+06 5e+06 5.00287e+06 5.00574e+06 5.00861e+06 5.01147e+06 5.01432e+06 5.01715e+06 5.01997e+06 5.02276e+06
          5.02553e+06 5.02826e+06 5.03094e+06 5.03357e+06 5.03613e+06 5.0386e+06 5.04098e+06 5.04323e+06 5.04533e+06 5.04725e+06 5.04895e+06 5.05042e+06
          5.0516e+06 5.05247e+06 5.053e+06 5.05318e+06 5e+06 5.00287e+06 5.00574e+06 5.0086e+06 5.01146e+06 5.01431e+06 5.01714e+06 5.01995e+06
          5.02274e+06 5.0255e+06 5.02823e+06 5.0309e+06 5.03353e+06 5.03608e+06 5.03855e+06 5.04091e+06 5.04314e+06 5.04523e+06 5.04713e+06 5.04882e+06
          5.05026e+06 5.05143e+06 5.05229e+06 5.05281e+06 5.05299e+06
        </DataArray>
        <DataArray type="Float32" Name="pC" NumberOfComponents="1" format="ascii">
          10000 10000 10000 10000 10000 10000 10000 10000 10000 10000 10000 10000
          10000 10000 10000 10000 10000 10000 10000 10000 10000 10000 10000 10000
          10000 10000 10000 10000 10000 10000 10000 10000 10000 10000 10000 10000
          10000 10000 10000 10000 10000 10000 10000 10000 10000 10000 10000 10000
          10000 10000 10000 10000 10000 10000 10000 10000 10000 10000 10000 10000
          10000 10000 10000 10000 10000 10000 10000 10000 10000 10000 10000 10000
          10000 10069.1 11389.4 10000 10000 10000 10000 10000 10000 10000 10000 10000
          10000 10000 10000 10000 10000 10000 10000 10000 10000 10000 10000 10000
          10000 10000 11319.3 12402.1 10000 10000 10000 10000 10000 10000 10000 10000
          10000 10000 10000 10000 10000 10000 10000 10000 10000 10000 10000 10000
          10000 10000 10083 11398 12447.6 10000 10000 10000 10000 10000 10000 10000
          10000 10000 10000 10000 10000 10000 10000 10000 10000 10000 10000 10000
          10000 10000 10000 10000 11322.7 12405.1 10000 10000 10000 10000 10000 10000
          10000 10000 10000 10000 10000 10000 10000 10000 10000 10000 10000 10000
          10000 10000 10000 10000 10000 10170 11437.5 10000 10000 10000 10000 10000
          10000 10000 10000 10000 10000 10000 10000 10000 10000 10000 10000 10000
          10000 10000 10000 10000 10000 10000 10000 10000 10000 10000 10000 10000
          10000 10000 10000 10000 10000 10000 10000 10000 10000 10000 10000 10000
          10000 10000 10000 10000 10000 10000 10000 10000 10000 10000 10000 10000
          10000 10000 10000 10000 10000 10000 10000 10000 10000 10000 10000 10000
          10000 10000 10000 10000 10000 10000 10000 10000 10000 10000 10000 10000
          10000 10000 10000 10000 10000 10000 10000 10000 10000 10000 10000 10000
          10000 10000 10000 10000 10000 10000 10000 10000 10000 10000 10000 10000
          10000 10000 10000 10000 10000 10000 10000 10000 10000 10000 10000 10000
          10000 10000 10000 10000 10000 10000 10000 10000 10000 10000 10000 10000
          10000 10000 10000 10000 10000 10000 10000 10000 10000 10000 10000 10000
          10000 10000 10000 10000 10000 10000 10000 10000 10000 10000 10000 10000
          10000 10000 10000 10000 10000 10000 10000 10000 10000 10000 10000 10000
          10000 10000 10000 10000 10000 10000 10000 10000 10000 10000 10000 10000
          10000 10000 10000 10000 10000 10000 10000 10000 10000 10000 10000 10000
          10000 10000 10000 10000 10000 10000 10000 10000 10000 10000 10000 10000
          10000 10000 10000 10000 10000 10000 10000 10000 10000 10000 10000 10000
          10000 10000 10000 10000 10000 10000 10000 10000 10000 10000 10000 10000
          10000 10000 10000 10000 10000 10000 10000 10000 10000 10000 10000 10000
          10000 10000 10000 10000 10000 10000 10000 10000 10000 10000 10000 10000
          10000 10000 10000 10000 10000
        </DataArray>
        <DataArray type="Float32" Name="rhoW" NumberOfComponents="1" format="ascii">
          1063.94 1063.94 1063.94 1063.94 1063.94 1063.94 1063.95 1063.95 1063.95 1063.95 1063.95 1063.95
          1063.95 1063.95 1063.95 1063.95 1063.95 1063.95 1063.95 1063.95 1063.95 1063.95 1063.95 1063.95
          1063.96 1063.96 1063.96 1063.96 1063.96 1063.96 1063.96 1063.96 1063.96 1063.96 1063.96 1063.96
          1063.96 1063.96 1063.96 1063.96 1063.97 1063.97 1063.97 1063.97 1063.97 1063.98 1063.98 1064.22
          1064.03 1067.23 1063.94 1063.94 1063.94 1063.95 1063.95 1063.95 1063.95 1063.95 1063.95 1063.95
          1063.95 1063.95 1063.96 1063.96 1063.96 1063.96 1063.96 1063.96 1063.96 1063.96 1063.97 1063.99
          1064.37 1069.4 1069.4 1063.94 1063.94 1063.94 1063.95 1063.95 1063.95 1063.95 1063.95 1063.95
          1063.95 1063.95 1063.95 1063.96 1063.96 1063.96 1063.96 1063.96 1063.96 1063.96 1063.97 1063.98
          1064.23 1068.27 1069.4 1069.4 1063.94 1063.94 1063.94 1063.95 1063.95 1063.95 1063.95 1063.95
          1063.95 1063.95 1063.95 1063.95 1063.96 1063.96 1063.96 1063.96 1063.96 1063.96 1063.96 1063.97
          1063.99 1064.35 1069.39 1069.4 1069.4 1063.94 1063.94 1063.94 1063.95 1063.95 1063.95 1063.95
          1063.95 1063.95 1063.95 1063.95 1063.95 1063.96 1063.96 1063.96 1063.96 1063.96 1063.96 1063.96
          1063.97 1063.98 1064.23 1068.34 1069.4 1069.4 1063.94 1063.94 1063.94 1063.95 1063.95 1063.95
          1063.95 1063.95 1063.95 1063.95 1063.95 1063.95 1063.96 1063.96 1063.96 1063.96 1063.96 1063.96
          1063.96 1063.96 1063.97 1063.99 1064.42 1069.4 1069.4 1063.94 1063.94 1063.94 1063.95 1063.95
          1063.95 1063.95 1063.95 1063.95 1063.95 1063.95 1063.95 1063.96 1063.96 1063.96 1063.96 1063.96
          1063.96 1063.96 1063.96 1063.97 1063.97 1063.99 1064.31 1068.11 1063.94 1063.94 1063.94 1063.95
          1063.95 1063.95 1063.95 1063.95 1063.95 1063.95 1063.95 1063.95 1063.96 1063.96 1063.96 1063.96
          1063.96 1063.96 1063.96 1063.96 1063.97 1063.97 1063.97 1063.98 1064.06 1063.94 1063.94 1063.94
          1063.95 1063.95 1063.95 1063.95 1063.95 1063.95 1063.95 1063.95 1063.95 1063.96 1063.96 1063.96
          1063.96 1063.96 1063.96 1063.96 1063.96 1063.96 1063.97 1063.97 1063.97 1063.97 1063.94 1063.94
          1063.94 1063.95 1063.95 1063.95 1063.95 1063.95 1063.95 1063.95 1063.95 1063.95 1063.96 1063.96
          1063.96 1063.96 1063.96 1063.96 1063.96 1063.96 1063.96 1063.96 1063.97 1063.97 1063.97 1063.94
          1063.94 1063.94 1063.95 1063.95 1063.95 1063.95 1063.95 1063.95 1063.95 1063.95 1063.95 1063.96
          1063.96 1063.96 1063.96 1063.96 1063.96 1063.96 1063.96 1063.96 1063.96 1063.96 1063.96 1063.97
          1063.94 1063.94 1063.94 1063.95 1063.95 1063.95 1063.95 1063.95 1063.95 1063.95 1063.95 1063.95
          1063.96 1063.96 1063.96 1063.96 1063.96 1063.96 1063.96 1063.96 1063.96 1063.96 1063.96 1063.96
          1063.96 1063.94 1063.94 1063.94 1063.95 1063.95 1063.95 1063.95 1063.95 1063.95 1063.95 1063.95
          1063.95 1063.96 1063.96 1063.96 1063.96 1063.96 1063.96 1063.96 1063.96 1063.96 1063.96 1063.96
          1063.96 1063.96 1063.94 1063.94 1063.94 1063.94 1063.95 1063.95 1063.95 1063.95 1063.95 1063.95
          1063.95 1063.95 1063.96 1063.96 1063.96 1063.96 1063.96 1063.96 1063.96 1063.96 1063.96 1063.96
          1063.96 1063.96 1063.96 1063.94 1063.94 1063.94 1063.94 1063.95 1063.95 1063.95 1063.95 1063.95
          1063.95 1063.95 1063.95 1063.96 1063.96 1063.96 1063.96 1063.96 1063.96 1063.96 1063.96 1063.96
          1063.96 1063.96 1063.96 1063.96 1063.94 1063.94 1063.94 1063.94 1063.95 1063.95 1063.95 1063.95
          1063.95 1063.95 1063.95 1063.95 1063.96 1063.96 1063.96 1063.96 1063.96 1063.96 1063.96 1063.96
          1063.96 1063.96 1063.96 1063.96 1063.96
        </DataArray>
        <DataArray type="Float32" Name="rhoN" NumberOfComponents="1" format="ascii">
          113.379 113.476 113.379 113.476 113.574 113.574 113.672 113.672 113.77 113.77 113.868 113.868
          113.966 113.966 114.064 114.064 114.162 114.162 114.26 114.26 114.359 114.359 114.458 114.458
          114.557 114.557 114.657 114.656 114.757 114.756 114.857 114.857 114.958 114.957 115.059 115.059
          115.161 115.161 115.262 115.263 115.362 115.364 115.458 115.463 115.542 115.554 115.6 115.624
          115.619 115.635 113.379 113.476 113.574 113.672 113.77 113.868 113.966 114.064 114.162 114.26
          114.359 114.457 114.557 114.656 114.756 114.856 114.957 115.058 115.161 115.264 115.368 115.473
          115.582 115.703 115.824 113.379 113.476 113.574 113.672 113.77 113.867 113.965 114.063 114.161
          114.26 114.358 114.457 114.556 114.655 114.755 114.855 114.955 115.057 115.16 115.264 115.371
          115.484 115.591 115.848 115.96 113.379 113.476 113.574 113.672 113.769 113.867 113.965 114.063
          114.161 114.259 114.358 114.456 114.555 114.654 114.753 114.853 114.953 115.055 115.157 115.262
          115.37 115.485 115.648 115.881 116.001 113.379 113.476 113.574 113.671 113.769 113.867 113.965
          114.063 114.161 114.259 114.357 114.455 114.554 114.652 114.751 114.851 114.951 115.051 115.153
          115.256 115.362 115.475 115.585 115.847 115.961 113.379 113.476 113.574 113.671 113.769 113.867
          113.964 114.062 114.16 114.258 114.356 114.454 114.552 114.651 114.749 114.848 114.947 115.047
          115.147 115.248 115.35 115.454 115.565 115.724 115.813 113.379 113.476 113.574 113.671 113.769
          113.866 113.964 114.062 114.159 114.257 114.355 114.453 114.551 114.649 114.747 114.845 114.944
          115.042 115.14 115.238 115.335 115.43 115.521 115.587 115.596 113.379 113.476 113.573 113.671
          113.768 113.866 113.963 114.061 114.159 114.256 114.354 114.452 114.549 114.647 114.745 114.843
          114.94 115.038 115.134 115.23 115.323 115.41 115.485 115.536 115.553 113.379 113.476 113.573
          113.67 113.767 113.864 113.961 114.058 114.155 114.252 114.348 114.445 114.541 114.637 114.733
          114.828 114.923 115.016 115.108 115.197 115.282 115.359 115.422 115.464 115.478 113.379 113.475
          113.572 113.668 113.764 113.861 113.957 114.053 114.148 114.244 114.339 114.433 114.527 114.621
          114.713 114.804 114.893 114.98 115.064 115.143 115.216 115.279 115.329 115.361 115.373 113.379
          113.475 113.57 113.666 113.762 113.857 113.953 114.048 114.142 114.237 114.33 114.423 114.515
          114.605 114.694 114.782 114.866 114.947 115.024 115.096 115.16 115.214 115.255 115.282 115.291
          113.379 113.474 113.569 113.665 113.76 113.855 113.949 114.044 114.137 114.23 114.323 114.414
          114.504 114.592 114.678 114.762 114.843 114.92 114.991 115.057 115.114 115.162 115.198 115.22
          115.228 113.379 113.474 113.569 113.664 113.758 113.853 113.947 114.04 114.133 114.225 114.317
          114.406 114.495 114.581 114.666 114.747 114.824 114.897 114.965 115.026 115.079 115.122 115.155
          115.174 115.181 113.379 113.473 113.568 113.663 113.757 113.851 113.945 114.038 114.13 114.222
          114.312 114.401 114.488 114.573 114.656 114.735 114.811 114.881 114.946 115.004 115.054 115.094
          115.124 115.143 115.149 113.379 113.473 113.568 113.662 113.756 113.85 113.944 114.036 114.128
          114.219 114.309 114.398 114.484 114.569 114.65 114.728 114.802 114.872 114.935 114.991 115.039
          115.078 115.107 115.124 115.13 113.379 113.473 113.568 113.662 113.756 113.85 113.943 114.036
          114.128 114.219 114.308 114.397 114.483 114.567 114.648 114.726 114.8 114.868 114.931 114.987
          115.034 115.073 115.101 115.118 115.124
        </DataArray>
        <DataArray type="Float32" Name="mobW" NumberOfComponents="1" format="ascii">
          1150.62 1150.62 1150.62 1150.62 1150.62 1150.62 1150.62 1150.62 1150.62 1150.62 1150.62 1150.62
          1150.62 1150.62 1150.62 1150.62 1150.62 1150.62 1150.62 1150.62 1150.62 1150.62 1150.62 1150.62
          1150.62 1150.62 1150.62 1150.62 1150.62 1150.62 1150.62 1150.62 1150.62 1150.62 1150.62 1150.62
          1150.62 1150.62 1150.62 1150.62 1150.62 1150.62 1150.62 1150.62 1150.62 1150.62 1150.62 1150.62
          1150.62 1150.62 1150.62 1150.62 1150.62 1150.62 1150.62 1150.62 1150.62 1150.62 1150.62 1150.62
          1150.62 1150.62 1150.62 1150.62 1150.62 1150.62 1150.62 1150.62 1150.62 1150.62 1150.62 1150.62
          1150.62 1088.97 406.365 1150.62 1150.62 1150.62 1150.62 1150.62 1150.62 1150.62 1150.62 1150.62
          1150.62 1150.62 1150.62 1150.62 1150.62 1150.62 1150.62 1150.62 1150.62 1150.62 1150.62 1150.62
          1150.62 1150.62 426.946 205.573 1150.62 1150.62 1150.62 1150.62 1150.62 1150.62 1150.62 1150.62
          1150.62 1150.62 1150.62 1150.62 1150.62 1150.62 1150.62 1150.62 1150.62 1150.62 1150.62 1150.62
          1150.62 1150.62 1077.01 403.936 199.644 1150.62 1150.62 1150.62 1150.62 1150.62 1150.62 1150.62
          1150.62 1150.62 1150.62 1150.62 1150.62 1150.62 1150.62 1150.62 1150.62 1150.62 1150.62 1150.62
          1150.62 1150.62 1150.62 1150.62 425.919 205.174 1150.62 1150.62 1150.62 1150.62 1150.62 1150.62
          1150.62 1150.62 1150.62 1150.62 1150.62 1150.62 1150.62 1150.62 1150.62 1150.62 1150.62 1150.62
          1150.62 1150.62 1150.62 1150.62 1150.62 1005.46 392.897 1150.62 1150.62 1150.62 1150.62 1150.62
          1150.62 1150.62 1150.62 1150.62 1150.62 1150.62 1150.62 1150.62 1150.62 1150.62 1150.62 1150.62
          1150.62 1150.62 1150.62 1150.62 1150.62 1150.62 1150.62 1150.62 1150.62 1150.62 1150.62 1150.62
          1150.62 1150.62 1150.62 1150.62 1150.62 1150.62 1150.62 1150.62 1150.62 1150.62 1150.62 1150.62
          1150.62 1150.62 1150.62 1150.62 1150.62 1150.62 1150.62 1150.62 1150.62 1150.62 1150.62 1150.62
          1150.62 1150.62 1150.62 1150.62 1150.62 1150.62 1150.62 1150.62 1150.62 1150.62 1150.62 1150.62
          1150.62 1150.62 1150.62 1150.62 1150.62 1150.62 1150.62 1150.62 1150.62 1150.62 1150.62 1150.62
          1150.62 1150.62 1150.62 1150.62 1150.62 1150.62 1150.62 1150.62 1150.62 1150.62 1150.62 1150.62
          1150.62 1150.62 1150.62 1150.62 1150.62 1150.62 1150.62 1150.62 1150.62 1150.62 1150.62 1150.62
          1150.62 1150.62 1150.62 1150.62 1150.62 1150.62 1150.62 1150.62 1150.62 1150.62 1150.62 1150.62
          1150.62 1150.62 1150.62 1150.62 1150.62 1150.62 1150.62 1150.62 1150.62 1150.62 1150.62 1150.62
          1150.62 1150.62 1150.62 1150.62 1150.62 1150.62 1150.62 1150.62 1150.62 1150.62 1150.62 1150.62
          1150.62 1150.62 1150.62 1150.62 1150.62 1150.62 1150.62 1150.62 1150.62 1150.62 1150.62 1150.62
          1150.62 1150.62 1150.62 1150.62 1150.62 1150.62 1150.62 1150.62 1150.62 1150.62 1150.62 1150.62
          1150.62 1150.62 1150.62 1150.62 1150.62 1150.62 1150.62 1150.62 1150.62 1150.62 1150.62 1150.62
          1150.62 1150.62 1150.62 1150.62 1150.62 1150.62 1150.62 1150.62 1150.62 1150.62 1150.62 1150.62
          1150.62 1150.62 1150.62 1150.62 1150.62 1150.62 1150.62 1150.62 1150.62 1150.62 1150.62 1150.62
          1150.62 1150.62 1150.62 1150.62 1150.62 1150.62 1150.62 1150.62 1150.62 1150.62 1150.62 1150.62
          1150.62 1150.62 1150.62 1150.62 1150.62 1150.62 1150.62 1150.62 1150.62 1150.62 1150.62 1150.62
          1150.62 1150.62 1150.62 1150.62 1150.62 1150.62 1150.62 1150.62 1150.62 1150.62 1150.62 1150.62
          1150.62 1150.62 1150.62 1150.62 1150.62 1150.62 1150.62 1150.62 1150.62 1150.62 1150.62 1150.62
          1150.62 1150.62 1150.62 1150.62 1150.62
        </DataArray>
        <DataArray type="Float32" Name="mobN" NumberOfComponents="1" format="ascii">
          0 0 0 0 0 0 0 0 0 0 0 0
          0 0 0 0 0 0 0 0 0 0 0 0
          0 0 0 0 0 0 0 0 0 0 0 0
          0 0 0 0 0 0 0 0 0 0 0 0
          0 0 0 0 0 0 0 0 0 0 0 0
          0 0 0 0 0 0 0 0 0 0 0 0
          0 0.297319 1246.42 0 0 0 0 0 0 0 0 0
          0 0 0 0 0 0 0 0 0 0 0 0
          0 0 1102.4 4135.21 0 0 0 0 0 0 0 0
          0 0 0 0 0 0 0 0 0 0 0 0
          0 0 0.511542 1264.44 4292.97 0 0 0 0 0 0 0
          0 0 0 0 0 0 0 0 0 0 0 0
          0 0 0 0 1109.2 4145.61 0 0 0 0 0 0
          0 0 0 0 0 0 0 0 0 0 0 0
          0 0 0 0 0 4.19551 1350.07 0 0 0 0 0
          0 0 0 0 0 0 0 0 0 0 0 0
          0 0 0 0 0 0 0 0 0 0 0 0
          0 0 0 0 0 0 0 0 0 0 0 0
          0 0 0 0 0 0 0 0 0 0 0 0
          0 0 0 0 0 0 0 0 0 0 0 0
          0 0 0 0 0 0 0 0 0 0 0 0
          0 0 0 0 0 0 0 0 0 0 0 0
          0 0 0 0 0 0 0 0 0 0 0 0
          0 0 0 0 0 0 0 0 0 0 0 0
          0 0 0 0 0 0 0 0 0 0 0 0
          0 0 0 0 0 0 0 0 0 0 0 0
          0 0 0 0 0 0 0 0 0 0 0 0
          0 0 0 0 0 0 0 0 0 0 0 0
          0 0 0 0 0 0 0 0 0 0 0 0
          0 0 0 0 0 0 0 0 0 0 0 0
          0 0 0 0 0 0 0 0 0 0 0 0
          0 0 0 0 0 0 0 0 0 0 0 0
          0 0 0 0 0 0 0 0 0 0 0 0
          0 0 0 0 0 0 0 0 0 0 0 0
          0 0 0 0 0 0 0 0 0 0 0 0
          0 0 0 0 0
        </DataArray>
        <DataArray type="Float32" Name="X_l^Brine" NumberOfComponents="1" format="ascii">
          1 1 1 1 1 1 1 1 1 1 1 1
          1 1 1 1 1 1 1 1 1 1 1 1