<VTKFile type="UnstructuredGrid" version="1.0" byte_order="LittleEndian" header_type="UInt64">
  <UnstructuredGrid>
    <FieldData>
      <DataArray type="Float64" Name="TimeValue" NumberOfTuples="1" format="ascii" RangeMin="0" RangeMax="0">
        0
      </DataArray>
    </FieldData>
    <Piece NumberOfPoints="612" NumberOfCells="973">
      <PointData>
      </PointData>
      <CellData Scalars="bedSurface">
        <DataArray type="Float64" Name="bedSurface" format="ascii" RangeMin="9.932302278308015" RangeMax="9.996555777695347">
          9.966623861842455 9.962207799170818 9.953503934985903 9.958873338882395 9.966322757582835 9.96249773457646
          9.955628186305628 9.955040753730984 9.95470800134104 9.975369381908694 9.97632103225566 9.975945726330352
          9.971862403284277 9.960544704730706 9.968309406378681 9.965201694224728 9.969999316286886 9.955332619003578
          9.956842601428209 9.971331939941317 9.971044477865181 9.95878922109783 9.952894119364025 9.958538539064886
          9.97566317681391 9.960248194909013 9.9686099178923 9.953714137627179 9.974158391980083 9.957392958324485
          9.971596919219957 9.96717356527879 9.961681481343957 9.952521517440143 9.970018564957424 9.966903206964
          9.961943869230995 9.973853623711783 9.964926582090003 9.963242241939517 9.953199959260811 9.953696047849622
          9.963901304236604 9.951955510952349 9.95768243376561 9.963574213577141 9.967744252559562 9.961107461303532
          9.964145836661919 9.957121425800283 9.96466260788725 9.961042035617956 9.967827084011375 9.958236465090438
          9.970933644215373 9.964382477613361 9.962633482277948 9.966176781872838 9.957943416489679 9.97463064727364
          9.9682401761577 9.96069189856816 9.968949609983625 9.959994286122457 9.955455017079291 9.966184966116945
          9.96274858526569 9.972927909855796 9.96343691958225 9.958706138209749 9.972285402239173 9.96550490511352
          9.970944130900868 9.957386583966736 9.965770101109742 9.972412417479743 9.965857731805533 9.972806979454772
          9.972512179678668 9.97031444603529 9.962332809842923 9.966486629189522 9.977016205698925 9.97475624058576
          9.952646793396184 9.974545599583738 9.953369273629018 9.955639307076448 9.95241295081029 9.975150835616228
          9.953999118611847 9.97484854229261 9.960710477564788 9.968165244758865 9.971889312529413 9.965192380850537
          9.972193008609244 9.95690336825051 9.965512991823113 9.960401456110816 9.968478798618827 9.977549914592744
          9.97079850442865 9.976949980371536 9.970537080192928 9.976082212745352 9.954288279025588 9.974237982356252
          9.976640523391533 9.952919961348188 9.975670548510301 9.974099853175822 9.976795017917983 9.974895258058577
          9.967908092566356 9.96102266205179 9.969270677295382 9.959677145111229 9.955769787622224 9.963759443040301
          9.95837566870277 9.97060743751168 9.966536000071054 9.962394163007227 9.973216590704743 9.965144869664032
          9.971944068885476 9.957049258493159 9.954577260372426 9.976700324997998 9.957233519231211 9.968777315018254
          9.960109910307224 9.955309616797923 9.954122551717186 9.951377504906809 9.953011411276599 9.952120903931727
          9.971236174785103 9.957579385416365 9.954958565818073 9.976471478782937 9.975803794609591 9.952232559323932
          9.976395185415097 9.973959110551576 9.954337082379157 9.975914711275019 9.952719410770953 9.953185887070198
          9.976183494349572 9.957891964521387 9.964210669918673 9.967493541303446 9.961360404223402 9.954648498517493
          9.996253077229944 9.932472596066441 9.963872611710796 9.958205928018323 9.932805842008982 9.995898982748212
          9.967578995739716 9.96135741729394 9.975162209501073 9.966890564837344 9.962043164113 9.973508861274368
          9.969595650884692 9.95936377617834 9.956088378623212 9.9702742831716 9.964085019513565 9.95804841368952
          9.956715433465575 9.964788220635 9.97160569932983 9.954870514640296 9.974363917872259 9.968593178766007
          9.960341279201295 9.967233079266665 9.96169852071498 9.973802816212784 9.955160873376018 9.956400073743017
          9.972605055746023 9.965843179948996 9.969933073157746 9.963091268464298 9.959033393442269 9.975415454937595
          9.953447875792023 9.971273505722376 9.957715669835315 9.964434786247992 9.996353688913443 9.932388593908366
          9.932351105019118 9.996424650091368 9.977916778911327 9.978724870988584 9.996159315499812 9.952342043486937
          9.951288198615595 9.9962642208427 9.932441953086093 9.952018305999268 9.932699097785354 9.93273109278702
          9.932511161937976 9.996040418287894 9.99590841515729 9.995907412830542 9.951658813312338 9.93259674515763
          9.950540521074789 9.977134940395391 9.949838866445054 9.978188570089022 9.950308025843729 9.977484560361864
          9.950073590956709 9.977836201159288 9.995608452608401 9.933452681899713 9.995083058970392 9.994481904017864
          9.933599429464374 9.99468989525162 9.933799921759869 9.995073757920077 9.97957157415704 9.987029754522254
          9.98584805285085 9.994881757492877 9.98819566805117 9.982184171932309 9.982811345560144 9.98934331696637
          9.985550133086038 9.991556550670543 9.98790574893413 9.983121899871907 9.986735793410192 9.98905838365627
          9.99357939228243 9.984649634032877 9.979230726864843 9.99128790412284 9.99046675690255 9.984347029823347
          9.981867240253075 9.993341495054194 9.990188622514252 9.932954072973123 9.980901202825784 9.980573523054204
          9.934070678516258 9.936863632236136 9.9374368137704 9.988784373971093 9.933646647433301 9.94216367771139
          9.948869814272136 9.935219627003045 9.94334538308466 9.99489046063582 9.946772147759244 9.9827734659921
          9.933412027883751 9.939785988193641 9.995442706161723 9.946219608322941 9.940975014282866 9.943638864956526
          9.945939819114296 9.941272453410454 9.933853035661164 9.942460004844513 9.940082908615919 9.949116801466694
          9.983054092514855 9.944512905837168 9.992599701293436 9.944801585549055 9.94704453774382 9.938603522388423
          9.9946817593321 9.934012473377372 9.938898074881042 9.988498918289782 9.937726332868639 9.995257202375344
          9.992344134694623 9.93658063400574 9.97888658892401 9.948364475447196 9.985251120063626 9.943931403954513
          9.98154788398249 9.94731457302691 9.98644085678987 9.942755831167128 9.99101658681865 9.99208491273361
          9.983430608502506 9.948106447003115 9.945658121215375 9.94936108612927 9.987614758659305 9.988772065490354
          9.940380138756868 9.993098693798045 9.989908570749112 9.939193444780942 9.984043052929005 9.945088843016872
          9.9954314594427 9.933238662716779 9.935482788642725 9.979908819740366 9.948618532203618 9.992851319262792
          9.98848446713802 9.978538787504151 9.936023879252096 9.940677525661119 9.949601069774248 9.98732275469567
          9.982498821920494 9.94186688447659 9.94649694815168 9.984950990032786 9.944222744636189 9.990742804920794
          9.986144958951831 9.983737626783643 9.938309908667767 9.943050965420019 9.945374315705259 9.98962675572508
          9.939489445559689 9.98122590679926 9.94758142048813 9.941569795943009 9.98024283254098 9.993812014242184
          9.99182229811539 9.934962315175312 9.937149131628114 9.947845724083772 9.946827245059177 9.982215987127974
          9.94560103290426 9.940923769101483 9.983335842559585 9.987925766321826 9.978988534660257 9.95091461650835
          9.982494087890213 9.985620789735936 9.943238470060843 9.949462651547092 9.948106862490905 9.939771860453718
          9.935289406420369 9.980043710766575 9.981117828625957 9.989068894831268 9.993346885216303 9.98677396771195
          9.944409460009656 9.942078482242325 9.936364881587766 9.934298471466503 9.984472681797712 9.99234851632729
          9.994266979934912 9.93862351930531 9.990194643620946 9.932818281609856 9.995764109736573 9.937484007899704
          9.991292284615358 9.994474310468599 9.980310024331258 9.939484303388664 9.989352343183013 9.949114589957452
          9.938017456090941 9.936300574153783 9.935751098680965 9.979778655102404 9.986485546861628 9.99403898802706
          9.937201654977928 9.991560809269068 9.992604255908995 9.936090641729198 9.994259894378164 9.935552275558813
          9.993103757086546 9.979251494956248 9.980577793582412 9.983618681474237 9.948773722432591 9.985908859658037
          9.97951473344045 9.987062318054878 9.941789426032846 9.93423604019196 9.948437271145421 9.980847042050907
          9.993585148539436 9.93503168506994 9.934535256496837 9.994045594346497 9.937767538940943 9.9910211887199
          9.992856104332537 9.986197134401213 9.938910059508292 9.989915383893969 9.939197050703969 9.989634558182894
          9.935819600048763 9.988212675467624 9.99626026160841 9.93251623248932 9.947141097996461 9.981939271544634
          9.941212109435398 9.987638329028343 9.934711975121871 9.990472161459715 9.985333057317042 9.943529841809495
          9.93833746009996 9.934780011899496 9.993818178852923 9.936641729093036 9.992089181012407 9.9813901445025
          9.947780448613173 9.984187188088361 9.941500692774603 9.987350469012497 9.98475891091464 9.944115181219887
          9.936920817287456 9.99182652342638 9.938052112536363 9.990747742325196 9.945300445433398 9.934469545202559
          9.983902477040452 9.93310544996512 9.947459029302722 9.981663965191975 9.933272205265439 9.995267122119511
          9.985045718233525 9.943822089827945 9.946516350346906 9.942367785488226 9.949815328253203 9.940059564922352
          9.944704895567412 9.94063552824198 9.94590358094634 9.942947688303528 9.950541384533935 9.945001905574333
          9.946208744921922 9.940347498136223 9.942657540634151 9.950176258916205 9.97846029481362 9.951577873620007
          9.978191300667909 9.96969659917925 9.959189796315304 9.952819398238468 9.975941751495307 9.95726033128425
          9.97141776328788 9.964721098356106 9.961055602678814 9.967752344090956 9.953961261203203 9.97475006734646
          9.956195565043942 9.972431939255305 9.963174996871652 9.965682695059582 9.969845298941449 9.958909290056337
          9.968791548102221 9.960016747706833 9.962105775867368 9.96672182287797 9.955127656255186 9.973605786720917
          9.951656089368402 9.95102146873659 9.951291123644072 9.973121443775234 9.977327017712339 9.951823674129445
          9.97062822711278 9.932404874660879 9.996422836156379 9.996250023045663 9.932501117883993 9.932769821331272
          9.995903027161795 9.950777482117648 9.996152000928866 9.932542172195033 9.932934987926597 9.99575309612527
          9.996153894765163 9.932850067599192 9.99576664404047 9.932596302029824 9.955953059296737 9.95623835966423
          9.969373276588296 9.959506352628694 9.95627615837065 9.932417843958417 9.996339093696665 9.932892276247433
          9.99614815435123 9.93262840762386 9.996036229233008 9.995761308073318 9.933080218519475 9.93257456193188
          9.995595870949973 9.977842135018252 9.978128108600465 9.977646154554266 9.95151677256233 9.978281417494081
          9.978413990435598 9.950895843381181 9.951208775852237 9.950831767180151 9.95029405105842 9.978697574038122
          9.977962508539559 9.95058027592891 9.950560904929608 9.932692859083687 9.996033002193741 9.933185058830727
          9.995444650753928 9.995447917764716 9.9331388474473 9.950022445702734 9.978598033605921 9.949953248148455
          9.979265561419211 9.949752779706735 9.978914165390732 9.950268606234703 9.97898182386339 9.943477610689577
          9.941128175120223 9.945808935177235 9.946959191612946 9.94230369778673 9.939953909243467 9.93705626107882
          9.934640730902851 9.993586026865012 9.93734086168945 9.946894660794 9.935941546915778 9.936215802885425
          9.943347908931536 9.992088989671794 9.936773593535502 9.994046803950216 9.992856490346151 9.938784753762734
          9.935143755677553 9.990469992705348 9.99381922630564 9.938493894587786 9.933948230131648 9.935404847912455
          9.991291313169585 9.940247129854589 9.944647103244645 9.935670993221427 9.93416940989664 9.939660905287175
          9.99156013045439 9.99260446066692 9.942597360922367 9.939076232630782 9.992348534930795 9.945702147514368
          9.937914953643544 9.988490253725596 9.99426836822966 9.988202337734648 9.938203957997715 9.934888793461917
          9.934400626260764 9.987042000177452 9.941422002526846 9.937627228801578 9.946097453830717 9.98963046378578
          9.982601811681384 9.989347367836023 9.94377040924416 9.936493348187275 9.994691653285788 9.991019875633336
          9.941014618647948 9.944355177674316 9.986750077651273 9.940834316673957 9.990191934511872 9.942009800179836
          9.98587071608336 9.993347605279205 9.948652527749385 9.98733322657224 9.99182610548421 9.994483466828436
          9.993104308211025 9.994892411547294 9.982300552505457 9.948928762264087 9.983500913675194 9.943184346563557
          9.983799173881087 9.98077965317813 9.944938247325865 9.939368374215594 9.984393878907733 9.990746035925884
          9.988777142607466 9.947810805311834 9.98469038691181 9.989062881074389 9.980975124409596 9.945519170589984
          9.98616440237643 9.989912038392772 9.947243884008094 9.98762374874662 9.982902276897095 9.98645755345624
          9.979541533478242 9.949478634439581 9.985281651048616 9.981695282676926 9.946595619432339 9.948714405722011
          9.979833987178042 9.97985295341778 9.933738112196819 9.949205844432964 9.946672555035528 9.981085953986183
          9.98498626993336 9.948372650274715 9.984096849136503 9.942179591827003 9.948093220053753 9.985576434918869
          9.981998388873098 9.949643417120354 9.979228327527583 9.984438777005835 9.980118727309586 9.9804720214803
          9.981261520991811 9.982700206206271 9.94452121586254 9.980163267834069 9.943055544840227 9.945406225968712
          9.948409110756025 9.983201932873104 9.980689226574372 9.979549780134988 9.987913465854826 9.980403709788266
          9.945229204199228 9.99526950646721 9.94719565369226 9.94481577392269 9.98472934094693 9.93985265204236
          9.947528552282506 9.984148318149941 9.98676360965038 9.982989154422944 9.941715967959034 9.947799978564383
          9.940723889197194 9.989633096096012 9.949023494581635 9.981835663726976 9.98385813365186 9.985310812900664
          9.948103025041897 9.949331100271433 9.985020075604801 9.992858076018917 9.93698203352748 9.981391179372288
          9.945999327959115 9.987343008250123 9.941888161020485 9.986473384579801 9.99129271801899 9.933355516434625
          9.985892314232101 9.940540682497057 9.989350433560546 9.944227462021152 9.982123430969194 9.987632023340387
          9.945110495716484 9.98356814938578 9.988781384858255 9.944063097936054 9.982411590182007 9.989914310555632
          9.987053492689244 9.989066487709371 9.94247140209895 9.94364082337146 9.986182953245368 9.988495276193785
          9.990193925818678 9.98560161054708 9.940142875072018 9.991561495276898 9.938695500736847 9.94749659962409
          9.939562841513938 9.993106009141346 9.98154836818141 9.992605956877375 9.933540204141826 9.941305673383875
          9.991021358040497 9.937833857979053 9.938120198170777 9.935081869223854 9.983278517532549 9.938407536144606
          9.93587470806496 9.93534118892242 9.938984183139274 9.990471760393635 9.942891025195584 9.93560576867473
          9.936701492434326 9.93726453126519 9.988208263056555 9.992349957984478 9.992090367716095 9.994049130105163
          9.993349433790081 9.993821367713876 9.994270886095062 9.99182746100169 9.99358800723383 9.994486199610689
          9.936147386255481 9.939273247169218 9.933894226896891 9.93754849505879 9.934828478750951 9.987920486540451
          9.934582061854137 9.990747638100201 9.995085227891636 9.934113861392232 9.940433208162803 9.936423083664595
          9.941596748600253 9.946385784103835 9.943933824161084 9.942763248337178 9.934343468869285 9.946296689864244
          9.99469460661601 9.933685774492545 9.933489534745137 9.994895608292685 9.93330663334435 9.995273220049
          9.995088671924881 9.99561280535193 9.932986238103197 9.96549283316485 9.951098540759094 9.954427699970939
          9.961670358293656 9.967170813115477 9.973392557741983 9.964523884455481 9.962758094457843 9.966062198451734
          9.972146732721656 9.972701936732417 9.93230604229844 9.996555777695347 9.932451708013115 9.996351340277599
          9.953813808957122 9.932442274373143 9.996337368964673 9.956535224057895 9.93266381318254 9.99603231795705
          9.933029679551082 9.995609968111438 9.968020158803483 9.960829282971714 9.975057098300834 9.956598476397815
          9.967464182416183 9.961395165005142 9.996554678131295 9.93231827264962 9.969089217894197 9.959789324626485
          9.97445978836892 9.975343046435666 9.953383790052493 9.971906912086196 9.956732680427265 9.965193346883812
          9.960532925114487 9.968275622052838 9.977627033725424 9.97563510465261 9.953096920388095 9.95699436650697
          9.971662337963751 9.964959383128315 9.975048973233195 9.953671657223467 9.972158851571395 9.956469662554172
          9.96543203354628 9.960788417898325 9.968019987176966 9.960279790593065 9.968528283487274 9.977257998931282
          9.955918720286025 9.955392750438433 9.974451558423834 9.97389459070971 9.95401597655729 9.955653473372054
          9.96974609085307 9.959078488421946 9.959182940215301 9.969588109316573 9.95974831884575 9.969053521797058
          9.972704593080609 9.973313376801377 9.976254265838092 9.963627638744583 9.95594174087795 9.965932027000264
          9.962926725556375 9.966476705212532 9.962367319024091 9.961320207133342 9.96748521759852 9.961846463523376
          9.966969011812875 9.954249728523157 9.95486102777173 9.974170477311182 9.971175160098788 9.951894044874635
          9.952548891283625 9.957528192016142 9.96448746925706 9.996518330787417 9.932309212548187 9.932349301346
          9.996517068101046 9.95851656094794 9.959469900141935 9.969322261313573 9.973011248970762 9.970103043777625
          9.958633168239961 9.976631879437452 9.963428904083887 9.966210011336909 9.96265408345302 9.961583674784528
          9.967225437679692 9.954563143523346 9.977319759971808 9.970903461427334 9.932319177763683 9.99653943686106
          9.96200436793163 9.96682390881416 9.952218872012365 9.973679656411473 9.964862057938001 9.957819592391754
          9.971567596237717 9.975460745231818 9.996475869529684 9.932372114114761 9.964223433760914 9.970275490942793
          9.996512096570427 9.93234428397317 9.963071221956366 9.996538864569853 9.932302278308015 9.932337728385379
          9.996537547097512 9.970364108196021 9.97698845890784 9.958364319055644 9.963691638096808 9.963347934131583
          9.970624870075211 9.93232755576184 9.996477146382292 9.95810080750794 9.963951694639064 9.996466087316913
          9.932364191961351 9.962923012437741 9.996409729149011 9.932397014640468 9.93237804560924 9.996409319299767
          9.932319233008984 9.996512461185722 9.932348693945343 9.996465711272867 9.932308292879403 9.996538205443802
          9.996537451522778 9.932331225085662 9.959660036081633 9.969199999187936 9.973265325297456 9.959970914662122
          9.968894863972647 9.932334150749172 9.996508656509402 9.972966026013735 9.959353594820199 9.969488053821792
          9.973574781999961
        </DataArray>
        <DataArray type="Float64" Name="h" format="ascii" RangeMin="0.051049361872570684" RangeMax="0.05654921713466379">
          0.05395583816275903 0.053925861011957024 0.053932353570321286 0.05354027304750628 0.05448551498308512 0.054128559735010365
          0.05384909323757664 0.05393885107540327 0.05449712018108656 0.05379330601945514 0.05390868983465185 0.05387668609018169
          0.053998766172474434 0.05370978576116829 0.05409263182674703 0.05380375428405816 0.053432494247164626 0.054318074849484775
          0.05386627444103718 0.05400197680355684 0.05450102886555097 0.05410684395644858 0.05390895783358554 0.053092177229522995
          0.053992756135292884 0.05417279269357976 0.05438696732842941 0.05202052116692806 0.05377694304849431 0.054008273152260304
          0.054435919890621035 0.053964632213519964 0.05378251155136938 0.054486128139220165 0.053863321355290615 0.05440226230936424
          0.054085027363531664 0.054218870274060145 0.054236121337670945 0.05302037876907407 0.054393629686602954 0.05327496022243965
          0.05381058950599908 0.05396480334891094 0.05423133801689897 0.05311112166349025 0.0539984621406889 0.05378746822099399
          0.05407978109799249 0.05418390290735902 0.05376004311313861 0.053389774245810324 0.05348531569252919 0.05399242474085932
          0.0529917703110541 0.05427927496210433 0.05304563840035188 0.05303478268067547 0.054472128121909734 0.052903915246404615
          0.05245077943831745 0.052551181225767775 0.052565750393885016 0.05249030372443156 0.05227604870816174 0.052459742273336094
          0.052424146496369665 0.05268371488136785 0.052466256016299104 0.052405006300990487 0.05253115313845745 0.0524637381647325
          0.052445692605066506 0.05242095570483714 0.053969994263067464 0.05417619539095843 0.0535283705258445 0.05321719603178791
          0.05359258769465868 0.05294629966180988 0.053475838457543855 0.05347085825566344 0.053824096141355894 0.05380338043395919
          0.05211024915618132 0.05360425945081441 0.052744298067414874 0.05337407208647942 0.0532536593905465 0.05367539885027993
          0.051553596154338785 0.053123830144623005 0.05296010389696616 0.052973974884281974 0.05350354737287184 0.053367262381522
          0.05308672411200777 0.05342054907082204 0.05293284538709162 0.053395270206215116 0.0534377815998688 0.053452108893901264
          0.05430438833948098 0.05359604556896912 0.0539511831854405 0.05352187272683089 0.05214276473312992 0.053117860202250414
          0.05394589602115339 0.05153116527053662 0.053481647637491164 0.05278102289421701 0.054212386333860454 0.05244912761477713
          0.0519201570858725 0.05204660494163988 0.05200175938335486 0.05202260374805177 0.05180079924012391 0.051969039960947504
          0.051914134676107074 0.05194544930055386 0.051935543861917934 0.05197484275267327 0.05210554235939682 0.05193147830222225
          0.05194542882965679 0.05188661438785152 0.05166643628968576 0.05370267009831869 0.0530015004874645 0.05312420482706221
          0.05293359318036371 0.05286817121653057 0.05402099555675916 0.053797203734612505 0.05322309864778904 0.05283903261841058
          0.053416356370496916 0.0535108341425775 0.05338813415353388 0.05411836094076283 0.05380759578010411 0.05426044064095844
          0.05381580069882781 0.05356189584741777 0.05345590490857453 0.05348487678564995 0.0528382316848608 0.051965730407868685
          0.053941562291238136 0.05307539285292436 0.05289007462748796 0.053038970080995305 0.05297057096520738 0.0529972721925043
          0.05547720953849606 0.05281364599346495 0.053481967202306704 0.05355958751177569 0.053510388381689936 0.0549338502574144
          0.052433894126225705 0.05253849891450486 0.05315516892935502 0.052450514634678064 0.0524970022565096 0.05266944996855275
          0.052527991845212035 0.05253106963860247 0.05234412839783029 0.052506085023373804 0.05248798881674104 0.05240570645007153
          0.052370490133455044 0.05245580407586037 0.05246490052952352 0.052206236392229564 0.05225778554115828 0.0519255340712993
          0.051983783951731956 0.05192507220934537 0.05201680441203338 0.05215780434282666 0.05173154703652402 0.05186812807598357
          0.051992012776824234 0.051947545333745127 0.05197592561506734 0.051926174680076216 0.05192330253307702 0.05275472368542309
          0.05148833509437501 0.0519177498001609 0.05192932902321214 0.05198645262378036 0.05570477384061179 0.05249565290697305
          0.05214127517827131 0.055925330166568116 0.05329522405133099 0.0530893162580174 0.055279716407686585 0.05203875298571725
          0.05281591478115262 0.05547707951641745 0.05282872772065312 0.05247576861932945 0.05361451688380916 0.05358587208678408
          0.05312330852643534 0.05509585179110136 0.05492472913366739 0.05492510957767061 0.05262762668769836 0.05338296994783292
          0.054166827281513695 0.05420159580193204 0.05386076991837664 0.054056801627738904 0.054005975182909276 0.05417466619509167
          0.05393437847477495 0.05411513722094788 0.05462254574350826 0.05438320856323217 0.05424616322086288 0.05394828970702974
          0.054240552894469024 0.054039568235394964 0.05432353957640245 0.054255631288770735 0.05380438424831037 0.053190360446472164
          0.053220394335079524 0.05414748570765509 0.05318004333195067 0.05345270557310523 0.05339464134902205 0.05319252209329874
          0.05323079544789988 0.05331643685419497 0.053180603514675885 0.05336872391134571 0.05319594446510381 0.053186920249992164
          0.05365793454909771 0.05327083081224901 0.05386246659081421 0.053291530091719594 0.053234557176003096 0.05328675707420119
          0.05348503919818979 0.05359870156273097 0.05322075352801577 0.053993745325585325 0.0536020096810243 0.05364649836470735
          0.054599932661536905 0.05443835198079073 0.0543825994171025 0.053172313306354815 0.054472225573804 0.05385639087609915
          0.05370057580356032 0.054523026026202515 0.0537476444874287 0.05413868645540046 0.05358860138812849 0.05316703566057126
          0.0541387070376458 0.054116314237611915 0.05448745077167266 0.053592166261517186 0.05398141169835162 0.053723413967730886
          0.05359744023630439 0.05394877430406589 0.05454387532760808 0.053827153972432304 0.054081887743135236 0.05373204085939257
          0.0531691507962668 0.053661831653636693 0.05345184356969514 0.053644366132031156 0.05359052343353243 0.054253711716811495
          0.05404777684293757 0.05438933226924133 0.05421953813881814 0.05316818801144015 0.05435196754930608 0.0543727215789237
          0.05341209221789784 0.05446259595380052 0.05392638487719263 0.053651200044739326 0.05324287333020118 0.05370143091841326
          0.053521345376907635 0.05359654471198526 0.05320295834382113 0.0537995812711065 0.053269740132557725 0.05337646189873076
          0.05334577221925964 0.053631840404216403 0.053606225267967045 0.05376790701154164 0.05318263262425093 0.053183095435937196
          0.054048043407072324 0.053544834529672465 0.05320928271227829 0.05418526154546271 0.05330485625524165 0.05362977591581958
          0.05449936580069975 0.05401590485267582 0.05452168410579234 0.05374744278768428 0.053673553723841916 0.05349598384703618
          0.05318077404944636 0.053989058132510606 0.054501179257793075 0.054014296964866405 0.05381297780846297 0.053185789278968214
          0.0534219496739721 0.05388613147622243 0.05358847620826162 0.05325589967624986 0.05368035243089283 0.05325079999828616
          0.05321091792512598 0.05332404545134251 0.05428721995576281 0.05377263810049441 0.05361640295048448 0.05319988973025373
          0.05415065307826325 0.05355941547013526 0.05360461319091876 0.05391726328514774 0.053696060047579146 0.053722881173524764
          0.05334465387651804 0.054516931891703285 0.054411465507293734 0.05361703256714521 0.053777454018204315 0.05315960024714505
          0.05391140542457884 0.054284027749029844 0.05317130275606011 0.053163088792708126 0.05308241945954797 0.05293402425170767
          0.05316328118116299 0.05316728406565853 0.05410608593593455 0.053330633213329155 0.053593030314688435 0.05438107101957077
          0.05470803893138147 0.05309832838235223 0.053134295216048885 0.05317778176014167 0.05359335261535734 0.053162109368588534
          0.05401571862011732 0.0541933346410656 0.05466997268273631 0.05464237817493279 0.053172259097898675 0.05340786143772873
          0.053864350792939504 0.05448353865365356 0.053215447497328365 0.05381706389931773 0.05476845333780005 0.05458486442742776
          0.05328749889495782 0.05395592998859343 0.0531065816758923 0.05440621217373226 0.05318461149977147 0.053405199549544057
          0.0543201572768742 0.05448380196063151 0.0545141323317442 0.05308820926593279 0.05316297865621932 0.053793926093252405
          0.05460845997312172 0.053312450026422355 0.05344739810812046 0.05468557023836381 0.05387146625667848 0.05470546631864417
          0.05353982885587898 0.05307675332136847 0.05311693082972471 0.053172060060725064 0.05347375741875091 0.05316563335723731
          0.05308303232043962 0.05316141936384521 0.05421528615526114 0.05443993734807564 0.05353536414421461 0.05312515363390898
          0.0536521962564078 0.05470423292015902 0.054672811493237175 0.05378730530601375 0.05456023043985572 0.05326553722950356
          0.053491287154040126 0.0531643473012095 0.05445755848967697 0.05320327412824091 0.05443186381031032 0.0531930847546945
          0.0546977139588846 0.053165097780761526 0.05547871550817719 0.05275881416028376 0.05373625163857755 0.05315405859817412
          0.05426062509026831 0.05316181256223934 0.054502136492279724 0.05322972428755023 0.05316859393443146 0.05408375400015653
          0.054509334288247835 0.0546929798684289 0.053716720224100345 0.054651489446377814 0.053372371865954914 0.05314129035401891
          0.05364444477215844 0.05317251911708214 0.054237986098699446 0.053161391315662145 0.05317112619796462 0.05403867697387291
          0.05463085711623543 0.05334066353903059 0.05453505113256734 0.05324636735173475 0.053938987607210345 0.05447693513955093
          0.0531728593654073 0.05414572552541051 0.05369306357840204 0.05314869434114433 0.054274812413289825 0.05436231875644252
          0.05317015955556188 0.05406185947643337 0.05381406001489853 0.05417112248293814 0.05324889590856806 0.05435606576332946
          0.05399096965858795 0.05430750391834289 0.05388077543695617 0.05412754918965999 0.05305784485461498 0.053966167530188486