<?xml version="1.0"?>
<VTKFile type="UnstructuredGrid" version="0.1" byte_order="LittleEndian">
  <UnstructuredGrid>
    <Piece NumberOfCells="120" NumberOfPoints="242">
      <PointData Scalars="Sw">
        <DataArray type="Float32" Name="Sw" NumberOfComponents="1" format="ascii">
          0.005 0.005 0.005 0.005 0.005 0.005 0.005 0.005 0.005 0.005 0.005 0.005
          0.005 0.005 0.005 0.005 0.005 0.005 0.005 0.005 0.005 0.005 0.005 0.005
          0.005 0.005 0.005 0.005 0.005 0.005 0.005 0.005 0.005 0.005 0.005 0.005
          0.005 0.005 0.005 0.005 0.005 0.005 0.005 0.005 0.005 0.005 0.005 0.005
          0.005 0.005 0.005 0.005 0.005 0.005 0.005 0.005 0.005 0.005 0.005 0.005
          0.005 0.005 0.005 0.005 0.005 0.005 0.005 0.005 0.005 0.005 0.005 0.005
          0.005 0.005 0.005 0.005 0.005 0.005 0.005 0.005 0.005 0.005 0.005 0.005
          0.005 0.005 0.005 0.005 0.005 0.005 0.005 0.005 0.005 0.005 0.005 0.005
          0.005 0.005 0.005 0.005 0.005 0.005 0.005 0.005 0.005 0.005 0.005 0.005
          0.005 0.005 0.005 0.005 0.005 0.005 0.005 0.005 0.005 0.005 0.005 0.005
          0.005 0.005 0.005 0.005 0.005 0.005 0.005 0.005 0.005 0.005 0.005 0.005
          0.005 0.005 0.005 0.005 0.005 0.005 0.005 0.005 0.005 0.005 0.005 0.005
          0.005 0.005 0.005 0.005 0.005 0.005 0.005 0.005 0.005 0.005 0.005 0.005
          0.005 0.005 0.005 0.005 0.005 0.005 0.005 0.005 0.005 0.005 0.005 0.005
          0.005 0.005 0.005 0.005 0.005 0.005 0.005 0.005 0.005 0.005 0.0049999 0.0049999
          0.00499997 0.00499997 0.00499998 0.00499998 0.00499999 0.00499999 0.00499999 0.00499999 0.00499999 0.00499999 0.00499999 0.00499999
          0.00499999 0.00499999 0.005 0.005 0.00500001 0.00500001 0.00500001 0.00500001 0.00500002 0.00500002 0.00500002 0.00500002
          0.00500001 0.00500001 0.00500001 0.00500001 0.00500001 0.00500001 0.00500001 0.00500001 0.00500001 0.00500001 0.00500001 0.00500001
          0.00500001 0.00500001 0.00500001 0.00500001 0.00500001 0.00500001 0.00500001 0.00500001 0.00500001 0.00500001 0.00500004 0.00500004
          0.0050004 0.0050004 0.00500493 0.00500493 0.00512877 0.00512877 0.0452349 0.0452349 0.0831832 0.0831832 0.156175 0.156175
          0.173357 0.173357
        </DataArray>
        <DataArray type="Float32" Name="Sn" NumberOfComponents="1" format="ascii">
          0.0001 0.0001 0.0001 0.0001 0.0001 0.0001 0.0001 0.0001 9.99999e-05 9.99999e-05 9.99999e-05 9.99999e-05
          9.99998e-05 9.99998e-05 9.99998e-05 9.99998e-05 9.99997e-05 9.99997e-05 9.99996e-05 9.99996e-05 9.99996e-05 9.99996e-05 9.99995e-05 9.99995e-05
          9.99995e-05 9.99995e-05 9.99994e-05 9.99994e-05 9.99993e-05 9.99993e-05 9.99993e-05 9.99993e-05 9.99992e-05 9.99992e-05 9.99992e-05 9.99992e-05
          9.99991e-05 9.99991e-05 9.9999e-05 9.9999e-05 9.9999e-05 9.9999e-05 9.99989e-05 9.99989e-05 9.99989e-05 9.99989e-05 9.99988e-05 9.99988e-05
          9.99987e-05 9.99987e-05 9.99987e-05 9.99987e-05 9.99986e-05 9.99986e-05 9.99986e-05 9.99986e-05 9.99985e-05 9.99985e-05 9.99984e-05 9.99984e-05
          9.99984e-05 9.99984e-05 9.99983e-05 9.99983e-05 9.99983e-05 9.99983e-05 9.99982e-05 9.99982e-05 9.99981e-05 9.99981e-05 9.99981e-05 9.99981e-05
          9.9998e-05 9.9998e-05 9.9998e-05 9.9998e-05 9.99979e-05 9.99979e-05 9.99979e-05 9.99979e-05 9.99978e-05 9.99978e-05 9.99977e-05 9.99977e-05
          9.99977e-05 9.99977e-05 9.99976e-05 9.99976e-05 9.99976e-05 9.99976e-05 9.99975e-05 9.99975e-05 9.99974e-05 9.99974e-05 9.99974e-05 9.99974e-05
          9.99973e-05 9.99973e-05 9.99973e-05 9.99973e-05 9.99972e-05 9.99972e-05 9.99971e-05 9.99971e-05 9.99971e-05 9.99971e-05 9.9997e-05 9.9997e-05
          9.9997e-05 9.9997e-05 9.99969e-05 9.99969e-05 9.99968e-05 9.99968e-05 9.99968e-05 9.99968e-05 9.99967e-05 9.99967e-05 9.99967e-05 9.99967e-05
          9.99966e-05 9.99966e-05 9.99965e-05 9.99965e-05 9.99965e-05 9.99965e-05 9.99964e-05 9.99964e-05 9.99964e-05 9.99964e-05 9.99963e-05 9.99963e-05
          9.99963e-05 9.99963e-05 9.99962e-05 9.99962e-05 9.99961e-05 9.99961e-05 9.99961e-05 9.99961e-05 9.9996e-05 9.9996e-05 9.9996e-05 9.9996e-05
          9.99959e-05 9.99959e-05 9.99958e-05 9.99958e-05 9.99958e-05 9.99958e-05 9.99957e-05 9.99957e-05 9.99957e-05 9.99957e-05 9.99956e-05 9.99956e-05
          9.99955e-05 9.99955e-05 9.99955e-05 9.99955e-05 9.99954e-05 9.99954e-05 9.99954e-05 9.99954e-05 9.99953e-05 9.99953e-05 9.99952e-05 9.99952e-05
          9.99952e-05 9.99952e-05 9.99951e-05 9.99951e-05 9.99951e-05 9.99951e-05 9.9995e-05 9.9995e-05 9.99949e-05 9.99949e-05 0.0144674 0.0144674
          0.916043 0.916043 0.890867 0.890867 0.86321 0.86321 0.833038 0.833038 0.800424 0.800424 0.765515 0.765515
          0.728505 0.728505 0.689607 0.689607 0.649012 0.649012 0.606861 0.606861 0.563216 0.563216 0.518071 0.518071
          0.471395 0.471395 0.423256 0.423256 0.37407 0.37407 0.325046 0.325046 0.278856 0.278856 0.239972 0.239972
          0.212236 0.212236 0.193708 0.193708 0.179619 0.179619 0.167564 0.167564 0.156847 0.156847 0.147057 0.147057
          0.138113 0.138113 0.131744 0.131744 0.173315 0.173315 0.212045 0.212045 0.123925 0.123925 0 0
          0 0
        </DataArray>
        <DataArray type="Float32" Name="Sg" NumberOfComponents="1" format="ascii">
          0.9949 0.9949 0.9949 0.9949 0.9949 0.9949 0.9949 0.9949 0.9949 0.9949 0.9949 0.9949
          0.9949 0.9949 0.9949 0.9949 0.9949 0.9949 0.9949 0.9949 0.9949 0.9949 0.9949 0.9949
          0.9949 0.9949 0.9949 0.9949 0.9949 0.9949 0.9949 0.9949 0.9949 0.9949 0.9949 0.9949
          0.9949 0.9949 0.9949 0.9949 0.9949 0.9949 0.9949 0.9949 0.9949 0.9949 0.9949 0.9949
          0.9949 0.9949 0.9949 0.9949 0.9949 0.9949 0.9949 0.9949 0.9949 0.9949 0.9949 0.9949
          0.9949 0.9949 0.9949 0.9949 0.9949 0.9949 0.9949 0.9949 0.9949 0.9949 0.9949 0.9949
          0.9949 0.9949 0.9949 0.9949 0.9949 0.9949 0.9949 0.9949 0.9949 0.9949 0.9949 0.9949
          0.9949 0.9949 0.9949 0.9949 0.9949 0.9949 0.9949 0.9949 0.9949 0.9949 0.9949 0.9949
          0.9949 0.9949 0.9949 0.9949 0.9949 0.9949 0.9949 0.9949 0.9949 0.9949 0.9949 0.9949
          0.9949 0.9949 0.9949 0.9949 0.9949 0.9949 0.9949 0.9949 0.9949 0.9949 0.9949 0.9949
          0.9949 0.9949 0.9949 0.9949 0.9949 0.9949 0.9949 0.9949 0.9949 0.9949 0.9949 0.9949
          0.9949 0.9949 0.9949 0.9949 0.9949 0.9949 0.9949 0.9949 0.9949 0.9949 0.9949 0.9949
          0.9949 0.9949 0.9949 0.9949 0.9949 0.9949 0.9949 0.9949 0.9949 0.9949 0.9949 0.9949
          0.9949 0.9949 0.9949 0.9949 0.9949 0.9949 0.9949 0.9949 0.9949 0.9949 0.9949 0.9949
          0.9949 0.9949 0.9949 0.9949 0.9949 0.9949 0.9949 0.9949 0.9949 0.9949 0.980533 0.980533
          0.0789572 0.0789572 0.104133 0.104133 0.13179 0.13179 0.161962 0.161962 0.194576 0.194576 0.229485 0.229485
          0.266495 0.266495 0.305393 0.305393 0.345988 0.345988 0.388139 0.388139 0.431784 0.431784 0.476929 0.476929
          0.523605 0.523605 0.571744 0.571744 0.62093 0.62093 0.669954 0.669954 0.716144 0.716144 0.755028 0.755028
          0.782764 0.782764 0.801292 0.801292 0.815381 0.815381 0.827436 0.827436 0.838153 0.838153 0.847943 0.847943
          0.856887 0.856887 0.863251 0.863251 0.821556 0.821556 0.74272 0.74272 0.792892 0.792892 0.843825 0.843825
          0.826643 0.826643
        </DataArray>
        <DataArray type="Float32" Name="pw" NumberOfComponents="1" format="ascii">
          99987.2 99987.2 99987 99987 99986.9 99986.9 99986.8 99986.8 99986.7 99986.7 99986.6 99986.6
          99986.5 99986.5 99986.3 99986.3 99986.2 99986.2 99986.1 99986.1 99986 99986 99985.9 99985.9
          99985.8 99985.8 99985.6 99985.6 99985.5 99985.5 99985.4 99985.4 99985.3 99985.3 99985.2 99985.2
          99985.1 99985.1 99984.9 99984.9 99984.8 99984.8 99984.7 99984.7 99984.6 99984.6 99984.5 99984.5
          99984.4 99984.4 99984.2 99984.2 99984.1 99984.1 99984 99984 99983.9 99983.9 99983.8 99983.8
          99983.7 99983.7 99983.5 99983.5 99983.4 99983.4 99983.3 99983.3 99983.2 99983.2 99983.1 99983.1
          99983 99983 99982.8 99982.8 99982.7 99982.7 99982.6 99982.6 99982.5 99982.5 99982.4 99982.4
          99982.2 99982.2 99982.1 99982.1 99982 99982 99981.9 99981.9 99981.8 99981.8 99981.7 99981.7
          99981.6 99981.6 99981.4 99981.4 99981.3 99981.3 99981.2 99981.2 99981.1 99981.1 99981 99981
          99980.9 99980.9 99980.7 99980.7 99980.6 99980.6 99980.5 99980.5 99980.4 99980.4 99980.3 99980.3
          99980.1 99980.1 99980 99980 99979.9 99979.9 99979.8 99979.8 99979.7 99979.7 99979.6 99979.6
          99979.4 99979.4 99979.3 99979.3 99979.2 99979.2 99979.1 99979.1 99979 99979 99978.9 99978.9
          99978.8 99978.8 99978.6 99978.6 99978.5 99978.5 99978.4 99978.4 99978.3 99978.3 99978.2 99978.2
          99978 99978 99977.9 99977.9 99977.8 99977.8 99977.7 99977.7 99977.6 99977.6 99977.5 99977.5
          99977.3 99977.3 99977.2 99977.2 99977.1 99977.1 99977 99977 99976.9 99976.9 99974.8 99974.8
          85544.4 85544.4 85460.1 85460.1 85375.3 85375.3 85289.8 85289.8 85202.8 85202.8 85113.8 85113.8
          85022.1 85022.1 84926.7 84926.7 84826.4 84826.4 84719.6 84719.6 84603.8 84603.8 84475.8 84475.8
          84330.6 84330.6 84161.2 84161.2 83957.8 83957.8 83707.8 83707.8 83400.4 83400.4 83045.8 83045.8
          82695 82695 82380.1 82380.1 82068.3 82068.3 81721.3 81721.3 81311.3 81311.3 80793.2 80793.2
          80093.3 80093.3 79327.5 79327.5 81904 81904 83176.8 83176.8 82738 82738 94372.6 94372.6
          95240.1 95240.1
        </DataArray>
        <DataArray type="Float32" Name="pn" NumberOfComponents="1" format="ascii">
          99987.2 99987.2 99987 99987 99986.9 99986.9 99986.8 99986.8 99986.7 99986.7 99986.6 99986.6
          99986.5 99986.5 99986.3 99986.3 99986.2 99986.2 99986.1 99986.1 99986 99986 99985.9 99985.9
          99985.8 99985.8 99985.6 99985.6 99985.5 99985.5 99985.4 99985.4 99985.3 99985.3 99985.2 99985.2
          99985.1 99985.1 99984.9 99984.9 99984.8 99984.8 99984.7 99984.7 99984.6 99984.6 99984.5 99984.5
          99984.4 99984.4 99984.2 99984.2 99984.1 99984.1 99984 99984 99983.9 99983.9 99983.8 99983.8
          99983.7 99983.7 99983.5 99983.5 99983.4 99983.4 99983.3 99983.3 99983.2 99983.2 99983.1 99983.1
          99983 99983 99982.8 99982.8 99982.7 99982.7 99982.6 99982.6 99982.5 99982.5 99982.4 99982.4
          99982.2 99982.2 99982.1 99982.1 99982 99982 99981.9 99981.9 99981.8 99981.8 99981.7 99981.7
          99981.6 99981.6 99981.4 99981.4 99981.3 99981.3 99981.2 99981.2 99981.1 99981.1 99981 99981
          99980.9 99980.9 99980.7 99980.7 99980.6 99980.6 99980.5 99980.5 99980.4 99980.4 99980.3 99980.3
          99980.1 99980.1 99980 99980 99979.9 99979.9 99979.8 99979.8 99979.7 99979.7 99979.6 99979.6
          99979.4 99979.4 99979.3 99979.3 99979.2 99979.2 99979.1 99979.1 99979 99979 99978.9 99978.9
          99978.8 99978.8 99978.6 99978.6 99978.5 99978.5 99978.4 99978.4 99978.3 99978.3 99978.2 99978.2
          99978 99978 99977.9 99977.9 99977.8 99977.8 99977.7 99977.7 99977.6 99977.6 99977.5 99977.5
          99977.3 99977.3 99977.2 99977.2 99977.1 99977.1 99977 99977 99976.9 99976.9 99976.8 99976.8
          98796.2 98796.2 98711.8 98711.8 98627.1 98627.1 98541.5 98541.5 98454.6 98454.6 98365.6 98365.6
          98273.9 98273.9 98178.5 98178.5 98078.2 98078.2 97971.3 97971.3 97855.6 97855.6 97727.6 97727.6
          97582.4 97582.4 97413 97413 97209.6 97209.6 96959.5 96959.5 96652.2 96652.2 96297.6 96297.6
          95946.8 95946.8 95631.9 95631.9 95320 95320 94973 94973 94563.1 94563.1 94045 94045
          93345.1 93345.1 92579.3 92579.3 95155.7 95155.7 96428.6 96428.6 95989.8 95989.8 94372.6 94372.6
          95240.1 95240.1
        </DataArray>
        <DataArray type="Float32" Name="pg" NumberOfComponents="1" format="ascii">
          100000 100000 99999.9 99999.9 99999.8 99999.8 99999.6 99999.6 99999.5 99999.5 99999.4 99999.4
          99999.3 99999.3 99999.2 99999.2 99999.1 99999.1 99998.9 99998.9 99998.8 99998.8 99998.7 99998.7
          99998.6 99998.6 99998.5 99998.5 99998.4 99998.4 99998.2 99998.2 99998.1 99998.1 99998 99998
          99997.9 99997.9 99997.8 99997.8 99997.7 99997.7 99997.5 99997.5 99997.4 99997.4 99997.3 99997.3
          99997.2 99997.2 99997.1 99997.1 99997 99997 99996.8 99996.8 99996.7 99996.7 99996.6 99996.6
          99996.5 99996.5 99996.4 99996.4 99996.3 99996.3 99996.1 99996.1 99996 99996 99995.9 99995.9
          99995.8 99995.8 99995.7 99995.7 99995.6 99995.6 99995.4 99995.4 99995.3 99995.3 99995.2 99995.2
          99995.1 99995.1 99995 99995 99994.9 99994.9 99994.7 99994.7 99994.6 99994.6 99994.5 99994.5
          99994.4 99994.4 99994.3 99994.3 99994.2 99994.2 99994 99994 99993.9 99993.9 99993.8 99993.8
          99993.7 99993.7 99993.6 99993.6 99993.5 99993.5 99993.3 99993.3 99993.2 99993.2 99993.1 99993.1
          99993 99993 99992.9 99992.9 99992.8 99992.8 99992.6 99992.6 99992.5 99992.5 99992.4 99992.4
          99992.3 99992.3 99992.2 99992.2 99992.1 99992.1 99991.9 99991.9 99991.8 99991.8 99991.7 99991.7
          99991.6 99991.6 99991.5 99991.5 99991.4 99991.4 99991.2 99991.2 99991.1 99991.1 99991 99991
          99990.9 99990.9 99990.8 99990.8 99990.7 99990.7 99990.5 99990.5 99990.4 99990.4 99990.3 99990.3
          99990.2 99990.2 99990.1 99990.1 99990 99990 99989.8 99989.8 99989.7 99989.7 99989.6 99989.6
          100005 100005 100020 100020 100029 100029 100036 100036 100041 100041 100044 100044
          100047 100047 100049 100049 100051 100051 100052 100052 100053 100053 100054 100054
          100055 100055 100056 100056 100057 100057 100057 100057 100058 100058 100058 100058
          100058 100058 100059 100059 100059 100059 100059 100059 100060 100060 100060 100060
          100060 100060 100060 100060 100061 100061 100063 100063 100263 100263 100381 100381
          100508 100508
        </DataArray>
        <DataArray type="Float32" Name="rhow" NumberOfComponents="1" format="ascii">
          997.677 997.677 997.677 997.677 997.677 997.677 997.677 997.677 997.677 997.677 997.677 997.677
          997.677 997.677 997.677 997.677 997.677 997.677 997.677 997.677 997.677 997.677 997.677 997.677
          997.677 997.677 997.677 997.677 997.677 997.677 997.677 997.677 997.677 997.677 997.677 997.677
          997.677 997.677 997.677 997.677 997.677 997.677 997.677 997.677 997.677 997.677 997.677 997.677
          997.677 997.677 997.677 997.677 997.677 997.677 997.677 997.677 997.677 997.677 997.677 997.677
          997.677 997.677 997.677 997.677 997.677 997.677 997.677 997.677 997.677 997.677 997.677 997.677
          997.677 997.677 997.677 997.677 997.677 997.677 997.677 997.677 997.677 997.677 997.677 997.677
          997.677 997.677 997.677 997.677 997.677 997.677 997.677 997.677 997.677 997.677 997.677 997.677
          997.677 997.677 997.677 997.677 997.677 997.677 997.677 997.677 997.677 997.677 997.677 997.677
          997.677 997.677 997.677 997.677 997.677 997.677 997.677 997.677 997.677 997.677 997.677 997.677
          997.677 997.677 997.677 997.677 997.677 997.677 997.677 997.677 997.677 997.677 997.677 997.677
          997.677 997.677 997.677 997.677 997.677 997.677 997.677 997.677 997.677 997.677 997.677 997.677
          997.677 997.677 997.677 997.677 997.677 997.677 997.677 997.677 997.677 997.677 997.677 997.677
          997.677 997.677 997.677 997.677 997.677 997.677 997.677 997.677 997.677 997.677 997.677 997.677
          997.677 997.677 997.677 997.677 997.677 997.677 997.677 997.677 997.677 997.677 997.677 997.677
          997.67 997.67 997.67 997.67 997.67 997.67 997.67 997.67 997.67 997.67 997.67 997.67
          997.67 997.67 997.67 997.67 997.67 997.67 997.67 997.67 997.67 997.67 997.67 997.67
          997.67 997.67 997.67 997.67 997.67 997.67 997.67 997.67 997.669 997.669 997.669 997.669
          997.669 997.669 997.669 997.669 997.669 997.669 997.669 997.669 997.668 997.668 997.667 997.667
          997.648 997.648 997.446 997.446 995.154 995.154 975.113 975.113 966.765 966.765 959.267 959.267
          958.533 958.533
        </DataArray>
        <DataArray type="Float32" Name="rhon" NumberOfComponents="1" format="ascii">
          860.465 860.465 860.465 860.465 860.465 860.465 860.465 860.465 860.465 860.465 860.465 860.465
          860.465 860.465 860.465 860.465 860.465 860.465 860.465 860.465 860.465 860.465 860.465 860.465
          860.465 860.465 860.465 860.465 860.465 860.465 860.465 860.465 860.465 860.465 860.465 860.465
          860.465 860.465 860.465 860.465 860.465 860.465 860.465 860.465 860.465 860.465 860.465 860.465
          860.465 860.465 860.465 860.465 860.465 860.465 860.465 860.465 860.465 860.465 860.465 860.465
          860.465 860.465 860.465 860.465 860.465 860.465 860.465 860.465 860.465 860.465 860.465 860.465
          860.465 860.465 860.465 860.465 860.465 860.465 860.465 860.465 860.465 860.465 860.465 860.465
          860.465 860.465 860.465 860.465 860.465 860.465 860.465 860.465 860.465 860.465 860.465 860.465
          860.465 860.465 860.465 860.465 860.465 860.465 860.465 860.465 860.465 860.465 860.465 860.465
          860.465 860.465 860.465 860.465 860.465 860.465 860.465 860.465 860.465 860.465 860.465 860.465
          860.465 860.465 860.465 860.465 860.465 860.465 860.465 860.465 860.465 860.465 860.465 860.465
          860.465 860.465 860.465 860.465 860.465 860.465 860.465 860.465 860.465 860.465 860.465 860.465
          860.465 860.465 860.465 860.465 860.465 860.465 860.465 860.465 860.465 860.465 860.465 860.465
          860.465 860.465 860.465 860.465 860.465 860.465 860.465 860.465 860.465 860.465 860.465 860.465
          860.465 860.465 860.465 860.465 860.465 860.465 860.465 860.465 860.465 860.465 860.465 860.465
          860.465 860.465 860.465 860.465 860.465 860.465 860.465 860.465 860.465 860.465 860.465 860.465
          860.465 860.465 860.465 860.465 860.465 860.465 860.465 860.465 860.465 860.465 860.465 860.465
          860.465 860.465 860.465 860.465 860.465 860.465 860.465 860.465 860.465 860.465 860.465 860.465
          860.465 860.465 860.465 860.465 860.465 860.465 860.465 860.465 860.465 860.465 860.459 860.459
          860.392 860.392 859.651 859.651 852.445 852.445 812.034 812.034 798.16 798.16 791.649 791.649
          791.031 791.031
        </DataArray>
        <DataArray type="Float32" Name="rhog" NumberOfComponents="1" format="ascii">
          1.19445 1.19445 1.19445 1.19445 1.19445 1.19445 1.19445 1.19445 1.19445 1.19445 1.19445 1.19445
          1.19444 1.19444 1.19444 1.19444 1.19444 1.19444 1.19444 1.19444 1.19444 1.19444 1.19444 1.19444
          1.19444 1.19444 1.19444 1.19444 1.19443 1.19443 1.19443 1.19443 1.19443 1.19443 1.19443 1.19443
          1.19443 1.19443 1.19443 1.19443 1.19443 1.19443 1.19442 1.19442 1.19442 1.19442 1.19442 1.19442
          1.19442 1.19442 1.19442 1.19442 1.19442 1.19442 1.19442 1.19442 1.19441 1.19441 1.19441 1.19441
          1.19441 1.19441 1.19441 1.19441 1.19441 1.19441 1.19441 1.19441 1.19441 1.19441 1.1944 1.1944
          1.1944 1.1944 1.1944 1.1944 1.1944 1.1944 1.1944 1.1944 1.1944 1.1944 1.1944 1.1944
          1.1944 1.1944 1.19439 1.19439 1.19439 1.19439 1.19439 1.19439 1.19439 1.19439 1.19439 1.19439
          1.19439 1.19439 1.19439 1.19439 1.19438 1.19438 1.19438 1.19438 1.19438 1.19438 1.19438 1.19438
          1.19438 1.19438 1.19438 1.19438 1.19438 1.19438 1.19437 1.19437 1.19437 1.19437 1.19437 1.19437
          1.19437 1.19437 1.19437 1.19437 1.19437 1.19437 1.19437 1.19437 1.19436 1.19436 1.19436 1.19436
          1.19436 1.19436 1.19436 1.19436 1.19436 1.19436 1.19436 1.19436 1.19436 1.19436 1.19436 1.19436
          1.19435 1.19435 1.19435 1.19435 1.19435 1.19435 1.19435 1.19435 1.19435 1.19435 1.19435 1.19435
          1.19435 1.19435 1.19434 1.19434 1.19434 1.19434 1.19434 1.19434 1.19434 1.19434 1.19434 1.19434
          1.19434 1.19434 1.19434 1.19434 1.19433 1.19433 1.19433 1.19433 1.19433 1.19433 1.19433 1.19433
          1.19451 1.19451 1.19468 1.19468 1.1948 1.1948 1.19487 1.19487 1.19493 1.19493 1.19497 1.19497
          1.195 1.195 1.19503 1.19503 1.19505 1.19505 1.19507 1.19507 1.19508 1.19508 1.19509 1.19509
          1.1951 1.1951 1.19511 1.19511 1.19512 1.19512 1.19512 1.19512 1.19513 1.19513 1.19513 1.19513
          1.19514 1.19514 1.19514 1.19514 1.19515 1.19515 1.19515 1.19515 1.19515 1.19515 1.19514 1.19514
          1.19491 1.19491 1.19239 1.19239 1.17104 1.17104 1.19747 1.19747 1.29026 1.29026 0.65475 0.65475
          0.593115 0.593115
        </DataArray>
        <DataArray type="Float32" Name="x^w_H2O" NumberOfComponents="1" format="ascii">
          0.99996 0.99996 0.99996 0.99996 0.99996 0.99996 0.99996 0.99996 0.99996 0.99996 0.99996 0.99996
          0.99996 0.99996 0.99996 0.99996 0.99996 0.99996 0.99996 0.99996 0.99996 0.99996 0.99996 0.99996
          0.99996 0.99996 0.99996 0.99996 0.99996 0.99996 0.99996 0.99996 0.99996 0.99996 0.99996 0.99996
          0.99996 0.99996 0.99996 0.99996 0.99996 0.99996 0.99996 0.99996 0.99996 0.99996 0.99996 0.99996
          0.99996 0.99996 0.99996 0.99996 0.99996 0.99996 0.99996 0.99996 0.99996 0.99996 0.99996 0.99996
          0.99996 0.99996 0.99996 0.99996 0.99996 0.99996 0.99996 0.99996 0.99996 0.99996 0.99996 0.99996
          0.99996 0.99996 0.99996 0.99996 0.99996 0.99996 0.99996 0.99996 0.99996 0.99996 0.99996 0.99996
          0.99996 0.99996 0.99996 0.99996 0.99996 0.99996 0.99996 0.99996 0.99996 0.99996 0.99996 0.99996
          0.99996 0.99996 0.99996 0.99996 0.99996 0.99996 0.99996 0.99996 0.99996 0.99996 0.99996 0.99996
          0.99996 0.99996 0.99996 0.99996 0.99996 0.99996 0.99996 0.99996 0.99996 0.99996 0.99996 0.99996
          0.99996 0.99996 0.99996 0.99996 0.99996 0.99996 0.99996 0.99996 0.99996 0.99996 0.99996 0.99996
          0.99996 0.99996 0.99996 0.99996 0.99996 0.99996 0.99996 0.99996 0.99996 0.99996 0.99996 0.99996
          0.99996 0.99996 0.99996 0.99996 0.99996 0.99996 0.99996 0.99996 0.99996 0.99996 0.99996 0.99996
          0.99996 0.99996 0.99996 0.99996 0.99996 0.99996 0.99996 0.99996 0.99996 0.99996 0.99996 0.99996
          0.99996 0.99996 0.99996 0.99996 0.99996 0.99996 0.99996 0.99996 0.99996 0.99996 0.99996 0.99996
          0.99996 0.99996 0.99996 0.99996 0.99996 0.99996 0.99996 0.99996 0.99996 0.99996 0.99996 0.99996
          0.99996 0.99996 0.99996 0.99996 0.99996 0.99996 0.99996 0.99996 0.99996 0.99996 0.99996 0.99996
          0.99996 0.99996 0.99996 0.99996 0.99996 0.99996 0.99996 0.99996 0.99996 0.99996 0.99996 0.99996
          0.99996 0.99996 0.99996 0.99996 0.99996 0.99996 0.99996 0.99996 0.99996 0.99996 0.99996 0.99996
          0.99996 0.99996 0.999959 0.999959 0.999944 0.999944 0.999631 0.999631 0.999364 0.999364 0.999942 0.999942
          1 1
        </DataArray>
        <DataArray type="Float32" Name="x^w_xylene" NumberOfComponents="1" format="ascii">
          2.62566e-05 2.62566e-05 2.62566e-05 2.62566e-05 2.62566e-05 2.62566e-05 2.62566e-05 2.62566e-05 2.62566e-05 2.62566e-05 2.62566e-05 2.62566e-05
          2.62566e-05 2.62566e-05 2.62566e-05 2.62566e-05 2.62566e-05 2.62566e-05 2.62566e-05 2.62566e-05 2.62566e-05 2.62566e-05 2.62566e-05 2.62566e-05
          2.62566e-05 2.62566e-05 2.62566e-05 2.62566e-05 2.62566e-05 2.62566e-05 2.62566e-05 2.62566e-05 2.62566e-05 2.62566e-05 2.62566e-05 2.62566e-05
          2.62566e-05 2.62566e-05 2.62566e-05 2.62566e-05 2.62566e-05 2.62566e-05 2.62566e-05 2.62566e-05 2.62566e-05 2.62566e-05 2.62566e-05 2.62566e-05
          2.62566e-05 2.62566e-05 2.62566e-05 2.62566e-05 2.62566e-05 2.62566e-05 2.62566e-05 2.62566e-05 2.62566e-05 2.62566e-05 2.62566e-05 2.62566e-05
          2.62566e-05 2.62566e-05 2.62566e-05 2.62566e-05 2.62566e-05 2.62566e-05 2.62566e-05 2.62566e-05 2.62566e-05 2.62566e-05 2.62566e-05 2.62566e-05
          2.62566e-05 2.62566e-05 2.62566e-05 2.62566e-05 2.62566e-05 2.62566e-05 2.62566e-05 2.62566e-05 2.62566e-05 2.62566e-05 2.62566e-05 2.62566e-05
          2.62566e-05 2.62566e-05 2.62566e-05 2.62566e-05 2.62566e-05 2.62566e-05 2.62566e-05 2.62566e-05 2.62566e-05 2.62566e-05 2.62566e-05 2.62566e-05
          2.62566e-05 2.62566e-05 2.62566e-05 2.62566e-05 2.62566e-05 2.62566e-05 2.62566e-05 2.62566e-05 2.62566e-05 2.62566e-05 2.62566e-05 2.62566e-05
          2.62566e-05 2.62566e-05 2.62566e-05 2.62566e-05 2.62566e-05 2.62566e-05 2.62566e-05 2.62566e-05 2.62566e-05 2.62566e-05 2.62566e-05 2.62566e-05
          2.62566e-05 2.62566e-05 2.62566e-05 2.62566e-05 2.62566e-05 2.62566e-05 2.62566e-05 2.62566e-05 2.62566e-05 2.62566e-05 2.62566e-05 2.62566e-05
          2.62566e-05 2.62566e-05 2.62566e-05 2.62566e-05 2.62566e-05 2.62566e-05 2.62566e-05 2.62566e-05 2.62566e-05 2.62566e-05 2.62566e-05 2.62566e-05
          2.62566e-05 2.62566e-05 2.62566e-05 2.62566e-05 2.62566e-05 2.62566e-05 2.62566e-05 2.62566e-05 2.62566e-05 2.62566e-05 2.62566e-05 2.62566e-05
          2.62566e-05 2.62566e-05 2.62566e-05 2.62566e-05 2.62566e-05 2.62566e-05 2.62566e-05 2.62566e-05 2.62566e-05 2.62566e-05 2.62566e-05 2.62566e-05
          2.62566e-05 2.62566e-05 2.62566e-05 2.62566e-05 2.62566e-05 2.62566e-05 2.62566e-05 2.62566e-05 2.62566e-05 2.62566e-05 2.62566e-05 2.62566e-05
          2.62565e-05 2.62565e-05 2.62564e-05 2.62564e-05 2.62564e-05 2.62564e-05 2.62565e-05 2.62565e-05 2.62565e-05 2.62565e-05 2.62566e-05 2.62566e-05
          2.62566e-05 2.62566e-05 2.62566e-05 2.62566e-05 2.62566e-05 2.62566e-05 2.62566e-05 2.62566e-05 2.62566e-05 2.62566e-05 2.62566e-05 2.62566e-05
          2.62566e-05 2.62566e-05 2.62566e-05 2.62566e-05 2.62566e-05 2.62566e-05 2.62566e-05 2.62566e-05 2.62566e-05 2.62566e-05 2.62567e-05 2.62567e-05
          2.62567e-05 2.62567e-05 2.62567e-05 2.62567e-05 2.62567e-05 2.62567e-05 2.62567e-05 2.62567e-05 2.62576e-05 2.62576e-05 2.6268e-05 2.6268e-05
          2.63897e-05 2.63897e-05 2.77723e-05 2.77723e-05 4.46597e-05 4.46597e-05 0.000364726 0.000364726 0.000635487 0.000635487 5.78894e-05 5.78894e-05
          -1.85819e-29 -8.57982e-31
        </DataArray>
        <DataArray type="Float32" Name="x^w_Air" NumberOfComponents="1" format="ascii">
          1.37503e-05 1.37503e-05 1.37502e-05 1.37502e-05 1.37502e-05 1.37502e-05 1.37502e-05 1.37502e-05 1.37502e-05 1.37502e-05 1.37502e-05 1.37502e-05
          1.37502e-05 1.37502e-05 1.37501e-05 1.37501e-05 1.37501e-05 1.37501e-05 1.37501e-05 1.37501e-05 1.37501e-05 1.37501e-05 1.37501e-05 1.37501e-05
          1.37501e-05 1.37501e-05 1.375e-05 1.375e-05 1.375e-05 1.375e-05 1.375e-05 1.375e-05 1.375e-05 1.375e-05 1.375e-05 1.375e-05
          1.375e-05 1.375e-05 1.37499e-05 1.37499e-05 1.37499e-05 1.37499e-05 1.37499e-05 1.37499e-05 1.37499e-05 1.37499e-05 1.37499e-05 1.37499e-05
          1.37499e-05 1.37499e-05 1.37498e-05 1.37498e-05 1.37498e-05 1.37498e-05 1.37498e-05 1.37498e-05 1.37498e-05 1.37498e-05 1.37498e-05 1.37498e-05
          1.37498e-05 1.37498e-05 1.37497e-05 1.37497e-05 1.37497e-05 1.37497e-05 1.37497e-05 1.37497e-05 1.37497e-05 1.37497e-05 1.37497e-05 1.37497e-05
          1.37497e-05 1.37497e-05 1.37496e-05 1.37496e-05 1.37496e-05 1.37496e-05 1.37496e-05 1.37496e-05 1.37496e-05 1.37496e-05 1.37496e-05 1.37496e-05
          1.37496e-05 1.37496e-05 1.37495e-05 1.37495e-05 1.37495e-05 1.37495e-05 1.37495e-05 1.37495e-05 1.37495e-05 1.37495e-05 1.37495e-05 1.37495e-05
          1.37495e-05 1.37495e-05 1.37494e-05 1.37494e-05 1.37494e-05 1.37494e-05 1.37494e-05 1.37494e-05 1.37494e-05 1.37494e-05 1.37494e-05 1.37494e-05
          1.37494e-05 1.37494e-05 1.37493e-05 1.37493e-05 1.37493e-05 1.37493e-05 1.37493e-05 1.37493e-05 1.37493e-05 1.37493e-05 1.37493e-05 1.37493e-05
          1.37493e-05 1.37493e-05 1.37492e-05 1.37492e-05 1.37492e-05 1.37492e-05 1.37492e-05 1.37492e-05 1.37492e-05 1.37492e-05 1.37492e-05 1.37492e-05
          1.37492e-05 1.37492e-05 1.37491e-05 1.37491e-05 1.37491e-05 1.37491e-05 1.37491e-05 1.37491e-05 1.37491e-05 1.37491e-05 1.37491e-05 1.37491e-05
          1.37491e-05 1.37491e-05 1.3749e-05 1.3749e-05 1.3749e-05 1.3749e-05 1.3749e-05 1.3749e-05 1.3749e-05 1.3749e-05 1.3749e-05 1.3749e-05
          1.3749e-05 1.3749e-05 1.37489e-05 1.37489e-05 1.37489e-05 1.37489e-05 1.37489e-05 1.37489e-05 1.37489e-05 1.37489e-05 1.37489e-05 1.37489e-05
          1.37489e-05 1.37489e-05 1.37488e-05 1.37488e-05 1.37488e-05 1.37488e-05 1.37488e-05 1.37488e-05 1.37488e-05 1.37488e-05 1.37488e-05 1.37488e-05
          1.3751e-05 1.3751e-05 1.37531e-05 1.37531e-05 1.37545e-05 1.37545e-05 1.37554e-05 1.37554e-05 1.37561e-05 1.37561e-05 1.37566e-05 1.37566e-05
          1.3757e-05 1.3757e-05 1.37573e-05 1.37573e-05 1.37575e-05 1.37575e-05 1.37577e-05 1.37577e-05 1.37579e-05 1.37579e-05 1.3758e-05 1.3758e-05
          1.37582e-05 1.37582e-05 1.37583e-05 1.37583e-05 1.37584e-05 1.37584e-05 1.37584e-05 1.37584e-05 1.37585e-05 1.37585e-05 1.37585e-05 1.37585e-05
          1.37586e-05 1.37586e-05 1.37586e-05 1.37586e-05 1.37587e-05 1.37587e-05 1.37587e-05 1.37587e-05 1.37586e-05 1.37586e-05 1.37569e-05 1.37569e-05
          1.37368e-05 1.37368e-05 1.35173e-05 1.35173e-05 1.16925e-05 1.16925e-05 4.12044e-06 4.12044e-06 3.18087e-11 3.18087e-11 3.02738e-11 3.02738e-11
          2.58965e-11 2.58965e-11
        </DataArray>
        <DataArray type="Float32" Name="x^n_H2O" NumberOfComponents="1" format="ascii">
          1e-10 1e-10 1e-10 1e-10 1e-10 1e-10 1e-10 1e-10 1e-10 1e-10 1e-10 1e-10
          1e-10 1e-10 1e-10 1e-10 1e-10 1e-10 1e-10 1e-10 1e-10 1e-10 1e-10 1e-10
          1e-10 1e-10 1e-10 1e-10 1e-10 1e-10 1e-10 1e-10 1e-10 1e-10 1e-10 1e-10
          1e-10 1e-10 1e-10 1e-10 1e-10 1e-10 1e-10 1e-10 1e-10 1e-10 1e-10 1e-10
          1e-10 1e-10 1e-10 1e-10 1e-10 1e-10 1e-10 1e-10 1e-10 1e-10 1e-10 1e-10
          1e-10 1e-10 1e-10 1e-10 1e-10 1e-10 1e-10 1e-10 1e-10 1e-10 1e-10 1e-10
          1e-10 1e-10 1e-10 1e-10 1e-10 1e-10 1e-10 1e-10 1e-10 1e-10 1e-10 1e-10
          1e-10 1e-10 1e-10 1e-10 1e-10 1e-10 1e-10 1e-10 1e-10 1e-10 1e-10 1e-10