<?xml version="1.0"?>
<VTKFile type="UnstructuredGrid" version="0.1" byte_order="LittleEndian">
  <UnstructuredGrid>
    <Piece NumberOfCells="80" NumberOfPoints="162">
      <PointData Scalars="p" Vectors="velocity">
        <DataArray type="Float32" Name="p" NumberOfComponents="1" format="ascii">
          121561 121297 121561 121297 121033 121033 120769 120769 120505 120505 120241 120241
          119976 119976 119712 119712 119448 119448 119184 119184 118920 118920 118656 118656
          118392 118392 118127 118127 117862 117862 117596 117596 117329 117329 117062 117062
          116794 116794 116525 116525 116255 116255 115985 115985 115715 115715 115444 115444
          115174 115174 114903 114903 114632 114632 114361 114361 114090 114090 113819 113819
          113548 113548 113277 113277 113006 113006 112735 112735 112464 112464 112193 112193
          111923 111923 111652 111652 111381 111381 111110 111110 110839 110839 110568 110568
          110297 110297 110026 110026 109755 109755 109484 109484 109213 109213 108942 108942
          108671 108671 108400 108400 108129 108129 107858 107858 107587 107587 107316 107316
          107045 107045 106774 106774 106503 106503 106232 106232 105961 105961 105690 105690
          105419 105419 105148 105148 104877 104877 104606 104606 104335 104335 104065 104065
          103794 103794 103523 103523 103252 103252 102981 102981 102710 102710 102439 102439
          102168 102168 101897 101897 101626 101626 101355 101355 101084 101084 100813 100813
          100542 100542 100271 100271 100000 100000
        </DataArray>
        <DataArray type="Float32" Name="velocity" NumberOfComponents="3" format="ascii">
          0.0001 -2.06574e-18 0 0.0001 0 0 0.0001 -2.06574e-18 0 0.0001 0 0
          0.0001 1.37713e-18 0 0.0001 1.37713e-18 0 0.0001 8.60723e-19 0 0.0001 8.60723e-19 0
          0.0001 -1.72152e-19 0 0.0001 -1.72152e-19 0 0.0001 0 0 0.0001 0 0
          0.0001 1.37708e-18 0 0.0001 1.37708e-18 0 0.0001 -1.54913e-18 0 0.0001 -1.54913e-18 0
          0.0001 1.72143e-19 0 0.0001 1.72143e-19 0 0.0001 0 0 0.0001 0 0
          0.0001 2.58334e-18 0 0.0001 2.58334e-18 0 0.0001 1.72193e-19 0 0.0001 1.72193e-19 0
          9.99999e-05 1.03227e-18 0 9.99999e-05 1.03227e-18 0 9.99994e-05 0 0 9.99994e-05 0 0
          9.99986e-05 1.7133e-19 0 9.99986e-05 1.7133e-19 0 9.99978e-05 1.70818e-19 0 9.99978e-05 1.70818e-19 0
          9.99968e-05 -1.19189e-18 0 9.99968e-05 -1.19189e-18 0 9.99959e-05 1.18817e-18 0 9.99959e-05 1.18817e-18 0
          9.99951e-05 -1.18483e-18 0 9.99951e-05 -1.18483e-18 0 9.99944e-05 1.51976e-18 0 9.99944e-05 1.51976e-18 0
          9.99938e-05 1.17983e-18 0 9.99938e-05 1.17983e-18 0 9.99934e-05 -3.36618e-19 0 9.99934e-05 -3.36618e-19 0
          9.99932e-05 3.36276e-19 0 9.99932e-05 3.36276e-19 0 9.9993e-05 3.3604e-19 0 9.9993e-05 3.3604e-19 0
          9.99928e-05 3.19088e-18 0 9.99928e-05 3.19088e-18 0 9.99928e-05 -5.03671e-19 0 9.99928e-05 -5.03671e-19 0
          9.99927e-05 -1.17501e-18 0 9.99927e-05 -1.17501e-18 0 9.99927e-05 -1.00704e-18 0 9.99927e-05 -1.00704e-18 0
          9.99927e-05 0 0 9.99927e-05 0 0 9.99927e-05 -6.71286e-19 0 9.99927e-05 -6.71286e-19 0
          9.99927e-05 8.39089e-19 0 9.99927e-05 8.39089e-19 0 9.99927e-05 -1.67816e-19 0 9.99927e-05 -1.67816e-19 0
          9.99927e-05 -1.1747e-18 0 9.99927e-05 -1.1747e-18 0 9.99927e-05 5.03442e-19 0 9.99927e-05 5.03442e-19 0
          9.99927e-05 -6.71254e-19 0 9.99927e-05 -6.71254e-19 0 9.99928e-05 1.84595e-18 0 9.99928e-05 1.84595e-18 0
          9.99928e-05 -1.67813e-19 0 9.99928e-05 -1.67813e-19 0 9.99928e-05 -1.67813e-19 0 9.99928e-05 -1.67813e-19 0
          9.99928e-05 -1.51032e-18 0 9.99928e-05 -1.51032e-18 0 9.99928e-05 -2.5172e-18 0 9.99928e-05 -2.5172e-18 0
          9.99928e-05 3.35626e-19 0 9.99928e-05 3.35626e-19 0 9.99928e-05 1.3425e-18 0 9.99928e-05 1.3425e-18 0
          9.99928e-05 -1.17469e-18 0 9.99928e-05 -1.17469e-18 0 9.99929e-05 1.67813e-19 0 9.99929e-05 1.67813e-19 0
          9.99929e-05 3.35626e-19 0 9.99929e-05 3.35626e-19 0 9.99929e-05 3.02063e-18 0 9.99929e-05 3.02063e-18 0
          9.99929e-05 -1.67813e-19 0 9.99929e-05 -1.67813e-19 0 9.99929e-05 -1.84594e-18 0 9.99929e-05 -1.84594e-18 0
          9.99929e-05 2.51719e-18 0 9.99929e-05 2.51719e-18 0 9.99929e-05 1.67813e-19 0 9.99929e-05 1.67813e-19 0
          9.99929e-05 3.35626e-19 0 9.99929e-05 3.35626e-19 0 9.9993e-05 0 0 9.9993e-05 0 0
          9.9993e-05 3.02063e-18 0 9.9993e-05 3.02063e-18 0 9.9993e-05 3.35626e-19 0 9.9993e-05 3.35626e-19 0
          9.9993e-05 -3.35625e-19 0 9.9993e-05 -3.35625e-19 0 9.9993e-05 -2.85282e-18 0 9.9993e-05 -2.85282e-18 0
          9.9993e-05 1.67813e-18 0 9.9993e-05 1.67813e-18 0 9.9993e-05 0 0 9.9993e-05 0 0
          9.9993e-05 2.51719e-18 0 9.9993e-05 2.51719e-18 0 9.99931e-05 -8.39063e-19 0 9.99931e-05 -8.39063e-19 0
          9.99931e-05 0 0 9.99931e-05 0 0 9.99931e-05 5.03438e-19 0 9.99931e-05 5.03438e-19 0
          9.99931e-05 -1.51031e-18 0 9.99931e-05 -1.51031e-18 0 9.99931e-05 5.03438e-19 0 9.99931e-05 5.03438e-19 0
          9.99931e-05 1.67812e-18 0 9.99931e-05 1.67812e-18 0 9.99931e-05 1.67813e-19 0 9.99931e-05 1.67813e-19 0
          9.99932e-05 -6.71248e-19 0 9.99932e-05 -6.71248e-19 0 9.99932e-05 3.35626e-19 0 9.99932e-05 3.35626e-19 0
          9.99932e-05 -1.67812e-19 0 9.99932e-05 -1.67812e-19 0 9.99932e-05 -1.67813e-19 0 9.99932e-05 -1.67813e-19 0
          9.99932e-05 -1.17468e-18 0 9.99932e-05 -1.17468e-18 0 9.99932e-05 5.0344e-19 0 9.99932e-05 5.0344e-19 0
          9.99932e-05 0 0 9.99932e-05 0 0 9.99932e-05 0 0 9.99932e-05 0 0
          9.99933e-05 -1.00686e-18 0 9.99933e-05 -1.00686e-18 0 9.99933e-05 -3.35629e-19 0 9.99933e-05 -3.35629e-19 0
          9.99933e-05 -1.51029e-18 0 9.99933e-05 -1.51029e-18 0 9.99933e-05 1.17471e-18 0 9.99933e-05 1.17471e-18 0
          9.99933e-05 -1.67809e-18 0 9.99933e-05 -1.67809e-18 0 9.99933e-05 -1.34253e-18 0 9.99933e-05 -1.34253e-18 0
          9.99933e-05 0 0 9.99933e-05 0 0
        </DataArray>
        <DataArray type="Float32" Name="T" NumberOfComponents="1" format="ascii">
          291 291 291 291 290.999 290.999 291 291 291.002 291.002 291.001 291.001
          290.998 290.998 290.996 290.996 291 291 291.01 291.01 291.018 291.018 291.011 291.011
          290.977 290.977 290.91 290.91 290.813 290.813 290.695 290.695 290.569 290.569 290.446 290.446
          290.336 290.336 290.244 290.244 290.171 290.171 290.116 290.116 290.076 290.076 290.049 290.049
          290.031 290.031 290.019 290.019 290.012 290.012 290.007 290.007 290.005 290.005 290.003 290.003
          290.002 290.002 290.002 290.002 290.001 290.001 290.001 290.001 290.001 290.001 290.001 290.001
          290.001 290.001 290.001 290.001 290.001 290.001 290.001 290.001 290.001 290.001 290.001 290.001
          290.001 290.001 290.001 290.001 290.001 290.001 290.001 290.001 290.001 290.001 290.001 290.001
          290.001 290.001 290.001 290.001 290.001 290.001 290.001 290.001 290.001 290.001 290.001 290.001
          290.001 290.001 290.001 290.001 290.001 290.001 290.001 290.001 290.001 290.001 290.001 290.001
          290.001 290.001 290.001 290.001 290.001 290.001 290.001 290.001 290.001 290.001 290.001 290.001
          290.001 290.001 290.001 290.001 290.001 290.001 290.001 290.001 290.001 290.001 290.001 290.001
          290.001 290.001 290.001 290.001 290.001 290.001 290.002 290.002 290 290 290.002 290.002
          290 290 290.002 290.002 290 290
        </DataArray>
        <DataArray type="Float32" Name="temperatureExact" NumberOfComponents="1" format="ascii">
          291 291 291 291 291 291 291 291 291 291 291 291
          291 291 291 291 291 291 291 291 291 291 291 291
          291 291 291 291 291 291 291 291 291 291 290 290
          290 290 290 290 290 290 290 290 290 290 290 290
          290 290 290 290 290 290 290 290 290 290 290 290
          290 290 290 290 290 290 290 290 290 290 290 290
          290 290 290 290 290 290 290 290 290 290 290 290
          290 290 290 290 290 290 290 290 290 290 290 290
          290 290 290 290 290 290 290 290 290 290 290 290
          290 290 290 290 290 290 290 290 290 290 290 290
          290 290 290 290 290 290 290 290 290 290 290 290
          290 290 290 290 290 290 290 290 290 290 290 290
          290 290 290 290 290 290 290 290 290 290 290 290
          290 290 290 290 290 290
        </DataArray>
      </PointData>
      <CellData Scalars="process rank">
        <DataArray type="Float32" Name="process rank" NumberOfComponents="1" format="ascii">
          0 0 0 0 0 0 0 0 0 0 0 0
          0 0 0 0 0 0 0 0 0 0 0 0
          0 0 0 0 0 0 0 0 0 0 0 0
          0 0 0 0 0 0 0 0 0 0 0 0
          0 0 0 0 0 0 0 0 0 0 0 0
          0 0 0 0 0 0 0 0 0 0 0 0
          0 0 0 0 0 0 0 0
        </DataArray>
      </CellData>
      <Points>
        <DataArray type="Float32" Name="Coordinates" NumberOfComponents="3" format="ascii">
          0 0 0 0.25 0 0 0 1 0 0.25 1 0
          0.5 0 0 0.5 1 0 0.75 0 0 0.75 1 0
          1 0 0 1 1 0 1.25 0 0 1.25 1 0
          1.5 0 0 1.5 1 0 1.75 0 0 1.75 1 0
          2 0 0 2 1 0 2.25 0 0 2.25 1 0
          2.5 0 0 2.5 1 0 2.75 0 0 2.75 1 0
          3 0 0 3 1 0 3.25 0 0 3.25 1 0
          3.5 0 0 3.5 1 0 3.75 0 0 3.75 1 0
          4 0 0 4 1 0 4.25 0 0 4.25 1 0
          4.5 0 0 4.5 1 0 4.75 0 0 4.75 1 0
          5 0 0 5 1 0 5.25 0 0 5.25 1 0
          5.5 0 0 5.5 1 0 5.75 0 0 5.75 1 0
          6 0 0 6 1 0 6.25 0 0 6.25 1 0
          6.5 0 0 6.5 1 0 6.75 0 0 6.75 1 0
          7 0 0 7 1 0 7.25 0 0 7.25 1 0
          7.5 0 0 7.5 1 0 7.75 0 0 7.75 1 0
          8 0 0 8 1 0 8.25 0 0 8.25 1 0
          8.5 0 0 8.5 1 0 8.75 0 0 8.75 1 0
          9 0 0 9 1 0 9.25 0 0 9.25 1 0
          9.5 0 0 9.5 1 0 9.75 0 0 9.75 1 0
          10 0 0 10 1 0 10.25 0 0 10.25 1 0
          10.5 0 0 10.5 1 0 10.75 0 0 10.75 1 0
          11 0 0 11 1 0 11.25 0 0 11.25 1 0
          11.5 0 0 11.5 1 0 11.75 0 0 11.75 1 0
          12 0 0 12 1 0 12.25 0 0 12.25 1 0
          12.5 0 0 12.5 1 0 12.75 0 0 12.75 1 0
          13 0 0 13 1 0 13.25 0 0 13.25 1 0
          13.5 0 0 13.5 1 0 13.75 0 0 13.75 1 0
          14 0 0 14 1 0 14.25 0 0 14.25 1 0
          14.5 0 0 14.5 1 0 14.75 0 0 14.75 1 0
          15 0 0 15 1 0 15.25 0 0 15.25 1 0
          15.5 0 0 15.5 1 0 15.75 0 0 15.75 1 0
          16 0 0 16 1 0 16.25 0 0 16.25 1 0
          16.5 0 0 16.5 1 0 16.75 0 0 16.75 1 0
          17 0 0 17 1 0 17.25 0 0 17.25 1 0
          17.5 0 0 17.5 1 0 17.75 0 0 17.75 1 0
          18 0 0 18 1 0 18.25 0 0 18.25 1 0
          18.5 0 0 18.5 1 0 18.75 0 0 18.75 1 0
          19 0 0 19 1 0 19.25 0 0 19.25 1 0
          19.5 0 0 19.5 1 0 19.75 0 0 19.75 1 0
          20 0 0 20 1 0
        </DataArray>
      </Points>
      <Cells>
        <DataArray type="Int32" Name="connectivity" NumberOfComponents="1" format="ascii">
          0 1 3 2 1 4 5 3 4 6 7 5
          6 8 9 7 8 10 11 9 10 12 13 11
          12 14 15 13 14 16 17 15 16 18 19 17
          18 20 21 19 20 22 23 21 22 24 25 23
          24 26 27 25 26 28 29 27 28 30 31 29
          30 32 33 31 32 34 35 33 34 36 37 35
          36 38 39 37 38 40 41 39 40 42 43 41
          42 44 45 43 44 46 47 45 46 48 49 47
          48 50 51 49 50 52 53 51 52 54 55 53
          54 56 57 55 56 58 59 57 58 60 61 59
          60 62 63 61 62 64 65 63 64 66 67 65
          66 68 69 67 68 70 71 69 70 72 73 71
          72 74 75 73 74 76 77 75 76 78 79 77
          78 80 81 79 80 82 83 81 82 84 85 83
          84 86 87 85 86 88 89 87 88 90 91 89
          90 92 93 91 92 94 95 93 94 96 97 95
          96 98 99 97 98 100 101 99 100 102 103 101
          102 104 105 103 104 106 107 105 106 108 109 107
          108 110 111 109 110 112 113 111 112 114 115 113
          114 116 117 115 116 118 119 117 118 120 121 119
          120 122 123 121 122 124 125 123 124 126 127 125
          126 128 129 127 128 130 131 129 130 132 133 131
          132 134 135 133 134 136 137 135 136 138 139 137
          138 140 141 139 140 142 143 141 142 144 145 143
          144 146 147 145 146 148 149 147 148 150 151 149
          150 152 153 151 152 154 155 153 154 156 157 155
          156 158 159 157 158 160 161 159
        </DataArray>
        <DataArray type="Int32" Name="offsets" NumberOfComponents="1" format="ascii">
          4 8 12 16 20 24 28 32 36 40 44 48
          52 56 60 64 68 72 76 80 84 88 92 96
          100 104 108 112 116 120 124 128 132 136 140 144
          148 152 156 160 164 168 172 176 180 184 188 192
          196 200 204 208 212 216 220 224 228 232 236 240
          244 248 252 256 260 264 268 272 276 280 284 288
          292 296 300 304 308 312 316 320
        </DataArray>
        <DataArray type="UInt8" Name="types" NumberOfComponents="1" format="ascii">
          9 9 9 9 9 9 9 9 9 9 9 9
          9 9 9 9 9 9 9 9 9 9 9 9
          9 9 9 9 9 9 9 9 9 9 9 9
          9 9 9 9 9 9 9 9 9 9 9 9
          9 9 9 9 9 9 9 9 9 9 9 9
          9 9 9 9 9 9 9 9 9 9 9 9
          9 9 9 9 9 9 9 9
        </DataArray>
      </Cells>
    </Piece>
  </UnstructuredGrid>
</VTKFile>
