<?xml version="1.0"?>
<VTKFile type="PolyData" version="0.1" byte_order="LittleEndian">
  <PolyData>
    <Piece NumberOfLines="80" NumberOfPoints="81">
      <PointData Scalars="p">
        <DataArray type="Float32" Name="p" NumberOfComponents="1" format="ascii">
          121558 121294 121030 120765 120501 120237 119973 119709 119444 119180 118916 118651
          118386 118121 117855 117589 117322 117055 116787 116519 116250 115981 115712 115442
          115172 114902 114631 114360 114090 113819 113548 113277 113006 112735 112464 112193
          111922 111652 111381 111110 110839 110568 110297 110026 109755 109484 109213 108942
          108671 108400 108129 107858 107587 107316 107045 106774 106503 106232 105961 105690
          105419 105148 104877 104606 104335 104065 103794 103523 103252 102981 102710 102439
          102168 101897 101626 101355 101084 100813 100542 100271 100000
        </DataArray>
        <DataArray type="Float32" Name="T" NumberOfComponents="1" format="ascii">
          291 291 291 291 290.999 290.998 290.994 290.987 290.975 290.955 290.926 290.886
          290.835 290.774 290.705 290.63 290.551 290.473 290.398 290.328 290.266 290.211 290.164 290.126
          290.095 290.07 290.051 290.037 290.027 290.019 290.013 290.009 290.007 290.005 290.003 290.003
          290.002 290.002 290.002 290.001 290.001 290.001 290.001 290.001 290.001 290.001 290.001 290.001
          290.001 290.001 290.001 290.001 290.001 290.001 290.001 290.001 290.001 290.001 290.001 290.001
          290.001 290.001 290.001 290.001 290.001 290.001 290.001 290.001 290.001 290.001 290.001 290.001
          290.001 290.001 290.001 290.001 290.001 290.001 290.001 290.001 290
        </DataArray>
        <DataArray type="Float32" Name="temperatureExact" NumberOfComponents="1" format="ascii">
          291 291 291 291 291 291 291 291 291 291 291 291
          291 291 291 291 291 290 290 290 290 290 290 290
          290 290 290 290 290 290 290 290 290 290 290 290
          290 290 290 290 290 290 290 290 290 290 290 290
          290 290 290 290 290 290 290 290 290 290 290 290
          290 290 290 290 290 290 290 290 290 290 290 290
          290 290 290 290 290 290 290 290 290
        </DataArray>
      </PointData>
      <CellData Scalars="velocity_liq (m/s)">
        <DataArray type="Float32" Name="velocity_liq (m/s)" NumberOfComponents="1" format="ascii">
          0.0001 0.0001 0.0001 0.0001 0.0001 0.0001 0.0001 0.0001 9.99999e-05 9.99998e-05 9.99995e-05 9.99992e-05
          9.99988e-05 9.99984e-05 9.99978e-05 9.99973e-05 9.99967e-05 9.99961e-05 9.99955e-05 9.9995e-05 9.99945e-05 9.99941e-05 9.99938e-05 9.99935e-05
          9.99933e-05 9.99931e-05 9.9993e-05 9.99929e-05 9.99928e-05 9.99928e-05 9.99928e-05 9.99927e-05 9.99927e-05 9.99927e-05 9.99927e-05 9.99928e-05
          9.99928e-05 9.99928e-05 9.99928e-05 9.99928e-05 9.99928e-05 9.99928e-05 9.99928e-05 9.99928e-05 9.99929e-05 9.99929e-05 9.99929e-05 9.99929e-05
          9.99929e-05 9.99929e-05 9.99929e-05 9.99929e-05 9.9993e-05 9.9993e-05 9.9993e-05 9.9993e-05 9.9993e-05 9.9993e-05 9.9993e-05 9.9993e-05
          9.99931e-05 9.99931e-05 9.99931e-05 9.99931e-05 9.99931e-05 9.99931e-05 9.99931e-05 9.99932e-05 9.99932e-05 9.99932e-05 9.99932e-05 9.99932e-05
          9.99932e-05 9.99932e-05 9.99933e-05 9.99933e-05 9.99933e-05 9.99933e-05 9.99933e-05 9.99933e-05
        </DataArray>
        <DataArray type="Float32" Name="process rank" NumberOfComponents="1" format="ascii">
          0 0 0 0 0 0 0 0 0 0 0 0
          0 0 0 0 0 0 0 0 0 0 0 0
          0 0 0 0 0 0 0 0 0 0 0 0
          0 0 0 0 0 0 0 0 0 0 0 0
          0 0 0 0 0 0 0 0 0 0 0 0
          0 0 0 0 0 0 0 0 0 0 0 0
          0 0 0 0 0 0 0 0
        </DataArray>
      </CellData>
      <Points>
        <DataArray type="Float32" Name="Coordinates" NumberOfComponents="3" format="ascii">
          0 0 0 0.25 0 0 0.5 0 0 0.75 0 0
          1 0 0 1.25 0 0 1.5 0 0 1.75 0 0
          2 0 0 2.25 0 0 2.5 0 0 2.75 0 0
          3 0 0 3.25 0 0 3.5 0 0 3.75 0 0
          4 0 0 4.25 0 0 4.5 0 0 4.75 0 0
          5 0 0 5.25 0 0 5.5 0 0 5.75 0 0
          6 0 0 6.25 0 0 6.5 0 0 6.75 0 0
          7 0 0 7.25 0 0 7.5 0 0 7.75 0 0
          8 0 0 8.25 0 0 8.5 0 0 8.75 0 0
          9 0 0 9.25 0 0 9.5 0 0 9.75 0 0
          10 0 0 10.25 0 0 10.5 0 0 10.75 0 0
          11 0 0 11.25 0 0 11.5 0 0 11.75 0 0
          12 0 0 12.25 0 0 12.5 0 0 12.75 0 0
          13 0 0 13.25 0 0 13.5 0 0 13.75 0 0
          14 0 0 14.25 0 0 14.5 0 0 14.75 0 0
          15 0 0 15.25 0 0 15.5 0 0 15.75 0 0
          16 0 0 16.25 0 0 16.5 0 0 16.75 0 0
          17 0 0 17.25 0 0 17.5 0 0 17.75 0 0
          18 0 0 18.25 0 0 18.5 0 0 18.75 0 0
          19 0 0 19.25 0 0 19.5 0 0 19.75 0 0
          20 0 0
        </DataArray>
      </Points>
      <Lines>
        <DataArray type="Int32" Name="connectivity" NumberOfComponents="1" format="ascii">
          0 1 1 2 2 3 3 4 4 5 5 6
          6 7 7 8 8 9 9 10 10 11 11 12
          12 13 13 14 14 15 15 16 16 17 17 18
          18 19 19 20 20 21 21 22 22 23 23 24
          24 25 25 26 26 27 27 28 28 29 29 30
          30 31 31 32 32 33 33 34 34 35 35 36
          36 37 37 38 38 39 39 40 40 41 41 42
          42 43 43 44 44 45 45 46 46 47 47 48
          48 49 49 50 50 51 51 52 52 53 53 54
          54 55 55 56 56 57 57 58 58 59 59 60
          60 61 61 62 62 63 63 64 64 65 65 66
          66 67 67 68 68 69 69 70 70 71 71 72
          72 73 73 74 74 75 75 76 76 77 77 78
          78 79 79 80
        </DataArray>
        <DataArray type="Int32" Name="offsets" NumberOfComponents="1" format="ascii">
          2 4 6 8 10 12 14 16 18 20 22 24
          26 28 30 32 34 36 38 40 42 44 46 48
          50 52 54 56 58 60 62 64 66 68 70 72
          74 76 78 80 82 84 86 88 90 92 94 96
          98 100 102 104 106 108 110 112 114 116 118 120
          122 124 126 128 130 132 134 136 138 140 142 144
          146 148 150 152 154 156 158 160
        </DataArray>
      </Lines>
    </Piece>
  </PolyData>
</VTKFile>
