<?xml version="1.0"?>
<VTKFile type="UnstructuredGrid" version="0.1" byte_order="LittleEndian">
  <UnstructuredGrid>
    <Piece NumberOfCells="200" NumberOfPoints="402">
      <PointData Scalars="p" Vectors="velocity_liq">
        <DataArray type="Float32" Name="p" NumberOfComponents="1" format="ascii">
          100000 100000 100000 100000 100000 100000 100000 100000 100000 100000 100000 100000
          100000 100000 100000 100000 100000 100000 100000 100000 100000 100000 100000 100000
          100000 100000 100000 100000 100000 100000 100000 100000 100000 100000 100000 100000
          100000 100000 100000 100000 100000 100000 100000 100000 100000 100000 100000 100000
          100000 100000 100000 100000 100000 100000 100000 100000 100000 100000 100000 100000
          100000 100000 100000 100000 100000 100000 100000 100000 100000 100000 100000 100000
          100000 100000 100000 100000 100000 100000 100000 100000 100000 100000 100000 100000
          100000 100000 100000 100000 100000 100000 100000 100000 100000 100000 100000 100000
          100000 100000 100000 100000 100000 100000 100000 100000 100000 100000 100000 100000
          100000 100000 100000 100000 100000 100000 100000 100000 100000 100000 100000 100000
          100000 100000 100000 100000 100000 100000 100000 100000 100000 100000 100000 100000
          100000 100000 100000 100000 100000 100000 100000 100000 100000 100000 100000 100000
          100000 100000 100000 100000 100000 100000 100000 100000 100000 100000 100000 100000
          100000 100000 100000 100000 100000 100000 100000 100000 100000 100000 100000 100000
          100000 100000 100000 100000 100000 100000 100000 100000 100000 100000 100000 100000
          100000 100000 100000 100000 100000 100000 100000 100000 100000 100000 100000 100000
          100000 100000 100000 100000 100000 100000 100000 100000 100000 100000 100000 100000
          100000 100000 100000 100000 100000 100000 100000 100000 100000 100000 100000 100000
          100000 100000 100000 100000 100000 100000 100000 100000 100000 100000 100000 100000
          100000 100000 100000 100000 100000 100000 100000 100000 100000 100000 100000 100000
          100000 100000 100000 100000 100000 100000 100000 100000 100000 100000 100000 100000
          100000 100000 100000 100000 100000 100000 100000 100000 100000 100000 100000 100000
          100000 100000 100000 100000 100000 100000 100000 100000 100000 100000 100000 100000
          100000 100000 100000 100000 100000 100000 100000 100000 100000 100000 100000 100000
          100000 100000 100000 100000 100000 100000 100000 100000 100000 100000 100000 100000
          100000 100000 100000 100000 100000 100000 100000 100000 100000 100000 100000 100000
          100000 100000 100000 100000 100000 100000 100000 100000 100000 100000 100000 100000
          100000 100000 100000 100000 100000 100000 100000 100000 100000 100000 100000 100000
          100000 100000 100000 100000 100000 100000 100000 100000 100000 100000 100000 100000
          100000 100000 100000 100000 100000 100000 100000 100000 100000 100000 100000 100000
          100000 100000 100000 100000 100000 100000 100000 100000 100000 100000 100000 100000
          100000 100000 100000 100000 100000 100000 100000 100000 100000 100000 100000 100000
          100000 100000 100000 100000 100000 100000 100000 100000 100000 100000 100000 100000
          100000 100000 100000 100000 100000 100000
        </DataArray>
        <DataArray type="Float32" Name="velocity_liq" NumberOfComponents="3" format="ascii">
          -1.17342e-09 8.52243e-19 0 -1.16807e-09 1.68217e-18 0 -1.17342e-09 8.52243e-19 0 -1.16807e-09 1.68217e-18 0
          -1.15247e-09 3.1127e-18 0 -1.15247e-09 3.1127e-18 0 -1.1275e-09 1.84323e-18 0 -1.1275e-09 1.84323e-18 0
          -1.09416e-09 3.84099e-18 0 -1.09416e-09 3.84099e-18 0 -1.05354e-09 1.9959e-18 0 -1.05354e-09 1.9959e-18 0
          -1.00684e-09 4.73072e-18 0 -1.00684e-09 4.73072e-18 0 -9.55291e-10 2.92107e-18 0 -9.55291e-10 2.92107e-18 0
          -9.00096e-10 2.50216e-18 0 -9.00096e-10 2.50216e-18 0 -8.42411e-10 1.90326e-18 0 -8.42411e-10 1.90326e-18 0
          -7.83308e-10 1.883e-18 0 -7.83308e-10 1.883e-18 0 -7.23751e-10 2.05039e-18 0 -7.23751e-10 2.05039e-18 0
          -6.64583e-10 0 0 -6.64583e-10 0 0 -6.06523e-10 1.82974e-19 0 -6.06523e-10 1.82974e-19 0
          -5.50164e-10 -1.81448e-19 0 -5.50164e-10 -1.81448e-19 0 -4.95978e-10 -9.00207e-19 0 -4.95978e-10 -9.00207e-19 0
          -4.44323e-10 1.07251e-18 0 -4.44323e-10 1.07251e-18 0 -3.95459e-10 -5.32716e-19 0 -3.95459e-10 -5.32716e-19 0
          -3.49553e-10 1.76499e-19 0 -3.49553e-10 1.76499e-19 0 -3.06698e-10 -1.75525e-19 0 -3.06698e-10 -1.75525e-19 0
          -2.6692e-10 1.74645e-19 0 -2.6692e-10 1.74645e-19 0 -2.30193e-10 -3.47704e-19 0 -2.30193e-10 -3.47704e-19 0
          -1.96448e-10 0 0 -1.96448e-10 0 0 -1.65582e-10 -3.45004e-19 0 -1.65582e-10 -3.45004e-19 0
          -1.37468e-10 -1.71933e-19 0 -1.37468e-10 -1.71933e-19 0 -1.1196e-10 5.14276e-19 0 -1.1196e-10 5.14276e-19 0
          -8.89028e-11 -2.90657e-18 0 -8.89028e-11 -2.90657e-18 0 -6.81318e-11 -1.19403e-18 0 -6.81318e-11 -1.19403e-18 0
          -4.94814e-11 0 0 -4.94814e-11 0 0 -3.27863e-11 -1.01947e-18 0 -3.27863e-11 -1.01947e-18 0
          -1.78849e-11 -1.69638e-19 0 -1.78849e-11 -1.69638e-19 0 -4.62115e-12 -1.69397e-19 0 -4.62115e-12 -1.69397e-19 0
          7.15409e-12 0 0 7.15408e-12 0 0 1.7582e-11 -3.38003e-19 0 1.7582e-11 -3.38003e-19 0
          2.67948e-11 -2.87029e-18 0 2.67947e-11 -2.87029e-18 0 3.49158e-11 -1.3496e-18 0 3.49158e-11 -1.3496e-18 0
          4.20591e-11 1.68578e-19 0 4.20591e-11 1.68578e-19 0 4.83295e-11 1.34777e-18 0 4.83295e-11 1.34777e-18 0
          5.3823e-11 -1.68379e-19 0 5.3823e-11 -1.68379e-19 0 5.86269e-11 -1.68299e-18 0 5.86269e-11 -1.68299e-18 0
          6.28204e-11 -1.6823e-19 0 6.28204e-11 -1.6823e-19 0 6.64747e-11 -1.00902e-18 0 6.64747e-11 -1.00902e-18 0
          6.9654e-11 -8.40593e-19 0 6.9654e-11 -8.40593e-19 0 7.24159e-11 1.17652e-18 0 7.24159e-11 1.17652e-18 0
          7.48116e-11 -5.04107e-19 0 7.48116e-11 -5.04107e-19 0 7.68868e-11 -5.04009e-19 0 7.68868e-11 -5.04009e-19 0
          7.86818e-11 -1.51177e-18 0 7.86818e-11 -1.51177e-18 0 8.02326e-11 -6.71801e-19 0 8.02327e-11 -6.71801e-19 0
          8.15708e-11 -5.03788e-19 0 8.15708e-11 -5.03788e-19 0 8.27241e-11 -1.5112e-18 0 8.27241e-11 -1.5112e-18 0
          8.3717e-11 -1.67896e-18 0 8.3717e-11 -1.67896e-18 0 8.45709e-11 -3.02189e-18 0 8.45709e-11 -3.02189e-18 0
          8.53044e-11 1.67872e-19 0 8.53045e-11 1.67872e-19 0 8.5934e-11 1.3429e-18 0 8.5934e-11 1.3429e-18 0
          8.64739e-11 1.51069e-18 0 8.64739e-11 1.51069e-18 0 8.69364e-11 1.51062e-18 0 8.69364e-11 1.51062e-18 0
          8.73323e-11 0 0 8.73323e-11 0 0 8.7671e-11 -1.8462e-18 0 8.7671e-11 -1.8462e-18 0
          8.79604e-11 -1.51048e-18 0 8.79604e-11 -1.51048e-18 0 8.82076e-11 -2.34959e-18 0 8.82076e-11 -2.34959e-18 0
          8.84185e-11 1.67825e-19 0 8.84185e-11 1.67825e-19 0 8.85984e-11 -1.5104e-18 0 8.85984e-11 -1.5104e-18 0
          8.87517e-11 -5.0346e-19 0 8.87517e-11 -5.0346e-19 0 8.88823e-11 1.67818e-19 0 8.88824e-11 1.67818e-19 0
          8.89935e-11 -1.34253e-18 0 8.89935e-11 -1.34253e-18 0 8.90881e-11 0 0 8.90881e-11 0 0
          8.91686e-11 2.85284e-18 0 8.91685e-11 2.85284e-18 0 8.92369e-11 1.67813e-19 0 8.92369e-11 1.67813e-19 0
          8.92949e-11 5.03436e-19 0 8.9295e-11 5.03436e-19 0 8.93443e-11 1.67811e-18 0 8.93443e-11 1.67811e-18 0
          8.93861e-11 2.34935e-18 0 8.93861e-11 2.34935e-18 0 8.94216e-11 1.6781e-19 0 8.94216e-11 1.6781e-19 0
          8.94517e-11 0 0 8.94517e-11 0 0 8.94772e-11 1.51028e-18 0 8.94773e-11 1.51028e-18 0
          8.94989e-11 1.67809e-18 0 8.94989e-11 1.67809e-18 0 8.95172e-11 0 0 8.95172e-11 0 0
          8.95327e-11 3.35617e-19 0 8.95327e-11 3.35617e-19 0 8.95458e-11 -2.51713e-18 0 8.95458e-11 -2.51713e-18 0
          8.95569e-11 -1.00685e-18 0 8.9557e-11 -1.00685e-18 0 8.95663e-11 1.67808e-19 0 8.95663e-11 1.67808e-19 0
          8.95743e-11 5.03424e-19 0 8.95743e-11 5.03424e-19 0 8.9581e-11 3.35616e-19 0 8.9581e-11 3.35616e-19 0
          8.95867e-11 -3.35616e-19 0 8.95867e-11 -3.35616e-19 0 8.95915e-11 1.67808e-19 0 8.95915e-11 1.67808e-19 0
          8.95956e-11 -1.00685e-18 0 8.95956e-11 -1.00685e-18 0 8.9599e-11 -3.35615e-19 0 8.9599e-11 -3.35615e-19 0
          8.96019e-11 -1.67808e-19 0 8.96019e-11 -1.67808e-19 0 8.96043e-11 -1.17465e-18 0 8.96043e-11 -1.17465e-18 0
          8.96064e-11 -2.01369e-18 0 8.96064e-11 -2.01369e-18 0 8.96081e-11 -2.34931e-18 0 8.96082e-11 -2.34931e-18 0
          8.96096e-11 -5.03423e-19 0 8.96096e-11 -5.03423e-19 0 8.96108e-11 3.18834e-18 0 8.96108e-11 3.18834e-18 0
          8.96119e-11 0 0 8.96119e-11 0 0 8.96128e-11 0 0 8.96128e-11 0 0
          8.96135e-11 0 0 8.96135e-11 0 0 8.96141e-11 -1.17465e-18 0 8.96142e-11 -1.17465e-18 0
          8.96147e-11 -3.35615e-19 0 8.96147e-11 -3.35615e-19 0 8.96151e-11 -1.67807e-19 0 8.96151e-11 -1.67807e-19 0
          8.96155e-11 1.51027e-18 0 8.96155e-11 1.51027e-18 0 8.96158e-11 1.67807e-19 0 8.96158e-11 1.67807e-19 0
          8.96161e-11 -1.67807e-18 0 8.96161e-11 -1.67807e-18 0 8.96163e-11 -3.35615e-19 0 8.96163e-11 -3.35615e-19 0
          8.96165e-11 -2.1815e-18 0 8.96165e-11 -2.1815e-18 0 8.96166e-11 -8.39037e-19 0 8.96167e-11 -8.39037e-19 0
          8.96168e-11 1.00684e-18 0 8.96168e-11 1.00684e-18 0 8.96169e-11 -3.35615e-19 0 8.96169e-11 -3.35615e-19 0
          8.9617e-11 -1.67807e-19 0 8.9617e-11 -1.67807e-19 0 8.9617e-11 6.7123e-19 0 8.9617e-11 6.7123e-19 0
          8.96171e-11 -1.17465e-18 0 8.96171e-11 -1.17465e-18 0 8.96172e-11 2.85273e-18 0 8.96172e-11 2.85273e-18 0
          8.96173e-11 1.51027e-18 0 8.96172e-11 1.51027e-18 0 8.96173e-11 3.35615e-19 0 8.96172e-11 3.35615e-19 0
          8.96173e-11 1.67807e-19 0 8.96173e-11 1.67807e-19 0 8.96174e-11 -6.7123e-19 0 8.96174e-11 -6.7123e-19 0
          8.96174e-11 1.17465e-18 0 8.96174e-11 1.17465e-18 0 8.96174e-11 5.03422e-19 0 8.96174e-11 5.03422e-19 0
          8.96174e-11 1.84588e-18 0 8.96174e-11 1.84588e-18 0 8.96174e-11 1.17465e-18 0 8.96174e-11 1.17465e-18 0
          8.96174e-11 1.67807e-18 0 8.96174e-11 1.67807e-18 0 8.96174e-11 -1.67807e-19 0 8.96174e-11 -1.67807e-19 0
          8.96174e-11 5.03422e-19 0 8.96175e-11 5.03422e-19 0 8.96174e-11 0 0 8.96175e-11 0 0
          8.96174e-11 0 0 8.96175e-11 0 0 8.96174e-11 1.67807e-19 0 8.96174e-11 1.67807e-19 0
          8.96175e-11 -1.67807e-18 0 8.96175e-11 -1.67807e-18 0 8.96175e-11 0 0 8.96175e-11 0 0
          8.96175e-11 -6.7123e-19 0 8.96175e-11 -6.7123e-19 0 8.96175e-11 -1.00684e-18 0 8.96175e-11 -1.00684e-18 0
          8.96175e-11 -3.35615e-19 0 8.96175e-11 -3.35615e-19 0 8.96175e-11 -6.7123e-19 0 8.96175e-11 -6.7123e-19 0
          8.96175e-11 1.67807e-19 0 8.96175e-11 1.67807e-19 0 8.96175e-11 -1.67807e-19 0 8.96175e-11 -1.67807e-19 0
          8.96175e-11 0 0 8.96175e-11 0 0 8.96175e-11 1.67807e-19 0 8.96175e-11 1.67807e-19 0
          8.96175e-11 1.84588e-18 0 8.96175e-11 1.84588e-18 0 8.96175e-11 1.51027e-18 0 8.96175e-11 1.51027e-18 0
          8.96175e-11 4.36299e-18 0 8.96175e-11 4.36299e-18 0 8.96175e-11 3.35615e-18 0 8.96175e-11 3.35615e-18 0
          8.96175e-11 3.52396e-18 0 8.96175e-11 3.52396e-18 0 8.96175e-11 3.69176e-18 0 8.96175e-11 3.69176e-18 0
          8.96175e-11 4.02738e-18 0 8.96175e-11 4.02738e-18 0 8.96175e-11 2.85273e-18 0 8.96175e-11 2.85273e-18 0
          8.96175e-11 3.69176e-18 0 8.96174e-11 3.69176e-18 0 8.96175e-11 4.5308e-18 0 8.96175e-11 4.5308e-18 0
          8.96175e-11 2.1815e-18 0 8.96175e-11 2.1815e-18 0 8.96175e-11 3.69176e-18 0 8.96175e-11 3.69176e-18 0
          8.96175e-11 3.85957e-18 0 8.96175e-11 3.85957e-18 0 8.96175e-11 4.02738e-18 0 8.96175e-11 4.02738e-18 0
          8.96175e-11 3.52396e-18 0 8.96175e-11 3.52396e-18 0 8.96175e-11 3.69176e-18 0 8.96175e-11 3.69176e-18 0
          8.96175e-11 2.01369e-18 0 8.96175e-11 2.01369e-18 0 8.96175e-11 3.35615e-18 0 8.96175e-11 3.35615e-18 0
          8.96175e-11 2.3493e-18 0 8.96175e-11 2.3493e-18 0 8.96175e-11 1.67807e-18 0 8.96175e-11 1.67807e-18 0
          8.96175e-11 0 0 8.96175e-11 0 0 8.96175e-11 1.67807e-19 0 8.96175e-11 1.67807e-19 0
          8.96175e-11 1.67807e-18 0 8.96174e-11 1.67807e-18 0 8.96175e-11 -1.67807e-19 0 8.96175e-11 -1.67807e-19 0
          8.96175e-11 0 0 8.96175e-11 0 0 8.96175e-11 -1.84588e-18 0 8.96175e-11 -1.84588e-18 0
          8.96175e-11 -3.35615e-19 0 8.96175e-11 -3.35615e-19 0 8.96175e-11 -1.17465e-18 0 8.96175e-11 -1.17465e-18 0
          8.96175e-11 1.67807e-18 0 8.96175e-11 1.67807e-18 0 8.96175e-11 0 0 8.96175e-11 0 0
          8.96175e-11 1.51027e-18 0 8.96175e-11 1.51027e-18 0 8.96175e-11 1.84588e-18 0 8.96175e-11 1.84588e-18 0
          8.96175e-11 1.17465e-18 0 8.96175e-11 1.17465e-18 0 8.96175e-11 2.01369e-18 0 8.96175e-11 2.01369e-18 0
          8.96175e-11 1.67807e-19 0 8.96175e-11 1.67807e-19 0 8.96175e-11 -1.67807e-19 0 8.96175e-11 -1.67807e-19 0
          8.96175e-11 -1.67807e-19 0 8.96175e-11 -1.67807e-19 0 8.96175e-11 1.67807e-19 0 8.96175e-11 1.67807e-19 0
          8.96175e-11 -1.67807e-19 0 8.96175e-11 -1.67807e-19 0 8.96175e-11 1.17465e-18 0 8.96175e-11 1.17465e-18 0
          8.96175e-11 -1.34246e-18 0 8.96175e-11 -1.34246e-18 0 8.96175e-11 -1.67807e-18 0 8.96175e-11 -1.67807e-18 0
          8.96175e-11 0 0 8.96175e-11 0 0 8.96175e-11 1.51027e-18 0 8.96175e-11 1.51027e-18 0
          8.96175e-11 1.67807e-18 0 8.96175e-11 1.67807e-18 0 8.96175e-11 -1.67807e-19 0 8.96175e-11 -1.67807e-19 0
          8.96175e-11 6.7123e-19 0 8.96175e-11 6.7123e-19 0 8.96175e-11 1.67807e-19 0 8.96175e-11 1.67807e-19 0
          8.96175e-11 -1.67807e-19 0 8.96175e-11 -1.67807e-19 0 8.96175e-11 0 0 8.96175e-11 0 0
          8.96175e-11 -1.17465e-18 0 8.96175e-11 -1.17465e-18 0 8.96175e-11 -3.35615e-19 0 8.96175e-11 -3.35615e-19 0
          8.96175e-11 -1.34246e-18 0 8.96175e-11 -1.34246e-18 0 8.96175e-11 3.35615e-19 0 8.96175e-11 3.35615e-19 0
          8.96175e-11 1.17465e-18 0 8.96175e-11 1.17465e-18 0 8.96175e-11 0 0 8.96175e-11 0 0
          8.96175e-11 2.1815e-18 0 8.96175e-11 2.1815e-18 0 8.96175e-11 -3.35615e-19 0 8.96175e-11 -3.35615e-19 0
          8.96175e-11 0 0 8.96175e-11 0 0 8.96175e-11 0 0 8.96175e-11 0 0
          8.96175e-11 -1.67807e-18 0 8.96175e-11 -1.67807e-18 0 8.96175e-11 -1.67807e-19 0 8.96175e-11 -1.67807e-19 0
          8.96175e-11 0 0 8.96175e-11 0 0 8.96175e-11 -1.00684e-18 0 8.96175e-11 -1.00684e-18 0
          8.96175e-11 0 0 8.96175e-11 0 0 8.96175e-11 2.01369e-18 0 8.96175e-11 2.01369e-18 0
          8.96175e-11 0 0 8.96175e-11 0 0
        </DataArray>
        <DataArray type="Float32" Name="T" NumberOfComponents="1" format="ascii">
          300 299.409 300 299.409 298.822 298.822 298.242 298.242 297.673 297.673 297.118 297.118
          296.58 296.58 296.061 296.061 295.565 295.565 295.092 295.092 294.644 294.644 294.221 294.221
          293.826 293.826 293.456 293.456 293.114 293.114 292.797 292.797 292.506 292.506 292.239 292.239
          291.995 291.995 291.773 291.773 291.573 291.573 291.392 291.392 291.229 291.229 291.082 291.082
          290.952 290.952 290.835 290.835 290.732 290.732 290.64 290.64 290.558 290.558 290.487 290.487
          290.423 290.423 290.368 290.368 290.319 290.319 290.276 290.276 290.239 290.239 290.207 290.207
          290.178 290.178 290.154 290.154 290.132 290.132 290.114 290.114 290.098 290.098 290.084 290.084
          290.072 290.072 290.062 290.062 290.053 290.053 290.045 290.045 290.039 290.039 290.033 290.033
          290.028 290.028 290.024 290.024 290.021 290.021 290.018 290.018 290.015 290.015 290.013 290.013
          290.011 290.011 290.009 290.009 290.008 290.008 290.007 290.007 290.006 290.006 290.005 290.005
          290.004 290.004 290.003 290.003 290.003 290.003 290.002 290.002 290.002 290.002 290.002 290.002
          290.001 290.001 290.001 290.001 290.001 290.001 290.001 290.001 290.001 290.001 290.001 290.001
          290.001 290.001 290 290 290 290 290 290 290 290 290 290
          290 290 290 290 290 290 290 290 290 290 290 290
          290 290 290 290 290 290 290 290 290 290 290 290
          290 290 290 290 290 290 290 290 290 290 290 290
          290 290 290 290 290 290 290 290 290 290 290 290
          290 290 290 290 290 290 290 290 290 290 290 290
          290 290 290 290 290 290 290 290 290 290 290 290
          290 290 290 290 290 290 290 290 290 290 290 290
          290 290 290 290 290 290 290 290 290 290 290 290
          290 290 290 290 290 290 290 290 290 290 290 290
          290 290 290 290 290 290 290 290 290 290 290 290
          290 290 290 290 290 290 290 290 290 290 290 290
          290 290 290 290 290 290 290 290 290 290 290 290
          290 290 290 290 290 290 290 290 290 290 290 290
          290 290 290 290 290 290 290 290 290 290 290 290
          290 290 290 290 290 290 290 290 290 290 290 290
          290 290 290 290 290 290 290 290 290 290 290 290
          290 290 290 290 290 290 290 290 290 290 290 290
          290 290 290 290 290 290 290 290 290 290 290 290
          290 290 290 290 290 290 290 290 290 290 290 290
          290 290 290 290 290 290 290 290 290 290 290 290
          290 290 290 290 290 290
        </DataArray>
        <DataArray type="Float32" Name="temperatureExact" NumberOfComponents="1" format="ascii">
          300 299.447 300 299.447 298.897 298.897 298.352 298.352 297.814 297.814 297.287 297.287
          296.773 296.773 296.273 296.273 295.789 295.789 295.324 295.324 294.879 294.879 294.454 294.454
          294.052 294.052 293.672 293.672 293.315 293.315 292.981 292.981 292.671 292.671 292.383 292.383
          292.118 292.118 291.875 291.875 291.653 291.653 291.452 291.452 291.27 291.27 291.106 291.106
          290.96 290.96 290.829 290.829 290.713 290.713 290.611 290.611 290.521 290.521 290.443 290.443
          290.374 290.374 290.315 290.315 290.264 290.264 290.221 290.221 290.184 290.184 290.152 290.152
          290.125 290.125 290.103 290.103 290.084 290.084 290.068 290.068 290.055 290.055 290.045 290.045
          290.036 290.036 290.029 290.029 290.023 290.023 290.018 290.018 290.014 290.014 290.011 290.011
          290.009 290.009 290.007 290.007 290.005 290.005 290.004 290.004 290.003 290.003 290.002 290.002
          290.002 290.002 290.001 290.001 290.001 290.001 290.001 290.001 290.001 290.001 290 290
          290 290 290 290 290 290 290 290 290 290 290 290
          290 290 290 290 290 290 290 290 290 290 290 290
          290 290 290 290 290 290 290 290 290 290 290 290
          290 290 290 290 290 290 290 290 290 290 290 290
          290 290 290 290 290 290 290 290 290 290 290 290
          290 290 290 290 290 290 290 290 290 290 290 290
          290 290 290 290 290 290 290 290 290 290 290 290
          290 290 290 290 290 290 290 290 290 290 290 290
          290 290 290 290 290 290 290 290 290 290 290 290
          290 290 290 290 290 290 290 290 290 290 290 290
          290 290 290 290 290 290 290 290 290 290 290 290
          290 290 290 290 290 290 290 290 290 290 290 290
          290 290 290 290 290 290 290 290 290 290 290 290
          290 290 290 290 290 290 290 290 290 290 290 290
          290 290 290 290 290 290 290 290 290 290 290 290
          290 290 290 290 290 290 290 290 290 290 290 290
          290 290 290 290 290 290 290 290 290 290 290 290
          290 290 290 290 290 290 290 290 290 290 290 290
          290 290 290 290 290 290 290 290 290 290 290 290
          290 290 290 290 290 290 290 290 290 290 290 290
          290 290 290 290 290 290 290 290 290 290 290 290
          290 290 290 290 290 290 290 290 290 290 290 290
          290 290 290 290 290 290 290 290 290 290 290 290
          290 290 290 290 290 290
        </DataArray>
      </PointData>
      <CellData Scalars="process rank">
        <DataArray type="Float32" Name="process rank" NumberOfComponents="1" format="ascii">
          0 0 0 0 0 0 0 0 0 0 0 0
          0 0 0 0 0 0 0 0 0 0 0 0
          0 0 0 0 0 0 0 0 0 0 0 0
          0 0 0 0 0 0 0 0 0 0 0 0
          0 0 0 0 0 0 0 0 0 0 0 0
          0 0 0 0 0 0 0 0 0 0 0 0
          0 0 0 0 0 0 0 0 0 0 0 0
          0 0 0 0 0 0 0 0 0 0 0 0
          0 0 0 0 0 0 0 0 0 0 0 0
          0 0 0 0 0 0 0 0 0 0 0 0
          0 0 0 0 0 0 0 0 0 0 0 0
          0 0 0 0 0 0 0 0 0 0 0 0
          0 0 0 0 0 0 0 0 0 0 0 0
          0 0 0 0 0 0 0 0 0 0 0 0
          0 0 0 0 0 0 0 0 0 0 0 0
          0 0 0 0 0 0 0 0 0 0 0 0
          0 0 0 0 0 0 0 0
        </DataArray>
      </CellData>
      <Points>
        <DataArray type="Float32" Name="Coordinates" NumberOfComponents="3" format="ascii">
          0 0 0 0.025 0 0 0 1 0 0.025 1 0
          0.05 0 0 0.05 1 0 0.075 0 0 0.075 1 0
          0.1 0 0 0.1 1 0 0.125 0 0 0.125 1 0
          0.15 0 0 0.15 1 0 0.175 0 0 0.175 1 0
          0.2 0 0 0.2 1 0 0.225 0 0 0.225 1 0
          0.25 0 0 0.25 1 0 0.275 0 0 0.275 1 0
          0.3 0 0 0.3 1 0 0.325 0 0 0.325 1 0
          0.35 0 0 0.35 1 0 0.375 0 0 0.375 1 0
          0.4 0 0 0.4 1 0 0.425 0 0 0.425 1 0
          0.45 0 0 0.45 1 0 0.475 0 0 0.475 1 0
          0.5 0 0 0.5 1 0 0.525 0 0 0.525 1 0
          0.55 0 0 0.55 1 0 0.575 0 0 0.575 1 0
          0.6 0 0 0.6 1 0 0.625 0 0 0.625 1 0
          0.65 0 0 0.65 1 0 0.675 0 0 0.675 1 0
          0.7 0 0 0.7 1 0 0.725 0 0 0.725 1 0
          0.75 0 0 0.75 1 0 0.775 0 0 0.775 1 0
          0.8 0 0 0.8 1 0 0.825 0 0 0.825 1 0
          0.85 0 0 0.85 1 0 0.875 0 0 0.875 1 0
          0.9 0 0 0.9 1 0 0.925 0 0 0.925 1 0
          0.95 0 0 0.95 1 0 0.975 0 0 0.975 1 0
          1 0 0 1 1 0 1.025 0 0 1.025 1 0
          1.05 0 0 1.05 1 0 1.075 0 0 1.075 1 0
          1.1 0 0 1.1 1 0 1.125 0 0 1.125 1 0
          1.15 0 0 1.15 1 0 1.175 0 0 1.175 1 0
          1.2 0 0 1.2 1 0 1.225 0 0 1.225 1 0
          1.25 0 0 1.25 1 0 1.275 0 0 1.275 1 0
          1.3 0 0 1.3 1 0 1.325 0 0 1.325 1 0
          1.35 0 0 1.35 1 0 1.375 0 0 1.375 1 0
          1.4 0 0 1.4 1 0 1.425 0 0 1.425 1 0
          1.45 0 0 1.45 1 0 1.475 0 0 1.475 1 0
          1.5 0 0 1.5 1 0 1.525 0 0 1.525 1 0
          1.55 0 0 1.55 1 0 1.575 0 0 1.575 1 0
          1.6 0 0 1.6 1 0 1.625 0 0 1.625 1 0
          1.65 0 0 1.65 1 0 1.675 0 0 1.675 1 0
          1.7 0 0 1.7 1 0 1.725 0 0 1.725 1 0
          1.75 0 0 1.75 1 0 1.775 0 0 1.775 1 0
          1.8 0 0 1.8 1 0 1.825 0 0 1.825 1 0
          1.85 0 0 1.85 1 0 1.875 0 0 1.875 1 0
          1.9 0 0 1.9 1 0 1.925 0 0 1.925 1 0
          1.95 0 0 1.95 1 0 1.975 0 0 1.975 1 0
          2 0 0 2 1 0 2.025 0 0 2.025 1 0
          2.05 0 0 2.05 1 0 2.075 0 0 2.075 1 0
          2.1 0 0 2.1 1 0 2.125 0 0 2.125 1 0
          2.15 0 0 2.15 1 0 2.175 0 0 2.175 1 0
          2.2 0 0 2.2 1 0 2.225 0 0 2.225 1 0
          2.25 0 0 2.25 1 0 2.275 0 0 2.275 1 0
          2.3 0 0 2.3 1 0 2.325 0 0 2.325 1 0
          2.35 0 0 2.35 1 0 2.375 0 0 2.375 1 0
          2.4 0 0 2.4 1 0 2.425 0 0 2.425 1 0
          2.45 0 0 2.45 1 0 2.475 0 0 2.475 1 0
          2.5 0 0 2.5 1 0 2.525 0 0 2.525 1 0
          2.55 0 0 2.55 1 0 2.575 0 0 2.575 1 0
          2.6 0 0 2.6 1 0 2.625 0 0 2.625 1 0
          2.65 0 0 2.65 1 0 2.675 0 0 2.675 1 0
          2.7 0 0 2.7 1 0 2.725 0 0 2.725 1 0
          2.75 0 0 2.75 1 0 2.775 0 0 2.775 1 0
          2.8 0 0 2.8 1 0 2.825 0 0 2.825 1 0
          2.85 0 0 2.85 1 0 2.875 0 0 2.875 1 0
          2.9 0 0 2.9 1 0 2.925 0 0 2.925 1 0
          2.95 0 0 2.95 1 0 2.975 0 0 2.975 1 0
          3 0 0 3 1 0 3.025 0 0 3.025 1 0
          3.05 0 0 3.05 1 0 3.075 0 0 3.075 1 0
          3.1 0 0 3.1 1 0 3.125 0 0 3.125 1 0
          3.15 0 0 3.15 1 0 3.175 0 0 3.175 1 0
          3.2 0 0 3.2 1 0 3.225 0 0 3.225 1 0
          3.25 0 0 3.25 1 0 3.275 0 0 3.275 1 0
          3.3 0 0 3.3 1 0 3.325 0 0 3.325 1 0
          3.35 0 0 3.35 1 0 3.375 0 0 3.375 1 0
          3.4 0 0 3.4 1 0 3.425 0 0 3.425 1 0
          3.45 0 0 3.45 1 0 3.475 0 0 3.475 1 0
          3.5 0 0 3.5 1 0 3.525 0 0 3.525 1 0
          3.55 0 0 3.55 1 0 3.575 0 0 3.575 1 0
          3.6 0 0 3.6 1 0 3.625 0 0 3.625 1 0
          3.65 0 0 3.65 1 0 3.675 0 0 3.675 1 0
          3.7 0 0 3.7 1 0 3.725 0 0 3.725 1 0
          3.75 0 0 3.75 1 0 3.775 0 0 3.775 1 0
          3.8 0 0 3.8 1 0 3.825 0 0 3.825 1 0
          3.85 0 0 3.85 1 0 3.875 0 0 3.875 1 0
          3.9 0 0 3.9 1 0 3.925 0 0 3.925 1 0
          3.95 0 0 3.95 1 0 3.975 0 0 3.975 1 0
          4 0 0 4 1 0 4.025 0 0 4.025 1 0
          4.05 0 0 4.05 1 0 4.075 0 0 4.075 1 0
          4.1 0 0 4.1 1 0 4.125 0 0 4.125 1 0
          4.15 0 0 4.15 1 0 4.175 0 0 4.175 1 0
          4.2 0 0 4.2 1 0 4.225 0 0 4.225 1 0
          4.25 0 0 4.25 1 0 4.275 0 0 4.275 1 0
          4.3 0 0 4.3 1 0 4.325 0 0 4.325 1 0
          4.35 0 0 4.35 1 0 4.375 0 0 4.375 1 0
          4.4 0 0 4.4 1 0 4.425 0 0 4.425 1 0
          4.45 0 0 4.45 1 0 4.475 0 0 4.475 1 0
          4.5 0 0 4.5 1 0 4.525 0 0 4.525 1 0
          4.55 0 0 4.55 1 0 4.575 0 0 4.575 1 0
          4.6 0 0 4.6 1 0 4.625 0 0 4.625 1 0
          4.65 0 0 4.65 1 0 4.675 0 0 4.675 1 0
          4.7 0 0 4.7 1 0 4.725 0 0 4.725 1 0
          4.75 0 0 4.75 1 0 4.775 0 0 4.775 1 0
          4.8 0 0 4.8 1 0 4.825 0 0 4.825 1 0
          4.85 0 0 4.85 1 0 4.875 0 0 4.875 1 0
          4.9 0 0 4.9 1 0 4.925 0 0 4.925 1 0
          4.95 0 0 4.95 1 0 4.975 0 0 4.975 1 0
          5 0 0 5 1 0
        </DataArray>
      </Points>
      <Cells>
        <DataArray type="Int32" Name="connectivity" NumberOfComponents="1" format="ascii">
          0 1 3 2 1 4 5 3 4 6 7 5
          6 8 9 7 8 10 11 9 10 12 13 11
          12 14 15 13 14 16 17 15 16 18 19 17
          18 20 21 19 20 22 23 21 22 24 25 23
          24 26 27 25 26 28 29 27 28 30 31 29
          30 32 33 31 32 34 35 33 34 36 37 35
          36 38 39 37 38 40 41 39 40 42 43 41
          42 44 45 43 44 46 47 45 46 48 49 47
          48 50 51 49 50 52 53 51 52 54 55 53
          54 56 57 55 56 58 59 57 58 60 61 59
          60 62 63 61 62 64 65 63 64 66 67 65
          66 68 69 67 68 70 71 69 70 72 73 71
          72 74 75 73 74 76 77 75 76 78 79 77
          78 80 81 79 80 82 83 81 82 84 85 83
          84 86 87 85 86 88 89 87 88 90 91 89
          90 92 93 91 92 94 95 93 94 96 97 95
          96 98 99 97 98 100 101 99 100 102 103 101
          102 104 105 103 104 106 107 105 106 108 109 107
          108 110 111 109 110 112 113 111 112 114 115 113
          114 116 117 115 116 118 119 117 118 120 121 119
          120 122 123 121 122 124 125 123 124 126 127 125
          126 128 129 127 128 130 131 129 130 132 133 131
          132 134 135 133 134 136 137 135 136 138 139 137
          138 140 141 139 140 142 143 141 142 144 145 143
          144 146 147 145 146 148 149 147 148 150 151 149
          150 152 153 151 152 154 155 153 154 156 157 155
          156 158 159 157 158 160 161 159 160 162 163 161
          162 164 165 163 164 166 167 165 166 168 169 167
          168 170 171 169 170 172 173 171 172 174 175 173
          174 176 177 175 176 178 179 177 178 180 181 179
          180 182 183 181 182 184 185 183 184 186 187 185
          186 188 189 187 188 190 191 189 190 192 193 191
          192 194 195 193 194 196 197 195 196 198 199 197
          198 200 201 199 200 202 203 201 202 204 205 203
          204 206 207 205 206 208 209 207 208 210 211 209
          210 212 213 211 212 214 215 213 214 216 217 215
          216 218 219 217 218 220 221 219 220 222 223 221
          222 224 225 223 224 226 227 225 226 228 229 227
          228 230 231 229 230 232 233 231 232 234 235 233
          234 236 237 235 236 238 239 237 238 240 241 239
          240 242 243 241 242 244 245 243 244 246 247 245
          246 248 249 247 248 250 251 249 250 252 253 251
          252 254 255 253 254 256 257 255 256 258 259 257
          258 260 261 259 260 262 263 261 262 264 265 263
          264 266 267 265 266 268 269 267 268 270 271 269
          270 272 273 271 272 274 275 273 274 276 277 275
          276 278 279 277 278 280 281 279 280 282 283 281
          282 284 285 283 284 286 287 285 286 288 289 287
          288 290 291 289 290 292 293 291 292 294 295 293
          294 296 297 295 296 298 299 297 298 300 301 299
          300 302 303 301 302 304 305 303 304 306 307 305
          306 308 309 307 308 310 311 309 310 312 313 311
          312 314 315 313 314 316 317 315 316 318 319 317
          318 320 321 319 320 322 323 321 322 324 325 323
          324 326 327 325 326 328 329 327 328 330 331 329
          330 332 333 331 332 334 335 333 334 336 337 335
          336 338 339 337 338 340 341 339 340 342 343 341
          342 344 345 343 344 346 347 345 346 348 349 347
          348 350 351 349 350 352 353 351 352 354 355 353
          354 356 357 355 356 358 359 357 358 360 361 359
          360 362 363 361 362 364 365 363 364 366 367 365
          366 368 369 367 368 370 371 369 370 372 373 371
          372 374 375 373 374 376 377 375 376 378 379 377
          378 380 381 379 380 382 383 381 382 384 385 383
          384 386 387 385 386 388 389 387 388 390 391 389
          390 392 393 391 392 394 395 393 394 396 397 395
          396 398 399 397 398 400 401 399
        </DataArray>
        <DataArray type="Int32" Name="offsets" NumberOfComponents="1" format="ascii">
          4 8 12 16 20 24 28 32 36 40 44 48
          52 56 60 64 68 72 76 80 84 88 92 96
          100 104 108 112 116 120 124 128 132 136 140 144
          148 152 156 160 164 168 172 176 180 184 188 192
          196 200 204 208 212 216 220 224 228 232 236 240
          244 248 252 256 260 264 268 272 276 280 284 288
          292 296 300 304 308 312 316 320 324 328 332 336
          340 344 348 352 356 360 364 368 372 376 380 384
          388 392 396 400 404 408 412 416 420 424 428 432
          436 440 444 448 452 456 460 464 468 472 476 480
          484 488 492 496 500 504 508 512 516 520 524 528
          532 536 540 544 548 552 556 560 564 568 572 576