<?xml version="1.0"?>
<VTKFile type="UnstructuredGrid" version="0.1" byte_order="LittleEndian">
  <UnstructuredGrid>
    <Piece NumberOfCells="8" NumberOfPoints="9">
      <PointData Scalars="p">
        <DataArray type="Float32" Name="p" NumberOfComponents="1" format="ascii">
          200000 200000 150000 150000 200000 150000 100000 100000 100000
        </DataArray>
        <DataArray type="Float32" Name="K" NumberOfComponents="1" format="ascii">
          1e-10 1e-10 1e-12 1e-10 1e-10 1e-10 1e-10 1e-10 1e-10
        </DataArray>
      </PointData>
      <CellData Scalars="process rank">
        <DataArray type="Float32" Name="process rank" NumberOfComponents="1" format="ascii">
          0 0 0 0 0 0 0 0
        </DataArray>
      </CellData>
      <Points>
        <DataArray type="Float32" Name="Coordinates" NumberOfComponents="3" format="ascii">
          0 0 0 0.5 0 0 0.5 0.5 0.5 0 0.5 0.5
          1 0 0 1 0.5 0.5 0 1 1 0.5 1 1
          1 1 1
        </DataArray>
      </Points>
      <Cells>
        <DataArray type="Int32" Name="connectivity" NumberOfComponents="1" format="ascii">
          0 1 2 0 2 3 1 4 2 4 5 2
          3 2 6 2 7 6 2 5 8 2 8 7
        </DataArray>
        <DataArray type="Int32" Name="offsets" NumberOfComponents="1" format="ascii">
          3 6 9 12 15 18 21 24
        </DataArray>
        <DataArray type="UInt8" Name="types" NumberOfComponents="1" format="ascii">
          5 5 5 5 5 5 5 5
        </DataArray>
      </Cells>
    </Piece>
  </UnstructuredGrid>
</VTKFile>
