<?xml version="1.0"?>
<VTKFile type="UnstructuredGrid" version="0.1" byte_order="LittleEndian">
  <UnstructuredGrid>
    <Piece NumberOfCells="48" NumberOfPoints="63">
      <PointData Scalars="temperature" Vectors="v">
        <DataArray type="Float32" Name="temperature" NumberOfComponents="1" format="ascii">
          295.777 295.77 298.15 298.141 295.762 298.133 295.755 298.124 295.749 298.115 295.744 298.106
          295.741 298.1 298.15 298.15 298.15 298.15 298.15 298.15 298.15 298.15 298.15 298.15
          298.15 298.15 298.15 298.15 298.15 298.15 298.15 298.15 298.15 298.15 298.15 298.15
          298.15 298.15 298.15 298.15 298.15 298.15 298.15 298.15 298.15 298.15 298.15 298.15
          298.15 298.15 298.15 298.15 298.15 298.15 298.15 298.15 298.15 298.15 298.15 298.15
          298.15 298.15 298.15
        </DataArray>
        <DataArray type="Float32" Name="pg" NumberOfComponents="1" format="ascii">
          100000 100000 100000 100000 100000 100000 100000 100000 100000 100000 100000 100000
          100000 100000 100000 100000 100000 100000 100000 100000 100000 100000 100000 100000
          100000 100000 100000 100000 100000 100000 100000 100000 100000 100000 100000 100000
          100000 100000 100000 100000 100000 100000 100000 100000 100000 100000 100000 100000
          100000 100000 100000 100000 100000 100000 100000 100000 100000 100000 100000 100000
          100000 100000 100000
        </DataArray>
        <DataArray type="Float32" Name="delP" NumberOfComponents="1" format="ascii">
          0.00201785 0.00169588 0.00200655 0.00168459 0.00135425 0.00134799 0.00101546 0.00101279 0.000676934 0.000674742 0.000338453 0.000337543
          0 0 0.00203022 0.00169113 0.00135307 0.00101496 0.00067667 0.00033832 0 0.0020249 0.00168644 0.0013497
          0.00101226 0.000674926 0.000337433 0 0.00203044 0.00169167 0.00135338 0.00101491 0.000676636 0.000338305 0 0.00202712
          0.00168831 0.00135073 0.00101277 0.000675252 0.000337628 0 0.00202988 0.00169127 0.00135299 0.00101457 0.000676386 0.000338198
          0 0.00202748 0.00168909 0.00135121 0.00101317 0.000675482 0.000337743 0 0.0020284 0.00169001 0.00135195 0.00101372
          0.000675849 0.000337922 0
        </DataArray>
        <DataArray type="Float32" Name="x_gas^H2O" NumberOfComponents="1" format="ascii">
          0.0274806 0.0274681 0.0127981 0.0128556 0.0274555 0.0129131 0.0274443 0.0129714 0.0274345 0.0130295 0.0274262 0.0130874
          0.02742 0.0131159 0.0127981 0.0127981 0.0127982 0.0127984 0.0127985 0.0127988 0.0127988 0.0127981 0.0127981 0.0127981
          0.0127981 0.0127981 0.0127981 0.012798 0.0127981 0.0127981 0.0127981 0.0127981 0.0127981 0.0127981 0.0127981 0.0127981
          0.0127981 0.0127981 0.0127981 0.0127981 0.0127981 0.0127982 0.0127981 0.0127981 0.0127981 0.0127981 0.0127981 0.0127981
          0.0127982 0.0127981 0.0127981 0.0127983 0.0127985 0.0127987 0.0127989 0.0127991 0.0127981 0.0128196 0.0128364 0.0128483
          0.0128552 0.0128575 0.0127981
        </DataArray>
        <DataArray type="Float32" Name="X_gas^H2O" NumberOfComponents="1" format="ascii">
          0.0172743 0.0172664 0.008 0.00803612 0.0172584 0.00807226 0.0172513 0.00810889 0.017245 0.00814541 0.0172397 0.00818178
          0.0172358 0.00819967 0.008 0.00800003 0.00800009 0.00800018 0.0080003 0.00800045 0.00800043 0.008 0.008 0.008
          0.008 0.008 0.008 0.00799996 0.008 0.008 0.008 0.008 0.008 0.008 0.00800002 0.008
          0.008 0.008 0.008 0.008 0.008 0.00800006 0.008 0.008 0.008 0.008 0.008 0.008
          0.00800008 0.008 0.00800005 0.00800014 0.00800026 0.0080004 0.00800053 0.00800066 0.008 0.00801351 0.0080241 0.00803158
          0.00803588 0.00803734 0.008
        </DataArray>
        <DataArray type="Float32" Name="x_gas^Air" NumberOfComponents="1" format="ascii">
          0.972519 0.972532 0.987202 0.987144 0.972544 0.987087 0.972556 0.987029 0.972565 0.98697 0.972574 0.986913
          0.97258 0.986884 0.987202 0.987202 0.987202 0.987202 0.987201 0.987201 0.987201 0.987202 0.987202 0.987202
          0.987202 0.987202 0.987202 0.987202 0.987202 0.987202 0.987202 0.987202 0.987202 0.987202 0.987202 0.987202
          0.987202 0.987202 0.987202 0.987202 0.987202 0.987202 0.987202 0.987202 0.987202 0.987202 0.987202 0.987202
          0.987202 0.987202 0.987202 0.987202 0.987202 0.987201 0.987201 0.987201 0.987202 0.98718 0.987164 0.987152
          0.987145 0.987143 0.987202
        </DataArray>
        <DataArray type="Float32" Name="X_gas^Air" NumberOfComponents="1" format="ascii">
          0.982726 0.982734 0.992 0.991964 0.982742 0.991928 0.982749 0.991891 0.982755 0.991855 0.98276 0.991818
          0.982764 0.9918 0.992 0.992 0.992 0.992 0.992 0.992 0.992 0.992 0.992 0.992
          0.992 0.992 0.992 0.992 0.992 0.992 0.992 0.992 0.992 0.992 0.992 0.992
          0.992 0.992 0.992 0.992 0.992 0.992 0.992 0.992 0.992 0.992 0.992 0.992
          0.992 0.992 0.992 0.992 0.992 0.992 0.991999 0.991999 0.992 0.991987 0.991976 0.991968
          0.991964 0.991963 0.992
        </DataArray>
        <DataArray type="Float32" Name="h" NumberOfComponents="1" format="ascii">
          65316.4 65289.1 44886.1 44966.4 65261.4 45046.7 65236.8 45128 65215.4 45209.1 65197.1 45289.8
          65183.5 45328.7 44886.1 44886.2 44886.3 44886.5 44886.8 44887.1 44886.7 44886.1 44886.1 44886.1
          44886.1 44886.1 44886.1 44885.9 44886.1 44886.1 44886.1 44886.1 44886.1 44886.1 44886.2 44886.1
          44886.1 44886.1 44886.1 44886.1 44886.1 44886.4 44886.1 44886.1 44886.1 44886.1 44886.1 44886.1
          44886.6 44886.1 44886.2 44886.4 44886.7 44887.1 44887.4 44888.1 44886.1 44919.5 44945.6 44964.1
          44974.7 44978.3 44886.1
        </DataArray>
        <DataArray type="Float32" Name="rho" NumberOfComponents="1" format="ascii">
          1.1654 1.16544 1.16259 1.1626 1.16547 1.1626 1.16551 1.16261 1.16553 1.16262 1.16556 1.16263
          1.16557 1.16264 1.16259 1.16259 1.16259 1.16259 1.16259 1.16259 1.16259 1.16259 1.16259 1.16259
          1.16259 1.16259 1.16259 1.16259 1.16259 1.16259 1.16259 1.16259 1.16259 1.16259 1.16259 1.16259
          1.16259 1.16259 1.16259 1.16259 1.16259 1.16259 1.16259 1.16259 1.16259 1.16259 1.16259 1.16259
          1.16259 1.16259 1.16259 1.16259 1.16259 1.16259 1.16259 1.16259 1.16259 1.16258 1.16257 1.16257
          1.16256 1.16256 1.16259
        </DataArray>
        <DataArray type="Float32" Name="mu" NumberOfComponents="1" format="ascii">
          1.78769e-05 1.78767e-05 1.81222e-05 1.81213e-05 1.78764e-05 1.81204e-05 1.78762e-05 1.81194e-05 1.7876e-05 1.81185e-05 1.78759e-05 1.81175e-05
          1.78757e-05 1.8117e-05 1.81222e-05 1.81222e-05 1.81222e-05 1.81222e-05 1.81222e-05 1.81222e-05 1.81222e-05 1.81222e-05 1.81222e-05 1.81222e-05
          1.81222e-05 1.81222e-05 1.81222e-05 1.81222e-05 1.81222e-05 1.81222e-05 1.81222e-05 1.81222e-05 1.81222e-05 1.81222e-05 1.81222e-05 1.81222e-05
          1.81222e-05 1.81222e-05 1.81222e-05 1.81222e-05 1.81222e-05 1.81222e-05 1.81222e-05 1.81222e-05 1.81222e-05 1.81222e-05 1.81222e-05 1.81222e-05
          1.81222e-05 1.81222e-05 1.81222e-05 1.81222e-05 1.81222e-05 1.81222e-05 1.81222e-05 1.81222e-05 1.81222e-05 1.8122e-05 1.81219e-05 1.81218e-05
          1.81217e-05 1.81217e-05 1.81222e-05
        </DataArray>
        <DataArray type="Float32" Name="v" NumberOfComponents="3" format="ascii">
          0.000848957 6.66768e-05 0 0.000853193 6.60301e-05 0 0.809861 0 0 0.811318 -0.000107295 0
          0.00085682 6.56793e-05 0 0.813044 -3.35829e-05 0 0.000856984 6.54521e-05 0 0.813398 4.20886e-05 0
          0.000857581 6.52393e-05 0 0.813694 4.6671e-05 0 0.000857802 6.50234e-05 0 0.813736 5.91948e-05 0
          0.000857901 6.50043e-05 0 0.813821 5.87047e-05 0 1.82383 0 0 1.82427 -0.00138789 0
          1.82518 -0.000760972 0 1.82578 -0.000165872 0 1.82614 -9.80019e-05 0 1.8263 4.88346e-06 0
          1.82641 3.72861e-05 0 2.89743 0 0 2.89719 -0.00112731 0 2.89709 -0.0010362 0
          2.89742 -0.000538664 0 2.89766 -0.000271377 0 2.89782 -0.000110682 0 2.89791 -3.62697e-07 0
          3.50134 0 0 3.50113 -0.00104869 0 3.50075 -0.00104697 0 3.50054 -0.000726474 0
          3.50045 -0.000429876 0 3.50043 -0.000213722 0 3.50041 -3.11169e-05 0 2.89743 0 0
          2.89713 -0.00025512 0 2.89659 -0.000353343 0 2.89622 -0.000277651 0 2.89594 -0.000170709 0
          2.89582 -8.9147e-05 0 2.89574 -1.94412e-05 0 1.82383 0 0 1.82366 -0.000132838 0
          1.82334 -0.000144551 0 1.82306 -0.000124505 0 1.82284 -7.67316e-05 0 1.82274 -3.92422e-05 0
          1.82267 -3.21447e-06 0 0.809861 0 0 0.809771 0.000145283 0 0.809618 9.09373e-05 0
          0.809485 7.15883e-05 0 0.809368 4.66837e-05 0 0.809325 2.34056e-05 0 0.809289 1.79708e-06 0
          0.00134 0 0 0.00134 0 0 0.00134 1.14235e-37 0 0.00134 0 0
          0.00134 0 0 0.00134 0 0 0.00134 0 0
        </DataArray>
      </PointData>
      <Points>
        <DataArray type="Float32" Name="Coordinates" NumberOfComponents="3" format="ascii">
          0 0.25 0 0.0416667 0.25 0 0 0.265385 0 0.0416667 0.265385 0
          0.0833333 0.25 0 0.0833333 0.265385 0 0.125 0.25 0 0.125 0.265385 0
          0.166667 0.25 0 0.166667 0.265385 0 0.208333 0.25 0 0.208333 0.265385 0
          0.25 0.25 0 0.25 0.265385 0 0 0.288462 0 0.0416667 0.288462 0
          0.0833333 0.288462 0 0.125 0.288462 0 0.166667 0.288462 0 0.208333 0.288462 0
          0.25 0.288462 0 0 0.323077 0 0.0416667 0.323077 0 0.0833333 0.323077 0
          0.125 0.323077 0 0.166667 0.323077 0 0.208333 0.323077 0 0.25 0.323077 0
          0 0.375 0 0.0416667 0.375 0 0.0833333 0.375 0 0.125 0.375 0
          0.166667 0.375 0 0.208333 0.375 0 0.25 0.375 0 0 0.426923 0
          0.0416667 0.426923 0 0.0833333 0.426923 0 0.125 0.426923 0 0.166667 0.426923 0
          0.208333 0.426923 0 0.25 0.426923 0 0 0.461538 0 0.0416667 0.461538 0
          0.0833333 0.461538 0 0.125 0.461538 0 0.166667 0.461538 0 0.208333 0.461538 0
          0.25 0.461538 0 0 0.484615 0 0.0416667 0.484615 0 0.0833333 0.484615 0
          0.125 0.484615 0 0.166667 0.484615 0 0.208333 0.484615 0 0.25 0.484615 0
          0 0.5 0 0.0416667 0.5 0 0.0833333 0.5 0 0.125 0.5 0
          0.166667 0.5 0 0.208333 0.5 0 0.25 0.5 0
        </DataArray>
      </Points>
      <Cells>
        <DataArray type="Int32" Name="connectivity" NumberOfComponents="1" format="ascii">
          0 1 3 2 1 4 5 3 4 6 7 5
          6 8 9 7 8 10 11 9 10 12 13 11
          2 3 15 14 3 5 16 15 5 7 17 16
          7 9 18 17 9 11 19 18 11 13 20 19
          14 15 22 21 15 16 23 22 16 17 24 23
          17 18 25 24 18 19 26 25 19 20 27 26
          21 22 29 28 22 23 30 29 23 24 31 30
          24 25 32 31 25 26 33 32 26 27 34 33
          28 29 36 35 29 30 37 36 30 31 38 37
          31 32 39 38 32 33 40 39 33 34 41 40
          35 36 43 42 36 37 44 43 37 38 45 44
          38 39 46 45 39 40 47 46 40 41 48 47
          42 43 50 49 43 44 51 50 44 45 52 51
          45 46 53 52 46 47 54 53 47 48 55 54
          49 50 57 56 50 51 58 57 51 52 59 58
          52 53 60 59 53 54 61 60 54 55 62 61
        </DataArray>
        <DataArray type="Int32" Name="offsets" NumberOfComponents="1" format="ascii">
          4 8 12 16 20 24 28 32 36 40 44 48
          52 56 60 64 68 72 76 80 84 88 92 96
          100 104 108 112 116 120 124 128 132 136 140 144
          148 152 156 160 164 168 172 176 180 184 188 192
        </DataArray>
        <DataArray type="UInt8" Name="types" NumberOfComponents="1" format="ascii">
          9 9 9 9 9 9 9 9 9 9 9 9
          9 9 9 9 9 9 9 9 9 9 9 9
          9 9 9 9 9 9 9 9 9 9 9 9
          9 9 9 9 9 9 9 9 9 9 9 9
        </DataArray>
      </Cells>
    </Piece>
  </UnstructuredGrid>
</VTKFile>
