<?xml version="1.0"?>
<VTKFile type="UnstructuredGrid" version="0.1" byte_order="LittleEndian">
  <UnstructuredGrid>
    <Piece NumberOfCells="25" NumberOfPoints="36">
      <PointData Scalars="Sn" Vectors="velocityW">
        <DataArray type="Float32" Name="Sn" NumberOfComponents="1" format="ascii">
          0.0751027 0.0751055 0.875114 0.874945 0.0750779 0.874607 0.0750591 0.874162 0.0750627 0.873761 0.0750675 0.873599
          0.938632 0.938805 0.937987 0.937147 0.936474 0.936081 0.957843 0.960149 0.958015 0.955513 0.954159 0.953244
          0.970545 0.979311 0.977008 0.971367 0.966541 0.963333 0.965624 1 1 0.984446 0.976544 0.969192
        </DataArray>
        <DataArray type="Float32" Name="Sw" NumberOfComponents="1" format="ascii">
          0.924897 0.924895 0.124886 0.125055 0.924922 0.125393 0.924941 0.125838 0.924937 0.126239 0.924932 0.126401
          0.0613683 0.0611951 0.0620131 0.0628528 0.0635262 0.063919 0.0421571 0.039851 0.041985 0.0444875 0.0458414 0.0467556
          0.0294554 0.0206888 0.0229923 0.0286333 0.0334589 0.036667 0.0343756 0 0 0.0155542 0.023456 0.0308084
        </DataArray>
        <DataArray type="Float32" Name="pn" NumberOfComponents="1" format="ascii">
          100007 100007 100004 100004 100006 100004 100006 100003 100006 100002 100006 100002
          100004 100004 100003 100002 100001 100001 100005 100005 100001 100002 99999.6 99999.2
          100005 100007 99997.8 100005 99997.5 99998.7 100005 100010 99993.7 100008 99995 99999.1
        </DataArray>
        <DataArray type="Float32" Name="pw" NumberOfComponents="1" format="ascii">
          98859.7 98859.6 97908.5 97908.8 98859.5 97909.2 98859.3 97909.8 98859.1 97910.5 98859 97910.7
          97653.9 97652.3 97656.1 97660.5 97663.6 97665.5 97505.9 97481.8 97499.9 97525.2 97534.6 97542.2
          97349 97174.4 97220.8 97335.1 97399 97440.2 97418 96325.4 96309.5 97009.3 97228.3 97363.4
        </DataArray>
        <DataArray type="Float32" Name="pc" NumberOfComponents="1" format="ascii">
          1146.94 1146.95 2095.72 2095.26 1146.89 2094.34 1146.84 2093.12 1146.85 2092.03 1146.86 2091.59
          2350.57 2351.65 2346.6 2341.51 2337.48 2335.16 2499.41 2522.93 2501.1 2477.24 2465.02 2457.03
          2656.35 2832.35 2776.93 2669.55 2598.53 2558.44 2586.57 3684.13 3684.13 2998.59 2766.75 2635.69
        </DataArray>
        <DataArray type="Float32" Name="rhoW" NumberOfComponents="1" format="ascii">
          997.055 997.055 997.114 997.117 997.055 997.121 997.055 997.12 997.055 997.113 997.055 997.108
          997.324 997.377 997.436 997.453 997.382 997.319 997.535 997.789 997.975 998.12 997.926 997.6
          997.554 998.082 998.352 998.722 998.524 997.67 997.669 997.756 998.677 999.107 999.061 997.505
        </DataArray>
        <DataArray type="Float32" Name="rhoN" NumberOfComponents="1" format="ascii">
          1.15435 1.15435 1.15541 1.15546 1.15435 1.15554 1.15435 1.15551 1.15434 1.15537 1.15434 1.15529
          1.15936 1.16037 1.1615 1.16181 1.16044 1.15923 1.16347 1.16858 1.17244 1.17562 1.17138 1.16468
          1.16385 1.17482 1.18083 1.19007 1.18495 1.16608 1.16614 1.17425 1.19105 1.20104 1.19946 1.16281
        </DataArray>
        <DataArray type="Float32" Name="mobW" NumberOfComponents="1" format="ascii">
          907.008 906.995 2.45114 2.46018 907.127 2.4786 907.216 2.50464 907.199 2.52966 907.176 2.54011
          0.291774 0.287828 0.297982 0.309902 0.322244 0.330278 0.0893747 0.072844 0.0842712 0.0995093 0.111727 0.122962
          0.0277857 0.00762373 0.0108154 0.022017 0.0379827 0.0564539 0.0457893 0 0 0.0021907 0.0104826 0.0324425
        </DataArray>
        <DataArray type="Float32" Name="mobN" NumberOfComponents="1" format="ascii">
          243.077 243.098 45242.7 45228 242.885 45198.2 242.739 45156.8 242.767 45117.7 242.804 45101.5
          51932.1 51971.1 51901.6 51813.3 51710.9 51643.4 53992.6 54305.9 54199.3 54035.6 53813.7 53583.8
          55017.4 55761.9 55788.6 55671.6 55204.1 54524.9 54707.7 55574.3 56332.1 56612 56226.1 54903.9
        </DataArray>
        <DataArray type="Float32" Name="X_liquid^H2O" NumberOfComponents="1" format="ascii">
          0.999978 0.999978 0.999978 0.999978 0.999978 0.999978 0.999978 0.999978 0.999978 0.999978 0.999978 0.999978
          0.999978 0.999978 0.999978 0.999978 0.999978 0.999978 0.999978 0.999977 0.999977 0.999977 0.999977 0.999978
          0.999978 0.999977 0.999976 0.999975 0.999976 0.999977 0.999977 0.451402 0.741507 0.999974 0.999974 0.999978
        </DataArray>
        <DataArray type="Float32" Name="X_liquid^Air" NumberOfComponents="1" format="ascii">
          2.15483e-05 2.15483e-05 2.16356e-05 2.16397e-05 2.15483e-05 2.16465e-05 2.15482e-05 2.16443e-05 2.15482e-05 2.16332e-05 2.15482e-05 2.16268e-05
          2.19602e-05 2.20456e-05 2.21423e-05 2.21694e-05 2.20537e-05 2.19523e-05 2.23092e-05 2.27619e-05 2.31205e-05 2.34207e-05 2.30233e-05 2.24194e-05
          2.23423e-05 2.33404e-05 2.3937e-05 2.48953e-05 2.43584e-05 2.25436e-05 2.25438e-05 2.30239e-05 2.48901e-05 2.6141e-05 2.59693e-05 2.22573e-05
        </DataArray>
        <DataArray type="Float32" Name="X_gas^H2O" NumberOfComponents="1" format="ascii">
          0.0199555 0.0199556 0.0196786 0.0196659 0.0199556 0.0196442 0.0199556 0.019651 0.0199557 0.0196852 0.0199557 0.0197051
          0.018702 0.0184569 0.0181848 0.0181094 0.0184327 0.0187232 0.0177312 0.01658 0.015745 0.0150953 0.0159641 0.0174375
          0.0176431 0.0152669 0.0140668 0.0124234 0.0133049 0.0171179 0.0171199 0.00753022 0.00935194 0.0106866 0.0109004 0.0178679
        </DataArray>
        <DataArray type="Float32" Name="X_gas^Air" NumberOfComponents="1" format="ascii">
          0.980044 0.980044 0.980321 0.980334 0.980044 0.980356 0.980044 0.980349 0.980044 0.980315 0.980044 0.980295
          0.981298 0.981543 0.981815 0.981891 0.981567 0.981277 0.982269 0.98342 0.984255 0.984905 0.984036 0.982562
          0.982357 0.984733 0.985933 0.987577 0.986695 0.982882 0.98288 0.99247 0.990648 0.989313 0.9891 0.982132
        </DataArray>
        <DataArray type="Float32" Name="x_liquid^H2O" NumberOfComponents="1" format="ascii">
          0.999987 0.999987 0.999987 0.999987 0.999987 0.999987 0.999987 0.999987 0.999987 0.999987 0.999987 0.999987
          0.999986 0.999986 0.999986 0.999986 0.999986 0.999986 0.999986 0.999986 0.999986 0.999985 0.999986 0.999986
          0.999986 0.999985 0.999985 0.999985 0.999985 0.999986 0.999986 0.451411 0.741517 0.999984 0.999984 0.999986
        </DataArray>
        <DataArray type="Float32" Name="x_liquid^Air" NumberOfComponents="1" format="ascii">
          1.34047e-05 1.34047e-05 1.3459e-05 1.34615e-05 1.34047e-05 1.34658e-05 1.34046e-05 1.34644e-05 1.34046e-05 1.34575e-05 1.34046e-05 1.34535e-05
          1.36609e-05 1.3714e-05 1.37742e-05 1.37911e-05 1.37191e-05 1.3656e-05 1.3878e-05 1.41597e-05 1.43827e-05 1.45695e-05 1.43222e-05 1.39466e-05
          1.38986e-05 1.45195e-05 1.48906e-05 1.54868e-05 1.51528e-05 1.40239e-05 1.4024e-05 1.43228e-05 1.54836e-05 1.62617e-05 1.61549e-05 1.38458e-05
        </DataArray>
        <DataArray type="Float32" Name="x_gas^H2O" NumberOfComponents="1" format="ascii">
          0.0316949 0.031695 0.0312603 0.0312404 0.031695 0.0312063 0.0316951 0.0312169 0.0316952 0.0312706 0.0316952 0.0313019
          0.0297263 0.0293411 0.0289133 0.0287947 0.029303 0.0297597 0.0281998 0.0263871 0.0250708 0.0240457 0.0254164 0.0277375
          0.028061 0.0243164 0.0224213 0.0198214 0.0212165 0.0272344 0.0272374 0.01205 0.0149486 0.0170682 0.0174075 0.0284148
        </DataArray>
        <DataArray type="Float32" Name="x_gas^Air" NumberOfComponents="1" format="ascii">
          0.968305 0.968305 0.96874 0.96876 0.968305 0.968794 0.968305 0.968783 0.968305 0.968729 0.968305 0.968698
          0.970274 0.970659 0.971087 0.971205 0.970697 0.97024 0.9718 0.973613 0.974929 0.975954 0.974584 0.972262
          0.971939 0.975684 0.977579 0.980179 0.978783 0.972766 0.972763 0.98795 0.985051 0.982932 0.982592 0.971585
        </DataArray>
        <DataArray type="Float32" Name="porosity" NumberOfComponents="1" format="ascii">
          0.41 0.41 0.41 0.41 0.41 0.41 0.41 0.41 0.41 0.41 0.41 0.41
          0.41 0.41 0.41 0.41 0.41 0.41 0.41 0.41 0.41 0.41 0.41 0.41
          0.41 0.41 0.41 0.41 0.41 0.41 0.41 0.41 0.41 0.41 0.41 0.41
        </DataArray>
        <DataArray type="Float32" Name="temperature" NumberOfComponents="1" format="ascii">
          298.15 298.15 297.918 297.907 298.15 297.889 298.15 297.895 298.15 297.923 298.15 297.94
          297.078 296.861 296.617 296.549 296.839 297.096 296.204 295.111 294.274 293.596 294.497 295.93
          296.123 293.778 292.467 290.504 291.583 295.629 295.632 295.301 290.77 288.161 288.465 296.329
        </DataArray>
        <DataArray type="Float32" Name="phase presence" NumberOfComponents="1" format="ascii">
          3 3 3 3 3 3 3 3 3 3 3 3
          3 3 3 3 3 3 3 3 3 3 3 3
          3 3 3 3 3 3 3 2 2 3 3 3
        </DataArray>
        <DataArray type="Float32" Name="velocityW" NumberOfComponents="3" format="ascii">
          -1.13936e-08 -9.38801e-07 0 -2.03144e-08 -9.43824e-07 0 3.70767e-10 -6.96352e-07 0 -4.90039e-09 -6.95368e-07 0
          -3.33099e-08 -9.54116e-07 0 -1.17473e-08 -7.10098e-07 0 -3.45049e-08 -9.68792e-07 0 -1.23256e-08 -7.29014e-07 0
          -2.19957e-08 -9.83089e-07 0 -8.51927e-09 -7.47523e-07 0 -1.23663e-08 -9.89055e-07 0 -5.71041e-09 -7.57759e-07 0
          6.48033e-09 -2.93983e-07 0 -8.46653e-10 -2.74942e-07 0 -9.47308e-09 -2.95769e-07 0 -8.42668e-09 -3.25135e-07 0
          -5.14267e-09 -3.49566e-07 0 -4.20451e-09 -3.68106e-07 0 1.8966e-08 -6.94289e-08 0 5.04845e-09 -1.67398e-08 0
          -1.33377e-08 -2.96534e-08 0 -1.34701e-08 -8.15245e-08 0 -8.18202e-09 -1.10201e-07 0 -7.23028e-09 -1.39303e-07 0
          3.98403e-08 1.01461e-08 0 1.89146e-08 8.64735e-08 0 -1.12928e-08 1.16854e-07 0 -1.79851e-08 6.1432e-08 0
          -1.4993e-08 7.86857e-09 0 -1.45903e-08 -4.10441e-08 0 2.09467e-07 2.50872e-08 0 1.04733e-07 1.03455e-07 0
          -3.21272e-09 1.67557e-07 0 -8.21842e-09 1.24879e-07 0 -1.46028e-08 4.89636e-08 0 -1.91941e-08 -1.32315e-08 0
        </DataArray>
        <DataArray type="Float32" Name="velocityN" NumberOfComponents="3" format="ascii">
          1.39292e-07 6.47075e-07 0 2.46485e-07 7.19711e-07 0 5.75108e-05 -9.52247e-05 0 9.57284e-05 -6.36041e-05 0
          3.88484e-07 8.84135e-07 0 0.000132635 -1.45774e-06 0 3.78674e-07 1.06417e-06 0 0.000122531 1.91178e-05 0
          2.30499e-07 1.19756e-06 0 8.01198e-05 5.8394e-05 0 1.26939e-07 1.25062e-06 0 4.65025e-05 7.91591e-05 0
          0.000138219 -0.000329075 0 0.000268809 -0.000246137 0 0.000254235 0.000119789 0 0.000208705 -4.34185e-05 0
          0.000208438 0.000207438 0 0.000108539 0.000265948 0 7.57759e-05 -0.000522412 0 0.000623168 -0.000653973 0
          0.000326746 0.00069115 0 0.000188165 -0.000491293 0 0.000475733 0.000521055 0 5.80685e-05 0.000417034 0
          -0.000471581 -0.000435553 0 0.00112484 -0.00143923 0 0.000312094 0.00189919 0 2.83334e-05 -0.00151891 0
          0.000886814 0.00113792 0 -0.000380104 0.000346292 0 -0.00119011 -0.000293336 0 0.00149078 -0.00193485 0
          0.000224626 0.00265945 0 -0.000144862 -0.00217925 0 0.00123478 0.00153301 0 -0.000963135 0.000233343 0
        </DataArray>
      </PointData>
      <CellData Scalars="process rank">
        <DataArray type="Float32" Name="process rank" NumberOfComponents="1" format="ascii">
          0 0 0 0 0 0 0 0 0 0 0 0
          0 0 0 0 0 0 0 0 0 0 0 0
          0
        </DataArray>
      </CellData>
      <Points>
        <DataArray type="Float32" Name="Coordinates" NumberOfComponents="3" format="ascii">
          0.25 0 0 0.3 0 0 0.25 0.114094 0 0.3 0.114094 0
          0.35 0 0 0.35 0.114094 0 0.4 0 0 0.4 0.114094 0
          0.45 0 0 0.45 0.114094 0 0.5 0 0 0.5 0.114094 0
          0.25 0.179291 0 0.3 0.179291 0 0.35 0.179291 0 0.4 0.179291 0
          0.45 0.179291 0 0.5 0.179291 0 0.25 0.216546 0 0.3 0.216546 0
          0.35 0.216546 0 0.4 0.216546 0 0.45 0.216546 0 0.5 0.216546 0
          0.25 0.237835 0 0.3 0.237835 0 0.35 0.237835 0 0.4 0.237835 0
          0.45 0.237835 0 0.5 0.237835 0 0.25 0.25 0 0.3 0.25 0
          0.35 0.25 0 0.4 0.25 0 0.45 0.25 0 0.5 0.25 0
        </DataArray>
      </Points>
      <Cells>
        <DataArray type="Int32" Name="connectivity" NumberOfComponents="1" format="ascii">
          0 1 3 2 1 4 5 3 4 6 7 5
          6 8 9 7 8 10 11 9 2 3 13 12
          3 5 14 13 5 7 15 14 7 9 16 15
          9 11 17 16 12 13 19 18 13 14 20 19
          14 15 21 20 15 16 22 21 16 17 23 22
          18 19 25 24 19 20 26 25 20 21 27 26
          21 22 28 27 22 23 29 28 24 25 31 30
          25 26 32 31 26 27 33 32 27 28 34 33
          28 29 35 34
        </DataArray>
        <DataArray type="Int32" Name="offsets" NumberOfComponents="1" format="ascii">
          4 8 12 16 20 24 28 32 36 40 44 48
          52 56 60 64 68 72 76 80 84 88 92 96
          100
        </DataArray>
        <DataArray type="UInt8" Name="types" NumberOfComponents="1" format="ascii">
          9 9 9 9 9 9 9 9 9 9 9 9
          9 9 9 9 9 9 9 9 9 9 9 9
          9
        </DataArray>
      </Cells>
    </Piece>
  </UnstructuredGrid>
</VTKFile>
