<?xml version="1.0"?>
<VTKFile type="UnstructuredGrid" version="0.1" byte_order="LittleEndian">
  <UnstructuredGrid>
    <Piece NumberOfCells="120" NumberOfPoints="144">
      <PointData Scalars="temperature" Vectors="v">
        <DataArray type="Float32" Name="temperature" NumberOfComponents="1" format="ascii">
          296.444 296.441 298.15 298.149 296.436 298.148 296.432 298.146 296.427 298.145 296.423 298.144
          296.419 298.143 296.415 298.141 296.411 298.14 296.407 298.139 296.404 298.138 296.401 298.136
          296.398 298.135 296.395 298.134 296.393 298.133 296.391 298.132 298.15 298.15 298.15 298.15
          298.15 298.15 298.15 298.15 298.15 298.15 298.15 298.15 298.15 298.15 298.15 298.15
          298.15 298.15 298.15 298.15 298.15 298.15 298.15 298.15 298.15 298.15 298.15 298.15
          298.15 298.15 298.15 298.15 298.15 298.15 298.15 298.15 298.15 298.15 298.15 298.15
          298.15 298.15 298.15 298.15 298.15 298.15 298.15 298.15 298.15 298.15 298.15 298.15
          298.15 298.15 298.15 298.15 298.15 298.15 298.15 298.15 298.15 298.15 298.15 298.15
          298.15 298.15 298.15 298.15 298.15 298.15 298.15 298.15 298.15 298.15 298.15 298.15
          298.15 298.15 298.15 298.15 298.15 298.15 298.15 298.15 298.15 298.15 298.15 298.15
          298.15 298.15 298.15 298.15 298.15 298.15 298.15 298.15 298.15 298.15 298.15 298.15
          298.15 298.15 298.15 298.15 298.15 298.15 298.15 298.15 298.15 298.15 298.15 298.15
        </DataArray>
        <DataArray type="Float32" Name="pg" NumberOfComponents="1" format="ascii">
          100000 100000 100000 100000 100000 100000 100000 100000 100000 100000 100000 100000
          100000 100000 100000 100000 100000 100000 100000 100000 100000 100000 100000 100000
          100000 100000 100000 100000 100000 100000 100000 100000 100000 100000 100000 100000
          100000 100000 100000 100000 100000 100000 100000 100000 100000 100000 100000 100000
          100000 100000 100000 100000 100000 100000 100000 100000 100000 100000 100000 100000
          100000 100000 100000 100000 100000 100000 100000 100000 100000 100000 100000 100000
          100000 100000 100000 100000 100000 100000 100000 100000 100000 100000 100000 100000
          100000 100000 100000 100000 100000 100000 100000 100000 100000 100000 100000 100000
          100000 100000 100000 100000 100000 100000 100000 100000 100000 100000 100000 100000
          100000 100000 100000 100000 100000 100000 100000 100000 100000 100000 100000 100000
          100000 100000 100000 100000 100000 100000 100000 100000 100000 100000 100000 100000
          100000 100000 100000 100000 100000 100000 100000 100000 100000 100000 100000 100000
        </DataArray>
        <DataArray type="Float32" Name="delP" NumberOfComponents="1" format="ascii">
          0.00202834 0.00189958 0.00200666 0.00187789 0.00176432 0.00174486 0.00162857 0.00161357 0.00149221 0.00147959 0.0013562 0.0013466
          0.00122011 0.00121209 0.0010843 0.00107822 0.00094848 0.00094345 0.000812857 0.000809093 0.000677237 0.000674202 0.000541745 0.000539571
          0.000406247 0.000404625 0.000270832 0.000269834 0.000135405 0.000134883 0 0 0.00203252 0.00189681 0.00176133 0.00162569
          0.00149008 0.00135447 0.00121887 0.00108333 0.000947789 0.000812323 0.000676859 0.00054146 0.000406052 0.000270702 0.000135323 0
          0.00202165 0.00188575 0.00175145 0.00161682 0.00148243 0.00134799 0.00121338 0.00107885 0.00094407 0.000809393 0.000674505 0.000539712
          0.000404762 0.00026989 0.000134914 0 0.00203123 0.00189566 0.00176013 0.0016245 0.00148905 0.00135348 0.00121809 0.00108259
          0.000947247 0.000811832 0.00067652 0.000541167 0.000405875 0.000270567 0.00013528 0 0.0020259 0.00189011 0.00175515 0.00161981
          0.00148494 0.00134982 0.00121495 0.00107992 0.00094501 0.000810003 0.000675047 0.000540037 0.000405049 0.000270029 0.000135025 0
          0.00202984 0.00189429 0.00175893 0.0016234 0.00148808 0.00135259 0.00121733 0.00108192 0.000946696 0.000811347 0.000676154 0.000540857
          0.000405677 0.000270416 0.00013524 0 0.00202769 0.00189214 0.00175696 0.00162154 0.00148646 0.00135114 0.00121608 0.00108083
          0.000945782 0.000810585 0.000675536 0.000540376 0.00040532 0.000270184 0.00013512 0 0.002028 0.00189245 0.00175751 0.00162197
          0.00148681 0.00135141 0.00121629 0.001081 0.00094592 0.000810698 0.00067563 0.000540451 0.000405378 0.000270226 0.000135135 0
        </DataArray>
        <DataArray type="Float32" Name="x_gas^H2O" NumberOfComponents="1" format="ascii">
          0.0286132 0.0286074 0.0127981 0.0128097 0.0285999 0.0128213 0.028592 0.0128329 0.0285842 0.0128444 0.0285766 0.012856
          0.0285694 0.0128676 0.0285626 0.0128793 0.0285561 0.0128911 0.0285499 0.0129029 0.0285441 0.0129148 0.0285385 0.0129267
          0.0285333 0.0129387 0.0285285 0.0129506 0.0285244 0.0129625 0.0285217 0.0129685 0.0127981 0.0127981 0.0127981 0.0127981
          0.0127981 0.0127981 0.0127981 0.0127982 0.0127982 0.0127982 0.0127983 0.0127983 0.0127984 0.0127984 0.0127985 0.0127985
          0.0127981 0.0127981 0.0127981 0.0127981 0.0127981 0.0127981 0.0127981 0.0127981 0.0127981 0.0127981 0.0127981 0.0127981
          0.0127981 0.0127981 0.0127981 0.0127981 0.0127981 0.0127981 0.0127981 0.0127981 0.0127981 0.0127981 0.0127981 0.0127981
          0.0127981 0.0127981 0.0127981 0.0127981 0.0127981 0.0127981 0.0127981 0.0127981 0.0127981 0.0127981 0.0127981 0.0127981
          0.0127981 0.0127981 0.0127981 0.0127981 0.0127981 0.0127981 0.0127981 0.0127981 0.0127981 0.0127981 0.0127981 0.0127981
          0.0127981 0.0127981 0.0127981 0.0127981 0.0127981 0.0127981 0.0127981 0.0127981 0.0127981 0.0127981 0.0127981 0.0127981
          0.0127981 0.0127981 0.0127981 0.0127981 0.0127981 0.0127981 0.0127981 0.0127981 0.0127981 0.0127981 0.0127981 0.0127981
          0.0127981 0.0127981 0.0127981 0.0127981 0.0127981 0.0127981 0.0127981 0.0127981 0.0127981 0.0128001 0.0128025 0.0128045
          0.0128062 0.0128076 0.0128087 0.0128097 0.0128104 0.0128111 0.0128116 0.012812 0.0128123 0.0128125 0.0128126 0.0127981
        </DataArray>
        <DataArray type="Float32" Name="X_gas^H2O" NumberOfComponents="1" format="ascii">
          0.017994 0.0179903 0.008 0.00800731 0.0179856 0.00801461 0.0179805 0.00802188 0.0179756 0.00802913 0.0179708 0.00803637
          0.0179662 0.00804366 0.0179618 0.00805102 0.0179577 0.00805843 0.0179538 0.00806588 0.0179501 0.00807334 0.0179465 0.00808083
          0.0179432 0.00808832 0.0179402 0.00809581 0.0179376 0.00810331 0.0179358 0.00810706 0.008 0.008 0.00800001 0.00800002
          0.00800002 0.00800004 0.00800005 0.00800007 0.00800009 0.00800011 0.00800013 0.00800016 0.00800019 0.00800022 0.00800025 0.00800026
          0.008 0.008 0.008 0.008 0.008 0.008 0.008 0.008 0.008 0.008 0.008 0.008
          0.008 0.008 0.008 0.00799999 0.008 0.008 0.008 0.008 0.008 0.008 0.008 0.008
          0.008 0.008 0.008 0.008 0.008 0.008 0.008 0.008 0.008 0.008 0.008 0.008
          0.008 0.008 0.008 0.008 0.008 0.008 0.008 0.008 0.008 0.008 0.008 0.008
          0.008 0.008 0.008 0.008 0.008 0.008 0.008 0.008 0.008 0.008 0.008 0.008
          0.008 0.008 0.008 0.008 0.008 0.008 0.008 0.008 0.008 0.008 0.008 0.008
          0.00800001 0.00800001 0.00800001 0.00800001 0.00800001 0.00800001 0.00800001 0.00800002 0.008 0.0080013 0.00800277 0.00800405
          0.00800512 0.00800599 0.00800671 0.00800729 0.00800778 0.00800817 0.0080085 0.00800875 0.00800894 0.00800907 0.00800911 0.008
        </DataArray>
        <DataArray type="Float32" Name="x_gas^Air" NumberOfComponents="1" format="ascii">
          0.971387 0.971393 0.987202 0.98719 0.9714 0.987179 0.971408 0.987167 0.971416 0.987156 0.971423 0.987144
          0.971431 0.987132 0.971437 0.987121 0.971444 0.987109 0.97145 0.987097 0.971456 0.987085 0.971461 0.987073
          0.971467 0.987061 0.971471 0.987049 0.971476 0.987037 0.971478 0.987032 0.987202 0.987202 0.987202 0.987202
          0.987202 0.987202 0.987202 0.987202 0.987202 0.987202 0.987202 0.987202 0.987202 0.987202 0.987202 0.987202
          0.987202 0.987202 0.987202 0.987202 0.987202 0.987202 0.987202 0.987202 0.987202 0.987202 0.987202 0.987202
          0.987202 0.987202 0.987202 0.987202 0.987202 0.987202 0.987202 0.987202 0.987202 0.987202 0.987202 0.987202
          0.987202 0.987202 0.987202 0.987202 0.987202 0.987202 0.987202 0.987202 0.987202 0.987202 0.987202 0.987202
          0.987202 0.987202 0.987202 0.987202 0.987202 0.987202 0.987202 0.987202 0.987202 0.987202 0.987202 0.987202
          0.987202 0.987202 0.987202 0.987202 0.987202 0.987202 0.987202 0.987202 0.987202 0.987202 0.987202 0.987202
          0.987202 0.987202 0.987202 0.987202 0.987202 0.987202 0.987202 0.987202 0.987202 0.987202 0.987202 0.987202
          0.987202 0.987202 0.987202 0.987202 0.987202 0.987202 0.987202 0.987202 0.987202 0.9872 0.987198 0.987195
          0.987194 0.987192 0.987191 0.98719 0.98719 0.987189 0.987188 0.987188 0.987188 0.987188 0.987187 0.987202
        </DataArray>
        <DataArray type="Float32" Name="X_gas^Air" NumberOfComponents="1" format="ascii">
          0.982006 0.98201 0.992 0.991993 0.982014 0.991985 0.982019 0.991978 0.982024 0.991971 0.982029 0.991964
          0.982034 0.991956 0.982038 0.991949 0.982042 0.991942 0.982046 0.991934 0.98205 0.991927 0.982053 0.991919
          0.982057 0.991912 0.98206 0.991904 0.982062 0.991897 0.982064 0.991893 0.992 0.992 0.992 0.992
          0.992 0.992 0.992 0.992 0.992 0.992 0.992 0.992 0.992 0.992 0.992 0.992
          0.992 0.992 0.992 0.992 0.992 0.992 0.992 0.992 0.992 0.992 0.992 0.992
          0.992 0.992 0.992 0.992 0.992 0.992 0.992 0.992 0.992 0.992 0.992 0.992
          0.992 0.992 0.992 0.992 0.992 0.992 0.992 0.992 0.992 0.992 0.992 0.992
          0.992 0.992 0.992 0.992 0.992 0.992 0.992 0.992 0.992 0.992 0.992 0.992
          0.992 0.992 0.992 0.992 0.992 0.992 0.992 0.992 0.992 0.992 0.992 0.992
          0.992 0.992 0.992 0.992 0.992 0.992 0.992 0.992 0.992 0.992 0.992 0.992
          0.992 0.992 0.992 0.992 0.992 0.992 0.992 0.992 0.992 0.991999 0.991997 0.991996
          0.991995 0.991994 0.991993 0.991993 0.991992 0.991992 0.991992 0.991991 0.991991 0.991991 0.991991 0.992
        </DataArray>
        <DataArray type="Float32" Name="h" NumberOfComponents="1" format="ascii">
          67788.6 67776.1 44886.1 44902.9 67759.8 44919.7 67742.6 44936.4 67725.5 44953.1 67709.1 44969.7
          67693.5 44986.5 67678.6 45003.4 67664.5 45020.4 67651.1 45037.5 67638.3 45054.7 67626.2 45071.8
          67614.9 45089 67604.5 45106.2 67595.6 45123.4 67589.7 45132 44886.1 44886.1 44886.1 44886.1
          44886.2 44886.2 44886.2 44886.3 44886.3 44886.4 44886.4 44886.5 44886.5 44886.6 44886.7 44886.7
          44886.1 44886.1 44886.1 44886.1 44886.1 44886.1 44886.1 44886.1 44886.1 44886.1 44886.1 44886.1
          44886.1 44886.1 44886.1 44886.1 44886.1 44886.1 44886.1 44886.1 44886.1 44886.1 44886.1 44886.1
          44886.1 44886.1 44886.1 44886.1 44886.1 44886.1 44886.1 44886.1 44886.1 44886.1 44886.1 44886.1
          44886.1 44886.1 44886.1 44886.1 44886.1 44886.1 44886.1 44886.1 44886.1 44886.1 44886.1 44886.1
          44886.1 44886.1 44886.1 44886.1 44886.1 44886.1 44886.1 44886.1 44886.1 44886.1 44886.1 44886.1
          44886.1 44886.1 44886.1 44886.1 44886.1 44886.1 44886.1 44886.1 44886.1 44886.1 44886.1 44886.1
          44886.1 44886.1 44886.1 44886.1 44886.1 44886.1 44886.1 44886.2 44886.1 44889.3 44892.9 44896.1
          44898.7 44900.9 44902.7 44904.1 44905.3 44906.3 44907.1 44907.7 44908.2 44908.5 44908.6 44886.1
        </DataArray>
        <DataArray type="Float32" Name="rho" NumberOfComponents="1" format="ascii">
          1.16228 1.1623 1.16259 1.16259 1.16232 1.16259 1.16234 1.16259 1.16236 1.16259 1.16238 1.16259
          1.1624 1.16259 1.16242 1.16258 1.16244 1.16258 1.16245 1.16258 1.16247 1.16258 1.16248 1.16258
          1.1625 1.16258 1.16251 1.16258 1.16252 1.16258 1.16253 1.16258 1.16259 1.16259 1.16259 1.16259
          1.16259 1.16259 1.16259 1.16259 1.16259 1.16259 1.16259 1.16259 1.16259 1.16259 1.16259 1.16259
          1.16259 1.16259 1.16259 1.16259 1.16259 1.16259 1.16259 1.16259 1.16259 1.16259 1.16259 1.16259
          1.16259 1.16259 1.16259 1.16259 1.16259 1.16259 1.16259 1.16259 1.16259 1.16259 1.16259 1.16259
          1.16259 1.16259 1.16259 1.16259 1.16259 1.16259 1.16259 1.16259 1.16259 1.16259 1.16259 1.16259
          1.16259 1.16259 1.16259 1.16259 1.16259 1.16259 1.16259 1.16259 1.16259 1.16259 1.16259 1.16259
          1.16259 1.16259 1.16259 1.16259 1.16259 1.16259 1.16259 1.16259 1.16259 1.16259 1.16259 1.16259
          1.16259 1.16259 1.16259 1.16259 1.16259 1.16259 1.16259 1.16259 1.16259 1.16259 1.16259 1.16259
          1.16259 1.16259 1.16259 1.16259 1.16259 1.16259 1.16259 1.16259 1.16259 1.16259 1.16259 1.16258
          1.16258 1.16258 1.16258 1.16258 1.16258 1.16258 1.16258 1.16258 1.16258 1.16258 1.16258 1.16259
        </DataArray>
        <DataArray type="Float32" Name="mu" NumberOfComponents="1" format="ascii">
          1.78982e-05 1.78981e-05 1.81222e-05 1.81221e-05 1.78979e-05 1.81219e-05 1.78978e-05 1.81217e-05 1.78977e-05 1.81216e-05 1.78975e-05 1.81214e-05
          1.78974e-05 1.81213e-05 1.78973e-05 1.81211e-05 1.78971e-05 1.81209e-05 1.7897e-05 1.81208e-05 1.78969e-05 1.81206e-05 1.78968e-05 1.81204e-05
          1.78967e-05 1.81203e-05 1.78966e-05 1.81201e-05 1.78966e-05 1.81199e-05 1.78965e-05 1.81198e-05 1.81222e-05 1.81222e-05 1.81222e-05 1.81222e-05
          1.81222e-05 1.81222e-05 1.81222e-05 1.81222e-05 1.81222e-05 1.81222e-05 1.81222e-05 1.81222e-05 1.81222e-05 1.81222e-05 1.81222e-05 1.81222e-05
          1.81222e-05 1.81222e-05 1.81222e-05 1.81222e-05 1.81222e-05 1.81222e-05 1.81222e-05 1.81222e-05 1.81222e-05 1.81222e-05 1.81222e-05 1.81222e-05
          1.81222e-05 1.81222e-05 1.81222e-05 1.81222e-05 1.81222e-05 1.81222e-05 1.81222e-05 1.81222e-05 1.81222e-05 1.81222e-05 1.81222e-05 1.81222e-05
          1.81222e-05 1.81222e-05 1.81222e-05 1.81222e-05 1.81222e-05 1.81222e-05 1.81222e-05 1.81222e-05 1.81222e-05 1.81222e-05 1.81222e-05 1.81222e-05
          1.81222e-05 1.81222e-05 1.81222e-05 1.81222e-05 1.81222e-05 1.81222e-05 1.81222e-05 1.81222e-05 1.81222e-05 1.81222e-05 1.81222e-05 1.81222e-05
          1.81222e-05 1.81222e-05 1.81222e-05 1.81222e-05 1.81222e-05 1.81222e-05 1.81222e-05 1.81222e-05 1.81222e-05 1.81222e-05 1.81222e-05 1.81222e-05
          1.81222e-05 1.81222e-05 1.81222e-05 1.81222e-05 1.81222e-05 1.81222e-05 1.81222e-05 1.81222e-05 1.81222e-05 1.81222e-05 1.81222e-05 1.81222e-05
          1.81222e-05 1.81222e-05 1.81222e-05 1.81222e-05 1.81222e-05 1.81222e-05 1.81222e-05 1.81222e-05 1.81222e-05 1.81222e-05 1.81222e-05 1.81222e-05
          1.81222e-05 1.81221e-05 1.81221e-05 1.81221e-05 1.81221e-05 1.81221e-05 1.81221e-05 1.81221e-05 1.81221e-05 1.81221e-05 1.81221e-05 1.81222e-05
        </DataArray>
        <DataArray type="Float32" Name="v" NumberOfComponents="3" format="ascii">
          0.000913909 6.56504e-05 0 0.000916503 6.53788e-05 0 1.11851 0 0 1.11901 -0.000191898 0
          0.000918945 6.52907e-05 0 1.1199 -0.000216607 0 0.000919638 6.48846e-05 0 1.12062 -0.000160612 0
          0.000920287 6.46125e-05 0 1.12124 -0.000117758 0 0.000920597 6.43264e-05 0 1.12168 -7.24346e-05 0
          0.000920885 6.42396e-05 0 1.12204 -4.24123e-05 0 0.000921038 6.41796e-05 0 1.12229 -1.54005e-05 0
          0.000921182 6.41173e-05 0 1.1225 2.24118e-06 0 0.000921258 6.40579e-05 0 1.12264 1.75935e-05 0
          0.000921331 6.40009e-05 0 1.12275 2.783e-05 0 0.000921368 6.39481e-05 0 1.12283 3.67311e-05 0
          0.000921406 6.3898e-05 0 1.12289 4.30749e-05 0 0.000921419 6.38798e-05 0 1.12293 4.87246e-05 0
          0.000921446 6.37609e-05 0 1.12296 5.40263e-05 0 0.000921434 6.43679e-05 0 1.12297 5.70044e-05 0
          2.1001 0 0 2.10017 -0.00161744 0 2.10044 -0.00177199 0 2.10082 -0.00145273 0
          2.10122 -0.00117172 0 2.10157 -0.000869703 0 2.10186 -0.000661441 0 2.1021 -0.000474029 0
          2.10229 -0.000347851 0 2.10243 -0.000239015 0 2.10254 -0.000165067 0 2.10262 -0.000101724 0
          2.10269 -5.66744e-05 0 2.10273 -1.71298e-05 0 2.10276 1.51871e-05 0 2.10278 4.51406e-05 0
          2.88064 0 0 2.88049 -0.000763437 0 2.88027 -0.00124344 0 2.88025 -0.00132479 0
          2.88032 -0.00120967 0 2.88047 -0.00101944 0 2.88064 -0.000824276 0 2.88081 -0.000641739 0
          2.88097 -0.000490019 0 2.8811 -0.000361834 0 2.88121 -0.000261782 0 2.88129 -0.00017939 0
          2.88136 -0.000115514 0 2.8814 -6.10183e-05 0 2.88144 -1.5357e-05 0 2.88145 2.90744e-05 0
          3.37718 0 0 3.37713 -0.00107571 0 3.377 -0.00151222 0 3.37684 -0.00163627 0
          3.37672 -0.00157253 0 3.37665 -0.0013951 0 3.37661 -0.00118836 0 3.37661 -0.000968071 0
          3.37662 -0.00077402 0 3.37663 -0.000596278 0 3.37665 -0.000452237 0 3.37667 -0.000326408 0
          3.37668 -0.000226031 0 3.3767 -0.00013682 0 3.37671 -6.09244e-05 0 3.37672 1.39977e-05 0
          3.48529 0 0 3.48519 -0.000307422 0 3.48496 -0.000642941 0 3.48472 -0.000832456 0
          3.48448 -0.000894697 0 3.48428 -0.000865201 0 3.48412 -0.000781088 0 3.48401 -0.000669786 0
          3.48392 -0.000552555 0 3.48386 -0.00043943 0 3.48382 -0.000338831 0 3.4838 -0.000250194 0
          3.48378 -0.000175677 0 3.48377 -0.000109781 0 3.48377 -5.23917e-05 0 3.48377 4.58172e-06 0
          3.07414 0 0 3.07409 -0.000422446 0 3.07395 -0.000611288 0 3.07375 -0.000716214 0
          3.07353 -0.000747636 0 3.07331 -0.000724778 0 3.0731 -0.000664594 0 3.07293 -0.00058116 0
          3.07278 -0.000491113 0 3.07265 -0.000399133 0 3.07255 -0.000315314 0 3.07248 -0.000237494 0
          3.07243 -0.000170147 0 3.07239 -0.000108201 0 3.07237 -5.25579e-05 0 3.07236 2.16783e-06 0
          1.98047 0 0 1.98041 0.000171258 0 1.98028 0.00014574 0 1.98013 0.000101433 0
          1.97996 5.98529e-05 0 1.9798 3.31475e-05 0 1.97964 1.60315e-05 0 1.9795 8.24031e-06 0
          1.97937 5.2892e-06 0 1.97927 5.14358e-06 0 1.97919 5.96601e-06 0 1.97913 6.29697e-06 0
          1.97908 6.20511e-06 0 1.97905 5.01419e-06 0 1.97903 3.88951e-06 0 1.97902 1.7492e-06 0
          0.00134 0 0 0.00134 0 0 0.00134 0 0 0.00134 0 0
          0.00134 0 0 0.00134 0 0 0.00134 0 0 0.00134 0 0
          0.00134 0 0 0.00134 0 0 0.00134 0 0 0.00134 0 0
          0.00134 0 0 0.00134 0 0 0.00134 0 0 0.00134 0 0
        </DataArray>
      </PointData>
      <Points>
        <DataArray type="Float32" Name="Coordinates" NumberOfComponents="3" format="ascii">
          0 0.25 0 0.0166667 0.25 0 0 0.271861 0 0.0166667 0.271861 0
          0.0333333 0.25 0 0.0333333 0.271861 0 0.05 0.25 0 0.05 0.271861 0
          0.0666667 0.25 0 0.0666667 0.271861 0 0.0833333 0.25 0 0.0833333 0.271861 0
          0.1 0.25 0 0.1 0.271861 0 0.116667 0.25 0 0.116667 0.271861 0
          0.133333 0.25 0 0.133333 0.271861 0 0.15 0.25 0 0.15 0.271861 0
          0.166667 0.25 0 0.166667 0.271861 0 0.183333 0.25 0 0.183333 0.271861 0
          0.2 0.25 0 0.2 0.271861 0 0.216667 0.25 0 0.216667 0.271861 0
          0.233333 0.25 0 0.233333 0.271861 0 0.25 0.25 0 0.25 0.271861 0
          0 0.295908 0 0.0166667 0.295908 0 0.0333333 0.295908 0 0.05 0.295908 0
          0.0666667 0.295908 0 0.0833333 0.295908 0 0.1 0.295908 0 0.116667 0.295908 0
          0.133333 0.295908 0 0.15 0.295908 0 0.166667 0.295908 0 0.183333 0.295908 0
          0.2 0.295908 0 0.216667 0.295908 0 0.233333 0.295908 0 0.25 0.295908 0
          0 0.32236 0 0.0166667 0.32236 0 0.0333333 0.32236 0 0.05 0.32236 0
          0.0666667 0.32236 0 0.0833333 0.32236 0 0.1 0.32236 0 0.116667 0.32236 0
          0.133333 0.32236 0 0.15 0.32236 0 0.166667 0.32236 0 0.183333 0.32236 0
          0.2 0.32236 0 0.216667 0.32236 0 0.233333 0.32236 0 0.25 0.32236 0
          0 0.351457 0 0.0166667 0.351457 0 0.0333333 0.351457 0 0.05 0.351457 0
          0.0666667 0.351457 0 0.0833333 0.351457 0 0.1 0.351457 0 0.116667 0.351457 0
          0.133333 0.351457 0 0.15 0.351457 0 0.166667 0.351457 0 0.183333 0.351457 0
          0.2 0.351457 0 0.216667 0.351457 0 0.233333 0.351457 0 0.25 0.351457 0
          0 0.383464 0 0.0166667 0.383464 0 0.0333333 0.383464 0 0.05 0.383464 0
          0.0666667 0.383464 0 0.0833333 0.383464 0 0.1 0.383464 0 0.116667 0.383464 0
          0.133333 0.383464 0 0.15 0.383464 0 0.166667 0.383464 0 0.183333 0.383464 0
          0.2 0.383464 0 0.216667 0.383464 0 0.233333 0.383464 0 0.25 0.383464 0
          0 0.418671 0 0.0166667 0.418671 0 0.0333333 0.418671 0 0.05 0.418671 0
          0.0666667 0.418671 0 0.0833333 0.418671 0 0.1 0.418671 0 0.116667 0.418671 0
          0.133333 0.418671 0 0.15 0.418671 0 0.166667 0.418671 0 0.183333 0.418671 0
          0.2 0.418671 0 0.216667 0.418671 0 0.233333 0.418671 0 0.25 0.418671 0
          0 0.457399 0 0.0166667 0.457399 0 0.0333333 0.457399 0 0.05 0.457399 0
          0.0666667 0.457399 0 0.0833333 0.457399 0 0.1 0.457399 0 0.116667 0.457399 0
          0.133333 0.457399 0 0.15 0.457399 0 0.166667 0.457399 0 0.183333 0.457399 0
          0.2 0.457399 0 0.216667 0.457399 0 0.233333 0.457399 0 0.25 0.457399 0
          0 0.5 0 0.0166667 0.5 0 0.0333333 0.5 0 0.05 0.5 0
          0.0666667 0.5 0 0.0833333 0.5 0 0.1 0.5 0 0.116667 0.5 0
          0.133333 0.5 0 0.15 0.5 0 0.166667 0.5 0 0.183333 0.5 0
          0.2 0.5 0 0.216667 0.5 0 0.233333 0.5 0 0.25 0.5 0
        </DataArray>
      </Points>
      <Cells>
        <DataArray type="Int32" Name="connectivity" NumberOfComponents="1" format="ascii">
          0 1 3 2 1 4 5 3 4 6 7 5
          6 8 9 7 8 10 11 9 10 12 13 11
          12 14 15 13 14 16 17 15 16 18 19 17
          18 20 21 19 20 22 23 21 22 24 25 23
          24 26 27 25 26 28 29 27 28 30 31 29
          2 3 33 32 3 5 34 33 5 7 35 34
          7 9 36 35 9 11 37 36 11 13 38 37
          13 15 39 38 15 17 40 39 17 19 41 40
          19 21 42 41 21 23 43 42 23 25 44 43
          25 27 45 44 27 29 46 45 29 31 47 46
          32 33 49 48 33 34 50 49 34 35 51 50
          35 36 52 51 36 37 53 52 37 38 54 53
          38 39 55 54 39 40 56 55 40 41 57 56
          41 42 58 57 42 43 59 58 43 44 60 59
          44 45 61 60 45 46 62 61 46 47 63 62
          48 49 65 64 49 50 66 65 50 51 67 66
          51 52 68 67 52 53 69 68 53 54 70 69
          54 55 71 70 55 56 72 71 56 57 73 72
          57 58 74 73 58 59 75 74 59 60 76 75
          60 61 77 76 61 62 78 77 62 63 79 78
          64 65 81 80 65 66 82 81 66 67 83 82
          67 68 84 83 68 69 85 84 69 70 86 85
          70 71 87 86 71 72 88 87 72 73 89 88
          73 74 90 89 74 75 91 90 75 76 92 91
          76 77 93 92 77 78 94 93 78 79 95 94
          80 81 97 96 81 82 98 97 82 83 99 98
          83 84 100 99 84 85 101 100 85 86 102 101
          86 87 103 102 87 88 104 103 88 89 105 104
          89 90 106 105 90 91 107 106 91 92 108 107
          92 93 109 108 93 94 110 109 94 95 111 110
          96 97 113 112 97 98 114 113 98 99 115 114
          99 100 116 115 100 101 117 116 101 102 118 117
          102 103 119 118 103 104 120 119 104 105 121 120
          105 106 122 121 106 107 123 122 107 108 124 123
          108 109 125 124 109 110 126 125 110 111 127 126
          112 113 129 128 113 114 130 129 114 115 131 130
          115 116 132 131 116 117 133 132 117 118 134 133
          118 119 135 134 119 120 136 135 120 121 137 136
          121 122 138 137 122 123 139 138 123 124 140 139
          124 125 141 140 125 126 142 141 126 127 143 142
        </DataArray>
        <DataArray type="Int32" Name="offsets" NumberOfComponents="1" format="ascii">
          4 8 12 16 20 24 28 32 36 40 44 48
          52 56 60 64 68 72 76 80 84 88 92 96
          100 104 108 112 116 120 124 128 132 136 140 144
          148 152 156 160 164 168 172 176 180 184 188 192
          196 200 204 208 212 216 220 224 228 232 236 240
          244 248 252 256 260 264 268 272 276 280 284 288
          292 296 300 304 308 312 316 320 324 328 332 336
          340 344 348 352 356 360 364 368 372 376 380 384
          388 392 396 400 404 408 412 416 420 424 428 432
          436 440 444 448 452 456 460 464 468 472 476 480
        </DataArray>
        <DataArray type="UInt8" Name="types" NumberOfComponents="1" format="ascii">
          9 9 9 9 9 9 9 9 9 9 9 9
          9 9 9 9 9 9 9 9 9 9 9 9
          9 9 9 9 9 9 9 9 9 9 9 9
          9 9 9 9 9 9 9 9 9 9 9 9
          9 9 9 9 9 9 9 9 9 9 9 9
          9 9 9 9 9 9 9 9 9 9 9 9
          9 9 9 9 9 9 9 9 9 9 9 9
          9 9 9 9 9 9 9 9 9 9 9 9
          9 9 9 9 9 9 9 9 9 9 9 9
          9 9 9 9 9 9 9 9 9 9 9 9
        </DataArray>
      </Cells>
    </Piece>
  </UnstructuredGrid>
</VTKFile>
