<?xml version="1.0"?>
<VTKFile type="UnstructuredGrid" version="0.1" byte_order="LittleEndian">
  <UnstructuredGrid>
    <Piece NumberOfCells="24" NumberOfPoints="35">
      <PointData Scalars="Sn" Vectors="velocityW">
        <DataArray type="Float32" Name="Sn" NumberOfComponents="1" format="ascii">
          0.0101045 0.0101045 0.0103705 0.0103705 0.0101045 0.0103705 0.0101045 0.0103706 0.0101045 0.0103706 0.0101045 0.0103706
          0.0101045 0.0103706 0.0133566 0.0133566 0.0133566 0.0133566 0.0133566 0.0133566 0.0133566 0.0251666 0.0251665 0.0251664
          0.0251664 0.0251663 0.0251663 0.0251662 0.131068 0.131067 0.131067 0.131067 0.131066 0.131066 0.131065
        </DataArray>
        <DataArray type="Float32" Name="Sw" NumberOfComponents="1" format="ascii">
          0.989896 0.989896 0.989629 0.989629 0.989896 0.989629 0.989896 0.989629 0.989896 0.989629 0.989896 0.989629
          0.989896 0.989629 0.986643 0.986643 0.986643 0.986643 0.986643 0.986643 0.986643 0.974833 0.974834 0.974834
          0.974834 0.974834 0.974834 0.974834 0.868932 0.868933 0.868933 0.868933 0.868934 0.868934 0.868935
        </DataArray>
        <DataArray type="Float32" Name="pn" NumberOfComponents="1" format="ascii">
          101214 101214 100246 100246 101214 100246 101214 100246 101214 100246 101214 100246
          101214 100246 100002 100002 100002 100002 100002 100002 100002 100000 100000 100000
          100000 100000 100000 100000 100000 100000 100000 100000 100000 100000 100000
        </DataArray>
        <DataArray type="Float32" Name="pw" NumberOfComponents="1" format="ascii">
          101196 101196 100180 100180 101196 100180 101196 100180 101196 100180 101196 100180
          101196 100180 99502.6 99502.6 99502.6 99502.6 99502.6 99502.6 99502.6 99051.1 99051.1 99051.1
          99051.1 99051.1 99051.1 99051.1 98750.1 98750.1 98750.1 98750.1 98750.1 98750.1 98750.1
        </DataArray>
        <DataArray type="Float32" Name="pc" NumberOfComponents="1" format="ascii">
          18.9519 18.9513 66.1916 66.1907 18.9514 66.1917 18.9514 66.1932 18.9516 66.1939 18.9513 66.1965
          18.9516 66.1979 499.46 499.46 499.46 499.46 499.461 499.461 499.461 949.239 949.238 949.238
          949.237 949.237 949.236 949.236 1249.91 1249.91 1249.91 1249.91 1249.91 1249.91 1249.91
        </DataArray>
        <DataArray type="Float32" Name="rhoW" NumberOfComponents="1" format="ascii">
          997.056 997.056 997.062 997.062 997.056 997.062 997.056 997.062 997.056 997.062 997.056 997.062
          997.056 997.062 997.102 997.102 997.102 997.102 997.102 997.102 997.102 997.209 997.209 997.209
          997.209 997.208 997.207 997.207 997.347 997.349 997.349 997.348 997.347 997.346 997.343
        </DataArray>
        <DataArray type="Float32" Name="rhoN" NumberOfComponents="1" format="ascii">
          1.16846 1.16846 1.15727 1.15727 1.16846 1.15727 1.16846 1.15727 1.16846 1.15727 1.16846 1.15727
          1.16846 1.15727 1.15516 1.15516 1.15516 1.15516 1.15516 1.15515 1.15515 1.15712 1.15713 1.15713
          1.15712 1.15711 1.1571 1.15709 1.15975 1.15977 1.15977 1.15975 1.15973 1.15971 1.15967
        </DataArray>
        <DataArray type="Float32" Name="mobW" NumberOfComponents="1" format="ascii">
          1123.57 1123.57 1122.91 1122.91 1123.57 1122.91 1123.57 1122.91 1123.57 1122.92 1123.57 1122.92
          1123.57 1122.92 1117.98 1117.98 1117.99 1118 1118.02 1118.03 1118.04 1091.47 1091.45 1091.46
          1091.5 1091.55 1091.62 1091.67 692.04 691.963 691.964 692.026 692.091 692.158 692.325
        </DataArray>
        <DataArray type="Float32" Name="mobN" NumberOfComponents="1" format="ascii">
          0.000369238 0.000369214 0.00516199 0.00516184 0.000369217 0.005162 0.000369218 0.00516225 0.000369227 0.00516237 0.000369216 0.00516281
          0.000369226 0.00516304 0.50892 0.50892 0.50892 0.50892 0.50892 0.50892 0.50892 11.7724 11.7723 11.7722
          11.7721 11.7719 11.7718 11.7716 880.299 880.302 880.297 880.285 880.272 880.259 880.232
        </DataArray>
        <DataArray type="Float32" Name="X_liquid^H2O" NumberOfComponents="1" format="ascii">
          0.999978 0.999978 0.999978 0.999978 0.999978 0.999978 0.999978 0.999978 0.999978 0.999978 0.999978 0.999978
          0.999978 0.999978 0.999978 0.999978 0.999978 0.999978 0.999978 0.999978 0.999978 0.999978 0.999978 0.999978
          0.999978 0.999978 0.999978 0.999978 0.999978 0.999978 0.999978 0.999978 0.999978 0.999978 0.999978
        </DataArray>
        <DataArray type="Float32" Name="X_liquid^Air" NumberOfComponents="1" format="ascii">
          2.18171e-05 2.18171e-05 2.16111e-05 2.16111e-05 2.18171e-05 2.16111e-05 2.18171e-05 2.16111e-05 2.18171e-05 2.1611e-05 2.18171e-05 2.1611e-05
          2.18171e-05 2.1611e-05 2.16169e-05 2.16169e-05 2.16168e-05 2.16166e-05 2.16164e-05 2.16162e-05 2.16161e-05 2.17779e-05 2.17782e-05 2.17781e-05
          2.17775e-05 2.17767e-05 2.17757e-05 2.17749e-05 2.19961e-05 2.1998e-05 2.1998e-05 2.19965e-05 2.1995e-05 2.19934e-05 2.19893e-05
        </DataArray>
        <DataArray type="Float32" Name="X_gas^H2O" NumberOfComponents="1" format="ascii">
          0.0197146 0.0197146 0.0198771 0.0198772 0.0197146 0.0198772 0.0197146 0.0198773 0.0197146 0.0198773 0.0197146 0.0198774
          0.0197146 0.0198774 0.0197363 0.0197363 0.0197365 0.019737 0.0197377 0.0197385 0.0197388 0.0192394 0.0192386 0.0192387
          0.0192405 0.0192431 0.0192461 0.0192485 0.0185963 0.0185908 0.0185909 0.0185952 0.0185996 0.0186043 0.018616
        </DataArray>
        <DataArray type="Float32" Name="X_gas^Air" NumberOfComponents="1" format="ascii">
          0.980285 0.980285 0.980123 0.980123 0.980285 0.980123 0.980285 0.980123 0.980285 0.980123 0.980285 0.980123
          0.980285 0.980123 0.980264 0.980264 0.980264 0.980263 0.980262 0.980262 0.980261 0.980761 0.980761 0.980761
          0.980759 0.980757 0.980754 0.980751 0.981404 0.981409 0.981409 0.981405 0.9814 0.981396 0.981384
        </DataArray>
        <DataArray type="Float32" Name="x_liquid^H2O" NumberOfComponents="1" format="ascii">
          0.999986 0.999986 0.999987 0.999987 0.999986 0.999987 0.999986 0.999987 0.999986 0.999987 0.999986 0.999987
          0.999986 0.999987 0.999987 0.999987 0.999987 0.999987 0.999987 0.999987 0.999987 0.999986 0.999986 0.999986
          0.999986 0.999986 0.999986 0.999986 0.999986 0.999986 0.999986 0.999986 0.999986 0.999986 0.999986
        </DataArray>
        <DataArray type="Float32" Name="x_liquid^Air" NumberOfComponents="1" format="ascii">
          1.35719e-05 1.35719e-05 1.34437e-05 1.34437e-05 1.35719e-05 1.34437e-05 1.35719e-05 1.34437e-05 1.35719e-05 1.34437e-05 1.35719e-05 1.34437e-05
          1.35719e-05 1.34437e-05 1.34473e-05 1.34473e-05 1.34473e-05 1.34472e-05 1.34471e-05 1.34469e-05 1.34468e-05 1.35475e-05 1.35477e-05 1.35477e-05
          1.35473e-05 1.35468e-05 1.35461e-05 1.35456e-05 1.36833e-05 1.36845e-05 1.36844e-05 1.36835e-05 1.36826e-05 1.36815e-05 1.3679e-05
        </DataArray>
        <DataArray type="Float32" Name="x_gas^H2O" NumberOfComponents="1" format="ascii">
          0.0313167 0.0313167 0.0315719 0.0315719 0.0313167 0.031572 0.0313167 0.0315721 0.0313167 0.0315722 0.0313167 0.0315723
          0.0313167 0.0315724 0.0313509 0.0313508 0.0313511 0.0313519 0.0313531 0.0313543 0.0313548 0.0305706 0.0305693 0.0305695
          0.0305725 0.0305764 0.0305812 0.030585 0.0295603 0.0295516 0.0295517 0.0295585 0.0295655 0.0295728 0.0295911
        </DataArray>
        <DataArray type="Float32" Name="x_gas^Air" NumberOfComponents="1" format="ascii">
          0.968683 0.968683 0.968428 0.968428 0.968683 0.968428 0.968683 0.968428 0.968683 0.968428 0.968683 0.968428
          0.968683 0.968428 0.968649 0.968649 0.968649 0.968648 0.968647 0.968646 0.968645 0.969429 0.969431 0.969431
          0.969428 0.969424 0.969419 0.969415 0.97044 0.970448 0.970448 0.970442 0.970435 0.970427 0.970409
        </DataArray>
        <DataArray type="Float32" Name="porosity" NumberOfComponents="1" format="ascii">
          0.41 0.41 0.41 0.41 0.41 0.41 0.41 0.41 0.41 0.41 0.41 0.41
          0.41 0.41 0.41 0.41 0.41 0.41 0.41 0.41 0.41 0.41 0.41 0.41
          0.41 0.41 0.41 0.41 0.41 0.41 0.41 0.41 0.41 0.41 0.41
        </DataArray>
        <DataArray type="Float32" Name="temperature" NumberOfComponents="1" format="ascii">
          298.15 298.15 298.125 298.125 298.15 298.125 298.15 298.125 298.15 298.125 298.15 298.125
          298.15 298.125 297.966 297.966 297.966 297.967 297.967 297.968 297.968 297.544 297.544 297.544
          297.545 297.548 297.55 297.552 296.984 296.98 296.98 296.983 296.987 296.991 297.002
        </DataArray>
        <DataArray type="Float32" Name="phase presence" NumberOfComponents="1" format="ascii">
          3 3 3 3 3 3 3 3 3 3 3 3
          3 3 3 3 3 3 3 3 3 3 3 3
          3 3 3 3 3 3 3 3 3 3 3
        </DataArray>
        <DataArray type="Float32" Name="velocityW" NumberOfComponents="3" format="ascii">
          3.37478e-11 -9.28233e-10 0 6.20777e-11 -9.24204e-10 0 1.93879e-11 -2.95078e-09 0 3.60428e-11 -2.98261e-09 0
          1.1969e-10 -9.1768e-10 0 1.10851e-10 -2.99956e-09 0 1.58743e-10 -8.77053e-10 0 1.96615e-10 -2.93086e-09 0
          1.5231e-10 -8.10631e-10 0 2.19499e-10 -2.79024e-09 0 9.49091e-11 -7.45734e-10 0 1.56191e-10 -2.61292e-09 0
          5.37111e-11 -7.1941e-10 0 9.76101e-11 -2.51757e-09 0 -1.23723e-10 -4.80814e-09 0 -1.17015e-10 -5.04891e-09 0
          -5.51871e-11 -5.15749e-09 0 2.57516e-11 -5.02336e-09 0 9.51058e-11 -4.82408e-09 0 1.65433e-10 -4.49287e-09 0
          1.92225e-10 -4.04773e-09 0 -9.84112e-11 -7.48545e-10 0 -2.12038e-10 -1.20555e-09 0 -4.97414e-10 -1.327e-09 0
          -7.61765e-10 -1.21169e-09 0 -8.41319e-10 -1.12185e-09 0 -5.33394e-10 -1.01619e-09 0 -2.38517e-10 -1.45878e-10 0
          6.09837e-10 3.14585e-09 0 1.6076e-10 2.64572e-09 0 -6.80837e-10 2.57954e-09 0 -1.15745e-09 2.63867e-09 0
          -1.24768e-09 2.63461e-09 0 -1.40945e-09 2.47326e-09 0 -1.56508e-09 3.48797e-09 0
        </DataArray>
        <DataArray type="Float32" Name="velocityN" NumberOfComponents="3" format="ascii">
          1.57279e-15 9.1144e-10 0 4.68204e-16 9.1138e-10 0 2.37234e-14 2.85759e-09 0 2.83398e-16 2.85749e-09 0
          -7.60801e-16 9.11386e-10 0 -3.003e-14 2.85757e-09 0 -8.17007e-16 9.11388e-10 0 -2.8206e-14 2.8577e-09 0
          -8.98655e-16 9.11409e-10 0 -4.17508e-14 2.85777e-09 0 -1.15431e-15 9.1138e-10 0 -4.9533e-14 2.85798e-09 0
          -1.2601e-15 9.11405e-10 0 -3.50732e-14 2.85812e-09 0 2.87229e-13 4.12376e-09 0 8.75323e-14 4.12445e-09 0
          -4.40431e-13 4.12508e-09 0 -1.00214e-12 4.12593e-09 0 -1.18831e-12 4.12703e-09 0 -6.94266e-13 4.12801e-09 0
          -2.47481e-13 4.12883e-09 0 4.10366e-11 -1.28464e-09 0 3.21666e-11 -1.23916e-09 0 2.2265e-11 -1.24462e-09 0
          1.97166e-11 -1.24178e-09 0 2.00442e-11 -1.24185e-09 0 3.35039e-11 -1.24674e-09 0 4.51192e-11 -1.19314e-09 0
          3.70602e-09 -6.01306e-09 0 2.81686e-09 -5.92362e-09 0 1.91781e-09 -5.93564e-09 0 1.90538e-09 -5.93139e-09 0
          1.90663e-09 -5.93362e-09 0 2.89462e-09 -5.94492e-09 0 3.87883e-09 -5.83911e-09 0
        </DataArray>
      </PointData>
      <CellData Scalars="process rank">
        <DataArray type="Float32" Name="process rank" NumberOfComponents="1" format="ascii">
          0 0 0 0 0 0 0 0 0 0 0 0
          0 0 0 0 0 0 0 0 0 0 0 0
        </DataArray>
      </CellData>
      <Points>
        <DataArray type="Float32" Name="Coordinates" NumberOfComponents="3" format="ascii">
          0 0 0 0.0416667 0 0 0 0.103846 0 0.0416667 0.103846 0
          0.0833333 0 0 0.0833333 0.103846 0 0.125 0 0 0.125 0.103846 0
          0.166667 0 0 0.166667 0.103846 0 0.208333 0 0 0.208333 0.103846 0
          0.25 0 0 0.25 0.103846 0 0 0.173077 0 0.0416667 0.173077 0
          0.0833333 0.173077 0 0.125 0.173077 0 0.166667 0.173077 0 0.208333 0.173077 0
          0.25 0.173077 0 0 0.219231 0 0.0416667 0.219231 0 0.0833333 0.219231 0
          0.125 0.219231 0 0.166667 0.219231 0 0.208333 0.219231 0 0.25 0.219231 0
          0 0.25 0 0.0416667 0.25 0 0.0833333 0.25 0 0.125 0.25 0
          0.166667 0.25 0 0.208333 0.25 0 0.25 0.25 0
        </DataArray>
      </Points>
      <Cells>
        <DataArray type="Int32" Name="connectivity" NumberOfComponents="1" format="ascii">
          0 1 3 2 1 4 5 3 4 6 7 5
          6 8 9 7 8 10 11 9 10 12 13 11
          2 3 15 14 3 5 16 15 5 7 17 16
          7 9 18 17 9 11 19 18 11 13 20 19
          14 15 22 21 15 16 23 22 16 17 24 23
          17 18 25 24 18 19 26 25 19 20 27 26
          21 22 29 28 22 23 30 29 23 24 31 30
          24 25 32 31 25 26 33 32 26 27 34 33
        </DataArray>
        <DataArray type="Int32" Name="offsets" NumberOfComponents="1" format="ascii">
          4 8 12 16 20 24 28 32 36 40 44 48
          52 56 60 64 68 72 76 80 84 88 92 96
        </DataArray>
        <DataArray type="UInt8" Name="types" NumberOfComponents="1" format="ascii">
          9 9 9 9 9 9 9 9 9 9 9 9
          9 9 9 9 9 9 9 9 9 9 9 9
        </DataArray>
      </Cells>
    </Piece>
  </UnstructuredGrid>
</VTKFile>
