<?xml version="1.0"?>
<VTKFile type="UnstructuredGrid" version="0.1" byte_order="LittleEndian">
  <UnstructuredGrid>
    <Piece NumberOfCells="150" NumberOfPoints="176">
      <PointData Scalars="P" Vectors="v">
        <DataArray type="Float32" Name="P" NumberOfComponents="1" format="ascii">
          100015 99988.6 100015 99988.6 100014 100014 99989.6 99989.6 100012 100012 99991.3 99991.2
          100010 100010 99993.5 99993 100008 100008 99995 99994.8 100006 100006 99996.5 99996.5
          100004 100004 99998.2 99998.2 100002 100002 100000 100000 100018 99987.6 100014 99989.5
          100012 99991.3 100010 99993.3 100008 99994.9 100006 99996.5 100004 99998.2 100002 100000
          100017 99987.4 100014 99989.2 100012 99991.1 100010 99992.9 100008 99994.7 100006 99996.5
          100004 99998.2 100003 100000 100017 99987.1 100015 99989.1 100012 99991 100010 99993
          100008 99994.7 100006 99996.5 100005 99998.2 100003 100000 100017 99987.1 100015 99989
          100012 99990.9 100010 99992.7 100009 99994.5 100007 99996.4 100005 99998.2 100003 100000
          100017 99987.1 100015 99989.1 100012 99991 100010 99992.8 100008 99994.6 100006 99996.4
          100005 99998.2 100003 100000 100017 99987.4 100014 99989.2 100012 99991 100010 99992.8
          100008 99994.6 100006 99996.4 100004 99998.2 100003 100000 100018 99987.6 100014 99989.4
          100012 99991.1 100010 99992.9 100008 99994.7 100006 99996.5 100004 99998.2 100002 100000
          100015 99988.6 100014 99989.6 100012 99991.2 100010 99992.9 100008 99994.7 100006 99996.5
          100004 99998.2 100002 100000 100015 99988.6 100014 99989.5 100012 99991.2 100010 99992.9
          100008 99994.7 100006 99996.5 100004 99998.2 100002 100000
        </DataArray>
        <DataArray type="Float32" Name="delP" NumberOfComponents="1" format="ascii">
          14.9338 -11.4362 14.9567 -11.4133 13.6823 13.6848 -10.4036 -10.4002 11.9229 11.9373 -8.69525 -8.76971
          9.67047 10.1029 -6.48061 -6.96785 7.95471 8.18343 -5.02132 -5.19894 6.31562 6.35073 -3.54476 -3.54993
          4.40077 4.40192 -1.76312 -1.76231 2.37932 2.36774 0 0 17.6635 -12.3723 14.1585 -10.544
          12.0087 -8.71708 9.84568 -6.65659 8.0536 -5.06219 6.30137 -3.49891 4.39634 -1.76843 2.43834 0
          16.9772 -12.621 14.4644 -10.7638 12.2541 -8.92822 10.2815 -7.12957 8.31592 -5.29699 6.38596 -3.5383
          4.45793 -1.7844 2.56562 0 16.617 -12.863 14.5095 -10.8791 12.3664 -8.9555 10.2771 -7.04887
          8.32222 -5.26678 6.41372 -3.52887 4.52993 -1.78052 2.70329 0 16.5325 -12.9067 14.5336 -10.9932
          12.5005 -9.12334 10.4926 -7.29367 8.50707 -5.46085 6.55654 -3.6378 4.63928 -1.81918 2.76135 0
          16.6077 -12.8631 14.5293 -10.9078 12.4203 -9.01611 10.3719 -7.15972 8.39268 -5.35021 6.457 -3.56974
          4.55989 -1.79681 2.72104 0 16.9641 -12.6195 14.4832 -10.7907 12.3003 -8.96944 10.2949 -7.15503
          8.34436 -5.34937 6.41146 -3.56058 4.48226 -1.79292 2.57921 0 17.6386 -12.3734 14.1919 -10.6009
          12.1215 -8.85314 10.2014 -7.08082 8.28975 -5.30248 6.36978 -3.52894 4.4347 -1.77498 2.45624 0
          14.9327 -11.4144 13.7137 -10.4456 12.0166 -8.83874 10.175 -7.08921 8.28138 -5.3101 6.36411 -3.53001
          4.42257 -1.76134 2.38053 0 14.9098 -11.4373 13.7117 -10.4515 12.0161 -8.83968 10.175 -7.08905
          8.28152 -5.30993 6.36418 -3.53011 4.42294 -1.7621 2.39274 0
        </DataArray>
        <DataArray type="Float32" Name="X^H2O" NumberOfComponents="1" format="ascii">
          0.008 0.00622658 0.008 0.00792512 0.00598599 0.00788434 0.00583605 0.00784301 0.00591219 0.00781546 0.00621079 0.00779806
          0.00754476 0.00779776 0.00939182 0.00782734 0.0107062 0.00786771 0.0109197 0.00792815 0.0115109 0.00799964 0.0109309 0.0080463
          0.0104995 0.00807898 0.0103333 0.00810682 0.00775501 0.00809998 0.0059721 0.00766512 0.008 0.00799624 0.00799233 0.00798685
          0.00798182 0.00797669 0.00797301 0.00796895 0.00796663 0.00796574 0.00796705 0.00796983 0.00797317 0.00797692 0.00797625 0.00771151
          0.008 0.00799992 0.00799975 0.00799942 0.00799902 0.00799848 0.00799796 0.00799728 0.00799661 0.00799587 0.0079952 0.00799462
          0.00799418 0.00799353 0.00798616 0.00775718 0.008 0.008 0.008 0.00799999 0.00799999 0.00799997 0.00799995 0.00799991
          0.00799987 0.00799982 0.00799976 0.00799968 0.00799957 0.0079988 0.00798684 0.00775569 0.008 0.008 0.008 0.008
          0.00799999 0.00799999 0.00799998 0.00799998 0.00799997 0.00799996 0.00799995 0.00799994 0.00799988 0.00799908 0.00798441 0.00775215
          0.008 0.00799999 0.00799996 0.00799993 0.00799988 0.00799983 0.00799976 0.00799967 0.00799958 0.00799948 0.00799937 0.00799925
          0.00799913 0.00799881 0.0079906 0.00776135 0.008 0.00799971 0.0079993 0.0079987 0.00799806 0.00799731 0.00799654 0.00799569
          0.00799484 0.00799394 0.00799308 0.00799218 0.00799137 0.00799059 0.00798595 0.00775814 0.008 0.00799441 0.00798944 0.00798328
          0.00797817 0.00797299 0.00796856 0.00796425 0.00796052 0.00795694 0.00795389 0.00795102 0.00794875 0.00794656 0.00794231 0.0076764
          0.008 0.00791749 0.0078772 0.00783769 0.0078172 0.0078026 0.00779499 0.00779114 0.00779009 0.00779107 0.00779335 0.00779664
          0.00780174 0.00780312 0.00779054 0.00737342 0.008 0.00624493 0.00601681 0.00585947 0.00602312 0.006231 0.00647328 0.00672531
          0.00693001 0.00711547 0.00724865 0.00735113 0.00745775 0.00772897 0.006229 0.00494063
        </DataArray>
        <DataArray type="Float32" Name="rho" NumberOfComponents="1" format="ascii">
          1.16276 1.1637 1.16276 1.16251 1.16416 1.16283 1.16399 1.16257 1.16419 1.16285 1.16374 1.16262
          1.17425 1.16286 1.19112 1.16282 1.20091 1.16305 1.19934 1.16311 1.1602 1.16321 1.16049 1.16306
          1.16089 1.16313 1.16093 1.16304 1.16279 1.16307 1.18744 1.16835 1.16279 1.16245 1.16276 1.16247
          1.16274 1.1625 1.16272 1.16253 1.16271 1.16256 1.16269 1.16258 1.16267 1.1626 1.16265 1.166
          1.16278 1.16244 1.16276 1.16246 1.16273 1.16249 1.16271 1.16251 1.16269 1.16253 1.16267 1.16255
          1.16264 1.16257 1.16263 1.16549 1.16278 1.16244 1.16276 1.16246 1.16273 1.16248 1.16271 1.16251
          1.16268 1.16253 1.16266 1.16255 1.16264 1.16257 1.16263 1.16552 1.16278 1.16244 1.16276 1.16246
          1.16273 1.16248 1.16271 1.1625 1.16269 1.16252 1.16266 1.16255 1.16264 1.16257 1.16263 1.16556
          1.16278 1.16244 1.16276 1.16246 1.16273 1.16248 1.16271 1.1625 1.16269 1.16253 1.16266 1.16255
          1.16264 1.16257 1.16263 1.16553 1.16278 1.16244 1.16276 1.16246 1.16273 1.16249 1.16271 1.16251
          1.16269 1.16253 1.16267 1.16255 1.16265 1.16257 1.16263 1.16551 1.16279 1.16245 1.16276 1.16248
          1.16274 1.1625 1.16273 1.16253 1.16271 1.16255 1.16269 1.16258 1.16267 1.1626 1.16266 1.16602
          1.16276 1.16251 1.16283 1.16258 1.16285 1.16262 1.16284 1.16265 1.16283 1.16267 1.1628 1.16268
          1.16277 1.1627 1.16277 1.1681 1.16276 1.16369 1.16414 1.16397 1.16412 1.16373 1.16378 1.1634
          1.16343 1.16315 1.16319 1.163 1.16302 1.16276 1.16386 1.18809
        </DataArray>
        <DataArray type="Float32" Name="mu" NumberOfComponents="1" format="ascii">
          1.81222e-05 1.81479e-05 1.81222e-05 1.81233e-05 1.81514e-05 1.81239e-05 1.81536e-05 1.81245e-05 1.81525e-05 1.8125e-05 1.81482e-05 1.81252e-05
          1.79936e-05 1.8125e-05 1.77501e-05 1.81224e-05 1.76091e-05 1.81208e-05 1.76206e-05 1.81168e-05 1.80716e-05 1.81156e-05 1.80799e-05 1.81149e-05
          1.80861e-05 1.81144e-05 1.80885e-05 1.81141e-05 1.81258e-05 1.81144e-05 1.78719e-05 1.80603e-05 1.81222e-05 1.81223e-05 1.81223e-05 1.81224e-05
          1.81225e-05 1.81226e-05 1.81226e-05 1.81227e-05 1.81227e-05 1.81227e-05 1.81226e-05 1.81225e-05 1.81224e-05 1.81224e-05 1.81224e-05 1.80876e-05
          1.81222e-05 1.81222e-05 1.81222e-05 1.81222e-05 1.81222e-05 1.81223e-05 1.81223e-05 1.81223e-05 1.81223e-05 1.81223e-05 1.81223e-05 1.81223e-05
          1.81223e-05 1.81223e-05 1.81224e-05 1.80927e-05 1.81222e-05 1.81222e-05 1.81222e-05 1.81222e-05 1.81222e-05 1.81222e-05 1.81222e-05 1.81222e-05
          1.81222e-05 1.81222e-05 1.81222e-05 1.81222e-05 1.81222e-05 1.81222e-05 1.81224e-05 1.80924e-05 1.81222e-05 1.81222e-05 1.81222e-05 1.81222e-05
          1.81222e-05 1.81222e-05 1.81222e-05 1.81222e-05 1.81222e-05 1.81222e-05 1.81222e-05 1.81222e-05 1.81222e-05 1.81222e-05 1.81224e-05 1.8092e-05
          1.81222e-05 1.81222e-05 1.81222e-05 1.81222e-05 1.81222e-05 1.81222e-05 1.81222e-05 1.81222e-05 1.81222e-05 1.81222e-05 1.81222e-05 1.81222e-05
          1.81222e-05 1.81222e-05 1.81223e-05 1.80921e-05 1.81222e-05 1.81222e-05 1.81222e-05 1.81222e-05 1.81223e-05 1.81223e-05 1.81223e-05 1.81223e-05
          1.81223e-05 1.81223e-05 1.81223e-05 1.81223e-05 1.81224e-05 1.81224e-05 1.81224e-05 1.80924e-05 1.81222e-05 1.81223e-05 1.81224e-05 1.81225e-05
          1.81226e-05 1.81226e-05 1.81227e-05 1.81228e-05 1.81228e-05 1.81229e-05 1.81229e-05 1.8123e-05 1.8123e-05 1.8123e-05 1.81231e-05 1.80881e-05
          1.81222e-05 1.81234e-05 1.8124e-05 1.81246e-05 1.81249e-05 1.81251e-05 1.81253e-05 1.81253e-05 1.81253e-05 1.81253e-05 1.81253e-05 1.81252e-05
          1.81252e-05 1.81251e-05 1.81252e-05 1.807e-05 1.81222e-05 1.81477e-05 1.8151e-05 1.81533e-05 1.81509e-05 1.81479e-05 1.81444e-05 1.81407e-05
          1.81377e-05 1.8135e-05 1.81331e-05 1.81316e-05 1.81301e-05 1.81262e-05 1.81479e-05 1.78877e-05
        </DataArray>
        <DataArray type="Float32" Name="v" NumberOfComponents="3" format="ascii">
          0 0 0 0 0 0 3.5 0 0 3.42882 0.102831 0
          0 0 0 3.12033 0.00888965 0 0 0 0 3.23492 0.0250088 0
          0 0 0 2.91421 0.00796738 0 0 0 0 3.11557 0.00537881 0
          0.0265927 -0.00442212 0 2.79992 -0.0368189 0 0.260362 0.00671295 0 3.025 0.0125029 0
          0.0135791 -0.00557923 0 2.73487 -0.00563452 0 0.25174 0.00373404 0 2.96154 0.00574155 0
          0 0 0 2.67089 0.0155556 0 0 0 0 2.92057 0.00184655 0
          0 0 0 2.6197 0.00197139 0 0 0 0 2.8943 0.00118524 0
          0 0 0 2.62412 -0.0366102 0 1.00648 -0.00725145 0 2.87305 -0.047548 0
          3.5 0 0 3.83764 0.1139 0 3.60914 0.0365758 0 3.81297 0.0620856 0
          3.56647 0.0264748 0 3.76552 0.035235 0 3.49958 0.0121173 0 3.67212 0.0273948 0
          3.44497 0.0127998 0 3.61618 0.0231502 0 3.39317 0.0201092 0 3.58326 0.0158747 0
          3.34994 0.00755705 0 3.55237 0.00380736 0 3.3234 -0.0268679 0 3.50477 -0.0323767 0
          3.5 0 0 3.7965 0.0530881 0 3.58192 0.0348213 0 3.83174 0.0529557 0
          3.62172 0.030784 0 3.84598 0.0396834 0 3.63792 0.0129947 0 3.85077 0.036085 0
          3.64583 0.0221042 0 3.8514 0.0338985 0 3.6521 0.0276761 0 3.85637 0.0266335 0
          3.65489 0.0158968 0 3.85515 0.0109235 0 3.64941 -0.011512 0 3.83131 -0.015253 0
          3.5 0 0 3.74876 0.0173781 0 3.52306 0.0184163 0 3.76854 0.0272178 0
          3.55177 0.0188408 0 3.78773 0.0246647 0 3.57395 0.0173603 0 3.79758 0.0221225 0
          3.59405 0.0156268 0 3.81228 0.0206952 0 3.61376 0.0146725 0 3.82848 0.01665 0
          3.6294 0.00902373 0 3.83785 0.00764436 0 3.63502 -0.00146545 0 3.83273 -0.00293924 0
          3.5 0 0 3.73744 -6.56461e-05 0 3.51322 -0.000644705 0 3.75131 -1.30716e-05 0
          3.5357 -0.00150479 0 3.76758 -0.000135594 0 3.55741 -0.00264728 0 3.78369 0.000528393 0
          3.57659 -0.000911225 0 3.79717 0.00153294 0 3.59346 0.00068055 0 3.80858 0.00175858 0
          3.60655 0.000986566 0 3.81564 0.00129446 0 3.6126 0.000723964 0 3.81597 0.000595173 0
          3.5 0 0 3.74616 -0.0175151 0 3.52292 -0.0192653 0 3.76553 -0.0273057 0
          3.55131 -0.0206185 0 3.7844 -0.0249855 0 3.57481 -0.017902 0 3.80017 -0.0217802 0
          3.59481 -0.0160212 0 3.81513 -0.0189575 0 3.61262 -0.0135217 0 3.82864 -0.0148049 0
          3.62705 -0.00807985 0 3.83695 -0.0065884 0 3.63233 0.00194918 0 3.83119 0.00330661 0
          3.5 0 0 3.79274 -0.0530063 0 3.58152 -0.0354653 0 3.82772 -0.0522742 0
          3.62022 -0.0336115 0 3.84364 -0.0406984 0 3.63772 -0.0298172 0 3.85132 -0.032684 0
          3.64621 -0.0259332 0 3.85445 -0.0273553 0 3.65001 -0.0213722 0 3.85506 -0.0218203 0
          3.65176 -0.0122009 0 3.85357 -0.00826005 0 3.64669 0.0139402 0 3.82972 0.0175634 0
          3.5 0 0 3.83175 -0.113618 0 3.60887 -0.0371117 0 3.80533 -0.0610134 0
          3.56638 -0.0285282 0 3.74568 -0.0359244 0 3.50107 -0.0209872 0 3.68242 -0.0246889 0
          3.43861 -0.0165681 0 3.62575 -0.0187842 0 3.3855 -0.0126929 0 3.57974 -0.0142077 0
          3.3455 -0.00622179 0 3.55098 -0.00351178 0 3.32176 0.0274053 0 3.50484 0.0330586 0
          3.5 0 0 3.42268 -0.102815 0 3.12092 -0.00817394 0 3.22822 -0.025862 0
          2.91668 -0.00359975 0 3.10551 -0.00508346 0 2.80001 -0.000452951 0 3.02456 5.83809e-05 0
          2.722 0.000217902 0 2.96428 0.000234495 0 2.66352 -1.98939e-05 0 2.91884 -0.000836122 0
          2.62082 0.00107814 0 2.89698 -9.37616e-05 0 2.62635 0.0384585 0 2.87645 0.0493796 0
          0 0 0 0 0 0 0 0 0 0 0 0
          0 0 0 0 0 0 0 0 0 0 0 0
          0 0 0 0 0 0 0 0 0 0 0 0
          0 0 0 0 0 0 0 0 0 1.01298 0.00752403 0
        </DataArray>
        <DataArray type="Float32" Name="temperature" NumberOfComponents="1" format="ascii">
          298.15 298.15 298.15 298.15 298.15 298.15 298.15 298.151 298.15 298.151 298.15 298.151
          295.299 298.147 290.745 298.1 288.19 298.079 288.493 298.014 298.15 298.009 298.15 298.009
          298.15 298.009 298.15 298.01 298.15 298.015 292.268 296.739 298.15 298.15 298.15 298.15
          298.15 298.15 298.15 298.15 298.15 298.149 298.147 298.147 298.146 298.146 298.145 297.33
          298.15 298.15 298.15 298.15 298.15 298.15 298.15 298.15 298.15 298.15 298.15 298.15
          298.15 298.15 298.149 297.451 298.15 298.15 298.15 298.15 298.15 298.15 298.15 298.15
          298.15 298.15 298.15 298.15 298.15 298.15 298.149 297.444 298.15 298.15 298.15 298.15
          298.15 298.15 298.15 298.15 298.15 298.15 298.15 298.15 298.15 298.15 298.149 297.435
          298.15 298.15 298.15 298.15 298.15 298.15 298.15 298.15 298.15 298.15 298.15 298.15
          298.15 298.15 298.149 297.44 298.15 298.15 298.15 298.15 298.15 298.15 298.15 298.15
          298.15 298.15 298.15 298.15 298.15 298.15 298.15 297.447 298.15 298.15 298.15 298.15
          298.15 298.15 298.15 298.15 298.15 298.15 298.151 298.151 298.151 298.151 298.15 297.331
          298.15 298.15 298.151 298.151 298.151 298.151 298.151 298.151 298.151 298.151 298.151 298.151
          298.151 298.151 298.149 296.856 298.15 298.15 298.15 298.15 298.15 298.15 298.15 298.15
          298.15 298.15 298.15 298.15 298.15 298.15 298.15 292.289
        </DataArray>
      </PointData>
      <Points>
        <DataArray type="Float32" Name="Coordinates" NumberOfComponents="3" format="ascii">
          0 0.25 0 0.05 0.25 0 0 0.262165 0 0.05 0.262165 0
          0.1 0.25 0 0.1 0.262165 0 0.15 0.25 0 0.15 0.262165 0
          0.2 0.25 0 0.2 0.262165 0 0.25 0.25 0 0.25 0.262165 0
          0.3 0.25 0 0.3 0.262165 0 0.35 0.25 0 0.35 0.262165 0
          0.4 0.25 0 0.4 0.262165 0 0.45 0.25 0 0.45 0.262165 0
          0.5 0.25 0 0.5 0.262165 0 0.55 0.25 0 0.55 0.262165 0
          0.6 0.25 0 0.6 0.262165 0 0.65 0.25 0 0.65 0.262165 0
          0.7 0.25 0 0.7 0.262165 0 0.75 0.25 0 0.75 0.262165 0
          0 0.283454 0 0.05 0.283454 0 0.1 0.283454 0 0.15 0.283454 0
          0.2 0.283454 0 0.25 0.283454 0 0.3 0.283454 0 0.35 0.283454 0
          0.4 0.283454 0 0.45 0.283454 0 0.5 0.283454 0 0.55 0.283454 0
          0.6 0.283454 0 0.65 0.283454 0 0.7 0.283454 0 0.75 0.283454 0
          0 0.320709 0 0.05 0.320709 0 0.1 0.320709 0 0.15 0.320709 0
          0.2 0.320709 0 0.25 0.320709 0 0.3 0.320709 0 0.35 0.320709 0
          0.4 0.320709 0 0.45 0.320709 0 0.5 0.320709 0 0.55 0.320709 0
          0.6 0.320709 0 0.65 0.320709 0 0.7 0.320709 0 0.75 0.320709 0
          0 0.385906 0 0.05 0.385906 0 0.1 0.385906 0 0.15 0.385906 0
          0.2 0.385906 0 0.25 0.385906 0 0.3 0.385906 0 0.35 0.385906 0
          0.4 0.385906 0 0.45 0.385906 0 0.5 0.385906 0 0.55 0.385906 0
          0.6 0.385906 0 0.65 0.385906 0 0.7 0.385906 0 0.75 0.385906 0
          0 0.5 0 0.05 0.5 0 0.1 0.5 0 0.15 0.5 0
          0.2 0.5 0 0.25 0.5 0 0.3 0.5 0 0.35 0.5 0
          0.4 0.5 0 0.45 0.5 0 0.5 0.5 0 0.55 0.5 0
          0.6 0.5 0 0.65 0.5 0 0.7 0.5 0 0.75 0.5 0
          0 0.614094 0 0.05 0.614094 0 0.1 0.614094 0 0.15 0.614094 0
          0.2 0.614094 0 0.25 0.614094 0 0.3 0.614094 0 0.35 0.614094 0
          0.4 0.614094 0 0.45 0.614094 0 0.5 0.614094 0 0.55 0.614094 0
          0.6 0.614094 0 0.65 0.614094 0 0.7 0.614094 0 0.75 0.614094 0
          0 0.679291 0 0.05 0.679291 0 0.1 0.679291 0 0.15 0.679291 0
          0.2 0.679291 0 0.25 0.679291 0 0.3 0.679291 0 0.35 0.679291 0
          0.4 0.679291 0 0.45 0.679291 0 0.5 0.679291 0 0.55 0.679291 0
          0.6 0.679291 0 0.65 0.679291 0 0.7 0.679291 0 0.75 0.679291 0
          0 0.716546 0 0.05 0.716546 0 0.1 0.716546 0 0.15 0.716546 0
          0.2 0.716546 0 0.25 0.716546 0 0.3 0.716546 0 0.35 0.716546 0
          0.4 0.716546 0 0.45 0.716546 0 0.5 0.716546 0 0.55 0.716546 0
          0.6 0.716546 0 0.65 0.716546 0 0.7 0.716546 0 0.75 0.716546 0
          0 0.737835 0 0.05 0.737835 0 0.1 0.737835 0 0.15 0.737835 0
          0.2 0.737835 0 0.25 0.737835 0 0.3 0.737835 0 0.35 0.737835 0
          0.4 0.737835 0 0.45 0.737835 0 0.5 0.737835 0 0.55 0.737835 0
          0.6 0.737835 0 0.65 0.737835 0 0.7 0.737835 0 0.75 0.737835 0
          0 0.75 0 0.05 0.75 0 0.1 0.75 0 0.15 0.75 0
          0.2 0.75 0 0.25 0.75 0 0.3 0.75 0 0.35 0.75 0
          0.4 0.75 0 0.45 0.75 0 0.5 0.75 0 0.55 0.75 0
          0.6 0.75 0 0.65 0.75 0 0.7 0.75 0 0.75 0.75 0
        </DataArray>
      </Points>
      <Cells>
        <DataArray type="Int32" Name="connectivity" NumberOfComponents="1" format="ascii">
          0 1 3 2 1 4 5 3 4 6 7 5
          6 8 9 7 8 10 11 9 10 12 13 11
          12 14 15 13 14 16 17 15 16 18 19 17
          18 20 21 19 20 22 23 21 22 24 25 23
          24 26 27 25 26 28 29 27 28 30 31 29
          2 3 33 32 3 5 34 33 5 7 35 34
          7 9 36 35 9 11 37 36 11 13 38 37
          13 15 39 38 15 17 40 39 17 19 41 40
          19 21 42 41 21 23 43 42 23 25 44 43
          25 27 45 44 27 29 46 45 29 31 47 46
          32 33 49 48 33 34 50 49 34 35 51 50
          35 36 52 51 36 37 53 52 37 38 54 53
          38 39 55 54 39 40 56 55 40 41 57 56
          41 42 58 57 42 43 59 58 43 44 60 59
          44 45 61 60 45 46 62 61 46 47 63 62
          48 49 65 64 49 50 66 65 50 51 67 66
          51 52 68 67 52 53 69 68 53 54 70 69
          54 55 71 70 55 56 72 71 56 57 73 72
          57 58 74 73 58 59 75 74 59 60 76 75
          60 61 77 76 61 62 78 77 62 63 79 78
          64 65 81 80 65 66 82 81 66 67 83 82
          67 68 84 83 68 69 85 84 69 70 86 85
          70 71 87 86 71 72 88 87 72 73 89 88
          73 74 90 89 74 75 91 90 75 76 92 91
          76 77 93 92 77 78 94 93 78 79 95 94
          80 81 97 96 81 82 98 97 82 83 99 98
          83 84 100 99 84 85 101 100 85 86 102 101
          86 87 103 102 87 88 104 103 88 89 105 104
          89 90 106 105 90 91 107 106 91 92 108 107
          92 93 109 108 93 94 110 109 94 95 111 110
          96 97 113 112 97 98 114 113 98 99 115 114
          99 100 116 115 100 101 117 116 101 102 118 117
          102 103 119 118 103 104 120 119 104 105 121 120
          105 106 122 121 106 107 123 122 107 108 124 123
          108 109 125 124 109 110 126 125 110 111 127 126
          112 113 129 128 113 114 130 129 114 115 131 130
          115 116 132 131 116 117 133 132 117 118 134 133
          118 119 135 134 119 120 136 135 120 121 137 136
          121 122 138 137 122 123 139 138 123 124 140 139
          124 125 141 140 125 126 142 141 126 127 143 142
          128 129 145 144 129 130 146 145 130 131 147 146
          131 132 148 147 132 133 149 148 133 134 150 149
          134 135 151 150 135 136 152 151 136 137 153 152
          137 138 154 153 138 139 155 154 139 140 156 155
          140 141 157 156 141 142 158 157 142 143 159 158
          144 145 161 160 145 146 162 161 146 147 163 162
          147 148 164 163 148 149 165 164 149 150 166 165
          150 151 167 166 151 152 168 167 152 153 169 168
          153 154 170 169 154 155 171 170 155 156 172 171
          156 157 173 172 157 158 174 173 158 159 175 174
        </DataArray>
        <DataArray type="Int32" Name="offsets" NumberOfComponents="1" format="ascii">
          4 8 12 16 20 24 28 32 36 40 44 48
          52 56 60 64 68 72 76 80 84 88 92 96
          100 104 108 112 116 120 124 128 132 136 140 144
          148 152 156 160 164 168 172 176 180 184 188 192
          196 200 204 208 212 216 220 224 228 232 236 240
          244 248 252 256 260 264 268 272 276 280 284 288
          292 296 300 304 308 312 316 320 324 328 332 336
          340 344 348 352 356 360 364 368 372 376 380 384
          388 392 396 400 404 408 412 416 420 424 428 432
          436 440 444 448 452 456 460 464 468 472 476 480
          484 488 492 496 500 504 508 512 516 520 524 528
          532 536 540 544 548 552 556 560 564 568 572 576
          580 584 588 592 596 600
        </DataArray>
        <DataArray type="UInt8" Name="types" NumberOfComponents="1" format="ascii">
          9 9 9 9 9 9 9 9 9 9 9 9
          9 9 9 9 9 9 9 9 9 9 9 9
          9 9 9 9 9 9 9 9 9 9 9 9
          9 9 9 9 9 9 9 9 9 9 9 9
          9 9 9 9 9 9 9 9 9 9 9 9
          9 9 9 9 9 9 9 9 9 9 9 9
          9 9 9 9 9 9 9 9 9 9 9 9
          9 9 9 9 9 9 9 9 9 9 9 9
          9 9 9 9 9 9 9 9 9 9 9 9
          9 9 9 9 9 9 9 9 9 9 9 9
          9 9 9 9 9 9 9 9 9 9 9 9
          9 9 9 9 9 9 9 9 9 9 9 9
          9 9 9 9 9 9
        </DataArray>
      </Cells>
    </Piece>
  </UnstructuredGrid>
</VTKFile>
