<?xml version="1.0"?>
<VTKFile type="UnstructuredGrid" version="0.1" byte_order="LittleEndian">
  <UnstructuredGrid>
    <Piece NumberOfCells="48" NumberOfPoints="63">
      <PointData Scalars="T" Vectors="v">
        <DataArray type="Float32" Name="T" NumberOfComponents="1" format="ascii">
          295.785 295.777 298.15 298.141 295.769 298.133 295.763 298.124 295.757 298.115 295.751 298.106
          295.748 298.101 298.15 298.15 298.15 298.15 298.15 298.15 298.15 298.15 298.15 298.15
          298.15 298.15 298.15 298.15 298.15 298.15 298.15 298.15 298.15 298.15 298.15 298.15
          298.15 298.15 298.15 298.15 298.15 298.15 298.15 298.15 298.15 298.15 298.15 298.15
          298.15 298.15 298.15 298.15 298.15 298.15 298.15 298.15 298.15 298.15 298.15 298.15
          298.15 298.15 298.15
        </DataArray>
        <DataArray type="Float32" Name="pg" NumberOfComponents="1" format="ascii">
          100000 100000 100000 100000 100000 100000 100000 100000 100000 100000 100000 100000
          100000 100000 100000 100000 100000 100000 100000 100000 100000 100000 100000 100000
          100000 100000 100000 100000 100000 100000 100000 100000 100000 100000 100000 100000
          100000 100000 100000 100000 100000 100000 100000 100000 100000 100000 100000 100000
          100000 100000 100000 100000 100000 100000 100000 100000 100000 100000 100000 100000
          100000 100000 100000
        </DataArray>
        <DataArray type="Float32" Name="delP" NumberOfComponents="1" format="ascii">
          0.00203752 0.00171269 0.00202549 0.00170066 0.00136765 0.00136084 0.00102555 0.00102243 0.000683682 0.000681134 0.000341875 0.00034069
          0 0 0.00205017 0.00170776 0.00136639 0.00102498 0.000683366 0.000341692 0 0.00204441 0.00170265 0.00136268
          0.00102197 0.000681397 0.000340659 0 0.00205033 0.00170826 0.00136666 0.00102488 0.000683287 0.000341636 0 0.00204673
          0.00170461 0.00136376 0.00102253 0.000681755 0.000340877 0 0.00204972 0.00170781 0.00136624 0.0010245 0.000683012 0.000341514
          0 0.00204714 0.00170545 0.00136429 0.00102297 0.000682016 0.00034101 0 0.00204814 0.00170645 0.00136511 0.00102358
          0.000682424 0.000341212 0
        </DataArray>
        <DataArray type="Float32" Name="x^H2O_gas" NumberOfComponents="1" format="ascii">
          0.0274932 0.0274805 0.0127981 0.0128556 0.0274677 0.0129132 0.0274563 0.0129716 0.0274463 0.0130298 0.0274377 0.0130877
          0.0274314 0.0131162 0.0127981 0.0127981 0.0127982 0.0127984 0.0127985 0.0127988 0.0127988 0.0127981 0.0127981 0.0127981
          0.0127981 0.0127981 0.0127981 0.012798 0.0127981 0.0127981 0.0127981 0.0127981 0.0127981 0.0127981 0.0127981 0.0127981
          0.0127981 0.0127981 0.0127981 0.0127981 0.0127981 0.0127982 0.0127981 0.0127981 0.0127981 0.0127981 0.0127981 0.0127981
          0.0127982 0.0127981 0.0127981 0.0127983 0.0127985 0.0127987 0.0127989 0.0127991 0.0127981 0.0128195 0.0128364 0.0128483
          0.0128551 0.0128574 0.0127981
        </DataArray>
        <DataArray type="Float32" Name="X^H2O_gas" NumberOfComponents="1" format="ascii">
          0.0172823 0.0172743 0.008 0.00803615 0.0172661 0.00807233 0.0172588 0.00810899 0.0172525 0.00814555 0.0172471 0.00818195
          0.017243 0.00819986 0.008 0.00800003 0.00800009 0.00800018 0.0080003 0.00800045 0.00800043 0.008 0.008 0.008
          0.008 0.008 0.008 0.00799996 0.008 0.008 0.008 0.008 0.008 0.008 0.00800002 0.008
          0.008 0.008 0.008 0.008 0.008 0.00800006 0.008 0.008 0.008 0.008 0.008 0.008
          0.00800008 0.008 0.00800005 0.00800014 0.00800026 0.0080004 0.00800052 0.00800066 0.008 0.00801349 0.00802406 0.00803154
          0.00803582 0.00803728 0.008
        </DataArray>
        <DataArray type="Float32" Name="x^Air_gas" NumberOfComponents="1" format="ascii">
          0.972507 0.972519 0.987202 0.987144 0.972532 0.987087 0.972544 0.987028 0.972554 0.98697 0.972562 0.986912
          0.972569 0.986884 0.987202 0.987202 0.987202 0.987202 0.987201 0.987201 0.987201 0.987202 0.987202 0.987202
          0.987202 0.987202 0.987202 0.987202 0.987202 0.987202 0.987202 0.987202 0.987202 0.987202 0.987202 0.987202
          0.987202 0.987202 0.987202 0.987202 0.987202 0.987202 0.987202 0.987202 0.987202 0.987202 0.987202 0.987202
          0.987202 0.987202 0.987202 0.987202 0.987202 0.987201 0.987201 0.987201 0.987202 0.98718 0.987164 0.987152
          0.987145 0.987143 0.987202
        </DataArray>
        <DataArray type="Float32" Name="X^Air_gas" NumberOfComponents="1" format="ascii">
          0.982718 0.982726 0.992 0.991964 0.982734 0.991928 0.982741 0.991891 0.982747 0.991854 0.982753 0.991818
          0.982757 0.9918 0.992 0.992 0.992 0.992 0.992 0.992 0.992 0.992 0.992 0.992
          0.992 0.992 0.992 0.992 0.992 0.992 0.992 0.992 0.992 0.992 0.992 0.992
          0.992 0.992 0.992 0.992 0.992 0.992 0.992 0.992 0.992 0.992 0.992 0.992
          0.992 0.992 0.992 0.992 0.992 0.992 0.991999 0.991999 0.992 0.991987 0.991976 0.991968
          0.991964 0.991963 0.992
        </DataArray>
        <DataArray type="Float32" Name="h" NumberOfComponents="1" format="ascii">
          65344 65316.2 44886.1 44966.5 65288.1 45046.9 65263 45128.4 65241.1 45209.5 65222.4 45290.3
          65208.5 45329.3 44886.1 44886.2 44886.3 44886.5 44886.8 44887.1 44886.7 44886.1 44886.1 44886.1
          44886.1 44886.1 44886.1 44885.9 44886.1 44886.1 44886.1 44886.1 44886.1 44886.1 44886.2 44886.1
          44886.1 44886.1 44886.1 44886.1 44886.1 44886.4 44886.1 44886.1 44886.1 44886.1 44886.1 44886.1
          44886.6 44886.1 44886.2 44886.4 44886.7 44887.1 44887.4 44888.1 44886.1 44919.4 44945.5 44964
          44974.6 44978.2 44886.1
        </DataArray>
        <DataArray type="Float32" Name="rho" NumberOfComponents="1" format="ascii">
          1.16537 1.1654 1.16259 1.1626 1.16544 1.1626 1.16547 1.16261 1.1655 1.16262 1.16552 1.16263
          1.16554 1.16264 1.16259 1.16259 1.16259 1.16259 1.16259 1.16259 1.16259 1.16259 1.16259 1.16259
          1.16259 1.16259 1.16259 1.16259 1.16259 1.16259 1.16259 1.16259 1.16259 1.16259 1.16259 1.16259
          1.16259 1.16259 1.16259 1.16259 1.16259 1.16259 1.16259 1.16259 1.16259 1.16259 1.16259 1.16259
          1.16259 1.16259 1.16259 1.16259 1.16259 1.16259 1.16259 1.16259 1.16259 1.16258 1.16257 1.16257
          1.16256 1.16256 1.16259
        </DataArray>
        <DataArray type="Float32" Name="mu" NumberOfComponents="1" format="ascii">
          1.78772e-05 1.78769e-05 1.81222e-05 1.81213e-05 1.78767e-05 1.81204e-05 1.78764e-05 1.81194e-05 1.78763e-05 1.81185e-05 1.78761e-05 1.81175e-05
          1.7876e-05 1.8117e-05 1.81222e-05 1.81222e-05 1.81222e-05 1.81222e-05 1.81222e-05 1.81222e-05 1.81222e-05 1.81222e-05 1.81222e-05 1.81222e-05
          1.81222e-05 1.81222e-05 1.81222e-05 1.81222e-05 1.81222e-05 1.81222e-05 1.81222e-05 1.81222e-05 1.81222e-05 1.81222e-05 1.81222e-05 1.81222e-05
          1.81222e-05 1.81222e-05 1.81222e-05 1.81222e-05 1.81222e-05 1.81222e-05 1.81222e-05 1.81222e-05 1.81222e-05 1.81222e-05 1.81222e-05 1.81222e-05
          1.81222e-05 1.81222e-05 1.81222e-05 1.81222e-05 1.81222e-05 1.81222e-05 1.81222e-05 1.81222e-05 1.81222e-05 1.8122e-05 1.81219e-05 1.81218e-05
          1.81217e-05 1.81217e-05 1.81222e-05
        </DataArray>
        <DataArray type="Float32" Name="v" NumberOfComponents="3" format="ascii">
          0.000839841 7.58688e-05 0 0.000844321 7.50381e-05 0 0.809861 0 0 0.811341 -9.96361e-05 0
          0.000847938 7.47509e-05 0 0.813096 -2.62624e-05 0 0.000848165 7.44598e-05 0 0.813454 5.08815e-05 0
          0.000848808 7.4206e-05 0 0.813754 5.55916e-05 0 0.000849067 7.39507e-05 0 0.813792 6.88974e-05 0
          0.000849192 7.39043e-05 0 0.81387 6.734e-05 0 1.82383 0 0 1.82428 -0.00142036 0
          1.82521 -0.000780927 0 1.82581 -0.000176154 0 1.82618 -0.000105596 0 1.82634 -1.86203e-08 0
          1.82645 4.51111e-05 0 2.89743 0 0 2.89719 -0.00113589 0 2.89708 -0.00104392 0
          2.89741 -0.000537946 0 2.89765 -0.000266757 0 2.89781 -0.000103307 0 2.8979 6.3542e-06 0
          3.50134 0 0 3.50113 -0.00107062 0 3.50074 -0.0010671 0 3.50054 -0.000740684 0
          3.50044 -0.000437621 0 3.50042 -0.000215907 0 3.50041 -2.64968e-05 0 2.89743 0 0
          2.89713 -0.000251655 0 2.89657 -0.000352315 0 2.89619 -0.000275779 0 2.8959 -0.000168502 0
          2.89578 -8.67869e-05 0 2.8957 -1.73421e-05 0 1.82383 0 0 1.82366 -0.000135582 0
          1.82333 -0.000146764 0 1.82305 -0.000126463 0 1.82282 -7.78072e-05 0 1.82272 -3.95574e-05 0
          1.82266 -2.13799e-06 0 0.809861 0 0 0.809768 0.000156808 0 0.809613 9.95566e-05 0
          0.809478 7.91093e-05 0 0.809359 5.20019e-05 0 0.809315 2.62994e-05 0 0.809279 2.16368e-06 0
          0.00134 0 0 0.00134 0 0 0.00134 3.74344e-38 0 0.00134 0 0
          0.00134 0 0 0.00134 0 0 0.00134 0 0
        </DataArray>
      </PointData>
      <Points>
        <DataArray type="Float32" Name="Coordinates" NumberOfComponents="3" format="ascii">
          0 0.25 0 0.0416667 0.25 0 0 0.265385 0 0.0416667 0.265385 0
          0.0833333 0.25 0 0.0833333 0.265385 0 0.125 0.25 0 0.125 0.265385 0
          0.166667 0.25 0 0.166667 0.265385 0 0.208333 0.25 0 0.208333 0.265385 0
          0.25 0.25 0 0.25 0.265385 0 0 0.288462 0 0.0416667 0.288462 0
          0.0833333 0.288462 0 0.125 0.288462 0 0.166667 0.288462 0 0.208333 0.288462 0
          0.25 0.288462 0 0 0.323077 0 0.0416667 0.323077 0 0.0833333 0.323077 0
          0.125 0.323077 0 0.166667 0.323077 0 0.208333 0.323077 0 0.25 0.323077 0
          0 0.375 0 0.0416667 0.375 0 0.0833333 0.375 0 0.125 0.375 0
          0.166667 0.375 0 0.208333 0.375 0 0.25 0.375 0 0 0.426923 0
          0.0416667 0.426923 0 0.0833333 0.426923 0 0.125 0.426923 0 0.166667 0.426923 0
          0.208333 0.426923 0 0.25 0.426923 0 0 0.461538 0 0.0416667 0.461538 0
          0.0833333 0.461538 0 0.125 0.461538 0 0.166667 0.461538 0 0.208333 0.461538 0
          0.25 0.461538 0 0 0.484615 0 0.0416667 0.484615 0 0.0833333 0.484615 0
          0.125 0.484615 0 0.166667 0.484615 0 0.208333 0.484615 0 0.25 0.484615 0
          0 0.5 0 0.0416667 0.5 0 0.0833333 0.5 0 0.125 0.5 0
          0.166667 0.5 0 0.208333 0.5 0 0.25 0.5 0
        </DataArray>
      </Points>
      <Cells>
        <DataArray type="Int32" Name="connectivity" NumberOfComponents="1" format="ascii">
          0 1 3 2 1 4 5 3 4 6 7 5
          6 8 9 7 8 10 11 9 10 12 13 11
          2 3 15 14 3 5 16 15 5 7 17 16
          7 9 18 17 9 11 19 18 11 13 20 19
          14 15 22 21 15 16 23 22 16 17 24 23
          17 18 25 24 18 19 26 25 19 20 27 26
          21 22 29 28 22 23 30 29 23 24 31 30
          24 25 32 31 25 26 33 32 26 27 34 33
          28 29 36 35 29 30 37 36 30 31 38 37
          31 32 39 38 32 33 40 39 33 34 41 40
          35 36 43 42 36 37 44 43 37 38 45 44
          38 39 46 45 39 40 47 46 40 41 48 47
          42 43 50 49 43 44 51 50 44 45 52 51
          45 46 53 52 46 47 54 53 47 48 55 54
          49 50 57 56 50 51 58 57 51 52 59 58
          52 53 60 59 53 54 61 60 54 55 62 61
        </DataArray>
        <DataArray type="Int32" Name="offsets" NumberOfComponents="1" format="ascii">
          4 8 12 16 20 24 28 32 36 40 44 48
          52 56 60 64 68 72 76 80 84 88 92 96
          100 104 108 112 116 120 124 128 132 136 140 144
          148 152 156 160 164 168 172 176 180 184 188 192
        </DataArray>
        <DataArray type="UInt8" Name="types" NumberOfComponents="1" format="ascii">
          9 9 9 9 9 9 9 9 9 9 9 9
          9 9 9 9 9 9 9 9 9 9 9 9
          9 9 9 9 9 9 9 9 9 9 9 9
          9 9 9 9 9 9 9 9 9 9 9 9
        </DataArray>
      </Cells>
    </Piece>
  </UnstructuredGrid>
</VTKFile>
