<?xml version="1.0"?>
<VTKFile type="UnstructuredGrid" version="0.1" byte_order="LittleEndian">
  <UnstructuredGrid>
    <Piece NumberOfCells="24" NumberOfPoints="35">
      <PointData Scalars="Sn" Vectors="velocityW">
        <DataArray type="Float32" Name="Sn" NumberOfComponents="1" format="ascii">
          0.0100962 0.0100962 0.0103541 0.0103541 0.0100962 0.0103541 0.0100962 0.010354 0.0100962 0.010354 0.0100962 0.010354
          0.0100962 0.010354 0.0136448 0.0136448 0.0136448 0.0136448 0.0136448 0.0136448 0.0136448 0.029998 0.0299979 0.0299979
          0.0299978 0.0299978 0.0299977 0.0299976 0.155596 0.155596 0.155596 0.155596 0.155596 0.155596 0.155596
        </DataArray>
        <DataArray type="Float32" Name="Sw" NumberOfComponents="1" format="ascii">
          0.989904 0.989904 0.989646 0.989646 0.989904 0.989646 0.989904 0.989646 0.989904 0.989646 0.989904 0.989646
          0.989904 0.989646 0.986355 0.986355 0.986355 0.986355 0.986355 0.986355 0.986355 0.970002 0.970002 0.970002
          0.970002 0.970002 0.970002 0.970002 0.844404 0.844404 0.844404 0.844404 0.844404 0.844404 0.844404
        </DataArray>
        <DataArray type="Float32" Name="pn" NumberOfComponents="1" format="ascii">
          101179 101179 100209 100209 101179 100209 101179 100209 101179 100209 101179 100209
          101179 100209 100001 100001 100001 100001 100001 100001 100001 100000 100000 100000
          100000 100000 100000 100000 100000 100000 100000 100000 100000 100000 100000
        </DataArray>
        <DataArray type="Float32" Name="pw" NumberOfComponents="1" format="ascii">
          101162 101162 100146 100146 101162 100146 101162 100146 101162 100146 101162 100146
          101162 100146 99468.6 99468.6 99468.6 99468.6 99468.6 99468.6 99468.6 99017.1 99017.1 99017.1
          99017.1 99017.1 99017.1 99017.1 98716 98716 98716 98716 98716 98716 98716
        </DataArray>
        <DataArray type="Float32" Name="pc" NumberOfComponents="1" format="ascii">
          17.4504 17.4502 63.3104 63.3094 17.4504 63.3069 17.4501 63.3039 17.4496 63.302 17.4498 63.3002
          17.4502 63.3001 532.263 532.263 532.262 532.262 532.261 532.261 532.26 983.283 983.283 983.282
          983.282 983.282 983.281 983.281 1284.03 1284.03 1284.03 1284.03 1284.03 1284.03 1284.03
        </DataArray>
        <DataArray type="Float32" Name="rhoW" NumberOfComponents="1" format="ascii">
          997.056 997.056 997.076 997.076 997.056 997.076 997.056 997.076 997.056 997.076 997.056 997.076
          997.056 997.076 997.18 997.18 997.18 997.18 997.18 997.181 997.181 997.402 997.403 997.403
          997.404 997.405 997.405 997.406 997.636 997.638 997.64 997.641 997.643 997.644 997.645
        </DataArray>
        <DataArray type="Float32" Name="rhoN" NumberOfComponents="1" format="ascii">
          1.16805 1.16805 1.15708 1.15708 1.16805 1.15708 1.16805 1.15708 1.16805 1.15708 1.16805 1.15708
          1.16805 1.15708 1.15658 1.15659 1.15659 1.15659 1.1566 1.1566 1.1566 1.1608 1.16081 1.16082
          1.16084 1.16085 1.16086 1.16087 1.1654 1.16544 1.16547 1.16551 1.16553 1.16556 1.16557
        </DataArray>
        <DataArray type="Float32" Name="mobW" NumberOfComponents="1" format="ascii">
          1123.57 1123.57 1121.57 1121.57 1123.57 1121.57 1123.57 1121.57 1123.57 1121.57 1123.57 1121.57
          1123.57 1121.57 1110.04 1110.03 1110.01 1109.99 1109.98 1109.96 1109.96 1060.65 1060.61 1060.53
          1060.45 1060.39 1060.33 1060.31 614.331 614.224 614.115 614.017 613.932 613.86 613.807
        </DataArray>
        <DataArray type="Float32" Name="mobN" NumberOfComponents="1" format="ascii">
          0.000310595 0.000310588 0.00469601 0.00469586 0.000310595 0.00469546 0.000310583 0.00469499 0.000310565 0.0046947 0.000310574 0.00469441
          0.000310588 0.00469439 0.604502 0.604501 0.6045 0.604499 0.604499 0.604498 0.604496 20.96 20.9598 20.9598
          20.9598 20.9598 20.9598 20.9596 1291.21 1291.22 1291.24 1291.25 1291.27 1291.28 1291.28
        </DataArray>
        <DataArray type="Float32" Name="X_liquid^H2O" NumberOfComponents="1" format="ascii">
          0.999978 0.999978 0.999978 0.999978 0.999978 0.999978 0.999978 0.999978 0.999978 0.999978 0.999978 0.999978
          0.999978 0.999978 0.999978 0.999978 0.999978 0.999978 0.999978 0.999978 0.999978 0.999978 0.999978 0.999978
          0.999978 0.999978 0.999978 0.999978 0.999978 0.999978 0.999978 0.999978 0.999978 0.999978 0.999978
        </DataArray>
        <DataArray type="Float32" Name="X_liquid^Air" NumberOfComponents="1" format="ascii">
          2.18092e-05 2.18092e-05 2.16227e-05 2.16227e-05 2.18092e-05 2.16227e-05 2.18092e-05 2.16228e-05 2.18092e-05 2.16228e-05 2.18092e-05 2.16228e-05
          2.18092e-05 2.16228e-05 2.17332e-05 2.17334e-05 2.17336e-05 2.17339e-05 2.17342e-05 2.17344e-05 2.17344e-05 2.20846e-05 2.20853e-05 2.20866e-05
          2.20878e-05 2.20889e-05 2.20898e-05 2.20902e-05 2.24826e-05 2.24857e-05 2.24888e-05 2.24916e-05 2.2494e-05 2.24961e-05 2.24976e-05
        </DataArray>
        <DataArray type="Float32" Name="X_gas^H2O" NumberOfComponents="1" format="ascii">
          0.0197215 0.0197215 0.0198218 0.0198218 0.0197215 0.0198217 0.0197215 0.0198216 0.0197215 0.0198216 0.0197215 0.0198215
          0.0197215 0.0198215 0.0193753 0.019375 0.0193742 0.0193733 0.0193725 0.0193719 0.0193717 0.018345 0.0183429 0.0183393
          0.0183359 0.0183329 0.0183304 0.0183293 0.0172743 0.0172664 0.0172584 0.0172512 0.017245 0.0172397 0.0172358
        </DataArray>
        <DataArray type="Float32" Name="X_gas^Air" NumberOfComponents="1" format="ascii">
          0.980278 0.980278 0.980178 0.980178 0.980278 0.980178 0.980278 0.980178 0.980278 0.980178 0.980278 0.980179
          0.980278 0.980179 0.980625 0.980625 0.980626 0.980627 0.980628 0.980628 0.980628 0.981655 0.981657 0.981661
          0.981664 0.981667 0.98167 0.981671 0.982726 0.982734 0.982742 0.982749 0.982755 0.98276 0.982764
        </DataArray>
        <DataArray type="Float32" Name="x_liquid^H2O" NumberOfComponents="1" format="ascii">
          0.999986 0.999986 0.999987 0.999987 0.999986 0.999987 0.999986 0.999987 0.999986 0.999987 0.999986 0.999987
          0.999986 0.999987 0.999986 0.999986 0.999986 0.999986 0.999986 0.999986 0.999986 0.999986 0.999986 0.999986
          0.999986 0.999986 0.999986 0.999986 0.999986 0.999986 0.999986 0.999986 0.999986 0.999986 0.999986
        </DataArray>
        <DataArray type="Float32" Name="x_liquid^Air" NumberOfComponents="1" format="ascii">
          1.3567e-05 1.3567e-05 1.3451e-05 1.3451e-05 1.3567e-05 1.3451e-05 1.3567e-05 1.3451e-05 1.3567e-05 1.3451e-05 1.3567e-05 1.3451e-05
          1.3567e-05 1.3451e-05 1.35197e-05 1.35198e-05 1.352e-05 1.35202e-05 1.35203e-05 1.35204e-05 1.35205e-05 1.37383e-05 1.37388e-05 1.37396e-05
          1.37403e-05 1.3741e-05 1.37415e-05 1.37418e-05 1.39859e-05 1.39878e-05 1.39898e-05 1.39915e-05 1.3993e-05 1.39943e-05 1.39952e-05
        </DataArray>
        <DataArray type="Float32" Name="x_gas^H2O" NumberOfComponents="1" format="ascii">
          0.0313277 0.0313277 0.0314851 0.0314851 0.0313277 0.031485 0.0313277 0.0314848 0.0313277 0.0314847 0.0313277 0.0314846
          0.0313277 0.0314845 0.0307841 0.0307836 0.0307823 0.0307809 0.0307796 0.0307787 0.0307784 0.0291651 0.0291619 0.0291562
          0.0291508 0.0291461 0.0291422 0.0291404 0.0274806 0.0274681 0.0274555 0.0274443 0.0274345 0.0274262 0.02742
        </DataArray>
        <DataArray type="Float32" Name="x_gas^Air" NumberOfComponents="1" format="ascii">
          0.968672 0.968672 0.968515 0.968515 0.968672 0.968515 0.968672 0.968515 0.968672 0.968515 0.968672 0.968515
          0.968672 0.968515 0.969216 0.969216 0.969218 0.969219 0.96922 0.969221 0.969222 0.970835 0.970838 0.970844
          0.970849 0.970854 0.970858 0.97086 0.972519 0.972532 0.972544 0.972556 0.972565 0.972574 0.97258
        </DataArray>
        <DataArray type="Float32" Name="porosity" NumberOfComponents="1" format="ascii">
          0.41 0.41 0.41 0.41 0.41 0.41 0.41 0.41 0.41 0.41 0.41 0.41
          0.41 0.41 0.41 0.41 0.41 0.41 0.41 0.41 0.41 0.41 0.41 0.41
          0.41 0.41 0.41 0.41 0.41 0.41 0.41 0.41 0.41 0.41 0.41
        </DataArray>
        <DataArray type="Float32" Name="temperature" NumberOfComponents="1" format="ascii">
          298.15 298.15 298.073 298.073 298.15 298.072 298.15 298.072 298.15 298.072 298.15 298.072
          298.15 298.072 297.661 297.661 297.66 297.659 297.658 297.658 297.658 296.761 296.759 296.756
          296.753 296.75 296.748 296.747 295.777 295.77 295.762 295.755 295.749 295.744 295.741
        </DataArray>
        <DataArray type="Float32" Name="phase presence" NumberOfComponents="1" format="ascii">
          3 3 3 3 3 3 3 3 3 3 3 3
          3 3 3 3 3 3 3 3 3 3 3 3
          3 3 3 3 3 3 3 3 3 3 3
        </DataArray>
        <DataArray type="Float32" Name="velocityW" NumberOfComponents="3" format="ascii">
          -9.52895e-11 -4.2682e-10 0 -1.75884e-10 -4.63418e-10 0 -1.59546e-10 -1.93732e-09 0 -2.80476e-10 -2.04773e-09 0
          -2.99166e-10 -5.57926e-10 0 -4.48873e-10 -2.2887e-09 0 -3.37992e-10 -6.7392e-10 0 -4.80665e-10 -2.53586e-09 0
          -2.8701e-10 -7.81688e-10 0 -4.00348e-10 -2.74659e-09 0 -1.63432e-10 -8.54854e-10 0 -2.30074e-10 -2.90362e-09 0
          -8.69736e-11 -8.81083e-10 0 -1.24442e-10 -2.9668e-09 0 -2.65472e-10 -2.42838e-09 0 -3.72312e-10 -2.81844e-09 0
          -4.7878e-10 -3.36163e-09 0 -4.46486e-10 -3.79044e-09 0 -3.66762e-10 -4.13131e-09 0 -2.321e-10 -4.43101e-09 0
          -1.4524e-10 -4.60793e-09 0 2.29999e-11 1.19987e-08 0 1.9256e-10 1.12298e-08 0 4.33368e-10 1.06098e-08 0
          4.9402e-10 1.01991e-08 0 4.20971e-10 9.87482e-09 0 2.3794e-10 9.5648e-09 0 1.17363e-10 9.28718e-09 0
          7.40585e-10 2.54064e-08 0 9.07546e-10 2.44644e-08 0 1.10291e-09 2.39233e-08 0 1.07343e-09 2.35813e-08 0
          9.14504e-10 2.33008e-08 0 6.5586e-10 2.30392e-08 0 4.98259e-10 2.27377e-08 0
        </DataArray>
        <DataArray type="Float32" Name="velocityN" NumberOfComponents="3" format="ascii">
          7.47293e-16 7.67783e-10 0 8.27099e-16 7.67766e-10 0 2.40357e-14 2.2485e-09 0 3.98052e-14 2.24843e-09 0
          1.36185e-15 7.67784e-10 0 6.14372e-14 2.24826e-09 0 1.68826e-15 7.67758e-10 0 5.56634e-14 2.24804e-09 0
          1.02235e-15 7.67715e-10 0 4.23153e-14 2.24789e-09 0 -1.5573e-17 7.67739e-10 0 2.15032e-14 2.24777e-09 0
          -5.16112e-16 7.67772e-10 0 2.40304e-15 2.24779e-09 0 2.31049e-12 1.74671e-09 0 2.38907e-12 1.74891e-09 0
          2.52265e-12 1.74689e-09 0 2.34946e-12 1.74485e-09 0 2.11757e-12 1.74218e-09 0 2.11728e-12 1.74066e-09 0
          2.1207e-12 1.74287e-09 0 8.11444e-11 -1.49012e-08 0 6.39718e-11 -1.48087e-08 0 4.58699e-11 -1.48311e-08 0
          4.50539e-11 -1.48402e-08 0 4.57902e-11 -1.48496e-08 0 6.81626e-11 -1.48746e-08 0 8.9912e-11 -1.47694e-08 0
          5.26284e-09 -2.95666e-08 0 4.04522e-09 -2.93861e-08 0 2.80492e-09 -2.94273e-08 0 2.77675e-09 -2.94417e-08 0
          2.78398e-09 -2.94555e-08 0 4.29538e-09 -2.95028e-08 0 5.79404e-09 -2.92968e-08 0
        </DataArray>
      </PointData>
      <CellData Scalars="process rank">
        <DataArray type="Float32" Name="process rank" NumberOfComponents="1" format="ascii">
          0 0 0 0 0 0 0 0 0 0 0 0
          0 0 0 0 0 0 0 0 0 0 0 0
        </DataArray>
      </CellData>
      <Points>
        <DataArray type="Float32" Name="Coordinates" NumberOfComponents="3" format="ascii">
          0 0 0 0.0416667 0 0 0 0.103846 0 0.0416667 0.103846 0
          0.0833333 0 0 0.0833333 0.103846 0 0.125 0 0 0.125 0.103846 0
          0.166667 0 0 0.166667 0.103846 0 0.208333 0 0 0.208333 0.103846 0
          0.25 0 0 0.25 0.103846 0 0 0.173077 0 0.0416667 0.173077 0
          0.0833333 0.173077 0 0.125 0.173077 0 0.166667 0.173077 0 0.208333 0.173077 0
          0.25 0.173077 0 0 0.219231 0 0.0416667 0.219231 0 0.0833333 0.219231 0
          0.125 0.219231 0 0.166667 0.219231 0 0.208333 0.219231 0 0.25 0.219231 0
          0 0.25 0 0.0416667 0.25 0 0.0833333 0.25 0 0.125 0.25 0
          0.166667 0.25 0 0.208333 0.25 0 0.25 0.25 0
        </DataArray>
      </Points>
      <Cells>
        <DataArray type="Int32" Name="connectivity" NumberOfComponents="1" format="ascii">
          0 1 3 2 1 4 5 3 4 6 7 5
          6 8 9 7 8 10 11 9 10 12 13 11
          2 3 15 14 3 5 16 15 5 7 17 16
          7 9 18 17 9 11 19 18 11 13 20 19
          14 15 22 21 15 16 23 22 16 17 24 23
          17 18 25 24 18 19 26 25 19 20 27 26
          21 22 29 28 22 23 30 29 23 24 31 30
          24 25 32 31 25 26 33 32 26 27 34 33
        </DataArray>
        <DataArray type="Int32" Name="offsets" NumberOfComponents="1" format="ascii">
          4 8 12 16 20 24 28 32 36 40 44 48
          52 56 60 64 68 72 76 80 84 88 92 96
        </DataArray>
        <DataArray type="UInt8" Name="types" NumberOfComponents="1" format="ascii">
          9 9 9 9 9 9 9 9 9 9 9 9
          9 9 9 9 9 9 9 9 9 9 9 9
        </DataArray>
      </Cells>
    </Piece>
  </UnstructuredGrid>
</VTKFile>
