<?xml version="1.0"?>
<VTKFile type="UnstructuredGrid" version="0.1" byte_order="LittleEndian">
  <UnstructuredGrid>
    <Piece NumberOfCells="56" NumberOfPoints="72">
      <PointData Scalars="P" Vectors="v">
        <DataArray type="Float32" Name="P" NumberOfComponents="1" format="ascii">
          100017 99990 100017 99989.8 100012 100013 99994 99992.8 100009 100009 99996.7 99996.4
          100005 100005 100000 100000 100020 99988.6 100013 99993.2 100009 99996.5 100005 100000
          100019 99988.5 100014 99992.2 100010 99996.1 100006 100000 100019 99988.2 100014 99992.4
          100010 99996.2 100006 100000 100019 99988.5 100014 99992.2 100010 99996.1 100006 100000
          100020 99988.7 100014 99992.5 100010 99996.2 100005 100000 100017 99989.9 100013 99992.7
          100009 99996.3 100005 100000 100017 99989.9 100013 99992.7 100009 99996.2 100005 100000
        </DataArray>
        <DataArray type="Float32" Name="delP" NumberOfComponents="1" format="ascii">
          17.0498 -10.038 16.8557 -10.2321 11.8359 13.4283 -5.97999 -7.20218 8.97705 9.37851 -3.32827 -3.63821
          5.30205 5.34104 0 0 19.9339 -11.3523 13.1149 -6.74634 9.30232 -3.45925 5.4057 0
          19.0006 -11.5422 14.4275 -7.80597 9.86674 -3.9111 5.70714 0 18.7402 -11.7977 14.142 -7.61254
          9.83522 -3.81136 5.73199 0 19.0707 -11.4859 14.3746 -7.78207 9.84968 -3.94845 5.65076 0
          19.7466 -11.2909 13.9264 -7.49274 9.54462 -3.78393 5.35394 0 16.8574 -10.0747 13.3799 -7.31808
          9.39927 -3.74268 5.1767 0 16.8223 -10.1098 13.371 -7.33018 9.3975 -3.74664 5.2037 0
        </DataArray>
        <DataArray type="Float32" Name="x_gas^H2O" NumberOfComponents="1" format="ascii">
          0.0127981 0.010271 0.0127981 0.0127007 0.0145718 0.0127237 0.0171525 0.0128069 0.017348 0.0128575 0.0176096 0.0129121
          0.0144198 0.0129177 0.0101428 0.0118228 0.0127981 0.0127923 0.0127909 0.0127917 0.0127939 0.0127975 0.01279 0.0120669
          0.0127981 0.0127978 0.0127976 0.0127974 0.0127973 0.012797 0.0127807 0.0120887 0.0127981 0.012798 0.012798 0.0127979
          0.0127977 0.0127969 0.012774 0.0120802 0.0127981 0.0127976 0.0127968 0.0127955 0.0127942 0.0127924 0.0127747 0.0120812
          0.0127981 0.0127891 0.0127791 0.0127655 0.012755 0.0127452 0.0127275 0.0119783 0.0127981 0.0126676 0.0125698 0.012476
          0.0124262 0.0123948 0.0123663 0.0113238 0.0127981 0.00998267 0.00901208 0.00849686 0.00854683 0.00910109 0.00743135 0.00581404
        </DataArray>
        <DataArray type="Float32" Name="X_gas^H2O" NumberOfComponents="1" format="ascii">
          0.008 0.0064142 0.008 0.00793882 0.00911489 0.00795327 0.0107397 0.00800553 0.0108629 0.00803731 0.0110278 0.00807166
          0.00901927 0.00807516 0.00633385 0.00738762 0.008 0.00799637 0.0079955 0.00799599 0.00799738 0.00799962 0.00799496 0.00754088
          0.008 0.00799985 0.00799973 0.0079996 0.00799954 0.0079993 0.00798911 0.00755453 0.008 0.00799998 0.00799995 0.00799989
          0.0079998 0.00799929 0.00798487 0.00754921 0.008 0.00799971 0.00799922 0.00799842 0.00799759 0.00799643 0.00798534 0.00754982
          0.008 0.00799434 0.00798806 0.00797956 0.00797295 0.0079668 0.00795566 0.00748522 0.008 0.00791805 0.00785664 0.00779773
          0.00776645 0.00774673 0.00772881 0.00707446 0.008 0.00623345 0.00562532 0.00530268 0.00533397 0.00568107 0.00463585 0.00362471
        </DataArray>
        <DataArray type="Float32" Name="x_gas^Air" NumberOfComponents="1" format="ascii">
          0.987202 0.989729 0.987202 0.987299 0.985428 0.987276 0.982848 0.987193 0.982652 0.987143 0.98239 0.987088
          0.98558 0.987082 0.989857 0.988177 0.987202 0.987208 0.987209 0.987208 0.987206 0.987203 0.98721 0.987933
          0.987202 0.987202 0.987202 0.987203 0.987203 0.987203 0.987219 0.987911 0.987202 0.987202 0.987202 0.987202
          0.987202 0.987203 0.987226 0.98792 0.987202 0.987202 0.987203 0.987204 0.987206 0.987208 0.987225 0.987919
          0.987202 0.987211 0.987221 0.987234 0.987245 0.987255 0.987273 0.988022 0.987202 0.987332 0.98743 0.987524
          0.987574 0.987605 0.987634 0.988676 0.987202 0.990017 0.990988 0.991503 0.991453 0.990899 0.992569 0.994186
        </DataArray>
        <DataArray type="Float32" Name="X_gas^Air" NumberOfComponents="1" format="ascii">
          0.992 0.993586 0.992 0.992061 0.990885 0.992047 0.98926 0.991994 0.989137 0.991963 0.988972 0.991928
          0.990981 0.991925 0.993666 0.992612 0.992 0.992004 0.992005 0.992004 0.992003 0.992 0.992005 0.992459
          0.992 0.992 0.992 0.992 0.992 0.992001 0.992011 0.992445 0.992 0.992 0.992 0.992
          0.992 0.992001 0.992015 0.992451 0.992 0.992 0.992001 0.992002 0.992002 0.992004 0.992015 0.99245
          0.992 0.992006 0.992012 0.99202 0.992027 0.992033 0.992044 0.992515 0.992 0.992082 0.992143 0.992202
          0.992234 0.992253 0.992271 0.992926 0.992 0.993767 0.994375 0.994697 0.994666 0.994319 0.995364 0.996375
        </DataArray>
        <DataArray type="Float32" Name="rho" NumberOfComponents="1" format="ascii">
          1.16279 1.16358 1.16278 1.16252 1.18836 1.16282 1.20052 1.16286 1.19987 1.16309 1.19864 1.16299
          1.16193 1.1631 1.19281 1.17167 1.16282 1.16246 1.16274 1.16252 1.16271 1.16256 1.16267 1.16838
          1.16281 1.16245 1.16276 1.1625 1.1627 1.16254 1.16266 1.16813 1.16281 1.16245 1.16275 1.1625
          1.1627 1.16254 1.16267 1.16815 1.16281 1.16245 1.16276 1.1625 1.1627 1.16254 1.16267 1.16814
          1.16282 1.16246 1.16276 1.16251 1.16272 1.16257 1.16268 1.1686 1.16278 1.16253 1.16284 1.16264
          1.16286 1.16272 1.16284 1.1713 1.16278 1.16371 1.16441 1.1644 1.16457 1.16417 1.16501 1.1932
        </DataArray>
        <DataArray type="Float32" Name="mu" NumberOfComponents="1" format="ascii">
          1.81222e-05 1.81452e-05 1.81222e-05 1.81231e-05 1.77912e-05 1.81224e-05 1.76108e-05 1.81178e-05 1.76176e-05 1.81166e-05 1.76263e-05 1.81151e-05
          1.81075e-05 1.81151e-05 1.78008e-05 1.80267e-05 1.81222e-05 1.81223e-05 1.81223e-05 1.81222e-05 1.81222e-05 1.81221e-05 1.81221e-05 1.80628e-05
          1.81222e-05 1.81222e-05 1.81222e-05 1.81222e-05 1.81222e-05 1.81222e-05 1.81224e-05 1.80654e-05 1.81222e-05 1.81222e-05 1.81222e-05 1.81222e-05
          1.81222e-05 1.81222e-05 1.81224e-05 1.80653e-05 1.81222e-05 1.81222e-05 1.81222e-05 1.81223e-05 1.81223e-05 1.81223e-05 1.81224e-05 1.80654e-05
          1.81222e-05 1.81223e-05 1.81224e-05 1.81225e-05 1.81226e-05 1.81227e-05 1.81229e-05 1.80614e-05 1.81222e-05 1.81234e-05 1.81243e-05 1.81252e-05
          1.81257e-05 1.8126e-05 1.81262e-05 1.80383e-05 1.81222e-05 1.81478e-05 1.81567e-05 1.81613e-05 1.81609e-05 1.81558e-05 1.8171e-05 1.78579e-05
        </DataArray>
        <DataArray type="Float32" Name="D" NumberOfComponents="1" format="ascii">
          2.49325e-05 2.49393e-05 2.49326e-05 2.49391e-05 2.39451e-05 2.49319e-05 2.34655e-05 2.49246e-05 2.34881e-05 2.49182e-05 2.35249e-05 2.49184e-05
          2.49354e-05 2.49161e-05 2.38544e-05 2.46062e-05 2.49318e-05 2.49396e-05 2.49335e-05 2.49382e-05 2.49341e-05 2.49372e-05 2.49349e-05 2.47271e-05
          2.4932e-05 2.49396e-05 2.49332e-05 2.49387e-05 2.49343e-05 2.49377e-05 2.49352e-05 2.4736e-05 2.49321e-05 2.49397e-05 2.49332e-05 2.49386e-05
          2.49343e-05 2.49377e-05 2.49352e-05 2.47354e-05 2.4932e-05 2.49396e-05 2.49332e-05 2.49387e-05 2.49343e-05 2.49377e-05 2.49352e-05 2.47358e-05
          2.49318e-05 2.49396e-05 2.49333e-05 2.49386e-05 2.49344e-05 2.49377e-05 2.49354e-05 2.47201e-05 2.49326e-05 2.49393e-05 2.49335e-05 2.49387e-05
          2.49346e-05 2.49379e-05 2.49355e-05 2.46286e-05 2.49326e-05 2.49393e-05 2.49334e-05 2.49386e-05 2.49344e-05 2.49377e-05 2.49355e-05 2.39104e-05
        </DataArray>
        <DataArray type="Float32" Name="lambda" NumberOfComponents="1" format="ascii">
          0 0 0 0 0 0 0 0 0 0 0 0
          0 0 0 0 0 0 0 0 0 0 0 0
          0 0 0 0 0 0 0 0 0 0 0 0
          0 0 0 0 0 0 0 0 0 0 0 0
          0 0 0 0 0 0 0 0 0 0 0 0
          0 0 0 0 0 0 0 0 0 0 0 0
        </DataArray>
        <DataArray type="Float32" Name="temperature" NumberOfComponents="1" format="ascii">
          298.15 298.15 298.15 298.149 291.523 298.14 288.236 298.057 288.414 298.042 288.645 298.022
          298.15 298.022 290.889 295.948 298.15 298.15 298.15 298.148 298.148 298.147 298.147 296.755
          298.15 298.15 298.15 298.15 298.15 298.15 298.149 296.814 298.15 298.15 298.15 298.15
          298.15 298.15 298.149 296.81 298.15 298.15 298.15 298.15 298.15 298.15 298.149 296.812
          298.15 298.15 298.15 298.15 298.15 298.15 298.15 296.708 298.15 298.15 298.15 298.151
          298.151 298.151 298.15 296.098 298.15 298.15 298.15 298.15 298.15 298.15 298.15 291.269
        </DataArray>
        <DataArray type="Float32" Name="v" NumberOfComponents="3" format="ascii">
          0 0 0 0 0 0 3.5 0 0 3.71211 0.135142 0
          -0.011369 -0.0047697 0 3.15778 -0.103142 0 0.461371 0.00779766 0 3.54617 0.03411 0
          -0.0491625 -0.00621414 0 3.00969 -0.0103748 0 0.483794 0.00387469 0 3.46618 0.00629053 0
          0 0 0 2.94981 -0.0349714 0 1.42369 -0.0155638 0 3.40027 -0.0513563 0
          3.5 0 0 4.14607 0.118157 0 3.65538 0.0130848 0 4.05142 0.0621614 0
          3.6458 0.0109105 0 4.03683 0.0274991 0 3.61722 -0.0206537 0 3.98523 -0.0303443 0
          3.5 0 0 4.04141 0.0482292 0 3.61297 -0.0288585 0 4.10069 0.0298188 0
          3.68652 -0.00134629 0 4.12901 0.0186192 0 3.71513 -0.00674629 0 4.10591 -0.0112905 0
          3.5 0 0 4.01785 -0.00526754 0 3.57563 -0.00309605 0 4.04824 -0.00493242 0
          3.64306 -0.00381112 0 4.08342 -2.82932e-05 0 3.67487 0.00483791 0 4.07279 0.00525226 0
          3.5 0 0 4.04233 -0.0644014 0 3.62509 -0.0524277 0 4.11139 -0.0551516 0
          3.70082 -0.029353 0 4.14314 -0.0210863 0 3.72575 0.0144313 0 4.10939 0.0196303 0
          3.5 0 0 4.07343 -0.133912 0 3.63522 -0.0369417 0 4.06246 -0.0694291 0
          3.61396 -0.019727 0 4.02471 -0.0248105 0 3.57506 0.0413284 0 3.93694 0.0524417 0
          3.5 0 0 3.66579 -0.12837 0 3.11104 -0.0330065 0 3.48179 -0.0415243 0
          2.91181 -0.0100369 0 3.39582 -0.00825635 0 2.86541 0.0614943 0 3.33475 0.0763348 0
          0 0 0 0 0 0 0 0 0 0 0 0
          0 0 0 0 0 0 0 0 0 1.44871 0.0093418 0
        </DataArray>
      </PointData>
      <CellData Scalars="mu_t">
        <DataArray type="Float32" Name="mu_t" NumberOfComponents="1" format="ascii">
          0.00169302 0.00160181 0.00142204 0.00139431 0.00135939 0.0012978 0.000984588 0.00131447 0.00281519 0.00301624 0.00343073 0.00362212
          0.00370055 0.00368177 0.000929424 0.00130598 0.000231913 0.000798964 0.00117984 0.00168717 0.00194281 0.000438613 0.00113383 0.00167172
          0.00178559 0.00165799 0.00159832 0.00136931 0.000455874 0.00137676 0.00209655 0.00225101 0.00218742 0.00205918 0.00163242 0.000276164
          0.000366063 0.000344441 0.00120536 0.0018224 0.00238891 0.00287139 0.00123413 0.00280818 0.0033235 0.00384793 0.00398899 0.00400838
          0.00383932 0.00167733 0.00154694 0.00148734 0.0014211 0.00139443 0.0013787 0.000932022
        </DataArray>
        <DataArray type="Float32" Name="nu_t" NumberOfComponents="1" format="ascii">
          0.00145594 0.00137224 0.00121132 0.00118556 0.00115616 0.00111006 0.000841093 0.00113061 0.0024214 0.00259412 0.00295047 0.00311496
          0.00318243 0.00315678 0.000799427 0.00112333 0.000199474 0.00068722 0.00101481 0.0014512 0.00166694 0.000377266 0.000975248 0.00143788
          0.00153586 0.00142608 0.00137477 0.001175 0.000392113 0.00118419 0.00180329 0.00193619 0.00188145 0.00177118 0.00140079 0.000237538
          0.000314866 0.000296266 0.00103677 0.00156748 0.00205477 0.00246358 0.0010615 0.00241534 0.00285848 0.00330955 0.00343078 0.0034475
          0.00329209 0.00144241 0.00132994 0.00127852 0.00122155 0.00119864 0.00118505 0.000795913
        </DataArray>
        <DataArray type="Float32" Name="l_mix" NumberOfComponents="1" format="ascii">
          0.00222153 0.00220667 0.0021725 0.00216817 0.00215849 0.00213259 0.00202781 0.0108209 0.0108091 0.0107808 0.0107771 0.0107685
          0.0107446 0.0106318 0.0228579 0.022857 0.0228548 0.0228544 0.0228537 0.0228515 0.0228382 0.0406057 0.0406057 0.0406057
          0.0406057 0.0406057 0.0406057 0.0406055 0.0406057 0.0406057 0.0406057 0.0406057 0.0406057 0.0406057 0.0406054 0.0228577
          0.0228558 0.0228548 0.0228534 0.022853 0.0228525 0.0228346 0.0108183 0.0107933 0.0107817 0.010766 0.0107605 0.0107561
          0.0106065 0.00221809 0.00218752 0.00217364 0.00215609 0.00214982 0.00214519 0.00200708
        </DataArray>
        <DataArray type="Float32" Name="u^+" NumberOfComponents="1" format="ascii">
          29.8219 29.3411 32.5977 32.1802 32.1693 31.9343 39.4905 61.435 62.7691 65.6576 65.8254 65.9055
          65.113 70.701 62.7942 66.1302 70.2582 71.5124 72.1411 71.7208 78.1446 62.265 65.2413 69.8809
          71.4851 72.3454 72.2031 78.8819 62.472 65.131 66.4062 68.1326 68.8272 69.373 80.329 62.7022
          65.6227 66.7261 68.0662 68.4396 68.6681 79.1124 61.1424 61.8178 61.7825 61.8261 61.6457 61.5267
          70.6964 29.7269 28.9186 28.5029 28.092 27.8794 27.7905 39.5424
        </DataArray>
        <DataArray type="Float32" Name="y^+" NumberOfComponents="1" format="ascii">
          29.8313 29.4166 28.4871 28.3721 28.117 27.4475 24.9315 104.409 102.958 99.7048 99.3025 98.4095
          96.0664 87.2601 216.277 213.27 206.531 205.698 203.848 198.995 180.753 384.078 378.738 366.771
          365.291 362.006 353.387 320.993 382.828 372.004 367.194 361.236 359.138 357.59 314.949 215.573
          209.478 206.769 203.414 202.233 201.362 177.35 104.07 101.127 99.8196 98.2001 97.6298 97.209
          85.6171 29.7342 28.8935 28.5199 28.0572 27.8942 27.774 24.462
        </DataArray>
        <DataArray type="Float32" Name="D_t" NumberOfComponents="1" format="ascii">
          0.000239478 0.000227765 0.000234371 0.000228447 0.000226364 0.000225627 0.000247957 0.00154011 0.00152354 0.00149696 0.00148141 0.00147199
          0.001463 0.00145092 0.00325497 0.00331215 0.00330585 0.00332025 0.00332355 0.00332403 0.00330826 0.00573282 0.00580416 0.00583793
          0.00589153 0.00591579 0.00593883 0.00592615 0.00573316 0.00580896 0.00584634 0.00590074 0.00592626 0.00594795 0.00593134 0.00324021
          0.00329593 0.00330905 0.00332154 0.00332083 0.00331836 0.00329276 0.00152766 0.0015043 0.00148508 0.00146325 0.00145071 0.00144193
          0.00142638 0.00023793 0.00022493 0.000218778 0.000212115 0.000209239 0.000207687 0.000243612
        </DataArray>
        <DataArray type="Float32" Name="lambda_t" NumberOfComponents="1" format="ascii">
          0.00681122 0.00665951 0.00762656 0.0077406 0.00773197 0.00739312 0.00710888 0.045499 0.0449439 0.0442461 0.0438929 0.0437012
          0.0434762 0.041766 0.0963274 0.0980035 0.0978173 0.0982463 0.0983552 0.0983294 0.0953999 0.169674 0.17178 0.172781
          0.174362 0.175078 0.175624 0.170873 0.169683 0.171919 0.173021 0.174618 0.175364 0.17586 0.17098 0.0958846
          0.0974956 0.0978399 0.09816 0.0980988 0.0979391 0.0946657 0.0451016 0.0442182 0.0434852 0.0427174 0.0422735 0.0419492
          0.0401497 0.00673257 0.00596661 0.00563403 0.00539993 0.00537017 0.0052237 0.0055765
        </DataArray>
      </CellData>
      <Points>
        <DataArray type="Float32" Name="Coordinates" NumberOfComponents="3" format="ascii">
          0 0.25 0 0.05 0.25 0 0 0.265385 0 0.05 0.265385 0
          0.1 0.25 0 0.1 0.265385 0 0.15 0.25 0 0.15 0.265385 0
          0.2 0.25 0 0.2 0.265385 0 0.25 0.25 0 0.25 0.265385 0
          0.3 0.25 0 0.3 0.265385 0 0.35 0.25 0 0.35 0.265385 0
          0 0.288462 0 0.05 0.288462 0 0.1 0.288462 0 0.15 0.288462 0
          0.2 0.288462 0 0.25 0.288462 0 0.3 0.288462 0 0.35 0.288462 0
          0 0.323077 0 0.05 0.323077 0 0.1 0.323077 0 0.15 0.323077 0
          0.2 0.323077 0 0.25 0.323077 0 0.3 0.323077 0 0.35 0.323077 0
          0 0.375 0 0.05 0.375 0 0.1 0.375 0 0.15 0.375 0
          0.2 0.375 0 0.25 0.375 0 0.3 0.375 0 0.35 0.375 0
          0 0.426923 0 0.05 0.426923 0 0.1 0.426923 0 0.15 0.426923 0
          0.2 0.426923 0 0.25 0.426923 0 0.3 0.426923 0 0.35 0.426923 0
          0 0.461538 0 0.05 0.461538 0 0.1 0.461538 0 0.15 0.461538 0
          0.2 0.461538 0 0.25 0.461538 0 0.3 0.461538 0 0.35 0.461538 0
          0 0.484615 0 0.05 0.484615 0 0.1 0.484615 0 0.15 0.484615 0
          0.2 0.484615 0 0.25 0.484615 0 0.3 0.484615 0 0.35 0.484615 0
          0 0.5 0 0.05 0.5 0 0.1 0.5 0 0.15 0.5 0
          0.2 0.5 0 0.25 0.5 0 0.3 0.5 0 0.35 0.5 0
        </DataArray>
      </Points>
      <Cells>
        <DataArray type="Int32" Name="connectivity" NumberOfComponents="1" format="ascii">
          0 1 3 2 1 4 5 3 4 6 7 5
          6 8 9 7 8 10 11 9 10 12 13 11
          12 14 15 13 2 3 17 16 3 5 18 17
          5 7 19 18 7 9 20 19 9 11 21 20
          11 13 22 21 13 15 23 22 16 17 25 24
          17 18 26 25 18 19 27 26 19 20 28 27
          20 21 29 28 21 22 30 29 22 23 31 30
          24 25 33 32 25 26 34 33 26 27 35 34
          27 28 36 35 28 29 37 36 29 30 38 37
          30 31 39 38 32 33 41 40 33 34 42 41
          34 35 43 42 35 36 44 43 36 37 45 44
          37 38 46 45 38 39 47 46 40 41 49 48
          41 42 50 49 42 43 51 50 43 44 52 51
          44 45 53 52 45 46 54 53 46 47 55 54
          48 49 57 56 49 50 58 57 50 51 59 58
          51 52 60 59 52 53 61 60 53 54 62 61
          54 55 63 62 56 57 65 64 57 58 66 65
          58 59 67 66 59 60 68 67 60 61 69 68
          61 62 70 69 62 63 71 70
        </DataArray>
        <DataArray type="Int32" Name="offsets" NumberOfComponents="1" format="ascii">
          4 8 12 16 20 24 28 32 36 40 44 48
          52 56 60 64 68 72 76 80 84 88 92 96
          100 104 108 112 116 120 124 128 132 136 140 144
          148 152 156 160 164 168 172 176 180 184 188 192
          196 200 204 208 212 216 220 224
        </DataArray>
        <DataArray type="UInt8" Name="types" NumberOfComponents="1" format="ascii">
          9 9 9 9 9 9 9 9 9 9 9 9
          9 9 9 9 9 9 9 9 9 9 9 9
          9 9 9 9 9 9 9 9 9 9 9 9
          9 9 9 9 9 9 9 9 9 9 9 9
          9 9 9 9 9 9 9 9
        </DataArray>
      </Cells>
    </Piece>
  </UnstructuredGrid>
</VTKFile>
