<?xml version="1.0"?>
<VTKFile type="UnstructuredGrid" version="0.1" byte_order="LittleEndian">
  <UnstructuredGrid>
    <Piece NumberOfCells="56" NumberOfPoints="72">
      <PointData Scalars="P" Vectors="v">
        <DataArray type="Float32" Name="P" NumberOfComponents="1" format="ascii">
          100017 99990 100017 99989.8 100012 100013 99994 99992.8 100009 100009 99996.7 99996.4
          100005 100005 100000 100000 100020 99988.6 100013 99993.2 100009 99996.5 100005 100000
          100019 99988.5 100014 99992.2 100010 99996.1 100006 100000 100019 99988.2 100014 99992.4
          100010 99996.2 100006 100000 100019 99988.5 100014 99992.2 100010 99996.1 100006 100000
          100020 99988.7 100014 99992.5 100010 99996.2 100005 100000 100017 99989.9 100013 99992.7
          100009 99996.3 100005 100000 100017 99989.9 100013 99992.7 100009 99996.3 100005 100000
        </DataArray>
        <DataArray type="Float32" Name="delP" NumberOfComponents="1" format="ascii">
          17.042 -10.0432 16.8548 -10.2304 11.8767 13.4204 -6.01453 -7.19955 8.97885 9.38011 -3.3307 -3.63801
          5.30222 5.34065 0 0 19.9275 -11.3527 13.1368 -6.76667 9.30443 -3.46305 5.40669 0
          19.0021 -11.5417 14.421 -7.80149 9.86674 -3.9107 5.70692 0 18.7383 -11.7965 14.1474 -7.6176
          9.83601 -3.81336 5.73246 0 19.0705 -11.4864 14.3712 -7.77941 9.84945 -3.94762 5.65066 0
          19.7461 -11.2915 13.9274 -7.49267 9.54481 -3.7835 5.35357 0 16.8562 -10.0763 13.3784 -7.31594
          9.39943 -3.74194 5.17643 0 16.8212 -10.1113 13.3697 -7.32801 9.39769 -3.74599 5.20343 0
        </DataArray>
        <DataArray type="Float32" Name="x_gas^H2O" NumberOfComponents="1" format="ascii">
          0.0127981 0.0102014 0.0127981 0.0127098 0.021951 0.0127925 0.0190419 0.0129167 0.0188724 0.0129783 0.0188502 0.0130419
          0.0152674 0.013048 0.0106983 0.0119415 0.0127981 0.0127931 0.0127934 0.0127984 0.0128038 0.0128107 0.0128058 0.0120827
          0.0127981 0.0127979 0.0127978 0.0127978 0.012798 0.012798 0.0127821 0.0120901 0.0127981 0.012798 0.012798 0.0127979
          0.0127978 0.012797 0.0127741 0.0120802 0.0127981 0.0127976 0.0127968 0.0127956 0.0127943 0.0127924 0.0127748 0.0120812
          0.0127981 0.0127891 0.0127792 0.0127658 0.0127553 0.0127456 0.0127279 0.0119788 0.0127981 0.0126681 0.0125715 0.0124784
          0.0124288 0.0123973 0.0123686 0.011326 0.0127981 0.00998885 0.00903118 0.00851697 0.00856544 0.00911279 0.0074364 0.00581716
        </DataArray>
        <DataArray type="Float32" Name="X_gas^H2O" NumberOfComponents="1" format="ascii">
          0.008 0.00637056 0.008 0.00794456 0.0137693 0.00799648 0.0119313 0.00807455 0.0118243 0.00811321 0.0118103 0.00815315
          0.00955252 0.008157 0.00668214 0.00746213 0.008 0.00799688 0.00799709 0.00800019 0.00800357 0.00800795 0.00800486 0.00755077
          0.008 0.00799988 0.00799981 0.00799983 0.00799994 0.00799994 0.00798996 0.00755541 0.008 0.00799998 0.00799995 0.0079999
          0.00799982 0.00799933 0.00798493 0.00754921 0.008 0.00799971 0.00799923 0.00799843 0.00799761 0.00799646 0.00798537 0.00754985
          0.008 0.00799437 0.00798815 0.00797972 0.00797315 0.00796704 0.00795591 0.00748553 0.008 0.0079184 0.00785773 0.00779922
          0.00776806 0.00774828 0.00773027 0.00707588 0.008 0.00623732 0.00563728 0.00531527 0.00534562 0.00568839 0.00463901 0.00362666
        </DataArray>
        <DataArray type="Float32" Name="x_gas^Air" NumberOfComponents="1" format="ascii">
          0.987202 0.989799 0.987202 0.98729 0.978049 0.987208 0.980958 0.987083 0.981128 0.987022 0.98115 0.986958
          0.984733 0.986952 0.989302 0.988059 0.987202 0.987207 0.987207 0.987202 0.987196 0.987189 0.987194 0.987917
          0.987202 0.987202 0.987202 0.987202 0.987202 0.987202 0.987218 0.98791 0.987202 0.987202 0.987202 0.987202
          0.987202 0.987203 0.987226 0.98792 0.987202 0.987202 0.987203 0.987204 0.987206 0.987208 0.987225 0.987919
          0.987202 0.987211 0.987221 0.987234 0.987245 0.987254 0.987272 0.988021 0.987202 0.987332 0.987428 0.987522
          0.987571 0.987603 0.987631 0.988674 0.987202 0.990011 0.990969 0.991483 0.991435 0.990887 0.992564 0.994183
        </DataArray>
        <DataArray type="Float32" Name="X_gas^Air" NumberOfComponents="1" format="ascii">
          0.992 0.993629 0.992 0.992055 0.986231 0.992004 0.988069 0.991925 0.988176 0.991887 0.98819 0.991847
          0.990447 0.991843 0.993318 0.992538 0.992 0.992003 0.992003 0.992 0.991996 0.991992 0.991995 0.992449
          0.992 0.992 0.992 0.992 0.992 0.992 0.99201 0.992445 0.992 0.992 0.992 0.992
          0.992 0.992001 0.992015 0.992451 0.992 0.992 0.992001 0.992002 0.992002 0.992004 0.992015 0.99245
          0.992 0.992006 0.992012 0.99202 0.992027 0.992033 0.992044 0.992514 0.992 0.992082 0.992142 0.992201
          0.992232 0.992252 0.99227 0.992924 0.992 0.993763 0.994363 0.994685 0.994654 0.994312 0.995361 0.996373
        </DataArray>
        <DataArray type="Float32" Name="rho" NumberOfComponents="1" format="ascii">
          1.16279 1.16361 1.16278 1.16251 1.18258 1.16279 1.1929 1.16277 1.19373 1.16298 1.19367 1.16287
          1.16156 1.16298 1.19251 1.17156 1.16282 1.16246 1.16274 1.16251 1.1627 1.16255 1.16266 1.16837
          1.16281 1.16245 1.16276 1.1625 1.1627 1.16254 1.16266 1.16813 1.16281 1.16245 1.16275 1.1625
          1.1627 1.16254 1.16267 1.16816 1.16281 1.16245 1.16276 1.1625 1.1627 1.16254 1.16267 1.16814
          1.16282 1.16246 1.16276 1.16251 1.16272 1.16257 1.16268 1.1686 1.16278 1.16253 1.16284 1.16264
          1.16286 1.16272 1.16284 1.1713 1.16278 1.16371 1.1644 1.16439 1.16456 1.16417 1.16501 1.1932
        </DataArray>
        <DataArray type="Float32" Name="mu" NumberOfComponents="1" format="ascii">
          1.81222e-05 1.81458e-05 1.81222e-05 1.8123e-05 1.77538e-05 1.81218e-05 1.76721e-05 1.81173e-05 1.7667e-05 1.81162e-05 1.76662e-05 1.81147e-05
          1.80998e-05 1.81146e-05 1.77962e-05 1.80263e-05 1.81222e-05 1.81223e-05 1.81223e-05 1.81222e-05 1.81221e-05 1.8122e-05 1.8122e-05 1.80626e-05
          1.81222e-05 1.81222e-05 1.81222e-05 1.81222e-05 1.81222e-05 1.81222e-05 1.81223e-05 1.80654e-05 1.81222e-05 1.81222e-05 1.81222e-05 1.81222e-05
          1.81222e-05 1.81222e-05 1.81224e-05 1.80653e-05 1.81222e-05 1.81222e-05 1.81222e-05 1.81223e-05 1.81223e-05 1.81223e-05 1.81224e-05 1.80654e-05
          1.81222e-05 1.81223e-05 1.81224e-05 1.81225e-05 1.81226e-05 1.81227e-05 1.81229e-05 1.80614e-05 1.81222e-05 1.81234e-05 1.81243e-05 1.81252e-05
          1.81256e-05 1.81259e-05 1.81262e-05 1.80383e-05 1.81222e-05 1.81478e-05 1.81565e-05 1.81612e-05 1.81607e-05 1.81557e-05 1.8171e-05 1.78578e-05
        </DataArray>
        <DataArray type="Float32" Name="D" NumberOfComponents="1" format="ascii">
          2.49325e-05 2.49393e-05 2.49326e-05 2.49391e-05 2.40349e-05 2.49319e-05 2.37055e-05 2.49264e-05 2.36816e-05 2.49203e-05 2.36815e-05 2.49208e-05
          2.49354e-05 2.49185e-05 2.38558e-05 2.46084e-05 2.49318e-05 2.49396e-05 2.49335e-05 2.49382e-05 2.49342e-05 2.49373e-05 2.49349e-05 2.47271e-05
          2.4932e-05 2.49396e-05 2.49332e-05 2.49387e-05 2.49343e-05 2.49377e-05 2.49352e-05 2.4736e-05 2.49321e-05 2.49397e-05 2.49332e-05 2.49386e-05
          2.49343e-05 2.49377e-05 2.49352e-05 2.47353e-05 2.4932e-05 2.49396e-05 2.49332e-05 2.49387e-05 2.49343e-05 2.49377e-05 2.49352e-05 2.47358e-05
          2.49318e-05 2.49396e-05 2.49333e-05 2.49386e-05 2.49344e-05 2.49377e-05 2.49354e-05 2.47202e-05 2.49326e-05 2.49393e-05 2.49335e-05 2.49387e-05
          2.49346e-05 2.49379e-05 2.49355e-05 2.46287e-05 2.49326e-05 2.49393e-05 2.49334e-05 2.49386e-05 2.49344e-05 2.49377e-05 2.49355e-05 2.39104e-05
        </DataArray>
        <DataArray type="Float32" Name="lambda" NumberOfComponents="1" format="ascii">
          0 0 0 0 0 0 0 0 0 0 0 0
          0 0 0 0 0 0 0 0 0 0 0 0
          0 0 0 0 0 0 0 0 0 0 0 0
          0 0 0 0 0 0 0 0 0 0 0 0
          0 0 0 0 0 0 0 0 0 0 0 0
          0 0 0 0 0 0 0 0 0 0 0 0
        </DataArray>
        <DataArray type="Float32" Name="temperature" NumberOfComponents="1" format="ascii">
          298.15 298.15 298.15 298.149 292.13 298.14 289.87 298.069 289.731 298.056 289.711 298.038
          298.15 298.037 290.899 295.963 298.15 298.15 298.15 298.149 298.148 298.147 298.147 296.755
          298.15 298.15 298.15 298.15 298.15 298.15 298.149 296.814 298.15 298.15 298.15 298.15
          298.15 298.15 298.149 296.81 298.15 298.15 298.15 298.15 298.15 298.15 298.149 296.812
          298.15 298.15 298.15 298.15 298.15 298.15 298.15 296.708 298.15 298.15 298.15 298.151
          298.151 298.151 298.15 296.098 298.15 298.15 298.15 298.15 298.15 298.15 298.15 291.269
        </DataArray>
        <DataArray type="Float32" Name="v" NumberOfComponents="3" format="ascii">
          0 0 0 0 0 0 3.5 0 0 3.71156 0.134708 0
          -0.0115866 -0.00443568 0 3.15769 -0.100127 0 0.457879 0.00765329 0 3.54619 0.0340577 0
          -0.0481465 -0.00614107 0 3.00953 -0.0109555 0 0.481419 0.00388194 0 3.46647 0.00620279 0
          0 0 0 2.94995 -0.0352427 0 1.42432 -0.0155202 0 3.40044 -0.0516117 0
          3.5 0 0 4.14429 0.11828 0 3.65507 0.0132087 0 4.0524 0.0620652 0
          3.6456 0.0109249 0 4.03681 0.0274899 0 3.61695 -0.0207188 0 3.98502 -0.0304178 0
          3.5 0 0 4.04161 0.0482501 0 3.61313 -0.0275544 0 4.10064 0.0299221 0
          3.68657 -0.00138507 0 4.12907 0.0184443 0 3.71517 -0.00689458 0 4.10593 -0.0114212 0
          3.5 0 0 4.01727 -0.00519503 0 3.57552 -0.00321052 0 4.0484 -0.00492241 0
          3.64302 -0.00376211 0 4.0834 -1.49187e-05 0 3.67473 0.00483312 0 4.07267 0.00524506 0
          3.5 0 0 4.04241 -0.0641617 0 3.625 -0.0518434 0 4.11118 -0.0549948 0
          3.70068 -0.0292622 0 4.14304 -0.0211978 0 3.72567 0.0143652 0 4.10932 0.0195806 0
          3.5 0 0 4.07345 -0.133752 0 3.63518 -0.0369577 0 4.06249 -0.0694059 0
          3.61404 -0.0197405 0 4.02484 -0.024841 0 3.57525 0.0413156 0 3.93709 0.0524294 0
          3.5 0 0 3.66609 -0.128133 0 3.11146 -0.0323925 0 3.48213 -0.0414264 0
          2.91226 -0.00999198 0 3.39609 -0.00842711 0 2.86574 0.0614279 0 3.33499 0.0762793 0
          0 0 0 0 0 0 0 0 0 0 0 0
          0 0 0 0 0 0 0 0 0 1.44857 0.0093304 0
        </DataArray>
      </PointData>
      <CellData Scalars="mu_t">
        <DataArray type="Float32" Name="mu_t" NumberOfComponents="1" format="ascii">
          0.00169233 0.00159929 0.00141623 0.00138646 0.00135316 0.00129612 0.000984365 0.00131069 0.00281049 0.00301701 0.00343099 0.00361884
          0.00369754 0.00367925 0.000911825 0.00128409 0.000226095 0.000792016 0.00118279 0.00169061 0.00194761 0.000453119 0.00115347 0.00167295
          0.00178337 0.00166108 0.0016031 0.00137527 0.000468073 0.00138925 0.00209003 0.00224218 0.00218378 0.00205877 0.00163461 0.000275592
          0.000365937 0.000341896 0.00120133 0.00181836 0.00238447 0.00286711 0.00123323 0.00280596 0.00332125 0.00384596 0.00398715 0.00400816
          0.0038387 0.00167704 0.00154718 0.00148758 0.00142135 0.00139389 0.00138017 0.00093223
        </DataArray>
        <DataArray type="Float32" Name="nu_t" NumberOfComponents="1" format="ascii">
          0.00145534 0.00137127 0.00120884 0.00118139 0.00115285 0.00110959 0.00084104 0.00112735 0.00241737 0.00259485 0.00295081 0.00311228
          0.00318 0.00315476 0.00078429 0.00110451 0.00019447 0.000681244 0.00101734 0.00145416 0.00167106 0.000389744 0.000992144 0.00143894
          0.00153395 0.00142874 0.00137888 0.00118011 0.000402606 0.00119494 0.00179769 0.00192859 0.00187833 0.00177083 0.00140267 0.000237045
          0.000314759 0.000294077 0.00103331 0.00156401 0.00205095 0.00245991 0.00106073 0.00241343 0.00285654 0.00330785 0.0034292 0.00344731
          0.00329157 0.00144216 0.00133015 0.00127874 0.00122177 0.00119818 0.00118631 0.000796091
        </DataArray>
        <DataArray type="Float32" Name="l_mix" NumberOfComponents="1" format="ascii">
          0.00222119 0.00220589 0.00216942 0.00216362 0.00215486 0.00213149 0.00202781 0.0108206 0.0108085 0.0107782 0.0107731 0.0107652
          0.0107436 0.0106318 0.0228578 0.022857 0.0228545 0.0228541 0.0228534 0.0228514 0.0228382 0.0406057 0.0406057 0.0406057
          0.0406057 0.0406057 0.0406057 0.0406055 0.0406057 0.0406057 0.0406057 0.0406057 0.0406057 0.0406057 0.0406054 0.0228577
          0.0228558 0.0228548 0.0228534 0.0228529 0.0228526 0.0228347 0.0108181 0.0107934 0.0107818 0.0107661 0.01076 0.0107571
          0.0106066 0.00221788 0.00218758 0.0021737 0.00215616 0.00214935 0.00214613 0.00200716
        </DataArray>
        <DataArray type="Float32" Name="u^+" NumberOfComponents="1" format="ascii">
          29.8301 29.3172 32.4668 32.0193 32.0418 31.8731 39.4979 61.4469 62.7142 65.4324 65.5243 65.6555
          65.0084 70.7047 62.8097 66.0773 70.0179 71.1858 71.8674 71.6042 78.1475 62.2852 65.195 69.639
          71.1556 72.0717 72.0863 78.886 62.4841 65.1246 66.4015 68.1275 68.8587 69.3071 80.321 62.7168
          65.6191 66.721 68.061 68.472 68.605 79.1075 61.1576 61.8175 61.7823 61.8263 61.6792 61.4736
          70.6958 29.7349 28.9202 28.5046 28.0937 27.8959 27.7674 39.5416
        </DataArray>
        <DataArray type="Float32" Name="y^+" NumberOfComponents="1" format="ascii">
          29.8209 29.3951 28.4053 28.2517 28.0222 27.4202 24.9314 104.373 102.883 99.4186 98.8811 98.0778
          95.9708 87.2599 216.202 213.114 205.939 204.825 203.161 198.797 180.753 383.944 378.461 365.719
          363.741 360.786 353.035 320.992 382.744 372.024 367.215 361.259 358.968 357.924 314.972 215.525
          209.489 206.781 203.427 202.137 201.549 177.363 104.047 101.133 99.8254 98.2062 97.5835 97.2996
          85.6235 29.7277 28.8951 28.5215 28.0589 27.881 27.7999 24.4639
        </DataArray>
        <DataArray type="Float32" Name="D_t" NumberOfComponents="1" format="ascii">
          0.000239459 0.000227736 0.000234266 0.00022837 0.000226326 0.000225576 0.000247983 0.00153987 0.00152324 0.00149703 0.00148148 0.00147197
          0.00146302 0.0014509 0.00325465 0.0033118 0.00330601 0.00332042 0.00332353 0.003324 0.00330817 0.00573267 0.00580402 0.005838
          0.00589158 0.00591581 0.00593881 0.00592607 0.00573297 0.00580869 0.00584625 0.00590066 0.00592615 0.00594782 0.00593119 0.00324023
          0.00329592 0.00330898 0.00332148 0.00332081 0.00331839 0.0032928 0.00152769 0.00150437 0.00148516 0.00146334 0.00145081 0.00144202
          0.00142647 0.00023794 0.000224954 0.000218803 0.000212141 0.000209263 0.000207707 0.000243628
        </DataArray>
        <DataArray type="Float32" Name="lambda_t" NumberOfComponents="1" format="ascii">
          0.006805 0.0073741 0.00858167 0.00810189 0.00803158 0.0076326 0.0073059 0.0454998 0.0449995 0.0443947 0.0440855 0.0439108
          0.0436972 0.0419786 0.0963194 0.0979993 0.0978394 0.0982822 0.0983985 0.0983839 0.0954581 0.169669 0.171776 0.172785
          0.174367 0.175084 0.175632 0.17088 0.169677 0.171911 0.173019 0.174616 0.175361 0.175857 0.170976 0.0958853
          0.0974957 0.0978387 0.0981594 0.0980999 0.0979415 0.0946686 0.045103 0.0442221 0.0434908 0.0427242 0.0422805 0.0419562
          0.0401565 0.00673357 0.00597001 0.00563897 0.00540483 0.00537422 0.00522638 0.00557849
        </DataArray>
      </CellData>
      <Points>
        <DataArray type="Float32" Name="Coordinates" NumberOfComponents="3" format="ascii">
          0 0.25 0 0.05 0.25 0 0 0.265385 0 0.05 0.265385 0
          0.1 0.25 0 0.1 0.265385 0 0.15 0.25 0 0.15 0.265385 0
          0.2 0.25 0 0.2 0.265385 0 0.25 0.25 0 0.25 0.265385 0
          0.3 0.25 0 0.3 0.265385 0 0.35 0.25 0 0.35 0.265385 0
          0 0.288462 0 0.05 0.288462 0 0.1 0.288462 0 0.15 0.288462 0
          0.2 0.288462 0 0.25 0.288462 0 0.3 0.288462 0 0.35 0.288462 0
          0 0.323077 0 0.05 0.323077 0 0.1 0.323077 0 0.15 0.323077 0
          0.2 0.323077 0 0.25 0.323077 0 0.3 0.323077 0 0.35 0.323077 0
          0 0.375 0 0.05 0.375 0 0.1 0.375 0 0.15 0.375 0
          0.2 0.375 0 0.25 0.375 0 0.3 0.375 0 0.35 0.375 0
          0 0.426923 0 0.05 0.426923 0 0.1 0.426923 0 0.15 0.426923 0
          0.2 0.426923 0 0.25 0.426923 0 0.3 0.426923 0 0.35 0.426923 0
          0 0.461538 0 0.05 0.461538 0 0.1 0.461538 0 0.15 0.461538 0
          0.2 0.461538 0 0.25 0.461538 0 0.3 0.461538 0 0.35 0.461538 0
          0 0.484615 0 0.05 0.484615 0 0.1 0.484615 0 0.15 0.484615 0
          0.2 0.484615 0 0.25 0.484615 0 0.3 0.484615 0 0.35 0.484615 0
          0 0.5 0 0.05 0.5 0 0.1 0.5 0 0.15 0.5 0
          0.2 0.5 0 0.25 0.5 0 0.3 0.5 0 0.35 0.5 0
        </DataArray>
      </Points>
      <Cells>
        <DataArray type="Int32" Name="connectivity" NumberOfComponents="1" format="ascii">
          0 1 3 2 1 4 5 3 4 6 7 5
          6 8 9 7 8 10 11 9 10 12 13 11
          12 14 15 13 2 3 17 16 3 5 18 17
          5 7 19 18 7 9 20 19 9 11 21 20
          11 13 22 21 13 15 23 22 16 17 25 24
          17 18 26 25 18 19 27 26 19 20 28 27
          20 21 29 28 21 22 30 29 22 23 31 30
          24 25 33 32 25 26 34 33 26 27 35 34
          27 28 36 35 28 29 37 36 29 30 38 37
          30 31 39 38 32 33 41 40 33 34 42 41
          34 35 43 42 35 36 44 43 36 37 45 44
          37 38 46 45 38 39 47 46 40 41 49 48
          41 42 50 49 42 43 51 50 43 44 52 51
          44 45 53 52 45 46 54 53 46 47 55 54
          48 49 57 56 49 50 58 57 50 51 59 58
          51 52 60 59 52 53 61 60 53 54 62 61
          54 55 63 62 56 57 65 64 57 58 66 65
          58 59 67 66 59 60 68 67 60 61 69 68
          61 62 70 69 62 63 71 70
        </DataArray>
        <DataArray type="Int32" Name="offsets" NumberOfComponents="1" format="ascii">
          4 8 12 16 20 24 28 32 36 40 44 48
          52 56 60 64 68 72 76 80 84 88 92 96
          100 104 108 112 116 120 124 128 132 136 140 144
          148 152 156 160 164 168 172 176 180 184 188 192
          196 200 204 208 212 216 220 224
        </DataArray>
        <DataArray type="UInt8" Name="types" NumberOfComponents="1" format="ascii">
          9 9 9 9 9 9 9 9 9 9 9 9
          9 9 9 9 9 9 9 9 9 9 9 9
          9 9 9 9 9 9 9 9 9 9 9 9
          9 9 9 9 9 9 9 9 9 9 9 9
          9 9 9 9 9 9 9 9
        </DataArray>
      </Cells>
    </Piece>
  </UnstructuredGrid>
</VTKFile>
