<?xml version="1.0"?>
<VTKFile type="UnstructuredGrid" version="0.1" byte_order="LittleEndian">
  <UnstructuredGrid>
    <Piece NumberOfCells="180" NumberOfPoints="208">
      <PointData Scalars="Sn" Vectors="velocityW">
        <DataArray type="Float32" Name="Sn" NumberOfComponents="1" format="ascii">
          0.0100641 0.0100641 0.0101378 0.0101378 0.0100641 0.0101378 0.0100641 0.0101378 0.0100641 0.0101378 0.0100641 0.0101378
          0.0100641 0.0101378 0.0100641 0.0101378 0.0100641 0.0101378 0.0100641 0.0101378 0.0100641 0.0101378 0.0100641 0.0101378
          0.0100641 0.0101378 0.0100641 0.0101378 0.0100641 0.0101378 0.0100641 0.0101378 0.0101933 0.0101933 0.0101933 0.0101933
          0.0101933 0.0101933 0.0101933 0.0101933 0.0101933 0.0101933 0.0101933 0.0101933 0.0101933 0.0101933 0.0101933 0.0101933
          0.0102537 0.0102537 0.0102537 0.0102537 0.0102537 0.0102537 0.0102537 0.0102537 0.0102537 0.0102537 0.0102537 0.0102537
          0.0102537 0.0102537 0.0102537 0.0102537 0.0104345 0.0104345 0.0104345 0.0104345 0.0104345 0.0104345 0.0104345 0.0104345
          0.0104345 0.0104345 0.0104345 0.0104345 0.0104345 0.0104345 0.0104345 0.0104345 0.0112335 0.0112335 0.0112335 0.0112335
          0.0112335 0.0112335 0.0112335 0.0112335 0.0112335 0.0112335 0.0112335 0.0112335 0.0112335 0.0112335 0.0112335 0.0112335
          0.0125645 0.0125645 0.0125645 0.0125645 0.0125645 0.0125645 0.0125645 0.0125645 0.0125645 0.0125645 0.0125645 0.0125645
          0.0125645 0.0125645 0.0125645 0.0125645 0.0141222 0.0141222 0.0141222 0.0141222 0.0141221 0.0141221 0.0141221 0.0141221
          0.0141221 0.0141221 0.0141221 0.0141221 0.0141221 0.0141221 0.0141221 0.0141221 0.01607 0.01607 0.01607 0.01607
          0.01607 0.01607 0.01607 0.01607 0.01607 0.01607 0.01607 0.01607 0.01607 0.01607 0.01607 0.01607
          0.0201023 0.0201022 0.0201022 0.0201022 0.0201022 0.0201022 0.0201022 0.0201021 0.0201021 0.0201021 0.0201021 0.0201021
          0.0201021 0.0201021 0.020102 0.020102 0.0408847 0.0408845 0.0408845 0.0408844 0.0408844 0.0408844 0.0408843 0.0408843
          0.0408843 0.0408842 0.0408842 0.0408841 0.0408841 0.0408841 0.040884 0.0408839 0.0832728 0.0832724 0.0832723 0.0832722
          0.0832722 0.0832721 0.0832721 0.083272 0.0832719 0.0832718 0.0832717 0.0832717 0.0832716 0.0832715 0.0832713 0.083271
          0.152269 0.152268 0.152268 0.152268 0.152268 0.152268 0.152268 0.152268 0.152267 0.152267 0.152267 0.152267
          0.152267 0.152267 0.152266 0.152265
        </DataArray>
        <DataArray type="Float32" Name="Sw" NumberOfComponents="1" format="ascii">
          0.989936 0.989936 0.989862 0.989862 0.989936 0.989862 0.989936 0.989862 0.989936 0.989862 0.989936 0.989862
          0.989936 0.989862 0.989936 0.989862 0.989936 0.989862 0.989936 0.989862 0.989936 0.989862 0.989936 0.989862
          0.989936 0.989862 0.989936 0.989862 0.989936 0.989862 0.989936 0.989862 0.989807 0.989807 0.989807 0.989807
          0.989807 0.989807 0.989807 0.989807 0.989807 0.989807 0.989807 0.989807 0.989807 0.989807 0.989807 0.989807
          0.989746 0.989746 0.989746 0.989746 0.989746 0.989746 0.989746 0.989746 0.989746 0.989746 0.989746 0.989746
          0.989746 0.989746 0.989746 0.989746 0.989565 0.989565 0.989565 0.989565 0.989565 0.989565 0.989565 0.989565
          0.989565 0.989565 0.989565 0.989565 0.989565 0.989565 0.989565 0.989565 0.988766 0.988766 0.988766 0.988766
          0.988766 0.988766 0.988766 0.988766 0.988766 0.988766 0.988766 0.988766 0.988766 0.988766 0.988766 0.988766
          0.987436 0.987436 0.987436 0.987436 0.987436 0.987436 0.987436 0.987436 0.987436 0.987436 0.987436 0.987436
          0.987436 0.987436 0.987436 0.987436 0.985878 0.985878 0.985878 0.985878 0.985878 0.985878 0.985878 0.985878
          0.985878 0.985878 0.985878 0.985878 0.985878 0.985878 0.985878 0.985878 0.98393 0.98393 0.98393 0.98393
          0.98393 0.98393 0.98393 0.98393 0.98393 0.98393 0.98393 0.98393 0.98393 0.98393 0.98393 0.98393
          0.979898 0.979898 0.979898 0.979898 0.979898 0.979898 0.979898 0.979898 0.979898 0.979898 0.979898 0.979898
          0.979898 0.979898 0.979898 0.979898 0.959115 0.959115 0.959116 0.959116 0.959116 0.959116 0.959116 0.959116
          0.959116 0.959116 0.959116 0.959116 0.959116 0.959116 0.959116 0.959116 0.916727 0.916728 0.916728 0.916728
          0.916728 0.916728 0.916728 0.916728 0.916728 0.916728 0.916728 0.916728 0.916728 0.916728 0.916729 0.916729
          0.847731 0.847732 0.847732 0.847732 0.847732 0.847732 0.847732 0.847732 0.847733 0.847733 0.847733 0.847733
          0.847733 0.847733 0.847733 0.847735
        </DataArray>
        <DataArray type="Float32" Name="pn" NumberOfComponents="1" format="ascii">
          101177 101177 100864 100864 101177 100864 101177 100864 101177 100864 101177 100864
          101177 100864 101177 100864 101177 100864 101177 100864 101177 100864 101177 100864
          101177 100864 101177 100864 101177 100864 101177 100864 100578 100578 100578 100578
          100578 100578 100578 100578 100578 100578 100578 100578 100578 100578 100578 100578
          100319 100319 100319 100319 100319 100319 100319 100319 100319 100319 100319 100319
          100319 100319 100319 100319 100105 100105 100105 100105 100105 100105 100105 100105
          100105 100105 100105 100105 100105 100105 100105 100105 100015 100015 100015 100015
          100015 100015 100015 100015 100015 100015 100015 100015 100015 100015 100015 100015
          100004 100004 100004 100004 100004 100004 100004 100004 100004 100004 100004 100004
          100004 100004 100004 100004 100002 100002 100002 100002 100002 100002 100002 100002
          100002 100002 100002 100002 100002 100002 100002 100002 100001 100001 100001 100001
          100001 100001 100001 100001 100001 100001 100001 100001 100001 100001 100001 100001
          100000 100000 100000 100000 100000 100000 100000 100000 100000 100000 100000 100000
          100000 100000 100000 100000 100000 100000 100000 100000 100000 100000 100000 100000
          100000 100000 100000 100000 100000 100000 100000 100000 100000 100000 100000 100000
          100000 100000 100000 100000 100000 100000 100000 100000 100000 100000 100000 100000
          100000 100000 100000 100000 100000 100000 100000 100000 100000 100000 100000 100000
          100000 100000 100000 100000
        </DataArray>
        <DataArray type="Float32" Name="pw" NumberOfComponents="1" format="ascii">
          101166 101166 100839 100839 101166 100839 101166 100839 101166 100839 101166 100839
          101166 100839 101166 100839 101166 100839 101166 100839 101166 100839 101166 100839
          101166 100839 101166 100839 101166 100839 101166 100839 100543 100543 100543 100543
          100543 100543 100543 100543 100543 100543 100543 100543 100543 100543 100543 100543
          100273 100273 100273 100273 100273 100273 100273 100273 100273 100273 100273 100273
          100273 100273 100273 100273 100028 100028 100028 100028 100028 100028 100028 100028
          100028 100028 100028 100028 100028 100028 100028 100028 99805.3 99805.3 99805.3 99805.3
          99805.3 99805.3 99805.3 99805.3 99805.3 99805.3 99805.3 99805.3 99805.3 99805.3 99805.3 99805.3
          99602.7 99602.7 99602.7 99602.7 99602.7 99602.7 99602.7 99602.7 99602.7 99602.7 99602.7 99602.7
          99602.7 99602.7 99602.7 99602.7 99418.5 99418.5 99418.5 99418.5 99418.5 99418.5 99418.5 99418.5
          99418.5 99418.5 99418.5 99418.5 99418.5 99418.5 99418.5 99418.5 99251.1 99251.1 99251.1 99251.1
          99251.1 99251.1 99251.1 99251.1 99251.1 99251.1 99251.1 99251.1 99251.1 99251.1 99251.1 99251.1
          99098.9 99098.9 99098.9 99098.9 99098.9 99098.9 99098.9 99098.9 99098.9 99098.9 99098.9 99098.9
          99098.9 99098.9 99098.9 99098.9 98960.5 98960.5 98960.5 98960.5 98960.5 98960.5 98960.5 98960.5
          98960.5 98960.5 98960.5 98960.5 98960.5 98960.5 98960.5 98960.5 98834.7 98834.7 98834.7 98834.7
          98834.7 98834.7 98834.7 98834.7 98834.7 98834.7 98834.7 98834.7 98834.7 98834.7 98834.7 98834.7
          98720.4 98720.4 98720.4 98720.4 98720.4 98720.4 98720.4 98720.4 98720.4 98720.4 98720.4 98720.4
          98720.4 98720.4 98720.4 98720.4
        </DataArray>
        <DataArray type="Float32" Name="pc" NumberOfComponents="1" format="ascii">
          11.6572 11.6572 24.9399 24.9397 11.6572 24.9399 11.6572 24.94 11.6577 24.94 11.657 24.9394
          11.6575 24.9396 11.6573 24.9403 11.657 24.9395 11.6574 24.9402 11.6572 24.9401 11.6575 24.9398
          11.6571 24.9396 11.657 24.9395 11.6573 24.9395 11.6569 24.9399 34.8908 34.8911 34.8905 34.8904
          34.891 34.8909 34.8906 34.891 34.8908 34.8908 34.891 34.8907 34.8901 34.8896 34.8907 34.8908
          45.6328 45.6328 45.6327 45.6328 45.6328 45.6325 45.6326 45.6325 45.6323 45.6326 45.6324 45.6324
          45.6322 45.632 45.6322 45.6331 77.3286 77.328 77.3282 77.3281 77.3273 77.3279 77.3278 77.3278
          77.3279 77.3276 77.3276 77.3272 77.3277 77.3281 77.3284 77.3289 209.439 209.439 209.439 209.439
          209.439 209.438 209.438 209.438 209.438 209.438 209.438 209.438 209.438 209.439 209.439 209.439
          401.358 401.358 401.358 401.358 401.358 401.358 401.358 401.357 401.357 401.357 401.357 401.357
          401.357 401.357 401.357 401.357 583.255 583.255 583.254 583.254 583.254 583.254 583.254 583.254
          583.253 583.253 583.253 583.253 583.253 583.253 583.253 583.253 749.819 749.819 749.819 749.819
          749.818 749.818 749.818 749.818 749.818 749.818 749.818 749.818 749.817 749.817 749.817 749.817
          901.6 901.6 901.599 901.599 901.599 901.599 901.599 901.599 901.599 901.598 901.598 901.598
          901.598 901.598 901.597 901.597 1039.76 1039.76 1039.76 1039.76 1039.76 1039.76 1039.76 1039.76
          1039.76 1039.76 1039.76 1039.76 1039.76 1039.76 1039.76 1039.76 1165.41 1165.41 1165.41 1165.41
          1165.41 1165.41 1165.41 1165.41 1165.41 1165.41 1165.41 1165.41 1165.41 1165.41 1165.41 1165.41
          1279.65 1279.65 1279.65 1279.65 1279.65 1279.65 1279.65 1279.65 1279.65 1279.65 1279.65 1279.65
          1279.65 1279.65 1279.65 1279.64
        </DataArray>
        <DataArray type="Float32" Name="rhoW" NumberOfComponents="1" format="ascii">
          997.056 997.056 997.056 997.056 997.056 997.056 997.056 997.056 997.056 997.056 997.056 997.056
          997.056 997.056 997.056 997.056 997.056 997.056 997.056 997.056 997.056 997.056 997.056 997.056
          997.056 997.056 997.056 997.056 997.056 997.056 997.056 997.056 997.056 997.056 997.056 997.056
          997.056 997.056 997.056 997.056 997.056 997.056 997.056 997.056 997.056 997.056 997.056 997.056
          997.056 997.056 997.056 997.056 997.056 997.056 997.056 997.056 997.056 997.056 997.056 997.056
          997.056 997.056 997.056 997.056 997.057 997.057 997.057 997.057 997.057 997.057 997.057 997.057
          997.057 997.057 997.057 997.057 997.057 997.057 997.057 997.057 997.06 997.06 997.06 997.06
          997.06 997.06 997.06 997.06 997.06 997.06 997.06 997.06 997.06 997.06 997.06 997.06
          997.065 997.065 997.065 997.065 997.065 997.065 997.065 997.065 997.065 997.065 997.065 997.065
          997.065 997.065 997.065 997.065 997.075 997.075 997.075 997.075 997.075 997.075 997.075 997.075
          997.075 997.075 997.075 997.075 997.075 997.075 997.075 997.075 997.091 997.091 997.091 997.091
          997.091 997.091 997.091 997.091 997.091 997.091 997.091 997.091 997.091 997.091 997.091 997.091
          997.115 997.115 997.116 997.116 997.116 997.116 997.116 997.116 997.116 997.116 997.116 997.115
          997.115 997.115 997.115 997.115 997.147 997.148 997.148 997.148 997.148 997.148 997.148 997.148
          997.148 997.148 997.148 997.148 997.148 997.147 997.147 997.147 997.187 997.187 997.187 997.188
          997.188 997.188 997.188 997.188 997.188 997.188 997.187 997.187 997.187 997.187 997.186 997.186
          997.231 997.232 997.233 997.233 997.234 997.234 997.234 997.233 997.233 997.233 997.233 997.233
          997.232 997.232 997.232 997.23
        </DataArray>
        <DataArray type="Float32" Name="rhoN" NumberOfComponents="1" format="ascii">
          1.16803 1.16803 1.16437 1.16437 1.16803 1.16437 1.16803 1.16437 1.16803 1.16437 1.16803 1.16437
          1.16803 1.16437 1.16803 1.16437 1.16803 1.16437 1.16803 1.16437 1.16803 1.16437 1.16803 1.16437
          1.16803 1.16437 1.16803 1.16437 1.16803 1.16437 1.16803 1.16437 1.16103 1.16103 1.16103 1.16103
          1.16103 1.16103 1.16103 1.16103 1.16103 1.16103 1.16103 1.16103 1.16103 1.16103 1.16103 1.16103
          1.15801 1.15801 1.15801 1.15801 1.15801 1.15801 1.15801 1.15801 1.15801 1.15801 1.15801 1.15801
          1.15801 1.15801 1.15801 1.15801 1.15553 1.15553 1.15553 1.15553 1.15553 1.15553 1.15553 1.15553
          1.15553 1.15553 1.15553 1.15553 1.15553 1.15553 1.15553 1.15553 1.15452 1.15452 1.15452 1.15452
          1.15452 1.15452 1.15452 1.15452 1.15452 1.15452 1.15452 1.15452 1.15452 1.15452 1.15452 1.15452
          1.15449 1.15449 1.15449 1.15449 1.15449 1.15449 1.15449 1.15449 1.15449 1.15449 1.15449 1.15449
          1.15449 1.15449 1.15449 1.15449 1.15465 1.15465 1.15465 1.15465 1.15465 1.15465 1.15465 1.15465
          1.15465 1.15465 1.15465 1.15465 1.15465 1.15465 1.15465 1.15465 1.15494 1.15494 1.15495 1.15495
          1.15495 1.15495 1.15495 1.15495 1.15495 1.15495 1.15495 1.15494 1.15494 1.15494 1.15494 1.15494
          1.15539 1.15539 1.15539 1.15539 1.15539 1.15539 1.15539 1.15539 1.15539 1.15539 1.15539 1.15539
          1.15539 1.15538 1.15538 1.15538 1.15598 1.15598 1.15599 1.15599 1.15599 1.15599 1.15599 1.15599
          1.15599 1.15599 1.15599 1.15598 1.15598 1.15598 1.15597 1.15597 1.15671 1.15671 1.15672 1.15673
          1.15673 1.15673 1.15673 1.15673 1.15673 1.15673 1.15672 1.15672 1.15671 1.15671 1.1567 1.1567
          1.15755 1.15756 1.15757 1.15758 1.15759 1.15759 1.15759 1.15759 1.15758 1.15758 1.15757 1.15757
          1.15756 1.15756 1.15755 1.15753
        </DataArray>
        <DataArray type="Float32" Name="mobW" NumberOfComponents="1" format="ascii">
          1123.57 1123.57 1123.56 1123.56 1123.57 1123.56 1123.57 1123.56 1123.57 1123.56 1123.57 1123.56
          1123.57 1123.56 1123.57 1123.56 1123.57 1123.56 1123.57 1123.56 1123.57 1123.56 1123.57 1123.56
          1123.57 1123.56 1123.57 1123.56 1123.57 1123.56 1123.57 1123.56 1123.55 1123.55 1123.55 1123.55
          1123.55 1123.55 1123.55 1123.55 1123.55 1123.55 1123.55 1123.55 1123.55 1123.55 1123.55 1123.55
          1123.52 1123.52 1123.52 1123.52 1123.52 1123.52 1123.52 1123.52 1123.52 1123.52 1123.52 1123.52
          1123.52 1123.52 1123.52 1123.52 1123.41 1123.41 1123.41 1123.41 1123.41 1123.41 1123.41 1123.41
          1123.41 1123.41 1123.41 1123.41 1123.41 1123.41 1123.41 1123.41 1123.05 1123.05 1123.05 1123.05
          1123.05 1123.05 1123.05 1123.05 1123.05 1123.05 1123.05 1123.05 1123.06 1123.06 1123.06 1123.06
          1122.12 1122.12 1122.12 1122.12 1122.12 1122.12 1122.12 1122.12 1122.12 1122.12 1122.12 1122.12
          1122.12 1122.13 1122.13 1122.13 1120.31 1120.31 1120.31 1120.3 1120.3 1120.3 1120.3 1120.3
          1120.3 1120.3 1120.31 1120.31 1120.31 1120.32 1120.32 1120.32 1117.14 1117.14 1117.13 1117.13
          1117.12 1117.12 1117.12 1117.12 1117.12 1117.13 1117.13 1117.14 1117.14 1117.15 1117.16 1117.16
          1109.88 1109.88 1109.86 1109.85 1109.84 1109.83 1109.83 1109.84 1109.84 1109.85 1109.86 1109.87
          1109.88 1109.89 1109.9 1109.91 1051.57 1051.56 1051.54 1051.52 1051.5 1051.49 1051.49 1051.5
          1051.51 1051.52 1051.53 1051.55 1051.56 1051.58 1051.6 1051.61 858.551 858.534 858.501 858.473
          858.455 858.448 858.448 858.455 858.467 858.481 858.497 858.513 858.53 858.547 858.572 858.598
          646.768 646.73 646.688 646.658 646.641 646.635 646.636 646.644 646.655 646.67 646.686 646.702
          646.717 646.733 646.749 646.829
        </DataArray>
        <DataArray type="Float32" Name="mobN" NumberOfComponents="1" format="ascii">
          0.000133509 0.00013351 0.000656871 0.000656857 0.00013351 0.000656871 0.000133509 0.000656876 0.000133521 0.000656871 0.000133506 0.000656841
          0.000133518 0.000656854 0.000133512 0.000656888 0.000133505 0.000656847 0.000133515 0.000656883 0.00013351 0.000656878 0.000133518 0.000656862
          0.000133507 0.000656854 0.000133505 0.000656848 0.000133513 0.000656848 0.000133503 0.000656868 0.00133097 0.001331 0.00133095 0.00133094
          0.00133099 0.00133098 0.00133096 0.00133099 0.00133098 0.00133098 0.00133099 0.00133097 0.00133092 0.00133088 0.00133097 0.00133098
          0.0023452 0.00234521 0.0023452 0.00234521 0.00234521 0.00234518 0.00234519 0.00234518 0.00234515 0.00234519 0.00234517 0.00234516
          0.00234514 0.00234512 0.00234514 0.00234524 0.00719228 0.00719216 0.0071922 0.00719218 0.00719202 0.00719214 0.00719212 0.00719212
          0.00719215 0.00719209 0.00719208 0.00719201 0.00719211 0.00719218 0.00719225 0.00719234 0.0632255 0.0632255 0.0632254 0.0632252
          0.0632251 0.063225 0.0632249 0.0632249 0.0632248 0.0632249 0.0632249 0.063225 0.063225 0.0632251 0.0632252 0.0632252
          0.290432 0.290432 0.290432 0.290431 0.290431 0.290431 0.290431 0.29043 0.29043 0.29043 0.29043 0.29043
          0.29043 0.29043 0.29043 0.29043 0.780576 0.780576 0.780576 0.780575 0.780575 0.780574 0.780574 0.780573
          0.780573 0.780572 0.780572 0.780571 0.780571 0.780571 0.78057 0.78057 1.74778 1.74778 1.74778 1.74778
          1.74778 1.74778 1.74777 1.74777 1.74777 1.74777 1.74777 1.74777 1.74776 1.74776 1.74776 1.74776
          5.04929 5.04927 5.04925 5.04924 5.04923 5.04922 5.0492 5.04919 5.04917 5.04916 5.04914 5.04912
          5.04911 5.04909 5.04906 5.04905 51.6719 51.6715 51.6713 51.6713 51.6712 51.6712 51.671 51.6709
          51.6707 51.6706 51.6704 51.6702 51.67 51.6698 51.6695 51.669 310.897 310.894 310.894 310.894
          310.894 310.894 310.894 310.893 310.892 310.891 310.889 310.888 310.887 310.886 310.884 310.88
          1227.45 1227.44 1227.44 1227.45 1227.45 1227.45 1227.45 1227.44 1227.44 1227.43 1227.43 1227.42
          1227.42 1227.41 1227.41 1227.38
        </DataArray>
        <DataArray type="Float32" Name="X_liquid^H2O" NumberOfComponents="1" format="ascii">
          0.999978 0.999978 0.999978 0.999978 0.999978 0.999978 0.999978 0.999978 0.999978 0.999978 0.999978 0.999978
          0.999978 0.999978 0.999978 0.999978 0.999978 0.999978 0.999978 0.999978 0.999978 0.999978 0.999978 0.999978
          0.999978 0.999978 0.999978 0.999978 0.999978 0.999978 0.999978 0.999978 0.999978 0.999978 0.999978 0.999978
          0.999978 0.999978 0.999978 0.999978 0.999978 0.999978 0.999978 0.999978 0.999978 0.999978 0.999978 0.999978
          0.999978 0.999978 0.999978 0.999978 0.999978 0.999978 0.999978 0.999978 0.999978 0.999978 0.999978 0.999978
          0.999978 0.999978 0.999978 0.999978 0.999978 0.999978 0.999978 0.999978 0.999978 0.999978 0.999978 0.999978
          0.999978 0.999978 0.999978 0.999978 0.999978 0.999978 0.999978 0.999978 0.999978 0.999978 0.999978 0.999978
          0.999978 0.999978 0.999978 0.999978 0.999978 0.999978 0.999978 0.999978 0.999978 0.999978 0.999978 0.999978
          0.999978 0.999978 0.999978 0.999978 0.999978 0.999978 0.999978 0.999978 0.999978 0.999978 0.999978 0.999978
          0.999978 0.999978 0.999978 0.999978 0.999978 0.999978 0.999978 0.999978 0.999978 0.999978 0.999978 0.999978
          0.999978 0.999978 0.999978 0.999978 0.999978 0.999978 0.999978 0.999978 0.999978 0.999978 0.999978 0.999978
          0.999978 0.999978 0.999978 0.999978 0.999978 0.999978 0.999978 0.999978 0.999978 0.999978 0.999978 0.999978
          0.999978 0.999978 0.999978 0.999978 0.999978 0.999978 0.999978 0.999978 0.999978 0.999978 0.999978 0.999978
          0.999978 0.999978 0.999978 0.999978 0.999978 0.999978 0.999978 0.999978 0.999978 0.999978 0.999978 0.999978
          0.999978 0.999978 0.999978 0.999978 0.999978 0.999978 0.999978 0.999978 0.999978 0.999978 0.999978 0.999978
          0.999978 0.999978 0.999978 0.999978 0.999978 0.999978 0.999978 0.999978 0.999978 0.999978 0.999978 0.999978
          0.999978 0.999978 0.999978 0.999978 0.999978 0.999978 0.999978 0.999978 0.999978 0.999978 0.999978 0.999978
          0.999978 0.999978 0.999978 0.999978
        </DataArray>
        <DataArray type="Float32" Name="X_liquid^Air" NumberOfComponents="1" format="ascii">
          2.18088e-05 2.18088e-05 2.17392e-05 2.17392e-05 2.18088e-05 2.17392e-05 2.18088e-05 2.17392e-05 2.18088e-05 2.17392e-05 2.18088e-05 2.17392e-05
          2.18088e-05 2.17392e-05 2.18088e-05 2.17392e-05 2.18088e-05 2.17392e-05 2.18088e-05 2.17392e-05 2.18088e-05 2.17392e-05 2.18088e-05 2.17392e-05
          2.18088e-05 2.17392e-05 2.18088e-05 2.17392e-05 2.18088e-05 2.17392e-05 2.18088e-05 2.17392e-05 2.16756e-05 2.16756e-05 2.16756e-05 2.16756e-05
          2.16756e-05 2.16756e-05 2.16756e-05 2.16756e-05 2.16756e-05 2.16756e-05 2.16756e-05 2.16756e-05 2.16756e-05 2.16756e-05 2.16756e-05 2.16756e-05
          2.16185e-05 2.16185e-05 2.16185e-05 2.16185e-05 2.16185e-05 2.16185e-05 2.16185e-05 2.16185e-05 2.16185e-05 2.16185e-05 2.16185e-05 2.16185e-05
          2.16185e-05 2.16185e-05 2.16185e-05 2.16185e-05 2.15724e-05 2.15724e-05 2.15724e-05 2.15724e-05 2.15724e-05 2.15724e-05 2.15724e-05 2.15724e-05
          2.15724e-05 2.15724e-05 2.15724e-05 2.15724e-05 2.15724e-05 2.15724e-05 2.15724e-05 2.15724e-05 2.15559e-05 2.15559e-05 2.15559e-05 2.15559e-05
          2.15559e-05 2.15559e-05 2.15559e-05 2.15559e-05 2.15559e-05 2.15559e-05 2.15559e-05 2.15559e-05 2.15559e-05 2.15559e-05 2.15559e-05 2.15559e-05
          2.15614e-05 2.15614e-05 2.15614e-05 2.15614e-05 2.15615e-05 2.15615e-05 2.15615e-05 2.15615e-05 2.15615e-05 2.15614e-05 2.15614e-05 2.15614e-05
          2.15614e-05 2.15614e-05 2.15613e-05 2.15613e-05 2.15757e-05 2.15757e-05 2.15758e-05 2.15758e-05 2.15759e-05 2.15759e-05 2.15759e-05 2.15759e-05
          2.15759e-05 2.15758e-05 2.15758e-05 2.15757e-05 2.15757e-05 2.15756e-05 2.15756e-05 2.15756e-05 2.16e-05 2.16001e-05 2.16001e-05 2.16003e-05
          2.16003e-05 2.16004e-05 2.16004e-05 2.16004e-05 2.16003e-05 2.16002e-05 2.16002e-05 2.16001e-05 2.16e-05 2.15999e-05 2.15998e-05 2.15998e-05
          2.16361e-05 2.16361e-05 2.16363e-05 2.16365e-05 2.16367e-05 2.16367e-05 2.16367e-05 2.16367e-05 2.16366e-05 2.16365e-05 2.16363e-05 2.16362e-05
          2.1636e-05 2.16359e-05 2.16357e-05 2.16357e-05 2.16843e-05 2.16845e-05 2.16848e-05 2.16852e-05 2.16854e-05 2.16856e-05 2.16856e-05 2.16855e-05
          2.16853e-05 2.16851e-05 2.16849e-05 2.16847e-05 2.16845e-05 2.16842e-05 2.16839e-05 2.16838e-05 2.1744e-05 2.17443e-05 2.1745e-05 2.17455e-05
          2.17459e-05 2.1746e-05 2.1746e-05 2.17459e-05 2.17457e-05 2.17454e-05 2.17451e-05 2.17448e-05 2.17445e-05 2.17441e-05 2.17437e-05 2.17432e-05
          2.18129e-05 2.18139e-05 2.1815e-05 2.18158e-05 2.18163e-05 2.18164e-05 2.18164e-05 2.18162e-05 2.18159e-05 2.18155e-05 2.18151e-05 2.18147e-05
          2.18143e-05 2.18139e-05 2.18135e-05 2.18115e-05
        </DataArray>
        <DataArray type="Float32" Name="X_gas^H2O" NumberOfComponents="1" format="ascii">
          0.0197219 0.0197219 0.0197837 0.0197837 0.0197219 0.0197837 0.0197219 0.0197837 0.0197219 0.0197837 0.0197219 0.0197837
          0.0197219 0.0197837 0.0197219 0.0197837 0.0197219 0.0197837 0.0197219 0.0197837 0.0197219 0.0197837 0.0197219 0.0197837
          0.0197219 0.0197837 0.0197219 0.0197837 0.0197219 0.0197837 0.0197219 0.0197837 0.0198403 0.0198403 0.0198403 0.0198403
          0.0198403 0.0198403 0.0198403 0.0198403 0.0198403 0.0198403 0.0198403 0.0198403 0.0198403 0.0198403 0.0198403 0.0198403
          0.0198905 0.0198905 0.0198905 0.0198905 0.0198905 0.0198905 0.0198905 0.0198905 0.0198905 0.0198905 0.0198905 0.0198905
          0.0198905 0.0198905 0.0198905 0.0198905 0.0199288 0.0199288 0.0199288 0.0199288 0.0199288 0.0199288 0.0199288 0.0199288
          0.0199288 0.0199288 0.0199288 0.0199289 0.0199289 0.0199289 0.0199289 0.0199289 0.0199355 0.0199355 0.0199355 0.0199355
          0.0199354 0.0199354 0.0199354 0.0199354 0.0199354 0.0199355 0.0199355 0.0199355 0.0199356 0.0199356 0.0199356 0.0199356
          0.0199126 0.0199125 0.0199125 0.0199124 0.0199124 0.0199123 0.0199123 0.0199123 0.0199124 0.0199124 0.0199125 0.0199126
          0.0199126 0.0199127 0.0199127 0.0199128 0.0198659 0.0198659 0.0198658 0.0198656 0.0198655 0.0198654 0.0198654 0.0198654
          0.0198655 0.0198656 0.0198658 0.0198659 0.0198661 0.0198662 0.0198663 0.0198664 0.0197887 0.0197886 0.0197883 0.019788
          0.0197877 0.0197875 0.0197875 0.0197876 0.0197877 0.019788 0.0197882 0.0197885 0.0197888 0.0197891 0.0197893 0.0197894
          0.0196754 0.0196752 0.0196746 0.019674 0.0196735 0.0196733 0.0196732 0.0196734 0.0196737 0.019674 0.0196745 0.019675
          0.0196755 0.019676 0.0196764 0.0196766 0.0195253 0.0195248 0.0195237 0.0195226 0.0195219 0.0195215 0.0195215 0.0195217
          0.0195222 0.0195228 0.0195235 0.0195242 0.0195249 0.0195257 0.0195265 0.0195269 0.0193423 0.0193412 0.0193392 0.0193375
          0.0193365 0.019336 0.019336 0.0193364 0.019337 0.0193379 0.0193388 0.0193398 0.0193407 0.0193417 0.0193431 0.0193446
          0.019134 0.0191309 0.0191275 0.0191252 0.0191239 0.0191234 0.0191234 0.019124 0.0191249 0.019126 0.0191272 0.0191284
          0.0191296 0.0191308 0.0191321 0.019138
        </DataArray>
        <DataArray type="Float32" Name="X_gas^Air" NumberOfComponents="1" format="ascii">
          0.980278 0.980278 0.980216 0.980216 0.980278 0.980216 0.980278 0.980216 0.980278 0.980216 0.980278 0.980216
          0.980278 0.980216 0.980278 0.980216 0.980278 0.980216 0.980278 0.980216 0.980278 0.980216 0.980278 0.980216
          0.980278 0.980216 0.980278 0.980216 0.980278 0.980216 0.980278 0.980216 0.98016 0.98016 0.98016 0.98016
          0.98016 0.98016 0.98016 0.98016 0.98016 0.98016 0.98016 0.98016 0.98016 0.98016 0.98016 0.98016
          0.980109 0.980109 0.980109 0.980109 0.980109 0.980109 0.980109 0.980109 0.980109 0.980109 0.980109 0.980109
          0.980109 0.980109 0.980109 0.980109 0.980071 0.980071 0.980071 0.980071 0.980071 0.980071 0.980071 0.980071
          0.980071 0.980071 0.980071 0.980071 0.980071 0.980071 0.980071 0.980071 0.980064 0.980065 0.980065 0.980065
          0.980065 0.980065 0.980065 0.980065 0.980065 0.980065 0.980065 0.980064 0.980064 0.980064 0.980064 0.980064
          0.980087 0.980087 0.980088 0.980088 0.980088 0.980088 0.980088 0.980088 0.980088 0.980088 0.980088 0.980087
          0.980087 0.980087 0.980087 0.980087 0.980134 0.980134 0.980134 0.980134 0.980135 0.980135 0.980135 0.980135
          0.980134 0.980134 0.980134 0.980134 0.980134 0.980134 0.980134 0.980134 0.980211 0.980211 0.980212 0.980212
          0.980212 0.980212 0.980213 0.980212 0.980212 0.980212 0.980212 0.980211 0.980211 0.980211 0.980211 0.980211
          0.980325 0.980325 0.980325 0.980326 0.980326 0.980327 0.980327 0.980327 0.980326 0.980326 0.980326 0.980325
          0.980325 0.980324 0.980324 0.980323 0.980475 0.980475 0.980476 0.980477 0.980478 0.980478 0.980479 0.980478
          0.980478 0.980477 0.980477 0.980476 0.980475 0.980474 0.980474 0.980473 0.980658 0.980659 0.980661 0.980662
          0.980664 0.980664 0.980664 0.980664 0.980663 0.980662 0.980661 0.98066 0.980659 0.980658 0.980657 0.980655
          0.980866 0.980869 0.980873 0.980875 0.980876 0.980877 0.980877 0.980876 0.980875 0.980874 0.980873 0.980872
          0.98087 0.980869 0.980868 0.980862
        </DataArray>
        <DataArray type="Float32" Name="x_liquid^H2O" NumberOfComponents="1" format="ascii">
          0.999986 0.999986 0.999986 0.999986 0.999986 0.999986 0.999986 0.999986 0.999986 0.999986 0.999986 0.999986
          0.999986 0.999986 0.999986 0.999986 0.999986 0.999986 0.999986 0.999986 0.999986 0.999986 0.999986 0.999986
          0.999986 0.999986 0.999986 0.999986 0.999986 0.999986 0.999986 0.999986 0.999987 0.999987 0.999987 0.999987
          0.999987 0.999987 0.999987 0.999987 0.999987 0.999987 0.999987 0.999987 0.999987 0.999987 0.999987 0.999987
          0.999987 0.999987 0.999987 0.999987 0.999987 0.999987 0.999987 0.999987 0.999987 0.999987 0.999987 0.999987
          0.999987 0.999987 0.999987 0.999987 0.999987 0.999987 0.999987 0.999987 0.999987 0.999987 0.999987 0.999987
          0.999987 0.999987 0.999987 0.999987 0.999987 0.999987 0.999987 0.999987 0.999987 0.999987 0.999987 0.999987
          0.999987 0.999987 0.999987 0.999987 0.999987 0.999987 0.999987 0.999987 0.999987 0.999987 0.999987 0.999987
          0.999987 0.999987 0.999987 0.999987 0.999987 0.999987 0.999987 0.999987 0.999987 0.999987 0.999987 0.999987
          0.999987 0.999987 0.999987 0.999987 0.999987 0.999987 0.999987 0.999987 0.999987 0.999987 0.999987 0.999987
          0.999987 0.999987 0.999987 0.999987 0.999987 0.999987 0.999987 0.999987 0.999987 0.999987 0.999987 0.999987
          0.999987 0.999987 0.999987 0.999987 0.999987 0.999987 0.999987 0.999987 0.999987 0.999987 0.999987 0.999987
          0.999987 0.999987 0.999987 0.999987 0.999987 0.999987 0.999987 0.999987 0.999987 0.999987 0.999987 0.999987
          0.999987 0.999987 0.999987 0.999987 0.999987 0.999987 0.999987 0.999987 0.999987 0.999987 0.999987 0.999987
          0.999987 0.999987 0.999987 0.999987 0.999987 0.999987 0.999987 0.999987 0.999986 0.999986 0.999986 0.999986
          0.999986 0.999986 0.999986 0.999986 0.999986 0.999986 0.999986 0.999986 0.999986 0.999986 0.999986 0.999986
          0.999986 0.999986 0.999986 0.999986 0.999986 0.999986 0.999986 0.999986 0.999986 0.999986 0.999986 0.999986
          0.999986 0.999986 0.999986 0.999986
        </DataArray>
        <DataArray type="Float32" Name="x_liquid^Air" NumberOfComponents="1" format="ascii">