<?xml version="1.0"?>
<VTKFile type="UnstructuredGrid" version="0.1" byte_order="LittleEndian">
  <UnstructuredGrid>
    <Piece NumberOfCells="180" NumberOfPoints="208">
      <PointData Scalars="Sn" Vectors="velocityW">
        <DataArray type="Float32" Name="Sn" NumberOfComponents="1" format="ascii">
          0.0100516 0.0100516 0.0101095 0.0101095 0.0100516 0.0101095 0.0100516 0.0101095 0.0100516 0.0101095 0.0100516 0.0101095
          0.0100516 0.0101095 0.0100516 0.0101095 0.0100516 0.0101095 0.0100516 0.0101095 0.0100516 0.0101095 0.0100516 0.0101095
          0.0100516 0.0101095 0.0100516 0.0101095 0.0100516 0.0101095 0.0100516 0.0101095 0.0101528 0.0101528 0.0101528 0.0101528
          0.0101528 0.0101528 0.0101528 0.0101528 0.0101528 0.0101528 0.0101528 0.0101528 0.0101528 0.0101527 0.0101528 0.0101527
          0.0102012 0.0102012 0.0102012 0.0102012 0.0102012 0.0102012 0.0102012 0.0102012 0.0102012 0.0102012 0.0102011 0.0102011
          0.0102011 0.0102011 0.0102011 0.0102011 0.0103938 0.0103938 0.0103938 0.0103938 0.0103938 0.0103938 0.0103938 0.0103938
          0.0103938 0.0103938 0.0103938 0.0103938 0.0103938 0.0103938 0.0103938 0.0103937 0.0113488 0.0113488 0.0113488 0.0113488
          0.0113488 0.0113488 0.0113488 0.0113488 0.0113488 0.0113488 0.0113488 0.0113488 0.0113487 0.0113487 0.0113487 0.0113487
          0.0127517 0.0127517 0.0127517 0.0127517 0.0127517 0.0127517 0.0127517 0.0127517 0.0127517 0.0127517 0.0127517 0.0127517
          0.0127517 0.0127516 0.0127516 0.0127516 0.0143782 0.0143782 0.0143782 0.0143781 0.0143781 0.0143781 0.0143781 0.0143781
          0.0143781 0.0143781 0.0143781 0.0143781 0.0143781 0.0143781 0.0143781 0.0143781 0.0164691 0.0164691 0.0164691 0.0164691
          0.0164691 0.0164691 0.0164691 0.016469 0.016469 0.016469 0.016469 0.016469 0.016469 0.016469 0.016469 0.016469
          0.022698 0.022698 0.0226979 0.0226979 0.0226979 0.0226979 0.0226979 0.0226978 0.0226978 0.0226978 0.0226978 0.0226978
          0.0226978 0.0226978 0.0226977 0.0226977 0.0475076 0.0475075 0.0475074 0.0475074 0.0475073 0.0475073 0.0475073 0.0475073
          0.0475073 0.0475073 0.0475072 0.0475072 0.0475072 0.0475072 0.0475071 0.0475069 0.096405 0.0964046 0.0964045 0.0964044
          0.0964044 0.0964044 0.0964044 0.0964044 0.0964044 0.0964044 0.0964044 0.0964044 0.0964044 0.0964044 0.0964042 0.0964038
          0.173248 0.173247 0.173247 0.173247 0.173247 0.173247 0.173247 0.173247 0.173248 0.173248 0.173248 0.173248
          0.173248 0.173248 0.173248 0.173247
        </DataArray>
        <DataArray type="Float32" Name="Sw" NumberOfComponents="1" format="ascii">
          0.989948 0.989948 0.989891 0.989891 0.989948 0.989891 0.989948 0.989891 0.989948 0.989891 0.989948 0.989891
          0.989948 0.989891 0.989948 0.989891 0.989948 0.989891 0.989948 0.989891 0.989948 0.989891 0.989948 0.989891
          0.989948 0.989891 0.989948 0.989891 0.989948 0.989891 0.989948 0.989891 0.989847 0.989847 0.989847 0.989847
          0.989847 0.989847 0.989847 0.989847 0.989847 0.989847 0.989847 0.989847 0.989847 0.989847 0.989847 0.989847
          0.989799 0.989799 0.989799 0.989799 0.989799 0.989799 0.989799 0.989799 0.989799 0.989799 0.989799 0.989799
          0.989799 0.989799 0.989799 0.989799 0.989606 0.989606 0.989606 0.989606 0.989606 0.989606 0.989606 0.989606
          0.989606 0.989606 0.989606 0.989606 0.989606 0.989606 0.989606 0.989606 0.988651 0.988651 0.988651 0.988651
          0.988651 0.988651 0.988651 0.988651 0.988651 0.988651 0.988651 0.988651 0.988651 0.988651 0.988651 0.988651
          0.987248 0.987248 0.987248 0.987248 0.987248 0.987248 0.987248 0.987248 0.987248 0.987248 0.987248 0.987248
          0.987248 0.987248 0.987248 0.987248 0.985622 0.985622 0.985622 0.985622 0.985622 0.985622 0.985622 0.985622
          0.985622 0.985622 0.985622 0.985622 0.985622 0.985622 0.985622 0.985622 0.983531 0.983531 0.983531 0.983531
          0.983531 0.983531 0.983531 0.983531 0.983531 0.983531 0.983531 0.983531 0.983531 0.983531 0.983531 0.983531
          0.977302 0.977302 0.977302 0.977302 0.977302 0.977302 0.977302 0.977302 0.977302 0.977302 0.977302 0.977302
          0.977302 0.977302 0.977302 0.977302 0.952492 0.952493 0.952493 0.952493 0.952493 0.952493 0.952493 0.952493
          0.952493 0.952493 0.952493 0.952493 0.952493 0.952493 0.952493 0.952493 0.903595 0.903595 0.903596 0.903596
          0.903596 0.903596 0.903596 0.903596 0.903596 0.903596 0.903596 0.903596 0.903596 0.903596 0.903596 0.903596
          0.826752 0.826753 0.826753 0.826753 0.826753 0.826753 0.826753 0.826753 0.826752 0.826752 0.826752 0.826752
          0.826752 0.826752 0.826752 0.826753
        </DataArray>
        <DataArray type="Float32" Name="pn" NumberOfComponents="1" format="ascii">
          101149 101149 100833 100833 101149 100833 101149 100833 101149 100833 101149 100833
          101149 100833 101149 100833 101149 100833 101149 100833 101149 100833 101149 100833
          101149 100833 101149 100833 101149 100833 101149 100833 100544 100544 100544 100544
          100544 100544 100544 100544 100544 100544 100544 100544 100544 100544 100544 100544
          100283 100283 100283 100283 100283 100283 100283 100283 100283 100283 100283 100283
          100283 100283 100283 100283 100072 100072 100072 100072 100072 100072 100072 100072
          100072 100072 100072 100072 100072 100072 100072 100072 100006 100006 100006 100006
          100006 100006 100006 100006 100006 100006 100006 100006 100006 100006 100006 100006
          100002 100002 100002 100002 100002 100002 100002 100002 100002 100002 100002 100002
          100002 100002 100002 100002 100001 100001 100001 100001 100001 100001 100001 100001
          100001 100001 100001 100001 100001 100001 100001 100001 100001 100001 100001 100001
          100001 100001 100001 100001 100001 100001 100001 100001 100001 100001 100001 100001
          100000 100000 100000 100000 100000 100000 100000 100000 100000 100000 100000 100000
          100000 100000 100000 100000 100000 100000 100000 100000 100000 100000 100000 100000
          100000 100000 100000 100000 100000 100000 100000 100000 100000 100000 100000 100000
          100000 100000 100000 100000 100000 100000 100000 100000 100000 100000 100000 100000
          100000 100000 100000 100000 100000 100000 100000 100000 100000 100000 100000 100000
          100000 100000 100000 100000
        </DataArray>
        <DataArray type="Float32" Name="pw" NumberOfComponents="1" format="ascii">
          101139 101139 100813 100813 101139 100813 101139 100813 101139 100813 101139 100813
          101139 100813 101139 100813 101139 100813 101139 100813 101139 100813 101139 100813
          101139 100813 101139 100813 101139 100813 101139 100813 100516 100516 100516 100516
          100516 100516 100516 100516 100516 100516 100516 100516 100516 100516 100516 100516
          100247 100247 100247 100247 100247 100247 100247 100247 100247 100247 100247 100247
          100247 100247 100247 100247 100002 100002 100002 100002 100002 100002 100002 100002
          100002 100002 100002 100002 100002 100002 100002 100002 99778.8 99778.8 99778.8 99778.8
          99778.8 99778.8 99778.8 99778.8 99778.8 99778.8 99778.8 99778.8 99778.8 99778.8 99778.8 99778.8
          99576.2 99576.2 99576.2 99576.2 99576.2 99576.2 99576.2 99576.2 99576.2 99576.2 99576.2 99576.2
          99576.2 99576.2 99576.2 99576.2 99392 99392 99392 99392 99392 99392 99392 99392
          99392 99392 99392 99392 99392 99392 99392 99392 99224.6 99224.6 99224.6 99224.6
          99224.6 99224.6 99224.6 99224.6 99224.6 99224.6 99224.6 99224.6 99224.6 99224.6 99224.6 99224.6
          99072.4 99072.4 99072.4 99072.4 99072.4 99072.4 99072.4 99072.4 99072.4 99072.4 99072.4 99072.4
          99072.4 99072.4 99072.4 99072.4 98934 98934 98934 98934 98934 98934 98934 98934
          98934 98934 98934 98934 98934 98934 98934 98934 98808.1 98808.1 98808.1 98808.1
          98808.1 98808.1 98808.1 98808.1 98808.1 98808.1 98808.1 98808.1 98808.1 98808.1 98808.1 98808.1
          98693.7 98693.7 98693.7 98693.7 98693.7 98693.7 98693.7 98693.7 98693.7 98693.7 98693.7 98693.7
          98693.7 98693.7 98693.7 98693.7
        </DataArray>
        <DataArray type="Float32" Name="pc" NumberOfComponents="1" format="ascii">
          9.38355 9.38348 19.8537 19.8539 9.3835 19.854 9.38352 19.8538 9.3835 19.8537 9.38348 19.8537
          9.38349 19.8539 9.38362 19.8533 9.38348 19.8526 9.38362 19.853 9.38371 19.8533 9.38347 19.8532
          9.38364 19.853 9.3835 19.8529 9.38353 19.8532 9.38339 19.853 27.6332 27.633 27.6331 27.6332
          27.633 27.6322 27.6324 27.6319 27.6319 27.6317 27.6317 27.6313 27.6315 27.6309 27.6312 27.631
          36.289 36.2889 36.2886 36.2883 36.2878 36.2867 36.2863 36.2859 36.2855 36.2851 36.2848 36.2845
          36.284 36.2831 36.2836 36.283 70.2572 70.2567 70.2563 70.2544 70.2531 70.2525 70.2511 70.2494
          70.2476 70.2467 70.2459 70.2443 70.2437 70.2426 70.2421 70.2417 227.444 227.444 227.443 227.443
          227.442 227.441 227.44 227.438 227.437 227.436 227.435 227.434 227.433 227.433 227.432 227.432
          425.61 425.61 425.61 425.609 425.609 425.608 425.608 425.607 425.607 425.606 425.605 425.605
          425.605 425.604 425.604 425.604 608.915 608.915 608.915 608.914 608.914 608.914 608.913 608.913
          608.913 608.912 608.912 608.912 608.911 608.911 608.911 608.911 776.029 776.028 776.028 776.028
          776.028 776.027 776.027 776.027 776.027 776.027 776.026 776.026 776.026 776.026 776.026 776.025
          928.076 928.076 928.075 928.075 928.075 928.075 928.075 928.075 928.075 928.074 928.074 928.074
          928.074 928.074 928.073 928.073 1066.32 1066.32 1066.32 1066.32 1066.32 1066.31 1066.31 1066.31
          1066.31 1066.31 1066.31 1066.31 1066.31 1066.31 1066.31 1066.31 1192 1192 1192 1192
          1192 1192 1192 1192 1192 1192 1192 1192 1192 1192 1192 1191.99
          1306.26 1306.26 1306.26 1306.26 1306.26 1306.26 1306.26 1306.26 1306.26 1306.26 1306.26 1306.26
          1306.26 1306.26 1306.26 1306.26
        </DataArray>
        <DataArray type="Float32" Name="rhoW" NumberOfComponents="1" format="ascii">
          997.056 997.056 997.057 997.057 997.056 997.057 997.056 997.057 997.056 997.057 997.056 997.057
          997.056 997.057 997.056 997.057 997.056 997.057 997.056 997.057 997.056 997.057 997.056 997.057
          997.056 997.057 997.056 997.057 997.056 997.057 997.056 997.057 997.057 997.057 997.057 997.057
          997.057 997.057 997.057 997.057 997.057 997.057 997.057 997.057 997.057 997.057 997.057 997.057
          997.06 997.06 997.06 997.06 997.06 997.06 997.06 997.06 997.06 997.06 997.06 997.06
          997.06 997.06 997.06 997.06 997.066 997.066 997.066 997.066 997.066 997.066 997.066 997.066
          997.066 997.066 997.066 997.066 997.066 997.066 997.066 997.066 997.079 997.079 997.079 997.079
          997.079 997.079 997.079 997.079 997.079 997.079 997.079 997.079 997.079 997.079 997.079 997.079
          997.102 997.102 997.102 997.102 997.102 997.102 997.102 997.102 997.102 997.102 997.103 997.103
          997.103 997.103 997.103 997.103 997.138 997.138 997.138 997.138 997.138 997.138 997.138 997.138
          997.139 997.139 997.139 997.139 997.139 997.139 997.139 997.139 997.188 997.188 997.188 997.188
          997.188 997.188 997.189 997.189 997.189 997.189 997.19 997.19 997.19 997.19 997.19 997.19
          997.25 997.25 997.25 997.251 997.251 997.252 997.252 997.252 997.253 997.253 997.253 997.254
          997.254 997.254 997.254 997.254 997.322 997.322 997.323 997.323 997.324 997.324 997.325 997.326
          997.326 997.326 997.327 997.327 997.328 997.328 997.328 997.328 997.399 997.4 997.4 997.401
          997.402 997.403 997.403 997.404 997.405 997.406 997.406 997.407 997.407 997.408 997.408 997.408
          997.477 997.478 997.479 997.48 997.481 997.482 997.483 997.484 997.485 997.486 997.487 997.488
          997.488 997.489 997.49 997.49
        </DataArray>
        <DataArray type="Float32" Name="rhoN" NumberOfComponents="1" format="ascii">
          1.16769 1.16769 1.16401 1.16401 1.16769 1.16401 1.16769 1.16401 1.16769 1.16401 1.16769 1.16401
          1.16769 1.16401 1.16769 1.16401 1.16769 1.16401 1.16769 1.16401 1.16769 1.16401 1.16769 1.16401
          1.16769 1.16401 1.16769 1.16401 1.16769 1.16401 1.16769 1.16401 1.16066 1.16066 1.16066 1.16066
          1.16066 1.16066 1.16066 1.16066 1.16066 1.16066 1.16066 1.16066 1.16066 1.16066 1.16066 1.16066
          1.15766 1.15766 1.15766 1.15766 1.15766 1.15766 1.15766 1.15766 1.15766 1.15766 1.15766 1.15766
          1.15766 1.15766 1.15766 1.15766 1.15531 1.15531 1.15531 1.15531 1.15531 1.15531 1.15531 1.15531
          1.15531 1.15531 1.15531 1.15531 1.15531 1.15531 1.15531 1.15531 1.15478 1.15478 1.15478 1.15478
          1.15478 1.15478 1.15478 1.15478 1.15478 1.15478 1.15478 1.15478 1.15478 1.15478 1.15478 1.15478
          1.15515 1.15515 1.15515 1.15515 1.15515 1.15515 1.15515 1.15516 1.15516 1.15516 1.15516 1.15516
          1.15516 1.15516 1.15516 1.15516 1.1558 1.1558 1.1558 1.15581 1.15581 1.15581 1.15581 1.15582
          1.15582 1.15582 1.15582 1.15583 1.15583 1.15583 1.15583 1.15583 1.15673 1.15673 1.15673 1.15673
          1.15674 1.15674 1.15675 1.15675 1.15676 1.15676 1.15676 1.15677 1.15677 1.15677 1.15678 1.15678
          1.1579 1.1579 1.15791 1.15791 1.15792 1.15793 1.15794 1.15794 1.15795 1.15796 1.15796 1.15797
          1.15797 1.15798 1.15798 1.15798 1.15927 1.15927 1.15928 1.15929 1.1593 1.15931 1.15932 1.15933
          1.15934 1.15935 1.15936 1.15937 1.15937 1.15938 1.15938 1.15939 1.16074 1.16075 1.16076 1.16078
          1.16079 1.16081 1.16082 1.16084 1.16085 1.16086 1.16088 1.16089 1.1609 1.16091 1.16092 1.16092
          1.16226 1.16227 1.16229 1.16232 1.16234 1.16236 1.16238 1.1624 1.16241 1.16243 1.16245 1.16246
          1.16247 1.16249 1.1625 1.16251
        </DataArray>
        <DataArray type="Float32" Name="mobW" NumberOfComponents="1" format="ascii">
          1123.57 1123.57 1123.53 1123.53 1123.57 1123.53 1123.57 1123.53 1123.57 1123.53 1123.57 1123.53
          1123.57 1123.53 1123.57 1123.53 1123.57 1123.53 1123.57 1123.53 1123.57 1123.53 1123.57 1123.53
          1123.57 1123.53 1123.57 1123.53 1123.57 1123.53 1123.57 1123.53 1123.43 1123.43 1123.43 1123.43
          1123.43 1123.43 1123.43 1123.42 1123.42 1123.42 1123.42 1123.42 1123.42 1123.42 1123.42 1123.42
          1123.15 1123.15 1123.15 1123.15 1123.15 1123.15 1123.15 1123.15 1123.15 1123.15 1123.15 1123.15
          1123.15 1123.15 1123.15 1123.15 1122.51 1122.51 1122.51 1122.51 1122.5 1122.5 1122.5 1122.5
          1122.5 1122.5 1122.5 1122.5 1122.49 1122.49 1122.49 1122.49 1121.08 1121.08 1121.08 1121.08
          1121.07 1121.07 1121.07 1121.06 1121.06 1121.06 1121.05 1121.05 1121.05 1121.05 1121.05 1121.05
          1118.33 1118.33 1118.33 1118.32 1118.31 1118.31 1118.3 1118.29 1118.28 1118.28 1118.27 1118.27
          1118.26 1118.26 1118.25 1118.25 1113.83 1113.83 1113.82 1113.81 1113.8 1113.78 1113.77 1113.76
          1113.74 1113.73 1113.72 1113.71 1113.7 1113.69 1113.68 1113.68 1107.08 1107.08 1107.06 1107.04
          1107.02 1106.99 1106.97 1106.94 1106.92 1106.9 1106.88 1106.86 1106.84 1106.83 1106.82 1106.82
          1092.11 1092.1 1092.08 1092.04 1092 1091.96 1091.92 1091.88 1091.85 1091.81 1091.78 1091.75
          1091.72 1091.7 1091.69 1091.68 1009.49 1009.47 1009.43 1009.38 1009.33 1009.27 1009.22 1009.17
          1009.12 1009.07 1009.03 1008.99 1008.95 1008.92 1008.9 1008.89 787.543 787.52 787.469 787.41
          787.348 787.288 787.23 787.175 787.122 787.072 787.025 786.98 786.939 786.903 786.874 786.863
          584.051 584.008 583.949 583.887 583.825 583.766 583.71 583.656 583.605 583.557 583.51 583.467
          583.426 583.388 583.356 583.337
        </DataArray>
        <DataArray type="Float32" Name="mobN" NumberOfComponents="1" format="ascii">
          8.48318e-05 8.48304e-05 0.000407054 0.000407064 8.48309e-05 0.000407067 8.48313e-05 0.000407061 8.48308e-05 0.000407055 8.48305e-05 0.000407054
          8.48306e-05 0.000407062 8.48331e-05 0.000407037 8.48304e-05 0.000407006 8.4833e-05 0.000407026 8.48347e-05 0.00040704 8.48302e-05 0.000407034
          8.48334e-05 0.000407027 8.48308e-05 0.000407022 8.48314e-05 0.000407032 8.48288e-05 0.000407025 0.000814835 0.000814818 0.000814824 0.00081483
          0.000814822 0.000814773 0.000814783 0.000814753 0.000814748 0.000814737 0.000814737 0.000814717 0.000814725 0.000814691 0.000814706 0.000814696
          0.00144597 0.00144596 0.00144594 0.00144591 0.00144587 0.00144578 0.00144574 0.00144571 0.00144568 0.00144565 0.00144562 0.00144559
          0.00144555 0.00144548 0.00144552 0.00144547 0.00586129 0.00586121 0.00586114 0.00586081 0.00586056 0.00586046 0.00586021 0.0058599
          0.00585959 0.00585944 0.00585929 0.005859 0.0058589 0.00585871 0.00585861 0.00585854 0.0761735 0.0761734 0.0761729 0.0761725
          0.0761718 0.076171 0.0761702 0.0761693 0.0761685 0.0761676 0.0761669 0.0761663 0.0761656 0.0761652 0.0761649 0.0761648
          0.33643 0.336429 0.336429 0.336428 0.336427 0.336426 0.336425 0.336424 0.336423 0.336422 0.336421 0.33642
          0.33642 0.336419 0.336419 0.336418 0.885312 0.885312 0.885311 0.88531 0.88531 0.885309 0.885308 0.885308
          0.885307 0.885306 0.885306 0.885305 0.885304 0.885303 0.885303 0.885302 1.9969 1.9969 1.9969 1.9969
          1.9969 1.9969 1.9969 1.99691 1.99691 1.99691 1.99691 1.99691 1.99691 1.99691 1.99691 1.99691
          8.13562 8.13557 8.13554 8.13553 8.13553 8.13554 8.13554 8.13554 8.13555 8.13555 8.13555 8.13555
          8.13554 8.13553 8.13549 8.13543 77.4793 77.4788 77.4787 77.4788 77.479 77.4792 77.4795 77.4797
          77.4799 77.4801 77.4803 77.4804 77.4805 77.4806 77.4803 77.4797 438.182 438.179 438.18 438.182
          438.184 438.187 438.189 438.192 438.194 438.196 438.198 438.2 438.201 438.202 438.202 438.198
          1632.79 1632.78 1632.79 1632.8 1632.82 1632.83 1632.84 1632.86 1632.87 1632.88 1632.89 1632.9
          1632.91 1632.92 1632.93 1632.91
        </DataArray>
        <DataArray type="Float32" Name="X_liquid^H2O" NumberOfComponents="1" format="ascii">
          0.999978 0.999978 0.999978 0.999978 0.999978 0.999978 0.999978 0.999978 0.999978 0.999978 0.999978 0.999978
          0.999978 0.999978 0.999978 0.999978 0.999978 0.999978 0.999978 0.999978 0.999978 0.999978 0.999978 0.999978
          0.999978 0.999978 0.999978 0.999978 0.999978 0.999978 0.999978 0.999978 0.999978 0.999978 0.999978 0.999978
          0.999978 0.999978 0.999978 0.999978 0.999978 0.999978 0.999978 0.999978 0.999978 0.999978 0.999978 0.999978
          0.999978 0.999978 0.999978 0.999978 0.999978 0.999978 0.999978 0.999978 0.999978 0.999978 0.999978 0.999978
          0.999978 0.999978 0.999978 0.999978 0.999978 0.999978 0.999978 0.999978 0.999978 0.999978 0.999978 0.999978
          0.999978 0.999978 0.999978 0.999978 0.999978 0.999978 0.999978 0.999978 0.999978 0.999978 0.999978 0.999978
          0.999978 0.999978 0.999978 0.999978 0.999978 0.999978 0.999978 0.999978 0.999978 0.999978 0.999978 0.999978
          0.999978 0.999978 0.999978 0.999978 0.999978 0.999978 0.999978 0.999978 0.999978 0.999978 0.999978 0.999978
          0.999978 0.999978 0.999978 0.999978 0.999978 0.999978 0.999978 0.999978 0.999978 0.999978 0.999978 0.999978
          0.999978 0.999978 0.999978 0.999978 0.999978 0.999978 0.999978 0.999978 0.999978 0.999978 0.999978 0.999978
          0.999978 0.999978 0.999978 0.999978 0.999978 0.999978 0.999978 0.999978 0.999978 0.999978 0.999978 0.999978
          0.999978 0.999978 0.999978 0.999978 0.999978 0.999978 0.999978 0.999978 0.999978 0.999978 0.999978 0.999978
          0.999978 0.999978 0.999978 0.999978 0.999978 0.999978 0.999978 0.999978 0.999978 0.999978 0.999978 0.999978
          0.999978 0.999978 0.999978 0.999978 0.999978 0.999978 0.999978 0.999978 0.999978 0.999978 0.999978 0.999978
          0.999978 0.999978 0.999978 0.999978 0.999978 0.999978 0.999978 0.999978 0.999978 0.999978 0.999978 0.999978
          0.999978 0.999978 0.999978 0.999978 0.999978 0.999978 0.999978 0.999978 0.999978 0.999978 0.999978 0.999978
          0.999978 0.999978 0.999978 0.999978
        </DataArray>
        <DataArray type="Float32" Name="X_liquid^Air" NumberOfComponents="1" format="ascii">
          2.18024e-05 2.18024e-05 2.17327e-05 2.17327e-05 2.18024e-05 2.17327e-05 2.18024e-05 2.17327e-05 2.18024e-05 2.17327e-05 2.18024e-05 2.17327e-05
          2.18024e-05 2.17327e-05 2.18024e-05 2.17327e-05 2.18024e-05 2.17327e-05 2.18024e-05 2.17327e-05 2.18024e-05 2.17327e-05 2.18024e-05 2.17327e-05
          2.18024e-05 2.17327e-05 2.18024e-05 2.17327e-05 2.18024e-05 2.17327e-05 2.18024e-05 2.17327e-05 2.167e-05 2.167e-05 2.167e-05 2.167e-05
          2.167e-05 2.167e-05 2.167e-05 2.167e-05 2.167e-05 2.167e-05 2.167e-05 2.167e-05 2.167e-05 2.167e-05 2.167e-05 2.167e-05
          2.16159e-05 2.16159e-05 2.16159e-05 2.16159e-05 2.16159e-05 2.16159e-05 2.16159e-05 2.16159e-05 2.16159e-05 2.1616e-05 2.1616e-05 2.1616e-05
          2.1616e-05 2.1616e-05 2.1616e-05 2.1616e-05 2.15783e-05 2.15783e-05 2.15783e-05 2.15783e-05 2.15783e-05 2.15784e-05 2.15784e-05 2.15784e-05
          2.15784e-05 2.15784e-05 2.15785e-05 2.15785e-05 2.15785e-05 2.15785e-05 2.15785e-05 2.15785e-05 2.15828e-05 2.15828e-05 2.15828e-05 2.15829e-05
          2.15829e-05 2.1583e-05 2.1583e-05 2.15831e-05 2.15831e-05 2.15832e-05 2.15832e-05 2.15833e-05 2.15833e-05 2.15833e-05 2.15833e-05 2.15833e-05
          2.16159e-05 2.16159e-05 2.1616e-05 2.16161e-05 2.16162e-05 2.16163e-05 2.16164e-05 2.16165e-05 2.16166e-05 2.16167e-05 2.16168e-05 2.16169e-05
          2.1617e-05 2.1617e-05 2.16171e-05 2.16171e-05 2.16695e-05 2.16695e-05 2.16696e-05 2.16698e-05 2.167e-05 2.16702e-05 2.16704e-05 2.16706e-05
          2.16708e-05 2.1671e-05 2.16712e-05 2.16714e-05 2.16715e-05 2.16716e-05 2.16717e-05 2.16717e-05 2.17452e-05 2.17453e-05 2.17455e-05 2.17458e-05
          2.17461e-05 2.17465e-05 2.17469e-05 2.17473e-05 2.17476e-05 2.1748e-05 2.17483e-05 2.17486e-05 2.17488e-05 2.1749e-05 2.17492e-05 2.17492e-05
          2.18419e-05 2.1842e-05 2.18424e-05 2.18429e-05 2.18435e-05 2.18442e-05 2.18448e-05 2.18454e-05 2.18459e-05 2.18465e-05 2.1847e-05 2.18474e-05
          2.18478e-05 2.18482e-05 2.18484e-05 2.18485e-05 2.19555e-05 2.19557e-05 2.19564e-05 2.19573e-05 2.19582e-05 2.19591e-05 2.196e-05 2.19609e-05
          2.19617e-05 2.19625e-05 2.19632e-05 2.19639e-05 2.19645e-05 2.19651e-05 2.19655e-05 2.19656e-05 2.208e-05 2.20805e-05 2.20816e-05 2.20829e-05
          2.20843e-05 2.20856e-05 2.20868e-05 2.2088e-05 2.20892e-05 2.20903e-05 2.20913e-05 2.20923e-05 2.20932e-05 2.2094e-05 2.20946e-05 2.20949e-05
          2.22093e-05 2.22106e-05 2.22123e-05 2.22141e-05 2.2216e-05 2.22177e-05 2.22194e-05 2.22209e-05 2.22224e-05 2.22239e-05 2.22252e-05 2.22265e-05
          2.22277e-05 2.22288e-05 2.22298e-05 2.22304e-05
        </DataArray>
        <DataArray type="Float32" Name="X_gas^H2O" NumberOfComponents="1" format="ascii">
          0.0197275 0.0197275 0.0197883 0.0197883 0.0197275 0.0197883 0.0197275 0.0197883 0.0197275 0.0197883 0.0197275 0.0197883
          0.0197275 0.0197883 0.0197275 0.0197883 0.0197275 0.0197883 0.0197275 0.0197883 0.0197275 0.0197882 0.0197275 0.0197882
          0.0197275 0.0197882 0.0197275 0.0197882 0.0197275 0.0197882 0.0197275 0.0197882 0.0198411 0.0198411 0.0198411 0.0198411
          0.0198411 0.0198411 0.019841 0.019841 0.019841 0.019841 0.019841 0.019841 0.019841 0.019841 0.019841 0.019841
          0.0198806 0.0198806 0.0198806 0.0198806 0.0198806 0.0198805 0.0198805 0.0198805 0.0198805 0.0198804 0.0198804 0.0198804
          0.0198804 0.0198804 0.0198804 0.0198804 0.0198932 0.0198932 0.0198932 0.0198931 0.0198931 0.019893 0.0198929 0.0198929
          0.0198928 0.0198927 0.0198927 0.0198926 0.0198926 0.0198926 0.0198925 0.0198925 0.0198458 0.0198457 0.0198457 0.0198455
          0.0198454 0.0198452 0.0198451 0.0198449 0.0198447 0.0198446 0.0198444 0.0198443 0.0198442 0.0198441 0.0198441 0.0198441
          0.0197391 0.0197391 0.0197389 0.0197387 0.0197383 0.019738 0.0197376 0.0197373 0.0197369 0.0197366 0.0197363 0.0197361
          0.0197358 0.0197356 0.0197355 0.0197355 0.0195716 0.0195715 0.0195711 0.0195706 0.01957 0.0195693 0.0195687 0.019568
          0.0195673 0.0195667 0.0195662 0.0195657 0.0195652 0.0195649 0.0195647 0.0195646 0.0193388 0.0193386 0.0193379 0.019337
          0.0193359 0.0193347 0.0193336 0.0193325 0.0193314 0.0193303 0.0193294 0.0193285 0.0193277 0.0193271 0.0193267 0.0193266
          0.0190475 0.0190471 0.019046 0.0190444 0.0190426 0.0190408 0.019039 0.0190372 0.0190355 0.019034 0.0190325 0.0190311
          0.0190299 0.0190288 0.0190282 0.0190279 0.0187138 0.018713 0.0187111 0.0187086 0.0187059 0.0187032 0.0187006 0.0186981
          0.0186957 0.0186935 0.0186913 0.0186893 0.0186875 0.0186859 0.0186848 0.0186844 0.0183578 0.0183563 0.0183532 0.0183496
          0.0183458 0.0183421 0.0183386 0.0183352 0.018332 0.018329 0.0183261 0.0183233 0.0183208 0.0183186 0.0183168 0.0183161
          0.0179991 0.0179954 0.0179907 0.0179857 0.0179807 0.017976 0.0179714 0.0179671 0.017963 0.0179592 0.0179555 0.017952
          0.0179487 0.0179457 0.0179431 0.0179413
        </DataArray>
        <DataArray type="Float32" Name="X_gas^Air" NumberOfComponents="1" format="ascii">
          0.980272 0.980272 0.980212 0.980212 0.980272 0.980212 0.980272 0.980212 0.980272 0.980212 0.980272 0.980212
          0.980272 0.980212 0.980272 0.980212 0.980272 0.980212 0.980272 0.980212 0.980272 0.980212 0.980272 0.980212
          0.980272 0.980212 0.980272 0.980212 0.980272 0.980212 0.980272 0.980212 0.980159 0.980159 0.980159 0.980159
          0.980159 0.980159 0.980159 0.980159 0.980159 0.980159 0.980159 0.980159 0.980159 0.980159 0.980159 0.980159
          0.980119 0.980119 0.980119 0.980119 0.980119 0.980119 0.980119 0.98012 0.98012 0.98012 0.98012 0.98012
          0.98012 0.98012 0.98012 0.98012 0.980107 0.980107 0.980107 0.980107 0.980107 0.980107 0.980107 0.980107
          0.980107 0.980107 0.980107 0.980107 0.980107 0.980107 0.980107 0.980107 0.980154 0.980154 0.980154 0.980154
          0.980155 0.980155 0.980155 0.980155 0.980155 0.980155 0.980156 0.980156 0.980156 0.980156 0.980156 0.980156
          0.980261 0.980261 0.980261 0.980261 0.980262 0.980262 0.980262 0.980263 0.980263 0.980263 0.980264 0.980264
          0.980264 0.980264 0.980264 0.980264 0.980428 0.980429 0.980429 0.980429 0.98043 0.980431 0.980431 0.980432
          0.980433 0.980433 0.980434 0.980434 0.980435 0.980435 0.980435 0.980435 0.980661 0.980661 0.980662 0.980663
          0.980664 0.980665 0.980666 0.980668 0.980669 0.98067 0.980671 0.980671 0.980672 0.980673 0.980673 0.980673
          0.980953 0.980953 0.980954 0.980956 0.980957 0.980959 0.980961 0.980963 0.980964 0.980966 0.980968 0.980969
          0.98097 0.980971 0.980972 0.980972 0.981286 0.981287 0.981289 0.981291 0.981294 0.981297 0.981299 0.981302
          0.981304 0.981307 0.981309 0.981311 0.981313 0.981314 0.981315 0.981316 0.981642 0.981644 0.981647 0.98165
          0.981654 0.981658 0.981661 0.981665 0.981668 0.981671 0.981674 0.981677 0.981679 0.981681 0.981683 0.981684
          0.982001 0.982005 0.982009 0.982014 0.982019 0.982024 0.982029 0.982033 0.982037 0.982041 0.982045 0.982048
          0.982051 0.982054 0.982057 0.982059
        </DataArray>
        <DataArray type="Float32" Name="x_liquid^H2O" NumberOfComponents="1" format="ascii">
          0.999986 0.999986 0.999986 0.999986 0.999986 0.999986 0.999986 0.999986 0.999986 0.999986 0.999986 0.999986
          0.999986 0.999986 0.999986 0.999986 0.999986 0.999986 0.999986 0.999986 0.999986 0.999986 0.999986 0.999986
          0.999986 0.999986 0.999986 0.999986 0.999986 0.999986 0.999986 0.999986 0.999987 0.999987 0.999987 0.999987
          0.999987 0.999987 0.999987 0.999987 0.999987 0.999987 0.999987 0.999987 0.999987 0.999987 0.999987 0.999987
          0.999987 0.999987 0.999987 0.999987 0.999987 0.999987 0.999987 0.999987 0.999987 0.999987 0.999987 0.999987
          0.999987 0.999987 0.999987 0.999987 0.999987 0.999987 0.999987 0.999987 0.999987 0.999987 0.999987 0.999987
          0.999987 0.999987 0.999987 0.999987 0.999987 0.999987 0.999987 0.999987 0.999987 0.999987 0.999987 0.999987
          0.999987 0.999987 0.999987 0.999987 0.999987 0.999987 0.999987 0.999987 0.999987 0.999987 0.999987 0.999987
          0.999987 0.999987 0.999987 0.999987 0.999987 0.999987 0.999987 0.999987 0.999987 0.999987 0.999987 0.999987
          0.999987 0.999987 0.999987 0.999987 0.999987 0.999987 0.999987 0.999987 0.999987 0.999987 0.999987 0.999987
          0.999987 0.999987 0.999987 0.999987 0.999987 0.999987 0.999987 0.999987 0.999986 0.999986 0.999986 0.999986
          0.999986 0.999986 0.999986 0.999986 0.999986 0.999986 0.999986 0.999986 0.999986 0.999986 0.999986 0.999986
          0.999986 0.999986 0.999986 0.999986 0.999986 0.999986 0.999986 0.999986 0.999986 0.999986 0.999986 0.999986
          0.999986 0.999986 0.999986 0.999986 0.999986 0.999986 0.999986 0.999986 0.999986 0.999986 0.999986 0.999986
          0.999986 0.999986 0.999986 0.999986 0.999986 0.999986 0.999986 0.999986 0.999986 0.999986 0.999986 0.999986
          0.999986 0.999986 0.999986 0.999986 0.999986 0.999986 0.999986 0.999986 0.999986 0.999986 0.999986 0.999986
          0.999986 0.999986 0.999986 0.999986 0.999986 0.999986 0.999986 0.999986 0.999986 0.999986 0.999986 0.999986
          0.999986 0.999986 0.999986 0.999986
        </DataArray>
        <DataArray type="Float32" Name="x_liquid^Air" NumberOfComponents="1" format="ascii">