<?xml version="1.0"?>
<VTKFile type="UnstructuredGrid" version="0.1" byte_order="LittleEndian">
  <UnstructuredGrid>
    <Piece NumberOfCells="180" NumberOfPoints="208">
      <PointData Scalars="Sn" Vectors="velocityW">
        <DataArray type="Float32" Name="Sn" NumberOfComponents="1" format="ascii">
          0.0100504 0.0100504 0.0101068 0.0101068 0.0100504 0.0101068 0.0100504 0.0101068 0.0100504 0.0101068 0.0100504 0.0101068
          0.0100504 0.0101068 0.0100504 0.0101068 0.0100504 0.0101068 0.0100504 0.0101068 0.0100504 0.0101068 0.0100504 0.0101068
          0.0100504 0.0101068 0.0100504 0.0101068 0.0100504 0.0101068 0.0100504 0.0101068 0.010149 0.010149 0.010149 0.010149
          0.010149 0.010149 0.010149 0.010149 0.010149 0.010149 0.010149 0.010149 0.010149 0.010149 0.010149 0.010149
          0.0101962 0.0101961 0.0101961 0.0101961 0.0101961 0.0101961 0.0101961 0.0101961 0.0101961 0.0101961 0.0101961 0.0101961
          0.0101961 0.0101961 0.0101961 0.0101961 0.0103877 0.0103877 0.0103877 0.0103877 0.0103877 0.0103877 0.0103877 0.0103877
          0.0103877 0.0103877 0.0103876 0.0103876 0.0103876 0.0103876 0.0103876 0.0103876 0.0113505 0.0113505 0.0113505 0.0113505
          0.0113505 0.0113505 0.0113505 0.0113504 0.0113504 0.0113504 0.0113504 0.0113504 0.0113504 0.0113504 0.0113504 0.0113504
          0.012756 0.012756 0.012756 0.012756 0.012756 0.012756 0.012756 0.012756 0.0127559 0.0127559 0.0127559 0.0127559
          0.0127559 0.0127559 0.0127559 0.0127559 0.0143844 0.0143844 0.0143844 0.0143844 0.0143844 0.0143843 0.0143843 0.0143843
          0.0143843 0.0143843 0.0143843 0.0143843 0.0143843 0.0143843 0.0143843 0.0143843 0.0164792 0.0164792 0.0164791 0.0164791
          0.0164791 0.0164791 0.0164791 0.0164791 0.0164791 0.0164791 0.0164791 0.0164791 0.0164791 0.0164791 0.0164791 0.0164791
          0.0227662 0.0227662 0.0227662 0.0227661 0.0227661 0.0227661 0.0227661 0.0227661 0.0227661 0.0227661 0.022766 0.022766
          0.022766 0.022766 0.022766 0.0227659 0.0476783 0.0476782 0.0476781 0.0476781 0.0476781 0.047678 0.047678 0.047678
          0.047678 0.047678 0.0476779 0.0476779 0.0476779 0.0476779 0.0476778 0.0476776 0.0967374 0.096737 0.0967369 0.0967368
          0.0967368 0.0967368 0.0967368 0.0967368 0.0967368 0.0967368 0.0967368 0.0967368 0.0967368 0.0967368 0.0967367 0.0967362
          0.173769 0.173768 0.173768 0.173768 0.173768 0.173768 0.173768 0.173768 0.173768 0.173768 0.173768 0.173769
          0.173769 0.173769 0.173769 0.173767
        </DataArray>
        <DataArray type="Float32" Name="Sw" NumberOfComponents="1" format="ascii">
          0.98995 0.98995 0.989893 0.989893 0.98995 0.989893 0.98995 0.989893 0.98995 0.989893 0.98995 0.989893
          0.98995 0.989893 0.98995 0.989893 0.98995 0.989893 0.98995 0.989893 0.98995 0.989893 0.98995 0.989893
          0.98995 0.989893 0.98995 0.989893 0.98995 0.989893 0.98995 0.989893 0.989851 0.989851 0.989851 0.989851
          0.989851 0.989851 0.989851 0.989851 0.989851 0.989851 0.989851 0.989851 0.989851 0.989851 0.989851 0.989851
          0.989804 0.989804 0.989804 0.989804 0.989804 0.989804 0.989804 0.989804 0.989804 0.989804 0.989804 0.989804
          0.989804 0.989804 0.989804 0.989804 0.989612 0.989612 0.989612 0.989612 0.989612 0.989612 0.989612 0.989612
          0.989612 0.989612 0.989612 0.989612 0.989612 0.989612 0.989612 0.989612 0.98865 0.98865 0.98865 0.98865
          0.98865 0.98865 0.98865 0.98865 0.98865 0.98865 0.98865 0.98865 0.98865 0.98865 0.98865 0.98865
          0.987244 0.987244 0.987244 0.987244 0.987244 0.987244 0.987244 0.987244 0.987244 0.987244 0.987244 0.987244
          0.987244 0.987244 0.987244 0.987244 0.985616 0.985616 0.985616 0.985616 0.985616 0.985616 0.985616 0.985616
          0.985616 0.985616 0.985616 0.985616 0.985616 0.985616 0.985616 0.985616 0.983521 0.983521 0.983521 0.983521
          0.983521 0.983521 0.983521 0.983521 0.983521 0.983521 0.983521 0.983521 0.983521 0.983521 0.983521 0.983521
          0.977234 0.977234 0.977234 0.977234 0.977234 0.977234 0.977234 0.977234 0.977234 0.977234 0.977234 0.977234
          0.977234 0.977234 0.977234 0.977234 0.952322 0.952322 0.952322 0.952322 0.952322 0.952322 0.952322 0.952322
          0.952322 0.952322 0.952322 0.952322 0.952322 0.952322 0.952322 0.952322 0.903263 0.903263 0.903263 0.903263
          0.903263 0.903263 0.903263 0.903263 0.903263 0.903263 0.903263 0.903263 0.903263 0.903263 0.903263 0.903264
          0.826231 0.826232 0.826232 0.826232 0.826232 0.826232 0.826232 0.826232 0.826232 0.826232 0.826231 0.826231
          0.826231 0.826231 0.826231 0.826233
        </DataArray>
        <DataArray type="Float32" Name="pn" NumberOfComponents="1" format="ascii">
          101148 101148 100832 100832 101148 100832 101148 100832 101148 100832 101148 100832
          101148 100832 101148 100832 101148 100832 101148 100832 101148 100832 101148 100832
          101148 100832 101148 100832 101148 100832 101148 100832 100543 100543 100543 100543
          100543 100543 100543 100543 100543 100543 100543 100543 100543 100543 100543 100543
          100281 100281 100281 100281 100281 100281 100281 100281 100281 100281 100281 100281
          100281 100281 100281 100281 100070 100070 100070 100070 100070 100070 100070 100070
          100070 100070 100070 100070 100070 100070 100070 100070 100006 100006 100006 100006
          100006 100006 100006 100006 100006 100006 100006 100006 100006 100006 100006 100006
          100002 100002 100002 100002 100002 100002 100002 100002 100002 100002 100002 100002
          100002 100002 100002 100002 100001 100001 100001 100001 100001 100001 100001 100001
          100001 100001 100001 100001 100001 100001 100001 100001 100001 100001 100001 100001
          100001 100001 100001 100001 100001 100001 100001 100001 100001 100001 100001 100001
          100000 100000 100000 100000 100000 100000 100000 100000 100000 100000 100000 100000
          100000 100000 100000 100000 100000 100000 100000 100000 100000 100000 100000 100000
          100000 100000 100000 100000 100000 100000 100000 100000 100000 100000 100000 100000
          100000 100000 100000 100000 100000 100000 100000 100000 100000 100000 100000 100000
          100000 100000 100000 100000 100000 100000 100000 100000 100000 100000 100000 100000
          100000 100000 100000 100000
        </DataArray>
        <DataArray type="Float32" Name="pw" NumberOfComponents="1" format="ascii">
          101139 101139 100812 100812 101139 100812 101139 100812 101139 100812 101139 100812
          101139 100812 101139 100812 101139 100812 101139 100812 101139 100812 101139 100812
          101139 100812 101139 100812 101139 100812 101139 100812 100516 100516 100516 100516
          100516 100516 100516 100516 100516 100516 100516 100516 100516 100516 100516 100516
          100246 100246 100246 100246 100246 100246 100246 100246 100246 100246 100246 100246
          100246 100246 100246 100246 100001 100001 100001 100001 100001 100001 100001 100001
          100001 100001 100001 100001 100001 100001 100001 100001 99778.1 99778.1 99778.1 99778.1
          99778.1 99778.1 99778.1 99778.1 99778.1 99778.1 99778.1 99778.1 99778.1 99778.1 99778.1 99778.1
          99575.6 99575.6 99575.6 99575.6 99575.6 99575.6 99575.6 99575.6 99575.6 99575.6 99575.6 99575.6
          99575.6 99575.6 99575.6 99575.6 99391.4 99391.4 99391.4 99391.4 99391.4 99391.4 99391.4 99391.4
          99391.4 99391.4 99391.4 99391.4 99391.4 99391.4 99391.4 99391.4 99224 99224 99224 99224
          99224 99224 99224 99224 99224 99224 99224 99224 99224 99224 99224 99224
          99071.7 99071.7 99071.7 99071.7 99071.7 99071.7 99071.7 99071.7 99071.7 99071.7 99071.7 99071.7
          99071.7 99071.7 99071.7 99071.7 98933.3 98933.3 98933.3 98933.3 98933.3 98933.3 98933.3 98933.3
          98933.3 98933.3 98933.3 98933.3 98933.3 98933.3 98933.3 98933.3 98807.5 98807.5 98807.5 98807.5
          98807.5 98807.5 98807.5 98807.5 98807.5 98807.5 98807.5 98807.5 98807.5 98807.5 98807.5 98807.5
          98693.1 98693.1 98693.1 98693.1 98693.1 98693.1 98693.1 98693.1 98693.1 98693.1 98693.1 98693.1
          98693.1 98693.1 98693.1 98693.1
        </DataArray>
        <DataArray type="Float32" Name="pc" NumberOfComponents="1" format="ascii">
          9.16219 9.16214 19.3777 19.3775 9.162 19.3773 9.16205 19.3774 9.16197 19.3771 9.16196 19.3773
          9.16204 19.3769 9.16221 19.3768 9.16195 19.3775 9.16211 19.377 9.16223 19.3765 9.16212 19.3769
          9.16212 19.3764 9.16209 19.3765 9.16206 19.3766 9.16229 19.377 26.9595 26.9593 26.959 26.9593
          26.9583 26.9588 26.9579 26.9585 26.9578 26.9579 26.9574 26.9575 26.9571 26.9569 26.9572 26.9571
          35.3933 35.3931 35.3924 35.3927 35.391 35.391 35.3911 35.3901 35.3892 35.3892 35.3884 35.388
          35.3876 35.3871 35.3875 35.3871 69.1897 69.1899 69.1893 69.1884 69.1861 69.185 69.1842 69.1827
          69.1809 69.1788 69.1777 69.1763 69.1756 69.1738 69.1733 69.1734 227.702 227.702 227.702 227.701
          227.7 227.699 227.698 227.697 227.696 227.695 227.694 227.693 227.692 227.691 227.691 227.691
          426.157 426.157 426.156 426.156 426.155 426.155 426.154 426.154 426.153 426.152 426.152 426.151
          426.151 426.15 426.15 426.15 609.523 609.523 609.522 609.522 609.522 609.521 609.521 609.521
          609.52 609.52 609.52 609.519 609.519 609.519 609.518 609.518 776.657 776.657 776.656 776.656
          776.656 776.656 776.656 776.655 776.655 776.655 776.655 776.655 776.655 776.654 776.654 776.654
          928.707 928.706 928.706 928.706 928.706 928.706 928.706 928.705 928.705 928.705 928.705 928.705
          928.705 928.705 928.704 928.704 1066.95 1066.95 1066.95 1066.95 1066.95 1066.95 1066.95 1066.95
          1066.95 1066.95 1066.95 1066.95 1066.95 1066.95 1066.95 1066.94 1192.63 1192.63 1192.63 1192.63
          1192.63 1192.63 1192.63 1192.63 1192.63 1192.63 1192.63 1192.63 1192.63 1192.63 1192.63 1192.63
          1306.89 1306.89 1306.89 1306.89 1306.89 1306.89 1306.89 1306.89 1306.89 1306.89 1306.89 1306.89
          1306.89 1306.89 1306.89 1306.89
        </DataArray>
        <DataArray type="Float32" Name="rhoW" NumberOfComponents="1" format="ascii">
          997.056 997.056 997.057 997.057 997.056 997.057 997.056 997.057 997.056 997.057 997.056 997.057
          997.056 997.057 997.056 997.057 997.056 997.057 997.056 997.057 997.056 997.057 997.056 997.057
          997.056 997.057 997.056 997.057 997.056 997.057 997.056 997.057 997.058 997.058 997.058 997.058
          997.058 997.058 997.058 997.058 997.058 997.058 997.058 997.058 997.058 997.058 997.058 997.058
          997.06 997.06 997.06 997.06 997.06 997.06 997.06 997.06 997.06 997.06 997.06 997.06
          997.06 997.06 997.06 997.06 997.067 997.067 997.067 997.067 997.067 997.067 997.067 997.067
          997.067 997.067 997.067 997.067 997.067 997.067 997.067 997.067 997.08 997.08 997.08 997.08
          997.08 997.08 997.08 997.08 997.08 997.08 997.08 997.081 997.081 997.081 997.081 997.081
          997.104 997.104 997.104 997.104 997.104 997.104 997.104 997.104 997.104 997.104 997.104 997.104
          997.104 997.104 997.104 997.104 997.14 997.14 997.14 997.14 997.14 997.141 997.141 997.141
          997.141 997.141 997.141 997.141 997.141 997.141 997.142 997.142 997.19 997.19 997.19 997.191
          997.191 997.191 997.191 997.192 997.192 997.192 997.192 997.193 997.193 997.193 997.193 997.193
          997.253 997.253 997.253 997.254 997.254 997.254 997.255 997.255 997.255 997.256 997.256 997.256
          997.257 997.257 997.257 997.257 997.325 997.325 997.325 997.326 997.326 997.327 997.328 997.328
          997.329 997.329 997.33 997.33 997.33 997.331 997.331 997.331 997.401 997.401 997.402 997.403
          997.404 997.405 997.405 997.406 997.407 997.407 997.408 997.409 997.409 997.41 997.41 997.41
          997.478 997.479 997.48 997.481 997.482 997.484 997.484 997.485 997.486 997.487 997.488 997.489
          997.49 997.49 997.491 997.491
        </DataArray>
        <DataArray type="Float32" Name="rhoN" NumberOfComponents="1" format="ascii">
          1.16768 1.16768 1.164 1.164 1.16768 1.164 1.16768 1.164 1.16768 1.164 1.16768 1.164
          1.16768 1.164 1.16768 1.164 1.16768 1.164 1.16768 1.164 1.16768 1.164 1.16768 1.164
          1.16768 1.164 1.16768 1.164 1.16768 1.164 1.16768 1.164 1.16064 1.16064 1.16064 1.16064
          1.16064 1.16064 1.16064 1.16064 1.16064 1.16064 1.16064 1.16064 1.16064 1.16064 1.16064 1.16064
          1.15764 1.15764 1.15764 1.15764 1.15764 1.15764 1.15764 1.15764 1.15764 1.15764 1.15764 1.15764
          1.15764 1.15764 1.15764 1.15764 1.1553 1.1553 1.1553 1.1553 1.1553 1.1553 1.1553 1.1553
          1.1553 1.1553 1.1553 1.1553 1.1553 1.1553 1.1553 1.1553 1.15479 1.15479 1.15479 1.15479
          1.15479 1.15479 1.1548 1.1548 1.1548 1.1548 1.1548 1.1548 1.1548 1.1548 1.1548 1.1548
          1.15518 1.15518 1.15518 1.15518 1.15518 1.15518 1.15518 1.15519 1.15519 1.15519 1.15519 1.15519
          1.15519 1.15519 1.15519 1.15519 1.15584 1.15584 1.15585 1.15585 1.15585 1.15585 1.15586 1.15586
          1.15586 1.15586 1.15587 1.15587 1.15587 1.15587 1.15587 1.15587 1.15678 1.15678 1.15678 1.15679
          1.15679 1.15679 1.1568 1.1568 1.15681 1.15681 1.15682 1.15682 1.15682 1.15683 1.15683 1.15683
          1.15795 1.15796 1.15796 1.15797 1.15797 1.15798 1.15799 1.158 1.158 1.15801 1.15802 1.15802
          1.15803 1.15803 1.15803 1.15803 1.15931 1.15932 1.15932 1.15933 1.15935 1.15936 1.15937 1.15938
          1.15939 1.1594 1.15941 1.15942 1.15942 1.15943 1.15943 1.15944 1.16078 1.16079 1.1608 1.16082
          1.16083 1.16085 1.16086 1.16088 1.16089 1.1609 1.16092 1.16093 1.16094 1.16095 1.16095 1.16096
          1.16228 1.1623 1.16232 1.16234 1.16236 1.16238 1.1624 1.16242 1.16244 1.16245 1.16247 1.16248
          1.1625 1.16251 1.16252 1.16253
        </DataArray>
        <DataArray type="Float32" Name="mobW" NumberOfComponents="1" format="ascii">
          1123.57 1123.57 1123.52 1123.52 1123.57 1123.52 1123.57 1123.52 1123.57 1123.52 1123.57 1123.52
          1123.57 1123.52 1123.57 1123.52 1123.57 1123.52 1123.57 1123.52 1123.57 1123.52 1123.57 1123.52
          1123.57 1123.52 1123.57 1123.52 1123.57 1123.52 1123.57 1123.52 1123.41 1123.41 1123.41 1123.41
          1123.41 1123.41 1123.41 1123.41 1123.41 1123.41 1123.41 1123.41 1123.41 1123.41 1123.41 1123.41
          1123.13 1123.13 1123.13 1123.13 1123.12 1123.12 1123.12 1123.12 1123.12 1123.12 1123.12 1123.12
          1123.12 1123.12 1123.12 1123.12 1122.45 1122.45 1122.45 1122.45 1122.45 1122.44 1122.44 1122.44
          1122.44 1122.44 1122.44 1122.44 1122.44 1122.43 1122.43 1122.43 1120.97 1120.97 1120.97 1120.97
          1120.97 1120.96 1120.96 1120.96 1120.95 1120.95 1120.94 1120.94 1120.94 1120.94 1120.94 1120.94
          1118.16 1118.16 1118.16 1118.15 1118.14 1118.14 1118.13 1118.12 1118.11 1118.11 1118.1 1118.09
          1118.09 1118.08 1118.08 1118.08 1113.6 1113.6 1113.59 1113.58 1113.56 1113.55 1113.53 1113.52
          1113.5 1113.49 1113.48 1113.47 1113.46 1113.45 1113.44 1113.44 1106.8 1106.79 1106.78 1106.76
          1106.73 1106.71 1106.68 1106.66 1106.63 1106.61 1106.59 1106.57 1106.55 1106.54 1106.53 1106.53
          1091.7 1091.7 1091.67 1091.64 1091.6 1091.56 1091.52 1091.48 1091.44 1091.4 1091.37 1091.34
          1091.31 1091.29 1091.28 1091.27 1008.56 1008.55 1008.51 1008.46 1008.4 1008.34 1008.29 1008.24
          1008.19 1008.14 1008.1 1008.05 1008.02 1007.98 1007.96 1007.95 786.158 786.135 786.084 786.024
          785.962 785.901 785.842 785.786 785.733 785.683 785.635 785.59 785.548 785.512 785.483 785.472
          582.839 582.796 582.737 582.674 582.613 582.553 582.496 582.442 582.391 582.342 582.296 582.252
          582.21 582.173 582.141 582.121
        </DataArray>
        <DataArray type="Float32" Name="mobN" NumberOfComponents="1" format="ascii">
          8.07041e-05 8.07032e-05 0.000386867 0.000386858 8.07007e-05 0.000386847 8.07016e-05 0.000386851 8.07001e-05 0.000386842 8.06999e-05 0.000386846
          8.07013e-05 0.00038683 8.07045e-05 0.000386829 8.06997e-05 0.000386859 8.07026e-05 0.000386837 8.07049e-05 0.000386815 8.07029e-05 0.000386833
          8.07027e-05 0.000386811 8.07022e-05 0.000386814 8.07016e-05 0.000386821 8.0706e-05 0.000386836 0.000773645 0.000773633 0.000773616 0.00077363
          0.000773571 0.000773603 0.00077355 0.000773581 0.000773543 0.000773545 0.00077352 0.000773524 0.000773498 0.000773486 0.000773505 0.000773502
          0.00137179 0.00137177 0.00137171 0.00137174 0.0013716 0.0013716 0.00137161 0.00137153 0.00137145 0.00137145 0.00137139 0.00137135
          0.00137132 0.00137128 0.00137131 0.00137128 0.00567312 0.00567315 0.00567306 0.0056729 0.00567249 0.0056723 0.00567216 0.0056719
          0.00567159 0.00567123 0.00567102 0.00567079 0.00567066 0.00567034 0.00567025 0.00567027 0.0763704 0.0763702 0.0763699 0.0763693
          0.0763687 0.0763679 0.076367 0.0763662 0.0763654 0.0763645 0.0763637 0.076363 0.0763624 0.076362 0.0763617 0.0763616
          0.337524 0.337524 0.337523 0.337522 0.337521 0.337521 0.337519 0.337518 0.337517 0.337516 0.337515 0.337515
          0.337514 0.337513 0.337513 0.337512 0.887942 0.887941 0.887941 0.88794 0.887939 0.887939 0.887938 0.887937
          0.887937 0.887936 0.887935 0.887935 0.887934 0.887933 0.887932 0.887932 2.00343 2.00342 2.00342 2.00342
          2.00343 2.00343 2.00343 2.00343 2.00343 2.00343 2.00343 2.00343 2.00343 2.00343 2.00343 2.00343
          8.22707 8.22702 8.22698 8.22698 8.22698 8.22698 8.22698 8.22699 8.22699 8.227 8.227 8.227
          8.22699 8.22698 8.22694 8.22688 78.2154 78.2149 78.2148 78.215 78.2152 78.2154 78.2156 78.2159
          78.2161 78.2163 78.2165 78.2166 78.2167 78.2168 78.2165 78.216 441.687 441.684 441.685 441.688
          441.69 441.693 441.695 441.698 441.7 441.702 441.704 441.706 441.707 441.709 441.709 441.705
          1643.55 1643.54 1643.55 1643.57 1643.58 1643.59 1643.61 1643.62 1643.63 1643.65 1643.66 1643.67
          1643.68 1643.68 1643.69 1643.67
        </DataArray>
        <DataArray type="Float32" Name="X_liquid^H2O" NumberOfComponents="1" format="ascii">
          0.999978 0.999978 0.999978 0.999978 0.999978 0.999978 0.999978 0.999978 0.999978 0.999978 0.999978 0.999978
          0.999978 0.999978 0.999978 0.999978 0.999978 0.999978 0.999978 0.999978 0.999978 0.999978 0.999978 0.999978
          0.999978 0.999978 0.999978 0.999978 0.999978 0.999978 0.999978 0.999978 0.999978 0.999978 0.999978 0.999978
          0.999978 0.999978 0.999978 0.999978 0.999978 0.999978 0.999978 0.999978 0.999978 0.999978 0.999978 0.999978
          0.999978 0.999978 0.999978 0.999978 0.999978 0.999978 0.999978 0.999978 0.999978 0.999978 0.999978 0.999978
          0.999978 0.999978 0.999978 0.999978 0.999978 0.999978 0.999978 0.999978 0.999978 0.999978 0.999978 0.999978
          0.999978 0.999978 0.999978 0.999978 0.999978 0.999978 0.999978 0.999978 0.999978 0.999978 0.999978 0.999978
          0.999978 0.999978 0.999978 0.999978 0.999978 0.999978 0.999978 0.999978 0.999978 0.999978 0.999978 0.999978
          0.999978 0.999978 0.999978 0.999978 0.999978 0.999978 0.999978 0.999978 0.999978 0.999978 0.999978 0.999978
          0.999978 0.999978 0.999978 0.999978 0.999978 0.999978 0.999978 0.999978 0.999978 0.999978 0.999978 0.999978
          0.999978 0.999978 0.999978 0.999978 0.999978 0.999978 0.999978 0.999978 0.999978 0.999978 0.999978 0.999978
          0.999978 0.999978 0.999978 0.999978 0.999978 0.999978 0.999978 0.999978 0.999978 0.999978 0.999978 0.999978
          0.999978 0.999978 0.999978 0.999978 0.999978 0.999978 0.999978 0.999978 0.999978 0.999978 0.999978 0.999978
          0.999978 0.999978 0.999978 0.999978 0.999978 0.999978 0.999978 0.999978 0.999978 0.999978 0.999978 0.999978
          0.999978 0.999978 0.999978 0.999978 0.999978 0.999978 0.999978 0.999978 0.999978 0.999978 0.999978 0.999978
          0.999978 0.999978 0.999978 0.999978 0.999978 0.999978 0.999978 0.999978 0.999978 0.999978 0.999978 0.999978
          0.999978 0.999978 0.999978 0.999978 0.999978 0.999978 0.999978 0.999978 0.999978 0.999978 0.999978 0.999978
          0.999978 0.999978 0.999978 0.999978
        </DataArray>
        <DataArray type="Float32" Name="X_liquid^Air" NumberOfComponents="1" format="ascii">
          2.18022e-05 2.18022e-05 2.17325e-05 2.17325e-05 2.18022e-05 2.17325e-05 2.18022e-05 2.17325e-05 2.18022e-05 2.17325e-05 2.18022e-05 2.17325e-05
          2.18022e-05 2.17325e-05 2.18022e-05 2.17325e-05 2.18022e-05 2.17326e-05 2.18022e-05 2.17326e-05 2.18022e-05 2.17326e-05 2.18022e-05 2.17326e-05
          2.18022e-05 2.17326e-05 2.18022e-05 2.17326e-05 2.18022e-05 2.17326e-05 2.18022e-05 2.17326e-05 2.16698e-05 2.16698e-05 2.16698e-05 2.16698e-05
          2.16698e-05 2.16698e-05 2.16698e-05 2.16699e-05 2.16699e-05 2.16699e-05 2.16699e-05 2.16699e-05 2.16699e-05 2.16699e-05 2.16699e-05 2.16699e-05
          2.1616e-05 2.1616e-05 2.1616e-05 2.1616e-05 2.1616e-05 2.1616e-05 2.1616e-05 2.1616e-05 2.1616e-05 2.1616e-05 2.1616e-05 2.1616e-05
          2.1616e-05 2.1616e-05 2.1616e-05 2.1616e-05 2.15788e-05 2.15788e-05 2.15788e-05 2.15788e-05 2.15788e-05 2.15788e-05 2.15789e-05 2.15789e-05
          2.15789e-05 2.15789e-05 2.1579e-05 2.1579e-05 2.1579e-05 2.1579e-05 2.1579e-05 2.1579e-05 2.15843e-05 2.15843e-05 2.15843e-05 2.15844e-05
          2.15844e-05 2.15845e-05 2.15845e-05 2.15846e-05 2.15846e-05 2.15847e-05 2.15847e-05 2.15848e-05 2.15848e-05 2.15848e-05 2.15849e-05 2.15849e-05
          2.16184e-05 2.16184e-05 2.16185e-05 2.16186e-05 2.16187e-05 2.16188e-05 2.16189e-05 2.1619e-05 2.16191e-05 2.16192e-05 2.16193e-05 2.16194e-05
          2.16195e-05 2.16196e-05 2.16196e-05 2.16196e-05 2.16729e-05 2.1673e-05 2.16731e-05 2.16732e-05 2.16734e-05 2.16737e-05 2.16739e-05 2.16741e-05
          2.16743e-05 2.16745e-05 2.16747e-05 2.16749e-05 2.1675e-05 2.16751e-05 2.16752e-05 2.16752e-05 2.17493e-05 2.17494e-05 2.17496e-05 2.17499e-05
          2.17503e-05 2.17507e-05 2.17511e-05 2.17515e-05 2.17518e-05 2.17522e-05 2.17525e-05 2.17528e-05 2.1753e-05 2.17533e-05 2.17534e-05 2.17534e-05
          2.18462e-05 2.18464e-05 2.18468e-05 2.18473e-05 2.18479e-05 2.18486e-05 2.18492e-05 2.18498e-05 2.18504e-05 2.18509e-05 2.18514e-05 2.18519e-05
          2.18523e-05 2.18527e-05 2.18529e-05 2.1853e-05 2.19595e-05 2.19597e-05 2.19604e-05 2.19613e-05 2.19622e-05 2.19632e-05 2.19641e-05 2.1965e-05
          2.19658e-05 2.19666e-05 2.19673e-05 2.1968e-05 2.19687e-05 2.19692e-05 2.19696e-05 2.19698e-05 2.20831e-05 2.20837e-05 2.20848e-05 2.20861e-05
          2.20874e-05 2.20888e-05 2.209e-05 2.20912e-05 2.20924e-05 2.20935e-05 2.20945e-05 2.20955e-05 2.20964e-05 2.20972e-05 2.20979e-05 2.20981e-05
          2.22111e-05 2.22125e-05 2.22142e-05 2.2216e-05 2.22179e-05 2.22196e-05 2.22213e-05 2.22229e-05 2.22244e-05 2.22258e-05 2.22272e-05 2.22285e-05
          2.22297e-05 2.22308e-05 2.22318e-05 2.22324e-05
        </DataArray>
        <DataArray type="Float32" Name="X_gas^H2O" NumberOfComponents="1" format="ascii">
          0.0197277 0.0197277 0.0197883 0.0197883 0.0197277 0.0197883 0.0197277 0.0197883 0.0197277 0.0197883 0.0197277 0.0197883
          0.0197277 0.0197883 0.0197277 0.0197883 0.0197277 0.0197883 0.0197277 0.0197883 0.0197277 0.0197883 0.0197277 0.0197883
          0.0197277 0.0197883 0.0197277 0.0197883 0.0197277 0.0197883 0.0197277 0.0197883 0.0198408 0.0198408 0.0198408 0.0198408
          0.0198408 0.0198408 0.0198408 0.0198408 0.0198408 0.0198408 0.0198408 0.0198408 0.0198407 0.0198407 0.0198407 0.0198407
          0.0198796 0.0198796 0.0198796 0.0198796 0.0198796 0.0198796 0.0198795 0.0198795 0.0198795 0.0198795 0.0198794 0.0198794
          0.0198794 0.0198794 0.0198794 0.0198794 0.0198908 0.0198908 0.0198908 0.0198907 0.0198907 0.0198906 0.0198905 0.0198904
          0.0198904 0.0198903 0.0198902 0.0198902 0.0198901 0.0198901 0.0198901 0.0198901 0.0198408 0.0198408 0.0198407 0.0198406
          0.0198404 0.0198403 0.0198401 0.0198399 0.0198398 0.0198396 0.0198394 0.0198393 0.0198392 0.0198391 0.0198391 0.019839
          0.0197313 0.0197312 0.0197311 0.0197308 0.0197305 0.0197301 0.0197297 0.0197294 0.019729 0.0197287 0.0197284 0.0197281
          0.0197278 0.0197277 0.0197275 0.0197275 0.0195609 0.0195608 0.0195604 0.0195599 0.0195593 0.0195586 0.0195579 0.0195572
          0.0195566 0.0195559 0.0195553 0.0195548 0.0195544 0.019554 0.0195538 0.0195537 0.0193262 0.019326 0.0193253 0.0193244
          0.0193233 0.0193221 0.0193209 0.0193197 0.0193186 0.0193176 0.0193166 0.0193157 0.0193149 0.0193142 0.0193138 0.0193137
          0.0190346 0.0190341 0.019033 0.0190314 0.0190296 0.0190277 0.0190259 0.0190241 0.0190224 0.0190207 0.0190192 0.0190178
          0.0190166 0.0190155 0.0190148 0.0190146 0.0187022 0.0187014 0.0186995 0.018697 0.0186943 0.0186915 0.0186889 0.0186863
          0.0186839 0.0186816 0.0186794 0.0186774 0.0186755 0.018674 0.0186728 0.0186724 0.0183491 0.0183476 0.0183444 0.0183407
          0.0183369 0.0183332 0.0183296 0.0183262 0.018323 0.0183199 0.018317 0.0183142 0.0183117 0.0183094 0.0183076 0.0183069
          0.017994 0.0179903 0.0179856 0.0179805 0.0179755 0.0179707 0.0179662 0.0179618 0.0179577 0.0179538 0.0179501 0.0179465
          0.0179432 0.0179402 0.0179376 0.0179358
        </DataArray>
        <DataArray type="Float32" Name="X_gas^Air" NumberOfComponents="1" format="ascii">
          0.980272 0.980272 0.980212 0.980212 0.980272 0.980212 0.980272 0.980212 0.980272 0.980212 0.980272 0.980212
          0.980272 0.980212 0.980272 0.980212 0.980272 0.980212 0.980272 0.980212 0.980272 0.980212 0.980272 0.980212
          0.980272 0.980212 0.980272 0.980212 0.980272 0.980212 0.980272 0.980212 0.980159 0.980159 0.980159 0.980159
          0.980159 0.980159 0.980159 0.980159 0.980159 0.980159 0.980159 0.980159 0.980159 0.980159 0.980159 0.980159
          0.98012 0.98012 0.98012 0.98012 0.98012 0.98012 0.98012 0.98012 0.980121 0.980121 0.980121 0.980121
          0.980121 0.980121 0.980121 0.980121 0.980109 0.980109 0.980109 0.980109 0.980109 0.980109 0.980109 0.98011
          0.98011 0.98011 0.98011 0.98011 0.98011 0.98011 0.98011 0.98011 0.980159 0.980159 0.980159 0.980159
          0.98016 0.98016 0.98016 0.98016 0.98016 0.98016 0.980161 0.980161 0.980161 0.980161 0.980161 0.980161
          0.980269 0.980269 0.980269 0.980269 0.98027 0.98027 0.98027 0.980271 0.980271 0.980271 0.980272 0.980272
          0.980272 0.980272 0.980272 0.980272 0.980439 0.980439 0.98044 0.98044 0.980441 0.980441 0.980442 0.980443
          0.980443 0.980444 0.980445 0.980445 0.980446 0.980446 0.980446 0.980446 0.980674 0.980674 0.980675 0.980676
          0.980677 0.980678 0.980679 0.98068 0.980681 0.980682 0.980683 0.980684 0.980685 0.980686 0.980686 0.980686
          0.980965 0.980966 0.980967 0.980969 0.98097 0.980972 0.980974 0.980976 0.980978 0.980979 0.980981 0.980982
          0.980983 0.980984 0.980985 0.980985 0.981298 0.981299 0.981301 0.981303 0.981306 0.981308 0.981311 0.981314
          0.981316 0.981318 0.981321 0.981323 0.981324 0.981326 0.981327 0.981328 0.981651 0.981652 0.981656 0.981659
          0.981663 0.981667 0.98167 0.981674 0.981677 0.98168 0.981683 0.981686 0.981688 0.981691 0.981692 0.981693
          0.982006 0.98201 0.982014 0.982019 0.982024 0.982029 0.982034 0.982038 0.982042 0.982046 0.98205 0.982053
          0.982057 0.98206 0.982062 0.982064
        </DataArray>
        <DataArray type="Float32" Name="x_liquid^H2O" NumberOfComponents="1" format="ascii">
          0.999986 0.999986 0.999986 0.999986 0.999986 0.999986 0.999986 0.999986 0.999986 0.999986 0.999986 0.999986
          0.999986 0.999986 0.999986 0.999986 0.999986 0.999986 0.999986 0.999986 0.999986 0.999986 0.999986 0.999986
          0.999986 0.999986 0.999986 0.999986 0.999986 0.999986 0.999986 0.999986 0.999987 0.999987 0.999987 0.999987
          0.999987 0.999987 0.999987 0.999987 0.999987 0.999987 0.999987 0.999987 0.999987 0.999987 0.999987 0.999987
          0.999987 0.999987 0.999987 0.999987 0.999987 0.999987 0.999987 0.999987 0.999987 0.999987 0.999987 0.999987
          0.999987 0.999987 0.999987 0.999987 0.999987 0.999987 0.999987 0.999987 0.999987 0.999987 0.999987 0.999987
          0.999987 0.999987 0.999987 0.999987 0.999987 0.999987 0.999987 0.999987 0.999987 0.999987 0.999987 0.999987
          0.999987 0.999987 0.999987 0.999987 0.999987 0.999987 0.999987 0.999987 0.999987 0.999987 0.999987 0.999987
          0.999987 0.999987 0.999987 0.999987 0.999987 0.999987 0.999987 0.999987 0.999987 0.999987 0.999987 0.999987
          0.999987 0.999987 0.999987 0.999987 0.999987 0.999987 0.999987 0.999987 0.999987 0.999987 0.999987 0.999987
          0.999987 0.999987 0.999987 0.999987 0.999987 0.999987 0.999987 0.999987 0.999986 0.999986 0.999986 0.999986
          0.999986 0.999986 0.999986 0.999986 0.999986 0.999986 0.999986 0.999986 0.999986 0.999986 0.999986 0.999986
          0.999986 0.999986 0.999986 0.999986 0.999986 0.999986 0.999986 0.999986 0.999986 0.999986 0.999986 0.999986
          0.999986 0.999986 0.999986 0.999986 0.999986 0.999986 0.999986 0.999986 0.999986 0.999986 0.999986 0.999986
          0.999986 0.999986 0.999986 0.999986 0.999986 0.999986 0.999986 0.999986 0.999986 0.999986 0.999986 0.999986
          0.999986 0.999986 0.999986 0.999986 0.999986 0.999986 0.999986 0.999986 0.999986 0.999986 0.999986 0.999986
          0.999986 0.999986 0.999986 0.999986 0.999986 0.999986 0.999986 0.999986 0.999986 0.999986 0.999986 0.999986
          0.999986 0.999986 0.999986 0.999986
        </DataArray>
        <DataArray type="Float32" Name="x_liquid^Air" NumberOfComponents="1" format="ascii">
          1.35627e-05 1.35627e-05 1.35193e-05 1.35193e-05 1.35627e-05 1.35193e-05 1.35627e-05 1.35193e-05 1.35627e-05 1.35193e-05 1.35627e-05 1.35193e-05