<?xml version="1.0"?>
<VTKFile type="UnstructuredGrid" version="0.1" byte_order="LittleEndian">
  <UnstructuredGrid>
    <Piece NumberOfCells="180" NumberOfPoints="208">
      <PointData Scalars="Sn" Vectors="velocityW">
        <DataArray type="Float32" Name="Sn" NumberOfComponents="1" format="ascii">
          0.0100488 0.0100488 0.0101051 0.0101051 0.0100488 0.0101051 0.0100488 0.0101051 0.0100488 0.0101051 0.0100488 0.0101051
          0.0100488 0.0101051 0.0100488 0.0101051 0.0100488 0.0101051 0.0100488 0.0101051 0.0100488 0.0101051 0.0100488 0.0101051
          0.0100488 0.0101051 0.0100488 0.0101051 0.0100488 0.0101051 0.0100488 0.0101051 0.0101474 0.0101474 0.0101474 0.0101474
          0.0101474 0.0101474 0.0101474 0.0101474 0.0101474 0.0101474 0.0101474 0.0101474 0.0101474 0.0101474 0.0101474 0.0101474
          0.0101929 0.0101929 0.0101929 0.0101929 0.0101929 0.0101929 0.0101929 0.0101929 0.0101929 0.0101929 0.0101929 0.0101929
          0.0101929 0.0101929 0.0101929 0.0101929 0.010354 0.010354 0.010354 0.010354 0.010354 0.010354 0.010354 0.010354
          0.010354 0.010354 0.010354 0.010354 0.010354 0.010354 0.010354 0.010354 0.0112096 0.0112096 0.0112096 0.0112096
          0.0112096 0.0112096 0.0112096 0.0112096 0.0112096 0.0112096 0.0112096 0.0112096 0.0112096 0.0112096 0.0112096 0.0112096
          0.0125696 0.0125696 0.0125696 0.0125696 0.0125696 0.0125696 0.0125696 0.0125696 0.0125696 0.0125696 0.0125696 0.0125696
          0.0125696 0.0125696 0.0125696 0.0125696 0.0141382 0.0141382 0.0141382 0.0141382 0.0141382 0.0141382 0.0141382 0.0141382
          0.0141382 0.0141382 0.0141382 0.0141382 0.0141382 0.0141382 0.0141382 0.0141382 0.0160988 0.0160988 0.0160988 0.0160988
          0.0160988 0.0160988 0.0160988 0.0160988 0.0160988 0.0160988 0.0160988 0.0160988 0.0160988 0.0160988 0.0160988 0.0160988
          0.0202918 0.0202918 0.0202918 0.0202918 0.0202918 0.0202917 0.0202917 0.0202917 0.0202917 0.0202917 0.0202917 0.0202917
          0.0202916 0.0202916 0.0202916 0.0202916 0.0413849 0.0413848 0.0413847 0.0413847 0.0413846 0.0413846 0.0413846 0.0413845
          0.0413845 0.0413845 0.0413844 0.0413844 0.0413843 0.0413843 0.0413842 0.0413841 0.0842816 0.0842813 0.0842812 0.0842811
          0.0842811 0.084281 0.0842809 0.0842809 0.0842808 0.0842807 0.0842806 0.0842805 0.0842804 0.0842803 0.0842802 0.0842798
          0.153909 0.153908 0.153908 0.153908 0.153908 0.153908 0.153908 0.153907 0.153907 0.153907 0.153907 0.153907
          0.153907 0.153907 0.153906 0.153905
        </DataArray>
        <DataArray type="Float32" Name="Sw" NumberOfComponents="1" format="ascii">
          0.989951 0.989951 0.989895 0.989895 0.989951 0.989895 0.989951 0.989895 0.989951 0.989895 0.989951 0.989895
          0.989951 0.989895 0.989951 0.989895 0.989951 0.989895 0.989951 0.989895 0.989951 0.989895 0.989951 0.989895
          0.989951 0.989895 0.989951 0.989895 0.989951 0.989895 0.989951 0.989895 0.989853 0.989853 0.989853 0.989853
          0.989853 0.989853 0.989853 0.989853 0.989853 0.989853 0.989853 0.989853 0.989853 0.989853 0.989853 0.989853
          0.989807 0.989807 0.989807 0.989807 0.989807 0.989807 0.989807 0.989807 0.989807 0.989807 0.989807 0.989807
          0.989807 0.989807 0.989807 0.989807 0.989646 0.989646 0.989646 0.989646 0.989646 0.989646 0.989646 0.989646
          0.989646 0.989646 0.989646 0.989646 0.989646 0.989646 0.989646 0.989646 0.98879 0.98879 0.98879 0.98879
          0.98879 0.98879 0.98879 0.98879 0.98879 0.98879 0.98879 0.98879 0.98879 0.98879 0.98879 0.98879
          0.98743 0.98743 0.98743 0.98743 0.98743 0.98743 0.98743 0.98743 0.98743 0.98743 0.98743 0.98743
          0.98743 0.98743 0.98743 0.98743 0.985862 0.985862 0.985862 0.985862 0.985862 0.985862 0.985862 0.985862
          0.985862 0.985862 0.985862 0.985862 0.985862 0.985862 0.985862 0.985862 0.983901 0.983901 0.983901 0.983901
          0.983901 0.983901 0.983901 0.983901 0.983901 0.983901 0.983901 0.983901 0.983901 0.983901 0.983901 0.983901
          0.979708 0.979708 0.979708 0.979708 0.979708 0.979708 0.979708 0.979708 0.979708 0.979708 0.979708 0.979708
          0.979708 0.979708 0.979708 0.979708 0.958615 0.958615 0.958615 0.958615 0.958615 0.958615 0.958615 0.958615
          0.958615 0.958616 0.958616 0.958616 0.958616 0.958616 0.958616 0.958616 0.915718 0.915719 0.915719 0.915719
          0.915719 0.915719 0.915719 0.915719 0.915719 0.915719 0.915719 0.91572 0.91572 0.91572 0.91572 0.91572
          0.846091 0.846092 0.846092 0.846092 0.846092 0.846092 0.846092 0.846093 0.846093 0.846093 0.846093 0.846093
          0.846093 0.846093 0.846094 0.846095
        </DataArray>
        <DataArray type="Float32" Name="pn" NumberOfComponents="1" format="ascii">
          101172 101172 100856 100856 101172 100856 101172 100856 101172 100856 101172 100856
          101172 100856 101172 100856 101172 100856 101172 100856 101172 100856 101172 100856
          101172 100856 101172 100856 101172 100856 101172 100856 100567 100567 100567 100567
          100567 100567 100567 100567 100567 100567 100567 100567 100567 100567 100567 100567
          100306 100306 100306 100306 100306 100306 100306 100306 100306 100306 100306 100306
          100306 100306 100306 100306 100089 100089 100089 100089 100089 100089 100089 100089
          100089 100089 100089 100089 100089 100089 100089 100089 100009 100009 100009 100009
          100009 100009 100009 100009 100009 100009 100009 100009 100009 100009 100009 100009
          100003 100003 100003 100003 100003 100003 100003 100003 100003 100003 100003 100003
          100003 100003 100003 100003 100001 100001 100001 100001 100001 100001 100001 100001
          100001 100001 100001 100001 100001 100001 100001 100001 100001 100001 100001 100001
          100001 100001 100001 100001 100001 100001 100001 100001 100001 100001 100001 100001
          100000 100000 100000 100000 100000 100000 100000 100000 100000 100000 100000 100000
          100000 100000 100000 100000 100000 100000 100000 100000 100000 100000 100000 100000
          100000 100000 100000 100000 100000 100000 100000 100000 100000 100000 100000 100000
          100000 100000 100000 100000 100000 100000 100000 100000 100000 100000 100000 100000
          100000 100000 100000 100000 100000 100000 100000 100000 100000 100000 100000 100000
          100000 100000 100000 100000
        </DataArray>
        <DataArray type="Float32" Name="pw" NumberOfComponents="1" format="ascii">
          101164 101164 100837 100837 101164 100837 101164 100837 101164 100837 101164 100837
          101164 100837 101164 100837 101164 100837 101164 100837 101164 100837 101164 100837
          101164 100837 101164 100837 101164 100837 101164 100837 100541 100541 100541 100541
          100541 100541 100541 100541 100541 100541 100541 100541 100541 100541 100541 100541
          100271 100271 100271 100271 100271 100271 100271 100271 100271 100271 100271 100271
          100271 100271 100271 100271 100026 100026 100026 100026 100026 100026 100026 100026
          100026 100026 100026 100026 100026 100026 100026 100026 99803.1 99803.1 99803.1 99803.1
          99803.1 99803.1 99803.1 99803.1 99803.1 99803.1 99803.1 99803.1 99803.1 99803.1 99803.1 99803.1
          99600.5 99600.5 99600.5 99600.5 99600.5 99600.5 99600.5 99600.5 99600.5 99600.5 99600.5 99600.5
          99600.5 99600.5 99600.5 99600.5 99416.4 99416.4 99416.4 99416.4 99416.4 99416.4 99416.4 99416.4
          99416.4 99416.4 99416.4 99416.4 99416.4 99416.4 99416.4 99416.4 99248.9 99248.9 99248.9 99248.9
          99248.9 99248.9 99248.9 99248.9 99248.9 99248.9 99248.9 99248.9 99248.9 99248.9 99248.9 99248.9
          99096.7 99096.7 99096.7 99096.7 99096.7 99096.7 99096.7 99096.7 99096.7 99096.7 99096.7 99096.7
          99096.7 99096.7 99096.7 99096.7 98958.4 98958.4 98958.4 98958.4 98958.4 98958.4 98958.4 98958.4
          98958.4 98958.4 98958.4 98958.4 98958.4 98958.4 98958.4 98958.4 98832.6 98832.6 98832.6 98832.6
          98832.6 98832.6 98832.6 98832.6 98832.6 98832.6 98832.6 98832.6 98832.6 98832.6 98832.6 98832.6
          98718.2 98718.2 98718.2 98718.2 98718.2 98718.2 98718.2 98718.2 98718.2 98718.2 98718.2 98718.2
          98718.2 98718.2 98718.2 98718.2
        </DataArray>
        <DataArray type="Float32" Name="pc" NumberOfComponents="1" format="ascii">
          8.88146 8.88137 19.0702 19.0699 8.8816 19.0702 8.88157 19.07 8.88153 19.0705 8.88162 19.0702
          8.8815 19.0697 8.88132 19.07 8.88124 19.0697 8.88156 19.07 8.88174 19.0702 8.88153 19.0699
          8.8816 19.0703 8.88126 19.0698 8.8815 19.0702 8.88146 19.0703 26.6689 26.6686 26.6685 26.6687
          26.6691 26.6687 26.6686 26.6683 26.6688 26.6693 26.6691 26.6692 26.6689 26.6687 26.6692 26.6694
          34.8156 34.8158 34.816 34.8156 34.8158 34.8152 34.815 34.815 34.8157 34.8157 34.8156 34.8159
          34.8157 34.8165 34.8164 34.8163 63.3013 63.3004 63.301 63.3014 63.3005 63.3004 63.301 63.3009
          63.3007 63.3013 63.3015 63.301 63.3012 63.3025 63.3027 63.303 205.669 205.669 205.669 205.669
          205.668 205.668 205.668 205.668 205.668 205.668 205.668 205.668 205.669 205.669 205.669 205.669
          402.028 402.028 402.028 402.028 402.028 402.028 402.027 402.027 402.027 402.027 402.027 402.027
          402.027 402.027 402.027 402.027 584.901 584.901 584.9 584.9 584.9 584.9 584.9 584.9
          584.9 584.899 584.899 584.899 584.899 584.899 584.899 584.899 751.802 751.802 751.802 751.802
          751.802 751.802 751.802 751.801 751.801 751.801 751.801 751.801 751.801 751.801 751.8 751.8
          903.721 903.721 903.721 903.72 903.72 903.72 903.72 903.72 903.72 903.72 903.719 903.719
          903.719 903.719 903.719 903.719 1041.92 1041.92 1041.92 1041.92 1041.92 1041.92 1041.92 1041.92
          1041.92 1041.92 1041.92 1041.92 1041.92 1041.92 1041.92 1041.92 1167.58 1167.58 1167.58 1167.58
          1167.58 1167.58 1167.58 1167.58 1167.58 1167.58 1167.58 1167.58 1167.58 1167.58 1167.58 1167.58
          1281.82 1281.82 1281.82 1281.82 1281.82 1281.82 1281.82 1281.82 1281.82 1281.82 1281.82 1281.82
          1281.82 1281.82 1281.82 1281.81
        </DataArray>
        <DataArray type="Float32" Name="rhoW" NumberOfComponents="1" format="ascii">
          997.056 997.056 997.056 997.056 997.056 997.056 997.056 997.056 997.056 997.056 997.056 997.056
          997.056 997.056 997.056 997.056 997.056 997.056 997.056 997.056 997.056 997.056 997.056 997.056
          997.056 997.056 997.056 997.056 997.056 997.056 997.056 997.056 997.057 997.057 997.057 997.057
          997.057 997.057 997.057 997.057 997.057 997.057 997.057 997.057 997.057 997.057 997.057 997.057
          997.057 997.057 997.057 997.057 997.057 997.057 997.057 997.057 997.057 997.057 997.057 997.057
          997.057 997.057 997.057 997.057 997.06 997.06 997.06 997.06 997.06 997.06 997.06 997.06
          997.06 997.06 997.06 997.06 997.06 997.06 997.06 997.06 997.064 997.064 997.064 997.064
          997.064 997.064 997.064 997.064 997.064 997.064 997.064 997.064 997.064 997.064 997.064 997.064
          997.073 997.073 997.073 997.073 997.073 997.073 997.073 997.073 997.073 997.073 997.073 997.073
          997.073 997.073 997.073 997.073 997.087 997.087 997.087 997.088 997.088 997.088 997.088 997.088
          997.088 997.088 997.087 997.087 997.087 997.087 997.087 997.087 997.109 997.109 997.109 997.109
          997.109 997.109 997.109 997.109 997.109 997.109 997.109 997.109 997.108 997.108 997.108 997.108
          997.137 997.137 997.137 997.137 997.137 997.137 997.137 997.137 997.137 997.137 997.137 997.137
          997.137 997.137 997.136 997.136 997.172 997.172 997.172 997.172 997.172 997.172 997.172 997.172
          997.172 997.172 997.172 997.172 997.172 997.171 997.171 997.171 997.212 997.212 997.213 997.213
          997.213 997.213 997.213 997.213 997.213 997.213 997.213 997.213 997.212 997.212 997.212 997.211
          997.256 997.257 997.258 997.258 997.259 997.259 997.259 997.259 997.258 997.258 997.258 997.258
          997.257 997.257 997.257 997.256
        </DataArray>
        <DataArray type="Float32" Name="rhoN" NumberOfComponents="1" format="ascii">
          1.16797 1.16797 1.16428 1.16428 1.16797 1.16428 1.16797 1.16428 1.16797 1.16428 1.16797 1.16428
          1.16797 1.16428 1.16797 1.16428 1.16797 1.16428 1.16797 1.16428 1.16797 1.16428 1.16797 1.16428
          1.16797 1.16428 1.16797 1.16428 1.16797 1.16428 1.16797 1.16428 1.16091 1.16091 1.16091 1.16091
          1.16091 1.16091 1.16091 1.16091 1.16091 1.16091 1.16091 1.16091 1.16091 1.16091 1.16091 1.16091
          1.15788 1.15788 1.15788 1.15788 1.15788 1.15788 1.15788 1.15788 1.15788 1.15788 1.15788 1.15787
          1.15787 1.15787 1.15787 1.15787 1.15539 1.15539 1.15539 1.15539 1.15539 1.15539 1.15539 1.15539
          1.15539 1.15539 1.15539 1.15539 1.15539 1.15539 1.15539 1.15539 1.15454 1.15454 1.15454 1.15454
          1.15454 1.15454 1.15454 1.15454 1.15454 1.15454 1.15454 1.15454 1.15453 1.15453 1.15453 1.15453
          1.15463 1.15463 1.15463 1.15463 1.15463 1.15463 1.15463 1.15463 1.15463 1.15463 1.15463 1.15463
          1.15462 1.15462 1.15462 1.15462 1.15488 1.15488 1.15488 1.15488 1.15488 1.15488 1.15488 1.15488
          1.15488 1.15488 1.15488 1.15488 1.15487 1.15487 1.15487 1.15487 1.15526 1.15526 1.15526 1.15526
          1.15526 1.15527 1.15527 1.15527 1.15526 1.15526 1.15526 1.15526 1.15526 1.15526 1.15526 1.15526
          1.15578 1.15578 1.15578 1.15579 1.15579 1.15579 1.15579 1.15579 1.15579 1.15579 1.15578 1.15578
          1.15578 1.15578 1.15578 1.15577 1.15643 1.15643 1.15643 1.15644 1.15644 1.15644 1.15644 1.15644
          1.15644 1.15644 1.15643 1.15643 1.15643 1.15643 1.15642 1.15642 1.15718 1.15719 1.15719 1.1572
          1.15721 1.15721 1.15721 1.15721 1.1572 1.1572 1.1572 1.15719 1.15719 1.15718 1.15718 1.15717
          1.15802 1.15803 1.15805 1.15806 1.15806 1.15806 1.15806 1.15806 1.15806 1.15805 1.15805 1.15804
          1.15804 1.15803 1.15803 1.158
        </DataArray>
        <DataArray type="Float32" Name="mobW" NumberOfComponents="1" format="ascii">
          1123.57 1123.57 1123.55 1123.55 1123.57 1123.55 1123.57 1123.55 1123.57 1123.55 1123.57 1123.55
          1123.57 1123.55 1123.57 1123.55 1123.57 1123.55 1123.57 1123.55 1123.57 1123.55 1123.57 1123.55
          1123.57 1123.55 1123.57 1123.55 1123.57 1123.55 1123.57 1123.55 1123.52 1123.52 1123.52 1123.52
          1123.52 1123.52 1123.52 1123.52 1123.52 1123.52 1123.52 1123.52 1123.52 1123.52 1123.52 1123.52
          1123.42 1123.42 1123.42 1123.42 1123.42 1123.42 1123.42 1123.42 1123.42 1123.42 1123.42 1123.42
          1123.42 1123.42 1123.42 1123.42 1123.18 1123.18 1123.18 1123.18 1123.18 1123.18 1123.18 1123.18
          1123.18 1123.18 1123.18 1123.18 1123.18 1123.18 1123.18 1123.18 1122.59 1122.59 1122.59 1122.59
          1122.59 1122.59 1122.59 1122.59 1122.59 1122.59 1122.59 1122.59 1122.59 1122.59 1122.59 1122.59
          1121.3 1121.3 1121.3 1121.3 1121.3 1121.29 1121.29 1121.29 1121.3 1121.3 1121.3 1121.3
          1121.3 1121.31 1121.31 1121.31 1119.04 1119.04 1119.04 1119.03 1119.03 1119.03 1119.03 1119.03
          1119.03 1119.03 1119.04 1119.04 1119.05 1119.05 1119.05 1119.05 1115.39 1115.39 1115.38 1115.37
          1115.37 1115.36 1115.36 1115.36 1115.37 1115.37 1115.38 1115.39 1115.39 1115.4 1115.41 1115.41
          1107.47 1107.47 1107.45 1107.44 1107.43 1107.42 1107.42 1107.42 1107.43 1107.44 1107.45 1107.46
          1107.47 1107.49 1107.5 1107.5 1047.45 1047.44 1047.41 1047.39 1047.37 1047.37 1047.36 1047.37
          1047.38 1047.39 1047.41 1047.42 1047.44 1047.46 1047.47 1047.48 852.04 852.023 851.99 851.961
          851.943 851.935 851.935 851.941 851.952 851.967 851.983 852 852.017 852.035 852.061 852.087
          641.336 641.298 641.255 641.225 641.207 641.201 641.202 641.209 641.22 641.235 641.251 641.266
          641.282 641.298 641.315 641.396
        </DataArray>
        <DataArray type="Float32" Name="mobN" NumberOfComponents="1" format="ascii">
          7.56237e-05 7.56221e-05 0.000374107 0.000374096 7.56262e-05 0.000374108 7.56256e-05 0.000374098 7.56249e-05 0.000374119 7.56266e-05 0.000374108
          7.56244e-05 0.000374087 7.56211e-05 0.0003741 7.56198e-05 0.000374087 7.56254e-05 0.0003741 7.56287e-05 0.000374106 7.56248e-05 0.000374096
          7.56262e-05 0.000374111 7.56202e-05 0.000374092 7.56243e-05 0.000374107 7.56237e-05 0.00037411 0.000756219 0.0007562 0.000756194 0.000756204
          0.00075623 0.000756204 0.000756198 0.000756184 0.000756211 0.000756242 0.000756231 0.000756234 0.00075622 0.000756204 0.000756237 0.000756245
          0.00132501 0.00132502 0.00132504 0.00132501 0.00132503 0.00132498 0.00132496 0.00132496 0.00132502 0.00132502 0.00132501 0.00132503
          0.00132502 0.00132508 0.00132507 0.00132507 0.00469417 0.00469403 0.00469413 0.00469419 0.00469406 0.00469403 0.00469413 0.00469411
          0.00469409 0.00469418 0.0046942 0.00469414 0.00469417 0.00469437 0.0046944 0.00469444 0.0606986 0.0606986 0.0606985 0.0606984
          0.0606983 0.0606982 0.0606981 0.0606981 0.0606981 0.0606981 0.0606982 0.0606983 0.0606984 0.0606985 0.0606986 0.0606986
          0.291653 0.291653 0.291652 0.291652 0.291652 0.291652 0.291652 0.291651 0.291651 0.291651 0.291651 0.291651
          0.291651 0.291651 0.291651 0.291651 0.786996 0.786996 0.786996 0.786995 0.786995 0.786994 0.786994 0.786993
          0.786993 0.786992 0.786992 0.786991 0.78699 0.78699 0.786989 0.786989 1.76533 1.76533 1.76533 1.76533
          1.76533 1.76533 1.76533 1.76533 1.76532 1.76532 1.76532 1.76532 1.76532 1.76531 1.76531 1.76531
          5.24931 5.24929 5.24927 5.24926 5.24925 5.24924 5.24922 5.24921 5.24919 5.24917 5.24916 5.24914
          5.24912 5.2491 5.24907 5.24905 53.436 53.4356 53.4354 53.4354 53.4353 53.4353 53.4352 53.435
          53.4348 53.4347 53.4345 53.4343 53.4341 53.4339 53.4335 53.433 319.893 319.891 319.891 319.891
          319.891 319.891 319.89 319.889 319.888 319.887 319.886 319.885 319.883 319.882 319.88 319.876
          1257.04 1257.03 1257.03 1257.04 1257.04 1257.04 1257.03 1257.03 1257.03 1257.02 1257.02 1257.01
          1257.01 1257 1257 1256.96
        </DataArray>
        <DataArray type="Float32" Name="X_liquid^H2O" NumberOfComponents="1" format="ascii">
          0.999978 0.999978 0.999978 0.999978 0.999978 0.999978 0.999978 0.999978 0.999978 0.999978 0.999978 0.999978
          0.999978 0.999978 0.999978 0.999978 0.999978 0.999978 0.999978 0.999978 0.999978 0.999978 0.999978 0.999978
          0.999978 0.999978 0.999978 0.999978 0.999978 0.999978 0.999978 0.999978 0.999978 0.999978 0.999978 0.999978
          0.999978 0.999978 0.999978 0.999978 0.999978 0.999978 0.999978 0.999978 0.999978 0.999978 0.999978 0.999978
          0.999978 0.999978 0.999978 0.999978 0.999978 0.999978 0.999978 0.999978 0.999978 0.999978 0.999978 0.999978
          0.999978 0.999978 0.999978 0.999978 0.999978 0.999978 0.999978 0.999978 0.999978 0.999978 0.999978 0.999978
          0.999978 0.999978 0.999978 0.999978 0.999978 0.999978 0.999978 0.999978 0.999978 0.999978 0.999978 0.999978
          0.999978 0.999978 0.999978 0.999978 0.999978 0.999978 0.999978 0.999978 0.999978 0.999978 0.999978 0.999978
          0.999978 0.999978 0.999978 0.999978 0.999978 0.999978 0.999978 0.999978 0.999978 0.999978 0.999978 0.999978
          0.999978 0.999978 0.999978 0.999978 0.999978 0.999978 0.999978 0.999978 0.999978 0.999978 0.999978 0.999978
          0.999978 0.999978 0.999978 0.999978 0.999978 0.999978 0.999978 0.999978 0.999978 0.999978 0.999978 0.999978
          0.999978 0.999978 0.999978 0.999978 0.999978 0.999978 0.999978 0.999978 0.999978 0.999978 0.999978 0.999978
          0.999978 0.999978 0.999978 0.999978 0.999978 0.999978 0.999978 0.999978 0.999978 0.999978 0.999978 0.999978
          0.999978 0.999978 0.999978 0.999978 0.999978 0.999978 0.999978 0.999978 0.999978 0.999978 0.999978 0.999978
          0.999978 0.999978 0.999978 0.999978 0.999978 0.999978 0.999978 0.999978 0.999978 0.999978 0.999978 0.999978
          0.999978 0.999978 0.999978 0.999978 0.999978 0.999978 0.999978 0.999978 0.999978 0.999978 0.999978 0.999978
          0.999978 0.999978 0.999978 0.999978 0.999978 0.999978 0.999978 0.999978 0.999978 0.999978 0.999978 0.999978
          0.999978 0.999978 0.999978 0.999978
        </DataArray>
        <DataArray type="Float32" Name="X_liquid^Air" NumberOfComponents="1" format="ascii">
          2.18077e-05 2.18077e-05 2.17376e-05 2.17376e-05 2.18077e-05 2.17376e-05 2.18077e-05 2.17376e-05 2.18077e-05 2.17376e-05 2.18077e-05 2.17376e-05
          2.18077e-05 2.17376e-05 2.18077e-05 2.17376e-05 2.18077e-05 2.17376e-05 2.18077e-05 2.17376e-05 2.18077e-05 2.17376e-05 2.18077e-05 2.17376e-05
          2.18077e-05 2.17376e-05 2.18077e-05 2.17376e-05 2.18077e-05 2.17376e-05 2.18077e-05 2.17376e-05 2.16738e-05 2.16738e-05 2.16738e-05 2.16738e-05
          2.16738e-05 2.16738e-05 2.16738e-05 2.16738e-05 2.16738e-05 2.16738e-05 2.16738e-05 2.16738e-05 2.16738e-05 2.16738e-05 2.16738e-05 2.16738e-05
          2.16171e-05 2.16171e-05 2.16171e-05 2.16171e-05 2.16171e-05 2.16171e-05 2.16171e-05 2.16171e-05 2.16171e-05 2.16171e-05 2.16171e-05 2.16171e-05
          2.16171e-05 2.16171e-05 2.16171e-05 2.16171e-05 2.15723e-05 2.15723e-05 2.15723e-05 2.15723e-05 2.15723e-05 2.15723e-05 2.15723e-05 2.15723e-05
          2.15723e-05 2.15723e-05 2.15723e-05 2.15723e-05 2.15723e-05 2.15723e-05 2.15723e-05 2.15723e-05 2.15615e-05 2.15615e-05 2.15615e-05 2.15615e-05
          2.15615e-05 2.15615e-05 2.15615e-05 2.15615e-05 2.15615e-05 2.15615e-05 2.15615e-05 2.15615e-05 2.15615e-05 2.15614e-05 2.15614e-05 2.15614e-05
          2.15732e-05 2.15732e-05 2.15732e-05 2.15732e-05 2.15733e-05 2.15733e-05 2.15733e-05 2.15733e-05 2.15733e-05 2.15732e-05 2.15732e-05 2.15732e-05
          2.15731e-05 2.15731e-05 2.15731e-05 2.15731e-05 2.15943e-05 2.15943e-05 2.15943e-05 2.15944e-05 2.15945e-05 2.15945e-05 2.15945e-05 2.15945e-05
          2.15945e-05 2.15944e-05 2.15943e-05 2.15943e-05 2.15942e-05 2.15941e-05 2.15941e-05 2.15941e-05 2.16257e-05 2.16257e-05 2.16258e-05 2.16259e-05
          2.1626e-05 2.16261e-05 2.16261e-05 2.16261e-05 2.1626e-05 2.16259e-05 2.16258e-05 2.16257e-05 2.16256e-05 2.16255e-05 2.16254e-05 2.16254e-05
          2.1668e-05 2.16681e-05 2.16683e-05 2.16685e-05 2.16687e-05 2.16688e-05 2.16688e-05 2.16687e-05 2.16686e-05 2.16685e-05 2.16683e-05 2.16682e-05
          2.1668e-05 2.16678e-05 2.16676e-05 2.16676e-05 2.17209e-05 2.1721e-05 2.17214e-05 2.17218e-05 2.1722e-05 2.17222e-05 2.17222e-05 2.17221e-05
          2.17219e-05 2.17217e-05 2.17215e-05 2.17213e-05 2.1721e-05 2.17207e-05 2.17204e-05 2.17203e-05 2.17829e-05 2.17832e-05 2.17839e-05 2.17845e-05
          2.17848e-05 2.1785e-05 2.1785e-05 2.17849e-05 2.17847e-05 2.17844e-05 2.17841e-05 2.17837e-05 2.17834e-05 2.17831e-05 2.17826e-05 2.17821e-05
          2.1852e-05 2.1853e-05 2.18542e-05 2.1855e-05 2.18554e-05 2.18556e-05 2.18556e-05 2.18554e-05 2.18551e-05 2.18548e-05 2.18543e-05 2.18539e-05
          2.18535e-05 2.18531e-05 2.18527e-05 2.18506e-05
        </DataArray>
        <DataArray type="Float32" Name="X_gas^H2O" NumberOfComponents="1" format="ascii">
          0.0197228 0.0197228 0.0197848 0.0197848 0.0197228 0.0197848 0.0197228 0.0197848 0.0197228 0.0197848 0.0197228 0.0197848
          0.0197228 0.0197848 0.0197228 0.0197848 0.0197228 0.0197848 0.0197228 0.0197848 0.0197228 0.0197848 0.0197228 0.0197848
          0.0197228 0.0197848 0.0197228 0.0197848 0.0197228 0.0197848 0.0197228 0.0197848 0.0198406 0.0198406 0.0198406 0.0198406
          0.0198406 0.0198406 0.0198406 0.0198406 0.0198406 0.0198406 0.0198406 0.0198406 0.0198406 0.0198406 0.0198407 0.0198407
          0.0198884 0.0198884 0.0198884 0.0198884 0.0198884 0.0198884 0.0198884 0.0198884 0.0198884 0.0198884 0.0198885 0.0198885
          0.0198885 0.0198885 0.0198885 0.0198885 0.0199211 0.0199211 0.0199211 0.0199211 0.0199211 0.0199211 0.0199211 0.0199211
          0.0199211 0.0199211 0.0199211 0.0199212 0.0199212 0.0199212 0.0199212 0.0199212 0.0199147 0.0199147 0.0199147 0.0199146
          0.0199146 0.0199146 0.0199146 0.0199146 0.0199146 0.0199146 0.0199147 0.0199147 0.0199148 0.0199148 0.0199149 0.0199149
          0.0198744 0.0198744 0.0198743 0.0198742 0.0198741 0.0198741 0.0198741 0.0198741 0.0198741 0.0198742 0.0198743 0.0198744
          0.0198746 0.0198747 0.0198747 0.0198747 0.019807 0.0198069 0.0198068 0.0198066 0.0198064 0.0198063 0.0198063 0.0198063
          0.0198064 0.0198066 0.0198068 0.019807 0.0198072 0.0198074 0.0198075 0.0198076 0.019708 0.0197078 0.0197075 0.0197072
          0.0197068 0.0197067 0.0197066 0.0197067 0.0197069 0.0197072 0.0197075 0.0197079 0.0197082 0.0197086 0.0197088 0.0197089
          0.0195758 0.0195756 0.019575 0.0195743 0.0195738 0.0195735 0.0195735 0.0195736 0.0195739 0.0195743 0.0195749 0.0195754
          0.019576 0.0195765 0.019577 0.0195772 0.0194129 0.0194124 0.0194113 0.0194102 0.0194094 0.0194089 0.0194089 0.0194091
          0.0194096 0.0194102 0.0194109 0.0194117 0.0194125 0.0194133 0.0194142 0.0194147 0.0192244 0.0192232 0.0192212 0.0192195
          0.0192184 0.0192179 0.0192179 0.0192182 0.0192189 0.0192197 0.0192207 0.0192217 0.0192227 0.0192237 0.0192252 0.0192267
          0.0190173 0.0190142 0.0190108 0.0190085 0.0190071 0.0190065 0.0190066 0.0190071 0.019008 0.0190091 0.0190103 0.0190115
          0.0190127 0.0190139 0.0190152 0.0190213
        </DataArray>
        <DataArray type="Float32" Name="X_gas^Air" NumberOfComponents="1" format="ascii">
          0.980277 0.980277 0.980215 0.980215 0.980277 0.980215 0.980277 0.980215 0.980277 0.980215 0.980277 0.980215
          0.980277 0.980215 0.980277 0.980215 0.980277 0.980215 0.980277 0.980215 0.980277 0.980215 0.980277 0.980215
          0.980277 0.980215 0.980277 0.980215 0.980277 0.980215 0.980277 0.980215 0.980159 0.980159 0.980159 0.980159
          0.980159 0.980159 0.980159 0.980159 0.980159 0.980159 0.980159 0.980159 0.980159 0.980159 0.980159 0.980159
          0.980112 0.980112 0.980112 0.980112 0.980112 0.980112 0.980112 0.980112 0.980112 0.980112 0.980112 0.980112
          0.980112 0.980112 0.980112 0.980112 0.980079 0.980079 0.980079 0.980079 0.980079 0.980079 0.980079 0.980079
          0.980079 0.980079 0.980079 0.980079 0.980079 0.980079 0.980079 0.980079 0.980085 0.980085 0.980085 0.980085
          0.980085 0.980085 0.980085 0.980085 0.980085 0.980085 0.980085 0.980085 0.980085 0.980085 0.980085 0.980085
          0.980126 0.980126 0.980126 0.980126 0.980126 0.980126 0.980126 0.980126 0.980126 0.980126 0.980126 0.980126
          0.980125 0.980125 0.980125 0.980125 0.980193 0.980193 0.980193 0.980193 0.980194 0.980194 0.980194 0.980194
          0.980194 0.980193 0.980193 0.980193 0.980193 0.980193 0.980192 0.980192 0.980292 0.980292 0.980292 0.980293
          0.980293 0.980293 0.980293 0.980293 0.980293 0.980293 0.980292 0.980292 0.980292 0.980291 0.980291 0.980291
          0.980424 0.980424 0.980425 0.980426 0.980426 0.980426 0.980427 0.980426 0.980426 0.980426 0.980425 0.980425
          0.980424 0.980423 0.980423 0.980423 0.980587 0.980588 0.980589 0.98059 0.980591 0.980591 0.980591 0.980591
          0.98059 0.98059 0.980589 0.980588 0.980588 0.980587 0.980586 0.980585 0.980776 0.980777 0.980779 0.98078
          0.980782 0.980782 0.980782 0.980782 0.980781 0.98078 0.980779 0.980778 0.980777 0.980776 0.980775 0.980773
          0.980983 0.980986 0.980989 0.980992 0.980993 0.980993 0.980993 0.980993 0.980992 0.980991 0.98099 0.980989
          0.980987 0.980986 0.980985 0.980979
        </DataArray>
        <DataArray type="Float32" Name="x_liquid^H2O" NumberOfComponents="1" format="ascii">
          0.999986 0.999986 0.999986 0.999986 0.999986 0.999986 0.999986 0.999986 0.999986 0.999986 0.999986 0.999986
          0.999986 0.999986 0.999986 0.999986 0.999986 0.999986 0.999986 0.999986 0.999986 0.999986 0.999986 0.999986
          0.999986 0.999986 0.999986 0.999986 0.999986 0.999986 0.999986 0.999986 0.999987 0.999987 0.999987 0.999987
          0.999987 0.999987 0.999987 0.999987 0.999987 0.999987 0.999987 0.999987 0.999987 0.999987 0.999987 0.999987
          0.999987 0.999987 0.999987 0.999987 0.999987 0.999987 0.999987 0.999987 0.999987 0.999987 0.999987 0.999987
          0.999987 0.999987 0.999987 0.999987 0.999987 0.999987 0.999987 0.999987 0.999987 0.999987 0.999987 0.999987
          0.999987 0.999987 0.999987 0.999987 0.999987 0.999987 0.999987 0.999987 0.999987 0.999987 0.999987 0.999987
          0.999987 0.999987 0.999987 0.999987 0.999987 0.999987 0.999987 0.999987 0.999987 0.999987 0.999987 0.999987
          0.999987 0.999987 0.999987 0.999987 0.999987 0.999987 0.999987 0.999987 0.999987 0.999987 0.999987 0.999987
          0.999987 0.999987 0.999987 0.999987 0.999987 0.999987 0.999987 0.999987 0.999987 0.999987 0.999987 0.999987
          0.999987 0.999987 0.999987 0.999987 0.999987 0.999987 0.999987 0.999987 0.999987 0.999987 0.999987 0.999987
          0.999987 0.999987 0.999987 0.999987 0.999987 0.999987 0.999987 0.999987 0.999987 0.999987 0.999987 0.999987
          0.999987 0.999987 0.999987 0.999987 0.999987 0.999987 0.999987 0.999987 0.999987 0.999987 0.999987 0.999987
          0.999987 0.999987 0.999987 0.999987 0.999986 0.999986 0.999986 0.999986 0.999986 0.999986 0.999986 0.999986
          0.999986 0.999986 0.999986 0.999986 0.999986 0.999986 0.999986 0.999986 0.999986 0.999986 0.999986 0.999986
          0.999986 0.999986 0.999986 0.999986 0.999986 0.999986 0.999986 0.999986 0.999986 0.999986 0.999986 0.999986
          0.999986 0.999986 0.999986 0.999986 0.999986 0.999986 0.999986 0.999986 0.999986 0.999986 0.999986 0.999986
          0.999986 0.999986 0.999986 0.999986
        </DataArray>
        <DataArray type="Float32" Name="x_liquid^Air" NumberOfComponents="1" format="ascii">