<?xml version="1.0"?>
<VTKFile type="UnstructuredGrid" version="0.1" byte_order="LittleEndian">
  <UnstructuredGrid>
    <Piece NumberOfCells="56" NumberOfPoints="72">
      <PointData Scalars="P" Vectors="v">
        <DataArray type="Float32" Name="P" NumberOfComponents="1" format="ascii">
          100017 99990 100017 99989.8 100012 100013 99994 99992.8 100009 100009 99996.7 99996.4
          100005 100005 100000 100000 100020 99988.6 100013 99993.2 100009 99996.5 100005 100000
          100019 99988.5 100014 99992.2 100010 99996.1 100006 100000 100019 99988.2 100014 99992.4
          100010 99996.2 100006 100000 100019 99988.5 100014 99992.2 100010 99996.1 100006 100000
          100020 99988.7 100014 99992.5 100010 99996.2 100005 100000 100017 99989.9 100013 99992.7
          100009 99996.3 100005 100000 100017 99989.9 100013 99992.7 100009 99996.2 100005 100000
        </DataArray>
        <DataArray type="Float32" Name="delP" NumberOfComponents="1" format="ascii">
          17.0466 -10.0398 16.8536 -10.2328 11.8442 13.4284 -5.98675 -7.20223 8.97477 9.37832 -3.32094 -3.63861
          5.29837 5.33868 0 0 19.9322 -11.3527 13.119 -6.74977 9.30108 -3.45521 5.40338 0
          19.0004 -11.5424 14.4266 -7.8055 9.86662 -3.91213 5.70643 0 18.7399 -11.7976 14.1427 -7.61329
          9.8348 -3.81029 5.73141 0 19.0704 -11.4862 14.3739 -7.78195 9.84953 -3.94907 5.65056 0
          19.7464 -11.2911 13.9263 -7.49288 9.54425 -3.78342 5.35356 0 16.8569 -10.0753 13.3794 -7.31809
          9.39921 -3.74311 5.17663 0 16.8218 -10.1103 13.3706 -7.33017 9.39747 -3.7471 5.2037 0
        </DataArray>
        <DataArray type="Float32" Name="x_gas^H2O" NumberOfComponents="1" format="ascii">
          0.0127981 0.0102654 0.0127981 0.0127005 0.0145671 0.0127235 0.0171487 0.0128065 0.0173452 0.0128571 0.0176067 0.012912
          0.0144057 0.0129175 0.0101329 0.0118227 0.0127981 0.0127923 0.0127909 0.0127917 0.0127939 0.0127974 0.01279 0.0120671
          0.0127981 0.0127978 0.0127976 0.0127974 0.0127973 0.0127969 0.0127807 0.0120887 0.0127981 0.012798 0.012798 0.0127979
          0.0127977 0.0127969 0.012774 0.0120802 0.0127981 0.0127976 0.0127968 0.0127955 0.0127942 0.0127924 0.0127747 0.0120812
          0.0127981 0.0127891 0.0127791 0.0127656 0.0127551 0.0127453 0.0127276 0.0119784 0.0127981 0.0126677 0.0125701 0.0124765
          0.0124268 0.0123955 0.012367 0.0113245 0.0127981 0.00998371 0.00901531 0.00850094 0.0085519 0.00910854 0.00743797 0.00581896
        </DataArray>
        <DataArray type="Float32" Name="X_gas^H2O" NumberOfComponents="1" format="ascii">
          0.008 0.00641071 0.008 0.00793872 0.00911193 0.00795314 0.0107373 0.00800533 0.0108612 0.00803711 0.011026 0.00807159
          0.00901045 0.00807501 0.00632762 0.00738757 0.008 0.00799636 0.00799549 0.00799597 0.00799736 0.0079996 0.00799494 0.00754099
          0.008 0.00799985 0.00799973 0.0079996 0.00799954 0.0079993 0.00798911 0.00755456 0.008 0.00799998 0.00799995 0.00799989
          0.0079998 0.00799929 0.00798487 0.00754924 0.008 0.00799971 0.00799923 0.00799842 0.00799759 0.00799644 0.00798535 0.00754983
          0.008 0.00799434 0.00798808 0.0079796 0.00797299 0.00796686 0.00795572 0.00748533 0.008 0.00791811 0.00785683 0.00779803
          0.00776683 0.00774717 0.00772927 0.00707492 0.008 0.0062341 0.00562733 0.00530523 0.00533714 0.00568573 0.00463999 0.00362779
        </DataArray>
        <DataArray type="Float32" Name="x_gas^Air" NumberOfComponents="1" format="ascii">
          0.987202 0.989735 0.987202 0.9873 0.985433 0.987277 0.982851 0.987193 0.982655 0.987143 0.982393 0.987088
          0.985594 0.987083 0.989867 0.988177 0.987202 0.987208 0.987209 0.987208 0.987206 0.987203 0.98721 0.987933
          0.987202 0.987202 0.987202 0.987203 0.987203 0.987203 0.987219 0.987911 0.987202 0.987202 0.987202 0.987202
          0.987202 0.987203 0.987226 0.98792 0.987202 0.987202 0.987203 0.987204 0.987206 0.987208 0.987225 0.987919
          0.987202 0.987211 0.987221 0.987234 0.987245 0.987255 0.987272 0.988022 0.987202 0.987332 0.98743 0.987523
          0.987573 0.987604 0.987633 0.988676 0.987202 0.990016 0.990985 0.991499 0.991448 0.990891 0.992562 0.994181
        </DataArray>
        <DataArray type="Float32" Name="X_gas^Air" NumberOfComponents="1" format="ascii">
          0.992 0.993589 0.992 0.992061 0.990888 0.992047 0.989263 0.991995 0.989139 0.991963 0.988974 0.991928
          0.99099 0.991925 0.993672 0.992612 0.992 0.992004 0.992005 0.992004 0.992003 0.992 0.992005 0.992459
          0.992 0.992 0.992 0.992 0.992 0.992001 0.992011 0.992445 0.992 0.992 0.992 0.992
          0.992 0.992001 0.992015 0.992451 0.992 0.992 0.992001 0.992002 0.992002 0.992004 0.992015 0.99245
          0.992 0.992006 0.992012 0.99202 0.992027 0.992033 0.992044 0.992515 0.992 0.992082 0.992143 0.992202
          0.992233 0.992253 0.992271 0.992925 0.992 0.993766 0.994373 0.994695 0.994663 0.994314 0.99536 0.996372
        </DataArray>
        <DataArray type="Float32" Name="rho" NumberOfComponents="1" format="ascii">
          1.16279 1.16359 1.16278 1.16252 1.18838 1.16282 1.20054 1.16286 1.19988 1.16309 1.19866 1.163
          1.16194 1.1631 1.19282 1.17167 1.16282 1.16246 1.16274 1.16252 1.16271 1.16256 1.16267 1.16838
          1.16281 1.16245 1.16276 1.1625 1.1627 1.16254 1.16266 1.16813 1.16281 1.16245 1.16275 1.1625
          1.1627 1.16254 1.16267 1.16815 1.16281 1.16245 1.16276 1.1625 1.1627 1.16254 1.16267 1.16814
          1.16282 1.16246 1.16276 1.16251 1.16272 1.16257 1.16268 1.1686 1.16278 1.16253 1.16284 1.16264
          1.16286 1.16272 1.16284 1.1713 1.16278 1.16371 1.16441 1.1644 1.16457 1.16417 1.16501 1.1932
        </DataArray>
        <DataArray type="Float32" Name="mu" NumberOfComponents="1" format="ascii">
          1.81222e-05 1.81453e-05 1.81222e-05 1.81231e-05 1.77911e-05 1.81224e-05 1.76107e-05 1.81178e-05 1.76175e-05 1.81166e-05 1.76263e-05 1.81151e-05
          1.81076e-05 1.8115e-05 1.78008e-05 1.80267e-05 1.81222e-05 1.81223e-05 1.81223e-05 1.81222e-05 1.81222e-05 1.81221e-05 1.81221e-05 1.80628e-05
          1.81222e-05 1.81222e-05 1.81222e-05 1.81222e-05 1.81222e-05 1.81222e-05 1.81224e-05 1.80654e-05 1.81222e-05 1.81222e-05 1.81222e-05 1.81222e-05
          1.81222e-05 1.81222e-05 1.81224e-05 1.80653e-05 1.81222e-05 1.81222e-05 1.81222e-05 1.81223e-05 1.81223e-05 1.81223e-05 1.81224e-05 1.80654e-05
          1.81222e-05 1.81223e-05 1.81224e-05 1.81225e-05 1.81226e-05 1.81227e-05 1.81229e-05 1.80614e-05 1.81222e-05 1.81234e-05 1.81243e-05 1.81252e-05
          1.81257e-05 1.81259e-05 1.81262e-05 1.80383e-05 1.81222e-05 1.81478e-05 1.81566e-05 1.81613e-05 1.81608e-05 1.81558e-05 1.8171e-05 1.78579e-05
        </DataArray>
        <DataArray type="Float32" Name="D" NumberOfComponents="1" format="ascii">
          2.49325e-05 2.49393e-05 2.49326e-05 2.49391e-05 2.39445e-05 2.49319e-05 2.3465e-05 2.49246e-05 2.34878e-05 2.49182e-05 2.35245e-05 2.49183e-05
          2.49354e-05 2.4916e-05 2.38541e-05 2.46062e-05 2.49318e-05 2.49396e-05 2.49335e-05 2.49382e-05 2.49341e-05 2.49372e-05 2.49349e-05 2.47272e-05
          2.4932e-05 2.49396e-05 2.49332e-05 2.49387e-05 2.49343e-05 2.49377e-05 2.49352e-05 2.4736e-05 2.49321e-05 2.49397e-05 2.49332e-05 2.49386e-05
          2.49343e-05 2.49377e-05 2.49352e-05 2.47354e-05 2.4932e-05 2.49396e-05 2.49332e-05 2.49387e-05 2.49343e-05 2.49377e-05 2.49352e-05 2.47358e-05
          2.49318e-05 2.49396e-05 2.49333e-05 2.49386e-05 2.49344e-05 2.49377e-05 2.49354e-05 2.47202e-05 2.49326e-05 2.49393e-05 2.49335e-05 2.49387e-05
          2.49346e-05 2.49379e-05 2.49355e-05 2.46287e-05 2.49326e-05 2.49393e-05 2.49334e-05 2.49386e-05 2.49344e-05 2.49377e-05 2.49355e-05 2.39106e-05
        </DataArray>
        <DataArray type="Float32" Name="lambda" NumberOfComponents="1" format="ascii">
          0 0 0 0 0 0 0 0 0 0 0 0
          0 0 0 0 0 0 0 0 0 0 0 0
          0 0 0 0 0 0 0 0 0 0 0 0
          0 0 0 0 0 0 0 0 0 0 0 0
          0 0 0 0 0 0 0 0 0 0 0 0
          0 0 0 0 0 0 0 0 0 0 0 0
        </DataArray>
        <DataArray type="Float32" Name="temperature" NumberOfComponents="1" format="ascii">
          298.15 298.15 298.15 298.149 291.519 298.14 288.232 298.057 288.412 298.042 288.643 298.021
          298.15 298.021 290.888 295.948 298.15 298.15 298.15 298.148 298.148 298.147 298.147 296.755
          298.15 298.15 298.15 298.15 298.15 298.15 298.149 296.814 298.15 298.15 298.15 298.15
          298.15 298.15 298.149 296.81 298.15 298.15 298.15 298.15 298.15 298.15 298.149 296.812
          298.15 298.15 298.15 298.15 298.15 298.15 298.15 296.708 298.15 298.15 298.15 298.151
          298.151 298.151 298.15 296.098 298.15 298.15 298.15 298.15 298.15 298.15 298.15 291.27
        </DataArray>
        <DataArray type="Float32" Name="v" NumberOfComponents="3" format="ascii">
          0 0 0 0 0 0 3.5 0 0 3.71186 0.134918 0
          -0.00881628 -0.00477543 0 3.15764 -0.102484 0 0.457328 0.00780399 0 3.54611 0.0340272 0
          -0.0463155 -0.00621166 0 3.00943 -0.0107149 0 0.481567 0.00387028 0 3.46593 0.00676776 0
          0 0 0 2.94966 -0.0348827 0 1.42325 -0.0157782 0 3.39995 -0.0513516 0
          3.5 0 0 4.14566 0.118082 0 3.65518 0.0131766 0 4.05161 0.0621933 0
          3.64544 0.0109064 0 4.03657 0.0275831 0 3.61726 -0.0207583 0 3.98511 -0.0304693 0
          3.5 0 0 4.0414 0.0482092 0 3.61292 -0.0286125 0 4.10066 0.029847 0
          3.68652 -0.0013876 0 4.12904 0.0188123 0 3.71514 -0.00667852 0 4.10585 -0.0112552 0
          3.5 0 0 4.01777 -0.0052592 0 3.5756 -0.00309585 0 4.04829 -0.00490347 0
          3.643 -0.0037801 0 4.08337 -3.19324e-05 0 3.67489 0.00479175 0 4.07276 0.00520353 0
          3.5 0 0 4.04234 -0.0643566 0 3.62507 -0.0523174 0 4.11135 -0.0550917 0
          3.70081 -0.0292999 0 4.14314 -0.0209893 0 3.72572 0.0145126 0 4.10934 0.0197014 0
          3.5 0 0 4.07344 -0.133883 0 3.63522 -0.0369333 0 4.06249 -0.0694053 0
          3.61398 -0.0197083 0 4.02474 -0.0248173 0 3.57513 0.0413183 0 3.93698 0.0524367 0
          3.5 0 0 3.66584 -0.128329 0 3.11112 -0.0329058 0 3.48188 -0.0414777 0
          2.91196 -0.00998838 0 3.39596 -0.00818624 0 2.86553 0.0615884 0 3.33484 0.0763954 0
          0 0 0 0 0 0 0 0 0 0 0 0
          0 0 0 0 0 0 0 0 0 1.44882 0.00934465 0
        </DataArray>
      </PointData>
      <CellData Scalars="mu_t">
        <DataArray type="Float32" Name="mu_t" NumberOfComponents="1" format="ascii">
          0.00169243 0.00160083 0.0014225 0.0013946 0.00135916 0.00129889 0.000984587 0.00131394 0.00281445 0.0030169 0.00343126 0.0036218
          0.00370137 0.00368286 0.000925935 0.00130106 0.000230796 0.000800132 0.00118555 0.00168954 0.00194318 0.000439814 0.00113476 0.00167006
          0.0017853 0.00166054 0.00159974 0.00136872 0.000457446 0.00137852 0.00209524 0.00225051 0.00218934 0.00205925 0.00163109 0.000276167
          0.000366266 0.000343662 0.00120454 0.00182183 0.0023877 0.00286962 0.00123398 0.00280785 0.00332312 0.00384739 0.00398796 0.00400851
          0.00383902 0.00167696 0.00154698 0.00148739 0.00142118 0.00139375 0.00138006 0.000932048
        </DataArray>
        <DataArray type="Float32" Name="nu_t" NumberOfComponents="1" format="ascii">
          0.00145543 0.0013714 0.0012117 0.00118581 0.00115596 0.00111099 0.00084109 0.00113015 0.00242076 0.00259469 0.00295092 0.00311468
          0.00318314 0.00315772 0.000796426 0.0011191 0.000198513 0.000688224 0.00101972 0.00145324 0.00166726 0.000378299 0.000976045 0.00143646
          0.00153561 0.00142827 0.001376 0.00117449 0.000393465 0.00118571 0.00180216 0.00193576 0.0018831 0.00177124 0.00139965 0.00023754
          0.000315041 0.000295596 0.00103606 0.00156699 0.00205373 0.00246206 0.00106137 0.00241505 0.00285815 0.00330909 0.00342989 0.00344761
          0.00329184 0.00144209 0.00132998 0.00127857 0.00122162 0.00119806 0.00118622 0.000795937
        </DataArray>
        <DataArray type="Float32" Name="l_mix" NumberOfComponents="1" format="ascii">
          0.00222122 0.00220644 0.00217263 0.00216825 0.00215849 0.00213312 0.00202781 0.0108207 0.010809 0.0107809 0.0107771 0.0107685
          0.0107451 0.0106318 0.0228578 0.022857 0.0228548 0.0228544 0.0228537 0.0228515 0.0228382 0.0406057 0.0406057 0.0406057
          0.0406057 0.0406057 0.0406057 0.0406055 0.0406057 0.0406057 0.0406057 0.0406057 0.0406057 0.0406057 0.0406054 0.0228577
          0.0228558 0.0228548 0.0228534 0.0228529 0.0228526 0.0228346 0.0108181 0.0107934 0.0107817 0.010766 0.01076 0.010757
          0.0106065 0.00221786 0.00218753 0.00217365 0.00215611 0.00214931 0.0021461 0.00200708
        </DataArray>
        <DataArray type="Float32" Name="u^+" NumberOfComponents="1" format="ascii">
          29.8308 29.357 32.5864 32.1711 32.1702 31.925 39.486 61.4527 62.7789 65.6499 65.8193 65.9014
          65.116 70.6984 62.8133 66.1422 70.2507 71.5074 72.1396 71.7265 78.1441 62.2852 65.2553 69.8736
          71.4808 72.3463 72.2097 78.8818 62.487 65.1299 66.4052 68.1311 68.8618 69.3102 80.3276 62.7176
          65.6221 66.7252 68.0649 68.4747 68.6066 79.1116 61.1576 61.8178 61.7826 61.8263 61.6787 61.4728
          70.6973 29.7343 28.9189 28.5033 28.0925 27.8949 27.7666 39.5437
        </DataArray>
        <DataArray type="Float32" Name="y^+" NumberOfComponents="1" format="ascii">
          29.8216 29.4104 28.4905 28.3742 28.1171 27.4618 24.9315 104.376 102.936 99.7168 99.3096 98.4099
          96.1164 87.2601 216.206 213.225 206.556 205.713 203.849 199.098 180.753 383.953 378.658 366.815
          365.318 362.008 353.571 320.993 382.737 372.008 367.198 361.243 358.955 357.914 314.951 215.522
          209.48 206.772 203.418 202.13 201.544 177.351 104.045 101.128 99.8209 98.2019 97.5801 97.297
          85.6178 29.7271 28.8938 28.5202 28.0577 27.88 27.7991 24.4622
        </DataArray>
        <DataArray type="Float32" Name="D_t" NumberOfComponents="1" format="ascii">
          0.000239469 0.000227819 0.000234325 0.000228405 0.000226363 0.000225555 0.00024793 0.00154004 0.00152343 0.00149694 0.00148136 0.00147187
          0.00146294 0.00145087 0.00325489 0.00331201 0.00330583 0.00332021 0.00332343 0.003324 0.00330823 0.00573279 0.00580409 0.00583791
          0.00589152 0.00591576 0.00593884 0.00592613 0.00573314 0.00580891 0.00584632 0.00590072 0.00592621 0.00594792 0.00593131 0.00324022
          0.00329593 0.00330904 0.00332154 0.00332084 0.00331838 0.00329276 0.00152766 0.00150432 0.0014851 0.00146328 0.00145075 0.00144197
          0.00142641 0.000237931 0.000224934 0.000218783 0.000212123 0.000209249 0.000207695 0.000243623
        </DataArray>
        <DataArray type="Float32" Name="lambda_t" NumberOfComponents="1" format="ascii">
          0.00681039 0.00666007 0.00762407 0.0077384 0.00773136 0.00738903 0.00710541 0.0454968 0.0449405 0.0442451 0.0438908 0.0436973
          0.043474 0.0417643 0.0963249 0.0979993 0.0978167 0.098245 0.0983515 0.0983282 0.0953994 0.169673 0.171778 0.17278
          0.174361 0.175077 0.175625 0.170872 0.169682 0.171917 0.173021 0.174618 0.175362 0.17586 0.170979 0.0958847
          0.0974957 0.0978399 0.0981602 0.0980995 0.09794 0.0946664 0.0451019 0.0442189 0.0434864 0.0427191 0.0422756 0.0419515
          0.040152 0.00673274 0.00596718 0.00563497 0.00540112 0.00537174 0.00522538 0.00557823
        </DataArray>
      </CellData>
      <Points>
        <DataArray type="Float32" Name="Coordinates" NumberOfComponents="3" format="ascii">
          0 0.25 0 0.05 0.25 0 0 0.265385 0 0.05 0.265385 0
          0.1 0.25 0 0.1 0.265385 0 0.15 0.25 0 0.15 0.265385 0
          0.2 0.25 0 0.2 0.265385 0 0.25 0.25 0 0.25 0.265385 0
          0.3 0.25 0 0.3 0.265385 0 0.35 0.25 0 0.35 0.265385 0
          0 0.288462 0 0.05 0.288462 0 0.1 0.288462 0 0.15 0.288462 0
          0.2 0.288462 0 0.25 0.288462 0 0.3 0.288462 0 0.35 0.288462 0
          0 0.323077 0 0.05 0.323077 0 0.1 0.323077 0 0.15 0.323077 0
          0.2 0.323077 0 0.25 0.323077 0 0.3 0.323077 0 0.35 0.323077 0
          0 0.375 0 0.05 0.375 0 0.1 0.375 0 0.15 0.375 0
          0.2 0.375 0 0.25 0.375 0 0.3 0.375 0 0.35 0.375 0
          0 0.426923 0 0.05 0.426923 0 0.1 0.426923 0 0.15 0.426923 0
          0.2 0.426923 0 0.25 0.426923 0 0.3 0.426923 0 0.35 0.426923 0
          0 0.461538 0 0.05 0.461538 0 0.1 0.461538 0 0.15 0.461538 0
          0.2 0.461538 0 0.25 0.461538 0 0.3 0.461538 0 0.35 0.461538 0
          0 0.484615 0 0.05 0.484615 0 0.1 0.484615 0 0.15 0.484615 0
          0.2 0.484615 0 0.25 0.484615 0 0.3 0.484615 0 0.35 0.484615 0
          0 0.5 0 0.05 0.5 0 0.1 0.5 0 0.15 0.5 0
          0.2 0.5 0 0.25 0.5 0 0.3 0.5 0 0.35 0.5 0
        </DataArray>
      </Points>
      <Cells>
        <DataArray type="Int32" Name="connectivity" NumberOfComponents="1" format="ascii">
          0 1 3 2 1 4 5 3 4 6 7 5
          6 8 9 7 8 10 11 9 10 12 13 11
          12 14 15 13 2 3 17 16 3 5 18 17
          5 7 19 18 7 9 20 19 9 11 21 20
          11 13 22 21 13 15 23 22 16 17 25 24
          17 18 26 25 18 19 27 26 19 20 28 27
          20 21 29 28 21 22 30 29 22 23 31 30
          24 25 33 32 25 26 34 33 26 27 35 34
          27 28 36 35 28 29 37 36 29 30 38 37
          30 31 39 38 32 33 41 40 33 34 42 41
          34 35 43 42 35 36 44 43 36 37 45 44
          37 38 46 45 38 39 47 46 40 41 49 48
          41 42 50 49 42 43 51 50 43 44 52 51
          44 45 53 52 45 46 54 53 46 47 55 54
          48 49 57 56 49 50 58 57 50 51 59 58
          51 52 60 59 52 53 61 60 53 54 62 61
          54 55 63 62 56 57 65 64 57 58 66 65
          58 59 67 66 59 60 68 67 60 61 69 68
          61 62 70 69 62 63 71 70
        </DataArray>
        <DataArray type="Int32" Name="offsets" NumberOfComponents="1" format="ascii">
          4 8 12 16 20 24 28 32 36 40 44 48
          52 56 60 64 68 72 76 80 84 88 92 96
          100 104 108 112 116 120 124 128 132 136 140 144
          148 152 156 160 164 168 172 176 180 184 188 192
          196 200 204 208 212 216 220 224
        </DataArray>
        <DataArray type="UInt8" Name="types" NumberOfComponents="1" format="ascii">
          9 9 9 9 9 9 9 9 9 9 9 9
          9 9 9 9 9 9 9 9 9 9 9 9
          9 9 9 9 9 9 9 9 9 9 9 9
          9 9 9 9 9 9 9 9 9 9 9 9
          9 9 9 9 9 9 9 9
        </DataArray>
      </Cells>
    </Piece>
  </UnstructuredGrid>
</VTKFile>
