<?xml version="1.0"?>
<VTKFile type="UnstructuredGrid" version="0.1" byte_order="LittleEndian">
  <UnstructuredGrid>
    <Piece NumberOfCells="25" NumberOfPoints="36">
      <PointData Scalars="Sn" Vectors="velocityW">
        <DataArray type="Float32" Name="Sn" NumberOfComponents="1" format="ascii">
          0.0750879 0.0750906 0.875107 0.874938 0.0750629 0.8746 0.0750438 0.874156 0.0750472 0.873755 0.0750519 0.873594
          0.938627 0.9388 0.937982 0.937143 0.936472 0.93608 0.957838 0.96014 0.958001 0.955501 0.954155 0.953244
          0.97054 0.979307 0.976986 0.971314 0.966526 0.963334 0.965619 1 1 0.984275 0.976549 0.96919
        </DataArray>
        <DataArray type="Float32" Name="Sw" NumberOfComponents="1" format="ascii">
          0.924912 0.924909 0.124893 0.125062 0.924937 0.1254 0.924956 0.125844 0.924953 0.126245 0.924948 0.126406
          0.0613725 0.0611999 0.0620181 0.0628566 0.0635281 0.0639198 0.0421615 0.0398596 0.0419992 0.044499 0.0458449 0.046756
          0.0294595 0.0206932 0.0230136 0.0286856 0.0334739 0.036666 0.0343812 0 0 0.0157249 0.0234506 0.0308099
        </DataArray>
        <DataArray type="Float32" Name="pn" NumberOfComponents="1" format="ascii">
          100007 100007 100004 100004 100006 100004 100006 100003 100006 100002 100006 100002
          100004 100004 100003 100002 100001 100001 100005 100005 100001 100002 99999.6 99999.2
          100005 100007 99997.8 100005 99997.5 99998.7 100005 100010 99993.7 100008 99995 99999.1
        </DataArray>
        <DataArray type="Float32" Name="pw" NumberOfComponents="1" format="ascii">
          98859.7 98859.7 97908.5 97908.8 98859.5 97909.2 98859.3 97909.8 98859.1 97910.5 98859 97910.7
          97653.9 97652.3 97656.1 97660.6 97663.6 97665.5 97505.9 97481.9 97500.1 97525.3 97534.6 97542.2
          97349.1 97174.5 97221.3 97335.9 97399.2 97440.2 97418.1 96325.4 96309.5 97016.2 97228.2 97363.4
        </DataArray>
        <DataArray type="Float32" Name="pc" NumberOfComponents="1" format="ascii">
          1146.91 1146.92 2095.7 2095.24 1146.85 2094.32 1146.8 2093.11 1146.81 2092.02 1146.82 2091.58
          2350.55 2351.62 2346.57 2341.49 2337.47 2335.15 2499.36 2522.84 2500.96 2477.14 2464.99 2457.03
          2656.29 2832.23 2776.46 2668.7 2598.33 2558.45 2586.5 3684.13 3684.13 2991.69 2766.87 2635.66
        </DataArray>
        <DataArray type="Float32" Name="rhoW" NumberOfComponents="1" format="ascii">
          997.055 997.055 997.114 997.117 997.055 997.121 997.055 997.12 997.055 997.112 997.055 997.108
          997.323 997.376 997.435 997.452 997.382 997.319 997.534 997.788 997.973 998.118 997.924 997.598
          997.554 998.08 998.351 998.719 998.52 997.669 997.668 997.756 998.682 999.103 999.057 997.504
        </DataArray>
        <DataArray type="Float32" Name="rhoN" NumberOfComponents="1" format="ascii">
          1.15435 1.15435 1.15541 1.15546 1.15435 1.15554 1.15435 1.15551 1.15434 1.15537 1.15434 1.15529
          1.15935 1.16036 1.16148 1.16179 1.16042 1.15922 1.16345 1.16855 1.17241 1.17557 1.17134 1.16465
          1.16383 1.1748 1.18081 1.18999 1.18487 1.16605 1.16611 1.17425 1.19112 1.20091 1.19934 1.16279
        </DataArray>
        <DataArray type="Float32" Name="mobW" NumberOfComponents="1" format="ascii">
          907.079 907.066 2.45157 2.46061 907.198 2.47902 907.289 2.50503 907.273 2.53001 907.251 2.54044
          0.291851 0.287916 0.298081 0.309989 0.3223 0.330315 0.0894122 0.0729038 0.0843765 0.0996158 0.11178 0.122983
          0.0278011 0.00763081 0.0108525 0.0221623 0.0380559 0.0564579 0.0458204 0 0 0.00229257 0.0104817 0.0324517
        </DataArray>
        <DataArray type="Float32" Name="mobN" NumberOfComponents="1" format="ascii">
          242.962 242.983 45242 45227.3 242.768 45197.6 242.621 45156.2 242.647 45117.1 242.684 45101
          51931.4 51970.2 51900.7 51812.5 51710.4 51643.1 53991.8 54304.6 54197.3 54033.4 53812.4 53583.1
          55016.8 55761.1 55786.9 55666.3 55200.9 54524.3 54706.7 55575.2 56337.7 56602.8 56223.1 54903.3
        </DataArray>
        <DataArray type="Float32" Name="X_liquid^H2O" NumberOfComponents="1" format="ascii">
          0.999978 0.999978 0.999978 0.999978 0.999978 0.999978 0.999978 0.999978 0.999978 0.999978 0.999978 0.999978
          0.999978 0.999978 0.999978 0.999978 0.999978 0.999978 0.999978 0.999977 0.999977 0.999977 0.999977 0.999978
          0.999978 0.999977 0.999976 0.999975 0.999976 0.999977 0.999977 0.452322 0.745811 0.999974 0.999974 0.999978
        </DataArray>
        <DataArray type="Float32" Name="X_liquid^Air" NumberOfComponents="1" format="ascii">
          2.15483e-05 2.15483e-05 2.16354e-05 2.16394e-05 2.15483e-05 2.16463e-05 2.15482e-05 2.1644e-05 2.15482e-05 2.1633e-05 2.15482e-05 2.16266e-05
          2.19593e-05 2.20444e-05 2.21408e-05 2.21677e-05 2.20522e-05 2.19511e-05 2.23077e-05 2.27596e-05 2.31174e-05 2.3416e-05 2.30191e-05 2.24169e-05
          2.23408e-05 2.3338e-05 2.39345e-05 2.48871e-05 2.43496e-05 2.25407e-05 2.25412e-05 2.30241e-05 2.49001e-05 2.61252e-05 2.59543e-05 2.22553e-05
        </DataArray>
        <DataArray type="Float32" Name="X_gas^H2O" NumberOfComponents="1" format="ascii">
          0.0199555 0.0199556 0.0196794 0.0196667 0.0199556 0.0196451 0.0199556 0.0196518 0.0199557 0.019686 0.0199557 0.0197058
          0.0187047 0.0184602 0.018189 0.0181141 0.0184367 0.0187266 0.0177352 0.0165855 0.015752 0.0151054 0.0159738 0.0174441
          0.017647 0.015272 0.0140715 0.0124361 0.0133201 0.0171252 0.0171265 0.00754476 0.00939182 0.0107062 0.0109197 0.0178733
        </DataArray>
        <DataArray type="Float32" Name="X_gas^Air" NumberOfComponents="1" format="ascii">
          0.980044 0.980044 0.980321 0.980333 0.980044 0.980355 0.980044 0.980348 0.980044 0.980314 0.980044 0.980294
          0.981295 0.98154 0.981811 0.981886 0.981563 0.981273 0.982265 0.983414 0.984248 0.984895 0.984026 0.982556
          0.982353 0.984728 0.985929 0.987564 0.98668 0.982875 0.982873 0.992455 0.990608 0.989294 0.98908 0.982127
        </DataArray>
        <DataArray type="Float32" Name="x_liquid^H2O" NumberOfComponents="1" format="ascii">
          0.999987 0.999987 0.999987 0.999987 0.999987 0.999987 0.999987 0.999987 0.999987 0.999987 0.999987 0.999987
          0.999986 0.999986 0.999986 0.999986 0.999986 0.999986 0.999986 0.999986 0.999986 0.999985 0.999986 0.999986
          0.999986 0.999985 0.999985 0.999985 0.999985 0.999986 0.999986 0.45233 0.745821 0.999984 0.999984 0.999986
        </DataArray>
        <DataArray type="Float32" Name="x_liquid^Air" NumberOfComponents="1" format="ascii">
          1.34047e-05 1.34047e-05 1.34589e-05 1.34614e-05 1.34047e-05 1.34656e-05 1.34046e-05 1.34642e-05 1.34046e-05 1.34574e-05 1.34046e-05 1.34534e-05
          1.36603e-05 1.37133e-05 1.37733e-05 1.379e-05 1.37182e-05 1.36553e-05 1.38771e-05 1.41582e-05 1.43808e-05 1.45665e-05 1.43196e-05 1.3945e-05
          1.38977e-05 1.4518e-05 1.48891e-05 1.54817e-05 1.51473e-05 1.40221e-05 1.40224e-05 1.43229e-05 1.54899e-05 1.62519e-05 1.61456e-05 1.38445e-05
        </DataArray>
        <DataArray type="Float32" Name="x_gas^H2O" NumberOfComponents="1" format="ascii">
          0.0316949 0.031695 0.0312615 0.0312416 0.031695 0.0312076 0.0316951 0.0312182 0.0316952 0.0312718 0.0316952 0.031303
          0.0297306 0.0293463 0.0289198 0.028802 0.0293094 0.0297651 0.028206 0.0263958 0.0250819 0.0240615 0.0254316 0.0277479
          0.0280673 0.0243246 0.0224286 0.0198415 0.0212407 0.0272459 0.0272479 0.0120731 0.015012 0.0170994 0.0174381 0.0284233
        </DataArray>
        <DataArray type="Float32" Name="x_gas^Air" NumberOfComponents="1" format="ascii">
          0.968305 0.968305 0.968739 0.968758 0.968305 0.968792 0.968305 0.968782 0.968305 0.968728 0.968305 0.968697
          0.970269 0.970654 0.97108 0.971198 0.970691 0.970235 0.971794 0.973604 0.974918 0.975938 0.974568 0.972252
          0.971933 0.975675 0.977571 0.980159 0.978759 0.972754 0.972752 0.987927 0.984988 0.982901 0.982562 0.971577
        </DataArray>
        <DataArray type="Float32" Name="porosity" NumberOfComponents="1" format="ascii">
          0.41 0.41 0.41 0.41 0.41 0.41 0.41 0.41 0.41 0.41 0.41 0.41
          0.41 0.41 0.41 0.41 0.41 0.41 0.41 0.41 0.41 0.41 0.41 0.41
          0.41 0.41 0.41 0.41 0.41 0.41 0.41 0.41 0.41 0.41 0.41 0.41
        </DataArray>
        <DataArray type="Float32" Name="temperature" NumberOfComponents="1" format="ascii">
          298.15 298.15 297.919 297.908 298.15 297.89 298.15 297.895 298.15 297.924 298.15 297.941
          297.081 296.864 296.621 296.553 296.843 297.099 296.208 295.116 294.281 293.607 294.507 295.937
          296.126 293.784 292.473 290.52 291.602 295.636 295.638 295.299 290.745 288.19 288.493 296.334
        </DataArray>
        <DataArray type="Float32" Name="phase presence" NumberOfComponents="1" format="ascii">
          3 3 3 3 3 3 3 3 3 3 3 3
          3 3 3 3 3 3 3 3 3 3 3 3
          3 3 3 3 3 3 3 2 2 3 3 3
        </DataArray>
        <DataArray type="Float32" Name="velocityW" NumberOfComponents="3" format="ascii">
          -1.13827e-08 -9.38867e-07 0 -2.02936e-08 -9.43886e-07 0 3.67637e-10 -6.9645e-07 0 -4.89952e-09 -6.95475e-07 0
          -3.32727e-08 -9.54168e-07 0 -1.1732e-08 -7.10208e-07 0 -3.44622e-08 -9.68821e-07 0 -1.22953e-08 -7.29101e-07 0
          -2.19662e-08 -9.83091e-07 0 -8.49334e-09 -7.47566e-07 0 -1.23489e-08 -9.89044e-07 0 -5.69332e-09 -7.57778e-07 0
          6.46854e-09 -2.94085e-07 0 -8.5928e-10 -2.75075e-07 0 -9.47256e-09 -2.95962e-07 0 -8.4042e-09 -3.25321e-07 0
          -5.12068e-09 -3.49662e-07 0 -4.19098e-09 -3.6815e-07 0 1.89538e-08 -6.94712e-08 0 5.01846e-09 -1.6798e-08 0
          -1.33765e-08 -2.99025e-08 0 -1.34456e-08 -8.18932e-08 0 -8.12791e-09 -1.10338e-07 0 -7.20068e-09 -1.39335e-07 0
          3.98571e-08 1.01552e-08 0 1.89117e-08 8.65335e-08 0 -1.14392e-08 1.16956e-07 0 -1.79959e-08 6.05178e-08 0
          -1.48476e-08 7.61521e-09 0 -1.4548e-08 -4.10402e-08 0 2.09619e-07 2.51157e-08 0 1.04809e-07 1.03575e-07 0
          -3.39414e-09 1.68041e-07 0 -8.24859e-09 1.23561e-07 0 -1.44586e-08 4.8624e-08 0 -1.92083e-08 -1.31981e-08 0
        </DataArray>
        <DataArray type="Float32" Name="velocityN" NumberOfComponents="3" format="ascii">
          1.39233e-07 6.47251e-07 0 2.4638e-07 7.19854e-07 0 5.75125e-05 -9.52283e-05 0 9.57313e-05 -6.36067e-05 0
          3.88318e-07 8.84205e-07 0 0.00013264 -1.45967e-06 0 3.78512e-07 1.06416e-06 0 0.000122537 1.91172e-05 0
          2.30399e-07 1.19748e-06 0 8.0125e-05 5.83971e-05 0 1.26884e-07 1.25052e-06 0 4.65057e-05 7.91642e-05 0
          0.000138223 -0.000329088 0 0.000268815 -0.000246146 0 0.000254242 0.000119787 0 0.000208719 -4.34298e-05 0
          0.000208455 0.000207451 0 0.000108549 0.000265968 0 7.57763e-05 -0.000522431 0 0.00062318 -0.000653991 0
          0.000326743 0.000691165 0 0.000188181 -0.000491347 0 0.000475768 0.000521091 0 5.80777e-05 0.000417074 0
          -0.000471595 -0.000435573 0 0.00112488 -0.00143926 0 0.000312129 0.00189921 0 2.83532e-05 -0.00151907 0
          0.000886834 0.00113801 0 -0.000380138 0.000346331 0 -0.00119016 -0.000293355 0 0.00149089 -0.0019349 0
          0.000224842 0.00265946 0 -0.000144805 -0.00217949 0 0.0012347 0.00153314 0 -0.000963249 0.000233374 0
        </DataArray>
      </PointData>
      <CellData Scalars="process rank">
        <DataArray type="Float32" Name="process rank" NumberOfComponents="1" format="ascii">
          0 0 0 0 0 0 0 0 0 0 0 0
          0 0 0 0 0 0 0 0 0 0 0 0
          0
        </DataArray>
      </CellData>
      <Points>
        <DataArray type="Float32" Name="Coordinates" NumberOfComponents="3" format="ascii">
          0.25 0 0 0.3 0 0 0.25 0.114094 0 0.3 0.114094 0
          0.35 0 0 0.35 0.114094 0 0.4 0 0 0.4 0.114094 0
          0.45 0 0 0.45 0.114094 0 0.5 0 0 0.5 0.114094 0
          0.25 0.179291 0 0.3 0.179291 0 0.35 0.179291 0 0.4 0.179291 0
          0.45 0.179291 0 0.5 0.179291 0 0.25 0.216546 0 0.3 0.216546 0
          0.35 0.216546 0 0.4 0.216546 0 0.45 0.216546 0 0.5 0.216546 0
          0.25 0.237835 0 0.3 0.237835 0 0.35 0.237835 0 0.4 0.237835 0
          0.45 0.237835 0 0.5 0.237835 0 0.25 0.25 0 0.3 0.25 0
          0.35 0.25 0 0.4 0.25 0 0.45 0.25 0 0.5 0.25 0
        </DataArray>
      </Points>
      <Cells>
        <DataArray type="Int32" Name="connectivity" NumberOfComponents="1" format="ascii">
          0 1 3 2 1 4 5 3 4 6 7 5
          6 8 9 7 8 10 11 9 2 3 13 12
          3 5 14 13 5 7 15 14 7 9 16 15
          9 11 17 16 12 13 19 18 13 14 20 19
          14 15 21 20 15 16 22 21 16 17 23 22
          18 19 25 24 19 20 26 25 20 21 27 26
          21 22 28 27 22 23 29 28 24 25 31 30
          25 26 32 31 26 27 33 32 27 28 34 33
          28 29 35 34
        </DataArray>
        <DataArray type="Int32" Name="offsets" NumberOfComponents="1" format="ascii">
          4 8 12 16 20 24 28 32 36 40 44 48
          52 56 60 64 68 72 76 80 84 88 92 96
          100
        </DataArray>
        <DataArray type="UInt8" Name="types" NumberOfComponents="1" format="ascii">
          9 9 9 9 9 9 9 9 9 9 9 9
          9 9 9 9 9 9 9 9 9 9 9 9
          9
        </DataArray>
      </Cells>
    </Piece>
  </UnstructuredGrid>
</VTKFile>
