<?xml version="1.0"?>
<VTKFile type="UnstructuredGrid" version="0.1" byte_order="LittleEndian">
  <UnstructuredGrid>
    <Piece NumberOfCells="24" NumberOfPoints="35">
      <PointData Scalars="Sn" Vectors="velocityW">
        <DataArray type="Float32" Name="Sn" NumberOfComponents="1" format="ascii">
          0.0100962 0.0100962 0.0103542 0.0103542 0.0100962 0.0103542 0.0100962 0.0103541 0.0100962 0.0103541 0.0100962 0.0103541
          0.0100962 0.0103541 0.0136457 0.0136457 0.0136457 0.0136457 0.0136457 0.0136457 0.0136457 0.0300134 0.0300133 0.0300132
          0.0300132 0.0300131 0.0300131 0.030013 0.15567 0.155669 0.155669 0.155669 0.155669 0.155669 0.155669
        </DataArray>
        <DataArray type="Float32" Name="Sw" NumberOfComponents="1" format="ascii">
          0.989904 0.989904 0.989646 0.989646 0.989904 0.989646 0.989904 0.989646 0.989904 0.989646 0.989904 0.989646
          0.989904 0.989646 0.986354 0.986354 0.986354 0.986354 0.986354 0.986354 0.986354 0.969987 0.969987 0.969987
          0.969987 0.969987 0.969987 0.969987 0.84433 0.844331 0.844331 0.84433 0.84433 0.844331 0.844331
        </DataArray>
        <DataArray type="Float32" Name="pn" NumberOfComponents="1" format="ascii">
          101179 101179 100209 100209 101179 100209 101179 100209 101179 100209 101179 100209
          101179 100209 100001 100001 100001 100001 100001 100001 100001 100000 100000 100000
          100000 100000 100000 100000 100000 100000 100000 100000 100000 100000 100000
        </DataArray>
        <DataArray type="Float32" Name="pw" NumberOfComponents="1" format="ascii">
          101161 101161 100146 100146 101161 100146 101161 100146 101161 100146 101161 100146
          101161 100146 99468.5 99468.5 99468.5 99468.5 99468.5 99468.5 99468.5 99017 99017 99017
          99017 99017 99017 99017 98715.9 98715.9 98715.9 98715.9 98715.9 98715.9 98715.9
        </DataArray>
        <DataArray type="Float32" Name="pc" NumberOfComponents="1" format="ascii">
          17.4521 17.4516 63.3319 63.3243 17.452 63.3231 17.4518 63.3203 17.4514 63.3171 17.4514 63.3147
          17.4512 63.3145 532.36 532.359 532.359 532.358 532.358 532.358 532.357 983.379 983.379 983.378
          983.378 983.378 983.378 983.377 1284.13 1284.13 1284.13 1284.13 1284.13 1284.13 1284.13
        </DataArray>
        <DataArray type="Float32" Name="rhoW" NumberOfComponents="1" format="ascii">
          997.056 997.056 997.076 997.076 997.056 997.076 997.056 997.076 997.056 997.076 997.056 997.076
          997.056 997.076 997.179 997.18 997.18 997.18 997.18 997.18 997.18 997.401 997.402 997.403
          997.403 997.404 997.405 997.405 997.634 997.636 997.638 997.64 997.641 997.642 997.643
        </DataArray>
        <DataArray type="Float32" Name="rhoN" NumberOfComponents="1" format="ascii">
          1.16805 1.16805 1.15708 1.15708 1.16805 1.15708 1.16805 1.15708 1.16805 1.15708 1.16805 1.15708
          1.16805 1.15708 1.15658 1.15658 1.15658 1.15659 1.15659 1.15659 1.15659 1.16078 1.16079 1.16081
          1.16082 1.16084 1.16085 1.16085 1.16537 1.1654 1.16544 1.16547 1.1655 1.16552 1.16554
        </DataArray>
        <DataArray type="Float32" Name="mobW" NumberOfComponents="1" format="ascii">
          1123.57 1123.57 1121.57 1121.58 1123.57 1121.57 1123.57 1121.57 1123.57 1121.57 1123.57 1121.57
          1123.57 1121.57 1110.08 1110.05 1110.04 1110.02 1110 1109.98 1109.98 1060.7 1060.65 1060.57
          1060.49 1060.42 1060.37 1060.34 614.273 614.164 614.052 613.953 613.866 613.792 613.738
        </DataArray>
        <DataArray type="Float32" Name="mobN" NumberOfComponents="1" format="ascii">
          0.000310659 0.000310639 0.00469941 0.0046982 0.000310657 0.00469802 0.00031065 0.00469757 0.000310631 0.00469708 0.000310632 0.0046967
          0.000310627 0.00469666 0.6048 0.6048 0.604799 0.604798 0.604798 0.604797 0.604795 20.9933 20.9931 20.9931
          20.9932 20.9932 20.9931 20.993 1292.53 1292.55 1292.56 1292.58 1292.59 1292.6 1292.61
        </DataArray>
        <DataArray type="Float32" Name="X_liquid^H2O" NumberOfComponents="1" format="ascii">
          0.999978 0.999978 0.999978 0.999978 0.999978 0.999978 0.999978 0.999978 0.999978 0.999978 0.999978 0.999978
          0.999978 0.999978 0.999978 0.999978 0.999978 0.999978 0.999978 0.999978 0.999978 0.999978 0.999978 0.999978
          0.999978 0.999978 0.999978 0.999978 0.999978 0.999978 0.999978 0.999978 0.999978 0.999978 0.999978
        </DataArray>
        <DataArray type="Float32" Name="X_liquid^Air" NumberOfComponents="1" format="ascii">
          2.18092e-05 2.18092e-05 2.16228e-05 2.16227e-05 2.18092e-05 2.16227e-05 2.18092e-05 2.16227e-05 2.18092e-05 2.16227e-05 2.18092e-05 2.16228e-05
          2.18092e-05 2.16228e-05 2.17327e-05 2.1733e-05 2.17333e-05 2.17336e-05 2.17339e-05 2.17341e-05 2.17341e-05 2.20832e-05 2.2084e-05 2.20853e-05
          2.20866e-05 2.20877e-05 2.20885e-05 2.2089e-05 2.24795e-05 2.24826e-05 2.24858e-05 2.24886e-05 2.24911e-05 2.24932e-05 2.24948e-05
        </DataArray>
        <DataArray type="Float32" Name="X_gas^H2O" NumberOfComponents="1" format="ascii">
          0.0197216 0.0197216 0.0198215 0.0198219 0.0197216 0.0198219 0.0197216 0.0198218 0.0197216 0.0198217 0.0197216 0.0198216
          0.0197216 0.0198216 0.0193771 0.0193761 0.0193752 0.0193743 0.0193734 0.0193728 0.0193726 0.0183488 0.0183467 0.018343
          0.0183395 0.0183364 0.0183339 0.0183327 0.0172823 0.0172743 0.0172661 0.0172588 0.0172525 0.0172471 0.017243
        </DataArray>
        <DataArray type="Float32" Name="X_gas^Air" NumberOfComponents="1" format="ascii">
          0.980278 0.980278 0.980179 0.980178 0.980278 0.980178 0.980278 0.980178 0.980278 0.980178 0.980278 0.980178
          0.980278 0.980178 0.980623 0.980624 0.980625 0.980626 0.980627 0.980627 0.980627 0.981651 0.981653 0.981657
          0.98166 0.981664 0.981666 0.981667 0.982718 0.982726 0.982734 0.982741 0.982747 0.982753 0.982757
        </DataArray>
        <DataArray type="Float32" Name="x_liquid^H2O" NumberOfComponents="1" format="ascii">
          0.999986 0.999986 0.999987 0.999987 0.999986 0.999987 0.999986 0.999987 0.999986 0.999987 0.999986 0.999987
          0.999986 0.999987 0.999986 0.999986 0.999986 0.999986 0.999986 0.999986 0.999986 0.999986 0.999986 0.999986
          0.999986 0.999986 0.999986 0.999986 0.999986 0.999986 0.999986 0.999986 0.999986 0.999986 0.999986
        </DataArray>
        <DataArray type="Float32" Name="x_liquid^Air" NumberOfComponents="1" format="ascii">
          1.3567e-05 1.3567e-05 1.3451e-05 1.34509e-05 1.3567e-05 1.3451e-05 1.3567e-05 1.3451e-05 1.3567e-05 1.3451e-05 1.3567e-05 1.3451e-05
          1.3567e-05 1.3451e-05 1.35194e-05 1.35196e-05 1.35198e-05 1.352e-05 1.35201e-05 1.35202e-05 1.35203e-05 1.37375e-05 1.37379e-05 1.37387e-05
          1.37395e-05 1.37402e-05 1.37408e-05 1.3741e-05 1.3984e-05 1.39859e-05 1.39879e-05 1.39896e-05 1.39912e-05 1.39925e-05 1.39935e-05
        </DataArray>
        <DataArray type="Float32" Name="x_gas^H2O" NumberOfComponents="1" format="ascii">
          0.0313277 0.0313277 0.0314846 0.0314852 0.0313277 0.0314851 0.0313277 0.031485 0.0313277 0.0314849 0.0313277 0.0314848
          0.0313277 0.0314847 0.0307868 0.0307853 0.0307839 0.0307824 0.0307811 0.0307802 0.0307798 0.0291712 0.0291679 0.0291621
          0.0291565 0.0291516 0.0291477 0.0291458 0.0274932 0.0274805 0.0274677 0.0274563 0.0274463 0.0274377 0.0274314
        </DataArray>
        <DataArray type="Float32" Name="x_gas^Air" NumberOfComponents="1" format="ascii">
          0.968672 0.968672 0.968515 0.968515 0.968672 0.968515 0.968672 0.968515 0.968672 0.968515 0.968672 0.968515
          0.968672 0.968515 0.969213 0.969215 0.969216 0.969218 0.969219 0.96922 0.96922 0.970829 0.970832 0.970838
          0.970843 0.970848 0.970852 0.970854 0.972507 0.972519 0.972532 0.972544 0.972554 0.972562 0.972569
        </DataArray>
        <DataArray type="Float32" Name="porosity" NumberOfComponents="1" format="ascii">
          0.41 0.41 0.41 0.41 0.41 0.41 0.41 0.41 0.41 0.41 0.41 0.41
          0.41 0.41 0.41 0.41 0.41 0.41 0.41 0.41 0.41 0.41 0.41 0.41
          0.41 0.41 0.41 0.41 0.41 0.41 0.41 0.41 0.41 0.41 0.41
        </DataArray>
        <DataArray type="Float32" Name="temperature" NumberOfComponents="1" format="ascii">
          298.15 298.15 298.072 298.073 298.15 298.073 298.15 298.072 298.15 298.072 298.15 298.072
          298.15 298.072 297.662 297.661 297.661 297.66 297.659 297.659 297.658 296.764 296.763 296.759
          296.756 296.753 296.751 296.75 295.785 295.777 295.769 295.763 295.757 295.751 295.748
        </DataArray>
        <DataArray type="Float32" Name="phase presence" NumberOfComponents="1" format="ascii">
          3 3 3 3 3 3 3 3 3 3 3 3
          3 3 3 3 3 3 3 3 3 3 3 3
          3 3 3 3 3 3 3 3 3 3 3
        </DataArray>
        <DataArray type="Float32" Name="velocityW" NumberOfComponents="3" format="ascii">
          -6.28852e-11 -5.07559e-10 0 -1.54489e-10 -4.35918e-10 0 -1.932e-10 -1.94939e-09 0 -3.07104e-10 -2.03292e-09 0
          -2.94124e-10 -5.44565e-10 0 -4.647e-10 -2.28172e-09 0 -3.39561e-10 -6.70764e-10 0 -4.91237e-10 -2.53483e-09 0
          -2.90013e-10 -7.81291e-10 0 -4.07792e-10 -2.74885e-09 0 -1.65645e-10 -8.57174e-10 0 -2.33954e-10 -2.90881e-09 0
          -8.82313e-11 -8.8423e-10 0 -1.26406e-10 -2.97319e-09 0 -2.87601e-10 -2.33343e-09 0 -3.8672e-10 -2.8227e-09 0
          -4.81771e-10 -3.36184e-09 0 -4.45386e-10 -3.78779e-09 0 -3.65677e-10 -4.13146e-09 0 -2.31917e-10 -4.4343e-09 0
          -1.4555e-10 -4.61386e-09 0 7.90956e-11 1.21311e-08 0 2.45312e-10 1.127e-08 0 4.79148e-10 1.06577e-08 0
          5.32826e-10 1.02534e-08 0 4.5088e-10 9.92886e-09 0 2.54743e-10 9.61718e-09 0 1.26609e-10 9.33675e-09 0
          7.846e-10 2.55378e-08 0 9.5871e-10 2.45554e-08 0 1.15555e-09 2.40202e-08 0 1.11695e-09 2.36836e-08 0
          9.49721e-10 2.34042e-08 0 6.79347e-10 2.31425e-08 0 5.14868e-10 2.28391e-08 0
        </DataArray>
        <DataArray type="Float32" Name="velocityN" NumberOfComponents="3" format="ascii">
          4.55767e-15 7.67927e-10 0 2.17238e-15 7.67881e-10 0 1.7326e-13 2.24923e-09 0 9.91557e-14 2.24869e-09 0
          6.94714e-16 7.67928e-10 0 4.43153e-14 2.24862e-09 0 1.8945e-15 7.67911e-10 0 6.7715e-14 2.24842e-09 0
          1.6398e-15 7.67868e-10 0 6.31986e-14 2.24818e-09 0 6.88169e-16 7.67872e-10 0 3.06159e-14 2.24801e-09 0
          2.834e-16 7.67859e-10 0 6.68517e-15 2.24799e-09 0 4.76421e-12 1.74015e-09 0 3.45597e-12 1.75153e-09 0
          2.31464e-12 1.74674e-09 0 2.57776e-12 1.74437e-09 0 2.53776e-12 1.74235e-09 0 2.25593e-12 1.74072e-09 0
          2.11033e-12 1.74267e-09 0 7.91871e-11 -1.49529e-08 0 6.39269e-11 -1.48456e-08 0 4.67667e-11 -1.48691e-08 0
          4.4907e-11 -1.4879e-08 0 4.56953e-11 -1.48867e-08 0 6.66551e-11 -1.49101e-08 0 8.6867e-11 -1.48095e-08 0
          5.43433e-09 -2.96555e-08 0 4.13169e-09 -2.94647e-08 0 2.80698e-09 -2.95023e-08 0 2.77916e-09 -2.95178e-08 0
          2.78568e-09 -2.95297e-08 0 4.19425e-09 -2.95735e-08 0 5.59055e-09 -2.93762e-08 0
        </DataArray>
      </PointData>
      <CellData Scalars="process rank">
        <DataArray type="Float32" Name="process rank" NumberOfComponents="1" format="ascii">
          0 0 0 0 0 0 0 0 0 0 0 0
          0 0 0 0 0 0 0 0 0 0 0 0
        </DataArray>
      </CellData>
      <Points>
        <DataArray type="Float32" Name="Coordinates" NumberOfComponents="3" format="ascii">
          0 0 0 0.0416667 0 0 0 0.103846 0 0.0416667 0.103846 0
          0.0833333 0 0 0.0833333 0.103846 0 0.125 0 0 0.125 0.103846 0
          0.166667 0 0 0.166667 0.103846 0 0.208333 0 0 0.208333 0.103846 0
          0.25 0 0 0.25 0.103846 0 0 0.173077 0 0.0416667 0.173077 0
          0.0833333 0.173077 0 0.125 0.173077 0 0.166667 0.173077 0 0.208333 0.173077 0
          0.25 0.173077 0 0 0.219231 0 0.0416667 0.219231 0 0.0833333 0.219231 0
          0.125 0.219231 0 0.166667 0.219231 0 0.208333 0.219231 0 0.25 0.219231 0
          0 0.25 0 0.0416667 0.25 0 0.0833333 0.25 0 0.125 0.25 0
          0.166667 0.25 0 0.208333 0.25 0 0.25 0.25 0
        </DataArray>
      </Points>
      <Cells>
        <DataArray type="Int32" Name="connectivity" NumberOfComponents="1" format="ascii">
          0 1 3 2 1 4 5 3 4 6 7 5
          6 8 9 7 8 10 11 9 10 12 13 11
          2 3 15 14 3 5 16 15 5 7 17 16
          7 9 18 17 9 11 19 18 11 13 20 19
          14 15 22 21 15 16 23 22 16 17 24 23
          17 18 25 24 18 19 26 25 19 20 27 26
          21 22 29 28 22 23 30 29 23 24 31 30
          24 25 32 31 25 26 33 32 26 27 34 33
        </DataArray>
        <DataArray type="Int32" Name="offsets" NumberOfComponents="1" format="ascii">
          4 8 12 16 20 24 28 32 36 40 44 48
          52 56 60 64 68 72 76 80 84 88 92 96
        </DataArray>
        <DataArray type="UInt8" Name="types" NumberOfComponents="1" format="ascii">
          9 9 9 9 9 9 9 9 9 9 9 9
          9 9 9 9 9 9 9 9 9 9 9 9
        </DataArray>
      </Cells>
    </Piece>
  </UnstructuredGrid>
</VTKFile>
