<?xml version="1.0"?>
<VTKFile type="UnstructuredGrid" version="0.1" byte_order="LittleEndian">
  <UnstructuredGrid>
    <Piece NumberOfCells="24" NumberOfPoints="35">
      <PointData Scalars="Sn" Vectors="velocityW">
        <DataArray type="Float32" Name="Sn" NumberOfComponents="1" format="ascii">
          0.0100962 0.0100962 0.0103541 0.0103541 0.0100962 0.0103541 0.0100962 0.0103541 0.0100962 0.010354 0.0100962 0.010354
          0.0100962 0.010354 0.0136448 0.0136448 0.0136448 0.0136448 0.0136448 0.0136448 0.0136448 0.029998 0.0299979 0.0299978
          0.0299978 0.0299977 0.0299977 0.0299976 0.155596 0.155596 0.155596 0.155596 0.155596 0.155596 0.155595
        </DataArray>
        <DataArray type="Float32" Name="Sw" NumberOfComponents="1" format="ascii">
          0.989904 0.989904 0.989646 0.989646 0.989904 0.989646 0.989904 0.989646 0.989904 0.989646 0.989904 0.989646
          0.989904 0.989646 0.986355 0.986355 0.986355 0.986355 0.986355 0.986355 0.986355 0.970002 0.970002 0.970002
          0.970002 0.970002 0.970002 0.970002 0.844404 0.844404 0.844404 0.844404 0.844404 0.844404 0.844405
        </DataArray>
        <DataArray type="Float32" Name="pn" NumberOfComponents="1" format="ascii">
          101179 101179 100209 100209 101179 100209 101179 100209 101179 100209 101179 100209
          101179 100209 100001 100001 100001 100001 100001 100001 100001 100000 100000 100000
          100000 100000 100000 100000 100000 100000 100000 100000 100000 100000 100000
        </DataArray>
        <DataArray type="Float32" Name="pw" NumberOfComponents="1" format="ascii">
          101162 101162 100146 100146 101162 100146 101162 100146 101162 100146 101162 100146
          101162 100146 99468.6 99468.6 99468.6 99468.6 99468.6 99468.6 99468.6 99017.1 99017.1 99017.1
          99017.1 99017.1 99017.1 99017.1 98716 98716 98716 98716 98716 98716 98716
        </DataArray>
        <DataArray type="Float32" Name="pc" NumberOfComponents="1" format="ascii">
          17.4504 17.4505 63.3108 63.3137 17.4505 63.3073 17.4496 63.3059 17.4496 63.3027 17.4496 63.3008
          17.45 63.3003 532.263 532.262 532.262 532.261 532.261 532.261 532.26 983.283 983.282 983.282
          983.282 983.281 983.281 983.28 1284.03 1284.03 1284.03 1284.03 1284.03 1284.03 1284.03
        </DataArray>
        <DataArray type="Float32" Name="rhoW" NumberOfComponents="1" format="ascii">
          997.056 997.056 997.076 997.076 997.056 997.076 997.056 997.076 997.056 997.076 997.056 997.076
          997.056 997.076 997.18 997.18 997.18 997.18 997.18 997.181 997.181 997.402 997.403 997.403
          997.404 997.405 997.405 997.406 997.636 997.638 997.64 997.641 997.643 997.644 997.645
        </DataArray>
        <DataArray type="Float32" Name="rhoN" NumberOfComponents="1" format="ascii">
          1.16805 1.16805 1.15708 1.15708 1.16805 1.15708 1.16805 1.15708 1.16805 1.15708 1.16805 1.15708
          1.16805 1.15708 1.15658 1.15658 1.15659 1.15659 1.1566 1.1566 1.1566 1.1608 1.16081 1.16082
          1.16084 1.16085 1.16086 1.16087 1.1654 1.16544 1.16547 1.16551 1.16553 1.16556 1.16557
        </DataArray>
        <DataArray type="Float32" Name="mobW" NumberOfComponents="1" format="ascii">
          1123.57 1123.57 1121.57 1121.57 1123.57 1121.57 1123.57 1121.57 1123.57 1121.57 1123.57 1121.57
          1123.57 1121.57 1110.04 1110.04 1110.02 1110 1109.98 1109.96 1109.96 1060.65 1060.61 1060.53
          1060.45 1060.39 1060.33 1060.31 614.332 614.225 614.115 614.018 613.933 613.86 613.807
        </DataArray>
        <DataArray type="Float32" Name="mobN" NumberOfComponents="1" format="ascii">
          0.000310596 0.000310601 0.00469607 0.00469654 0.0003106 0.00469553 0.000310565 0.00469532 0.000310566 0.00469481 0.000310566 0.0046945
          0.000310581 0.00469443 0.604501 0.604499 0.604499 0.604498 0.604498 0.604497 0.604495 20.9598 20.9597 20.9597
          20.9597 20.9597 20.9597 20.9595 1291.2 1291.21 1291.23 1291.25 1291.26 1291.27 1291.27
        </DataArray>
        <DataArray type="Float32" Name="X_liquid^H2O" NumberOfComponents="1" format="ascii">
          0.999978 0.999978 0.999978 0.999978 0.999978 0.999978 0.999978 0.999978 0.999978 0.999978 0.999978 0.999978
          0.999978 0.999978 0.999978 0.999978 0.999978 0.999978 0.999978 0.999978 0.999978 0.999978 0.999978 0.999978
          0.999978 0.999978 0.999978 0.999978 0.999978 0.999978 0.999978 0.999978 0.999978 0.999978 0.999978
        </DataArray>
        <DataArray type="Float32" Name="X_liquid^Air" NumberOfComponents="1" format="ascii">
          2.18092e-05 2.18092e-05 2.16227e-05 2.16228e-05 2.18092e-05 2.16227e-05 2.18092e-05 2.16228e-05 2.18092e-05 2.16228e-05 2.18092e-05 2.16228e-05
          2.18092e-05 2.16228e-05 2.17332e-05 2.17333e-05 2.17336e-05 2.17339e-05 2.17342e-05 2.17344e-05 2.17344e-05 2.20846e-05 2.20853e-05 2.20866e-05
          2.20878e-05 2.20889e-05 2.20898e-05 2.20902e-05 2.24826e-05 2.24857e-05 2.24888e-05 2.24916e-05 2.2494e-05 2.24961e-05 2.24976e-05
        </DataArray>
        <DataArray type="Float32" Name="X_gas^H2O" NumberOfComponents="1" format="ascii">
          0.0197215 0.0197215 0.0198218 0.0198216 0.0197215 0.0198217 0.0197215 0.0198216 0.0197215 0.0198215 0.0197215 0.0198215
          0.0197215 0.0198214 0.0193754 0.0193753 0.0193742 0.0193733 0.0193725 0.0193719 0.0193717 0.018345 0.018343 0.0183393
          0.0183359 0.0183329 0.0183304 0.0183293 0.0172743 0.0172664 0.0172584 0.0172513 0.017245 0.0172397 0.0172358
        </DataArray>
        <DataArray type="Float32" Name="X_gas^Air" NumberOfComponents="1" format="ascii">
          0.980278 0.980278 0.980178 0.980178 0.980278 0.980178 0.980278 0.980178 0.980278 0.980178 0.980278 0.980179
          0.980278 0.980179 0.980625 0.980625 0.980626 0.980627 0.980628 0.980628 0.980628 0.981655 0.981657 0.981661
          0.981664 0.981667 0.98167 0.981671 0.982726 0.982734 0.982742 0.982749 0.982755 0.98276 0.982764
        </DataArray>
        <DataArray type="Float32" Name="x_liquid^H2O" NumberOfComponents="1" format="ascii">
          0.999986 0.999986 0.999987 0.999987 0.999986 0.999987 0.999986 0.999987 0.999986 0.999987 0.999986 0.999987
          0.999986 0.999987 0.999986 0.999986 0.999986 0.999986 0.999986 0.999986 0.999986 0.999986 0.999986 0.999986
          0.999986 0.999986 0.999986 0.999986 0.999986 0.999986 0.999986 0.999986 0.999986 0.999986 0.999986
        </DataArray>
        <DataArray type="Float32" Name="x_liquid^Air" NumberOfComponents="1" format="ascii">
          1.3567e-05 1.3567e-05 1.3451e-05 1.3451e-05 1.3567e-05 1.3451e-05 1.3567e-05 1.3451e-05 1.3567e-05 1.3451e-05 1.3567e-05 1.3451e-05
          1.3567e-05 1.3451e-05 1.35197e-05 1.35197e-05 1.352e-05 1.35202e-05 1.35203e-05 1.35204e-05 1.35205e-05 1.37383e-05 1.37388e-05 1.37396e-05
          1.37403e-05 1.3741e-05 1.37415e-05 1.37418e-05 1.39859e-05 1.39878e-05 1.39898e-05 1.39915e-05 1.3993e-05 1.39943e-05 1.39952e-05
        </DataArray>
        <DataArray type="Float32" Name="x_gas^H2O" NumberOfComponents="1" format="ascii">
          0.0313277 0.0313277 0.0314851 0.0314847 0.0313277 0.0314849 0.0313277 0.0314848 0.0313277 0.0314846 0.0313277 0.0314846
          0.0313277 0.0314845 0.0307842 0.030784 0.0307824 0.0307809 0.0307797 0.0307787 0.0307784 0.0291652 0.0291619 0.0291563
          0.0291508 0.0291461 0.0291422 0.0291404 0.0274806 0.0274681 0.0274555 0.0274443 0.0274345 0.0274262 0.02742
        </DataArray>
        <DataArray type="Float32" Name="x_gas^Air" NumberOfComponents="1" format="ascii">
          0.968672 0.968672 0.968515 0.968515 0.968672 0.968515 0.968672 0.968515 0.968672 0.968515 0.968672 0.968515
          0.968672 0.968516 0.969216 0.969216 0.969218 0.969219 0.96922 0.969221 0.969222 0.970835 0.970838 0.970844
          0.970849 0.970854 0.970858 0.97086 0.972519 0.972532 0.972544 0.972556 0.972565 0.972574 0.97258
        </DataArray>
        <DataArray type="Float32" Name="porosity" NumberOfComponents="1" format="ascii">
          0.41 0.41 0.41 0.41 0.41 0.41 0.41 0.41 0.41 0.41 0.41 0.41
          0.41 0.41 0.41 0.41 0.41 0.41 0.41 0.41 0.41 0.41 0.41 0.41
          0.41 0.41 0.41 0.41 0.41 0.41 0.41 0.41 0.41 0.41 0.41
        </DataArray>
        <DataArray type="Float32" Name="temperature" NumberOfComponents="1" format="ascii">
          298.15 298.15 298.073 298.072 298.15 298.072 298.15 298.072 298.15 298.072 298.15 298.072
          298.15 298.072 297.661 297.661 297.66 297.659 297.658 297.658 297.658 296.761 296.759 296.756
          296.753 296.75 296.748 296.747 295.777 295.77 295.762 295.755 295.749 295.744 295.741
        </DataArray>
        <DataArray type="Float32" Name="phase presence" NumberOfComponents="1" format="ascii">
          3 3 3 3 3 3 3 3 3 3 3 3
          3 3 3 3 3 3 3 3 3 3 3 3
          3 3 3 3 3 3 3 3 3 3 3
        </DataArray>
        <DataArray type="Float32" Name="velocityW" NumberOfComponents="3" format="ascii">
          -1.04259e-10 -4.0445e-10 0 -1.72222e-10 -4.94918e-10 0 -1.508e-10 -1.93225e-09 0 -2.82687e-10 -2.05701e-09 0
          -2.87126e-10 -5.47324e-10 0 -4.57865e-10 -2.2863e-09 0 -3.32034e-10 -6.69327e-10 0 -4.8384e-10 -2.53465e-09 0
          -2.84366e-10 -7.77995e-10 0 -4.00854e-10 -2.74503e-09 0 -1.63386e-10 -8.52068e-10 0 -2.29038e-10 -2.90188e-09 0
          -8.80414e-11 -8.83728e-10 0 -1.22889e-10 -2.96632e-09 0 -2.58097e-10 -2.4516e-09 0 -3.71514e-10 -2.79538e-09 0
          -4.81354e-10 -3.37231e-09 0 -4.45175e-10 -3.79386e-09 0 -3.64719e-10 -4.13226e-09 0 -2.30251e-10 -4.43021e-09 0
          -1.43637e-10 -4.60213e-09 0 9.92193e-12 1.19774e-08 0 2.00312e-10 1.12455e-08 0 4.55293e-10 1.06005e-08 0
          5.06283e-10 1.01966e-08 0 4.27484e-10 9.87505e-09 0 2.39403e-10 9.56674e-09 0 1.1652e-10 9.29334e-09 0
          7.34693e-10 2.53979e-08 0 9.14005e-10 2.44626e-08 0 1.11842e-09 2.39203e-08 0 1.08283e-09 2.3581e-08 0
          9.19048e-10 2.33026e-08 0 6.56997e-10 2.30422e-08 0 4.98033e-10 2.2742e-08 0
        </DataArray>
        <DataArray type="Float32" Name="velocityN" NumberOfComponents="3" format="ascii">
          -1.68666e-15 7.67784e-10 0 7.37758e-16 7.67796e-10 0 -6.40493e-14 2.24854e-09 0 3.95948e-14 2.24875e-09 0
          2.54636e-15 7.67796e-10 0 8.83519e-14 2.24831e-09 0 1.70496e-15 7.67712e-10 0 5.25696e-14 2.24816e-09 0
          1.17661e-15 7.67716e-10 0 5.76081e-14 2.24794e-09 0 2.58946e-16 7.67718e-10 0 2.73881e-14 2.24781e-09 0
          -3.55959e-16 7.67755e-10 0 1.12342e-14 2.2478e-09 0 1.04943e-12 1.74939e-09 0 2.46231e-12 1.74587e-09 0
          2.96714e-12 1.74879e-09 0 2.34187e-12 1.74425e-09 0 2.41466e-12 1.74277e-09 0 2.2128e-12 1.74083e-09 0
          2.22091e-12 1.74303e-09 0 8.69231e-11 -1.49028e-08 0 6.55309e-11 -1.48117e-08 0 4.52764e-11 -1.48299e-08 0
          4.54162e-11 -1.484e-08 0 4.55163e-11 -1.48482e-08 0 6.65953e-11 -1.48717e-08 0 8.65763e-11 -1.47711e-08 0
          5.42893e-09 -2.9575e-08 0 4.12853e-09 -2.93855e-08 0 2.80452e-09 -2.94286e-08 0 2.77627e-09 -2.94398e-08 0
          2.78334e-09 -2.94537e-08 0 4.1901e-09 -2.94971e-08 0 5.58515e-09 -2.93004e-08 0
        </DataArray>
      </PointData>
      <CellData Scalars="process rank">
        <DataArray type="Float32" Name="process rank" NumberOfComponents="1" format="ascii">
          0 0 0 0 0 0 0 0 0 0 0 0
          0 0 0 0 0 0 0 0 0 0 0 0
        </DataArray>
      </CellData>
      <Points>
        <DataArray type="Float32" Name="Coordinates" NumberOfComponents="3" format="ascii">
          0 0 0 0.0416667 0 0 0 0.103846 0 0.0416667 0.103846 0
          0.0833333 0 0 0.0833333 0.103846 0 0.125 0 0 0.125 0.103846 0
          0.166667 0 0 0.166667 0.103846 0 0.208333 0 0 0.208333 0.103846 0
          0.25 0 0 0.25 0.103846 0 0 0.173077 0 0.0416667 0.173077 0
          0.0833333 0.173077 0 0.125 0.173077 0 0.166667 0.173077 0 0.208333 0.173077 0
          0.25 0.173077 0 0 0.219231 0 0.0416667 0.219231 0 0.0833333 0.219231 0
          0.125 0.219231 0 0.166667 0.219231 0 0.208333 0.219231 0 0.25 0.219231 0
          0 0.25 0 0.0416667 0.25 0 0.0833333 0.25 0 0.125 0.25 0
          0.166667 0.25 0 0.208333 0.25 0 0.25 0.25 0
        </DataArray>
      </Points>
      <Cells>
        <DataArray type="Int32" Name="connectivity" NumberOfComponents="1" format="ascii">
          0 1 3 2 1 4 5 3 4 6 7 5
          6 8 9 7 8 10 11 9 10 12 13 11
          2 3 15 14 3 5 16 15 5 7 17 16
          7 9 18 17 9 11 19 18 11 13 20 19
          14 15 22 21 15 16 23 22 16 17 24 23
          17 18 25 24 18 19 26 25 19 20 27 26
          21 22 29 28 22 23 30 29 23 24 31 30
          24 25 32 31 25 26 33 32 26 27 34 33
        </DataArray>
        <DataArray type="Int32" Name="offsets" NumberOfComponents="1" format="ascii">
          4 8 12 16 20 24 28 32 36 40 44 48
          52 56 60 64 68 72 76 80 84 88 92 96
        </DataArray>
        <DataArray type="UInt8" Name="types" NumberOfComponents="1" format="ascii">
          9 9 9 9 9 9 9 9 9 9 9 9
          9 9 9 9 9 9 9 9 9 9 9 9
        </DataArray>
      </Cells>
    </Piece>
  </UnstructuredGrid>
</VTKFile>
