<?xml version="1.0"?>
<VTKFile type="UnstructuredGrid" version="0.1" byte_order="LittleEndian">
  <UnstructuredGrid>
    <Piece NumberOfCells="180" NumberOfPoints="208">
      <PointData Scalars="Sn" Vectors="velocityW">
        <DataArray type="Float32" Name="Sn" NumberOfComponents="1" format="ascii">
          0.0100501 0.0100501 0.0101078 0.0101078 0.0100501 0.0101078 0.0100501 0.0101078 0.0100501 0.0101078 0.0100501 0.0101078
          0.0100501 0.0101078 0.0100501 0.0101078 0.0100501 0.0101078 0.0100501 0.0101078 0.0100501 0.0101078 0.0100501 0.0101078
          0.0100501 0.0101078 0.0100501 0.0101078 0.0100501 0.0101078 0.0100501 0.0101078 0.0101511 0.0101511 0.0101511 0.0101511
          0.0101511 0.0101511 0.0101511 0.0101511 0.0101511 0.0101511 0.0101511 0.0101511 0.0101511 0.0101511 0.0101511 0.0101511
          0.0101979 0.0101979 0.0101979 0.0101979 0.0101979 0.0101979 0.0101979 0.0101979 0.0101979 0.0101979 0.0101979 0.0101979
          0.0101979 0.0101979 0.0101979 0.0101979 0.0103608 0.0103608 0.0103608 0.0103608 0.0103608 0.0103608 0.0103608 0.0103608
          0.0103608 0.0103608 0.0103608 0.0103608 0.0103608 0.0103608 0.0103608 0.0103608 0.0112113 0.0112113 0.0112113 0.0112113
          0.0112113 0.0112113 0.0112113 0.0112113 0.0112113 0.0112113 0.0112113 0.0112113 0.0112113 0.0112113 0.0112113 0.0112113
          0.0125692 0.0125692 0.0125692 0.0125692 0.0125692 0.0125692 0.0125692 0.0125692 0.0125692 0.0125692 0.0125692 0.0125692
          0.0125692 0.0125692 0.0125692 0.0125692 0.0141371 0.0141371 0.0141371 0.0141371 0.0141371 0.0141371 0.0141371 0.0141371
          0.0141371 0.0141371 0.0141371 0.0141371 0.0141371 0.0141371 0.0141371 0.0141371 0.0160968 0.0160968 0.0160968 0.0160968
          0.0160968 0.0160968 0.0160968 0.0160968 0.0160968 0.0160968 0.0160968 0.0160968 0.0160968 0.0160968 0.0160968 0.0160968
          0.0202785 0.0202785 0.0202785 0.0202785 0.0202784 0.0202784 0.0202784 0.0202784 0.0202784 0.0202784 0.0202784 0.0202784
          0.0202783 0.0202783 0.0202783 0.0202783 0.0413499 0.0413498 0.0413497 0.0413497 0.0413497 0.0413496 0.0413496 0.0413495
          0.0413495 0.0413495 0.0413494 0.0413494 0.0413493 0.0413493 0.0413492 0.0413491 0.0842113 0.0842109 0.0842108 0.0842107
          0.0842107 0.0842106 0.0842105 0.0842104 0.0842103 0.0842102 0.0842101 0.0842101 0.08421 0.0842099 0.0842097 0.0842093
          0.153795 0.153794 0.153794 0.153794 0.153794 0.153794 0.153793 0.153793 0.153793 0.153793 0.153793 0.153793
          0.153792 0.153792 0.153792 0.153791
        </DataArray>
        <DataArray type="Float32" Name="Sw" NumberOfComponents="1" format="ascii">
          0.98995 0.98995 0.989892 0.989892 0.98995 0.989892 0.98995 0.989892 0.98995 0.989892 0.98995 0.989892
          0.98995 0.989892 0.98995 0.989892 0.98995 0.989892 0.98995 0.989892 0.98995 0.989892 0.98995 0.989892
          0.98995 0.989892 0.98995 0.989892 0.98995 0.989892 0.98995 0.989892 0.989849 0.989849 0.989849 0.989849
          0.989849 0.989849 0.989849 0.989849 0.989849 0.989849 0.989849 0.989849 0.989849 0.989849 0.989849 0.989849
          0.989802 0.989802 0.989802 0.989802 0.989802 0.989802 0.989802 0.989802 0.989802 0.989802 0.989802 0.989802
          0.989802 0.989802 0.989802 0.989802 0.989639 0.989639 0.989639 0.989639 0.989639 0.989639 0.989639 0.989639
          0.989639 0.989639 0.989639 0.989639 0.989639 0.989639 0.989639 0.989639 0.988789 0.988789 0.988789 0.988789
          0.988789 0.988789 0.988789 0.988789 0.988789 0.988789 0.988789 0.988789 0.988789 0.988789 0.988789 0.988789
          0.987431 0.987431 0.987431 0.987431 0.987431 0.987431 0.987431 0.987431 0.987431 0.987431 0.987431 0.987431
          0.987431 0.987431 0.987431 0.987431 0.985863 0.985863 0.985863 0.985863 0.985863 0.985863 0.985863 0.985863
          0.985863 0.985863 0.985863 0.985863 0.985863 0.985863 0.985863 0.985863 0.983903 0.983903 0.983903 0.983903
          0.983903 0.983903 0.983903 0.983903 0.983903 0.983903 0.983903 0.983903 0.983903 0.983903 0.983903 0.983903
          0.979721 0.979721 0.979722 0.979722 0.979722 0.979722 0.979722 0.979722 0.979722 0.979722 0.979722 0.979722
          0.979722 0.979722 0.979722 0.979722 0.95865 0.95865 0.95865 0.95865 0.95865 0.95865 0.95865 0.95865
          0.95865 0.958651 0.958651 0.958651 0.958651 0.958651 0.958651 0.958651 0.915789 0.915789 0.915789 0.915789
          0.915789 0.915789 0.915789 0.91579 0.91579 0.91579 0.91579 0.91579 0.91579 0.91579 0.91579 0.915791
          0.846205 0.846206 0.846206 0.846206 0.846206 0.846206 0.846207 0.846207 0.846207 0.846207 0.846207 0.846207
          0.846208 0.846208 0.846208 0.846209
        </DataArray>
        <DataArray type="Float32" Name="pn" NumberOfComponents="1" format="ascii">
          101173 101173 100857 100857 101173 100857 101173 100857 101173 100857 101173 100857
          101173 100857 101173 100857 101173 100857 101173 100857 101173 100857 101173 100857
          101173 100857 101173 100857 101173 100857 101173 100857 100568 100568 100568 100568
          100568 100568 100568 100568 100568 100568 100568 100568 100568 100568 100568 100568
          100307 100307 100307 100307 100307 100307 100307 100307 100307 100307 100307 100307
          100307 100307 100307 100307 100091 100091 100091 100091 100091 100091 100091 100091
          100091 100091 100091 100091 100091 100091 100091 100091 100009 100009 100009 100009
          100009 100009 100009 100009 100009 100009 100009 100009 100009 100009 100009 100009
          100003 100003 100003 100003 100003 100003 100003 100003 100003 100003 100003 100003
          100003 100003 100003 100003 100001 100001 100001 100001 100001 100001 100001 100001
          100001 100001 100001 100001 100001 100001 100001 100001 100001 100001 100001 100001
          100001 100001 100001 100001 100001 100001 100001 100001 100001 100001 100001 100001
          100000 100000 100000 100000 100000 100000 100000 100000 100000 100000 100000 100000
          100000 100000 100000 100000 100000 100000 100000 100000 100000 100000 100000 100000
          100000 100000 100000 100000 100000 100000 100000 100000 100000 100000 100000 100000
          100000 100000 100000 100000 100000 100000 100000 100000 100000 100000 100000 100000
          100000 100000 100000 100000 100000 100000 100000 100000 100000 100000 100000 100000
          100000 100000 100000 100000
        </DataArray>
        <DataArray type="Float32" Name="pw" NumberOfComponents="1" format="ascii">
          101164 101164 100837 100837 101164 100837 101164 100837 101164 100837 101164 100837
          101164 100837 101164 100837 101164 100837 101164 100837 101164 100837 101164 100837
          101164 100837 101164 100837 101164 100837 101164 100837 100541 100541 100541 100541
          100541 100541 100541 100541 100541 100541 100541 100541 100541 100541 100541 100541
          100271 100271 100271 100271 100271 100271 100271 100271 100271 100271 100271 100271
          100271 100271 100271 100271 100026 100026 100026 100026 100026 100026 100026 100026
          100026 100026 100026 100026 100026 100026 100026 100026 99803.3 99803.3 99803.3 99803.3
          99803.3 99803.3 99803.3 99803.3 99803.3 99803.3 99803.3 99803.3 99803.3 99803.3 99803.3 99803.3
          99600.7 99600.7 99600.7 99600.7 99600.7 99600.7 99600.7 99600.7 99600.7 99600.7 99600.7 99600.7
          99600.7 99600.7 99600.7 99600.7 99416.5 99416.5 99416.5 99416.5 99416.5 99416.5 99416.5 99416.5
          99416.5 99416.5 99416.5 99416.5 99416.5 99416.5 99416.5 99416.5 99249.1 99249.1 99249.1 99249.1
          99249.1 99249.1 99249.1 99249.1 99249.1 99249.1 99249.1 99249.1 99249.1 99249.1 99249.1 99249.1
          99096.9 99096.9 99096.9 99096.9 99096.9 99096.9 99096.9 99096.9 99096.9 99096.9 99096.9 99096.9
          99096.9 99096.9 99096.9 99096.9 98958.5 98958.5 98958.5 98958.5 98958.5 98958.5 98958.5 98958.5
          98958.5 98958.5 98958.5 98958.5 98958.5 98958.5 98958.5 98958.5 98832.7 98832.7 98832.7 98832.7
          98832.7 98832.7 98832.7 98832.7 98832.7 98832.7 98832.7 98832.7 98832.7 98832.7 98832.7 98832.7
          98718.3 98718.3 98718.3 98718.3 98718.3 98718.3 98718.3 98718.3 98718.3 98718.3 98718.3 98718.3
          98718.3 98718.3 98718.3 98718.3
        </DataArray>
        <DataArray type="Float32" Name="pc" NumberOfComponents="1" format="ascii">
          9.10915 9.10899 19.5513 19.5513 9.10892 19.5507 9.10903 19.5508 9.10902 19.551 9.10898 19.5514
          9.10903 19.5512 9.10907 19.5509 9.109 19.5516 9.10913 19.5517 9.10912 19.5509 9.10896 19.5514
          9.10912 19.5509 9.10933 19.551 9.10929 19.5513 9.10926 19.5516 27.342 27.3421 27.3428 27.342
          27.342 27.3426 27.342 27.3418 27.3427 27.3426 27.343 27.3429 27.3425 27.3428 27.3428 27.3436
          35.7018 35.7017 35.7024 35.7019 35.7026 35.7027 35.7025 35.7031 35.7032 35.7034 35.7033 35.7038
          35.704 35.7043 35.7038 35.7038 64.4809 64.4817 64.4822 64.4813 64.4818 64.4821 64.4824 64.4829
          64.4825 64.4839 64.484 64.4844 64.4854 64.4851 64.4857 64.4851 205.945 205.945 205.945 205.945
          205.945 205.945 205.945 205.945 205.946 205.946 205.946 205.946 205.946 205.947 205.947 205.947
          401.98 401.98 401.98 401.98 401.98 401.98 401.98 401.98 401.98 401.98 401.98 401.98
          401.98 401.98 401.98 401.98 584.785 584.785 584.785 584.785 584.785 584.784 584.784 584.784
          584.784 584.784 584.784 584.784 584.784 584.784 584.784 584.784 751.664 751.664 751.664 751.663
          751.663 751.663 751.663 751.663 751.663 751.663 751.663 751.662 751.662 751.662 751.662 751.662
          903.573 903.573 903.573 903.573 903.573 903.572 903.572 903.572 903.572 903.572 903.572 903.571
          903.571 903.571 903.571 903.571 1041.77 1041.77 1041.77 1041.77 1041.77 1041.77 1041.77 1041.77
          1041.77 1041.77 1041.77 1041.77 1041.77 1041.77 1041.77 1041.77 1167.43 1167.43 1167.43 1167.43
          1167.43 1167.43 1167.43 1167.43 1167.43 1167.43 1167.43 1167.43 1167.43 1167.43 1167.43 1167.43
          1281.67 1281.67 1281.67 1281.67 1281.67 1281.67 1281.67 1281.67 1281.67 1281.67 1281.67 1281.67
          1281.67 1281.67 1281.66 1281.66
        </DataArray>
        <DataArray type="Float32" Name="rhoW" NumberOfComponents="1" format="ascii">
          997.056 997.056 997.056 997.056 997.056 997.056 997.056 997.056 997.056 997.056 997.056 997.056
          997.056 997.056 997.056 997.056 997.056 997.056 997.056 997.056 997.056 997.056 997.056 997.056
          997.056 997.056 997.056 997.056 997.056 997.056 997.056 997.056 997.057 997.057 997.057 997.057
          997.057 997.057 997.057 997.057 997.057 997.057 997.057 997.057 997.057 997.057 997.057 997.057
          997.057 997.057 997.057 997.057 997.057 997.057 997.057 997.057 997.057 997.057 997.057 997.057
          997.057 997.057 997.057 997.057 997.059 997.059 997.059 997.059 997.059 997.059 997.059 997.059
          997.059 997.059 997.059 997.059 997.059 997.059 997.059 997.059 997.064 997.064 997.064 997.064
          997.064 997.064 997.064 997.064 997.064 997.064 997.064 997.064 997.064 997.064 997.064 997.064
          997.073 997.073 997.073 997.073 997.073 997.073 997.073 997.073 997.073 997.072 997.072 997.072
          997.072 997.072 997.072 997.072 997.087 997.087 997.087 997.087 997.087 997.087 997.087 997.087
          997.087 997.087 997.087 997.086 997.086 997.086 997.086 997.086 997.108 997.108 997.108 997.108
          997.108 997.108 997.108 997.108 997.108 997.108 997.107 997.107 997.107 997.107 997.107 997.107
          997.136 997.136 997.136 997.136 997.136 997.136 997.136 997.136 997.136 997.136 997.136 997.135
          997.135 997.135 997.135 997.135 997.171 997.171 997.171 997.171 997.171 997.171 997.171 997.171
          997.171 997.171 997.171 997.17 997.17 997.17 997.17 997.17 997.212 997.212 997.212 997.213
          997.213 997.213 997.213 997.212 997.212 997.212 997.212 997.211 997.211 997.211 997.211 997.21
          997.257 997.257 997.258 997.258 997.259 997.259 997.258 997.258 997.258 997.258 997.257 997.257
          997.257 997.256 997.256 997.255
        </DataArray>
        <DataArray type="Float32" Name="rhoN" NumberOfComponents="1" format="ascii">
          1.16798 1.16798 1.16429 1.16429 1.16798 1.16429 1.16798 1.16429 1.16798 1.16429 1.16798 1.16429
          1.16798 1.16429 1.16798 1.16429 1.16798 1.16429 1.16798 1.16429 1.16798 1.16429 1.16798 1.16429
          1.16798 1.16429 1.16798 1.16429 1.16798 1.16429 1.16798 1.16429 1.16092 1.16092 1.16092 1.16092
          1.16092 1.16092 1.16092 1.16092 1.16092 1.16092 1.16092 1.16092 1.16092 1.16092 1.16092 1.16092
          1.15789 1.15789 1.15789 1.15789 1.15789 1.15789 1.15789 1.15789 1.15789 1.15789 1.15789 1.15789
          1.15789 1.15789 1.15789 1.15789 1.1554 1.1554 1.1554 1.1554 1.1554 1.1554 1.1554 1.1554
          1.1554 1.1554 1.1554 1.1554 1.1554 1.1554 1.1554 1.1554 1.15453 1.15453 1.15453 1.15453
          1.15453 1.15453 1.15453 1.15453 1.15453 1.15453 1.15453 1.15453 1.15453 1.15453 1.15453 1.15453
          1.15462 1.15462 1.15462 1.15462 1.15462 1.15462 1.15462 1.15462 1.15462 1.15462 1.15462 1.15461
          1.15461 1.15461 1.15461 1.15461 1.15486 1.15486 1.15486 1.15486 1.15486 1.15486 1.15486 1.15486
          1.15486 1.15486 1.15486 1.15486 1.15486 1.15486 1.15486 1.15486 1.15524 1.15524 1.15525 1.15525
          1.15525 1.15525 1.15525 1.15525 1.15524 1.15524 1.15524 1.15524 1.15524 1.15524 1.15523 1.15523
          1.15576 1.15576 1.15577 1.15577 1.15577 1.15577 1.15577 1.15577 1.15576 1.15576 1.15576 1.15576
          1.15575 1.15575 1.15575 1.15575 1.15642 1.15642 1.15642 1.15642 1.15642 1.15642 1.15642 1.15642
          1.15642 1.15641 1.15641 1.15641 1.1564 1.1564 1.1564 1.15639 1.15718 1.15718 1.15719 1.15719
          1.1572 1.1572 1.15719 1.15719 1.15719 1.15718 1.15718 1.15717 1.15717 1.15716 1.15716 1.15715
          1.15803 1.15804 1.15805 1.15806 1.15806 1.15806 1.15806 1.15805 1.15805 1.15804 1.15803 1.15803
          1.15802 1.15801 1.15801 1.15799
        </DataArray>
        <DataArray type="Float32" Name="mobW" NumberOfComponents="1" format="ascii">
          1123.57 1123.57 1123.55 1123.55 1123.57 1123.55 1123.57 1123.55 1123.57 1123.55 1123.57 1123.55
          1123.57 1123.55 1123.57 1123.55 1123.57 1123.55 1123.57 1123.55 1123.57 1123.55 1123.57 1123.55
          1123.57 1123.55 1123.57 1123.55 1123.57 1123.55 1123.57 1123.55 1123.52 1123.52 1123.52 1123.52
          1123.52 1123.52 1123.52 1123.52 1123.52 1123.52 1123.52 1123.52 1123.52 1123.52 1123.52 1123.52
          1123.43 1123.43 1123.43 1123.43 1123.43 1123.43 1123.43 1123.43 1123.43 1123.43 1123.43 1123.43
          1123.43 1123.43 1123.43 1123.43 1123.2 1123.2 1123.2 1123.2 1123.2 1123.2 1123.2 1123.2
          1123.2 1123.2 1123.2 1123.2 1123.2 1123.2 1123.2 1123.2 1122.62 1122.62 1122.62 1122.62
          1122.62 1122.62 1122.62 1122.62 1122.63 1122.63 1122.63 1122.63 1122.63 1122.63 1122.63 1122.63
          1121.36 1121.36 1121.35 1121.35 1121.35 1121.35 1121.35 1121.36 1121.36 1121.36 1121.36 1121.37
          1121.37 1121.37 1121.37 1121.37 1119.11 1119.11 1119.11 1119.11 1119.11 1119.11 1119.11 1119.11
          1119.12 1119.12 1119.13 1119.13 1119.14 1119.14 1119.15 1119.15 1115.48 1115.48 1115.47 1115.47
          1115.46 1115.46 1115.47 1115.47 1115.48 1115.49 1115.5 1115.51 1115.52 1115.52 1115.53 1115.53
          1107.58 1107.57 1107.56 1107.55 1107.55 1107.55 1107.55 1107.56 1107.57 1107.59 1107.6 1107.62
          1107.63 1107.64 1107.65 1107.66 1047.63 1047.63 1047.61 1047.59 1047.59 1047.59 1047.59 1047.6
          1047.62 1047.64 1047.66 1047.68 1047.7 1047.72 1047.73 1047.74 852.37 852.357 852.331 852.311
          852.302 852.301 852.309 852.323 852.341 852.362 852.385 852.407 852.429 852.45 852.472 852.49
          641.58 641.552 641.517 641.496 641.486 641.487 641.496 641.51 641.528 641.548 641.57 641.591
          641.612 641.632 641.651 641.701
        </DataArray>
        <DataArray type="Float32" Name="mobN" NumberOfComponents="1" format="ascii">
          7.97308e-05 7.97278e-05 0.000394162 0.000394165 7.97266e-05 0.000394137 7.97286e-05 0.000394144 7.97283e-05 0.000394151 7.97277e-05 0.00039417
          7.97285e-05 0.000394161 7.97294e-05 0.000394149 7.9728e-05 0.000394175 7.97304e-05 0.000394179 7.97302e-05 0.000394149 7.97274e-05 0.000394168
          7.97302e-05 0.000394147 7.9734e-05 0.000394149 7.97334e-05 0.000394165 7.97328e-05 0.000394176 0.000796883 0.00079689 0.000796929 0.000796881
          0.000796883 0.000796919 0.000796882 0.000796871 0.000796928 0.000796917 0.00079694 0.000796935 0.000796915 0.000796928 0.000796934 0.000796982
          0.00139707 0.00139707 0.00139713 0.00139708 0.00139714 0.00139715 0.00139713 0.00139718 0.00139719 0.0013972 0.0013972 0.00139724
          0.00139726 0.00139728 0.00139724 0.00139723 0.00488222 0.00488233 0.00488242 0.00488227 0.00488236 0.0048824 0.00488246 0.00488253
          0.00488246 0.00488269 0.00488271 0.00488278 0.00488293 0.00488289 0.00488299 0.0048829 0.0608817 0.0608817 0.0608816 0.0608817
          0.0608816 0.0608817 0.0608817 0.0608818 0.0608819 0.060882 0.0608822 0.0608824 0.0608825 0.0608827 0.0608827 0.0608827
          0.291565 0.291565 0.291565 0.291565 0.291565 0.291565 0.291564 0.291564 0.291564 0.291564 0.291564 0.291564
          0.291564 0.291564 0.291564 0.291564 0.786544 0.786544 0.786544 0.786543 0.786543 0.786542 0.786542 0.786541
          0.786541 0.78654 0.78654 0.786539 0.786539 0.786538 0.786538 0.786538 1.7641 1.7641 1.7641 1.7641
          1.7641 1.7641 1.7641 1.76409 1.76409 1.76409 1.76409 1.76409 1.76408 1.76408 1.76408 1.76408
          5.23516 5.23514 5.23512 5.23511 5.23509 5.23508 5.23506 5.23504 5.23503 5.23501 5.23499 5.23497
          5.23495 5.23493 5.2349 5.23488 53.3121 53.3116 53.3114 53.3114 53.3113 53.3112 53.311 53.3108
          53.3106 53.3104 53.3102 53.31 53.3097 53.3095 53.3092 53.3087 319.265 319.262 319.262 319.262
          319.261 319.261 319.26 319.259 319.257 319.256 319.255 319.253 319.252 319.25 319.248 319.244
          1254.99 1254.97 1254.98 1254.98 1254.98 1254.98 1254.97 1254.97 1254.96 1254.96 1254.95 1254.95
          1254.94 1254.93 1254.93 1254.9
        </DataArray>
        <DataArray type="Float32" Name="X_liquid^H2O" NumberOfComponents="1" format="ascii">
          0.999978 0.999978 0.999978 0.999978 0.999978 0.999978 0.999978 0.999978 0.999978 0.999978 0.999978 0.999978
          0.999978 0.999978 0.999978 0.999978 0.999978 0.999978 0.999978 0.999978 0.999978 0.999978 0.999978 0.999978
          0.999978 0.999978 0.999978 0.999978 0.999978 0.999978 0.999978 0.999978 0.999978 0.999978 0.999978 0.999978
          0.999978 0.999978 0.999978 0.999978 0.999978 0.999978 0.999978 0.999978 0.999978 0.999978 0.999978 0.999978
          0.999978 0.999978 0.999978 0.999978 0.999978 0.999978 0.999978 0.999978 0.999978 0.999978 0.999978 0.999978
          0.999978 0.999978 0.999978 0.999978 0.999978 0.999978 0.999978 0.999978 0.999978 0.999978 0.999978 0.999978
          0.999978 0.999978 0.999978 0.999978 0.999978 0.999978 0.999978 0.999978 0.999978 0.999978 0.999978 0.999978
          0.999978 0.999978 0.999978 0.999978 0.999978 0.999978 0.999978 0.999978 0.999978 0.999978 0.999978 0.999978
          0.999978 0.999978 0.999978 0.999978 0.999978 0.999978 0.999978 0.999978 0.999978 0.999978 0.999978 0.999978
          0.999978 0.999978 0.999978 0.999978 0.999978 0.999978 0.999978 0.999978 0.999978 0.999978 0.999978 0.999978
          0.999978 0.999978 0.999978 0.999978 0.999978 0.999978 0.999978 0.999978 0.999978 0.999978 0.999978 0.999978
          0.999978 0.999978 0.999978 0.999978 0.999978 0.999978 0.999978 0.999978 0.999978 0.999978 0.999978 0.999978
          0.999978 0.999978 0.999978 0.999978 0.999978 0.999978 0.999978 0.999978 0.999978 0.999978 0.999978 0.999978
          0.999978 0.999978 0.999978 0.999978 0.999978 0.999978 0.999978 0.999978 0.999978 0.999978 0.999978 0.999978
          0.999978 0.999978 0.999978 0.999978 0.999978 0.999978 0.999978 0.999978 0.999978 0.999978 0.999978 0.999978
          0.999978 0.999978 0.999978 0.999978 0.999978 0.999978 0.999978 0.999978 0.999978 0.999978 0.999978 0.999978
          0.999978 0.999978 0.999978 0.999978 0.999978 0.999978 0.999978 0.999978 0.999978 0.999978 0.999978 0.999978
          0.999978 0.999978 0.999978 0.999978
        </DataArray>
        <DataArray type="Float32" Name="X_liquid^Air" NumberOfComponents="1" format="ascii">
          2.18078e-05 2.18078e-05 2.17377e-05 2.17377e-05 2.18078e-05 2.17377e-05 2.18078e-05 2.17377e-05 2.18078e-05 2.17377e-05 2.18078e-05 2.17377e-05
          2.18078e-05 2.17377e-05 2.18078e-05 2.17377e-05 2.18078e-05 2.17377e-05 2.18078e-05 2.17377e-05 2.18078e-05 2.17377e-05 2.18078e-05 2.17377e-05
          2.18078e-05 2.17377e-05 2.18078e-05 2.17377e-05 2.18078e-05 2.17377e-05 2.18078e-05 2.17377e-05 2.1674e-05 2.1674e-05 2.1674e-05 2.1674e-05
          2.1674e-05 2.1674e-05 2.1674e-05 2.1674e-05 2.1674e-05 2.1674e-05 2.1674e-05 2.1674e-05 2.1674e-05 2.1674e-05 2.1674e-05 2.1674e-05
          2.16172e-05 2.16172e-05 2.16172e-05 2.16172e-05 2.16172e-05 2.16172e-05 2.16172e-05 2.16172e-05 2.16172e-05 2.16172e-05 2.16172e-05 2.16172e-05
          2.16172e-05 2.16172e-05 2.16172e-05 2.16172e-05 2.15723e-05 2.15723e-05 2.15723e-05 2.15723e-05 2.15723e-05 2.15723e-05 2.15723e-05 2.15723e-05
          2.15723e-05 2.15723e-05 2.15723e-05 2.15723e-05 2.15723e-05 2.15723e-05 2.15722e-05 2.15722e-05 2.15611e-05 2.15611e-05 2.15611e-05 2.15611e-05
          2.15611e-05 2.15611e-05 2.15611e-05 2.15611e-05 2.15611e-05 2.1561e-05 2.1561e-05 2.1561e-05 2.1561e-05 2.1561e-05 2.1561e-05 2.15609e-05
          2.15724e-05 2.15724e-05 2.15724e-05 2.15724e-05 2.15724e-05 2.15724e-05 2.15724e-05 2.15724e-05 2.15724e-05 2.15723e-05 2.15723e-05 2.15722e-05
          2.15722e-05 2.15722e-05 2.15721e-05 2.15721e-05 2.15932e-05 2.15932e-05 2.15932e-05 2.15933e-05 2.15933e-05 2.15933e-05 2.15933e-05 2.15932e-05
          2.15931e-05 2.15931e-05 2.1593e-05 2.15929e-05 2.15928e-05 2.15928e-05 2.15927e-05 2.15927e-05 2.16244e-05 2.16244e-05 2.16245e-05 2.16245e-05
          2.16246e-05 2.16246e-05 2.16246e-05 2.16245e-05 2.16244e-05 2.16242e-05 2.16241e-05 2.1624e-05 2.16238e-05 2.16237e-05 2.16236e-05 2.16236e-05
          2.16667e-05 2.16668e-05 2.16669e-05 2.16671e-05 2.16672e-05 2.16672e-05 2.16671e-05 2.1667e-05 2.16668e-05 2.16666e-05 2.16664e-05 2.16662e-05
          2.16659e-05 2.16657e-05 2.16656e-05 2.16655e-05 2.17199e-05 2.172e-05 2.17203e-05 2.17205e-05 2.17207e-05 2.17207e-05 2.17206e-05 2.17204e-05
          2.17202e-05 2.17199e-05 2.17195e-05 2.17192e-05 2.17189e-05 2.17186e-05 2.17184e-05 2.17182e-05 2.17826e-05 2.17828e-05 2.17834e-05 2.17838e-05
          2.1784e-05 2.1784e-05 2.17838e-05 2.17835e-05 2.17832e-05 2.17828e-05 2.17824e-05 2.17819e-05 2.17815e-05 2.17811e-05 2.17807e-05 2.17803e-05
          2.18527e-05 2.18535e-05 2.18544e-05 2.1855e-05 2.18553e-05 2.18553e-05 2.1855e-05 2.18547e-05 2.18542e-05 2.18537e-05 2.18531e-05 2.18526e-05
          2.18521e-05 2.18515e-05 2.1851e-05 2.18498e-05
        </DataArray>
        <DataArray type="Float32" Name="X_gas^H2O" NumberOfComponents="1" format="ascii">
          0.0197228 0.0197228 0.0197847 0.0197847 0.0197228 0.0197847 0.0197228 0.0197847 0.0197228 0.0197847 0.0197228 0.0197847
          0.0197228 0.0197847 0.0197228 0.0197847 0.0197228 0.0197847 0.0197228 0.0197847 0.0197228 0.0197847 0.0197228 0.0197847
          0.0197228 0.0197847 0.0197228 0.0197847 0.0197228 0.0197847 0.0197228 0.0197847 0.0198406 0.0198406 0.0198406 0.0198406
          0.0198406 0.0198406 0.0198406 0.0198406 0.0198406 0.0198406 0.0198406 0.0198406 0.0198406 0.0198407 0.0198407 0.0198407
          0.0198886 0.0198886 0.0198886 0.0198886 0.0198886 0.0198886 0.0198886 0.0198886 0.0198887 0.0198887 0.0198887 0.0198887
          0.0198887 0.0198887 0.0198887 0.0198887 0.0199217 0.0199217 0.0199217 0.0199217 0.0199217 0.0199217 0.0199217 0.0199218
          0.0199218 0.0199218 0.0199218 0.0199219 0.0199219 0.0199219 0.0199219 0.0199219 0.0199162 0.0199162 0.0199162 0.0199162
          0.0199162 0.0199162 0.0199162 0.0199162 0.0199163 0.0199163 0.0199164 0.0199165 0.0199165 0.0199166 0.0199166 0.0199166
          0.0198769 0.0198769 0.0198769 0.0198768 0.0198768 0.0198768 0.0198768 0.0198769 0.019877 0.0198772 0.0198773 0.0198774
          0.0198776 0.0198777 0.0198777 0.0198778 0.0198104 0.0198104 0.0198103 0.0198102 0.0198101 0.0198101 0.0198102 0.0198104
          0.0198106 0.0198108 0.0198111 0.0198113 0.0198116 0.0198118 0.0198119 0.019812 0.019712 0.0197119 0.0197117 0.0197115
          0.0197114 0.0197114 0.0197115 0.0197117 0.0197121 0.0197125 0.0197129 0.0197134 0.0197138 0.0197142 0.0197144 0.0197145
          0.0195798 0.0195796 0.0195792 0.0195788 0.0195785 0.0195785 0.0195787 0.0195791 0.0195796 0.0195803 0.019581 0.0195817
          0.0195823 0.0195829 0.0195834 0.0195836 0.0194158 0.0194154 0.0194146 0.0194139 0.0194135 0.0194134 0.0194137 0.0194143
          0.0194151 0.019416 0.019417 0.0194179 0.0194189 0.0194198 0.0194206 0.019421 0.0192253 0.0192244 0.0192228 0.0192216
          0.019221 0.019221 0.0192215 0.0192223 0.0192233 0.0192245 0.0192258 0.0192271 0.0192284 0.0192296 0.0192309 0.0192319
          0.0190151 0.0190127 0.01901 0.0190083 0.0190076 0.0190076 0.0190082 0.0190093 0.0190106 0.0190122 0.0190139 0.0190155
          0.0190171 0.0190186 0.0190201 0.0190238
        </DataArray>
        <DataArray type="Float32" Name="X_gas^Air" NumberOfComponents="1" format="ascii">
          0.980277 0.980277 0.980215 0.980215 0.980277 0.980215 0.980277 0.980215 0.980277 0.980215 0.980277 0.980215
          0.980277 0.980215 0.980277 0.980215 0.980277 0.980215 0.980277 0.980215 0.980277 0.980215 0.980277 0.980215
          0.980277 0.980215 0.980277 0.980215 0.980277 0.980215 0.980277 0.980215 0.980159 0.980159 0.980159 0.980159
          0.980159 0.980159 0.980159 0.980159 0.980159 0.980159 0.980159 0.980159 0.980159 0.980159 0.980159 0.980159
          0.980111 0.980111 0.980111 0.980111 0.980111 0.980111 0.980111 0.980111 0.980111 0.980111 0.980111 0.980111
          0.980111 0.980111 0.980111 0.980111 0.980078 0.980078 0.980078 0.980078 0.980078 0.980078 0.980078 0.980078
          0.980078 0.980078 0.980078 0.980078 0.980078 0.980078 0.980078 0.980078 0.980084 0.980084 0.980084 0.980084
          0.980084 0.980084 0.980084 0.980084 0.980084 0.980084 0.980084 0.980084 0.980083 0.980083 0.980083 0.980083
          0.980123 0.980123 0.980123 0.980123 0.980123 0.980123 0.980123 0.980123 0.980123 0.980123 0.980123 0.980123
          0.980122 0.980122 0.980122 0.980122 0.98019 0.98019 0.98019 0.98019 0.98019 0.98019 0.98019 0.98019
          0.980189 0.980189 0.980189 0.980189 0.980188 0.980188 0.980188 0.980188 0.980288 0.980288 0.980288 0.980289
          0.980289 0.980289 0.980289 0.980288 0.980288 0.980287 0.980287 0.980287 0.980286 0.980286 0.980286 0.980285
          0.98042 0.98042 0.980421 0.980421 0.980421 0.980421 0.980421 0.980421 0.98042 0.98042 0.980419 0.980418
          0.980418 0.980417 0.980417 0.980416 0.980584 0.980585 0.980585 0.980586 0.980587 0.980587 0.980586 0.980586
          0.980585 0.980584 0.980583 0.980582 0.980581 0.98058 0.980579 0.980579 0.980775 0.980776 0.980777 0.980778
          0.980779 0.980779 0.980779 0.980778 0.980777 0.980775 0.980774 0.980773 0.980772 0.98077 0.980769 0.980768
          0.980985 0.980987 0.98099 0.980992 0.980992 0.980992 0.980992 0.980991 0.980989 0.980988 0.980986 0.980985
          0.980983 0.980981 0.98098 0.980976
        </DataArray>
        <DataArray type="Float32" Name="x_liquid^H2O" NumberOfComponents="1" format="ascii">
          0.999986 0.999986 0.999986 0.999986 0.999986 0.999986 0.999986 0.999986 0.999986 0.999986 0.999986 0.999986
          0.999986 0.999986 0.999986 0.999986 0.999986 0.999986 0.999986 0.999986 0.999986 0.999986 0.999986 0.999986
          0.999986 0.999986 0.999986 0.999986 0.999986 0.999986 0.999986 0.999986 0.999987 0.999987 0.999987 0.999987
          0.999987 0.999987 0.999987 0.999987 0.999987 0.999987 0.999987 0.999987 0.999987 0.999987 0.999987 0.999987
          0.999987 0.999987 0.999987 0.999987 0.999987 0.999987 0.999987 0.999987 0.999987 0.999987 0.999987 0.999987
          0.999987 0.999987 0.999987 0.999987 0.999987 0.999987 0.999987 0.999987 0.999987 0.999987 0.999987 0.999987
          0.999987 0.999987 0.999987 0.999987 0.999987 0.999987 0.999987 0.999987 0.999987 0.999987 0.999987 0.999987
          0.999987 0.999987 0.999987 0.999987 0.999987 0.999987 0.999987 0.999987 0.999987 0.999987 0.999987 0.999987
          0.999987 0.999987 0.999987 0.999987 0.999987 0.999987 0.999987 0.999987 0.999987 0.999987 0.999987 0.999987
          0.999987 0.999987 0.999987 0.999987 0.999987 0.999987 0.999987 0.999987 0.999987 0.999987 0.999987 0.999987
          0.999987 0.999987 0.999987 0.999987 0.999987 0.999987 0.999987 0.999987 0.999987 0.999987 0.999987 0.999987
          0.999987 0.999987 0.999987 0.999987 0.999987 0.999987 0.999987 0.999987 0.999987 0.999987 0.999987 0.999987
          0.999987 0.999987 0.999987 0.999987 0.999987 0.999987 0.999987 0.999987 0.999987 0.999987 0.999987 0.999987
          0.999987 0.999987 0.999987 0.999987 0.999986 0.999986 0.999986 0.999986 0.999986 0.999986 0.999986 0.999986
          0.999986 0.999986 0.999986 0.999986 0.999986 0.999986 0.999986 0.999986 0.999986 0.999986 0.999986 0.999986
          0.999986 0.999986 0.999986 0.999986 0.999986 0.999986 0.999986 0.999986 0.999986 0.999986 0.999986 0.999986
          0.999986 0.999986 0.999986 0.999986 0.999986 0.999986 0.999986 0.999986 0.999986 0.999986 0.999986 0.999986
          0.999986 0.999986 0.999986 0.999986
        </DataArray>
        <DataArray type="Float32" Name="x_liquid^Air" NumberOfComponents="1" format="ascii">