<?xml version="1.0"?>
<VTKFile type="UnstructuredGrid" version="0.1" byte_order="LittleEndian">
  <UnstructuredGrid>
    <Piece NumberOfCells="24" NumberOfPoints="35">
      <PointData Scalars="Sn" Vectors="velocityW">
        <DataArray type="Float32" Name="Sn" NumberOfComponents="1" format="ascii">
          0.0101045 0.0101045 0.0103705 0.0103705 0.0101045 0.0103705 0.0101045 0.0103706 0.0101045 0.0103706 0.0101045 0.0103706
          0.0101045 0.0103706 0.0133566 0.0133566 0.0133566 0.0133566 0.0133566 0.0133566 0.0133566 0.0251665 0.0251665 0.0251664
          0.0251663 0.0251663 0.0251662 0.0251662 0.131068 0.131067 0.131067 0.131067 0.131066 0.131066 0.131065
        </DataArray>
        <DataArray type="Float32" Name="Sw" NumberOfComponents="1" format="ascii">
          0.989896 0.989896 0.989629 0.989629 0.989896 0.989629 0.989896 0.989629 0.989896 0.989629 0.989896 0.989629
          0.989896 0.989629 0.986643 0.986643 0.986643 0.986643 0.986643 0.986643 0.986643 0.974833 0.974834 0.974834
          0.974834 0.974834 0.974834 0.974834 0.868932 0.868933 0.868933 0.868933 0.868934 0.868934 0.868935
        </DataArray>
        <DataArray type="Float32" Name="pn" NumberOfComponents="1" format="ascii">
          101214 101214 100246 100246 101214 100246 101214 100246 101214 100246 101214 100246
          101214 100246 100002 100002 100002 100002 100002 100002 100002 100000 100000 100000
          100000 100000 100000 100000 100000 100000 100000 100000 100000 100000 100000
        </DataArray>
        <DataArray type="Float32" Name="pw" NumberOfComponents="1" format="ascii">
          101196 101196 100180 100180 101196 100180 101196 100180 101196 100180 101196 100180
          101196 100180 99502.6 99502.6 99502.6 99502.6 99502.6 99502.6 99502.6 99051.1 99051.1 99051.1
          99051.1 99051.1 99051.1 99051.1 98750.1 98750.1 98750.1 98750.1 98750.1 98750.1 98750.1
        </DataArray>
        <DataArray type="Float32" Name="pc" NumberOfComponents="1" format="ascii">
          18.9515 18.9515 66.189 66.19 18.9514 66.1909 18.9514 66.1926 18.9512 66.1947 18.952 66.1961
          18.9518 66.1972 499.46 499.46 499.46 499.46 499.46 499.461 499.461 949.239 949.238 949.237
          949.237 949.237 949.236 949.236 1249.91 1249.91 1249.91 1249.91 1249.91 1249.91 1249.91
        </DataArray>
        <DataArray type="Float32" Name="rhoW" NumberOfComponents="1" format="ascii">
          997.056 997.056 997.062 997.062 997.056 997.062 997.056 997.062 997.056 997.062 997.056 997.062
          997.056 997.062 997.102 997.102 997.102 997.102 997.102 997.102 997.102 997.209 997.209 997.209
          997.209 997.208 997.207 997.207 997.347 997.349 997.349 997.348 997.347 997.346 997.343
        </DataArray>
        <DataArray type="Float32" Name="rhoN" NumberOfComponents="1" format="ascii">
          1.16846 1.16846 1.15727 1.15727 1.16846 1.15727 1.16846 1.15727 1.16846 1.15727 1.16846 1.15727
          1.16846 1.15727 1.15516 1.15516 1.15516 1.15516 1.15516 1.15515 1.15515 1.15712 1.15713 1.15713
          1.15712 1.15711 1.1571 1.15709 1.15975 1.15977 1.15977 1.15975 1.15973 1.15971 1.15967
        </DataArray>
        <DataArray type="Float32" Name="mobW" NumberOfComponents="1" format="ascii">
          1123.57 1123.57 1122.91 1122.91 1123.57 1122.91 1123.57 1122.91 1123.57 1122.92 1123.57 1122.92
          1123.57 1122.92 1117.98 1117.98 1117.99 1118 1118.02 1118.03 1118.04 1091.47 1091.45 1091.46
          1091.5 1091.55 1091.62 1091.67 692.04 691.964 691.965 692.027 692.091 692.158 692.325
        </DataArray>
        <DataArray type="Float32" Name="mobN" NumberOfComponents="1" format="ascii">
          0.00036922 0.000369221 0.00516156 0.00516172 0.000369219 0.00516187 0.000369219 0.00516216 0.000369212 0.0051625 0.000369241 0.00516273
          0.000369234 0.00516292 0.508919 0.508919 0.508919 0.508919 0.508919 0.50892 0.508919 11.7723 11.7722 11.7721
          11.772 11.7719 11.7717 11.7716 880.297 880.299 880.295 880.283 880.27 880.257 880.229
        </DataArray>
        <DataArray type="Float32" Name="X_liquid^H2O" NumberOfComponents="1" format="ascii">
          0.999978 0.999978 0.999978 0.999978 0.999978 0.999978 0.999978 0.999978 0.999978 0.999978 0.999978 0.999978
          0.999978 0.999978 0.999978 0.999978 0.999978 0.999978 0.999978 0.999978 0.999978 0.999978 0.999978 0.999978
          0.999978 0.999978 0.999978 0.999978 0.999978 0.999978 0.999978 0.999978 0.999978 0.999978 0.999978
        </DataArray>
        <DataArray type="Float32" Name="X_liquid^Air" NumberOfComponents="1" format="ascii">
          2.18171e-05 2.18171e-05 2.16111e-05 2.16111e-05 2.18171e-05 2.16111e-05 2.18171e-05 2.16111e-05 2.18171e-05 2.1611e-05 2.18171e-05 2.1611e-05
          2.18171e-05 2.1611e-05 2.16169e-05 2.16169e-05 2.16168e-05 2.16166e-05 2.16164e-05 2.16162e-05 2.16161e-05 2.17779e-05 2.17782e-05 2.17781e-05
          2.17775e-05 2.17767e-05 2.17757e-05 2.17749e-05 2.19961e-05 2.1998e-05 2.1998e-05 2.19965e-05 2.1995e-05 2.19933e-05 2.19893e-05
        </DataArray>
        <DataArray type="Float32" Name="X_gas^H2O" NumberOfComponents="1" format="ascii">
          0.0197146 0.0197146 0.0198772 0.0198772 0.0197146 0.0198772 0.0197146 0.0198773 0.0197146 0.0198773 0.0197146 0.0198774
          0.0197146 0.0198774 0.0197363 0.0197363 0.0197365 0.019737 0.0197377 0.0197385 0.0197388 0.0192394 0.0192386 0.0192387
          0.0192406 0.0192431 0.0192461 0.0192485 0.0185963 0.0185909 0.018591 0.0185952 0.0185997 0.0186043 0.0186159
        </DataArray>
        <DataArray type="Float32" Name="X_gas^Air" NumberOfComponents="1" format="ascii">
          0.980285 0.980285 0.980123 0.980123 0.980285 0.980123 0.980285 0.980123 0.980285 0.980123 0.980285 0.980123
          0.980285 0.980123 0.980264 0.980264 0.980264 0.980263 0.980262 0.980262 0.980261 0.980761 0.980761 0.980761
          0.980759 0.980757 0.980754 0.980751 0.981404 0.981409 0.981409 0.981405 0.9814 0.981396 0.981384
        </DataArray>
        <DataArray type="Float32" Name="x_liquid^H2O" NumberOfComponents="1" format="ascii">
          0.999986 0.999986 0.999987 0.999987 0.999986 0.999987 0.999986 0.999987 0.999986 0.999987 0.999986 0.999987
          0.999986 0.999987 0.999987 0.999987 0.999987 0.999987 0.999987 0.999987 0.999987 0.999986 0.999986 0.999986
          0.999986 0.999986 0.999986 0.999986 0.999986 0.999986 0.999986 0.999986 0.999986 0.999986 0.999986
        </DataArray>
        <DataArray type="Float32" Name="x_liquid^Air" NumberOfComponents="1" format="ascii">
          1.35719e-05 1.35719e-05 1.34437e-05 1.34437e-05 1.35719e-05 1.34437e-05 1.35719e-05 1.34437e-05 1.35719e-05 1.34437e-05 1.35719e-05 1.34437e-05
          1.35719e-05 1.34437e-05 1.34473e-05 1.34473e-05 1.34473e-05 1.34472e-05 1.34471e-05 1.34469e-05 1.34468e-05 1.35475e-05 1.35477e-05 1.35477e-05
          1.35473e-05 1.35468e-05 1.35461e-05 1.35456e-05 1.36833e-05 1.36845e-05 1.36844e-05 1.36835e-05 1.36825e-05 1.36815e-05 1.3679e-05
        </DataArray>
        <DataArray type="Float32" Name="x_gas^H2O" NumberOfComponents="1" format="ascii">
          0.0313167 0.0313167 0.0315719 0.0315719 0.0313167 0.031572 0.0313167 0.0315721 0.0313167 0.0315722 0.0313167 0.0315723
          0.0313167 0.0315724 0.0313509 0.0313509 0.0313511 0.0313519 0.0313531 0.0313543 0.0313548 0.0305707 0.0305694 0.0305696
          0.0305725 0.0305764 0.0305812 0.030585 0.0295603 0.0295517 0.0295518 0.0295585 0.0295655 0.0295728 0.0295911
        </DataArray>
        <DataArray type="Float32" Name="x_gas^Air" NumberOfComponents="1" format="ascii">
          0.968683 0.968683 0.968428 0.968428 0.968683 0.968428 0.968683 0.968428 0.968683 0.968428 0.968683 0.968428
          0.968683 0.968428 0.968649 0.968649 0.968649 0.968648 0.968647 0.968646 0.968645 0.969429 0.969431 0.96943
          0.969428 0.969424 0.969419 0.969415 0.97044 0.970448 0.970448 0.970441 0.970434 0.970427 0.970409
        </DataArray>
        <DataArray type="Float32" Name="porosity" NumberOfComponents="1" format="ascii">
          0.41 0.41 0.41 0.41 0.41 0.41 0.41 0.41 0.41 0.41 0.41 0.41
          0.41 0.41 0.41 0.41 0.41 0.41 0.41 0.41 0.41 0.41 0.41 0.41
          0.41 0.41 0.41 0.41 0.41 0.41 0.41 0.41 0.41 0.41 0.41
        </DataArray>
        <DataArray type="Float32" Name="temperature" NumberOfComponents="1" format="ascii">
          298.15 298.15 298.125 298.125 298.15 298.125 298.15 298.125 298.15 298.125 298.15 298.125
          298.15 298.125 297.966 297.966 297.966 297.967 297.967 297.968 297.968 297.544 297.544 297.544
          297.546 297.548 297.55 297.552 296.984 296.98 296.98 296.983 296.987 296.991 297.002
        </DataArray>
        <DataArray type="Float32" Name="phase presence" NumberOfComponents="1" format="ascii">
          3 3 3 3 3 3 3 3 3 3 3 3
          3 3 3 3 3 3 3 3 3 3 3 3
          3 3 3 3 3 3 3 3 3 3 3
        </DataArray>
        <DataArray type="Float32" Name="velocityW" NumberOfComponents="3" format="ascii">
          3.16511e-11 -9.28323e-10 0 6.31359e-11 -9.27357e-10 0 8.89104e-12 -2.95087e-09 0 3.95494e-11 -2.98216e-09 0
          1.20612e-10 -9.14949e-10 0 1.16362e-10 -3.00005e-09 0 1.55991e-10 -8.75726e-10 0 1.87304e-10 -2.9309e-09 0
          1.50146e-10 -8.13754e-10 0 2.16197e-10 -2.78955e-09 0 9.50675e-11 -7.46076e-10 0 1.62212e-10 -2.61317e-09 0
          5.52219e-11 -7.16931e-10 0 1.0412e-10 -2.51839e-09 0 -1.25014e-10 -4.8096e-09 0 -1.15652e-10 -5.04701e-09 0
          -5.36981e-11 -5.15869e-09 0 2.36647e-11 -5.0241e-09 0 9.36304e-11 -4.82213e-09 0 1.66349e-10 -4.49315e-09 0
          1.93873e-10 -4.05109e-09 0 -9.89792e-11 -7.51067e-10 0 -2.12404e-10 -1.2049e-09 0 -4.96466e-10 -1.32514e-09 0
          -7.60095e-10 -1.21119e-09 0 -8.39808e-10 -1.12231e-09 0 -5.32388e-10 -1.01667e-09 0 -2.38245e-10 -1.4758e-10 0
          6.05198e-10 3.14365e-09 0 1.57959e-10 2.64723e-09 0 -6.79783e-10 2.58194e-09 0 -1.1548e-09 2.63977e-09 0
          -1.24535e-09 2.63428e-09 0 -1.40656e-09 2.47271e-09 0 -1.56173e-09 3.48718e-09 0
        </DataArray>
        <DataArray type="Float32" Name="velocityN" NumberOfComponents="3" format="ascii">
          -5.96065e-16 9.11397e-10 0 -5.09687e-16 9.11399e-10 0 -2.34205e-14 2.85735e-09 0 -2.26738e-14 2.85744e-09 0
          -6.8011e-16 9.11393e-10 0 -3.22626e-14 2.85751e-09 0 -8.96434e-16 9.1139e-10 0 -4.62055e-14 2.85766e-09 0
          -1.44595e-15 9.11371e-10 0 -4.34478e-14 2.85782e-09 0 -1.19156e-15 9.11444e-10 0 -3.24733e-14 2.85798e-09 0
          -3.47181e-16 9.11424e-10 0 -2.78637e-14 2.85807e-09 0 2.00511e-13 4.12369e-09 0 -4.31226e-14 4.1243e-09 0
          -6.07506e-13 4.12498e-09 0 -1.14918e-12 4.12586e-09 0 -1.2343e-12 4.12693e-09 0 -6.43052e-13 4.12799e-09 0
          -1.87602e-13 4.12883e-09 0 4.38215e-11 -1.28733e-09 0 3.32156e-11 -1.23737e-09 0 2.18036e-11 -1.24489e-09 0
          2.03383e-11 -1.24272e-09 0 1.98881e-11 -1.24033e-09 0 3.23318e-11 -1.24738e-09 0 4.45665e-11 -1.19348e-09 0
          3.73263e-09 -6.01872e-09 0 2.83087e-09 -5.91987e-09 0 1.91865e-09 -5.9361e-09 0 1.90471e-09 -5.93323e-09 0
          1.90655e-09 -5.93025e-09 0 2.8767e-09 -5.94625e-09 0 3.84152e-09 -5.8399e-09 0
        </DataArray>
      </PointData>
      <CellData Scalars="process rank">
        <DataArray type="Float32" Name="process rank" NumberOfComponents="1" format="ascii">
          0 0 0 0 0 0 0 0 0 0 0 0
          0 0 0 0 0 0 0 0 0 0 0 0
        </DataArray>
      </CellData>
      <Points>
        <DataArray type="Float32" Name="Coordinates" NumberOfComponents="3" format="ascii">
          0 0 0 0.0416667 0 0 0 0.103846 0 0.0416667 0.103846 0
          0.0833333 0 0 0.0833333 0.103846 0 0.125 0 0 0.125 0.103846 0
          0.166667 0 0 0.166667 0.103846 0 0.208333 0 0 0.208333 0.103846 0
          0.25 0 0 0.25 0.103846 0 0 0.173077 0 0.0416667 0.173077 0
          0.0833333 0.173077 0 0.125 0.173077 0 0.166667 0.173077 0 0.208333 0.173077 0
          0.25 0.173077 0 0 0.219231 0 0.0416667 0.219231 0 0.0833333 0.219231 0
          0.125 0.219231 0 0.166667 0.219231 0 0.208333 0.219231 0 0.25 0.219231 0
          0 0.25 0 0.0416667 0.25 0 0.0833333 0.25 0 0.125 0.25 0
          0.166667 0.25 0 0.208333 0.25 0 0.25 0.25 0
        </DataArray>
      </Points>
      <Cells>
        <DataArray type="Int32" Name="connectivity" NumberOfComponents="1" format="ascii">
          0 1 3 2 1 4 5 3 4 6 7 5
          6 8 9 7 8 10 11 9 10 12 13 11
          2 3 15 14 3 5 16 15 5 7 17 16
          7 9 18 17 9 11 19 18 11 13 20 19
          14 15 22 21 15 16 23 22 16 17 24 23
          17 18 25 24 18 19 26 25 19 20 27 26
          21 22 29 28 22 23 30 29 23 24 31 30
          24 25 32 31 25 26 33 32 26 27 34 33
        </DataArray>
        <DataArray type="Int32" Name="offsets" NumberOfComponents="1" format="ascii">
          4 8 12 16 20 24 28 32 36 40 44 48
          52 56 60 64 68 72 76 80 84 88 92 96
        </DataArray>
        <DataArray type="UInt8" Name="types" NumberOfComponents="1" format="ascii">
          9 9 9 9 9 9 9 9 9 9 9 9
          9 9 9 9 9 9 9 9 9 9 9 9
        </DataArray>
      </Cells>
    </Piece>
  </UnstructuredGrid>
</VTKFile>
