<?xml version="1.0"?>
<VTKFile type="UnstructuredGrid" version="0.1" byte_order="LittleEndian">
  <UnstructuredGrid>
    <Piece NumberOfCells="56" NumberOfPoints="72">
      <PointData Scalars="P" Vectors="v">
        <DataArray type="Float32" Name="P" NumberOfComponents="1" format="ascii">
          100017 99990 100017 99989.8 100012 100013 99994 99992.8 100009 100009 99996.7 99996.4
          100005 100005 100000 100000 100020 99988.6 100013 99993.2 100009 99996.5 100005 100000
          100019 99988.5 100014 99992.2 100010 99996.1 100006 100000 100019 99988.2 100014 99992.4
          100010 99996.2 100006 100000 100019 99988.5 100014 99992.2 100010 99996.1 100006 100000
          100020 99988.7 100014 99992.5 100010 99996.2 100005 100000 100017 99989.9 100013 99992.7
          100009 99996.3 100005 100000 100017 99989.9 100013 99992.7 100009 99996.2 100005 100000
        </DataArray>
        <DataArray type="Float32" Name="delP" NumberOfComponents="1" format="ascii">
          17.0466 -10.0398 16.8536 -10.2328 11.8442 13.4284 -5.98678 -7.20224 8.97478 9.37833 -3.32095 -3.63862
          5.29838 5.33869 0 0 19.9322 -11.3527 13.119 -6.74978 9.30108 -3.45522 5.40339 0
          19.0004 -11.5425 14.4266 -7.8055 9.86662 -3.91213 5.70643 0 18.7399 -11.7976 14.1427 -7.61329
          9.8348 -3.81029 5.73142 0 19.0704 -11.4862 14.3739 -7.78195 9.84953 -3.94907 5.65056 0
          19.7464 -11.2911 13.9263 -7.49288 9.54425 -3.78342 5.35357 0 16.8569 -10.0753 13.3794 -7.31809
          9.39921 -3.74311 5.17663 0 16.8218 -10.1103 13.3706 -7.33017 9.39747 -3.7471 5.2037 0
        </DataArray>
        <DataArray type="Float32" Name="x_gas^H2O" NumberOfComponents="1" format="ascii">
          0.0127981 0.0102654 0.0127981 0.0127005 0.0145673 0.0127235 0.0171487 0.0128065 0.0173452 0.0128571 0.0176067 0.012912
          0.0144057 0.0129175 0.0101329 0.0118227 0.0127981 0.0127923 0.0127909 0.0127917 0.0127939 0.0127974 0.01279 0.0120671
          0.0127981 0.0127978 0.0127976 0.0127974 0.0127973 0.0127969 0.0127807 0.0120887 0.0127981 0.012798 0.012798 0.0127979
          0.0127977 0.0127969 0.012774 0.0120802 0.0127981 0.0127976 0.0127968 0.0127955 0.0127942 0.0127924 0.0127747 0.0120812
          0.0127981 0.0127891 0.0127791 0.0127656 0.0127551 0.0127453 0.0127276 0.0119784 0.0127981 0.0126677 0.0125701 0.0124765
          0.0124268 0.0123955 0.012367 0.0113245 0.0127981 0.00998372 0.00901533 0.00850097 0.00855194 0.00910858 0.00743801 0.00581899
        </DataArray>
        <DataArray type="Float32" Name="X_gas^H2O" NumberOfComponents="1" format="ascii">
          0.008 0.00641069 0.008 0.00793872 0.00911203 0.00795314 0.0107373 0.00800533 0.0108612 0.00803711 0.011026 0.00807159
          0.00901044 0.00807501 0.00632761 0.00738757 0.008 0.00799636 0.00799549 0.00799597 0.00799736 0.0079996 0.00799494 0.00754099
          0.008 0.00799985 0.00799973 0.0079996 0.00799954 0.0079993 0.00798911 0.00755455 0.008 0.00799998 0.00799995 0.00799989
          0.0079998 0.00799929 0.00798487 0.00754924 0.008 0.00799971 0.00799923 0.00799842 0.00799759 0.00799644 0.00798535 0.00754983
          0.008 0.00799434 0.00798808 0.0079796 0.00797299 0.00796686 0.00795572 0.00748533 0.008 0.00791811 0.00785683 0.00779803
          0.00776683 0.00774718 0.00772927 0.00707492 0.008 0.00623411 0.00562735 0.00530525 0.00533717 0.00568576 0.00464001 0.0036278
        </DataArray>
        <DataArray type="Float32" Name="x_gas^Air" NumberOfComponents="1" format="ascii">
          0.987202 0.989735 0.987202 0.9873 0.985433 0.987277 0.982851 0.987193 0.982655 0.987143 0.982393 0.987088
          0.985594 0.987083 0.989867 0.988177 0.987202 0.987208 0.987209 0.987208 0.987206 0.987203 0.98721 0.987933
          0.987202 0.987202 0.987202 0.987203 0.987203 0.987203 0.987219 0.987911 0.987202 0.987202 0.987202 0.987202
          0.987202 0.987203 0.987226 0.98792 0.987202 0.987202 0.987203 0.987204 0.987206 0.987208 0.987225 0.987919
          0.987202 0.987211 0.987221 0.987234 0.987245 0.987255 0.987272 0.988022 0.987202 0.987332 0.98743 0.987523
          0.987573 0.987604 0.987633 0.988676 0.987202 0.990016 0.990985 0.991499 0.991448 0.990891 0.992562 0.994181
        </DataArray>
        <DataArray type="Float32" Name="X_gas^Air" NumberOfComponents="1" format="ascii">
          0.992 0.993589 0.992 0.992061 0.990888 0.992047 0.989263 0.991995 0.989139 0.991963 0.988974 0.991928
          0.99099 0.991925 0.993672 0.992612 0.992 0.992004 0.992005 0.992004 0.992003 0.992 0.992005 0.992459
          0.992 0.992 0.992 0.992 0.992 0.992001 0.992011 0.992445 0.992 0.992 0.992 0.992
          0.992 0.992001 0.992015 0.992451 0.992 0.992 0.992001 0.992002 0.992002 0.992004 0.992015 0.99245
          0.992 0.992006 0.992012 0.99202 0.992027 0.992033 0.992044 0.992515 0.992 0.992082 0.992143 0.992202
          0.992233 0.992253 0.992271 0.992925 0.992 0.993766 0.994373 0.994695 0.994663 0.994314 0.99536 0.996372
        </DataArray>
        <DataArray type="Float32" Name="rho" NumberOfComponents="1" format="ascii">
          1.16279 1.16359 1.16278 1.16252 1.18838 1.16282 1.20054 1.16286 1.19988 1.16309 1.19866 1.163
          1.16194 1.1631 1.19282 1.17167 1.16282 1.16246 1.16274 1.16252 1.16271 1.16256 1.16267 1.16838
          1.16281 1.16245 1.16276 1.1625 1.1627 1.16254 1.16266 1.16813 1.16281 1.16245 1.16275 1.1625
          1.1627 1.16254 1.16267 1.16815 1.16281 1.16245 1.16276 1.1625 1.1627 1.16254 1.16267 1.16814
          1.16282 1.16246 1.16276 1.16251 1.16272 1.16257 1.16268 1.1686 1.16278 1.16253 1.16284 1.16264
          1.16286 1.16272 1.16284 1.1713 1.16278 1.16371 1.16441 1.1644 1.16457 1.16417 1.16501 1.1932
        </DataArray>
        <DataArray type="Float32" Name="mu" NumberOfComponents="1" format="ascii">
          1.81222e-05 1.81453e-05 1.81222e-05 1.81231e-05 1.7791e-05 1.81224e-05 1.76107e-05 1.81178e-05 1.76175e-05 1.81166e-05 1.76263e-05 1.81151e-05
          1.81076e-05 1.8115e-05 1.78008e-05 1.80267e-05 1.81222e-05 1.81223e-05 1.81223e-05 1.81222e-05 1.81222e-05 1.81221e-05 1.81221e-05 1.80628e-05
          1.81222e-05 1.81222e-05 1.81222e-05 1.81222e-05 1.81222e-05 1.81222e-05 1.81224e-05 1.80654e-05 1.81222e-05 1.81222e-05 1.81222e-05 1.81222e-05
          1.81222e-05 1.81222e-05 1.81224e-05 1.80653e-05 1.81222e-05 1.81222e-05 1.81222e-05 1.81223e-05 1.81223e-05 1.81223e-05 1.81224e-05 1.80654e-05
          1.81222e-05 1.81223e-05 1.81224e-05 1.81225e-05 1.81226e-05 1.81227e-05 1.81229e-05 1.80614e-05 1.81222e-05 1.81234e-05 1.81243e-05 1.81252e-05
          1.81257e-05 1.81259e-05 1.81262e-05 1.80383e-05 1.81222e-05 1.81478e-05 1.81566e-05 1.81613e-05 1.81608e-05 1.81558e-05 1.8171e-05 1.78579e-05
        </DataArray>
        <DataArray type="Float32" Name="D" NumberOfComponents="1" format="ascii">
          2.49325e-05 2.49393e-05 2.49326e-05 2.49391e-05 2.39445e-05 2.49319e-05 2.3465e-05 2.49246e-05 2.34878e-05 2.49182e-05 2.35245e-05 2.49183e-05
          2.49354e-05 2.4916e-05 2.38541e-05 2.46062e-05 2.49318e-05 2.49396e-05 2.49335e-05 2.49382e-05 2.49341e-05 2.49372e-05 2.49349e-05 2.47272e-05
          2.4932e-05 2.49396e-05 2.49332e-05 2.49387e-05 2.49343e-05 2.49377e-05 2.49352e-05 2.4736e-05 2.49321e-05 2.49397e-05 2.49332e-05 2.49386e-05
          2.49343e-05 2.49377e-05 2.49352e-05 2.47354e-05 2.4932e-05 2.49396e-05 2.49332e-05 2.49387e-05 2.49343e-05 2.49377e-05 2.49352e-05 2.47358e-05
          2.49318e-05 2.49396e-05 2.49333e-05 2.49386e-05 2.49344e-05 2.49377e-05 2.49354e-05 2.47202e-05 2.49326e-05 2.49393e-05 2.49335e-05 2.49387e-05
          2.49346e-05 2.49379e-05 2.49355e-05 2.46287e-05 2.49326e-05 2.49393e-05 2.49334e-05 2.49386e-05 2.49344e-05 2.49377e-05 2.49355e-05 2.39106e-05
        </DataArray>
        <DataArray type="Float32" Name="lambda" NumberOfComponents="1" format="ascii">
          0 0 0 0 0 0 0 0 0 0 0 0
          0 0 0 0 0 0 0 0 0 0 0 0
          0 0 0 0 0 0 0 0 0 0 0 0
          0 0 0 0 0 0 0 0 0 0 0 0
          0 0 0 0 0 0 0 0 0 0 0 0
          0 0 0 0 0 0 0 0 0 0 0 0
        </DataArray>
        <DataArray type="Float32" Name="temperature" NumberOfComponents="1" format="ascii">
          298.15 298.15 298.15 298.149 291.518 298.14 288.232 298.057 288.412 298.042 288.643 298.021
          298.15 298.021 290.888 295.948 298.15 298.15 298.15 298.148 298.148 298.147 298.147 296.755
          298.15 298.15 298.15 298.15 298.15 298.15 298.149 296.814 298.15 298.15 298.15 298.15
          298.15 298.15 298.149 296.81 298.15 298.15 298.15 298.15 298.15 298.15 298.149 296.812
          298.15 298.15 298.15 298.15 298.15 298.15 298.15 296.708 298.15 298.15 298.15 298.151
          298.151 298.151 298.15 296.098 298.15 298.15 298.15 298.15 298.15 298.15 298.15 291.27
        </DataArray>
        <DataArray type="Float32" Name="v" NumberOfComponents="3" format="ascii">
          0 0 0 0 0 0 3.5 0 0 3.71186 0.134917 0
          -0.00881506 -0.00477544 0 3.15763 -0.102482 0 0.457325 0.007804 0 3.54611 0.0340273 0
          -0.0463165 -0.00621167 0 3.00942 -0.0107146 0 0.481562 0.00387028 0 3.46593 0.00676758 0
          0 0 0 2.94966 -0.0348824 0 1.42325 -0.0157782 0 3.39995 -0.051351 0
          3.5 0 0 4.14566 0.118082 0 3.65518 0.0131766 0 4.05161 0.0621929 0
          3.64544 0.0109064 0 4.03657 0.0275828 0 3.61726 -0.0207583 0 3.98511 -0.0304692 0
          3.5 0 0 4.04139 0.048209 0 3.61292 -0.0286116 0 4.10066 0.0298473 0
          3.68652 -0.00138715 0 4.12904 0.0188125 0 3.71514 -0.00667814 0 4.10585 -0.0112548 0
          3.5 0 0 4.01777 -0.00525944 0 3.5756 -0.00309604 0 4.04829 -0.00490376 0
          3.643 -0.00378013 0 4.08337 -3.20302e-05 0 3.67489 0.00479196 0 4.07276 0.00520379 0
          3.5 0 0 4.04234 -0.0643564 0 3.62507 -0.0523168 0 4.11135 -0.0550913 0
          3.70081 -0.0292994 0 4.14314 -0.020989 0 3.72572 0.0145131 0 4.10934 0.0197019 0
          3.5 0 0 4.07344 -0.133882 0 3.63522 -0.0369332 0 4.06249 -0.0694053 0
          3.61398 -0.0197082 0 4.02474 -0.0248173 0 3.57513 0.0413184 0 3.93698 0.0524368 0
          3.5 0 0 3.66584 -0.128329 0 3.11112 -0.0329052 0 3.48188 -0.0414772 0
          2.91196 -0.00998795 0 3.39596 -0.00818604 0 2.86553 0.0615888 0 3.33484 0.0763957 0
          0 0 0 0 0 0 0 0 0 0 0 0
          0 0 0 0 0 0 0 0 0 1.44883 0.00934469 0
        </DataArray>
      </PointData>
      <CellData Scalars="mu_t">
        <DataArray type="Float32" Name="mu_t" NumberOfComponents="1" format="ascii">
          0.00169238 0.00160078 0.00142245 0.00139456 0.00135912 0.00129885 0.000984555 0.00131391 0.0028144 0.00301685 0.00343119 0.00362173
          0.00370131 0.00368279 0.000925913 0.00130103 0.000230786 0.000800106 0.00118552 0.00168951 0.00194314 0.000439808 0.00113473 0.00167002
          0.00178525 0.00166049 0.0015997 0.00136868 0.000457455 0.00137853 0.00209524 0.00225052 0.00218934 0.00205926 0.0016311 0.000276167
          0.000366268 0.000343658 0.00120453 0.00182182 0.00238768 0.00286961 0.00123398 0.00280784 0.00332312 0.00384739 0.00398795 0.0040085
          0.00383902 0.00167696 0.00154699 0.00148739 0.00142118 0.00139375 0.00138006 0.000932048
        </DataArray>
        <DataArray type="Float32" Name="nu_t" NumberOfComponents="1" format="ascii">
          0.00145539 0.00137136 0.00121167 0.00118577 0.00115592 0.00111096 0.000841062 0.00113013 0.00242072 0.00259464 0.00295087 0.00311463
          0.00318308 0.00315765 0.000796407 0.00111907 0.000198505 0.000688202 0.00101969 0.0014532 0.00166723 0.000378294 0.000976026 0.00143643
          0.00153557 0.00142823 0.00137596 0.00117446 0.000393473 0.00118572 0.00180217 0.00193576 0.00188311 0.00177125 0.00139966 0.00023754
          0.000315043 0.000295592 0.00103606 0.00156698 0.00205372 0.00246205 0.00106137 0.00241505 0.00285815 0.00330908 0.00342989 0.00344761
          0.00329184 0.00144209 0.00132998 0.00127857 0.00122162 0.00119806 0.00118622 0.000795937
        </DataArray>
        <DataArray type="Float32" Name="l_mix" NumberOfComponents="1" format="ascii">
          0.00222116 0.00220639 0.00217257 0.0021682 0.00215844 0.00213307 0.00202776 0.0108205 0.0108088 0.0107808 0.010777 0.0107683
          0.0107449 0.0106316 0.0228576 0.0228568 0.0228546 0.0228542 0.0228535 0.0228513 0.022838 0.0406056 0.0406056 0.0406056
          0.0406056 0.0406056 0.0406056 0.0406054 0.0406057 0.0406057 0.0406057 0.0406057 0.0406057 0.0406057 0.0406054 0.0228577
          0.0228558 0.0228548 0.0228534 0.0228529 0.0228526 0.0228346 0.0108181 0.0107934 0.0107817 0.010766 0.01076 0.010757
          0.0106065 0.00221786 0.00218753 0.00217365 0.00215611 0.00214931 0.0021461 0.00200708
        </DataArray>
        <DataArray type="Float32" Name="u^+" NumberOfComponents="1" format="ascii">
          29.8305 29.3567 32.5861 32.1707 32.1698 31.9246 39.4856 61.452 62.7783 65.6493 65.8186 65.9007
          65.1153 70.6977 62.8126 66.1416 70.2501 71.5067 72.1389 71.7257 78.1434 62.2846 65.2547 69.8729
          71.48 72.3455 72.2089 78.8811 62.4869 65.1299 66.4052 68.1311 68.8618 69.3102 80.3276 62.7176
          65.6221 66.7252 68.0649 68.4747 68.6066 79.1116 61.1576 61.8178 61.7826 61.8263 61.6787 61.4728
          70.6973 29.7343 28.9189 28.5033 28.0925 27.8949 27.7666 39.5437
        </DataArray>
        <DataArray type="Float32" Name="y^+" NumberOfComponents="1" format="ascii">
          29.8213 29.4101 28.4902 28.3739 28.1168 27.4615 24.9312 104.375 102.936 99.7162 99.309 98.4094
          96.1158 87.2596 216.207 213.225 206.556 205.713 203.849 199.098 180.753 383.956 378.661 366.818
          365.32 362.011 353.574 320.995 382.737 372.008 367.198 361.243 358.955 357.914 314.951 215.522
          209.48 206.772 203.418 202.13 201.544 177.351 104.045 101.128 99.8209 98.202 97.5801 97.297
          85.6178 29.7271 28.8938 28.5202 28.0577 27.88 27.7991 24.4622
        </DataArray>
        <DataArray type="Float32" Name="D_t" NumberOfComponents="1" format="ascii">
          0.000239464 0.000227814 0.00023432 0.0002284 0.000226358 0.00022555 0.000247925 0.00154002 0.00152341 0.00149692 0.00148134 0.00147184
          0.00146292 0.00145084 0.00325486 0.00331198 0.0033058 0.00332018 0.0033234 0.00332397 0.0033082 0.00573277 0.00580408 0.0058379
          0.0058915 0.00591574 0.00593882 0.00592611 0.00573314 0.00580891 0.00584632 0.00590072 0.00592621 0.00594792 0.00593131 0.00324022
          0.00329593 0.00330904 0.00332154 0.00332084 0.00331838 0.00329276 0.00152766 0.00150432 0.0014851 0.00146328 0.00145075 0.00144197
          0.00142641 0.000237931 0.000224934 0.000218783 0.000212123 0.000209249 0.000207696 0.000243623
        </DataArray>
        <DataArray type="Float32" Name="lambda_t" NumberOfComponents="1" format="ascii">
          0.00681025 0.00665995 0.00762393 0.00773824 0.0077312 0.00738888 0.00710526 0.0454961 0.0449398 0.0442443 0.0438901 0.0436966
          0.0434733 0.0417636 0.0963239 0.0979984 0.0978158 0.0982441 0.0983505 0.0983272 0.0953984 0.169672 0.171777 0.17278
          0.174361 0.175077 0.175624 0.170872 0.169682 0.171917 0.173021 0.174618 0.175362 0.17586 0.170979 0.0958847
          0.0974957 0.0978399 0.0981602 0.0980994 0.09794 0.0946664 0.0451019 0.0442189 0.0434864 0.0427191 0.0422756 0.0419516
          0.040152 0.00673274 0.00596719 0.00563497 0.00540113 0.00537175 0.00522539 0.00557824
        </DataArray>
      </CellData>
      <Points>
        <DataArray type="Float32" Name="Coordinates" NumberOfComponents="3" format="ascii">
          0 0.25 0 0.05 0.25 0 0 0.265384 0 0.05 0.265384 0
          0.1 0.25 0 0.1 0.265384 0 0.15 0.25 0 0.15 0.265384 0
          0.2 0.25 0 0.2 0.265384 0 0.25 0.25 0 0.25 0.265384 0
          0.3 0.25 0 0.3 0.265384 0 0.35 0.25 0 0.35 0.265384 0
          0 0.288461 0 0.05 0.288461 0 0.1 0.288461 0 0.15 0.288461 0
          0.2 0.288461 0 0.25 0.288461 0 0.3 0.288461 0 0.35 0.288461 0
          0 0.323076 0 0.05 0.323076 0 0.1 0.323076 0 0.15 0.323076 0
          0.2 0.323076 0 0.25 0.323076 0 0.3 0.323076 0 0.35 0.323076 0
          0 0.375 0 0.05 0.375 0 0.1 0.375 0 0.15 0.375 0
          0.2 0.375 0 0.25 0.375 0 0.3 0.375 0 0.35 0.375 0
          0 0.426923 0 0.05 0.426923 0 0.1 0.426923 0 0.15 0.426923 0
          0.2 0.426923 0 0.25 0.426923 0 0.3 0.426923 0 0.35 0.426923 0
          0 0.461538 0 0.05 0.461538 0 0.1 0.461538 0 0.15 0.461538 0
          0.2 0.461538 0 0.25 0.461538 0 0.3 0.461538 0 0.35 0.461538 0
          0 0.484615 0 0.05 0.484615 0 0.1 0.484615 0 0.15 0.484615 0
          0.2 0.484615 0 0.25 0.484615 0 0.3 0.484615 0 0.35 0.484615 0
          0 0.5 0 0.05 0.5 0 0.1 0.5 0 0.15 0.5 0
          0.2 0.5 0 0.25 0.5 0 0.3 0.5 0 0.35 0.5 0
        </DataArray>
      </Points>
      <Cells>
        <DataArray type="Int32" Name="connectivity" NumberOfComponents="1" format="ascii">
          0 1 3 2 1 4 5 3 4 6 7 5
          6 8 9 7 8 10 11 9 10 12 13 11
          12 14 15 13 2 3 17 16 3 5 18 17
          5 7 19 18 7 9 20 19 9 11 21 20
          11 13 22 21 13 15 23 22 16 17 25 24
          17 18 26 25 18 19 27 26 19 20 28 27
          20 21 29 28 21 22 30 29 22 23 31 30
          24 25 33 32 25 26 34 33 26 27 35 34
          27 28 36 35 28 29 37 36 29 30 38 37
          30 31 39 38 32 33 41 40 33 34 42 41
          34 35 43 42 35 36 44 43 36 37 45 44
          37 38 46 45 38 39 47 46 40 41 49 48
          41 42 50 49 42 43 51 50 43 44 52 51
          44 45 53 52 45 46 54 53 46 47 55 54
          48 49 57 56 49 50 58 57 50 51 59 58
          51 52 60 59 52 53 61 60 53 54 62 61
          54 55 63 62 56 57 65 64 57 58 66 65
          58 59 67 66 59 60 68 67 60 61 69 68
          61 62 70 69 62 63 71 70
        </DataArray>
        <DataArray type="Int32" Name="offsets" NumberOfComponents="1" format="ascii">
          4 8 12 16 20 24 28 32 36 40 44 48
          52 56 60 64 68 72 76 80 84 88 92 96
          100 104 108 112 116 120 124 128 132 136 140 144
          148 152 156 160 164 168 172 176 180 184 188 192
          196 200 204 208 212 216 220 224
        </DataArray>
        <DataArray type="UInt8" Name="types" NumberOfComponents="1" format="ascii">
          9 9 9 9 9 9 9 9 9 9 9 9
          9 9 9 9 9 9 9 9 9 9 9 9
          9 9 9 9 9 9 9 9 9 9 9 9
          9 9 9 9 9 9 9 9 9 9 9 9
          9 9 9 9 9 9 9 9
        </DataArray>
      </Cells>
    </Piece>
  </UnstructuredGrid>
</VTKFile>
