<?xml version="1.0"?>
<VTKFile type="UnstructuredGrid" version="0.1" byte_order="LittleEndian">
  <UnstructuredGrid>
    <Piece NumberOfCells="56" NumberOfPoints="72">
      <PointData Scalars="P" Vectors="v">
        <DataArray type="Float32" Name="P" NumberOfComponents="1" format="ascii">
          100017 99990 100017 99989.8 100012 100013 99994 99992.8 100009 100009 99996.7 99996.4
          100005 100005 100000 100000 100020 99988.6 100013 99993.2 100009 99996.5 100005 100000
          100019 99988.5 100014 99992.2 100010 99996.1 100006 100000 100019 99988.2 100014 99992.4
          100010 99996.2 100006 100000 100019 99988.5 100014 99992.2 100010 99996.1 100006 100000
          100020 99988.7 100014 99992.5 100010 99996.2 100005 100000 100017 99989.9 100013 99992.7
          100009 99996.3 100005 100000 100017 99989.9 100013 99992.7 100009 99996.2 100005 100000
        </DataArray>
        <DataArray type="Float32" Name="delP" NumberOfComponents="1" format="ascii">
          17.0467 -10.0397 16.8537 -10.2327 11.8443 13.4284 -5.98681 -7.20216 8.97484 9.37825 -3.3209 -3.63852
          5.29833 5.33864 0 0 19.9321 -11.3528 13.1191 -6.74983 9.30115 -3.45531 5.4035 0
          19.0005 -11.5424 14.4266 -7.80544 9.86656 -3.91204 5.70637 0 18.7398 -11.7976 14.1427 -7.61334
          9.83489 -3.81043 5.73153 0 19.0704 -11.4862 14.3739 -7.78189 9.84946 -3.94894 5.65047 0
          19.7463 -11.2912 13.9264 -7.49293 9.54443 -3.78379 5.35387 0 16.8569 -10.0752 13.3794 -7.31802
          9.39906 -3.74291 5.17655 0 16.8219 -10.1103 13.3706 -7.3301 9.39729 -3.74685 5.20359 0
        </DataArray>
        <DataArray type="Float32" Name="x_gas^H2O" NumberOfComponents="1" format="ascii">
          0.0127981 0.0102656 0.0127981 0.0127005 0.0145672 0.0127235 0.0171488 0.0128066 0.0173453 0.0128572 0.0176068 0.012912
          0.0144058 0.0129175 0.010133 0.0118227 0.0127981 0.0127923 0.0127909 0.0127917 0.0127939 0.0127974 0.01279 0.0120671
          0.0127981 0.0127978 0.0127976 0.0127974 0.0127973 0.0127969 0.0127807 0.0120887 0.0127981 0.012798 0.012798 0.0127979
          0.0127977 0.0127969 0.012774 0.0120802 0.0127981 0.0127976 0.0127968 0.0127955 0.0127942 0.0127924 0.0127747 0.0120812
          0.0127981 0.0127891 0.0127791 0.0127656 0.0127551 0.0127453 0.0127276 0.0119784 0.0127981 0.0126677 0.0125701 0.0124765
          0.0124268 0.0123955 0.012367 0.0113245 0.0127981 0.00998381 0.00901547 0.00850085 0.00855155 0.00910906 0.00743838 0.00581931
        </DataArray>
        <DataArray type="Float32" Name="X_gas^H2O" NumberOfComponents="1" format="ascii">
          0.008 0.0064108 0.008 0.00793873 0.009112 0.00795314 0.0107373 0.00800534 0.0108612 0.00803712 0.011026 0.00807159
          0.00901047 0.00807502 0.00632765 0.00738758 0.008 0.00799636 0.00799549 0.00799597 0.00799736 0.0079996 0.00799494 0.00754098
          0.008 0.00799985 0.00799973 0.0079996 0.00799954 0.0079993 0.00798911 0.00755456 0.008 0.00799998 0.00799995 0.00799989
          0.0079998 0.00799929 0.00798487 0.00754924 0.008 0.00799971 0.00799923 0.00799842 0.00799759 0.00799644 0.00798535 0.00754983
          0.008 0.00799434 0.00798808 0.0079796 0.00797299 0.00796686 0.00795572 0.0074853 0.008 0.00791812 0.00785684 0.00779803
          0.00776682 0.00774718 0.00772928 0.00707491 0.008 0.00623416 0.00562743 0.00530518 0.00533692 0.00568606 0.00464025 0.003628
        </DataArray>
        <DataArray type="Float32" Name="x_gas^Air" NumberOfComponents="1" format="ascii">
          0.987202 0.989734 0.987202 0.9873 0.985433 0.987277 0.982851 0.987193 0.982655 0.987143 0.982393 0.987088
          0.985594 0.987082 0.989867 0.988177 0.987202 0.987208 0.987209 0.987208 0.987206 0.987203 0.98721 0.987933
          0.987202 0.987202 0.987202 0.987203 0.987203 0.987203 0.987219 0.987911 0.987202 0.987202 0.987202 0.987202
          0.987202 0.987203 0.987226 0.98792 0.987202 0.987202 0.987203 0.987204 0.987206 0.987208 0.987225 0.987919
          0.987202 0.987211 0.987221 0.987234 0.987245 0.987255 0.987272 0.988022 0.987202 0.987332 0.98743 0.987523
          0.987573 0.987604 0.987633 0.988676 0.987202 0.990016 0.990985 0.991499 0.991448 0.990891 0.992562 0.994181
        </DataArray>
        <DataArray type="Float32" Name="X_gas^Air" NumberOfComponents="1" format="ascii">
          0.992 0.993589 0.992 0.992061 0.990888 0.992047 0.989263 0.991995 0.989139 0.991963 0.988974 0.991928
          0.99099 0.991925 0.993672 0.992612 0.992 0.992004 0.992005 0.992004 0.992003 0.992 0.992005 0.992459
          0.992 0.992 0.992 0.992 0.992 0.992001 0.992011 0.992445 0.992 0.992 0.992 0.992
          0.992 0.992001 0.992015 0.992451 0.992 0.992 0.992001 0.992002 0.992002 0.992004 0.992015 0.99245
          0.992 0.992006 0.992012 0.99202 0.992027 0.992033 0.992044 0.992515 0.992 0.992082 0.992143 0.992202
          0.992233 0.992253 0.992271 0.992925 0.992 0.993766 0.994373 0.994695 0.994663 0.994314 0.99536 0.996372
        </DataArray>
        <DataArray type="Float32" Name="rho" NumberOfComponents="1" format="ascii">
          1.16279 1.16359 1.16278 1.16252 1.18838 1.16282 1.20054 1.16286 1.19988 1.16309 1.19866 1.163
          1.16194 1.1631 1.19282 1.17167 1.16282 1.16246 1.16274 1.16252 1.16271 1.16256 1.16267 1.16838
          1.16281 1.16245 1.16276 1.1625 1.1627 1.16254 1.16266 1.16813 1.16281 1.16245 1.16275 1.1625
          1.1627 1.16254 1.16267 1.16815 1.16281 1.16245 1.16276 1.1625 1.1627 1.16254 1.16267 1.16814
          1.16282 1.16246 1.16276 1.16251 1.16272 1.16257 1.16268 1.1686 1.16278 1.16253 1.16284 1.16264
          1.16286 1.16272 1.16284 1.1713 1.16278 1.16371 1.16441 1.1644 1.16457 1.16417 1.16501 1.1932
        </DataArray>
        <DataArray type="Float32" Name="mu" NumberOfComponents="1" format="ascii">
          1.81222e-05 1.81453e-05 1.81222e-05 1.81231e-05 1.77911e-05 1.81224e-05 1.76107e-05 1.81178e-05 1.76175e-05 1.81166e-05 1.76263e-05 1.81151e-05
          1.81076e-05 1.8115e-05 1.78008e-05 1.80267e-05 1.81222e-05 1.81223e-05 1.81223e-05 1.81222e-05 1.81222e-05 1.81221e-05 1.81221e-05 1.80628e-05
          1.81222e-05 1.81222e-05 1.81222e-05 1.81222e-05 1.81222e-05 1.81222e-05 1.81224e-05 1.80654e-05 1.81222e-05 1.81222e-05 1.81222e-05 1.81222e-05
          1.81222e-05 1.81222e-05 1.81224e-05 1.80653e-05 1.81222e-05 1.81222e-05 1.81222e-05 1.81223e-05 1.81223e-05 1.81223e-05 1.81224e-05 1.80654e-05
          1.81222e-05 1.81223e-05 1.81224e-05 1.81225e-05 1.81226e-05 1.81227e-05 1.81229e-05 1.80614e-05 1.81222e-05 1.81234e-05 1.81243e-05 1.81252e-05
          1.81257e-05 1.81259e-05 1.81262e-05 1.80383e-05 1.81222e-05 1.81478e-05 1.81566e-05 1.81613e-05 1.81608e-05 1.81558e-05 1.8171e-05 1.78579e-05
        </DataArray>
        <DataArray type="Float32" Name="D" NumberOfComponents="1" format="ascii">
          2.49325e-05 2.49393e-05 2.49326e-05 2.49391e-05 2.39445e-05 2.49319e-05 2.3465e-05 2.49246e-05 2.34878e-05 2.49182e-05 2.35245e-05 2.49183e-05
          2.49354e-05 2.4916e-05 2.38542e-05 2.46062e-05 2.49318e-05 2.49396e-05 2.49335e-05 2.49382e-05 2.49341e-05 2.49372e-05 2.49349e-05 2.47272e-05
          2.4932e-05 2.49396e-05 2.49332e-05 2.49387e-05 2.49343e-05 2.49377e-05 2.49352e-05 2.4736e-05 2.49321e-05 2.49397e-05 2.49332e-05 2.49386e-05
          2.49343e-05 2.49377e-05 2.49352e-05 2.47354e-05 2.4932e-05 2.49396e-05 2.49332e-05 2.49387e-05 2.49343e-05 2.49377e-05 2.49352e-05 2.47358e-05
          2.49318e-05 2.49396e-05 2.49333e-05 2.49386e-05 2.49344e-05 2.49377e-05 2.49354e-05 2.47201e-05 2.49326e-05 2.49393e-05 2.49335e-05 2.49387e-05
          2.49346e-05 2.49379e-05 2.49355e-05 2.46287e-05 2.49326e-05 2.49393e-05 2.49334e-05 2.49386e-05 2.49344e-05 2.49377e-05 2.49355e-05 2.39106e-05
        </DataArray>
        <DataArray type="Float32" Name="lambda" NumberOfComponents="1" format="ascii">
          0 0 0 0 0 0 0 0 0 0 0 0
          0 0 0 0 0 0 0 0 0 0 0 0
          0 0 0 0 0 0 0 0 0 0 0 0
          0 0 0 0 0 0 0 0 0 0 0 0
          0 0 0 0 0 0 0 0 0 0 0 0
          0 0 0 0 0 0 0 0 0 0 0 0
        </DataArray>
        <DataArray type="Float32" Name="temperature" NumberOfComponents="1" format="ascii">
          298.15 298.15 298.15 298.149 291.519 298.14 288.232 298.057 288.412 298.042 288.643 298.021
          298.15 298.021 290.888 295.948 298.15 298.15 298.15 298.148 298.148 298.147 298.147 296.755
          298.15 298.15 298.15 298.15 298.15 298.15 298.149 296.814 298.15 298.15 298.15 298.15
          298.15 298.15 298.149 296.81 298.15 298.15 298.15 298.15 298.15 298.15 298.149 296.812
          298.15 298.15 298.15 298.15 298.15 298.15 298.15 296.708 298.15 298.15 298.15 298.151
          298.151 298.151 298.15 296.098 298.15 298.15 298.15 298.15 298.15 298.15 298.15 291.271
        </DataArray>
        <DataArray type="Float32" Name="v" NumberOfComponents="3" format="ascii">
          0 0 0 0 0 0 3.5 0 0 3.71187 0.13491 0
          -0.00881041 -0.00477548 0 3.15764 -0.102483 0 0.457331 0.00780409 0 3.54611 0.0340292 0
          -0.0463212 -0.00621173 0 3.00943 -0.0107157 0 0.481574 0.0038703 0 3.46593 0.00676628 0
          0 0 0 2.94966 -0.034879 0 1.42324 -0.0157789 0 3.39995 -0.0513545 0
          3.5 0 0 4.14565 0.118081 0 3.65517 0.0131766 0 4.05161 0.0621949 0
          3.64544 0.0109062 0 4.03656 0.0275819 0 3.61725 -0.0207558 0 3.9851 -0.0304665 0
          3.5 0 0 4.0414 0.048206 0 3.61292 -0.028613 0 4.10066 0.0298466 0
          3.68652 -0.00138934 0 4.12904 0.0188141 0 3.71515 -0.00667669 0 4.10586 -0.0112536 0
          3.5 0 0 4.01776 -0.00525911 0 3.57559 -0.00309624 0 4.04828 -0.00490363 0
          3.643 -0.00377918 0 4.08336 -3.36669e-05 0 3.67488 0.00479114 0 4.07276 0.00520319 0
          3.5 0 0 4.04234 -0.0643549 0 3.62507 -0.0523174 0 4.11136 -0.0550935 0
          3.70081 -0.0293057 0 4.14314 -0.0209782 0 3.72572 0.01451 0 4.10934 0.0196964 0
          3.5 0 0 4.07343 -0.133882 0 3.63521 -0.0369339 0 4.06248 -0.0694081 0
          3.61399 -0.0197066 0 4.02474 -0.0248162 0 3.57511 0.0413153 0 3.93697 0.0524339 0
          3.5 0 0 3.66584 -0.128325 0 3.11113 -0.0329013 0 3.48188 -0.0414869 0
          2.91196 -0.0100036 0 3.39596 -0.00815536 0 2.86553 0.0615856 0 3.33483 0.0764084 0
          0 0 0 0 0 0 0 0 0 0 0 0
          0 0 0 0 0 0 0 0 0 1.44883 0.00935181 0
        </DataArray>
      </PointData>
      <CellData Scalars="mu_t">
        <DataArray type="Float32" Name="mu_t" NumberOfComponents="1" format="ascii">
          0.00169294 0.00160083 0.0014225 0.0013946 0.00135904 0.00129839 0.000984588 0.00131395 0.00281437 0.00301683 0.00343121 0.00362171
          0.00370108 0.00368282 0.000925857 0.00130089 0.000230877 0.000800262 0.00118564 0.00168972 0.00194338 0.000440015 0.00113508 0.00167042
          0.00178565 0.00166079 0.00160022 0.00136922 0.000457642 0.00137883 0.00209562 0.00225087 0.00218957 0.0020597 0.00163156 0.000276103
          0.000366134 0.000343869 0.00120461 0.00182176 0.00238793 0.00286999 0.00123398 0.00280778 0.00332304 0.00384739 0.00398834 0.00400783
          0.00383893 0.00167735 0.00154699 0.0014874 0.00142118 0.00139452 0.00137879 0.000932046
        </DataArray>
        <DataArray type="Float32" Name="nu_t" NumberOfComponents="1" format="ascii">
          0.00145587 0.0013714 0.0012117 0.00118581 0.00115585 0.00111057 0.000841091 0.00113016 0.00242069 0.00259462 0.00295088 0.0031146
          0.00318289 0.00315768 0.000796359 0.00111895 0.000198583 0.000688336 0.0010198 0.00145339 0.00166744 0.000378472 0.00097632 0.00143677
          0.00153591 0.00142849 0.00137641 0.00117492 0.000393634 0.00118598 0.00180249 0.00193606 0.0018833 0.00177162 0.00140005 0.000237485
          0.000314928 0.000295774 0.00103613 0.00156693 0.00205393 0.00246238 0.00106138 0.002415 0.00285808 0.00330908 0.00343022 0.00344703
          0.00329176 0.00144243 0.00132998 0.00127857 0.00122162 0.00119872 0.00118513 0.000795935
        </DataArray>
        <DataArray type="Float32" Name="l_mix" NumberOfComponents="1" format="ascii">
          0.00222152 0.00220644 0.00217263 0.00216825 0.0021584 0.00213276 0.00202781 0.0108209 0.010809 0.0107809 0.0107771 0.0107684
          0.0107447 0.0106318 0.0228579 0.022857 0.0228548 0.0228544 0.0228537 0.0228515 0.0228382 0.0406057 0.0406057 0.0406057
          0.0406057 0.0406057 0.0406057 0.0406055 0.0406057 0.0406057 0.0406057 0.0406057 0.0406057 0.0406057 0.0406054 0.0228577
          0.0228558 0.0228548 0.0228534 0.022853 0.0228526 0.0228346 0.0108183 0.0107934 0.0107817 0.010766 0.0107605 0.0107561
          0.0106065 0.0022181 0.00218754 0.00217365 0.00215611 0.00214984 0.00214522 0.00200708
        </DataArray>
        <DataArray type="Float32" Name="u^+" NumberOfComponents="1" format="ascii">
          29.8214 29.357 32.5865 32.1711 32.1727 31.9174 39.4859 61.4334 62.7788 65.6499 65.8192 65.9064
          65.1003 70.6983 62.7935 66.1421 70.2506 71.5073 72.1451 71.7091 78.144 62.2656 65.2552 69.8735
          71.4807 72.3517 72.1922 78.8817 62.4714 65.1298 66.4052 68.1311 68.8251 69.3712 80.3276 62.702
          65.6221 66.7251 68.065 68.4383 68.6669 79.1115 61.1424 61.8177 61.7826 61.8263 61.6458 61.5269
          70.6971 29.727 28.9189 28.5033 28.0925 27.8801 27.7911 39.5437
        </DataArray>
        <DataArray type="Float32" Name="y^+" NumberOfComponents="1" format="ascii">
          29.8308 29.4104 28.4905 28.3742 28.1147 27.4518 24.9315 104.408 102.936 99.7168 99.3097 98.4014
          96.0815 87.2602 216.273 213.225 206.556 205.713 203.831 199.026 180.753 384.071 378.658 366.815
          365.318 361.976 353.443 320.993 382.829 372.008 367.198 361.243 359.146 357.598 314.951 215.574
          209.48 206.772 203.418 202.238 201.366 177.351 104.07 101.128 99.8209 98.2019 97.6321 97.2112
          85.6178 29.7343 28.8938 28.5203 28.0577 27.8949 27.7746 24.4622
        </DataArray>
        <DataArray type="Float32" Name="D_t" NumberOfComponents="1" format="ascii">
          0.000239469 0.00022782 0.000234325 0.000228405 0.000226363 0.000225556 0.00024793 0.00154004 0.00152343 0.00149694 0.00148136 0.00147187
          0.00146294 0.00145087 0.00325489 0.00331201 0.00330583 0.00332021 0.00332343 0.003324 0.00330823 0.00573278 0.00580409 0.00583791
          0.00589151 0.00591575 0.00593883 0.00592613 0.00573313 0.00580891 0.00584632 0.00590071 0.00592621 0.00594792 0.0059313 0.00324022
          0.00329593 0.00330904 0.00332154 0.00332084 0.00331837 0.00329276 0.00152766 0.00150432 0.0014851 0.00146328 0.00145075 0.00144196
          0.00142641 0.000237932 0.000224934 0.000218783 0.000212123 0.000209249 0.000207696 0.000243623
        </DataArray>
        <DataArray type="Float32" Name="lambda_t" NumberOfComponents="1" format="ascii">
          0.00681041 0.00666011 0.00762411 0.00773842 0.00773138 0.00738906 0.00710542 0.0454968 0.0449405 0.0442451 0.0438909 0.0436974
          0.043474 0.0417643 0.0963248 0.0979992 0.0978167 0.098245 0.0983514 0.0983281 0.0953994 0.169673 0.171778 0.17278
          0.174361 0.175077 0.175624 0.170872 0.169682 0.171917 0.173021 0.174618 0.175362 0.17586 0.170979 0.0958847
          0.0974956 0.0978398 0.0981602 0.0980995 0.0979398 0.0946662 0.0451019 0.0442189 0.0434864 0.0427191 0.0422756 0.0419515
          0.0401518 0.00673275 0.00596722 0.00563498 0.00540107 0.00537175 0.00522547 0.00557831
        </DataArray>
      </CellData>
      <Points>
        <DataArray type="Float32" Name="Coordinates" NumberOfComponents="3" format="ascii">
          0 0.25 0 0.05 0.25 0 0 0.265385 0 0.05 0.265385 0
          0.1 0.25 0 0.1 0.265385 0 0.15 0.25 0 0.15 0.265385 0
          0.2 0.25 0 0.2 0.265385 0 0.25 0.25 0 0.25 0.265385 0
          0.3 0.25 0 0.3 0.265385 0 0.35 0.25 0 0.35 0.265385 0
          0 0.288462 0 0.05 0.288462 0 0.1 0.288462 0 0.15 0.288462 0
          0.2 0.288462 0 0.25 0.288462 0 0.3 0.288462 0 0.35 0.288462 0
          0 0.323077 0 0.05 0.323077 0 0.1 0.323077 0 0.15 0.323077 0
          0.2 0.323077 0 0.25 0.323077 0 0.3 0.323077 0 0.35 0.323077 0
          0 0.375 0 0.05 0.375 0 0.1 0.375 0 0.15 0.375 0
          0.2 0.375 0 0.25 0.375 0 0.3 0.375 0 0.35 0.375 0
          0 0.426923 0 0.05 0.426923 0 0.1 0.426923 0 0.15 0.426923 0
          0.2 0.426923 0 0.25 0.426923 0 0.3 0.426923 0 0.35 0.426923 0
          0 0.461538 0 0.05 0.461538 0 0.1 0.461538 0 0.15 0.461538 0
          0.2 0.461538 0 0.25 0.461538 0 0.3 0.461538 0 0.35 0.461538 0
          0 0.484615 0 0.05 0.484615 0 0.1 0.484615 0 0.15 0.484615 0
          0.2 0.484615 0 0.25 0.484615 0 0.3 0.484615 0 0.35 0.484615 0
          0 0.5 0 0.05 0.5 0 0.1 0.5 0 0.15 0.5 0
          0.2 0.5 0 0.25 0.5 0 0.3 0.5 0 0.35 0.5 0
        </DataArray>
      </Points>
      <Cells>
        <DataArray type="Int32" Name="connectivity" NumberOfComponents="1" format="ascii">
          0 1 3 2 1 4 5 3 4 6 7 5
          6 8 9 7 8 10 11 9 10 12 13 11
          12 14 15 13 2 3 17 16 3 5 18 17
          5 7 19 18 7 9 20 19 9 11 21 20
          11 13 22 21 13 15 23 22 16 17 25 24
          17 18 26 25 18 19 27 26 19 20 28 27
          20 21 29 28 21 22 30 29 22 23 31 30
          24 25 33 32 25 26 34 33 26 27 35 34
          27 28 36 35 28 29 37 36 29 30 38 37
          30 31 39 38 32 33 41 40 33 34 42 41
          34 35 43 42 35 36 44 43 36 37 45 44
          37 38 46 45 38 39 47 46 40 41 49 48
          41 42 50 49 42 43 51 50 43 44 52 51
          44 45 53 52 45 46 54 53 46 47 55 54
          48 49 57 56 49 50 58 57 50 51 59 58
          51 52 60 59 52 53 61 60 53 54 62 61
          54 55 63 62 56 57 65 64 57 58 66 65
          58 59 67 66 59 60 68 67 60 61 69 68
          61 62 70 69 62 63 71 70
        </DataArray>
        <DataArray type="Int32" Name="offsets" NumberOfComponents="1" format="ascii">
          4 8 12 16 20 24 28 32 36 40 44 48
          52 56 60 64 68 72 76 80 84 88 92 96
          100 104 108 112 116 120 124 128 132 136 140 144
          148 152 156 160 164 168 172 176 180 184 188 192
          196 200 204 208 212 216 220 224
        </DataArray>
        <DataArray type="UInt8" Name="types" NumberOfComponents="1" format="ascii">
          9 9 9 9 9 9 9 9 9 9 9 9
          9 9 9 9 9 9 9 9 9 9 9 9
          9 9 9 9 9 9 9 9 9 9 9 9
          9 9 9 9 9 9 9 9 9 9 9 9
          9 9 9 9 9 9 9 9
        </DataArray>
      </Cells>
    </Piece>
  </UnstructuredGrid>
</VTKFile>
