<?xml version="1.0"?>
<VTKFile type="UnstructuredGrid" version="0.1" byte_order="LittleEndian">
  <UnstructuredGrid>
    <Piece NumberOfCells="20" NumberOfPoints="30">
      <PointData Scalars="Sn" Vectors="velocityW">
        <DataArray type="Float32" Name="Sn" NumberOfComponents="1" format="ascii">
          0.0541977 0.0542085 0.845227 0.844958 0.0541975 0.844447 0.0541895 0.843815 0.0541931 0.843275 0.054193 0.843078
          0.930616 0.930456 0.92904 0.92762 0.926907 0.926574 0.956763 0.961334 0.953633 0.949439 0.948559 0.948067
          0.966191 1 0.976351 0.970396 0.969023 0.964189
        </DataArray>
        <DataArray type="Float32" Name="Sw" NumberOfComponents="1" format="ascii">
          0.945802 0.945791 0.154773 0.155042 0.945803 0.155553 0.94581 0.156185 0.945807 0.156725 0.945807 0.156922
          0.0693841 0.0695441 0.0709596 0.0723797 0.0730929 0.0734255 0.0432369 0.0386657 0.0463665 0.0505612 0.0514415 0.0519331
          0.0338085 0 0.0236488 0.0296042 0.030977 0.0358105
        </DataArray>
        <DataArray type="Float32" Name="pn" NumberOfComponents="1" format="ascii">
          100010 100010 100006 100006 100010 100005 100009 100004 100009 100004 100009 100004
          100006 100005 100004 100003 100003 100002 100007 100006 100002 100004 100001 100000
          100007 100011 99994.3 100009 99996.8 100000
        </DataArray>
        <DataArray type="Float32" Name="pw" NumberOfComponents="1" format="ascii">
          98920.4 98920.3 97983 97983.4 98920.1 97984 98919.9 97984.8 98919.6 97985.5 98919.5 97985.8
          97701.5 97701.8 97708.1 97714.6 97717.4 97718.7 97518.2 97470.8 97541.7 97578 97582 97585.3
          97412.9 96327.2 97231.7 97354.9 97363.6 97431.4
        </DataArray>
        <DataArray type="Float32" Name="pc" NumberOfComponents="1" format="ascii">
          1089.45 1089.49 2022.76 2022.18 1089.45 2021.07 1089.43 2019.7 1089.44 2018.53 1089.44 2018.11
          2304.47 2303.62 2296.15 2288.84 2285.23 2283.56 2488.95 2535.71 2460.41 2425.72 2418.89 2415.14
          2593.92 3684.13 2762.6 2654.02 2633.2 2568.68
        </DataArray>
        <DataArray type="Float32" Name="rhoW" NumberOfComponents="1" format="ascii">
          997.055 997.055 997.102 997.104 997.055 997.107 997.055 997.105 997.055 997.099 997.055 997.096
          997.296 997.332 997.379 997.384 997.325 997.279 997.624 997.868 998.115 998.189 997.963 997.631
          997.532 998.54 999.097 999.069 999.034 997.575
        </DataArray>
        <DataArray type="Float32" Name="rhoN" NumberOfComponents="1" format="ascii">
          1.15439 1.15439 1.15521 1.15524 1.15439 1.15529 1.15438 1.15526 1.15438 1.15514 1.15438 1.15508
          1.15886 1.15952 1.16042 1.16051 1.15936 1.15848 1.16526 1.17025 1.17549 1.17717 1.17218 1.16532
          1.16343 1.18837 1.20054 1.19988 1.19866 1.1642
        </DataArray>
        <DataArray type="Float32" Name="mobW" NumberOfComponents="1" format="ascii">
          1005.33 1005.3 4.5722 4.59563 1005.38 4.64089 1005.45 4.69864 1005.47 4.74946 1005.48 4.76851
          0.42331 0.424958 0.450045 0.47759 0.494643 0.503596 0.0957096 0.0652828 0.113345 0.147114 0.159339 0.169916
          0.0437514 0 0.0105595 0.0232485 0.0273839 0.0528141
        </DataArray>
        <DataArray type="Float32" Name="mobN" NumberOfComponents="1" format="ascii">
          108.774 108.829 42492.3 42468.2 108.772 42422.3 108.732 42364 108.75 42312.9 108.749 42294
          51010.3 51004.6 50858.4 50696 50592.1 50537.4 53929.7 54444.2 53851.6 53466.6 53267.8 53073.3
          54694.1 56208 56243.8 55851.9 55727.5 54554.6
        </DataArray>
        <DataArray type="Float32" Name="X_liquid^H2O" NumberOfComponents="1" format="ascii">
          0.999978 0.999978 0.999978 0.999978 0.999978 0.999978 0.999978 0.999978 0.999978 0.999978 0.999978 0.999978
          0.999978 0.999978 0.999978 0.999978 0.999978 0.999978 0.999978 0.999977 0.999977 0.999976 0.999977 0.999978
          0.999978 0.689459 0.999974 0.999974 0.999974 0.999978
        </DataArray>
        <DataArray type="Float32" Name="X_liquid^Air" NumberOfComponents="1" format="ascii">
          2.1549e-05 2.1549e-05 2.16179e-05 2.16209e-05 2.1549e-05 2.16252e-05 2.15489e-05 2.16226e-05 2.15489e-05 2.16137e-05 2.15488e-05 2.16086e-05
          2.19169e-05 2.19733e-05 2.20494e-05 2.20574e-05 2.19612e-05 2.18881e-05 2.24644e-05 2.29127e-05 2.34085e-05 2.35689e-05 2.30965e-05 2.24752e-05
          2.23046e-05 2.45567e-05 2.60979e-05 2.60025e-05 2.58725e-05 2.23767e-05
        </DataArray>
        <DataArray type="Float32" Name="X_gas^H2O" NumberOfComponents="1" format="ascii">
          0.0199549 0.0199549 0.0197349 0.0197254 0.019955 0.0197117 0.019955 0.0197196 0.0199551 0.0197473 0.0199551 0.0197631
          0.0188288 0.0186647 0.0184462 0.0184232 0.0186982 0.0189114 0.0173242 0.0162221 0.0151209 0.0147896 0.0157987 0.0172935
          0.0177441 0.00911193 0.0107373 0.0108612 0.011026 0.0175498
        </DataArray>
        <DataArray type="Float32" Name="X_gas^Air" NumberOfComponents="1" format="ascii">
          0.980045 0.980045 0.980265 0.980275 0.980045 0.980288 0.980045 0.98028 0.980045 0.980253 0.980045 0.980237
          0.981171 0.981335 0.981554 0.981577 0.981302 0.981089 0.982676 0.983778 0.984879 0.98521 0.984201 0.982707
          0.982256 0.990888 0.989263 0.989139 0.988974 0.98245
        </DataArray>
        <DataArray type="Float32" Name="x_liquid^H2O" NumberOfComponents="1" format="ascii">
          0.999987 0.999987 0.999987 0.999987 0.999987 0.999987 0.999987 0.999987 0.999987 0.999987 0.999987 0.999987
          0.999986 0.999986 0.999986 0.999986 0.999986 0.999986 0.999986 0.999986 0.999985 0.999985 0.999986 0.999986
          0.999986 0.689469 0.999984 0.999984 0.999984 0.999986
        </DataArray>
        <DataArray type="Float32" Name="x_liquid^Air" NumberOfComponents="1" format="ascii">
          1.34051e-05 1.34051e-05 1.3448e-05 1.34498e-05 1.34051e-05 1.34525e-05 1.34051e-05 1.34509e-05 1.3405e-05 1.34454e-05 1.3405e-05 1.34422e-05
          1.3634e-05 1.36691e-05 1.37164e-05 1.37214e-05 1.36616e-05 1.36161e-05 1.39746e-05 1.42535e-05 1.45619e-05 1.46617e-05 1.43678e-05 1.39813e-05
          1.38752e-05 1.52762e-05 1.62349e-05 1.61756e-05 1.60947e-05 1.392e-05
        </DataArray>
        <DataArray type="Float32" Name="x_gas^H2O" NumberOfComponents="1" format="ascii">
          0.0316939 0.0316939 0.0313486 0.0313338 0.031694 0.0313122 0.0316941 0.0313246 0.0316942 0.0313681 0.0316942 0.031393
          0.0299255 0.0296676 0.0293243 0.0292881 0.0297203 0.0300554 0.0275592 0.0258231 0.0240861 0.0235631 0.0251556 0.0275108
          0.02822 0.0145671 0.0171487 0.0173452 0.0176067 0.0279143
        </DataArray>
        <DataArray type="Float32" Name="x_gas^Air" NumberOfComponents="1" format="ascii">
          0.968306 0.968306 0.968651 0.968666 0.968306 0.968688 0.968306 0.968675 0.968306 0.968632 0.968306 0.968607
          0.970074 0.970332 0.970676 0.970712 0.97028 0.969945 0.972441 0.974177 0.975914 0.976437 0.974844 0.972489
          0.97178 0.985433 0.982851 0.982655 0.982393 0.972086
        </DataArray>
        <DataArray type="Float32" Name="porosity" NumberOfComponents="1" format="ascii">
          0.41 0.41 0.41 0.41 0.41 0.41 0.41 0.41 0.41 0.41 0.41 0.41
          0.41 0.41 0.41 0.41 0.41 0.41 0.41 0.41 0.41 0.41 0.41 0.41
          0.41 0.41 0.41 0.41 0.41 0.41
        </DataArray>
        <DataArray type="Float32" Name="temperature" NumberOfComponents="1" format="ascii">
          298.15 298.15 297.966 297.958 298.15 297.946 298.15 297.953 298.15 297.976 298.15 297.989
          297.19 297.046 296.852 296.831 297.075 297.261 295.825 294.757 293.623 293.268 294.329 295.795
          296.216 291.519 288.232 288.412 288.643 296.035
        </DataArray>
        <DataArray type="Float32" Name="phase presence" NumberOfComponents="1" format="ascii">
          3 3 3 3 3 3 3 3 3 3 3 3
          3 3 3 3 3 3 3 3 3 3 3 3
          3 2 3 3 3 3
        </DataArray>
        <DataArray type="Float32" Name="velocityW" NumberOfComponents="3" format="ascii">
          -2.06199e-08 -9.15899e-07 0 -3.64537e-08 -9.25417e-07 0 -7.208e-09 -7.78647e-07 0 -1.8506e-08 -7.85159e-07 0
          -5.86978e-08 -9.43863e-07 0 -3.19732e-08 -8.17667e-07 0 -5.94499e-08 -9.67622e-07 0 -2.80051e-08 -8.55453e-07 0
          -3.72174e-08 -9.88893e-07 0 -1.52651e-08 -8.81594e-07 0 -2.06431e-08 -9.96908e-07 0 -8.66232e-09 -8.93439e-07 0
          1.29061e-08 -3.91165e-07 0 -9.79295e-09 -3.66427e-07 0 -2.8226e-08 -4.37129e-07 0 -1.55201e-08 -5.03201e-07 0
          -5.3777e-09 -5.31872e-07 0 -3.67514e-09 -5.49948e-07 0 8.69343e-08 -4.42344e-08 0 -6.55548e-09 1.26961e-07 0
          -6.705e-08 -3.83131e-08 0 -1.89759e-08 -1.38311e-07 0 -6.90394e-09 -1.55417e-07 0 -9.91087e-09 -1.84797e-07 0
          1.91444e-07 5.24658e-08 0 7.62659e-08 3.41876e-07 0 -2.57961e-08 1.0616e-07 0 -6.92971e-09 -1.35043e-08 0
          -7.78824e-09 -2.1386e-08 0 -1.43972e-08 -5.96684e-08 0
        </DataArray>
        <DataArray type="Float32" Name="velocityN" NumberOfComponents="3" format="ascii">
          7.46646e-08 8.03738e-07 0 1.31524e-07 8.40301e-07 0 6.15559e-05 -9.98281e-05 0 0.000100778 -6.43549e-05 0
          2.05061e-07 9.22636e-07 0 0.000139738 -1.04004e-06 0 1.96862e-07 1.00763e-06 0 0.000123602 2.83196e-05 0
          1.18093e-07 1.06648e-06 0 7.52704e-05 5.58938e-05 0 6.42013e-08 1.08745e-06 0 4.28128e-05 7.19703e-05 0
          0.000170439 -0.000390804 0 0.000311704 -0.000275673 0 0.000301279 0.000146191 0 0.000212835 5.43286e-07 0
          0.000191522 0.000200466 0 0.000106961 0.000263158 0 1.67682e-05 -0.000625518 0 0.00089621 -0.0010165 0
          0.000462243 0.00120823 0 0.000105831 -0.000699224 0 0.000534856 0.000654171 0 6.88585e-06 0.000408647 0
          -0.00105676 -0.000669889 0 0.0017379 -0.0016112 0 0.000505535 0.00212108 0 -0.000278222 -0.0013439 0
          0.00112951 0.00101813 0 -0.000706029 0.000433833 0
        </DataArray>
      </PointData>
      <CellData Scalars="process rank">
        <DataArray type="Float32" Name="process rank" NumberOfComponents="1" format="ascii">
          0 0 0 0 0 0 0 0 0 0 0 0
          0 0 0 0 0 0 0 0
        </DataArray>
      </CellData>
      <Points>
        <DataArray type="Float32" Name="Coordinates" NumberOfComponents="3" format="ascii">
          0.05 0 0 0.1 0 0 0.05 0.103846 0 0.1 0.103846 0
          0.15 0 0 0.15 0.103846 0 0.2 0 0 0.2 0.103846 0
          0.25 0 0 0.25 0.103846 0 0.3 0 0 0.3 0.103846 0
          0.05 0.173077 0 0.1 0.173077 0 0.15 0.173077 0 0.2 0.173077 0
          0.25 0.173077 0 0.3 0.173077 0 0.05 0.219231 0 0.1 0.219231 0
          0.15 0.219231 0 0.2 0.219231 0 0.25 0.219231 0 0.3 0.219231 0
          0.05 0.25 0 0.1 0.25 0 0.15 0.25 0 0.2 0.25 0
          0.25 0.25 0 0.3 0.25 0
        </DataArray>
      </Points>
      <Cells>
        <DataArray type="Int32" Name="connectivity" NumberOfComponents="1" format="ascii">
          0 1 3 2 1 4 5 3 4 6 7 5
          6 8 9 7 8 10 11 9 2 3 13 12
          3 5 14 13 5 7 15 14 7 9 16 15
          9 11 17 16 12 13 19 18 13 14 20 19
          14 15 21 20 15 16 22 21 16 17 23 22
          18 19 25 24 19 20 26 25 20 21 27 26
          21 22 28 27 22 23 29 28
        </DataArray>
        <DataArray type="Int32" Name="offsets" NumberOfComponents="1" format="ascii">
          4 8 12 16 20 24 28 32 36 40 44 48
          52 56 60 64 68 72 76 80
        </DataArray>
        <DataArray type="UInt8" Name="types" NumberOfComponents="1" format="ascii">
          9 9 9 9 9 9 9 9 9 9 9 9
          9 9 9 9 9 9 9 9
        </DataArray>
      </Cells>
    </Piece>
  </UnstructuredGrid>
</VTKFile>
