<?xml version="1.0"?>
<VTKFile type="UnstructuredGrid" version="0.1" byte_order="LittleEndian">
  <UnstructuredGrid>
    <Piece NumberOfCells="20" NumberOfPoints="30">
      <PointData Scalars="Sn" Vectors="velocityW">
        <DataArray type="Float32" Name="Sn" NumberOfComponents="1" format="ascii">
          0.0542306 0.054234 0.845319 0.84506 0.0542214 0.844496 0.0542043 0.843838 0.0542024 0.843272 0.0541995 0.843069
          0.931055 0.930666 0.929227 0.927602 0.926886 0.92656 0.957846 0.966865 0.953668 0.949284 0.948502 0.948033
          0.971459 1 0.971774 0.969423 0.968313 0.964179
        </DataArray>
        <DataArray type="Float32" Name="Sw" NumberOfComponents="1" format="ascii">
          0.945769 0.945766 0.154681 0.15494 0.945779 0.155504 0.945796 0.156162 0.945798 0.156728 0.945801 0.156931
          0.0689449 0.0693344 0.070773 0.0723983 0.0731141 0.0734397 0.042154 0.0331346 0.0463316 0.0507156 0.0514984 0.0519669
          0.0285407 0 0.0282256 0.0305768 0.031687 0.0358208
        </DataArray>
        <DataArray type="Float32" Name="pn" NumberOfComponents="1" format="ascii">
          100010 100010 100006 100006 100010 100005 100010 100005 100009 100004 100009 100004
          100006 100006 100005 100004 100003 100002 100008 100007 100002 100004 100001 100000
          100008 100011 99994.3 100009 99996.8 100000
        </DataArray>
        <DataArray type="Float32" Name="pw" NumberOfComponents="1" format="ascii">
          98920.6 98920.5 97983.2 97983.5 98920.3 97984.2 98920.1 97985 98919.8 97985.7 98919.7 97986
          97699.7 97701.1 97707.4 97714.9 97717.6 97718.9 97508.3 97404.2 97541.6 97579.2 97582.5 97585.6
          97336.5 96327.2 97318 97369.8 97373.8 97431.6
        </DataArray>
        <DataArray type="Float32" Name="pc" NumberOfComponents="1" format="ascii">
          1089.56 1089.57 2022.97 2022.4 1089.53 2021.17 1089.47 2019.75 1089.47 2018.52 1089.46 2018.09
          2306.83 2304.74 2297.13 2288.74 2285.12 2283.49 2499.44 2602.86 2460.71 2424.51 2418.46 2414.89
          2671.07 3684.13 2676.29 2639.14 2622.91 2568.55
        </DataArray>
        <DataArray type="Float32" Name="rhoW" NumberOfComponents="1" format="ascii">
          997.055 997.055 997.106 997.107 997.055 997.109 997.055 997.106 997.055 997.099 997.055 997.096
          997.364 997.395 997.409 997.383 997.322 997.276 997.803 998.968 998.134 998.147 997.934 997.616
          998.748 998.408 998.833 998.856 998.86 997.569
        </DataArray>
        <DataArray type="Float32" Name="rhoN" NumberOfComponents="1" format="ascii">
          1.15439 1.15439 1.15528 1.1553 1.15439 1.15533 1.15439 1.15527 1.15438 1.15514 1.15438 1.15508
          1.16016 1.16073 1.161 1.16049 1.1593 1.15843 1.16891 1.19686 1.17592 1.17623 1.17156 1.16502
          1.1908 1.47325 1.1929 1.19373 1.19367 1.16408
        </DataArray>
        <DataArray type="Float32" Name="mobW" NumberOfComponents="1" format="ascii">
          1005.43 1005.41 4.56827 4.58988 1005.47 4.63772 1005.55 4.69602 1005.56 4.74833 1005.57 4.76759
          0.413325 0.419184 0.445265 0.477862 0.495033 0.50381 0.0869461 0.0344843 0.112848 0.149265 0.160312 0.170434
          0.0216946 0 0.0206361 0.0269049 0.0302726 0.0528828
        </DataArray>
        <DataArray type="Float32" Name="mobN" NumberOfComponents="1" format="ascii">
          108.942 108.959 42501.7 42478.4 108.895 42427.3 108.807 42366.3 108.797 42312.6 108.783 42293.1
          51085.3 51051.5 50890.8 50693.4 50588.6 50534.9 54105.9 55518.5 53864.3 53430 53248.6 53063.5
          55694.9 41967.2 55772 55627.5 55549.9 54551.3
        </DataArray>
        <DataArray type="Float32" Name="X_liquid^H2O" NumberOfComponents="1" format="ascii">
          0.999978 0.999978 0.999978 0.999978 0.999978 0.999978 0.999978 0.999978 0.999978 0.999978 0.999978 0.999978
          0.999978 0.999978 0.999978 0.999978 0.999978 0.999978 0.999977 0.999974 0.999977 0.999977 0.999977 0.999978
          0.999975 -28.3994 0.999975 0.999975 0.999975 0.999978
        </DataArray>
        <DataArray type="Float32" Name="X_liquid^Air" NumberOfComponents="1" format="ascii">
          2.15491e-05 2.15491e-05 2.16234e-05 2.16255e-05 2.1549e-05 2.16279e-05 2.1549e-05 2.16235e-05 2.15489e-05 2.16136e-05 2.15489e-05 2.16084e-05
          2.20257e-05 2.20747e-05 2.20981e-05 2.20555e-05 2.19566e-05 2.18845e-05 2.27893e-05 2.56518e-05 2.3449e-05 2.34781e-05 2.30388e-05 2.24484e-05
          2.49718e-05 4.0002e-05 2.52182e-05 2.52941e-05 2.53016e-05 2.23661e-05
        </DataArray>
        <DataArray type="Float32" Name="X_gas^H2O" NumberOfComponents="1" format="ascii">
          0.0199548 0.0199548 0.0197177 0.0197112 0.0199549 0.0197034 0.019955 0.0197168 0.019955 0.0197476 0.019955 0.0197638
          0.0185147 0.0183755 0.0183088 0.0184287 0.0187116 0.0189223 0.0165153 0.0113221 0.0150362 0.0149761 0.0159293 0.0173627
          0.0123054 -0.313857 0.0119313 0.0118243 0.0118103 0.0175777
        </DataArray>
        <DataArray type="Float32" Name="X_gas^Air" NumberOfComponents="1" format="ascii">
          0.980045 0.980045 0.980282 0.980289 0.980045 0.980297 0.980045 0.980283 0.980045 0.980252 0.980045 0.980236
          0.981485 0.981625 0.981691 0.981571 0.981288 0.981078 0.983485 0.988678 0.984964 0.985024 0.984071 0.982637
          0.987695 1.31386 0.988069 0.988176 0.98819 0.982422
        </DataArray>
        <DataArray type="Float32" Name="x_liquid^H2O" NumberOfComponents="1" format="ascii">
          0.999987 0.999987 0.999987 0.999987 0.999987 0.999987 0.999987 0.999987 0.999987 0.999987 0.999987 0.999987
          0.999986 0.999986 0.999986 0.999986 0.999986 0.999986 0.999986 0.999984 0.999985 0.999985 0.999986 0.999986
          0.999984 -28.3994 0.999984 0.999984 0.999984 0.999986
        </DataArray>
        <DataArray type="Float32" Name="x_liquid^Air" NumberOfComponents="1" format="ascii">
          1.34052e-05 1.34052e-05 1.34514e-05 1.34527e-05 1.34051e-05 1.34542e-05 1.34051e-05 1.34515e-05 1.34051e-05 1.34453e-05 1.34051e-05 1.34421e-05
          1.37017e-05 1.37321e-05 1.37467e-05 1.37202e-05 1.36587e-05 1.36138e-05 1.41767e-05 1.59574e-05 1.45871e-05 1.46052e-05 1.43319e-05 1.39646e-05
          1.55344e-05 2.48841e-05 1.56877e-05 1.57348e-05 1.57395e-05 1.39134e-05
        </DataArray>
        <DataArray type="Float32" Name="x_gas^H2O" NumberOfComponents="1" format="ascii">
          0.0316938 0.0316938 0.0313217 0.0313114 0.0316939 0.0312992 0.031694 0.0313202 0.0316941 0.0313686 0.0316941 0.031394
          0.0294319 0.0292131 0.0291083 0.0292967 0.0297415 0.0300725 0.0262851 0.0180763 0.0239524 0.0238575 0.0253614 0.0276198
          0.0196346 -0.623405 0.0190419 0.0188724 0.0188502 0.0279582
        </DataArray>
        <DataArray type="Float32" Name="x_gas^Air" NumberOfComponents="1" format="ascii">
          0.968306 0.968306 0.968678 0.968689 0.968306 0.968701 0.968306 0.96868 0.968306 0.968631 0.968306 0.968606
          0.970568 0.970787 0.970892 0.970703 0.970259 0.969927 0.973715 0.981924 0.976048 0.976142 0.974639 0.97238
          0.980365 1.6234 0.980958 0.981128 0.98115 0.972042
        </DataArray>
        <DataArray type="Float32" Name="porosity" NumberOfComponents="1" format="ascii">
          0.41 0.41 0.41 0.41 0.41 0.41 0.41 0.41 0.41 0.41 0.41 0.41
          0.41 0.41 0.41 0.41 0.41 0.41 0.41 0.41 0.41 0.41 0.41 0.41
          0.41 0.41 0.41 0.41 0.41 0.41
        </DataArray>
        <DataArray type="Float32" Name="temperature" NumberOfComponents="1" format="ascii">
          298.15 298.15 297.951 297.946 298.15 297.939 298.15 297.95 298.15 297.976 298.15 297.99
          296.913 296.789 296.729 296.836 297.087 297.271 295.048 289.055 293.533 293.469 294.462 295.86
          290.355 292.13 289.87 289.731 289.711 296.061
        </DataArray>
        <DataArray type="Float32" Name="phase presence" NumberOfComponents="1" format="ascii">
          3 3 3 3 3 3 3 3 3 3 3 3
          3 3 3 3 3 3 3 3 3 3 3 3
          3 2 3 3 3 3
        </DataArray>
        <DataArray type="Float32" Name="velocityW" NumberOfComponents="3" format="ascii">
          -2.02022e-08 -9.14371e-07 0 -3.62344e-08 -9.23129e-07 0 -1.01024e-08 -7.68877e-07 0 -2.04595e-08 -7.78816e-07 0
          -5.84955e-08 -9.42625e-07 0 -3.40469e-08 -8.12734e-07 0 -5.91514e-08 -9.66631e-07 0 -2.9774e-08 -8.55167e-07 0
          -3.70549e-08 -9.88508e-07 0 -1.54266e-08 -8.81785e-07 0 -2.05313e-08 -9.96641e-07 0 -8.58252e-09 -8.93527e-07 0
          2.60012e-08 -3.70085e-07 0 -1.2926e-08 -3.35528e-07 0 -3.90935e-08 -4.29978e-07 0 -1.6565e-08 -5.05736e-07 0
          -5.1722e-09 -5.33312e-07 0 -3.54835e-09 -5.50743e-07 0 9.4037e-08 -2.21509e-08 0 -2.10735e-08 6.42303e-08 0
          -8.2187e-08 -5.9236e-08 0 -1.55046e-08 -1.44343e-07 0 -5.77314e-09 -1.58741e-07 0 -8.727e-09 -1.85929e-07 0
          9.00249e-08 7.24863e-08 0 2.49797e-09 1.65013e-07 0 -4.59538e-08 5.86413e-08 0 -3.74929e-09 -2.09149e-08 0
          -6.48785e-09 -2.59193e-08 0 -1.23557e-08 -6.07849e-08 0
        </DataArray>
        <DataArray type="Float32" Name="velocityN" NumberOfComponents="3" format="ascii">
          7.46758e-08 8.01308e-07 0 1.31846e-07 8.37766e-07 0 6.05511e-05 -9.83317e-05 0 0.000100361 -6.51193e-05 0
          2.05931e-07 9.20519e-07 0 0.000140586 -2.08974e-06 0 1.98018e-07 1.0067e-06 0 0.000125029 2.8449e-05 0
          1.18945e-07 1.06693e-06 0 7.61345e-05 5.66368e-05 0 6.46984e-08 1.08844e-06 0 4.32123e-05 7.26668e-05 0
          0.00015975 -0.00037556 0 0.000303978 -0.000275119 0 0.000303932 0.00013688 0 0.000218953 4.63137e-06 0
          0.000192367 0.000203509 0 0.000106487 0.000264137 0 3.56117e-05 -0.000582403 0 0.000877605 -0.000682389 0
          0.000464562 0.00117601 0 0.000129371 -0.000669409 0 0.000526927 0.000655112 0 4.63891e-06 0.000407321 0
          -0.000600145 -0.000611151 0 0.00125481 -0.000945616 0 -0.000114238 0.00207317 0 -0.000221533 -0.00129219 0
          0.00109727 0.00101541 0 -0.00070063 0.000430614 0
        </DataArray>
      </PointData>
      <CellData Scalars="process rank">
        <DataArray type="Float32" Name="process rank" NumberOfComponents="1" format="ascii">
          0 0 0 0 0 0 0 0 0 0 0 0
          0 0 0 0 0 0 0 0
        </DataArray>
      </CellData>
      <Points>
        <DataArray type="Float32" Name="Coordinates" NumberOfComponents="3" format="ascii">
          0.05 0 0 0.1 0 0 0.05 0.103846 0 0.1 0.103846 0
          0.15 0 0 0.15 0.103846 0 0.2 0 0 0.2 0.103846 0
          0.25 0 0 0.25 0.103846 0 0.3 0 0 0.3 0.103846 0
          0.05 0.173077 0 0.1 0.173077 0 0.15 0.173077 0 0.2 0.173077 0
          0.25 0.173077 0 0.3 0.173077 0 0.05 0.219231 0 0.1 0.219231 0
          0.15 0.219231 0 0.2 0.219231 0 0.25 0.219231 0 0.3 0.219231 0
          0.05 0.25 0 0.1 0.25 0 0.15 0.25 0 0.2 0.25 0
          0.25 0.25 0 0.3 0.25 0
        </DataArray>
      </Points>
      <Cells>
        <DataArray type="Int32" Name="connectivity" NumberOfComponents="1" format="ascii">
          0 1 3 2 1 4 5 3 4 6 7 5
          6 8 9 7 8 10 11 9 2 3 13 12
          3 5 14 13 5 7 15 14 7 9 16 15
          9 11 17 16 12 13 19 18 13 14 20 19
          14 15 21 20 15 16 22 21 16 17 23 22
          18 19 25 24 19 20 26 25 20 21 27 26
          21 22 28 27 22 23 29 28
        </DataArray>
        <DataArray type="Int32" Name="offsets" NumberOfComponents="1" format="ascii">
          4 8 12 16 20 24 28 32 36 40 44 48
          52 56 60 64 68 72 76 80
        </DataArray>
        <DataArray type="UInt8" Name="types" NumberOfComponents="1" format="ascii">
          9 9 9 9 9 9 9 9 9 9 9 9
          9 9 9 9 9 9 9 9
        </DataArray>
      </Cells>
    </Piece>
  </UnstructuredGrid>
</VTKFile>
