<?xml version="1.0"?>
<VTKFile type="UnstructuredGrid" version="0.1" byte_order="LittleEndian">
  <UnstructuredGrid>
    <Piece NumberOfCells="48" NumberOfPoints="63">
      <PointData Scalars="temperature" Vectors="v">
        <DataArray type="Float32" Name="temperature" NumberOfComponents="1" format="ascii">
          296.984 296.98 298.15 298.145 296.98 298.141 296.983 298.136 296.987 298.132 296.992 298.127
          297.002 298.124 298.15 298.15 298.15 298.15 298.15 298.15 298.15 298.15 298.15 298.15
          298.15 298.15 298.15 298.15 298.15 298.15 298.15 298.15 298.15 298.15 298.15 298.15
          298.15 298.15 298.15 298.15 298.15 298.15 298.15 298.15 298.15 298.15 298.15 298.15
          298.15 298.15 298.15 298.15 298.15 298.15 298.15 298.15 298.15 298.15 298.15 298.15
          298.15 298.15 298.15
        </DataArray>
        <DataArray type="Float32" Name="pg" NumberOfComponents="1" format="ascii">
          100000 100000 100000 100000 100000 100000 100000 100000 100000 100000 100000 100000
          100000 100000 100000 100000 100000 100000 100000 100000 100000 100000 100000 100000
          100000 100000 100000 100000 100000 100000 100000 100000 100000 100000 100000 100000
          100000 100000 100000 100000 100000 100000 100000 100000 100000 100000 100000 100000
          100000 100000 100000 100000 100000 100000 100000 100000 100000 100000 100000 100000
          100000 100000 100000
        </DataArray>
        <DataArray type="Float32" Name="delP" NumberOfComponents="1" format="ascii">
          0.00201957 0.00169494 0.00201044 0.00168581 0.00135394 0.00134896 0.00101523 0.00101324 0.000676776 0.000675142 0.000338342 0.000337754
          0 0 0.00203 0.00169103 0.00135297 0.00101483 0.000676581 0.000338258 0 0.00202576 0.00168733 0.00135033
          0.00101274 0.000675243 0.000337601 0 0.00203024 0.00169154 0.00135327 0.00101483 0.000676581 0.000338275 0 0.0020276
          0.00168887 0.00135117 0.00101315 0.000675498 0.000337751 0 0.00202979 0.00169123 0.00135296 0.00101456 0.000676382 0.000338191
          0 0.00202787 0.00168949 0.00135155 0.00101346 0.000675672 0.000337834 0 0.0020286 0.00169022 0.00135213 0.00101389
          0.000675955 0.000337971 0
        </DataArray>
        <DataArray type="Float32" Name="x_gas^H2O" NumberOfComponents="1" format="ascii">
          0.0295603 0.0295517 0.0127981 0.0128639 0.0295518 0.0129291 0.0295586 0.0129942 0.0295655 0.0130591 0.0295729 0.0131238
          0.0295911 0.0131558 0.0127981 0.0127981 0.0127982 0.0127984 0.0127986 0.0127989 0.0127989 0.0127981 0.0127981 0.0127981
          0.0127981 0.0127981 0.0127981 0.012798 0.0127981 0.0127981 0.0127981 0.0127981 0.0127981 0.0127981 0.0127981 0.0127981
          0.0127981 0.0127981 0.0127981 0.0127981 0.0127981 0.0127981 0.0127981 0.0127981 0.0127981 0.0127981 0.0127981 0.0127981
          0.0127982 0.0127981 0.0127981 0.0127982 0.0127984 0.0127986 0.0127987 0.0127989 0.0127981 0.0128152 0.0128285 0.0128378
          0.0128431 0.0128448 0.0127981
        </DataArray>
        <DataArray type="Float32" Name="X_gas^H2O" NumberOfComponents="1" format="ascii">
          0.0185964 0.0185909 0.008 0.00804133 0.018591 0.00808232 0.0185953 0.0081232 0.0185997 0.00816399 0.0186044 0.00820464
          0.018616 0.00822477 0.008 0.00800003 0.0080001 0.0080002 0.00800034 0.0080005 0.00800051 0.008 0.008 0.008
          0.008 0.008 0.008 0.00799996 0.008 0.008 0.008 0.008 0.008 0.008 0.00800002 0.008
          0.008 0.008 0.008 0.008 0.008 0.00800005 0.008 0.008 0.008 0.008 0.008 0.008
          0.00800007 0.008 0.00800004 0.00800011 0.00800021 0.00800032 0.00800041 0.00800052 0.008 0.00801073 0.00801909 0.00802495
          0.00802827 0.00802937 0.008
        </DataArray>
        <DataArray type="Float32" Name="x_gas^Air" NumberOfComponents="1" format="ascii">
          0.97044 0.970448 0.987202 0.987136 0.970448 0.987071 0.970441 0.987006 0.970434 0.986941 0.970427 0.986876
          0.970409 0.986844 0.987202 0.987202 0.987202 0.987202 0.987201 0.987201 0.987201 0.987202 0.987202 0.987202
          0.987202 0.987202 0.987202 0.987202 0.987202 0.987202 0.987202 0.987202 0.987202 0.987202 0.987202 0.987202
          0.987202 0.987202 0.987202 0.987202 0.987202 0.987202 0.987202 0.987202 0.987202 0.987202 0.987202 0.987202
          0.987202 0.987202 0.987202 0.987202 0.987202 0.987201 0.987201 0.987201 0.987202 0.987185 0.987172 0.987162
          0.987157 0.987155 0.987202
        </DataArray>
        <DataArray type="Float32" Name="X_gas^Air" NumberOfComponents="1" format="ascii">
          0.981404 0.981409 0.992 0.991959 0.981409 0.991918 0.981405 0.991877 0.9814 0.991836 0.981396 0.991795
          0.981384 0.991775 0.992 0.992 0.992 0.992 0.992 0.992 0.992 0.992 0.992 0.992
          0.992 0.992 0.992 0.992 0.992 0.992 0.992 0.992 0.992 0.992 0.992 0.992
          0.992 0.992 0.992 0.992 0.992 0.992 0.992 0.992 0.992 0.992 0.992 0.992
          0.992 0.992 0.992 0.992 0.992 0.992 0.992 0.991999 0.992 0.991989 0.991981 0.991975
          0.991972 0.991971 0.992
        </DataArray>
        <DataArray type="Float32" Name="h" NumberOfComponents="1" format="ascii">
          69840.3 69821.7 44886.1 44983.4 69822 45080 69836.6 45176.3 69851.6 45272.4 69867.4 45368.2
          69906.8 45415.1 44886.1 44886.2 44886.3 44886.6 44886.9 44887.3 44887 44886.1 44886.1 44886.1
          44886.1 44886.1 44886.1 44885.9 44886.1 44886.1 44886.1 44886.1 44886.1 44886.1 44886.2 44886.1
          44886.1 44886.1 44886.1 44886.1 44886.1 44886.4 44886.1 44886.1 44886.1 44886.1 44886.1 44886.1
          44886.5 44886.1 44886.2 44886.4 44886.6 44886.9 44887.1 44887.7 44886.1 44912.6 44933.3 44947.7
          44955.9 44958.6 44886.1
        </DataArray>
        <DataArray type="Float32" Name="rho" NumberOfComponents="1" format="ascii">
          1.15975 1.15977 1.16259 1.16258 1.15977 1.16257 1.15975 1.16255 1.15973 1.16254 1.15971 1.16253
          1.15967 1.16253 1.16259 1.16259 1.16259 1.16259 1.16259 1.16259 1.16259 1.16259 1.16259 1.16259
          1.16259 1.16259 1.16259 1.16259 1.16259 1.16259 1.16259 1.16259 1.16259 1.16259 1.16259 1.16259
          1.16259 1.16259 1.16259 1.16259 1.16259 1.16259 1.16259 1.16259 1.16259 1.16259 1.16259 1.16259
          1.16259 1.16259 1.16259 1.16259 1.16259 1.16259 1.16259 1.16259 1.16259 1.16258 1.16257 1.16257
          1.16257 1.16257 1.16259
        </DataArray>
        <DataArray type="Float32" Name="mu" NumberOfComponents="1" format="ascii">
          1.79151e-05 1.7915e-05 1.81222e-05 1.81214e-05 1.7915e-05 1.81206e-05 1.79151e-05 1.81198e-05 1.79152e-05 1.8119e-05 1.79153e-05 1.81182e-05
          1.79157e-05 1.81178e-05 1.81222e-05 1.81222e-05 1.81222e-05 1.81222e-05 1.81222e-05 1.81222e-05 1.81222e-05 1.81222e-05 1.81222e-05 1.81222e-05
          1.81222e-05 1.81222e-05 1.81222e-05 1.81222e-05 1.81222e-05 1.81222e-05 1.81222e-05 1.81222e-05 1.81222e-05 1.81222e-05 1.81222e-05 1.81222e-05
          1.81222e-05 1.81222e-05 1.81222e-05 1.81222e-05 1.81222e-05 1.81222e-05 1.81222e-05 1.81222e-05 1.81222e-05 1.81222e-05 1.81222e-05 1.81222e-05
          1.81222e-05 1.81222e-05 1.81222e-05 1.81222e-05 1.81222e-05 1.81222e-05 1.81222e-05 1.81222e-05 1.81222e-05 1.81221e-05 1.8122e-05 1.81219e-05
          1.81218e-05 1.81218e-05 1.81222e-05
        </DataArray>
        <DataArray type="Float32" Name="v" NumberOfComponents="3" format="ascii">
          0.000897887 1.7142e-05 0 0.000900455 1.75647e-05 0 0.809861 0 0 0.811075 -0.000132868 0
          0.000903357 1.73965e-05 0 0.812516 -6.22133e-05 0 0.000903454 1.72401e-05 0 0.81281 9.73327e-07 0
          0.000903804 1.71938e-05 0 0.813051 4.8005e-06 0 0.000903793 1.7199e-05 0 0.813085 1.49388e-05 0
          0.000904186 1.68551e-05 0 0.813155 1.38546e-05 0 1.82383 0 0 1.82419 -0.00118559 0
          1.82495 -0.000659077 0 1.82545 -0.000159898 0 1.82574 -0.000103031 0 1.82587 -1.73182e-05 0
          1.82595 -2.44292e-07 0 2.89743 0 0 2.89723 -0.000973045 0 2.89714 -0.000896604 0
          2.89741 -0.00047991 0 2.89761 -0.000254041 0 2.89773 -0.000119807 0 2.89781 -2.65728e-05 0
          3.50134 0 0 3.50116 -0.000884843 0 3.50083 -0.000887131 0 3.50065 -0.00062033 0
          3.50056 -0.000372346 0 3.50053 -0.000193213 0 3.50051 -4.40943e-05 0 2.89743 0 0
          2.89718 -0.00022251 0 2.89672 -0.000305203 0 2.89641 -0.000242475 0 2.89617 -0.000151802 0
          2.89606 -8.32639e-05 0 2.89599 -2.54304e-05 0 1.82383 0 0 1.82369 -0.000111674 0
          1.82342 -0.000122377 0 1.82318 -0.00010593 0 1.82299 -6.5994e-05 0 1.8229 -3.49526e-05 0
          1.82284 -6.75766e-06 0 0.809861 0 0 0.809785 0.000114989 0 0.809657 7.09705e-05 0
          0.809544 5.52357e-05 0 0.809444 3.56866e-05 0 0.809406 1.76325e-05 0 0.809373 2.46089e-07 0
          0.00134 0 0 0.00134 0 0 0.00134 8.77493e-35 0 0.00134 0 0
          0.00134 0 0 0.00134 0 0 0.00134 0 0
        </DataArray>
      </PointData>
      <Points>
        <DataArray type="Float32" Name="Coordinates" NumberOfComponents="3" format="ascii">
          0 0.25 0 0.0416667 0.25 0 0 0.265385 0 0.0416667 0.265385 0
          0.0833333 0.25 0 0.0833333 0.265385 0 0.125 0.25 0 0.125 0.265385 0
          0.166667 0.25 0 0.166667 0.265385 0 0.208333 0.25 0 0.208333 0.265385 0
          0.25 0.25 0 0.25 0.265385 0 0 0.288462 0 0.0416667 0.288462 0
          0.0833333 0.288462 0 0.125 0.288462 0 0.166667 0.288462 0 0.208333 0.288462 0
          0.25 0.288462 0 0 0.323077 0 0.0416667 0.323077 0 0.0833333 0.323077 0
          0.125 0.323077 0 0.166667 0.323077 0 0.208333 0.323077 0 0.25 0.323077 0
          0 0.375 0 0.0416667 0.375 0 0.0833333 0.375 0 0.125 0.375 0
          0.166667 0.375 0 0.208333 0.375 0 0.25 0.375 0 0 0.426923 0
          0.0416667 0.426923 0 0.0833333 0.426923 0 0.125 0.426923 0 0.166667 0.426923 0
          0.208333 0.426923 0 0.25 0.426923 0 0 0.461538 0 0.0416667 0.461538 0
          0.0833333 0.461538 0 0.125 0.461538 0 0.166667 0.461538 0 0.208333 0.461538 0
          0.25 0.461538 0 0 0.484615 0 0.0416667 0.484615 0 0.0833333 0.484615 0
          0.125 0.484615 0 0.166667 0.484615 0 0.208333 0.484615 0 0.25 0.484615 0
          0 0.5 0 0.0416667 0.5 0 0.0833333 0.5 0 0.125 0.5 0
          0.166667 0.5 0 0.208333 0.5 0 0.25 0.5 0
        </DataArray>
      </Points>
      <Cells>
        <DataArray type="Int32" Name="connectivity" NumberOfComponents="1" format="ascii">
          0 1 3 2 1 4 5 3 4 6 7 5
          6 8 9 7 8 10 11 9 10 12 13 11
          2 3 15 14 3 5 16 15 5 7 17 16
          7 9 18 17 9 11 19 18 11 13 20 19
          14 15 22 21 15 16 23 22 16 17 24 23
          17 18 25 24 18 19 26 25 19 20 27 26
          21 22 29 28 22 23 30 29 23 24 31 30
          24 25 32 31 25 26 33 32 26 27 34 33
          28 29 36 35 29 30 37 36 30 31 38 37
          31 32 39 38 32 33 40 39 33 34 41 40
          35 36 43 42 36 37 44 43 37 38 45 44
          38 39 46 45 39 40 47 46 40 41 48 47
          42 43 50 49 43 44 51 50 44 45 52 51
          45 46 53 52 46 47 54 53 47 48 55 54
          49 50 57 56 50 51 58 57 51 52 59 58
          52 53 60 59 53 54 61 60 54 55 62 61
        </DataArray>
        <DataArray type="Int32" Name="offsets" NumberOfComponents="1" format="ascii">
          4 8 12 16 20 24 28 32 36 40 44 48
          52 56 60 64 68 72 76 80 84 88 92 96
          100 104 108 112 116 120 124 128 132 136 140 144
          148 152 156 160 164 168 172 176 180 184 188 192
        </DataArray>
        <DataArray type="UInt8" Name="types" NumberOfComponents="1" format="ascii">
          9 9 9 9 9 9 9 9 9 9 9 9
          9 9 9 9 9 9 9 9 9 9 9 9
          9 9 9 9 9 9 9 9 9 9 9 9
          9 9 9 9 9 9 9 9 9 9 9 9
        </DataArray>
      </Cells>
    </Piece>
  </UnstructuredGrid>
</VTKFile>
