<?xml version="1.0"?>
<VTKFile type="UnstructuredGrid" version="0.1" byte_order="LittleEndian">
  <UnstructuredGrid>
    <Piece NumberOfCells="48" NumberOfPoints="63">
      <PointData Scalars="temperature" Vectors="v">
        <DataArray type="Float32" Name="temperature" NumberOfComponents="1" format="ascii">
          295.785 295.777 298.15 298.141 295.769 298.133 295.763 298.124 295.757 298.115 295.751 298.106
          295.748 298.101 298.15 298.15 298.15 298.15 298.15 298.15 298.15 298.15 298.15 298.15
          298.15 298.15 298.15 298.15 298.15 298.15 298.15 298.15 298.15 298.15 298.15 298.15
          298.15 298.15 298.15 298.15 298.15 298.15 298.15 298.15 298.15 298.15 298.15 298.15
          298.15 298.15 298.15 298.15 298.15 298.15 298.15 298.15 298.15 298.15 298.15 298.15
          298.15 298.15 298.15
        </DataArray>
        <DataArray type="Float32" Name="pg" NumberOfComponents="1" format="ascii">
          100000 100000 100000 100000 100000 100000 100000 100000 100000 100000 100000 100000
          100000 100000 100000 100000 100000 100000 100000 100000 100000 100000 100000 100000
          100000 100000 100000 100000 100000 100000 100000 100000 100000 100000 100000 100000
          100000 100000 100000 100000 100000 100000 100000 100000 100000 100000 100000 100000
          100000 100000 100000 100000 100000 100000 100000 100000 100000 100000 100000 100000
          100000 100000 100000
        </DataArray>
        <DataArray type="Float32" Name="delP" NumberOfComponents="1" format="ascii">
          0.00201786 0.00169587 0.00200658 0.0016846 0.00135425 0.001348 0.00101546 0.00101279 0.000676932 0.000674745 0.000338452 0.000337545
          0 0 0.00203022 0.00169113 0.00135307 0.00101496 0.000676669 0.00033832 0 0.0020249 0.00168645 0.00134971
          0.00101226 0.000674928 0.000337434 0 0.00203043 0.00169167 0.00135338 0.00101491 0.000676635 0.000338305 0 0.00202712
          0.00168831 0.00135073 0.00101277 0.000675254 0.000337629 0 0.00202988 0.00169127 0.00135299 0.00101457 0.000676386 0.000338197
          0 0.00202749 0.00168909 0.00135121 0.00101317 0.000675484 0.000337744 0 0.0020284 0.00169001 0.00135195 0.00101373
          0.000675849 0.000337923 0
        </DataArray>
        <DataArray type="Float32" Name="x_gas^H2O" NumberOfComponents="1" format="ascii">
          0.0274932 0.0274805 0.0127981 0.0128556 0.0274677 0.0129132 0.0274563 0.0129716 0.0274463 0.0130298 0.0274377 0.0130877
          0.0274314 0.0131162 0.0127981 0.0127981 0.0127982 0.0127984 0.0127985 0.0127988 0.0127988 0.0127981 0.0127981 0.0127981
          0.0127981 0.0127981 0.0127981 0.012798 0.0127981 0.0127981 0.0127981 0.0127981 0.0127981 0.0127981 0.0127981 0.0127981
          0.0127981 0.0127981 0.0127981 0.0127981 0.0127981 0.0127982 0.0127981 0.0127981 0.0127981 0.0127981 0.0127981 0.0127981
          0.0127982 0.0127981 0.0127981 0.0127983 0.0127985 0.0127987 0.0127989 0.0127991 0.0127981 0.0128195 0.0128364 0.0128483
          0.0128551 0.0128574 0.0127981
        </DataArray>
        <DataArray type="Float32" Name="X_gas^H2O" NumberOfComponents="1" format="ascii">
          0.0172823 0.0172743 0.008 0.00803615 0.0172661 0.00807233 0.0172588 0.008109 0.0172525 0.00814556 0.0172471 0.00818196
          0.017243 0.00819987 0.008 0.00800003 0.00800009 0.00800018 0.0080003 0.00800045 0.00800043 0.008 0.008 0.008
          0.008 0.008 0.008 0.00799996 0.008 0.008 0.008 0.008 0.008 0.008 0.00800002 0.008
          0.008 0.008 0.008 0.008 0.008 0.00800006 0.008 0.008 0.008 0.008 0.008 0.008
          0.00800008 0.008 0.00800005 0.00800014 0.00800026 0.0080004 0.00800052 0.00800066 0.008 0.00801349 0.00802406 0.00803153
          0.00803582 0.00803728 0.008
        </DataArray>
        <DataArray type="Float32" Name="x_gas^Air" NumberOfComponents="1" format="ascii">
          0.972507 0.972519 0.987202 0.987144 0.972532 0.987087 0.972544 0.987028 0.972554 0.98697 0.972562 0.986912
          0.972569 0.986884 0.987202 0.987202 0.987202 0.987202 0.987201 0.987201 0.987201 0.987202 0.987202 0.987202
          0.987202 0.987202 0.987202 0.987202 0.987202 0.987202 0.987202 0.987202 0.987202 0.987202 0.987202 0.987202
          0.987202 0.987202 0.987202 0.987202 0.987202 0.987202 0.987202 0.987202 0.987202 0.987202 0.987202 0.987202
          0.987202 0.987202 0.987202 0.987202 0.987202 0.987201 0.987201 0.987201 0.987202 0.98718 0.987164 0.987152
          0.987145 0.987143 0.987202
        </DataArray>
        <DataArray type="Float32" Name="X_gas^Air" NumberOfComponents="1" format="ascii">
          0.982718 0.982726 0.992 0.991964 0.982734 0.991928 0.982741 0.991891 0.982747 0.991854 0.982753 0.991818
          0.982757 0.9918 0.992 0.992 0.992 0.992 0.992 0.992 0.992 0.992 0.992 0.992
          0.992 0.992 0.992 0.992 0.992 0.992 0.992 0.992 0.992 0.992 0.992 0.992
          0.992 0.992 0.992 0.992 0.992 0.992 0.992 0.992 0.992 0.992 0.992 0.992
          0.992 0.992 0.992 0.992 0.992 0.992 0.991999 0.991999 0.992 0.991987 0.991976 0.991968
          0.991964 0.991963 0.992
        </DataArray>
        <DataArray type="Float32" Name="h" NumberOfComponents="1" format="ascii">
          65344 65316.2 44886.1 44966.5 65288.1 45046.9 65263 45128.4 65241.1 45209.5 65222.4 45290.4
          65208.5 45329.3 44886.1 44886.2 44886.3 44886.5 44886.8 44887.1 44886.7 44886.1 44886.1 44886.1
          44886.1 44886.1 44886.1 44885.9 44886.1 44886.1 44886.1 44886.1 44886.1 44886.1 44886.2 44886.1
          44886.1 44886.1 44886.1 44886.1 44886.1 44886.4 44886.1 44886.1 44886.1 44886.1 44886.1 44886.1
          44886.6 44886.1 44886.2 44886.4 44886.7 44887.1 44887.4 44888.1 44886.1 44919.4 44945.5 44964
          44974.6 44978.2 44886.1
        </DataArray>
        <DataArray type="Float32" Name="rho" NumberOfComponents="1" format="ascii">
          1.16537 1.1654 1.16259 1.1626 1.16544 1.1626 1.16547 1.16261 1.1655 1.16262 1.16552 1.16263
          1.16554 1.16264 1.16259 1.16259 1.16259 1.16259 1.16259 1.16259 1.16259 1.16259 1.16259 1.16259
          1.16259 1.16259 1.16259 1.16259 1.16259 1.16259 1.16259 1.16259 1.16259 1.16259 1.16259 1.16259
          1.16259 1.16259 1.16259 1.16259 1.16259 1.16259 1.16259 1.16259 1.16259 1.16259 1.16259 1.16259
          1.16259 1.16259 1.16259 1.16259 1.16259 1.16259 1.16259 1.16259 1.16259 1.16258 1.16257 1.16257
          1.16256 1.16256 1.16259
        </DataArray>
        <DataArray type="Float32" Name="mu" NumberOfComponents="1" format="ascii">
          1.78772e-05 1.78769e-05 1.81222e-05 1.81213e-05 1.78767e-05 1.81204e-05 1.78764e-05 1.81194e-05 1.78763e-05 1.81185e-05 1.78761e-05 1.81175e-05
          1.7876e-05 1.8117e-05 1.81222e-05 1.81222e-05 1.81222e-05 1.81222e-05 1.81222e-05 1.81222e-05 1.81222e-05 1.81222e-05 1.81222e-05 1.81222e-05
          1.81222e-05 1.81222e-05 1.81222e-05 1.81222e-05 1.81222e-05 1.81222e-05 1.81222e-05 1.81222e-05 1.81222e-05 1.81222e-05 1.81222e-05 1.81222e-05
          1.81222e-05 1.81222e-05 1.81222e-05 1.81222e-05 1.81222e-05 1.81222e-05 1.81222e-05 1.81222e-05 1.81222e-05 1.81222e-05 1.81222e-05 1.81222e-05
          1.81222e-05 1.81222e-05 1.81222e-05 1.81222e-05 1.81222e-05 1.81222e-05 1.81222e-05 1.81222e-05 1.81222e-05 1.8122e-05 1.81219e-05 1.81218e-05
          1.81217e-05 1.81217e-05 1.81222e-05
        </DataArray>
        <DataArray type="Float32" Name="v" NumberOfComponents="3" format="ascii">
          0.000848729 6.69023e-05 0 0.000852973 6.62445e-05 0 0.809846 0 0 0.811301 -0.000106891 0
          0.000856591 6.58982e-05 0 0.813026 -3.33088e-05 0 0.000856756 6.56706e-05 0 0.813379 4.22853e-05 0
          0.000857351 6.54583e-05 0 0.813675 4.68633e-05 0 0.000857574 6.52415e-05 0 0.813717 5.93734e-05 0
          0.000857666 6.52295e-05 0 0.813802 5.8918e-05 0 1.8238 0 0 1.82425 -0.00138598 0
          1.82516 -0.00075981 0 1.82576 -0.000165384 0 1.82612 -9.76082e-05 0 1.82627 5.16835e-06 0
          1.82639 3.74938e-05 0 2.89742 0 0 2.89718 -0.00112594 0 2.89708 -0.00103493 0
          2.89741 -0.000537931 0 2.89765 -0.000270944 0 2.89781 -0.000110404 0 2.8979 -1.65227e-07 0
          3.50134 0 0 3.50113 -0.00104741 0 3.50075 -0.0010457 0 3.50055 -0.00072555 0
          3.50045 -0.000429286 0 3.50043 -0.000213365 0 3.50041 -3.0956e-05 0 2.89743 0 0
          2.89713 -0.000254868 0 2.89659 -0.000352967 0 2.89622 -0.000277347 0 2.89594 -0.000170508 0
          2.89582 -8.90153e-05 0 2.89574 -1.93525e-05 0 1.82383 0 0 1.82366 -0.000132681 0
          1.82334 -0.000144382 0 1.82306 -0.000124355 0 1.82284 -7.66338e-05 0 1.82274 -3.91829e-05 0
          1.82267 -3.18044e-06 0 0.809861 0 0 0.809771 0.00014506 0 0.809618 9.07889e-05 0
          0.809485 7.14683e-05 0 0.809369 4.66036e-05 0 0.809325 2.33643e-05 0 0.809289 1.80549e-06 0
          0.00134 0 0 0.00134 0 0 0.00134 4.92399e-37 0 0.00134 0 0
          0.00134 0 0 0.00134 0 0 0.00134 0 0
        </DataArray>
      </PointData>
      <Points>
        <DataArray type="Float32" Name="Coordinates" NumberOfComponents="3" format="ascii">
          0 0.25 0 0.0416667 0.25 0 0 0.265384 0 0.0416667 0.265384 0
          0.0833333 0.25 0 0.0833333 0.265384 0 0.125 0.25 0 0.125 0.265384 0
          0.166667 0.25 0 0.166667 0.265384 0 0.208333 0.25 0 0.208333 0.265384 0
          0.25 0.25 0 0.25 0.265384 0 0 0.288461 0 0.0416667 0.288461 0
          0.0833333 0.288461 0 0.125 0.288461 0 0.166667 0.288461 0 0.208333 0.288461 0
          0.25 0.288461 0 0 0.323076 0 0.0416667 0.323076 0 0.0833333 0.323076 0
          0.125 0.323076 0 0.166667 0.323076 0 0.208333 0.323076 0 0.25 0.323076 0
          0 0.375 0 0.0416667 0.375 0 0.0833333 0.375 0 0.125 0.375 0
          0.166667 0.375 0 0.208333 0.375 0 0.25 0.375 0 0 0.426923 0
          0.0416667 0.426923 0 0.0833333 0.426923 0 0.125 0.426923 0 0.166667 0.426923 0
          0.208333 0.426923 0 0.25 0.426923 0 0 0.461538 0 0.0416667 0.461538 0
          0.0833333 0.461538 0 0.125 0.461538 0 0.166667 0.461538 0 0.208333 0.461538 0
          0.25 0.461538 0 0 0.484615 0 0.0416667 0.484615 0 0.0833333 0.484615 0
          0.125 0.484615 0 0.166667 0.484615 0 0.208333 0.484615 0 0.25 0.484615 0
          0 0.5 0 0.0416667 0.5 0 0.0833333 0.5 0 0.125 0.5 0
          0.166667 0.5 0 0.208333 0.5 0 0.25 0.5 0
        </DataArray>
      </Points>
      <Cells>
        <DataArray type="Int32" Name="connectivity" NumberOfComponents="1" format="ascii">
          0 1 3 2 1 4 5 3 4 6 7 5
          6 8 9 7 8 10 11 9 10 12 13 11
          2 3 15 14 3 5 16 15 5 7 17 16
          7 9 18 17 9 11 19 18 11 13 20 19
          14 15 22 21 15 16 23 22 16 17 24 23
          17 18 25 24 18 19 26 25 19 20 27 26
          21 22 29 28 22 23 30 29 23 24 31 30
          24 25 32 31 25 26 33 32 26 27 34 33
          28 29 36 35 29 30 37 36 30 31 38 37
          31 32 39 38 32 33 40 39 33 34 41 40
          35 36 43 42 36 37 44 43 37 38 45 44
          38 39 46 45 39 40 47 46 40 41 48 47
          42 43 50 49 43 44 51 50 44 45 52 51
          45 46 53 52 46 47 54 53 47 48 55 54
          49 50 57 56 50 51 58 57 51 52 59 58
          52 53 60 59 53 54 61 60 54 55 62 61
        </DataArray>
        <DataArray type="Int32" Name="offsets" NumberOfComponents="1" format="ascii">
          4 8 12 16 20 24 28 32 36 40 44 48
          52 56 60 64 68 72 76 80 84 88 92 96
          100 104 108 112 116 120 124 128 132 136 140 144
          148 152 156 160 164 168 172 176 180 184 188 192
        </DataArray>
        <DataArray type="UInt8" Name="types" NumberOfComponents="1" format="ascii">
          9 9 9 9 9 9 9 9 9 9 9 9
          9 9 9 9 9 9 9 9 9 9 9 9
          9 9 9 9 9 9 9 9 9 9 9 9
          9 9 9 9 9 9 9 9 9 9 9 9
        </DataArray>
      </Cells>
    </Piece>
  </UnstructuredGrid>
</VTKFile>
