<?xml version="1.0"?>
<VTKFile type="UnstructuredGrid" version="0.1" byte_order="LittleEndian">
  <UnstructuredGrid>
    <Piece NumberOfCells="24" NumberOfPoints="35">
      <PointData Scalars="Sn" Vectors="velocityW">
        <DataArray type="Float32" Name="Sn" NumberOfComponents="1" format="ascii">
          0.0101045 0.0101045 0.0103705 0.0103705 0.0101045 0.0103705 0.0101045 0.0103706 0.0101045 0.0103706 0.0101045 0.0103706
          0.0101045 0.0103706 0.0133566 0.0133566 0.0133566 0.0133566 0.0133566 0.0133566 0.0133566 0.0251665 0.0251664 0.0251664
          0.0251663 0.0251663 0.0251662 0.0251661 0.131067 0.131067 0.131067 0.131066 0.131066 0.131065 0.131065
        </DataArray>
        <DataArray type="Float32" Name="Sw" NumberOfComponents="1" format="ascii">
          0.989896 0.989896 0.989629 0.989629 0.989896 0.989629 0.989896 0.989629 0.989896 0.989629 0.989896 0.989629
          0.989896 0.989629 0.986643 0.986643 0.986643 0.986643 0.986643 0.986643 0.986643 0.974833 0.974834 0.974834
          0.974834 0.974834 0.974834 0.974834 0.868933 0.868933 0.868933 0.868934 0.868934 0.868935 0.868935
        </DataArray>
        <DataArray type="Float32" Name="pn" NumberOfComponents="1" format="ascii">
          101214 101214 100246 100246 101214 100246 101214 100246 101214 100246 101214 100246
          101214 100246 100002 100002 100002 100002 100002 100002 100002 100000 100000 100000
          100000 100000 100000 100000 100000 100000 100000 100000 100000 100000 100000
        </DataArray>
        <DataArray type="Float32" Name="pw" NumberOfComponents="1" format="ascii">
          101196 101196 100180 100180 101196 100180 101196 100180 101196 100180 101196 100180
          101196 100180 99502.6 99502.6 99502.6 99502.6 99502.6 99502.6 99502.6 99051.1 99051.1 99051.1
          99051.1 99051.1 99051.1 99051.1 98750.1 98750.1 98750.1 98750.1 98750.1 98750.1 98750.1
        </DataArray>
        <DataArray type="Float32" Name="pc" NumberOfComponents="1" format="ascii">
          18.9509 18.9513 66.1898 66.1903 18.9506 66.1916 18.9515 66.1925 18.9513 66.1957 18.9518 66.1978
          18.9517 66.1971 499.46 499.46 499.46 499.46 499.46 499.46 499.461 949.238 949.238 949.237
          949.237 949.236 949.236 949.235 1249.91 1249.91 1249.91 1249.91 1249.91 1249.91 1249.91
        </DataArray>
        <DataArray type="Float32" Name="rhoW" NumberOfComponents="1" format="ascii">
          997.056 997.056 997.062 997.062 997.056 997.062 997.056 997.062 997.056 997.062 997.056 997.062
          997.056 997.062 997.102 997.102 997.102 997.102 997.102 997.102 997.102 997.209 997.209 997.209
          997.209 997.208 997.207 997.207 997.347 997.349 997.349 997.348 997.347 997.346 997.343
        </DataArray>
        <DataArray type="Float32" Name="rhoN" NumberOfComponents="1" format="ascii">
          1.16846 1.16846 1.15727 1.15727 1.16846 1.15727 1.16846 1.15727 1.16846 1.15727 1.16846 1.15727
          1.16846 1.15727 1.15516 1.15516 1.15516 1.15516 1.15516 1.15515 1.15515 1.15712 1.15713 1.15713
          1.15712 1.15711 1.1571 1.15709 1.15975 1.15977 1.15977 1.15975 1.15973 1.15971 1.15967
        </DataArray>
        <DataArray type="Float32" Name="mobW" NumberOfComponents="1" format="ascii">
          1123.57 1123.57 1122.91 1122.91 1123.57 1122.91 1123.57 1122.91 1123.57 1122.92 1123.57 1122.92
          1123.57 1122.92 1117.99 1117.99 1117.99 1118 1118.02 1118.03 1118.04 1091.47 1091.45 1091.46
          1091.5 1091.55 1091.62 1091.67 692.041 691.964 691.966 692.028 692.092 692.159 692.326
        </DataArray>
        <DataArray type="Float32" Name="mobN" NumberOfComponents="1" format="ascii">
          0.000369198 0.000369213 0.00516169 0.00516177 0.000369185 0.00516199 0.000369222 0.00516213 0.000369213 0.00516266 0.000369236 0.00516302
          0.00036923 0.00516291 0.508919 0.508919 0.508918 0.508919 0.508919 0.508919 0.50892 11.7723 11.7722 11.7721
          11.772 11.7718 11.7717 11.7715 880.295 880.297 880.293 880.281 880.268 880.255 880.227
        </DataArray>
        <DataArray type="Float32" Name="X_liquid^H2O" NumberOfComponents="1" format="ascii">
          0.999978 0.999978 0.999978 0.999978 0.999978 0.999978 0.999978 0.999978 0.999978 0.999978 0.999978 0.999978
          0.999978 0.999978 0.999978 0.999978 0.999978 0.999978 0.999978 0.999978 0.999978 0.999978 0.999978 0.999978
          0.999978 0.999978 0.999978 0.999978 0.999978 0.999978 0.999978 0.999978 0.999978 0.999978 0.999978
        </DataArray>
        <DataArray type="Float32" Name="X_liquid^Air" NumberOfComponents="1" format="ascii">
          2.18171e-05 2.18171e-05 2.16111e-05 2.16111e-05 2.18171e-05 2.16111e-05 2.18171e-05 2.16111e-05 2.18171e-05 2.1611e-05 2.18171e-05 2.1611e-05
          2.18171e-05 2.1611e-05 2.16169e-05 2.16169e-05 2.16168e-05 2.16166e-05 2.16164e-05 2.16162e-05 2.16161e-05 2.17779e-05 2.17782e-05 2.17781e-05
          2.17775e-05 2.17767e-05 2.17757e-05 2.17749e-05 2.19961e-05 2.1998e-05 2.1998e-05 2.19965e-05 2.1995e-05 2.19933e-05 2.19893e-05
        </DataArray>
        <DataArray type="Float32" Name="X_gas^H2O" NumberOfComponents="1" format="ascii">
          0.0197146 0.0197146 0.0198771 0.0198772 0.0197146 0.0198772 0.0197146 0.0198773 0.0197146 0.0198773 0.0197146 0.0198774
          0.0197146 0.0198774 0.0197363 0.0197363 0.0197365 0.019737 0.0197377 0.0197385 0.0197388 0.0192394 0.0192386 0.0192387
          0.0192406 0.0192431 0.0192462 0.0192485 0.0185964 0.0185909 0.018591 0.0185953 0.0185997 0.0186044 0.018616
        </DataArray>
        <DataArray type="Float32" Name="X_gas^Air" NumberOfComponents="1" format="ascii">
          0.980285 0.980285 0.980123 0.980123 0.980285 0.980123 0.980285 0.980123 0.980285 0.980123 0.980285 0.980123
          0.980285 0.980123 0.980264 0.980264 0.980264 0.980263 0.980262 0.980262 0.980261 0.980761 0.980761 0.980761
          0.980759 0.980757 0.980754 0.980751 0.981404 0.981409 0.981409 0.981405 0.9814 0.981396 0.981384
        </DataArray>
        <DataArray type="Float32" Name="x_liquid^H2O" NumberOfComponents="1" format="ascii">
          0.999986 0.999986 0.999987 0.999987 0.999986 0.999987 0.999986 0.999987 0.999986 0.999987 0.999986 0.999987
          0.999986 0.999987 0.999987 0.999987 0.999987 0.999987 0.999987 0.999987 0.999987 0.999986 0.999986 0.999986
          0.999986 0.999986 0.999986 0.999986 0.999986 0.999986 0.999986 0.999986 0.999986 0.999986 0.999986
        </DataArray>
        <DataArray type="Float32" Name="x_liquid^Air" NumberOfComponents="1" format="ascii">
          1.35719e-05 1.35719e-05 1.34437e-05 1.34437e-05 1.35719e-05 1.34437e-05 1.35719e-05 1.34437e-05 1.35719e-05 1.34437e-05 1.35719e-05 1.34437e-05
          1.35719e-05 1.34437e-05 1.34473e-05 1.34473e-05 1.34473e-05 1.34472e-05 1.34471e-05 1.34469e-05 1.34468e-05 1.35475e-05 1.35477e-05 1.35477e-05
          1.35473e-05 1.35468e-05 1.35461e-05 1.35456e-05 1.36833e-05 1.36845e-05 1.36844e-05 1.36835e-05 1.36825e-05 1.36815e-05 1.3679e-05
        </DataArray>
        <DataArray type="Float32" Name="x_gas^H2O" NumberOfComponents="1" format="ascii">
          0.0313167 0.0313167 0.0315719 0.0315719 0.0313167 0.031572 0.0313167 0.0315721 0.0313167 0.0315722 0.0313167 0.0315723
          0.0313167 0.0315724 0.0313509 0.0313509 0.0313511 0.0313519 0.0313531 0.0313543 0.0313548 0.0305707 0.0305694 0.0305696
          0.0305725 0.0305765 0.0305812 0.030585 0.0295603 0.0295517 0.0295518 0.0295586 0.0295655 0.0295729 0.0295911
        </DataArray>
        <DataArray type="Float32" Name="x_gas^Air" NumberOfComponents="1" format="ascii">
          0.968683 0.968683 0.968428 0.968428 0.968683 0.968428 0.968683 0.968428 0.968683 0.968428 0.968683 0.968428
          0.968683 0.968428 0.968649 0.968649 0.968649 0.968648 0.968647 0.968646 0.968645 0.969429 0.969431 0.96943
          0.969427 0.969424 0.969419 0.969415 0.97044 0.970448 0.970448 0.970441 0.970434 0.970427 0.970409
        </DataArray>
        <DataArray type="Float32" Name="porosity" NumberOfComponents="1" format="ascii">
          0.41 0.41 0.41 0.41 0.41 0.41 0.41 0.41 0.41 0.41 0.41 0.41
          0.41 0.41 0.41 0.41 0.41 0.41 0.41 0.41 0.41 0.41 0.41 0.41
          0.41 0.41 0.41 0.41 0.41 0.41 0.41 0.41 0.41 0.41 0.41
        </DataArray>
        <DataArray type="Float32" Name="temperature" NumberOfComponents="1" format="ascii">
          298.15 298.15 298.125 298.125 298.15 298.125 298.15 298.125 298.15 298.125 298.15 298.125
          298.15 298.125 297.966 297.966 297.966 297.967 297.967 297.968 297.968 297.544 297.544 297.544
          297.546 297.548 297.55 297.552 296.984 296.98 296.98 296.983 296.987 296.992 297.002
        </DataArray>
        <DataArray type="Float32" Name="phase presence" NumberOfComponents="1" format="ascii">
          3 3 3 3 3 3 3 3 3 3 3 3
          3 3 3 3 3 3 3 3 3 3 3 3
          3 3 3 3 3 3 3 3 3 3 3
        </DataArray>
        <DataArray type="Float32" Name="velocityW" NumberOfComponents="3" format="ascii">
          3.02422e-11 -9.27374e-10 0 5.91419e-11 -9.22128e-10 0 2.32121e-11 -2.97263e-09 0 4.12271e-11 -2.98671e-09 0
          1.1768e-10 -9.13581e-10 0 1.1639e-10 -2.97961e-09 0 1.53075e-10 -8.71051e-10 0 1.8886e-10 -2.91192e-09 0
          1.41629e-10 -8.12241e-10 0 1.95507e-10 -2.78851e-09 0 8.44109e-11 -7.57927e-10 0 1.32395e-10 -2.63019e-09 0
          4.43947e-11 -7.37693e-10 0 7.79567e-11 -2.54319e-09 0 -8.80342e-11 -4.90359e-09 0 -7.91592e-11 -5.06683e-09 0
          -3.50003e-11 -5.09812e-09 0 1.90143e-11 -4.98483e-09 0 7.82545e-11 -4.82098e-09 0 1.46189e-10 -4.52433e-09 0
          1.73614e-10 -4.11409e-09 0 -1.22994e-10 -8.54272e-10 0 -2.37536e-10 -1.19818e-09 0 -4.93666e-10 -1.23313e-09 0
          -7.05939e-10 -1.15635e-09 0 -7.6342e-10 -1.0915e-09 0 -4.81446e-10 -1.00415e-09 0 -2.12674e-10 -1.98761e-10 0
          4.03456e-10 3.08075e-09 0 -1.75289e-11 2.68601e-09 0 -6.99693e-10 2.68434e-09 0 -1.03794e-09 2.70417e-09 0
          -1.12518e-09 2.69419e-09 0 -1.2918e-09 2.5379e-09 0 -1.44825e-09 3.48198e-09 0
        </DataArray>
        <DataArray type="Float32" Name="velocityN" NumberOfComponents="3" format="ascii">
          -1.77838e-15 9.11678e-10 0 -7.35129e-16 9.11768e-10 0 -1.29746e-14 2.85664e-09 0 -2.43891e-14 2.85672e-09 0
          3.57516e-16 9.11697e-10 0 -2.79443e-14 2.85682e-09 0 -1.20882e-15 9.11646e-10 0 -4.05834e-14 2.85687e-09 0
          -1.2456e-15 9.1173e-10 0 -4.19636e-14 2.85711e-09 0 -1.26671e-16 9.11679e-10 0 -2.04848e-14 2.85716e-09 0
          -5.86678e-16 9.11689e-10 0 -1.81241e-14 2.85723e-09 0 -2.17217e-13 4.11282e-09 0 -3.74341e-13 4.11291e-09 0
          -7.61718e-13 4.11355e-09 0 -1.14488e-12 4.11453e-09 0 -1.22494e-12 4.11558e-09 0 -8.41246e-13 4.11657e-09 0
          -5.3039e-13 4.11686e-09 0 -1.744e-12 -1.30202e-09 0 1.00826e-11 -1.31424e-09 0 2.06362e-11 -1.30109e-09 0
          1.98947e-11 -1.30045e-09 0 1.95283e-11 -1.29572e-09 0 8.90483e-12 -1.28449e-09 0 -8.2067e-13 -1.29204e-09 0
          -1.35723e-10 -6.02807e-09 0 8.80146e-10 -6.05264e-09 0 1.89672e-09 -6.02735e-09 0 1.89845e-09 -6.02786e-09 0
          1.89621e-09 -6.02011e-09 0 9.24196e-10 -5.99946e-09 0 -4.45587e-11 -6.01503e-09 0
        </DataArray>
      </PointData>
      <CellData Scalars="process rank">
        <DataArray type="Float32" Name="process rank" NumberOfComponents="1" format="ascii">
          0 0 0 0 0 0 0 0 0 0 0 0
          0 0 0 0 0 0 0 0 0 0 0 0
        </DataArray>
      </CellData>
      <Points>
        <DataArray type="Float32" Name="Coordinates" NumberOfComponents="3" format="ascii">
          0 0 0 0.0416667 0 0 0 0.103846 0 0.0416667 0.103846 0
          0.0833333 0 0 0.0833333 0.103846 0 0.125 0 0 0.125 0.103846 0
          0.166667 0 0 0.166667 0.103846 0 0.208333 0 0 0.208333 0.103846 0
          0.25 0 0 0.25 0.103846 0 0 0.173077 0 0.0416667 0.173077 0
          0.0833333 0.173077 0 0.125 0.173077 0 0.166667 0.173077 0 0.208333 0.173077 0
          0.25 0.173077 0 0 0.219231 0 0.0416667 0.219231 0 0.0833333 0.219231 0
          0.125 0.219231 0 0.166667 0.219231 0 0.208333 0.219231 0 0.25 0.219231 0
          0 0.25 0 0.0416667 0.25 0 0.0833333 0.25 0 0.125 0.25 0
          0.166667 0.25 0 0.208333 0.25 0 0.25 0.25 0
        </DataArray>
      </Points>
      <Cells>
        <DataArray type="Int32" Name="connectivity" NumberOfComponents="1" format="ascii">
          0 1 3 2 1 4 5 3 4 6 7 5
          6 8 9 7 8 10 11 9 10 12 13 11
          2 3 15 14 3 5 16 15 5 7 17 16
          7 9 18 17 9 11 19 18 11 13 20 19
          14 15 22 21 15 16 23 22 16 17 24 23
          17 18 25 24 18 19 26 25 19 20 27 26
          21 22 29 28 22 23 30 29 23 24 31 30
          24 25 32 31 25 26 33 32 26 27 34 33
        </DataArray>
        <DataArray type="Int32" Name="offsets" NumberOfComponents="1" format="ascii">
          4 8 12 16 20 24 28 32 36 40 44 48
          52 56 60 64 68 72 76 80 84 88 92 96
        </DataArray>
        <DataArray type="UInt8" Name="types" NumberOfComponents="1" format="ascii">
          9 9 9 9 9 9 9 9 9 9 9 9
          9 9 9 9 9 9 9 9 9 9 9 9
        </DataArray>
      </Cells>
    </Piece>
  </UnstructuredGrid>
</VTKFile>
