<?xml version="1.0"?>
<VTKFile type="UnstructuredGrid" version="0.1" byte_order="LittleEndian">
  <UnstructuredGrid>
    <Piece NumberOfCells="120" NumberOfPoints="144">
      <PointData Scalars="temperature" Vectors="v">
        <DataArray type="Float32" Name="temperature" NumberOfComponents="1" format="ascii">
          297.361 297.358 298.15 298.149 297.355 298.149 297.353 298.148 297.352 298.147 297.352 298.147
          297.352 298.146 297.353 298.146 297.353 298.145 297.354 298.144 297.355 298.144 297.356 298.143
          297.357 298.142 297.359 298.142 297.36 298.141 297.365 298.141 298.15 298.15 298.15 298.15
          298.15 298.15 298.15 298.15 298.15 298.15 298.15 298.15 298.15 298.15 298.15 298.15
          298.15 298.15 298.15 298.15 298.15 298.15 298.15 298.15 298.15 298.15 298.15 298.15
          298.15 298.15 298.15 298.15 298.15 298.15 298.15 298.15 298.15 298.15 298.15 298.15
          298.15 298.15 298.15 298.15 298.15 298.15 298.15 298.15 298.15 298.15 298.15 298.15
          298.15 298.15 298.15 298.15 298.15 298.15 298.15 298.15 298.15 298.15 298.15 298.15
          298.15 298.15 298.15 298.15 298.15 298.15 298.15 298.15 298.15 298.15 298.15 298.15
          298.15 298.15 298.15 298.15 298.15 298.15 298.15 298.15 298.15 298.15 298.15 298.15
          298.15 298.15 298.15 298.15 298.15 298.15 298.15 298.15 298.15 298.15 298.15 298.15
          298.15 298.15 298.15 298.15 298.15 298.15 298.15 298.15 298.15 298.15 298.15 298.15
        </DataArray>
        <DataArray type="Float32" Name="pg" NumberOfComponents="1" format="ascii">
          100000 100000 100000 100000 100000 100000 100000 100000 100000 100000 100000 100000
          100000 100000 100000 100000 100000 100000 100000 100000 100000 100000 100000 100000
          100000 100000 100000 100000 100000 100000 100000 100000 100000 100000 100000 100000
          100000 100000 100000 100000 100000 100000 100000 100000 100000 100000 100000 100000
          100000 100000 100000 100000 100000 100000 100000 100000 100000 100000 100000 100000
          100000 100000 100000 100000 100000 100000 100000 100000 100000 100000 100000 100000
          100000 100000 100000 100000 100000 100000 100000 100000 100000 100000 100000 100000
          100000 100000 100000 100000 100000 100000 100000 100000 100000 100000 100000 100000
          100000 100000 100000 100000 100000 100000 100000 100000 100000 100000 100000 100000
          100000 100000 100000 100000 100000 100000 100000 100000 100000 100000 100000 100000
          100000 100000 100000 100000 100000 100000 100000 100000 100000 100000 100000 100000
          100000 100000 100000 100000 100000 100000 100000 100000 100000 100000 100000 100000
        </DataArray>
        <DataArray type="Float32" Name="delP" NumberOfComponents="1" format="ascii">
          0.00202824 0.00189852 0.0020099 0.00188018 0.00176356 0.00174687 0.00162778 0.00161499 0.00149164 0.00148087 0.00135569 0.00134753
          0.00121974 0.00121294 0.00108398 0.00107884 0.000948262 0.000944022 0.000812671 0.000809515 0.000677111 0.000674576 0.000541638 0.000539837
          0.000406179 0.000404845 0.000270781 0.000269967 0.000135386 0.000134962 0 0 0.00203204 0.00189634 0.00176095 0.00162532
          0.0014898 0.0013542 0.00121867 0.00108314 0.000947663 0.000812207 0.000676782 0.000541391 0.000406009 0.000270667 0.000135308 0
          0.00202281 0.00188698 0.00175254 0.0016178 0.00148329 0.00134872 0.00121403 0.00107937 0.000944531 0.000809756 0.000674815 0.000539941
          0.000404943 0.000270002 0.000134975 0 0.00203097 0.00189542 0.00175994 0.00162434 0.00148893 0.00135338 0.00121801 0.00108254
          0.00094721 0.000811804 0.000676502 0.000541154 0.000405867 0.000270561 0.000135278 0 0.00202645 0.00189072 0.00175571 0.00162037
          0.00148544 0.00135029 0.00121536 0.00108029 0.000945324 0.000810271 0.000675267 0.000540211 0.000405178 0.000270115 0.000135067 0
          0.00202979 0.00189428 0.00175893 0.00162342 0.00148811 0.00135264 0.00121738 0.00108197 0.000946746 0.0008114 0.000676195 0.000540897
          0.000405703 0.000270437 0.000135246 0 0.00202797 0.00189245 0.00175726 0.00162185 0.00148674 0.00135141 0.00121632 0.00108106
          0.000945976 0.000810762 0.000675677 0.000540495 0.000405405 0.000270245 0.000135147 0 0.00202823 0.00189271 0.00175772 0.00162221
          0.00148703 0.00135163 0.00121649 0.00108119 0.000946082 0.000810848 0.000675747 0.000540551 0.000405445 0.000270272 0.000135149 0
        </DataArray>
        <DataArray type="Float32" Name="XH2Og" NumberOfComponents="1" format="ascii">
          0.0190267 0.0190236 0.008 0.00800808 0.0190202 0.00801614 0.019018 0.00802417 0.0190166 0.00803219 0.0190162 0.0080402
          0.0190163 0.00804819 0.0190168 0.00805617 0.0190177 0.00806414 0.0190189 0.00807211 0.0190201 0.00808006 0.0190214 0.00808803
          0.0190226 0.00809601 0.0190238 0.008104 0.0190251 0.00811199 0.0190314 0.00811598 0.008 0.008 0.008 0.00800001
          0.00800001 0.00800002 0.00800003 0.00800005 0.00800007 0.00800009 0.00800011 0.00800013 0.00800016 0.00800019 0.00800022 0.00800023
          0.008 0.008 0.008 0.008 0.008 0.008 0.008 0.008 0.008 0.008 0.008 0.008
          0.008 0.008 0.008 0.00799999 0.008 0.008 0.008 0.008 0.008 0.008 0.008 0.008
          0.008 0.008 0.008 0.008 0.008 0.008 0.008 0.008 0.008 0.008 0.008 0.008
          0.008 0.008 0.008 0.008 0.008 0.008 0.008 0.008 0.008 0.008 0.008 0.008
          0.008 0.008 0.008 0.008 0.008 0.008 0.008 0.008 0.008 0.008 0.008 0.008
          0.008 0.008 0.008 0.008 0.008 0.008 0.008 0.008 0.008 0.008 0.008 0.00800001
          0.00800001 0.00800001 0.00800001 0.00800001 0.00800001 0.00800001 0.00800001 0.00800001 0.008 0.0080011 0.00800233 0.00800341
          0.0080043 0.00800502 0.0080056 0.00800608 0.00800647 0.00800679 0.00800704 0.00800724 0.00800738 0.00800747 0.00800749 0.008
        </DataArray>
        <DataArray type="Float32" Name="XAirg" NumberOfComponents="1" format="ascii">
          0.980973 0.980976 0.992 0.991992 0.98098 0.991984 0.980982 0.991976 0.980983 0.991968 0.980984 0.99196
          0.980984 0.991952 0.980983 0.991944 0.980982 0.991936 0.980981 0.991928 0.98098 0.99192 0.980979 0.991912
          0.980977 0.991904 0.980976 0.991896 0.980975 0.991888 0.980969 0.991884 0.992 0.992 0.992 0.992
          0.992 0.992 0.992 0.992 0.992 0.992 0.992 0.992 0.992 0.992 0.992 0.992
          0.992 0.992 0.992 0.992 0.992 0.992 0.992 0.992 0.992 0.992 0.992 0.992
          0.992 0.992 0.992 0.992 0.992 0.992 0.992 0.992 0.992 0.992 0.992 0.992
          0.992 0.992 0.992 0.992 0.992 0.992 0.992 0.992 0.992 0.992 0.992 0.992
          0.992 0.992 0.992 0.992 0.992 0.992 0.992 0.992 0.992 0.992 0.992 0.992
          0.992 0.992 0.992 0.992 0.992 0.992 0.992 0.992 0.992 0.992 0.992 0.992
          0.992 0.992 0.992 0.992 0.992 0.992 0.992 0.992 0.992 0.992 0.992 0.992
          0.992 0.992 0.992 0.992 0.992 0.992 0.992 0.992 0.992 0.991999 0.991998 0.991997
          0.991996 0.991995 0.991994 0.991994 0.991994 0.991993 0.991993 0.991993 0.991993 0.991993 0.991993 0.992
        </DataArray>
        <DataArray type="Float32" Name="h" NumberOfComponents="1" format="ascii">
          71296.8 71286.4 44886.1 44905.4 71275.2 44924.7 71267.5 44943.9 71263 44963 71261.3 44982.2
          71261.7 45001.3 71263.7 45020.3 71266.7 45039.4 71270.5 45058.4 71274.7 45077.4 71278.9 45096.5
          71283 45115.5 71287.2 45134.6 71291.7 45153.7 71312.9 45163.3 44886.1 44886.1 44886.1 44886.1
          44886.1 44886.2 44886.2 44886.2 44886.3 44886.3 44886.4 44886.4 44886.5 44886.6 44886.6 44886.6
          44886.1 44886.1 44886.1 44886.1 44886.1 44886.1 44886.1 44886.1 44886.1 44886.1 44886.1 44886.1
          44886.1 44886.1 44886.1 44886.1 44886.1 44886.1 44886.1 44886.1 44886.1 44886.1 44886.1 44886.1
          44886.1 44886.1 44886.1 44886.1 44886.1 44886.1 44886.1 44886.1 44886.1 44886.1 44886.1 44886.1
          44886.1 44886.1 44886.1 44886.1 44886.1 44886.1 44886.1 44886.1 44886.1 44886.1 44886.1 44886.1
          44886.1 44886.1 44886.1 44886.1 44886.1 44886.1 44886.1 44886.1 44886.1 44886.1 44886.1 44886.1
          44886.1 44886.1 44886.1 44886.1 44886.1 44886.1 44886.1 44886.1 44886.1 44886.1 44886.1 44886.1
          44886.1 44886.1 44886.1 44886.1 44886.1 44886.1 44886.1 44886.1 44886.1 44888.8 44891.9 44894.5
          44896.7 44898.5 44899.9 44901.1 44902.1 44902.9 44903.5 44904 44904.3 44904.6 44904.6 44886.1
        </DataArray>
        <DataArray type="Float32" Name="rho" NumberOfComponents="1" format="ascii">
          1.15798 1.15799 1.16259 1.16258 1.15801 1.16258 1.15802 1.16258 1.15802 1.16257 1.15802 1.16257
          1.15802 1.16257 1.15802 1.16257 1.15802 1.16256 1.15801 1.16256 1.15801 1.16256 1.158 1.16255
          1.158 1.16255 1.15799 1.16255 1.15799 1.16254 1.15796 1.16254 1.16259 1.16259 1.16259 1.16259
          1.16259 1.16259 1.16259 1.16259 1.16259 1.16259 1.16259 1.16259 1.16259 1.16259 1.16259 1.16259
          1.16259 1.16259 1.16259 1.16259 1.16259 1.16259 1.16259 1.16259 1.16259 1.16259 1.16259 1.16259
          1.16259 1.16259 1.16259 1.16259 1.16259 1.16259 1.16259 1.16259 1.16259 1.16259 1.16259 1.16259
          1.16259 1.16259 1.16259 1.16259 1.16259 1.16259 1.16259 1.16259 1.16259 1.16259 1.16259 1.16259
          1.16259 1.16259 1.16259 1.16259 1.16259 1.16259 1.16259 1.16259 1.16259 1.16259 1.16259 1.16259
          1.16259 1.16259 1.16259 1.16259 1.16259 1.16259 1.16259 1.16259 1.16259 1.16259 1.16259 1.16259
          1.16259 1.16259 1.16259 1.16259 1.16259 1.16259 1.16259 1.16259 1.16259 1.16259 1.16259 1.16259
          1.16259 1.16259 1.16259 1.16259 1.16259 1.16259 1.16259 1.16259 1.16259 1.16259 1.16259 1.16259
          1.16258 1.16258 1.16258 1.16258 1.16258 1.16258 1.16258 1.16258 1.16258 1.16258 1.16258 1.16259
        </DataArray>
        <DataArray type="Float32" Name="mu" NumberOfComponents="1" format="ascii">
          1.79267e-05 1.79267e-05 1.81222e-05 1.81221e-05 1.79266e-05 1.81219e-05 1.79265e-05 1.81218e-05 1.79265e-05 1.81217e-05 1.79265e-05 1.81215e-05
          1.79265e-05 1.81214e-05 1.79265e-05 1.81212e-05 1.79265e-05 1.81211e-05 1.79265e-05 1.81209e-05 1.79266e-05 1.81208e-05 1.79266e-05 1.81206e-05
          1.79266e-05 1.81205e-05 1.79267e-05 1.81203e-05 1.79267e-05 1.81202e-05 1.79269e-05 1.81201e-05 1.81222e-05 1.81222e-05 1.81222e-05 1.81222e-05
          1.81222e-05 1.81222e-05 1.81222e-05 1.81222e-05 1.81222e-05 1.81222e-05 1.81222e-05 1.81222e-05 1.81222e-05 1.81222e-05 1.81222e-05 1.81222e-05
          1.81222e-05 1.81222e-05 1.81222e-05 1.81222e-05 1.81222e-05 1.81222e-05 1.81222e-05 1.81222e-05 1.81222e-05 1.81222e-05 1.81222e-05 1.81222e-05
          1.81222e-05 1.81222e-05 1.81222e-05 1.81222e-05 1.81222e-05 1.81222e-05 1.81222e-05 1.81222e-05 1.81222e-05 1.81222e-05 1.81222e-05 1.81222e-05
          1.81222e-05 1.81222e-05 1.81222e-05 1.81222e-05 1.81222e-05 1.81222e-05 1.81222e-05 1.81222e-05 1.81222e-05 1.81222e-05 1.81222e-05 1.81222e-05
          1.81222e-05 1.81222e-05 1.81222e-05 1.81222e-05 1.81222e-05 1.81222e-05 1.81222e-05 1.81222e-05 1.81222e-05 1.81222e-05 1.81222e-05 1.81222e-05
          1.81222e-05 1.81222e-05 1.81222e-05 1.81222e-05 1.81222e-05 1.81222e-05 1.81222e-05 1.81222e-05 1.81222e-05 1.81222e-05 1.81222e-05 1.81222e-05
          1.81222e-05 1.81222e-05 1.81222e-05 1.81222e-05 1.81222e-05 1.81222e-05 1.81222e-05 1.81222e-05 1.81222e-05 1.81222e-05 1.81222e-05 1.81222e-05
          1.81222e-05 1.81222e-05 1.81222e-05 1.81222e-05 1.81222e-05 1.81222e-05 1.81222e-05 1.81222e-05 1.81222e-05 1.81222e-05 1.81222e-05 1.81222e-05
          1.81222e-05 1.81222e-05 1.81222e-05 1.81221e-05 1.81221e-05 1.81221e-05 1.81221e-05 1.81221e-05 1.81221e-05 1.81221e-05 1.81221e-05 1.81222e-05
        </DataArray>
        <DataArray type="Float32" Name="v" NumberOfComponents="3" format="ascii">
          0.000913725 1.24925e-05 0 0.000915845 1.31585e-05 0 1.11851 0 0 1.11893 -0.000212715 0
          0.000917975 1.31977e-05 0 1.1197 -0.000226479 0 0.000918633 1.3145e-05 0 1.12031 -0.000177746 0
          0.00091916 1.30882e-05 0 1.12085 -0.000139162 0 0.000919439 1.30182e-05 0 1.12123 -9.91063e-05 0
          0.000919677 1.29674e-05 0 1.12154 -7.2589e-05 0 0.000919808 1.29172e-05 0 1.12175 -4.8969e-05 0
          0.000919923 1.28798e-05 0 1.12193 -3.3543e-05 0 0.000919986 1.28433e-05 0 1.12205 -2.02725e-05 0
          0.000920041 1.28147e-05 0 1.12214 -1.15206e-05 0 0.00092007 1.28035e-05 0 1.12221 -4.19289e-06 0
          0.000920095 1.27943e-05 0 1.12226 9.31954e-07 0 0.000920103 1.27744e-05 0 1.12229 5.26357e-06 0
          0.000920121 1.28458e-05 0 1.12231 9.34225e-06 0 0.000920109 1.24735e-05 0 1.12232 1.02663e-05 0
          2.1001 0 0 2.10015 -0.0014171 0 2.10037 -0.00155933 0 2.10071 -0.00128656 0
          2.10104 -0.00104251 0 2.10134 -0.000781554 0 2.1016 -0.000600269 0 2.1018 -0.000438202 0
          2.10196 -0.000328525 0 2.10208 -0.000234681 0 2.10217 -0.000170801 0 2.10224 -0.000116764 0
          2.10229 -7.85381e-05 0 2.10233 -4.58254e-05 0 2.10235 -1.95955e-05 0 2.10236 3.59547e-06 0
          2.88064 0 0 2.88051 -0.000678428 0 2.88031 -0.0010995 0 2.88029 -0.00117445 0
          2.88035 -0.001075 0 2.88048 -0.000910947 0 2.88062 -0.000741157 0 2.88076 -0.00058311 0
          2.88089 -0.000451211 0 2.881 -0.000340396 0 2.8811 -0.00025378 0 2.88117 -0.000182994 0
          2.88122 -0.00012825 0 2.88126 -8.19337e-05 0 2.88129 -4.33194e-05 0 2.8813 -5.65407e-06 0
          3.37718 0 0 3.37714 -0.000934518 0 3.37702 -0.00131798 0 3.37688 -0.00142963 0
          3.37677 -0.00137668 0 3.3767 -0.00122476 0 3.37667 -0.00104621 0 3.37666 -0.000856176 0
          3.37666 -0.000688265 0 3.37668 -0.000534991 0 3.37669 -0.000410686 0 3.3767 -0.000302689 0
          3.37671 -0.000216734 0 3.37672 -0.000140869 0 3.37673 -7.66172e-05 0 3.37673 -1.33154e-05 0
          3.48529 0 0 3.4852 -0.000273224 0 3.485 -0.000566799 0 3.48479 -0.000733736 0
          3.48458 -0.000788977 0 3.48441 -0.000764741 0 3.48427 -0.000692175 0 3.48417 -0.000596267 0
          3.48409 -0.000494675 0 3.48404 -0.000396988 0 3.484 -0.000309925 0 3.48397 -0.000233579 0
          3.48395 -0.00016942 0 3.48394 -0.000112974 0 3.48394 -6.39077e-05 0 3.48393 -1.52575e-05 0
          3.07414 0 0 3.07409 -0.000364915 0 3.07397 -0.000530211 0 3.0738 -0.000622859 0
          3.07361 -0.000651453 0 3.07341 -0.000632784 0 3.07323 -0.000581362 0 3.07308 -0.00050976 0
          3.07294 -0.000432158 0 3.07284 -0.000353019 0 3.07275 -0.000280845 0 3.07268 -0.000214103 0
          3.07263 -0.00015647 0 3.0726 -0.000103794 0 3.07257 -5.66982e-05 0 3.07256 -1.043e-05 0
          1.98047 0 0 1.98042 0.000143745 0 1.98031 0.000120639 0 1.98018 8.1674e-05 0
          1.98003 4.56457e-05 0 1.97989 2.23745e-05 0 1.97975 7.78973e-06 0 1.97962 1.12667e-06 0
          1.97951 -1.07862e-06 0 1.97942 -1.00498e-06 0 1.97935 7.3593e-08 0 1.9793 5.92985e-07 0
          1.97925 8.229e-07 0 1.97922 -5.05946e-08 0 1.9792 -9.9214e-07 0 1.9792 -3.51479e-06 0
          0.00134 0 0 0.00134 0 0 0.00134 0 0 0.00134 0 0
          0.00134 0 0 0.00134 0 0 0.00134 0 0 0.00134 0 0
          0.00134 0 0 0.00134 0 0 0.00134 0 0 0.00134 0 0
          0.00134 0 0 0.00134 0 0 0.00134 0 0 0.00134 0 0
        </DataArray>
      </PointData>
      <Points>
        <DataArray type="Float32" Name="Coordinates" NumberOfComponents="3" format="ascii">
          0 0.25 0 0.0166667 0.25 0 0 0.271861 0 0.0166667 0.271861 0
          0.0333333 0.25 0 0.0333333 0.271861 0 0.05 0.25 0 0.05 0.271861 0
          0.0666667 0.25 0 0.0666667 0.271861 0 0.0833333 0.25 0 0.0833333 0.271861 0
          0.1 0.25 0 0.1 0.271861 0 0.116667 0.25 0 0.116667 0.271861 0
          0.133333 0.25 0 0.133333 0.271861 0 0.15 0.25 0 0.15 0.271861 0
          0.166667 0.25 0 0.166667 0.271861 0 0.183333 0.25 0 0.183333 0.271861 0
          0.2 0.25 0 0.2 0.271861 0 0.216667 0.25 0 0.216667 0.271861 0
          0.233333 0.25 0 0.233333 0.271861 0 0.25 0.25 0 0.25 0.271861 0
          0 0.295908 0 0.0166667 0.295908 0 0.0333333 0.295908 0 0.05 0.295908 0
          0.0666667 0.295908 0 0.0833333 0.295908 0 0.1 0.295908 0 0.116667 0.295908 0
          0.133333 0.295908 0 0.15 0.295908 0 0.166667 0.295908 0 0.183333 0.295908 0
          0.2 0.295908 0 0.216667 0.295908 0 0.233333 0.295908 0 0.25 0.295908 0
          0 0.32236 0 0.0166667 0.32236 0 0.0333333 0.32236 0 0.05 0.32236 0
          0.0666667 0.32236 0 0.0833333 0.32236 0 0.1 0.32236 0 0.116667 0.32236 0
          0.133333 0.32236 0 0.15 0.32236 0 0.166667 0.32236 0 0.183333 0.32236 0
          0.2 0.32236 0 0.216667 0.32236 0 0.233333 0.32236 0 0.25 0.32236 0
          0 0.351457 0 0.0166667 0.351457 0 0.0333333 0.351457 0 0.05 0.351457 0
          0.0666667 0.351457 0 0.0833333 0.351457 0 0.1 0.351457 0 0.116667 0.351457 0
          0.133333 0.351457 0 0.15 0.351457 0 0.166667 0.351457 0 0.183333 0.351457 0
          0.2 0.351457 0 0.216667 0.351457 0 0.233333 0.351457 0 0.25 0.351457 0
          0 0.383464 0 0.0166667 0.383464 0 0.0333333 0.383464 0 0.05 0.383464 0
          0.0666667 0.383464 0 0.0833333 0.383464 0 0.1 0.383464 0 0.116667 0.383464 0
          0.133333 0.383464 0 0.15 0.383464 0 0.166667 0.383464 0 0.183333 0.383464 0
          0.2 0.383464 0 0.216667 0.383464 0 0.233333 0.383464 0 0.25 0.383464 0
          0 0.418671 0 0.0166667 0.418671 0 0.0333333 0.418671 0 0.05 0.418671 0
          0.0666667 0.418671 0 0.0833333 0.418671 0 0.1 0.418671 0 0.116667 0.418671 0
          0.133333 0.418671 0 0.15 0.418671 0 0.166667 0.418671 0 0.183333 0.418671 0
          0.2 0.418671 0 0.216667 0.418671 0 0.233333 0.418671 0 0.25 0.418671 0
          0 0.457399 0 0.0166667 0.457399 0 0.0333333 0.457399 0 0.05 0.457399 0
          0.0666667 0.457399 0 0.0833333 0.457399 0 0.1 0.457399 0 0.116667 0.457399 0
          0.133333 0.457399 0 0.15 0.457399 0 0.166667 0.457399 0 0.183333 0.457399 0
          0.2 0.457399 0 0.216667 0.457399 0 0.233333 0.457399 0 0.25 0.457399 0
          0 0.5 0 0.0166667 0.5 0 0.0333333 0.5 0 0.05 0.5 0
          0.0666667 0.5 0 0.0833333 0.5 0 0.1 0.5 0 0.116667 0.5 0
          0.133333 0.5 0 0.15 0.5 0 0.166667 0.5 0 0.183333 0.5 0
          0.2 0.5 0 0.216667 0.5 0 0.233333 0.5 0 0.25 0.5 0
        </DataArray>
      </Points>
      <Cells>
        <DataArray type="Int32" Name="connectivity" NumberOfComponents="1" format="ascii">
          0 1 3 2 1 4 5 3 4 6 7 5
          6 8 9 7 8 10 11 9 10 12 13 11
          12 14 15 13 14 16 17 15 16 18 19 17
          18 20 21 19 20 22 23 21 22 24 25 23
          24 26 27 25 26 28 29 27 28 30 31 29
          2 3 33 32 3 5 34 33 5 7 35 34
          7 9 36 35 9 11 37 36 11 13 38 37
          13 15 39 38 15 17 40 39 17 19 41 40
          19 21 42 41 21 23 43 42 23 25 44 43
          25 27 45 44 27 29 46 45 29 31 47 46
          32 33 49 48 33 34 50 49 34 35 51 50
          35 36 52 51 36 37 53 52 37 38 54 53
          38 39 55 54 39 40 56 55 40 41 57 56
          41 42 58 57 42 43 59 58 43 44 60 59
          44 45 61 60 45 46 62 61 46 47 63 62
          48 49 65 64 49 50 66 65 50 51 67 66
          51 52 68 67 52 53 69 68 53 54 70 69
          54 55 71 70 55 56 72 71 56 57 73 72
          57 58 74 73 58 59 75 74 59 60 76 75
          60 61 77 76 61 62 78 77 62 63 79 78
          64 65 81 80 65 66 82 81 66 67 83 82
          67 68 84 83 68 69 85 84 69 70 86 85
          70 71 87 86 71 72 88 87 72 73 89 88
          73 74 90 89 74 75 91 90 75 76 92 91
          76 77 93 92 77 78 94 93 78 79 95 94
          80 81 97 96 81 82 98 97 82 83 99 98
          83 84 100 99 84 85 101 100 85 86 102 101
          86 87 103 102 87 88 104 103 88 89 105 104
          89 90 106 105 90 91 107 106 91 92 108 107
          92 93 109 108 93 94 110 109 94 95 111 110
          96 97 113 112 97 98 114 113 98 99 115 114
          99 100 116 115 100 101 117 116 101 102 118 117
          102 103 119 118 103 104 120 119 104 105 121 120
          105 106 122 121 106 107 123 122 107 108 124 123
          108 109 125 124 109 110 126 125 110 111 127 126
          112 113 129 128 113 114 130 129 114 115 131 130
          115 116 132 131 116 117 133 132 117 118 134 133
          118 119 135 134 119 120 136 135 120 121 137 136
          121 122 138 137 122 123 139 138 123 124 140 139
          124 125 141 140 125 126 142 141 126 127 143 142
        </DataArray>
        <DataArray type="Int32" Name="offsets" NumberOfComponents="1" format="ascii">
          4 8 12 16 20 24 28 32 36 40 44 48
          52 56 60 64 68 72 76 80 84 88 92 96
          100 104 108 112 116 120 124 128 132 136 140 144
          148 152 156 160 164 168 172 176 180 184 188 192
          196 200 204 208 212 216 220 224 228 232 236 240
          244 248 252 256 260 264 268 272 276 280 284 288
          292 296 300 304 308 312 316 320 324 328 332 336
          340 344 348 352 356 360 364 368 372 376 380 384
          388 392 396 400 404 408 412 416 420 424 428 432
          436 440 444 448 452 456 460 464 468 472 476 480
        </DataArray>
        <DataArray type="UInt8" Name="types" NumberOfComponents="1" format="ascii">
          9 9 9 9 9 9 9 9 9 9 9 9
          9 9 9 9 9 9 9 9 9 9 9 9
          9 9 9 9 9 9 9 9 9 9 9 9
          9 9 9 9 9 9 9 9 9 9 9 9
          9 9 9 9 9 9 9 9 9 9 9 9
          9 9 9 9 9 9 9 9 9 9 9 9
          9 9 9 9 9 9 9 9 9 9 9 9
          9 9 9 9 9 9 9 9 9 9 9 9
          9 9 9 9 9 9 9 9 9 9 9 9
          9 9 9 9 9 9 9 9 9 9 9 9
        </DataArray>
      </Cells>
    </Piece>
  </UnstructuredGrid>
</VTKFile>
