<?xml version="1.0"?>
<VTKFile type="UnstructuredGrid" version="0.1" byte_order="LittleEndian">
  <UnstructuredGrid>
    <Piece NumberOfCells="24" NumberOfPoints="35">
      <PointData Scalars="Sn" Vectors="velocityW">
        <DataArray type="Float32" Name="Sn" NumberOfComponents="1" format="ascii">
          0.0100962 0.0100962 0.0103542 0.0103542 0.0100962 0.0103542 0.0100962 0.0103541 0.0100962 0.0103541 0.0100962 0.0103541
          0.0100962 0.0103541 0.0136465 0.0136465 0.0136465 0.0136465 0.0136465 0.0136464 0.0136464 0.0300269 0.0300269 0.0300269
          0.0300268 0.0300268 0.0300267 0.0300267 0.155735 0.155735 0.155735 0.155735 0.155735 0.155735 0.155735
        </DataArray>
        <DataArray type="Float32" Name="Sw" NumberOfComponents="1" format="ascii">
          0.989904 0.989904 0.989646 0.989646 0.989904 0.989646 0.989904 0.989646 0.989904 0.989646 0.989904 0.989646
          0.989904 0.989646 0.986354 0.986354 0.986354 0.986354 0.986354 0.986354 0.986354 0.969973 0.969973 0.969973
          0.969973 0.969973 0.969973 0.969973 0.844265 0.844265 0.844265 0.844265 0.844265 0.844265 0.844265
        </DataArray>
        <DataArray type="Float32" Name="pn" NumberOfComponents="1" format="ascii">
          101179 101179 100209 100209 101179 100209 101179 100209 101179 100209 101179 100209
          101179 100209 100001 100001 100001 100001 100001 100001 100001 100000 100000 100000
          100000 100000 100000 100000 100000 100000 100000 100000 100000 100000 100000
        </DataArray>
        <DataArray type="Float32" Name="pw" NumberOfComponents="1" format="ascii">
          101161 101161 100146 100146 101161 100146 101161 100146 101161 100146 101161 100146
          101161 100146 99468.4 99468.4 99468.4 99468.4 99468.4 99468.4 99468.4 99016.9 99016.9 99016.9
          99016.9 99016.9 99016.9 99016.9 98715.8 98715.8 98715.8 98715.8 98715.8 98715.8 98715.8
        </DataArray>
        <DataArray type="Float32" Name="pc" NumberOfComponents="1" format="ascii">
          17.4543 17.4544 63.3252 63.3242 17.4544 63.3236 17.4541 63.3182 17.4541 63.3159 17.454 63.3143
          17.4539 63.314 532.445 532.445 532.444 532.444 532.443 532.443 532.443 983.465 983.464 983.464
          983.464 983.464 983.463 983.463 1284.22 1284.22 1284.22 1284.22 1284.22 1284.22 1284.22
        </DataArray>
        <DataArray type="Float32" Name="rhoW" NumberOfComponents="1" format="ascii">
          997.055 997.055 997.075 997.075 997.055 997.075 997.055 997.075 997.055 997.075 997.055 997.075
          997.055 997.075 997.18 997.18 997.18 997.18 997.181 997.181 997.181 997.402 997.402 997.403
          997.404 997.405 997.405 997.406 997.636 997.638 997.639 997.641 997.643 997.644 997.645
        </DataArray>
        <DataArray type="Float32" Name="rhoN" NumberOfComponents="1" format="ascii">
          1.16804 1.16804 1.15708 1.15708 1.16804 1.15708 1.16804 1.15708 1.16804 1.15708 1.16804 1.15708
          1.16804 1.15708 1.15659 1.15659 1.15659 1.1566 1.1566 1.1566 1.1566 1.16081 1.16082 1.16083
          1.16085 1.16086 1.16087 1.16088 1.16541 1.16544 1.16548 1.16551 1.16554 1.16556 1.16558
        </DataArray>
        <DataArray type="Float32" Name="mobW" NumberOfComponents="1" format="ascii">
          1123.44 1123.44 1121.45 1121.45 1123.44 1121.44 1123.44 1121.44 1123.44 1121.44 1123.44 1121.44
          1123.44 1121.44 1110 1109.99 1109.98 1109.96 1109.94 1109.93 1109.92 1060.47 1060.43 1060.35
          1060.27 1060.2 1060.15 1060.12 613.95 613.84 613.731 613.633 613.547 613.474 613.42
        </DataArray>
        <DataArray type="Float32" Name="mobN" NumberOfComponents="1" format="ascii">
          0.000310742 0.000310747 0.00469838 0.00469822 0.000310746 0.00469813 0.000310735 0.00469727 0.000310734 0.00469693 0.000310731 0.00469666
          0.000310729 0.00469662 0.605067 0.605067 0.605066 0.605066 0.605065 0.605065 0.605065 21.0231 21.0232 21.0232
          21.0232 21.0233 21.0232 21.0233 1293.75 1293.78 1293.79 1293.81 1293.82 1293.84 1293.85
        </DataArray>
        <DataArray type="Float32" Name="X_liquid^H2O" NumberOfComponents="1" format="ascii">
          0.999978 0.999978 0.999978 0.999978 0.999978 0.999978 0.999978 0.999978 0.999978 0.999978 0.999978 0.999978
          0.999978 0.999978 0.999978 0.999978 0.999978 0.999978 0.999978 0.999978 0.999978 0.999978 0.999978 0.999978
          0.999978 0.999978 0.999978 0.999978 0.999978 0.999978 0.999978 0.999978 0.999978 0.999978 0.999978
        </DataArray>
        <DataArray type="Float32" Name="X_liquid^Air" NumberOfComponents="1" format="ascii">
          2.18089e-05 2.18089e-05 2.16225e-05 2.16225e-05 2.18089e-05 2.16225e-05 2.18089e-05 2.16225e-05 2.18089e-05 2.16226e-05 2.18089e-05 2.16226e-05
          2.18089e-05 2.16226e-05 2.17336e-05 2.17338e-05 2.1734e-05 2.17343e-05 2.17346e-05 2.17348e-05 2.17349e-05 2.20853e-05 2.20861e-05 2.20874e-05
          2.20886e-05 2.20897e-05 2.20906e-05 2.2091e-05 2.24831e-05 2.24863e-05 2.24894e-05 2.24923e-05 2.24947e-05 2.24969e-05 2.24984e-05
        </DataArray>
        <DataArray type="Float32" Name="X_gas^H2O" NumberOfComponents="1" format="ascii">
          0.0197296 0.0197296 0.0198295 0.0198295 0.0197296 0.0198293 0.0197296 0.0198293 0.0197296 0.0198292 0.0197296 0.0198292
          0.0197296 0.0198292 0.0193747 0.0193743 0.0193736 0.0193725 0.0193716 0.019371 0.0193708 0.0183463 0.0183442 0.0183404
          0.0183368 0.0183336 0.0183311 0.0183299 0.0172768 0.0172686 0.0172603 0.0172529 0.0172465 0.0172409 0.0172368
        </DataArray>
        <DataArray type="Float32" Name="X_gas^Air" NumberOfComponents="1" format="ascii">
          0.98027 0.98027 0.98017 0.98017 0.98027 0.980171 0.98027 0.980171 0.98027 0.980171 0.98027 0.980171
          0.98027 0.980171 0.980625 0.980626 0.980626 0.980627 0.980628 0.980629 0.980629 0.981654 0.981656 0.98166
          0.981663 0.981666 0.981669 0.98167 0.982723 0.982731 0.98274 0.982747 0.982754 0.982759 0.982763
        </DataArray>
        <DataArray type="Float32" Name="x_liquid^H2O" NumberOfComponents="1" format="ascii">
          0.999986 0.999986 0.999987 0.999987 0.999986 0.999987 0.999986 0.999987 0.999986 0.999987 0.999986 0.999987
          0.999986 0.999987 0.999986 0.999986 0.999986 0.999986 0.999986 0.999986 0.999986 0.999986 0.999986 0.999986
          0.999986 0.999986 0.999986 0.999986 0.999986 0.999986 0.999986 0.999986 0.999986 0.999986 0.999986
        </DataArray>
        <DataArray type="Float32" Name="x_liquid^Air" NumberOfComponents="1" format="ascii">
          1.35668e-05 1.35668e-05 1.34508e-05 1.34508e-05 1.35668e-05 1.34509e-05 1.35668e-05 1.34509e-05 1.35668e-05 1.34509e-05 1.35668e-05 1.34509e-05
          1.35668e-05 1.34509e-05 1.352e-05 1.35201e-05 1.35202e-05 1.35204e-05 1.35206e-05 1.35207e-05 1.35208e-05 1.37387e-05 1.37392e-05 1.374e-05
          1.37408e-05 1.37415e-05 1.37421e-05 1.37423e-05 1.39862e-05 1.39882e-05 1.39901e-05 1.39919e-05 1.39934e-05 1.39948e-05 1.39957e-05
        </DataArray>
        <DataArray type="Float32" Name="x_gas^H2O" NumberOfComponents="1" format="ascii">
          0.0313404 0.0313404 0.0314972 0.0314971 0.0313404 0.0314968 0.0313404 0.0314969 0.0313404 0.0314967 0.0313404 0.0314966
          0.0313404 0.0314966 0.0307831 0.0307825 0.0307814 0.0307797 0.0307783 0.0307773 0.030777 0.0291672 0.0291638 0.0291579
          0.0291522 0.0291473 0.0291433 0.0291414 0.0274846 0.0274716 0.0274586 0.0274469 0.0274368 0.0274281 0.0274216
        </DataArray>
        <DataArray type="Float32" Name="x_gas^Air" NumberOfComponents="1" format="ascii">
          0.96866 0.96866 0.968503 0.968503 0.96866 0.968503 0.96866 0.968503 0.96866 0.968503 0.96866 0.968503
          0.96866 0.968503 0.969217 0.969217 0.969219 0.96922 0.969222 0.969223 0.969223 0.970833 0.970836 0.970842
          0.970848 0.970853 0.970857 0.970859 0.972515 0.972528 0.972541 0.972553 0.972563 0.972572 0.972578
        </DataArray>
        <DataArray type="Float32" Name="porosity" NumberOfComponents="1" format="ascii">
          0.41 0.41 0.41 0.41 0.41 0.41 0.41 0.41 0.41 0.41 0.41 0.41
          0.41 0.41 0.41 0.41 0.41 0.41 0.41 0.41 0.41 0.41 0.41 0.41
          0.41 0.41 0.41 0.41 0.41 0.41 0.41 0.41 0.41 0.41 0.41
        </DataArray>
        <DataArray type="Float32" Name="temperature" NumberOfComponents="1" format="ascii">
          298.15 298.15 298.072 298.072 298.15 298.072 298.15 298.072 298.15 298.072 298.15 298.072
          298.15 298.072 297.66 297.659 297.659 297.658 297.657 297.657 297.656 296.759 296.757 296.754
          296.75 296.748 296.745 296.744 295.775 295.768 295.76 295.753 295.747 295.742 295.738
        </DataArray>
        <DataArray type="Float32" Name="phase presence" NumberOfComponents="1" format="ascii">
          3 3 3 3 3 3 3 3 3 3 3 3
          3 3 3 3 3 3 3 3 3 3 3 3
          3 3 3 3 3 3 3 3 3 3 3
        </DataArray>
        <DataArray type="Float32" Name="velocityW" NumberOfComponents="3" format="ascii">
          -1.00425e-10 -4.13855e-10 0 -1.86365e-10 -4.49959e-10 0 -1.60479e-10 -1.92319e-09 0 -2.80949e-10 -2.03591e-09 0
          -3.07067e-10 -5.77527e-10 0 -4.58183e-10 -2.29042e-09 0 -3.3987e-10 -6.69085e-10 0 -4.972e-10 -2.53619e-09 0
          -2.91147e-10 -7.80743e-10 0 -4.12149e-10 -2.75226e-09 0 -1.66614e-10 -8.58019e-10 0 -2.3627e-10 -2.91396e-09 0
          -8.88453e-11 -8.85612e-10 0 -1.27696e-10 -2.97912e-09 0 -2.67508e-10 -2.41523e-09 0 -3.69433e-10 -2.81915e-09 0
          -4.74887e-10 -3.34404e-09 0 -4.45775e-10 -3.80225e-09 0 -3.65895e-10 -4.14828e-09 0 -2.32444e-10 -4.45326e-09 0
          -1.46232e-10 -4.63491e-09 0 2.00665e-11 1.20781e-08 0 2.14768e-10 1.12624e-08 0 4.92574e-10 1.06832e-08 0
          5.57202e-10 1.02532e-08 0 4.67166e-10 9.92588e-09 0 2.63328e-10 9.61257e-09 0 1.31049e-10 9.32889e-09 0
          7.43901e-10 2.55541e-08 0 9.50104e-10 2.45413e-08 0 1.18014e-09 2.40511e-08 0 1.14123e-09 2.37077e-08 0
          9.69251e-10 2.34246e-08 0 6.92392e-10 2.31618e-08 0 5.24769e-10 2.2855e-08 0
        </DataArray>
        <DataArray type="Float32" Name="velocityN" NumberOfComponents="3" format="ascii">
          2.47956e-16 7.68136e-10 0 2.45102e-16 7.6815e-10 0 2.08391e-14 2.24812e-09 0 1.70052e-14 2.24806e-09 0
          1.63989e-15 7.68149e-10 0 6.78035e-14 2.24801e-09 0 2.04038e-15 7.68125e-10 0 8.5931e-14 2.24762e-09 0
          9.60381e-16 7.68124e-10 0 4.36571e-14 2.24746e-09 0 5.51877e-16 7.68118e-10 0 2.20823e-14 2.24735e-09 0
          2.26214e-16 7.68111e-10 0 6.27672e-15 2.24732e-09 0 3.76551e-13 1.73892e-09 0 9.84594e-13 1.73801e-09 0
          2.57037e-12 1.73429e-09 0 2.94943e-12 1.73492e-09 0 2.10973e-12 1.73187e-09 0 1.03783e-12 1.73105e-09 0
          2.06964e-13 1.72958e-09 0 -3.53835e-12 -1.49123e-08 0 2.08574e-11 -1.49417e-08 0 4.44099e-11 -1.49298e-08 0
          4.46857e-11 -1.49342e-08 0 4.48279e-11 -1.49414e-08 0 2.16403e-11 -1.49265e-08 0 -5.70678e-13 -1.49513e-08 0
          -2.19653e-10 -2.95743e-08 0 1.27339e-09 -2.96314e-08 0 2.76473e-09 -2.96003e-08 0 2.76758e-09 -2.96111e-08 0
          2.76552e-09 -2.96198e-08 0 1.33422e-09 -2.95884e-08 0 -9.04931e-11 -2.96351e-08 0
        </DataArray>
      </PointData>
      <CellData Scalars="process rank">
        <DataArray type="Float32" Name="process rank" NumberOfComponents="1" format="ascii">
          0 0 0 0 0 0 0 0 0 0 0 0
          0 0 0 0 0 0 0 0 0 0 0 0
        </DataArray>
      </CellData>
      <Points>
        <DataArray type="Float32" Name="Coordinates" NumberOfComponents="3" format="ascii">
          0 0 0 0.0416667 0 0 0 0.103846 0 0.0416667 0.103846 0
          0.0833333 0 0 0.0833333 0.103846 0 0.125 0 0 0.125 0.103846 0
          0.166667 0 0 0.166667 0.103846 0 0.208333 0 0 0.208333 0.103846 0
          0.25 0 0 0.25 0.103846 0 0 0.173077 0 0.0416667 0.173077 0
          0.0833333 0.173077 0 0.125 0.173077 0 0.166667 0.173077 0 0.208333 0.173077 0
          0.25 0.173077 0 0 0.219231 0 0.0416667 0.219231 0 0.0833333 0.219231 0
          0.125 0.219231 0 0.166667 0.219231 0 0.208333 0.219231 0 0.25 0.219231 0
          0 0.25 0 0.0416667 0.25 0 0.0833333 0.25 0 0.125 0.25 0
          0.166667 0.25 0 0.208333 0.25 0 0.25 0.25 0
        </DataArray>
      </Points>
      <Cells>
        <DataArray type="Int32" Name="connectivity" NumberOfComponents="1" format="ascii">
          0 1 3 2 1 4 5 3 4 6 7 5
          6 8 9 7 8 10 11 9 10 12 13 11
          2 3 15 14 3 5 16 15 5 7 17 16
          7 9 18 17 9 11 19 18 11 13 20 19
          14 15 22 21 15 16 23 22 16 17 24 23
          17 18 25 24 18 19 26 25 19 20 27 26
          21 22 29 28 22 23 30 29 23 24 31 30
          24 25 32 31 25 26 33 32 26 27 34 33
        </DataArray>
        <DataArray type="Int32" Name="offsets" NumberOfComponents="1" format="ascii">
          4 8 12 16 20 24 28 32 36 40 44 48
          52 56 60 64 68 72 76 80 84 88 92 96
        </DataArray>
        <DataArray type="UInt8" Name="types" NumberOfComponents="1" format="ascii">
          9 9 9 9 9 9 9 9 9 9 9 9
          9 9 9 9 9 9 9 9 9 9 9 9
        </DataArray>
      </Cells>
    </Piece>
  </UnstructuredGrid>
</VTKFile>
