<?xml version="1.0"?>
<VTKFile type="UnstructuredGrid" version="0.1" byte_order="LittleEndian">
  <UnstructuredGrid>
    <Piece NumberOfCells="150" NumberOfPoints="176">
      <PointData Scalars="P" Vectors="v">
        <DataArray type="Float32" Name="P" NumberOfComponents="1" format="ascii">
          100015 99988.6 100015 99988.6 100014 100014 99989.6 99989.6 100012 100012 99991.3 99991.2
          100010 100010 99993.5 99993 100008 100008 99995 99994.8 100006 100006 99996.5 99996.5
          100004 100004 99998.2 99998.2 100002 100002 100000 100000 100018 99987.6 100014 99989.5
          100012 99991.3 100010 99993.3 100008 99994.9 100006 99996.5 100004 99998.2 100002 100000
          100017 99987.4 100014 99989.2 100012 99991.1 100010 99992.9 100008 99994.7 100006 99996.5
          100004 99998.2 100003 100000 100017 99987.1 100015 99989.1 100012 99991 100010 99993
          100008 99994.7 100006 99996.5 100005 99998.2 100003 100000 100017 99987.1 100015 99989
          100012 99990.9 100010 99992.7 100009 99994.5 100007 99996.4 100005 99998.2 100003 100000
          100017 99987.1 100015 99989.1 100012 99991 100010 99992.8 100008 99994.6 100006 99996.4
          100005 99998.2 100003 100000 100017 99987.4 100014 99989.2 100012 99991 100010 99992.8
          100008 99994.6 100006 99996.4 100004 99998.2 100003 100000 100018 99987.6 100014 99989.4
          100012 99991.1 100010 99992.9 100008 99994.7 100006 99996.5 100004 99998.2 100002 100000
          100015 99988.6 100014 99989.6 100012 99991.2 100010 99992.9 100008 99994.7 100006 99996.5
          100004 99998.2 100002 100000 100015 99988.6 100014 99989.5 100012 99991.2 100010 99992.9
          100008 99994.7 100006 99996.5 100004 99998.2 100002 100000
        </DataArray>
        <DataArray type="Float32" Name="delP" NumberOfComponents="1" format="ascii">
          14.9338 -11.4362 14.9567 -11.4133 13.6824 13.6849 -10.4036 -10.4002 11.9229 11.9373 -8.69524 -8.76974
          9.67029 10.103 -6.48018 -6.96799 7.95387 8.18377 -5.02068 -5.19899 6.31549 6.35072 -3.54492 -3.55011
          4.40081 4.40196 -1.7632 -1.76239 2.37932 2.36773 0 0 17.6634 -12.3723 14.1585 -10.5439
          12.0087 -8.71702 9.8455 -6.65627 8.05303 -5.06175 6.30122 -3.49895 4.39632 -1.76848 2.43834 0
          16.9772 -12.621 14.4644 -10.7639 12.2541 -8.92825 10.2816 -7.12967 8.31616 -5.29711 6.386 -3.5384
          4.45794 -1.78446 2.56564 0 16.617 -12.863 14.5095 -10.8791 12.3664 -8.95543 10.2769 -7.04874
          8.32202 -5.26664 6.41363 -3.52882 4.52989 -1.7805 2.70331 0 16.5325 -12.9067 14.5336 -10.9932
          12.5006 -9.12336 10.4926 -7.29371 8.50715 -5.4609 6.55658 -3.63783 4.63929 -1.8192 2.76135 0
          16.6077 -12.8631 14.5293 -10.9078 12.4202 -9.01608 10.3719 -7.15968 8.39263 -5.35017 6.45696 -3.56972
          4.55985 -1.7968 2.72098 0 16.9641 -12.6195 14.4832 -10.7907 12.3003 -8.96944 10.2949 -7.15503
          8.34439 -5.34938 6.41149 -3.56058 4.48227 -1.79291 2.57921 0 17.6386 -12.3734 14.1919 -10.6009
          12.1215 -8.85313 10.2014 -7.08082 8.28976 -5.30247 6.36979 -3.52893 4.4347 -1.77496 2.45625 0
          14.9328 -11.4143 13.7137 -10.4456 12.0166 -8.83874 10.175 -7.08922 8.28141 -5.3101 6.36413 -3.53001
          4.42258 -1.76131 2.38057 0 14.9098 -11.4372 13.7117 -10.4515 12.0161 -8.83968 10.175 -7.08905
          8.28154 -5.30993 6.3642 -3.53011 4.42294 -1.76208 2.39277 0
        </DataArray>
        <DataArray type="Float32" Name="x_gas^H2O" NumberOfComponents="1" format="ascii">
          0.0127981 0.00998623 0.0127981 0.0126726 0.00960336 0.0126076 0.00936267 0.012543 0.0094797 0.0125014 0.00994259 0.0124804
          0.01205 0.0124918 0.0149486 0.0125493 0.0170682 0.0126171 0.0174075 0.0127132 0.0183445 0.0128238 0.0174398 0.0128917
          0.0167633 0.0129399 0.0165251 0.0129727 0.0124461 0.0129509 0.00959755 0.0122571 0.0127981 0.0127906 0.0127835 0.0127742
          0.0127659 0.0127579 0.0127529 0.0127481 0.0127462 0.0127468 0.0127506 0.012756 0.0127619 0.012768 0.0127678 0.0123469
          0.0127981 0.0127978 0.0127973 0.0127966 0.0127958 0.0127947 0.0127938 0.0127927 0.0127917 0.0127906 0.0127898 0.0127891
          0.0127887 0.0127882 0.0127793 0.0124171 0.0127981 0.0127981 0.012798 0.012798 0.012798 0.0127979 0.0127979 0.0127978
          0.0127977 0.0127976 0.0127974 0.0127973 0.0127972 0.0127963 0.0127803 0.012415 0.0127981 0.0127981 0.0127981 0.0127981
          0.0127981 0.0127981 0.012798 0.012798 0.012798 0.012798 0.012798 0.012798 0.0127979 0.0127965 0.012773 0.0124032
          0.0127981 0.0127981 0.012798 0.012798 0.012798 0.0127979 0.0127978 0.0127978 0.0127976 0.0127975 0.0127974 0.0127972
          0.012797 0.0127961 0.01278 0.0124123 0.0127981 0.0127978 0.0127973 0.0127966 0.0127958 0.0127947 0.0127936 0.0127924
          0.0127911 0.0127898 0.0127884 0.012787 0.0127857 0.0127843 0.0127743 0.0124092 0.0127981 0.0127907 0.0127836 0.0127743
          0.0127663 0.0127581 0.0127508 0.0127437 0.0127374 0.0127314 0.0127261 0.0127212 0.0127173 0.0127137 0.0127055 0.0122809
          0.0127981 0.0126727 0.0126086 0.0125443 0.0125094 0.0124839 0.0124697 0.0124618 0.0124589 0.0124595 0.0124627 0.0124676
          0.0124747 0.0124822 0.0124678 0.011804 0.0127981 0.00998658 0.00962148 0.00937247 0.00963798 0.00997416 0.0103646 0.0107698
          0.0110981 0.0113949 0.0116073 0.0117706 0.0119419 0.0123614 0.00995566 0.00790127
        </DataArray>
        <DataArray type="Float32" Name="X_gas^H2O" NumberOfComponents="1" format="ascii">
          0.008 0.00623568 0.008 0.00792122 0.00599574 0.00788039 0.00584493 0.00783978 0.00591825 0.00781368 0.00620833 0.0078005
          0.00753022 0.00780762 0.00935194 0.00784373 0.0106866 0.00788631 0.0109004 0.00794672 0.0114912 0.00801614 0.0109207 0.0080588
          0.0104944 0.00808909 0.0103444 0.00810969 0.00777893 0.00809603 0.00599209 0.00766027 0.008 0.00799534 0.00799087 0.00798498
          0.00797979 0.0079748 0.00797166 0.00796862 0.00796742 0.00796783 0.00797019 0.00797359 0.0079773 0.00798111 0.00798096 0.00771667
          0.008 0.00799983 0.00799954 0.00799908 0.00799855 0.00799792 0.00799733 0.00799662 0.00799598 0.00799533 0.0079948 0.00799438
          0.00799411 0.00799381 0.00798821 0.00776074 0.008 0.008 0.00799999 0.00799997 0.00799994 0.00799991 0.00799987 0.00799981
          0.00799975 0.00799968 0.00799961 0.00799953 0.00799943 0.0079989 0.00798885 0.0077594 0.008 0.008 0.008 0.008
          0.008 0.00799999 0.00799999 0.00799999 0.00799998 0.00799997 0.00799996 0.00799995 0.00799989 0.00799903 0.00798429 0.007752
          0.008 0.008 0.00799999 0.00799997 0.00799994 0.00799991 0.00799986 0.00799981 0.00799974 0.00799966 0.00799957 0.00799948
          0.00799935 0.00799879 0.00798866 0.0077577 0.008 0.00799983 0.00799954 0.00799908 0.00799856 0.0079979 0.00799722 0.00799644
          0.00799565 0.00799479 0.00799395 0.00799307 0.00799226 0.00799134 0.00798508 0.0077558 0.008 0.00799534 0.0079909 0.00798508
          0.00798008 0.00797487 0.00797033 0.00796584 0.00796191 0.0079581 0.00795482 0.00795171 0.00794925 0.00794699 0.00794188 0.0076752
          0.008 0.00792127 0.00788102 0.00784065 0.00781873 0.0078027 0.00779377 0.00778883 0.00778697 0.00778739 0.00778936 0.00779246
          0.00779693 0.0078016 0.00779255 0.00737584 0.008 0.0062359 0.00600709 0.00585107 0.00601743 0.00622811 0.00647286 0.00672696
          0.00693288 0.0071191 0.00725239 0.00735488 0.00746241 0.00772577 0.00621652 0.00492987
        </DataArray>
        <DataArray type="Float32" Name="x_gas^Air" NumberOfComponents="1" format="ascii">
          0.987202 0.990014 0.987202 0.987327 0.990397 0.987392 0.990637 0.987457 0.99052 0.987499 0.990057 0.98752
          0.98795 0.987508 0.985051 0.987451 0.982932 0.987383 0.982592 0.987287 0.981656 0.987176 0.98256 0.987108
          0.983237 0.98706 0.983475 0.987027 0.987554 0.987049 0.990402 0.987743 0.987202 0.987209 0.987216 0.987226
          0.987234 0.987242 0.987247 0.987252 0.987254 0.987253 0.987249 0.987244 0.987238 0.987232 0.987232 0.987653
          0.987202 0.987202 0.987203 0.987203 0.987204 0.987205 0.987206 0.987207 0.987208 0.987209 0.98721 0.987211
          0.987211 0.987212 0.987221 0.987583 0.987202 0.987202 0.987202 0.987202 0.987202 0.987202 0.987202 0.987202
          0.987202 0.987202 0.987203 0.987203 0.987203 0.987204 0.98722 0.987585 0.987202 0.987202 0.987202 0.987202
          0.987202 0.987202 0.987202 0.987202 0.987202 0.987202 0.987202 0.987202 0.987202 0.987203 0.987227 0.987597
          0.987202 0.987202 0.987202 0.987202 0.987202 0.987202 0.987202 0.987202 0.987202 0.987202 0.987203 0.987203
          0.987203 0.987204 0.98722 0.987588 0.987202 0.987202 0.987203 0.987203 0.987204 0.987205 0.987206 0.987208
          0.987209 0.98721 0.987212 0.987213 0.987214 0.987216 0.987226 0.987591 0.987202 0.987209 0.987216 0.987226
          0.987234 0.987242 0.987249 0.987256 0.987263 0.987269 0.987274 0.987279 0.987283 0.987286 0.987294 0.987719
          0.987202 0.987327 0.987391 0.987456 0.987491 0.987516 0.98753 0.987538 0.987541 0.98754 0.987537 0.987532
          0.987525 0.987518 0.987532 0.988196 0.987202 0.990013 0.990378 0.990628 0.990362 0.990026 0.989635 0.98923
          0.988902 0.988605 0.988393 0.988229 0.988058 0.987639 0.990044 0.992099
        </DataArray>
        <DataArray type="Float32" Name="X_gas^Air" NumberOfComponents="1" format="ascii">
          0.992 0.993764 0.992 0.992079 0.994004 0.99212 0.994155 0.99216 0.994082 0.992186 0.993792 0.992199
          0.99247 0.992192 0.990648 0.992156 0.989313 0.992114 0.9891 0.992053 0.988509 0.991984 0.989079 0.991941
          0.989506 0.991911 0.989656 0.99189 0.992221 0.991904 0.994008 0.99234 0.992 0.992005 0.992009 0.992015
          0.99202 0.992025 0.992028 0.992031 0.992033 0.992032 0.99203 0.992026 0.992023 0.992019 0.992019 0.992283
          0.992 0.992 0.992 0.992001 0.992001 0.992002 0.992003 0.992003 0.992004 0.992005 0.992005 0.992006
          0.992006 0.992006 0.992012 0.992239 0.992 0.992 0.992 0.992 0.992 0.992 0.992 0.992
          0.992 0.992 0.992 0.992 0.992001 0.992001 0.992011 0.992241 0.992 0.992 0.992 0.992
          0.992 0.992 0.992 0.992 0.992 0.992 0.992 0.992 0.992 0.992001 0.992016 0.992248
          0.992 0.992 0.992 0.992 0.992 0.992 0.992 0.992 0.992 0.992 0.992 0.992001
          0.992001 0.992001 0.992011 0.992242 0.992 0.992 0.992 0.992001 0.992001 0.992002 0.992003 0.992004
          0.992004 0.992005 0.992006 0.992007 0.992008 0.992009 0.992015 0.992244 0.992 0.992005 0.992009 0.992015
          0.99202 0.992025 0.99203 0.992034 0.992038 0.992042 0.992045 0.992048 0.992051 0.992053 0.992058 0.992325
          0.992 0.992079 0.992119 0.992159 0.992181 0.992197 0.992206 0.992211 0.992213 0.992213 0.992211 0.992208
          0.992203 0.992198 0.992207 0.992624 0.992 0.993764 0.993993 0.994149 0.993983 0.993772 0.993527 0.993273
          0.993067 0.992881 0.992748 0.992645 0.992538 0.992274 0.993783 0.99507
        </DataArray>
        <DataArray type="Float32" Name="rho" NumberOfComponents="1" format="ascii">
          1.16276 1.16369 1.16276 1.16251 1.16415 1.16283 1.16398 1.16258 1.16419 1.16285 1.16374 1.16262
          1.17425 1.16286 1.19105 1.16283 1.20104 1.16306 1.19946 1.16311 1.16022 1.1632 1.1605 1.16305
          1.16089 1.16312 1.16093 1.16303 1.16277 1.16308 1.18744 1.16836 1.16279 1.16245 1.16276 1.16248
          1.16274 1.1625 1.16272 1.16253 1.16271 1.16256 1.16269 1.16258 1.16267 1.1626 1.16265 1.16599
          1.16278 1.16244 1.16276 1.16246 1.16273 1.16249 1.16271 1.16251 1.16269 1.16253 1.16267 1.16255
          1.16264 1.16257 1.16263 1.16549 1.16278 1.16244 1.16276 1.16246 1.16273 1.16248 1.16271 1.16251
          1.16268 1.16253 1.16266 1.16255 1.16264 1.16257 1.16263 1.16551 1.16278 1.16244 1.16276 1.16246
          1.16273 1.16248 1.16271 1.1625 1.16269 1.16252 1.16266 1.16255 1.16264 1.16257 1.16263 1.16556
          1.16278 1.16244 1.16276 1.16246 1.16273 1.16248 1.16271 1.1625 1.16269 1.16253 1.16266 1.16255
          1.16264 1.16257 1.16263 1.16553 1.16278 1.16244 1.16276 1.16246 1.16273 1.16248 1.16271 1.16251
          1.16269 1.16253 1.16267 1.16255 1.16264 1.16257 1.16263 1.16551 1.16279 1.16245 1.16276 1.16247
          1.16274 1.1625 1.16273 1.16253 1.16271 1.16255 1.16269 1.16258 1.16267 1.1626 1.16266 1.16602
          1.16276 1.16251 1.16283 1.16257 1.16285 1.16262 1.16285 1.16265 1.16283 1.16267 1.1628 1.16269
          1.16278 1.1627 1.16276 1.16809 1.16276 1.16369 1.16415 1.16398 1.16412 1.16373 1.16378 1.1634
          1.16343 1.16314 1.16319 1.163 1.16302 1.16276 1.16387 1.18808
        </DataArray>
        <DataArray type="Float32" Name="mu" NumberOfComponents="1" format="ascii">
          1.81222e-05 1.81478e-05 1.81222e-05 1.81234e-05 1.81513e-05 1.8124e-05 1.81535e-05 1.81246e-05 1.81524e-05 1.8125e-05 1.81482e-05 1.81251e-05
          1.79939e-05 1.81247e-05 1.77519e-05 1.81219e-05 1.7608e-05 1.81202e-05 1.76195e-05 1.81164e-05 1.80718e-05 1.81153e-05 1.80801e-05 1.81147e-05
          1.80862e-05 1.81143e-05 1.80884e-05 1.8114e-05 1.81254e-05 1.81144e-05 1.78714e-05 1.80602e-05 1.81222e-05 1.81223e-05 1.81224e-05 1.81225e-05
          1.81225e-05 1.81226e-05 1.81227e-05 1.81227e-05 1.81227e-05 1.81226e-05 1.81225e-05 1.81224e-05 1.81224e-05 1.81223e-05 1.81223e-05 1.80875e-05
          1.81222e-05 1.81222e-05 1.81222e-05 1.81222e-05 1.81223e-05 1.81223e-05 1.81223e-05 1.81223e-05 1.81223e-05 1.81223e-05 1.81223e-05 1.81223e-05
          1.81223e-05 1.81223e-05 1.81224e-05 1.80926e-05 1.81222e-05 1.81222e-05 1.81222e-05 1.81222e-05 1.81222e-05 1.81222e-05 1.81222e-05 1.81222e-05
          1.81222e-05 1.81222e-05 1.81222e-05 1.81222e-05 1.81222e-05 1.81222e-05 1.81224e-05 1.80923e-05 1.81222e-05 1.81222e-05 1.81222e-05 1.81222e-05
          1.81222e-05 1.81222e-05 1.81222e-05 1.81222e-05 1.81222e-05 1.81222e-05 1.81222e-05 1.81222e-05 1.81222e-05 1.81222e-05 1.81224e-05 1.8092e-05
          1.81222e-05 1.81222e-05 1.81222e-05 1.81222e-05 1.81222e-05 1.81222e-05 1.81222e-05 1.81222e-05 1.81222e-05 1.81222e-05 1.81222e-05 1.81222e-05
          1.81222e-05 1.81222e-05 1.81224e-05 1.80921e-05 1.81222e-05 1.81222e-05 1.81222e-05 1.81222e-05 1.81223e-05 1.81223e-05 1.81223e-05 1.81223e-05
          1.81223e-05 1.81223e-05 1.81223e-05 1.81223e-05 1.81223e-05 1.81224e-05 1.81224e-05 1.80925e-05 1.81222e-05 1.81223e-05 1.81224e-05 1.81225e-05
          1.81225e-05 1.81226e-05 1.81227e-05 1.81227e-05 1.81228e-05 1.81229e-05 1.81229e-05 1.8123e-05 1.8123e-05 1.8123e-05 1.81231e-05 1.80881e-05
          1.81222e-05 1.81234e-05 1.8124e-05 1.81246e-05 1.81249e-05 1.81251e-05 1.81253e-05 1.81254e-05 1.81254e-05 1.81254e-05 1.81253e-05 1.81253e-05
          1.81252e-05 1.81252e-05 1.81252e-05 1.80701e-05 1.81222e-05 1.81478e-05 1.81511e-05 1.81534e-05 1.8151e-05 1.81479e-05 1.81444e-05 1.81407e-05
          1.81377e-05 1.8135e-05 1.81331e-05 1.81316e-05 1.813e-05 1.81262e-05 1.81481e-05 1.78881e-05
        </DataArray>
        <DataArray type="Float32" Name="D" NumberOfComponents="1" format="ascii">
          2.4933e-05 2.49396e-05 2.4933e-05 2.49396e-05 2.49334e-05 2.49334e-05 2.49394e-05 2.49395e-05 2.49338e-05 2.49339e-05 2.49389e-05 2.4939e-05
          2.45071e-05 2.49333e-05 2.38383e-05 2.49302e-05 2.34513e-05 2.49231e-05 2.34989e-05 2.49171e-05 2.49352e-05 2.49139e-05 2.49376e-05 2.49164e-05
          2.49357e-05 2.49145e-05 2.49372e-05 2.49162e-05 2.49362e-05 2.49157e-05 2.40576e-05 2.47245e-05 2.49324e-05 2.49398e-05 2.49332e-05 2.49394e-05
          2.49338e-05 2.4939e-05 2.49343e-05 2.49384e-05 2.49347e-05 2.49378e-05 2.49348e-05 2.49371e-05 2.4935e-05 2.49365e-05 2.49354e-05 2.48134e-05
          2.49325e-05 2.49399e-05 2.49332e-05 2.49394e-05 2.49337e-05 2.4939e-05 2.49342e-05 2.49385e-05 2.49347e-05 2.49381e-05 2.49352e-05 2.49376e-05
          2.49356e-05 2.49372e-05 2.49361e-05 2.48317e-05 2.49326e-05 2.494e-05 2.49331e-05 2.49395e-05 2.49337e-05 2.4939e-05 2.49342e-05 2.49385e-05
          2.49347e-05 2.49381e-05 2.49352e-05 2.49376e-05 2.49356e-05 2.49372e-05 2.4936e-05 2.48306e-05 2.49326e-05 2.494e-05 2.49331e-05 2.49395e-05
          2.49336e-05 2.4939e-05 2.49341e-05 2.49386e-05 2.49346e-05 2.49381e-05 2.49351e-05 2.49377e-05 2.49356e-05 2.49372e-05 2.49359e-05 2.48292e-05
          2.49326e-05 2.494e-05 2.49331e-05 2.49395e-05 2.49337e-05 2.4939e-05 2.49342e-05 2.49385e-05 2.49347e-05 2.49381e-05 2.49351e-05 2.49376e-05
          2.49356e-05 2.49372e-05 2.4936e-05 2.483e-05 2.49325e-05 2.49399e-05 2.49332e-05 2.49394e-05 2.49337e-05 2.4939e-05 2.49342e-05 2.49385e-05
          2.49347e-05 2.49381e-05 2.49352e-05 2.49377e-05 2.49357e-05 2.49372e-05 2.49361e-05 2.4831e-05 2.49324e-05 2.49398e-05 2.49332e-05 2.49394e-05
          2.49338e-05 2.4939e-05 2.49343e-05 2.49386e-05 2.49348e-05 2.49381e-05 2.49352e-05 2.49377e-05 2.49357e-05 2.49373e-05 2.49362e-05 2.48135e-05
          2.4933e-05 2.49396e-05 2.49334e-05 2.49395e-05 2.49339e-05 2.49391e-05 2.49344e-05 2.49387e-05 2.49349e-05 2.49383e-05 2.49354e-05 2.49378e-05
          2.49358e-05 2.49374e-05 2.49361e-05 2.47426e-05 2.4933e-05 2.49396e-05 2.49333e-05 2.49394e-05 2.49338e-05 2.4939e-05 2.49342e-05 2.49385e-05
          2.49347e-05 2.49381e-05 2.49352e-05 2.49376e-05 2.49357e-05 2.49372e-05 2.49362e-05 2.40621e-05
        </DataArray>
        <DataArray type="Float32" Name="lambda" NumberOfComponents="1" format="ascii">
          0 0 0 0 0 0 0 0 0 0 0 0
          0 0 0 0 0 0 0 0 0 0 0 0
          0 0 0 0 0 0 0 0 0 0 0 0
          0 0 0 0 0 0 0 0 0 0 0 0
          0 0 0 0 0 0 0 0 0 0 0 0
          0 0 0 0 0 0 0 0 0 0 0 0
          0 0 0 0 0 0 0 0 0 0 0 0
          0 0 0 0 0 0 0 0 0 0 0 0
          0 0 0 0 0 0 0 0 0 0 0 0
          0 0 0 0 0 0 0 0 0 0 0 0
          0 0 0 0 0 0 0 0 0 0 0 0
          0 0 0 0 0 0 0 0 0 0 0 0
          0 0 0 0 0 0 0 0 0 0 0 0
          0 0 0 0 0 0 0 0 0 0 0 0
          0 0 0 0 0 0 0 0
        </DataArray>
        <DataArray type="Float32" Name="temperature" NumberOfComponents="1" format="ascii">
          298.15 298.15 298.15 298.15 298.15 298.151 298.15 298.151 298.15 298.151 298.15 298.15
          295.301 298.144 290.77 298.095 288.161 298.073 288.465 298.011 298.15 298.009 298.15 298.009
          298.15 298.01 298.15 298.01 298.15 298.014 292.264 296.737 298.15 298.15 298.15 298.15
          298.15 298.15 298.15 298.15 298.15 298.148 298.147 298.146 298.146 298.145 298.145 297.33
          298.15 298.15 298.15 298.15 298.15 298.15 298.15 298.15 298.15 298.15 298.15 298.15
          298.15 298.15 298.15 297.451 298.15 298.15 298.15 298.15 298.15 298.15 298.15 298.15
          298.15 298.15 298.15 298.15 298.15 298.15 298.149 297.444 298.15 298.15 298.15 298.15
          298.15 298.15 298.15 298.15 298.15 298.15 298.15 298.15 298.15 298.15 298.149 297.435
          298.15 298.15 298.15 298.15 298.15 298.15 298.15 298.15 298.15 298.15 298.15 298.15
          298.15 298.15 298.149 297.44 298.15 298.15 298.15 298.15 298.15 298.15 298.15 298.15
          298.15 298.15 298.15 298.15 298.15 298.15 298.15 297.447 298.15 298.15 298.15 298.15
          298.15 298.15 298.15 298.15 298.15 298.15 298.15 298.15 298.151 298.151 298.15 297.33
          298.15 298.15 298.151 298.151 298.151 298.151 298.151 298.151 298.151 298.151 298.151 298.151
          298.151 298.151 298.15 296.858 298.15 298.15 298.15 298.15 298.15 298.15 298.15 298.15
          298.15 298.15 298.15 298.15 298.15 298.15 298.15 292.294
        </DataArray>
        <DataArray type="Float32" Name="v" NumberOfComponents="3" format="ascii">
          0 0 0 0 0 0 3.5 0 0 3.42882 0.102826 0
          0 0 0 3.12032 0.00889225 0 0 0 0 3.23492 0.0250081 0
          0 0 0 2.9142 0.00797546 0 0 0 0 3.11556 0.0053732 0
          0.0265724 -0.00442176 0 2.79992 -0.0368217 0 0.260374 0.00671057 0 3.02498 0.0125187 0
          0.0136298 -0.00557535 0 2.73483 -0.00567949 0 0.25173 0.0037333 0 2.9615 0.00575204 0
          0 0 0 2.67088 0.0155746 0 0 0 0 2.92056 0.00183044 0
          0 0 0 2.61969 0.00196788 0 0 0 0 2.89431 0.00117287 0
          0 0 0 2.62412 -0.0366262 0 1.00652 -0.00725392 0 2.87305 -0.0475631 0
          3.5 0 0 3.83764 0.113896 0 3.60914 0.0365758 0 3.81297 0.0620866 0
          3.56646 0.0264759 0 3.76552 0.0352346 0 3.49957 0.0121151 0 3.67213 0.0273909 0
          3.44497 0.012806 0 3.61614 0.0231664 0 3.39318 0.0201176 0 3.58325 0.0158685 0
          3.34994 0.0075523 0 3.55237 0.00379686 0 3.3234 -0.0268826 0 3.50476 -0.0323913 0
          3.5 0 0 3.7965 0.0530868 0 3.58192 0.0348219 0 3.83173 0.0529558 0
          3.62171 0.0307859 0 3.84598 0.0396839 0 3.63792 0.0129926 0 3.85076 0.036093 0
          3.64582 0.022089 0 3.8514 0.0339028 0 3.6521 0.0276782 0 3.85637 0.0266275 0
          3.65489 0.0158906 0 3.85515 0.0109123 0 3.64941 -0.0115255 0 3.83131 -0.0152664 0
          3.5 0 0 3.74876 0.0173777 0 3.52306 0.0184161 0 3.76855 0.0272176 0
          3.55177 0.0188407 0 3.78773 0.0246644 0 3.57396 0.0173609 0 3.79759 0.0221218 0
          3.59406 0.0156323 0 3.81228 0.0206985 0 3.61376 0.0146749 0 3.82848 0.0166493 0
          3.6294 0.00902187 0 3.83785 0.00764083 0 3.63502 -0.00146873 0 3.83273 -0.00294234 0
          3.5 0 0 3.73744 -6.5709e-05 0 3.51322 -0.000645091 0 3.75131 -1.30464e-05 0
          3.5357 -0.00150565 0 3.76758 -0.000135525 0 3.55741 -0.00264934 0 3.78368 0.000528263 0
          3.57659 -0.000915575 0 3.79717 0.00153095 0 3.59346 0.000677213 0 3.80858 0.00175586 0
          3.60655 0.00098387 0 3.81565 0.00129239 0 3.61261 0.000724948 0 3.81597 0.000596604 0
          3.5 0 0 3.74616 -0.0175156 0 3.52293 -0.0192654 0 3.76553 -0.0273062 0
          3.55131 -0.0206182 0 3.78441 -0.0249858 0 3.57481 -0.0179013 0 3.80017 -0.0217806 0
          3.59481 -0.01602 0 3.81513 -0.0189578 0 3.61262 -0.013522 0 3.82864 -0.0148066 0
          3.62705 -0.00808172 0 3.83696 -0.0065915 0 3.63234 0.00194598 0 3.83119 0.00330352 0
          3.5 0 0 3.79275 -0.0530078 0 3.58152 -0.0354662 0 3.82772 -0.0522746 0
          3.62023 -0.0336124 0 3.84364 -0.0406985 0 3.63772 -0.0298196 0 3.85132 -0.0326849 0
          3.64621 -0.0259377 0 3.85445 -0.0273581 0 3.65001 -0.0213775 0 3.85506 -0.0218245 0
          3.65176 -0.0122074 0 3.85357 -0.00826817 0 3.64669 0.0139268 0 3.82973 0.0175496 0
          3.5 0 0 3.83175 -0.113621 0 3.60888 -0.0371118 0 3.80533 -0.0610133 0
          3.56639 -0.028527 0 3.74569 -0.0359237 0 3.50108 -0.0209862 0 3.68242 -0.0246881 0
          3.43862 -0.0165671 0 3.62576 -0.0187842 0 3.3855 -0.0126937 0 3.57974 -0.0142087 0
          3.3455 -0.00622276 0 3.55098 -0.00351677 0 3.32175 0.0273934 0 3.50484 0.033046 0
          3.5 0 0 3.42269 -0.102819 0 3.12093 -0.00817364 0 3.22823 -0.0258612 0
          2.91669 -0.00359985 0 3.10552 -0.00508272 0 2.80001 -0.00045527 0 3.02456 5.82527e-05 0
          2.722 0.000213397 0 2.96428 0.000232102 0 2.66352 -2.52824e-05 0 2.91884 -0.000839341 0
          2.62082 0.00107439 0 2.89697 -0.000100564 0 2.62634 0.0384425 0 2.87644 0.0493636 0
          0 0 0 0 0 0 0 0 0 0 0 0
          0 0 0 0 0 0 0 0 0 0 0 0
          0 0 0 0 0 0 0 0 0 0 0 0
          0 0 0 0 0 0 0 0 0 1.01295 0.00752135 0
        </DataArray>
      </PointData>
      <CellData Scalars="mu_t">
        <DataArray type="Float32" Name="mu_t" NumberOfComponents="1" format="ascii">
          0.00113159 0.00104003 0.000994585 0.000946153 0.000918956 0.000891534 0.000825134 0.000826161 0.000817793 0.000788671 0.000819218 0.000807311
          0.000801877 0.000802407 0.000592772 0.000957068 0.00209102 0.00247875 0.002849 0.0030101 0.00311446 0.00309562 0.00312415 0.00314063
          0.00315469 0.0031766 0.003191 0.00317897 0.00310787 0.00297999 0.00029722 0.000493796 0.000112746 0.000534618 0.000980159 0.00158017
          0.00228887 0.00274029 0.00314916 0.00356794 0.00384152 0.00417363 0.00438773 0.00453972 0.00471252 0.000773058 0.00172632 0.0019766
          0.002156 0.00207599 0.00197914 0.00189706 0.00169951 0.00147182 0.00125439 0.00107262 0.000864541 0.000692967 0.00051321 0.000210249
          0.000365036 0.000682166 0.000872764 0.00107367 0.00116764 0.00118295 0.00098146 0.0010111 0.00105023 0.00114153 0.00129587 0.00137807
          0.00145231 0.00143824 0.00126426 0.00028109 0.000593999 0.000771226 0.000961311 0.00104528 0.00110322 0.00109239 0.00111875 0.00116632
          0.00119642 0.00126418 0.00130753 0.00134769 0.00132309 0.00112829 0.000754456 0.0017034 0.00195615 0.00212335 0.00207551 0.0019782
          0.00184724 0.00166068 0.00146923 0.0012424 0.00103336 0.000827976 0.000669233 0.000501449 0.000208812 0.000281812 0.000479384 0.000106655
          0.000550506 0.00109626 0.00169419 0.00220646 0.0027186 0.00315032 0.0035611 0.00389769 0.00419895 0.00439584 0.00453065 0.00469281
          0.000957558 0.00208942 0.00247432 0.00284071 0.00298117 0.00309322 0.00312965 0.00316063 0.00316581 0.00317419 0.00317047 0.00317347
          0.0031566 0.00308956 0.00296338 0.00113009 0.00103872 0.000993146 0.000945172 0.000917185 0.000889965 0.000871513 0.000853585 0.000840515
          0.000827013 0.000817364 0.000807301 0.000802808 0.000803525 0.000592546
        </DataArray>
        <DataArray type="Float32" Name="nu_t" NumberOfComponents="1" format="ascii">
          0.000973121 0.000894187 0.000855058 0.000813411 0.000790047 0.000765328 0.000705397 0.000703431 0.000695383 0.000674662 0.000704907 0.000694607
          0.000689892 0.000690164 0.000507164 0.000823207 0.00179852 0.00213198 0.00245042 0.00258895 0.00267871 0.00266239 0.00268684 0.00270085
          0.00271288 0.00273174 0.00274418 0.00273383 0.00267272 0.00255813 0.000255652 0.000424736 9.69751e-05 0.000459843 0.000843066 0.00135916
          0.00196872 0.00235702 0.00270868 0.00306891 0.00330419 0.00358988 0.003774 0.00390477 0.00404794 0.000664944 0.00148488 0.00170014
          0.00185447 0.00178563 0.00170235 0.00163172 0.00146182 0.00126596 0.00107896 0.000922596 0.00074363 0.000596046 0.000441433 0.000180649
          0.000313986 0.000586761 0.000750698 0.000923515 0.00100433 0.00101751 0.000844189 0.00086969 0.00090334 0.000981885 0.00111463 0.00118534
          0.00124919 0.00123709 0.00108608 0.00024178 0.000510924 0.00066336 0.000826865 0.000899085 0.00094893 0.000939604 0.00096229 0.00100319
          0.0010291 0.00108737 0.00112466 0.0011592 0.00113804 0.000969265 0.000648944 0.00146516 0.00168255 0.00182638 0.00178522 0.00170154
          0.00158887 0.00142843 0.00126374 0.00106864 0.000888833 0.000712179 0.000575632 0.000431317 0.000179414 0.000242399 0.000412339 9.1736e-05
          0.000473509 0.000942928 0.00145723 0.00189784 0.00233836 0.00270968 0.00306302 0.0033525 0.00361166 0.00378097 0.00389696 0.00403096
          0.000823629 0.00179714 0.00212817 0.0024433 0.00256407 0.00266045 0.00269176 0.00271842 0.00272285 0.00273008 0.00272685 0.00272946
          0.00271493 0.00265729 0.00254413 0.000971836 0.000893061 0.000853822 0.000812577 0.000788536 0.000765175 0.000749341 0.000733968 0.000722753
          0.000711173 0.000702888 0.000694257 0.000690416 0.000690948 0.000506923
        </DataArray>
        <DataArray type="Float32" Name="l_mix" NumberOfComponents="1" format="ascii">
          0.00163983 0.00161525 0.0016027 0.00158822 0.0015802 0.00157336 0.00155683 0.00156233 0.00156112 0.00154393 0.00154818 0.00154371
          0.00154198 0.00154175 0.00145989 0.00911232 0.00908745 0.00907421 0.00905814 0.0090491 0.00904109 0.00902139 0.00902808 0.00902662
          0.00900526 0.00901061 0.00900491 0.00900275 0.00900245 0.0088855 0.0213472 0.0213457 0.0213448 0.0213437 0.021343 0.0213424
          0.0213408 0.0213413 0.0213412 0.0213394 0.0213399 0.0213394 0.0213392 0.0213391 0.0213264 0.042356 0.042356 0.042356
          0.042356 0.042356 0.042356 0.042356 0.042356 0.042356 0.042356 0.042356 0.042356 0.042356 0.042356 0.0423559
          0.0791107 0.0791107 0.0791107 0.0791107 0.0791107 0.0791107 0.0791107 0.0791107 0.0791107 0.0791107 0.0791107 0.0791107
          0.0791107 0.0791107 0.0791107 0.0791107 0.0791107 0.0791107 0.0791107 0.0791107 0.0791107 0.0791107 0.0791107 0.0791107
          0.0791107 0.0791107 0.0791107 0.0791107 0.0791107 0.0791107 0.042356 0.042356 0.042356 0.042356 0.042356 0.042356
          0.042356 0.042356 0.042356 0.042356 0.042356 0.042356 0.042356 0.042356 0.0423559 0.0213471 0.0213456 0.0213448
          0.0213436 0.021343 0.0213421 0.0213416 0.021341 0.0213406 0.0213401 0.0213398 0.0213393 0.0213392 0.0213392 0.0213263
          0.00911195 0.00908708 0.00907376 0.00905783 0.00904848 0.00903814 0.00903123 0.00902389 0.00901901 0.00901304 0.00900932 0.00900451
          0.00900283 0.00900271 0.00888511 0.00163945 0.00161489 0.00160228 0.00158794 0.00157966 0.00157086 0.00156501 0.00155898 0.00155494
          0.00155017 0.00154715 0.00154339 0.00154203 0.00154196 0.00145964
        </DataArray>
        <DataArray type="Float32" Name="u^+" NumberOfComponents="1" format="ascii">
          25.9974 25.2795 24.8924 24.4908 24.2424 24.2905 26.0523 26.1294 26.0409 25.4357 23.354 23.2578
          23.193 23.212 30.7123 53.5297 54.0252 53.9632 53.8836 53.7206 53.8818 55.3969 55.7662 55.7248
          54.6433 52.4942 52.3651 52.2274 52.1347 58.0966 54.9101 57.2277 58.1084 59.0808 59.502 60.2965
          62.4883 63.2884 63.5911 62.7302 60.5027 60.6422 60.6255 60.4909 67.4387 54.5764 56.5523 57.597
          58.8458 59.5319 60.6923 63.3403 64.4775 65.0991 64.5312 62.4483 62.8458 63.0021 63.0032 70.4531
          54.3547 56.059 57.0129 58.1827 58.8708 60.0426 62.7113 63.8872 64.5598 64.0434 62.0036 62.4421
          62.6324 62.6822 70.2087 54.3693 56.0716 57.0282 58.1884 58.8936 59.6857 60.2259 60.8131 61.2183
          61.7053 62.026 62.4159 62.58 62.6267 70.1846 54.577 56.5492 57.5953 58.8298 59.5397 60.3214
          60.8316 61.3789 61.7439 62.1793 62.4567 62.8008 62.9296 62.9294 70.4089 54.8986 57.2117 58.0883