<?xml version="1.0"?>
<VTKFile type="UnstructuredGrid" version="0.1" byte_order="LittleEndian">
  <UnstructuredGrid>
    <Piece NumberOfCells="120" NumberOfPoints="144">
      <PointData Scalars="temperature" Vectors="v">
        <DataArray type="Float32" Name="temperature" NumberOfComponents="1" format="ascii">
          297.353 297.35 298.15 298.149 297.347 298.149 297.345 298.148 297.344 298.147 297.344 298.147
          297.344 298.146 297.344 298.146 297.345 298.145 297.346 298.144 297.347 298.144 297.348 298.143
          297.349 298.142 297.35 298.142 297.351 298.141 297.357 298.141 298.15 298.15 298.15 298.15
          298.15 298.15 298.15 298.15 298.15 298.15 298.15 298.15 298.15 298.15 298.15 298.15
          298.15 298.15 298.15 298.15 298.15 298.15 298.15 298.15 298.15 298.15 298.15 298.15
          298.15 298.15 298.15 298.15 298.15 298.15 298.15 298.15 298.15 298.15 298.15 298.15
          298.15 298.15 298.15 298.15 298.15 298.15 298.15 298.15 298.15 298.15 298.15 298.15
          298.15 298.15 298.15 298.15 298.15 298.15 298.15 298.15 298.15 298.15 298.15 298.15
          298.15 298.15 298.15 298.15 298.15 298.15 298.15 298.15 298.15 298.15 298.15 298.15
          298.15 298.15 298.15 298.15 298.15 298.15 298.15 298.15 298.15 298.15 298.15 298.15
          298.15 298.15 298.15 298.15 298.15 298.15 298.15 298.15 298.15 298.15 298.15 298.15
          298.15 298.15 298.15 298.15 298.15 298.15 298.15 298.15 298.15 298.15 298.15 298.15
        </DataArray>
        <DataArray type="Float32" Name="pg" NumberOfComponents="1" format="ascii">
          100000 100000 100000 100000 100000 100000 100000 100000 100000 100000 100000 100000
          100000 100000 100000 100000 100000 100000 100000 100000 100000 100000 100000 100000
          100000 100000 100000 100000 100000 100000 100000 100000 100000 100000 100000 100000
          100000 100000 100000 100000 100000 100000 100000 100000 100000 100000 100000 100000
          100000 100000 100000 100000 100000 100000 100000 100000 100000 100000 100000 100000
          100000 100000 100000 100000 100000 100000 100000 100000 100000 100000 100000 100000
          100000 100000 100000 100000 100000 100000 100000 100000 100000 100000 100000 100000
          100000 100000 100000 100000 100000 100000 100000 100000 100000 100000 100000 100000
          100000 100000 100000 100000 100000 100000 100000 100000 100000 100000 100000 100000
          100000 100000 100000 100000 100000 100000 100000 100000 100000 100000 100000 100000
          100000 100000 100000 100000 100000 100000 100000 100000 100000 100000 100000 100000
          100000 100000 100000 100000 100000 100000 100000 100000 100000 100000 100000 100000
        </DataArray>
        <DataArray type="Float32" Name="delP" NumberOfComponents="1" format="ascii">
          0.00202824 0.00189853 0.00200987 0.00188016 0.00176356 0.00174686 0.00162779 0.00161498 0.00149164 0.00148086 0.0013557 0.00134752
          0.00121975 0.00121293 0.00108399 0.00107884 0.000948264 0.000944016 0.000812673 0.000809511 0.000677112 0.000674573 0.000541639 0.000539834
          0.00040618 0.000404843 0.000270782 0.000269965 0.000135387 0.000134961 0 0 0.00203204 0.00189634 0.00176096 0.00162532
          0.0014898 0.0013542 0.00121868 0.00108315 0.000947664 0.000812209 0.000676783 0.000541392 0.000406009 0.000270668 0.000135308 0
          0.0020228 0.00188696 0.00175253 0.00161779 0.00148329 0.00134871 0.00121402 0.00107937 0.000944527 0.000809752 0.000674812 0.000539939
          0.000404941 0.000270001 0.000134975 0 0.00203097 0.00189542 0.00175994 0.00162434 0.00148893 0.00135338 0.00121802 0.00108254
          0.000947211 0.000811804 0.000676503 0.000541154 0.000405867 0.000270561 0.000135278 0 0.00202645 0.00189072 0.00175571 0.00162036
          0.00148544 0.00135029 0.00121536 0.00108029 0.000945321 0.000810268 0.000675265 0.000540209 0.000405177 0.000270115 0.000135066 0
          0.00202979 0.00189428 0.00175893 0.00162342 0.0014881 0.00135264 0.00121738 0.00108197 0.000946745 0.0008114 0.000676195 0.000540896
          0.000405703 0.000270437 0.000135246 0 0.00202796 0.00189245 0.00175725 0.00162185 0.00148673 0.00135141 0.00121632 0.00108106
          0.000945974 0.00081076 0.000675676 0.000540494 0.000405404 0.000270244 0.000135146 0 0.00202823 0.00189271 0.00175771 0.00162221
          0.00148702 0.00135163 0.00121649 0.00108119 0.000946081 0.000810847 0.000675746 0.00054055 0.000405444 0.000270272 0.000135149 0
        </DataArray>
        <DataArray type="Float32" Name="XH2Og" NumberOfComponents="1" format="ascii">
          0.0190171 0.019014 0.008 0.00800807 0.0190107 0.00801612 0.0190084 0.00802415 0.0190071 0.00803217 0.0190066 0.00804016
          0.0190067 0.00804815 0.0190073 0.00805612 0.0190082 0.00806409 0.0190093 0.00807204 0.0190105 0.00807999 0.0190118 0.00808796
          0.019013 0.00809593 0.0190142 0.00810391 0.0190156 0.00811189 0.0190219 0.00811588 0.008 0.008 0.008 0.00800001
          0.00800001 0.00800002 0.00800003 0.00800005 0.00800007 0.00800009 0.00800011 0.00800013 0.00800016 0.00800019 0.00800022 0.00800023
          0.008 0.008 0.008 0.008 0.008 0.008 0.008 0.008 0.008 0.008 0.008 0.008
          0.008 0.008 0.008 0.00799999 0.008 0.008 0.008 0.008 0.008 0.008 0.008 0.008
          0.008 0.008 0.008 0.008 0.008 0.008 0.008 0.008 0.008 0.008 0.008 0.008
          0.008 0.008 0.008 0.008 0.008 0.008 0.008 0.008 0.008 0.008 0.008 0.008
          0.008 0.008 0.008 0.008 0.008 0.008 0.008 0.008 0.008 0.008 0.008 0.008
          0.008 0.008 0.008 0.008 0.008 0.008 0.008 0.008 0.008 0.008 0.008 0.00800001
          0.00800001 0.00800001 0.00800001 0.00800001 0.00800001 0.00800001 0.00800001 0.00800001 0.008 0.0080011 0.00800234 0.00800342
          0.00800431 0.00800503 0.00800561 0.00800609 0.00800648 0.0080068 0.00800705 0.00800725 0.0080074 0.00800749 0.00800751 0.008
        </DataArray>
        <DataArray type="Float32" Name="XAirg" NumberOfComponents="1" format="ascii">
          0.980983 0.980986 0.992 0.991992 0.980989 0.991984 0.980992 0.991976 0.980993 0.991968 0.980993 0.99196
          0.980993 0.991952 0.980993 0.991944 0.980992 0.991936 0.980991 0.991928 0.980989 0.99192 0.980988 0.991912
          0.980987 0.991904 0.980986 0.991896 0.980984 0.991888 0.980978 0.991884 0.992 0.992 0.992 0.992
          0.992 0.992 0.992 0.992 0.992 0.992 0.992 0.992 0.992 0.992 0.992 0.992
          0.992 0.992 0.992 0.992 0.992 0.992 0.992 0.992 0.992 0.992 0.992 0.992
          0.992 0.992 0.992 0.992 0.992 0.992 0.992 0.992 0.992 0.992 0.992 0.992
          0.992 0.992 0.992 0.992 0.992 0.992 0.992 0.992 0.992 0.992 0.992 0.992
          0.992 0.992 0.992 0.992 0.992 0.992 0.992 0.992 0.992 0.992 0.992 0.992
          0.992 0.992 0.992 0.992 0.992 0.992 0.992 0.992 0.992 0.992 0.992 0.992
          0.992 0.992 0.992 0.992 0.992 0.992 0.992 0.992 0.992 0.992 0.992 0.992
          0.992 0.992 0.992 0.992 0.992 0.992 0.992 0.992 0.992 0.991999 0.991998 0.991997
          0.991996 0.991995 0.991994 0.991994 0.991994 0.991993 0.991993 0.991993 0.991993 0.991993 0.991992 0.992
        </DataArray>
        <DataArray type="Float32" Name="h" NumberOfComponents="1" format="ascii">
          71264.5 71254.1 44886.1 44905.4 71242.9 44924.6 71235.2 44943.8 71230.7 44962.9 71229 44982.1
          71229.4 45001.1 71231.4 45020.2 71234.4 45039.2 71238.2 45058.2 71242.4 45077.2 71246.6 45096.2
          71250.7 45115.3 71254.9 45134.3 71259.4 45153.4 71280.6 45162.9 44886.1 44886.1 44886.1 44886.1
          44886.1 44886.2 44886.2 44886.2 44886.3 44886.3 44886.4 44886.4 44886.5 44886.6 44886.6 44886.6
          44886.1 44886.1 44886.1 44886.1 44886.1 44886.1 44886.1 44886.1 44886.1 44886.1 44886.1 44886.1
          44886.1 44886.1 44886.1 44886.1 44886.1 44886.1 44886.1 44886.1 44886.1 44886.1 44886.1 44886.1
          44886.1 44886.1 44886.1 44886.1 44886.1 44886.1 44886.1 44886.1 44886.1 44886.1 44886.1 44886.1
          44886.1 44886.1 44886.1 44886.1 44886.1 44886.1 44886.1 44886.1 44886.1 44886.1 44886.1 44886.1
          44886.1 44886.1 44886.1 44886.1 44886.1 44886.1 44886.1 44886.1 44886.1 44886.1 44886.1 44886.1
          44886.1 44886.1 44886.1 44886.1 44886.1 44886.1 44886.1 44886.1 44886.1 44886.1 44886.1 44886.1
          44886.1 44886.1 44886.1 44886.1 44886.1 44886.1 44886.1 44886.1 44886.1 44888.8 44891.9 44894.5
          44896.7 44898.5 44900 44901.1 44902.1 44902.9 44903.5 44904 44904.4 44904.6 44904.6 44886.1
        </DataArray>
        <DataArray type="Float32" Name="rho" NumberOfComponents="1" format="ascii">
          1.15802 1.15803 1.16259 1.16258 1.15805 1.16258 1.15806 1.16258 1.15806 1.16257 1.15806 1.16257
          1.15806 1.16257 1.15806 1.16257 1.15806 1.16256 1.15805 1.16256 1.15805 1.16256 1.15804 1.16255
          1.15804 1.16255 1.15803 1.16255 1.15803 1.16254 1.158 1.16254 1.16259 1.16259 1.16259 1.16259
          1.16259 1.16259 1.16259 1.16259 1.16259 1.16259 1.16259 1.16259 1.16259 1.16259 1.16259 1.16259
          1.16259 1.16259 1.16259 1.16259 1.16259 1.16259 1.16259 1.16259 1.16259 1.16259 1.16259 1.16259
          1.16259 1.16259 1.16259 1.16259 1.16259 1.16259 1.16259 1.16259 1.16259 1.16259 1.16259 1.16259
          1.16259 1.16259 1.16259 1.16259 1.16259 1.16259 1.16259 1.16259 1.16259 1.16259 1.16259 1.16259
          1.16259 1.16259 1.16259 1.16259 1.16259 1.16259 1.16259 1.16259 1.16259 1.16259 1.16259 1.16259
          1.16259 1.16259 1.16259 1.16259 1.16259 1.16259 1.16259 1.16259 1.16259 1.16259 1.16259 1.16259
          1.16259 1.16259 1.16259 1.16259 1.16259 1.16259 1.16259 1.16259 1.16259 1.16259 1.16259 1.16259
          1.16259 1.16259 1.16259 1.16259 1.16259 1.16259 1.16259 1.16259 1.16259 1.16259 1.16259 1.16259
          1.16258 1.16258 1.16258 1.16258 1.16258 1.16258 1.16258 1.16258 1.16258 1.16258 1.16258 1.16259
        </DataArray>
        <DataArray type="Float32" Name="mu" NumberOfComponents="1" format="ascii">
          1.79265e-05 1.79264e-05 1.81222e-05 1.81221e-05 1.79263e-05 1.81219e-05 1.79263e-05 1.81218e-05 1.79262e-05 1.81216e-05 1.79262e-05 1.81215e-05
          1.79262e-05 1.81214e-05 1.79262e-05 1.81212e-05 1.79263e-05 1.81211e-05 1.79263e-05 1.81209e-05 1.79263e-05 1.81208e-05 1.79264e-05 1.81206e-05
          1.79264e-05 1.81205e-05 1.79264e-05 1.81203e-05 1.79265e-05 1.81202e-05 1.79266e-05 1.81201e-05 1.81222e-05 1.81222e-05 1.81222e-05 1.81222e-05
          1.81222e-05 1.81222e-05 1.81222e-05 1.81222e-05 1.81222e-05 1.81222e-05 1.81222e-05 1.81222e-05 1.81222e-05 1.81222e-05 1.81222e-05 1.81222e-05
          1.81222e-05 1.81222e-05 1.81222e-05 1.81222e-05 1.81222e-05 1.81222e-05 1.81222e-05 1.81222e-05 1.81222e-05 1.81222e-05 1.81222e-05 1.81222e-05
          1.81222e-05 1.81222e-05 1.81222e-05 1.81222e-05 1.81222e-05 1.81222e-05 1.81222e-05 1.81222e-05 1.81222e-05 1.81222e-05 1.81222e-05 1.81222e-05
          1.81222e-05 1.81222e-05 1.81222e-05 1.81222e-05 1.81222e-05 1.81222e-05 1.81222e-05 1.81222e-05 1.81222e-05 1.81222e-05 1.81222e-05 1.81222e-05
          1.81222e-05 1.81222e-05 1.81222e-05 1.81222e-05 1.81222e-05 1.81222e-05 1.81222e-05 1.81222e-05 1.81222e-05 1.81222e-05 1.81222e-05 1.81222e-05
          1.81222e-05 1.81222e-05 1.81222e-05 1.81222e-05 1.81222e-05 1.81222e-05 1.81222e-05 1.81222e-05 1.81222e-05 1.81222e-05 1.81222e-05 1.81222e-05
          1.81222e-05 1.81222e-05 1.81222e-05 1.81222e-05 1.81222e-05 1.81222e-05 1.81222e-05 1.81222e-05 1.81222e-05 1.81222e-05 1.81222e-05 1.81222e-05
          1.81222e-05 1.81222e-05 1.81222e-05 1.81222e-05 1.81222e-05 1.81222e-05 1.81222e-05 1.81222e-05 1.81222e-05 1.81222e-05 1.81222e-05 1.81222e-05
          1.81222e-05 1.81222e-05 1.81222e-05 1.81221e-05 1.81221e-05 1.81221e-05 1.81221e-05 1.81221e-05 1.81221e-05 1.81221e-05 1.81221e-05 1.81222e-05
        </DataArray>
        <DataArray type="Float32" Name="v" NumberOfComponents="3" format="ascii">
          0.000913727 1.24804e-05 0 0.000915849 1.31476e-05 0 1.11851 0 0 1.11893 -0.000213047 0
          0.000917983 1.31866e-05 0 1.1197 -0.000226832 0 0.000918642 1.31338e-05 0 1.12032 -0.000178034 0
          0.000919169 1.30769e-05 0 1.12085 -0.000139395 0 0.000919449 1.30068e-05 0 1.12123 -9.92824e-05 0
          0.000919687 1.29559e-05 0 1.12154 -7.27273e-05 0 0.000919819 1.29056e-05 0 1.12176 -4.90736e-05 0
          0.000919934 1.28682e-05 0 1.12193 -3.36245e-05 0 0.000919996 1.28318e-05 0 1.12205 -2.03338e-05 0
          0.000920052 1.28032e-05 0 1.12215 -1.15668e-05 0 0.000920081 1.2792e-05 0 1.12221 -4.22562e-06 0
          0.000920107 1.27829e-05 0 1.12226 9.09229e-07 0 0.000920114 1.27631e-05 0 1.12229 5.25064e-06 0
          0.000920132 1.28347e-05 0 1.12232 9.33952e-06 0 0.00092012 1.24617e-05 0 1.12233 1.02695e-05 0
          2.1001 0 0 2.10015 -0.00141918 0 2.10037 -0.00156163 0 2.10071 -0.0012885 0
          2.10104 -0.0010441 0 2.10135 -0.000782775 0 2.1016 -0.000601232 0 2.1018 -0.000438936 0
          2.10196 -0.000329099 0 2.10208 -0.000235116 0 2.10218 -0.000171137 0 2.10225 -0.000117013 0
          2.1023 -7.87185e-05 0 2.10233 -4.59402e-05 0 2.10235 -1.96522e-05 0 2.10237 3.60149e-06 0
          2.88064 0 0 2.88051 -0.000679385 0 2.88031 -0.00110108 0 2.88029 -0.00117614 0
          2.88035 -0.00107656 0 2.88047 -0.000912284 0 2.88062 -0.000742254 0 2.88076 -0.000583981 0
          2.88089 -0.000451889 0 2.881 -0.000340911 0 2.8811 -0.000254166 0 2.88117 -0.000183273 0
          2.88122 -0.000128444 0 2.88126 -8.20553e-05 0 2.88129 -4.33833e-05 0 2.8813 -5.66605e-06 0
          3.37718 0 0 3.37714 -0.000935895 0 3.37702 -0.00131992 0 3.37688 -0.00143175 0
          3.37677 -0.00137874 0 3.3767 -0.0012266 0 3.37667 -0.0010478 0 3.37666 -0.000857491 0
          3.37666 -0.000689334 0 3.37668 -0.000535833 0 3.37669 -0.000411343 0 3.3767 -0.000303178 0
          3.37671 -0.000217086 0 3.37672 -0.000141101 0 3.37673 -7.6745e-05 0 3.37673 -1.33457e-05 0
          3.48529 0 0 3.4852 -0.000273596 0 3.485 -0.000567597 0 3.48479 -0.000734779 0
          3.48458 -0.000790106 0 3.48441 -0.000765843 0 3.48427 -0.000693178 0 3.48416 -0.000597133 0
          3.48409 -0.000495396 0 3.48403 -0.000397566 0 3.484 -0.000310375 0 3.48397 -0.000233917 0
          3.48395 -0.000169664 0 3.48394 -0.000113139 0 3.48393 -6.40093e-05 0 3.48393 -1.53037e-05 0
          3.07414 0 0 3.07409 -0.000365463 0 3.07397 -0.000531 0 3.0738 -0.000623784 0
          3.0736 -0.00065242 0 3.07341 -0.000633727 0 3.07323 -0.000582233 0 3.07308 -0.000510529 0
          3.07294 -0.000432816 0 3.07283 -0.000353559 0 3.07275 -0.000281276 0 3.07268 -0.000214435 0
          3.07263 -0.000156713 0 3.07259 -0.000103961 0 3.07257 -5.68017e-05 0 3.07256 -1.04773e-05 0
          1.98047 0 0 1.98041 0.00014399 0 1.98031 0.000120857 0 1.98018 8.18364e-05 0
          1.98003 4.57541e-05 0 1.97988 2.24485e-05 0 1.97974 7.8407e-06 0 1.97962 1.16417e-06 0
          1.97951 -1.04726e-06 0 1.97942 -9.76303e-07 0 1.97935 9.90846e-08 0 1.97929 6.15184e-07 0
          1.97925 8.41782e-07 0 1.97922 -4.14721e-08 0 1.9792 -9.95718e-07 0 1.9792 -3.54238e-06 0
          0.00134 0 0 0.00134 0 0 0.00134 0 0 0.00134 0 0
          0.00134 0 0 0.00134 0 0 0.00134 0 0 0.00134 0 0
          0.00134 0 0 0.00134 0 0 0.00134 0 0 0.00134 0 0
          0.00134 0 0 0.00134 0 0 0.00134 0 0 0.00134 0 0
        </DataArray>
      </PointData>
      <Points>
        <DataArray type="Float32" Name="Coordinates" NumberOfComponents="3" format="ascii">
          0 0.25 0 0.0166667 0.25 0 0 0.271861 0 0.0166667 0.271861 0
          0.0333333 0.25 0 0.0333333 0.271861 0 0.05 0.25 0 0.05 0.271861 0
          0.0666667 0.25 0 0.0666667 0.271861 0 0.0833333 0.25 0 0.0833333 0.271861 0
          0.1 0.25 0 0.1 0.271861 0 0.116667 0.25 0 0.116667 0.271861 0
          0.133333 0.25 0 0.133333 0.271861 0 0.15 0.25 0 0.15 0.271861 0
          0.166667 0.25 0 0.166667 0.271861 0 0.183333 0.25 0 0.183333 0.271861 0
          0.2 0.25 0 0.2 0.271861 0 0.216667 0.25 0 0.216667 0.271861 0
          0.233333 0.25 0 0.233333 0.271861 0 0.25 0.25 0 0.25 0.271861 0
          0 0.295908 0 0.0166667 0.295908 0 0.0333333 0.295908 0 0.05 0.295908 0
          0.0666667 0.295908 0 0.0833333 0.295908 0 0.1 0.295908 0 0.116667 0.295908 0
          0.133333 0.295908 0 0.15 0.295908 0 0.166667 0.295908 0 0.183333 0.295908 0
          0.2 0.295908 0 0.216667 0.295908 0 0.233333 0.295908 0 0.25 0.295908 0
          0 0.32236 0 0.0166667 0.32236 0 0.0333333 0.32236 0 0.05 0.32236 0
          0.0666667 0.32236 0 0.0833333 0.32236 0 0.1 0.32236 0 0.116667 0.32236 0
          0.133333 0.32236 0 0.15 0.32236 0 0.166667 0.32236 0 0.183333 0.32236 0
          0.2 0.32236 0 0.216667 0.32236 0 0.233333 0.32236 0 0.25 0.32236 0
          0 0.351457 0 0.0166667 0.351457 0 0.0333333 0.351457 0 0.05 0.351457 0
          0.0666667 0.351457 0 0.0833333 0.351457 0 0.1 0.351457 0 0.116667 0.351457 0
          0.133333 0.351457 0 0.15 0.351457 0 0.166667 0.351457 0 0.183333 0.351457 0
          0.2 0.351457 0 0.216667 0.351457 0 0.233333 0.351457 0 0.25 0.351457 0
          0 0.383464 0 0.0166667 0.383464 0 0.0333333 0.383464 0 0.05 0.383464 0
          0.0666667 0.383464 0 0.0833333 0.383464 0 0.1 0.383464 0 0.116667 0.383464 0
          0.133333 0.383464 0 0.15 0.383464 0 0.166667 0.383464 0 0.183333 0.383464 0
          0.2 0.383464 0 0.216667 0.383464 0 0.233333 0.383464 0 0.25 0.383464 0
          0 0.418671 0 0.0166667 0.418671 0 0.0333333 0.418671 0 0.05 0.418671 0
          0.0666667 0.418671 0 0.0833333 0.418671 0 0.1 0.418671 0 0.116667 0.418671 0
          0.133333 0.418671 0 0.15 0.418671 0 0.166667 0.418671 0 0.183333 0.418671 0
          0.2 0.418671 0 0.216667 0.418671 0 0.233333 0.418671 0 0.25 0.418671 0
          0 0.457399 0 0.0166667 0.457399 0 0.0333333 0.457399 0 0.05 0.457399 0
          0.0666667 0.457399 0 0.0833333 0.457399 0 0.1 0.457399 0 0.116667 0.457399 0
          0.133333 0.457399 0 0.15 0.457399 0 0.166667 0.457399 0 0.183333 0.457399 0
          0.2 0.457399 0 0.216667 0.457399 0 0.233333 0.457399 0 0.25 0.457399 0
          0 0.5 0 0.0166667 0.5 0 0.0333333 0.5 0 0.05 0.5 0
          0.0666667 0.5 0 0.0833333 0.5 0 0.1 0.5 0 0.116667 0.5 0
          0.133333 0.5 0 0.15 0.5 0 0.166667 0.5 0 0.183333 0.5 0
          0.2 0.5 0 0.216667 0.5 0 0.233333 0.5 0 0.25 0.5 0
        </DataArray>
      </Points>
      <Cells>
        <DataArray type="Int32" Name="connectivity" NumberOfComponents="1" format="ascii">
          0 1 3 2 1 4 5 3 4 6 7 5
          6 8 9 7 8 10 11 9 10 12 13 11
          12 14 15 13 14 16 17 15 16 18 19 17
          18 20 21 19 20 22 23 21 22 24 25 23
          24 26 27 25 26 28 29 27 28 30 31 29
          2 3 33 32 3 5 34 33 5 7 35 34
          7 9 36 35 9 11 37 36 11 13 38 37
          13 15 39 38 15 17 40 39 17 19 41 40
          19 21 42 41 21 23 43 42 23 25 44 43
          25 27 45 44 27 29 46 45 29 31 47 46
          32 33 49 48 33 34 50 49 34 35 51 50
          35 36 52 51 36 37 53 52 37 38 54 53
          38 39 55 54 39 40 56 55 40 41 57 56
          41 42 58 57 42 43 59 58 43 44 60 59
          44 45 61 60 45 46 62 61 46 47 63 62
          48 49 65 64 49 50 66 65 50 51 67 66
          51 52 68 67 52 53 69 68 53 54 70 69
          54 55 71 70 55 56 72 71 56 57 73 72
          57 58 74 73 58 59 75 74 59 60 76 75
          60 61 77 76 61 62 78 77 62 63 79 78
          64 65 81 80 65 66 82 81 66 67 83 82
          67 68 84 83 68 69 85 84 69 70 86 85
          70 71 87 86 71 72 88 87 72 73 89 88
          73 74 90 89 74 75 91 90 75 76 92 91
          76 77 93 92 77 78 94 93 78 79 95 94
          80 81 97 96 81 82 98 97 82 83 99 98
          83 84 100 99 84 85 101 100 85 86 102 101
          86 87 103 102 87 88 104 103 88 89 105 104
          89 90 106 105 90 91 107 106 91 92 108 107
          92 93 109 108 93 94 110 109 94 95 111 110
          96 97 113 112 97 98 114 113 98 99 115 114
          99 100 116 115 100 101 117 116 101 102 118 117
          102 103 119 118 103 104 120 119 104 105 121 120
          105 106 122 121 106 107 123 122 107 108 124 123
          108 109 125 124 109 110 126 125 110 111 127 126
          112 113 129 128 113 114 130 129 114 115 131 130
          115 116 132 131 116 117 133 132 117 118 134 133
          118 119 135 134 119 120 136 135 120 121 137 136
          121 122 138 137 122 123 139 138 123 124 140 139
          124 125 141 140 125 126 142 141 126 127 143 142
        </DataArray>
        <DataArray type="Int32" Name="offsets" NumberOfComponents="1" format="ascii">
          4 8 12 16 20 24 28 32 36 40 44 48
          52 56 60 64 68 72 76 80 84 88 92 96
          100 104 108 112 116 120 124 128 132 136 140 144
          148 152 156 160 164 168 172 176 180 184 188 192
          196 200 204 208 212 216 220 224 228 232 236 240
          244 248 252 256 260 264 268 272 276 280 284 288
          292 296 300 304 308 312 316 320 324 328 332 336
          340 344 348 352 356 360 364 368 372 376 380 384
          388 392 396 400 404 408 412 416 420 424 428 432
          436 440 444 448 452 456 460 464 468 472 476 480
        </DataArray>
        <DataArray type="UInt8" Name="types" NumberOfComponents="1" format="ascii">
          9 9 9 9 9 9 9 9 9 9 9 9
          9 9 9 9 9 9 9 9 9 9 9 9
          9 9 9 9 9 9 9 9 9 9 9 9
          9 9 9 9 9 9 9 9 9 9 9 9
          9 9 9 9 9 9 9 9 9 9 9 9
          9 9 9 9 9 9 9 9 9 9 9 9
          9 9 9 9 9 9 9 9 9 9 9 9
          9 9 9 9 9 9 9 9 9 9 9 9
          9 9 9 9 9 9 9 9 9 9 9 9
          9 9 9 9 9 9 9 9 9 9 9 9
        </DataArray>
      </Cells>
    </Piece>
  </UnstructuredGrid>
</VTKFile>
