<?xml version="1.0"?>
<VTKFile type="UnstructuredGrid" version="0.1" byte_order="LittleEndian">
  <UnstructuredGrid>
    <Piece NumberOfCells="20" NumberOfPoints="30">
      <PointData Scalars="Sn" Vectors="velocityW">
        <DataArray type="Float32" Name="Sn" NumberOfComponents="1" format="ascii">
          0.0541983 0.0542091 0.845227 0.844958 0.054198 0.844447 0.0541901 0.843815 0.0541936 0.843275 0.0541935 0.843079
          0.930616 0.930456 0.929041 0.92762 0.926908 0.926575 0.956764 0.961335 0.953634 0.949438 0.94856 0.94807
          0.966191 1 0.976356 0.970356 0.969058 0.964191
        </DataArray>
        <DataArray type="Float32" Name="Sw" NumberOfComponents="1" format="ascii">
          0.945802 0.945791 0.154773 0.155042 0.945802 0.155553 0.94581 0.156185 0.945806 0.156725 0.945807 0.156921
          0.0693838 0.0695439 0.0709594 0.0723798 0.0730924 0.0734245 0.0432361 0.0386648 0.0463664 0.0505624 0.0514396 0.0519299
          0.0338085 0 0.0236443 0.0296441 0.0309418 0.0358094
        </DataArray>
        <DataArray type="Float32" Name="pn" NumberOfComponents="1" format="ascii">
          100010 100010 100006 100006 100010 100005 100009 100004 100009 100004 100009 100004
          100006 100005 100004 100003 100003 100002 100007 100006 100002 100004 100001 100000
          100007 100011 99994.4 100009 99996.8 100000
        </DataArray>
        <DataArray type="Float32" Name="pw" NumberOfComponents="1" format="ascii">
          98920.4 98920.3 97983 97983.4 98920.1 97984 98919.9 97984.8 98919.6 97985.5 98919.5 97985.8
          97701.5 97701.8 97708.1 97714.6 97717.4 97718.7 97518.2 97470.8 97541.7 97578 97582 97585.2
          97412.9 96327.2 97231.7 97355.5 97363 97431.4
        </DataArray>
        <DataArray type="Float32" Name="pc" NumberOfComponents="1" format="ascii">
          1089.46 1089.49 2022.77 2022.18 1089.45 2021.07 1089.43 2019.7 1089.44 2018.53 1089.44 2018.11
          2304.47 2303.62 2296.15 2288.84 2285.23 2283.57 2488.96 2535.72 2460.41 2425.71 2418.91 2415.17
          2593.92 3684.13 2762.7 2653.4 2633.72 2568.69
        </DataArray>
        <DataArray type="Float32" Name="rhoW" NumberOfComponents="1" format="ascii">
          997.055 997.055 997.102 997.104 997.055 997.107 997.055 997.105 997.055 997.099 997.055 997.096
          997.296 997.332 997.379 997.384 997.325 997.279 997.624 997.868 998.114 998.189 997.963 997.631
          997.532 998.539 999.096 999.069 999.033 997.575
        </DataArray>
        <DataArray type="Float32" Name="rhoN" NumberOfComponents="1" format="ascii">
          1.15439 1.15439 1.15521 1.15524 1.15439 1.15529 1.15438 1.15525 1.15438 1.15514 1.15438 1.15508
          1.15885 1.15952 1.16042 1.16051 1.15935 1.15847 1.16526 1.17024 1.17549 1.17717 1.17218 1.16532
          1.16342 1.18835 1.20053 1.19987 1.19864 1.16419
        </DataArray>
        <DataArray type="Float32" Name="mobW" NumberOfComponents="1" format="ascii">
          1005.57 1005.53 4.57761 4.59987 1005.57 4.64271 1005.61 4.69826 1005.59 4.74797 1005.59 4.76668
          0.424004 0.425534 0.450082 0.477443 0.494458 0.503389 0.0959478 0.0655856 0.113365 0.147152 0.159242 0.169801
          0.0439688 0 0.0107183 0.0234386 0.0272086 0.0527971
        </DataArray>
        <DataArray type="Float32" Name="mobN" NumberOfComponents="1" format="ascii">
          108.777 108.832 42492.3 42468.3 108.775 42422.3 108.735 42364 108.753 42313 108.752 42294.1
          51010.3 51004.6 50858.4 50696 50592.2 50537.5 53929.7 54444.1 53851.4 53466.5 53267.8 53073.5
          54694 56207.5 56243.6 55848.8 55729.7 54554.6
        </DataArray>
        <DataArray type="Float32" Name="X_liquid^H2O" NumberOfComponents="1" format="ascii">
          0.999978 0.999978 0.999978 0.999978 0.999978 0.999978 0.999978 0.999978 0.999978 0.999978 0.999978 0.999978
          0.999978 0.999978 0.999978 0.999978 0.999978 0.999978 0.999978 0.999977 0.999977 0.999976 0.999977 0.999978
          0.999978 0.689499 0.999974 0.999974 0.999974 0.999978
        </DataArray>
        <DataArray type="Float32" Name="X_liquid^Air" NumberOfComponents="1" format="ascii">
          2.1549e-05 2.1549e-05 2.16179e-05 2.16209e-05 2.1549e-05 2.16252e-05 2.15489e-05 2.16226e-05 2.15489e-05 2.16137e-05 2.15488e-05 2.16086e-05
          2.19168e-05 2.19731e-05 2.20493e-05 2.20574e-05 2.19612e-05 2.18881e-05 2.24639e-05 2.2912e-05 2.3408e-05 2.35688e-05 2.3096e-05 2.2475e-05
          2.23041e-05 2.45546e-05 2.6096e-05 2.60011e-05 2.58711e-05 2.23764e-05
        </DataArray>
        <DataArray type="Float32" Name="X_gas^H2O" NumberOfComponents="1" format="ascii">
          0.0199549 0.0199549 0.019735 0.0197255 0.019955 0.0197117 0.019955 0.0197196 0.0199551 0.0197473 0.0199551 0.0197631
          0.0188292 0.0186651 0.0184465 0.0184233 0.0186983 0.0189116 0.0173254 0.0162239 0.015122 0.0147899 0.0157999 0.017294
          0.0177456 0.00911489 0.0107397 0.0108629 0.0110278 0.0175506
        </DataArray>
        <DataArray type="Float32" Name="X_gas^Air" NumberOfComponents="1" format="ascii">
          0.980045 0.980045 0.980265 0.980274 0.980045 0.980288 0.980045 0.98028 0.980045 0.980253 0.980045 0.980237
          0.981171 0.981335 0.981553 0.981577 0.981302 0.981088 0.982675 0.983776 0.984878 0.98521 0.9842 0.982706
          0.982254 0.990885 0.98926 0.989137 0.988972 0.982449
        </DataArray>
        <DataArray type="Float32" Name="x_liquid^H2O" NumberOfComponents="1" format="ascii">
          0.999987 0.999987 0.999987 0.999987 0.999987 0.999987 0.999987 0.999987 0.999987 0.999987 0.999987 0.999987
          0.999986 0.999986 0.999986 0.999986 0.999986 0.999986 0.999986 0.999986 0.999985 0.999985 0.999986 0.999986
          0.999986 0.689508 0.999984 0.999984 0.999984 0.999986
        </DataArray>
        <DataArray type="Float32" Name="x_liquid^Air" NumberOfComponents="1" format="ascii">
          1.34051e-05 1.34051e-05 1.3448e-05 1.34498e-05 1.34051e-05 1.34525e-05 1.34051e-05 1.34509e-05 1.3405e-05 1.34453e-05 1.3405e-05 1.34422e-05
          1.36339e-05 1.3669e-05 1.37163e-05 1.37214e-05 1.36615e-05 1.36161e-05 1.39743e-05 1.4253e-05 1.45616e-05 1.46616e-05 1.43675e-05 1.39812e-05
          1.38748e-05 1.52749e-05 1.62337e-05 1.61747e-05 1.60938e-05 1.39198e-05
        </DataArray>
        <DataArray type="Float32" Name="x_gas^H2O" NumberOfComponents="1" format="ascii">
          0.0316939 0.0316939 0.0313488 0.0313339 0.031694 0.0313123 0.0316941 0.0313246 0.0316942 0.0313682 0.0316942 0.031393
          0.0299263 0.0296684 0.0293247 0.0292883 0.0297206 0.0300557 0.027561 0.0258259 0.0240878 0.0235635 0.0251573 0.0275117
          0.0282223 0.0145718 0.0171525 0.017348 0.0176096 0.0279156
        </DataArray>
        <DataArray type="Float32" Name="x_gas^Air" NumberOfComponents="1" format="ascii">
          0.968306 0.968306 0.968651 0.968666 0.968306 0.968688 0.968306 0.968675 0.968306 0.968632 0.968306 0.968607
          0.970074 0.970332 0.970675 0.970712 0.970279 0.969944 0.972439 0.974174 0.975912 0.976436 0.974843 0.972488
          0.971778 0.985428 0.982848 0.982652 0.98239 0.972084
        </DataArray>
        <DataArray type="Float32" Name="porosity" NumberOfComponents="1" format="ascii">
          0.41 0.41 0.41 0.41 0.41 0.41 0.41 0.41 0.41 0.41 0.41 0.41
          0.41 0.41 0.41 0.41 0.41 0.41 0.41 0.41 0.41 0.41 0.41 0.41
          0.41 0.41 0.41 0.41 0.41 0.41
        </DataArray>
        <DataArray type="Float32" Name="temperature" NumberOfComponents="1" format="ascii">
          298.15 298.15 297.966 297.958 298.15 297.946 298.15 297.953 298.15 297.976 298.15 297.989
          297.19 297.046 296.852 296.831 297.075 297.261 295.826 294.759 293.625 293.269 294.33 295.796
          296.218 291.523 288.236 288.414 288.645 296.036
        </DataArray>
        <DataArray type="Float32" Name="phase presence" NumberOfComponents="1" format="ascii">
          3 3 3 3 3 3 3 3 3 3 3 3
          3 3 3 3 3 3 3 3 3 3 3 3
          3 2 3 3 3 3
        </DataArray>
        <DataArray type="Float32" Name="velocityW" NumberOfComponents="3" format="ascii">
          -2.00644e-08 -9.1669e-07 0 -3.5498e-08 -9.25946e-07 0 -7.27276e-09 -7.7949e-07 0 -1.85764e-08 -7.85808e-07 0
          -5.72596e-08 -9.43901e-07 0 -3.21508e-08 -8.17698e-07 0 -5.81418e-08 -9.67282e-07 0 -2.82588e-08 -8.55205e-07 0
          -3.64737e-08 -9.8846e-07 0 -1.54207e-08 -8.81278e-07 0 -2.02514e-08 -9.96464e-07 0 -8.74553e-09 -8.93105e-07 0
          1.27968e-08 -3.91766e-07 0 -9.89381e-09 -3.67023e-07 0 -2.83336e-08 -4.37201e-07 0 -1.5587e-08 -5.03197e-07 0
          -5.38843e-09 -5.317e-07 0 -3.68563e-09 -5.49743e-07 0 8.71103e-08 -4.42691e-08 0 -6.63138e-09 1.27639e-07 0
          -6.71553e-08 -3.87927e-08 0 -1.87915e-08 -1.38543e-07 0 -6.82243e-09 -1.55211e-07 0 -9.99928e-09 -1.84655e-07 0
          1.92524e-07 5.27048e-08 0 7.64904e-08 3.43654e-07 0 -2.61055e-08 1.05321e-07 0 -6.81317e-09 -1.38197e-08 0
          -7.76495e-09 -2.11177e-08 0 -1.45718e-08 -5.95687e-08 0
        </DataArray>
        <DataArray type="Float32" Name="velocityN" NumberOfComponents="3" format="ascii">
          6.73126e-08 8.18643e-07 0 1.18821e-07 8.51109e-07 0 5.50505e-05 -8.92129e-05 0 9.02109e-05 -5.76791e-05 0
          1.85966e-07 9.24667e-07 0 0.000125883 -2.07898e-06 0 1.79446e-07 1.00208e-06 0 0.00011319 2.39723e-05 0
          1.08121e-07 1.05697e-06 0 7.01381e-05 5.14096e-05 0 5.89515e-08 1.07692e-06 0 4.02918e-05 6.76155e-05 0
          0.000152781 -0.00034981 0 0.000277788 -0.000245491 0 0.000265699 0.000129328 0 0.000197947 -1.51697e-05 0
          0.00018583 0.000187936 0 0.000104369 0.000251422 0 1.67707e-05 -0.000561679 0 0.000807003 -0.000908292 0
          0.000385691 0.00110523 0 0.000110496 -0.000709046 0 0.000527921 0.000632096 0 8.99541e-06 0.000394974 0
          -0.000950653 -0.000602984 0 0.00158199 -0.00144181 0 0.00038089 0.00194673 0 -0.000223613 -0.00134081 0
          0.00111003 0.000990083 0 -0.000685574 0.000421257 0
        </DataArray>
      </PointData>
      <CellData Scalars="process rank">
        <DataArray type="Float32" Name="process rank" NumberOfComponents="1" format="ascii">
          0 0 0 0 0 0 0 0 0 0 0 0
          0 0 0 0 0 0 0 0
        </DataArray>
      </CellData>
      <Points>
        <DataArray type="Float32" Name="Coordinates" NumberOfComponents="3" format="ascii">
          0.05 0 0 0.1 0 0 0.05 0.103846 0 0.1 0.103846 0
          0.15 0 0 0.15 0.103846 0 0.2 0 0 0.2 0.103846 0
          0.25 0 0 0.25 0.103846 0 0.3 0 0 0.3 0.103846 0
          0.05 0.173077 0 0.1 0.173077 0 0.15 0.173077 0 0.2 0.173077 0
          0.25 0.173077 0 0.3 0.173077 0 0.05 0.219231 0 0.1 0.219231 0
          0.15 0.219231 0 0.2 0.219231 0 0.25 0.219231 0 0.3 0.219231 0
          0.05 0.25 0 0.1 0.25 0 0.15 0.25 0 0.2 0.25 0
          0.25 0.25 0 0.3 0.25 0
        </DataArray>
      </Points>
      <Cells>
        <DataArray type="Int32" Name="connectivity" NumberOfComponents="1" format="ascii">
          0 1 3 2 1 4 5 3 4 6 7 5
          6 8 9 7 8 10 11 9 2 3 13 12
          3 5 14 13 5 7 15 14 7 9 16 15
          9 11 17 16 12 13 19 18 13 14 20 19
          14 15 21 20 15 16 22 21 16 17 23 22
          18 19 25 24 19 20 26 25 20 21 27 26
          21 22 28 27 22 23 29 28
        </DataArray>
        <DataArray type="Int32" Name="offsets" NumberOfComponents="1" format="ascii">
          4 8 12 16 20 24 28 32 36 40 44 48
          52 56 60 64 68 72 76 80
        </DataArray>
        <DataArray type="UInt8" Name="types" NumberOfComponents="1" format="ascii">
          9 9 9 9 9 9 9 9 9 9 9 9
          9 9 9 9 9 9 9 9
        </DataArray>
      </Cells>
    </Piece>
  </UnstructuredGrid>
</VTKFile>
