<?xml version="1.0"?>
<VTKFile type="UnstructuredGrid" version="0.1" byte_order="LittleEndian">
  <UnstructuredGrid>
    <Piece NumberOfCells="56" NumberOfPoints="72">
      <PointData Scalars="P" Vectors="v">
        <DataArray type="Float32" Name="P" NumberOfComponents="1" format="ascii">
          100017 99989.9 100017 99989.8 100012 100013 99994 99992.8 100009 100009 99996.7 99996.4
          100005 100005 100000 100000 100020 99988.6 100013 99993.2 100009 99996.5 100005 100000
          100019 99988.5 100014 99992.2 100010 99996.1 100006 100000 100019 99988.2 100014 99992.4
          100010 99996.2 100006 100000 100019 99988.5 100014 99992.2 100010 99996.1 100006 100000
          100020 99988.7 100014 99992.5 100010 99996.2 100005 100000 100017 99989.9 100013 99992.7
          100009 99996.3 100005 100000 100017 99989.9 100013 99992.7 100009 99996.2 100005 100000
        </DataArray>
        <DataArray type="Float32" Name="delP" NumberOfComponents="1" format="ascii">
          17.0311 -10.0533 16.8437 -10.2407 11.8657 13.4091 -6.01278 -7.19859 8.98304 9.36171 -3.33467 -3.63662
          5.29711 5.33494 0 0 19.9201 -11.3619 13.1295 -6.76858 9.30521 -3.4663 5.40075 0
          18.9943 -11.5499 14.411 -7.80439 9.85341 -3.91018 5.69921 0 18.7314 -11.8034 14.1404 -7.62101
          9.83132 -3.81454 5.72405 0 19.0626 -11.4943 14.3622 -7.78375 9.83975 -3.94854 5.64345 0
          19.7387 -11.2998 13.9198 -7.49718 9.53894 -3.78454 5.34882 0 16.8441 -10.0854 13.3702 -7.32084
          9.39202 -3.74292 5.17183 0 16.8093 -10.1202 13.3617 -7.33276 9.39042 -3.74684 5.19879 0
        </DataArray>
        <DataArray type="Float32" Name="x_gas^H2O" NumberOfComponents="1" format="ascii">
          0.0127981 0.0102828 0.0127981 0.0127009 0.0142064 0.0127217 0.0175525 0.012813 0.0179686 0.0128703 0.01842 0.0129348
          0.0149336 0.0129448 0.0104794 0.0118516 0.0127981 0.0127923 0.0127909 0.0127919 0.0127945 0.0127988 0.0127919 0.0120691
          0.0127981 0.0127978 0.0127976 0.0127974 0.0127974 0.012797 0.0127808 0.0120893 0.0127981 0.012798 0.012798 0.0127979
          0.0127977 0.0127969 0.0127739 0.0120809 0.0127981 0.0127976 0.0127968 0.0127956 0.0127943 0.0127924 0.0127747 0.0120817
          0.0127981 0.0127891 0.0127793 0.0127659 0.0127555 0.0127459 0.0127281 0.0119794 0.0127981 0.0126685 0.0125724 0.0124801
          0.0124315 0.0124006 0.0123717 0.0113294 0.0127981 0.00999341 0.00904181 0.00853467 0.00859602 0.00915534 0.00746736 0.00584084
        </DataArray>
        <DataArray type="Float32" Name="X_gas^H2O" NumberOfComponents="1" format="ascii">
          0.008 0.00642157 0.008 0.00793895 0.00888508 0.00795206 0.0109918 0.00800937 0.0112542 0.0080454 0.0115389 0.00808589
          0.00934249 0.00809218 0.00654483 0.00740571 0.008 0.00799637 0.00799549 0.00799614 0.00799778 0.00800044 0.00799615 0.00754223
          0.008 0.00799985 0.00799973 0.00799961 0.00799956 0.00799934 0.00798913 0.00755494 0.008 0.00799998 0.00799995 0.00799989
          0.0079998 0.00799929 0.00798482 0.00754965 0.008 0.00799971 0.00799923 0.00799843 0.00799761 0.00799646 0.00798534 0.00755016
          0.008 0.00799438 0.00798819 0.00797981 0.00797329 0.00796722 0.00795607 0.00748595 0.008 0.0079186 0.00785826 0.00780027
          0.00776978 0.00775035 0.00773224 0.00707799 0.008 0.00624018 0.00564394 0.00532635 0.00536476 0.00571505 0.00465838 0.00364146
        </DataArray>
        <DataArray type="Float32" Name="x_gas^Air" NumberOfComponents="1" format="ascii">
          0.987202 0.989717 0.987202 0.987299 0.985794 0.987278 0.982448 0.987187 0.982031 0.98713 0.98158 0.987065
          0.985066 0.987055 0.989521 0.988148 0.987202 0.987208 0.987209 0.987208 0.987206 0.987201 0.987208 0.987931
          0.987202 0.987202 0.987202 0.987203 0.987203 0.987203 0.987219 0.987911 0.987202 0.987202 0.987202 0.987202
          0.987202 0.987203 0.987226 0.987919 0.987202 0.987202 0.987203 0.987204 0.987206 0.987208 0.987225 0.987918
          0.987202 0.987211 0.987221 0.987234 0.987244 0.987254 0.987272 0.988021 0.987202 0.987332 0.987428 0.98752
          0.987568 0.987599 0.987628 0.988671 0.987202 0.990007 0.990958 0.991465 0.991404 0.990845 0.992533 0.994159
        </DataArray>
        <DataArray type="Float32" Name="X_gas^Air" NumberOfComponents="1" format="ascii">
          0.992 0.993578 0.992 0.992061 0.991115 0.992048 0.989008 0.991991 0.988746 0.991955 0.988461 0.991914
          0.990658 0.991908 0.993455 0.992594 0.992 0.992004 0.992005 0.992004 0.992002 0.992 0.992004 0.992458
          0.992 0.992 0.992 0.992 0.992 0.992001 0.992011 0.992445 0.992 0.992 0.992 0.992
          0.992 0.992001 0.992015 0.99245 0.992 0.992 0.992001 0.992002 0.992002 0.992004 0.992015 0.99245
          0.992 0.992006 0.992012 0.99202 0.992027 0.992033 0.992044 0.992514 0.992 0.992081 0.992142 0.9922
          0.99223 0.99225 0.992268 0.992922 0.992 0.99376 0.994356 0.994674 0.994635 0.994285 0.995342 0.996359
        </DataArray>
        <DataArray type="Float32" Name="rho" NumberOfComponents="1" format="ascii">
          1.16277 1.16356 1.16277 1.16254 1.18533 1.16304 1.19886 1.16342 1.19734 1.16394 1.19538 1.16408
          1.1617 1.16419 1.19229 1.17266 1.16281 1.16245 1.16274 1.16255 1.16277 1.16266 1.16288 1.16863
          1.1628 1.16244 1.16275 1.16249 1.1627 1.16254 1.16279 1.16826 1.16279 1.16244 1.16274 1.16249
          1.16269 1.16254 1.16283 1.16831 1.1628 1.16244 1.16274 1.16249 1.16269 1.16254 1.16278 1.16826
          1.16281 1.16245 1.16275 1.1625 1.16271 1.16256 1.16275 1.16869 1.16277 1.16252 1.16283 1.16263
          1.16285 1.16271 1.16289 1.17139 1.16277 1.16369 1.16438 1.16436 1.16453 1.16413 1.16498 1.19277
        </DataArray>
        <DataArray type="Float32" Name="mu" NumberOfComponents="1" format="ascii">
          1.82987e-05 1.83222e-05 1.82987e-05 1.82992e-05 1.80015e-05 1.82961e-05 1.77887e-05 1.8287e-05 1.78027e-05 1.82821e-05 1.78177e-05 1.82775e-05
          1.82788e-05 1.82774e-05 1.79708e-05 1.81883e-05 1.82987e-05 1.82987e-05 1.82987e-05 1.82982e-05 1.82977e-05 1.82971e-05 1.82958e-05 1.82347e-05
          1.82987e-05 1.82987e-05 1.82987e-05 1.82987e-05 1.82987e-05 1.82986e-05 1.82972e-05 1.82389e-05 1.82987e-05 1.82987e-05 1.82987e-05 1.82987e-05
          1.82987e-05 1.82987e-05 1.82968e-05 1.82384e-05 1.82987e-05 1.82987e-05 1.82987e-05 1.82988e-05 1.82988e-05 1.82987e-05 1.82974e-05 1.8239e-05
          1.82987e-05 1.82988e-05 1.82989e-05 1.8299e-05 1.82991e-05 1.82992e-05 1.82984e-05 1.82353e-05 1.82987e-05 1.82999e-05 1.83008e-05 1.83017e-05
          1.83022e-05 1.83024e-05 1.83019e-05 1.82116e-05 1.82987e-05 1.83249e-05 1.83338e-05 1.83386e-05 1.8338e-05 1.83328e-05 1.83485e-05 1.8033e-05
        </DataArray>
        <DataArray type="Float32" Name="D" NumberOfComponents="1" format="ascii">
          2.49325e-05 2.49393e-05 2.49326e-05 2.49379e-05 2.40614e-05 2.4923e-05 2.35176e-05 2.49024e-05 2.35675e-05 2.48849e-05 2.36277e-05 2.48757e-05
          2.49354e-05 2.48733e-05 2.38672e-05 2.45681e-05 2.49318e-05 2.49395e-05 2.4933e-05 2.49366e-05 2.49312e-05 2.49327e-05 2.49262e-05 2.47173e-05
          2.4932e-05 2.49396e-05 2.49331e-05 2.49386e-05 2.49341e-05 2.49373e-05 2.493e-05 2.47309e-05 2.49321e-05 2.49397e-05 2.49332e-05 2.49386e-05
          2.49343e-05 2.49375e-05 2.49285e-05 2.4729e-05 2.4932e-05 2.49396e-05 2.49332e-05 2.49387e-05 2.49343e-05 2.49376e-05 2.49305e-05 2.4731e-05
          2.49318e-05 2.49396e-05 2.49333e-05 2.49386e-05 2.49344e-05 2.49376e-05 2.49323e-05 2.47165e-05 2.49326e-05 2.49393e-05 2.49334e-05 2.49386e-05
          2.49344e-05 2.49377e-05 2.4933e-05 2.46247e-05 2.49326e-05 2.49393e-05 2.49334e-05 2.49386e-05 2.49344e-05 2.49377e-05 2.49355e-05 2.39254e-05
        </DataArray>
        <DataArray type="Float32" Name="lambda" NumberOfComponents="1" format="ascii">
          0 0 0 0 0 0 0 0 0 0 0 0
          0 0 0 0 0 0 0 0 0 0 0 0
          0 0 0 0 0 0 0 0 0 0 0 0
          0 0 0 0 0 0 0 0 0 0 0 0
          0 0 0 0 0 0 0 0 0 0 0 0
          0 0 0 0 0 0 0 0 0 0 0 0
        </DataArray>
        <DataArray type="Float32" Name="temperature" NumberOfComponents="1" format="ascii">
          298.15 298.15 298.15 298.141 292.309 298.081 288.591 297.91 288.955 297.821 289.345 297.738
          298.15 297.737 290.976 295.693 298.15 298.149 298.147 298.138 298.129 298.117 298.088 296.689
          298.15 298.15 298.15 298.149 298.149 298.147 298.115 296.78 298.15 298.15 298.15 298.15
          298.15 298.148 298.105 296.767 298.15 298.15 298.15 298.15 298.15 298.149 298.118 296.781
          298.15 298.15 298.15 298.15 298.15 298.15 298.129 296.684 298.15 298.15 298.15 298.15
          298.15 298.15 298.134 296.071 298.15 298.15 298.15 298.15 298.15 298.15 298.15 291.37
        </DataArray>
        <DataArray type="Float32" Name="v" NumberOfComponents="3" format="ascii">
          0 0 0 0 0 0 3.5 0 0 3.713 0.134291 0
          -0.0102063 -0.00533423 0 3.15839 -0.101088 0 0.453513 0.00844882 0 3.54653 0.0340601 0
          -0.0492294 -0.00638085 0 3.01029 -0.0102395 0 0.47709 0.00399566 0 3.46602 0.00665759 0
          0 0 0 2.95011 -0.034751 0 1.42264 -0.0153187 0 3.39992 -0.0511312 0
          3.5 0 0 4.14452 0.117831 0 3.65458 0.0126129 0 4.05163 0.0619101 0
          3.64495 0.0103223 0 4.03654 0.0270924 0 3.61642 -0.0207277 0 3.98399 -0.0303423 0
          3.5 0 0 4.04177 0.0479966 0 3.6127 -0.0278545 0 4.10036 0.029853 0
          3.68594 -0.000970651 0 4.12824 0.018763 0 3.71418 -0.00640347 0 4.10453 -0.0109316 0
          3.5 0 0 4.01731 -0.00523188 0 3.57515 -0.00330734 0 4.04789 -0.00495635 0
          3.64221 -0.00402436 0 4.08288 -0.000197181 0 3.67394 0.00464312 0 4.07144 0.00506427 0
          3.5 0 0 4.0425 -0.063994 0 3.62467 -0.0515821 0 4.11091 -0.0546056 0
          3.69999 -0.0287679 0 4.14235 -0.0207839 0 3.72474 0.0144179 0 4.108 0.0195668 0
          3.5 0 0 4.07356 -0.13348 0 3.63503 -0.0367387 0 4.06255 -0.0691513 0
          3.61396 -0.0197203 0 4.02492 -0.0248683 0 3.57526 0.040986 0 3.93672 0.0520847 0
          3.5 0 0 3.66675 -0.127908 0 3.11236 -0.0321171 0 3.48367 -0.0410985 0
          2.914 -0.00945266 0 3.39786 -0.00803091 0 2.86732 0.0615541 0 3.33565 0.0762991 0
          0 0 0 0 0 0 0 0 0 0 0 0
          0 0 0 0 0 0 0 0 0 1.44799 0.00930879 0
        </DataArray>
      </PointData>
      <CellData Scalars="mu_t">
        <DataArray type="Float32" Name="mu_t" NumberOfComponents="1" format="ascii">
          0.00168558 0.00159273 0.00141553 0.00138922 0.00135324 0.00129352 0.000980509 0.00130618 0.00280122 0.0030092 0.00342397 0.00361534
          0.00369549 0.00367375 0.000912512 0.00128426 0.000229544 0.000796571 0.00117795 0.00168163 0.00194036 0.000455332 0.00115449 0.00167603
          0.00179106 0.00165882 0.00159388 0.00136864 0.000469023 0.00139106 0.00209532 0.00224903 0.00218317 0.0020533 0.00163047 0.000275795
          0.000367693 0.000337363 0.00119284 0.001806 0.00236926 0.00285022 0.00123074 0.00279909 0.0033111 0.00383305 0.00397352 0.00399532
          0.00382705 0.00167006 0.00154088 0.00148176 0.001416 0.0013887 0.00137499 0.000928326
        </DataArray>
        <DataArray type="Float32" Name="nu_t" NumberOfComponents="1" format="ascii">
          0.00144954 0.001365 0.00120637 0.00118152 0.00115132 0.00110632 0.000837216 0.00112348 0.00240928 0.00258766 0.0029438 0.00310785
          0.00317652 0.00314831 0.000784887 0.00110465 0.000197436 0.00068515 0.00101315 0.00144629 0.00166459 0.000391651 0.000993029 0.0014416
          0.00154058 0.0014268 0.00137087 0.00117428 0.000403427 0.00119651 0.00180225 0.0019345 0.00187781 0.00176602 0.00139895 0.000237222
          0.000316272 0.000290181 0.00102601 0.00155338 0.0020378 0.00244521 0.00105859 0.00240754 0.00284784 0.00329678 0.0034175 0.00343619
          0.00328136 0.00143617 0.00132474 0.00127375 0.00121719 0.00119374 0.00118186 0.000792779
        </DataArray>
        <DataArray type="Float32" Name="l_mix" NumberOfComponents="1" format="ascii">
          0.00221616 0.00220029 0.00216628 0.00216251 0.00215223 0.00212733 0.00202261 0.0108167 0.010804 0.0107754 0.0107721 0.0107629
          0.0107396 0.0106256 0.0228576 0.0228566 0.0228543 0.022854 0.0228532 0.022851 0.0228374 0.0406057 0.0406057 0.0406057
          0.0406057 0.0406057 0.0406057 0.0406054 0.0406057 0.0406057 0.0406057 0.0406057 0.0406057 0.0406057 0.0406054 0.0228574
          0.0228554 0.0228545 0.022853 0.0228525 0.0228522 0.0228337 0.0108141 0.0107891 0.0107774 0.0107616 0.0107555 0.0107525
          0.0106002 0.00221278 0.00218251 0.00216869 0.00215121 0.00214442 0.00214118 0.00200208
        </DataArray>
        <DataArray type="Float32" Name="u^+" NumberOfComponents="1" format="ascii">
          29.6886 29.1759 32.3427 31.9327 31.9089 31.7076 39.2881 61.1502 62.3878 65.198 65.3861 65.4293
          64.709 70.3384 62.5009 65.7226 69.7593 71.0265 71.612 71.268 77.7334 61.9782 64.8447 69.3836
          70.9968 71.8136 71.7455 78.4658 62.179 64.7985 66.0602 67.769 68.4932 68.9389 79.8769 62.4109
          65.2919 66.3816 67.7086 68.1145 68.2467 78.6784 60.8616 61.5167 61.4809 61.5244 61.378 61.1738
          70.3339 29.5921 28.7831 28.3714 27.9644 27.7681 27.6398 39.3422
        </DataArray>
        <DataArray type="Float32" Name="y^+" NumberOfComponents="1" format="ascii">
          29.6794 29.2408 28.3221 28.2225 27.9534 27.3146 24.8125 103.878 102.343 99.1272 98.7787 97.8371
          95.6012 86.8436 215.176 211.996 205.335 204.613 202.662 198.031 179.89 382.122 376.475 364.647
          363.365 359.901 351.676 319.46 380.906 370.261 365.499 359.596 357.324 356.28 313.505 214.491
          208.496 205.815 202.491 201.211 200.623 176.537 103.547 100.653 99.3589 97.7542 97.1366 96.8527
          85.2247 29.5849 28.7581 28.3882 27.9298 27.7533 27.6722 24.3499
        </DataArray>
        <DataArray type="Float32" Name="D_t" NumberOfComponents="1" format="ascii">
          0.000239492 0.000227828 0.000234214 0.000228258 0.000226187 0.000225442 0.000247922 0.00154003 0.00152343 0.00149699 0.00148143 0.0014719
          0.0014629 0.0014507 0.00325474 0.00331169 0.00330559 0.00331992 0.00332302 0.00332343 0.00330732 0.00573274 0.00580379 0.00583739
          0.00589072 0.00591475 0.00593762 0.00592439 0.00573301 0.00580847 0.00584568 0.00589978 0.00592512 0.00594671 0.00592956 0.00324028
          0.00329586 0.00330883 0.00332126 0.00332051 0.00331805 0.00329222 0.00152776 0.00150452 0.00148539 0.00146366 0.00145115 0.00144236
          0.00142665 0.000237947 0.00022499 0.000218868 0.000212234 0.000209363 0.000207801 0.000243681
        </DataArray>
        <DataArray type="Float32" Name="lambda_t" NumberOfComponents="1" format="ascii">
          0.282941 0.270219 0.279888 0.273545 0.271004 0.268448 0.29526 1.81989 1.8003 1.76946 1.75144 1.7405
          1.73 1.72012 3.84622 3.91342 3.90633 3.92324 3.92705 3.92769 3.91709 6.77453 6.85833 6.89818
          6.96106 6.9896 7.01691 7.01615 6.77485 6.86386 6.90797 6.97175 7.00183 7.02761 7.02223 3.82913
          3.89471 3.91009 3.92468 3.92386 3.92102 3.899 1.80537 1.77781 1.75518 1.72944 1.71467 1.70428
          1.69029 0.281103 0.265682 0.258411 0.250557 0.247185 0.24531 0.289501
        </DataArray>
      </CellData>
      <Points>
        <DataArray type="Float32" Name="Coordinates" NumberOfComponents="3" format="ascii">
          0 0.25 0 0.05 0.25 0 0 0.265385 0 0.05 0.265385 0
          0.1 0.25 0 0.1 0.265385 0 0.15 0.25 0 0.15 0.265385 0
          0.2 0.25 0 0.2 0.265385 0 0.25 0.25 0 0.25 0.265385 0
          0.3 0.25 0 0.3 0.265385 0 0.35 0.25 0 0.35 0.265385 0
          0 0.288462 0 0.05 0.288462 0 0.1 0.288462 0 0.15 0.288462 0
          0.2 0.288462 0 0.25 0.288462 0 0.3 0.288462 0 0.35 0.288462 0
          0 0.323077 0 0.05 0.323077 0 0.1 0.323077 0 0.15 0.323077 0
          0.2 0.323077 0 0.25 0.323077 0 0.3 0.323077 0 0.35 0.323077 0
          0 0.375 0 0.05 0.375 0 0.1 0.375 0 0.15 0.375 0
          0.2 0.375 0 0.25 0.375 0 0.3 0.375 0 0.35 0.375 0
          0 0.426923 0 0.05 0.426923 0 0.1 0.426923 0 0.15 0.426923 0
          0.2 0.426923 0 0.25 0.426923 0 0.3 0.426923 0 0.35 0.426923 0
          0 0.461538 0 0.05 0.461538 0 0.1 0.461538 0 0.15 0.461538 0
          0.2 0.461538 0 0.25 0.461538 0 0.3 0.461538 0 0.35 0.461538 0
          0 0.484615 0 0.05 0.484615 0 0.1 0.484615 0 0.15 0.484615 0
          0.2 0.484615 0 0.25 0.484615 0 0.3 0.484615 0 0.35 0.484615 0
          0 0.5 0 0.05 0.5 0 0.1 0.5 0 0.15 0.5 0
          0.2 0.5 0 0.25 0.5 0 0.3 0.5 0 0.35 0.5 0
        </DataArray>
      </Points>
      <Cells>
        <DataArray type="Int32" Name="connectivity" NumberOfComponents="1" format="ascii">
          0 1 3 2 1 4 5 3 4 6 7 5
          6 8 9 7 8 10 11 9 10 12 13 11
          12 14 15 13 2 3 17 16 3 5 18 17
          5 7 19 18 7 9 20 19 9 11 21 20
          11 13 22 21 13 15 23 22 16 17 25 24
          17 18 26 25 18 19 27 26 19 20 28 27
          20 21 29 28 21 22 30 29 22 23 31 30
          24 25 33 32 25 26 34 33 26 27 35 34
          27 28 36 35 28 29 37 36 29 30 38 37
          30 31 39 38 32 33 41 40 33 34 42 41
          34 35 43 42 35 36 44 43 36 37 45 44
          37 38 46 45 38 39 47 46 40 41 49 48
          41 42 50 49 42 43 51 50 43 44 52 51
          44 45 53 52 45 46 54 53 46 47 55 54
          48 49 57 56 49 50 58 57 50 51 59 58
          51 52 60 59 52 53 61 60 53 54 62 61
          54 55 63 62 56 57 65 64 57 58 66 65
          58 59 67 66 59 60 68 67 60 61 69 68
          61 62 70 69 62 63 71 70
        </DataArray>
        <DataArray type="Int32" Name="offsets" NumberOfComponents="1" format="ascii">
          4 8 12 16 20 24 28 32 36 40 44 48
          52 56 60 64 68 72 76 80 84 88 92 96
          100 104 108 112 116 120 124 128 132 136 140 144
          148 152 156 160 164 168 172 176 180 184 188 192
          196 200 204 208 212 216 220 224
        </DataArray>
        <DataArray type="UInt8" Name="types" NumberOfComponents="1" format="ascii">
          9 9 9 9 9 9 9 9 9 9 9 9
          9 9 9 9 9 9 9 9 9 9 9 9
          9 9 9 9 9 9 9 9 9 9 9 9
          9 9 9 9 9 9 9 9 9 9 9 9
          9 9 9 9 9 9 9 9
        </DataArray>
      </Cells>
    </Piece>
  </UnstructuredGrid>
</VTKFile>
