<?xml version="1.0"?>
<VTKFile type="UnstructuredGrid" version="0.1" byte_order="LittleEndian">
  <UnstructuredGrid>
    <Piece NumberOfCells="180" NumberOfPoints="208">
      <PointData Scalars="Sn" Vectors="velocityW">
        <DataArray type="Float32" Name="Sn" NumberOfComponents="1" format="ascii">
          0.0100488 0.0100488 0.0101051 0.0101051 0.0100488 0.0101051 0.0100488 0.0101051 0.0100488 0.0101051 0.0100488 0.0101051
          0.0100488 0.0101051 0.0100488 0.0101051 0.0100488 0.0101051 0.0100488 0.0101051 0.0100488 0.0101051 0.0100488 0.0101051
          0.0100488 0.0101051 0.0100488 0.0101051 0.0100488 0.0101051 0.0100488 0.0101051 0.0101474 0.0101474 0.0101474 0.0101474
          0.0101474 0.0101474 0.0101474 0.0101474 0.0101474 0.0101474 0.0101474 0.0101474 0.0101474 0.0101474 0.0101474 0.0101474
          0.0101929 0.0101929 0.0101929 0.0101929 0.0101929 0.0101929 0.0101929 0.0101929 0.0101929 0.0101929 0.0101929 0.0101929
          0.0101929 0.0101929 0.0101929 0.0101929 0.010354 0.010354 0.010354 0.010354 0.010354 0.010354 0.010354 0.010354
          0.010354 0.010354 0.010354 0.010354 0.010354 0.010354 0.010354 0.010354 0.0112095 0.0112095 0.0112095 0.0112095
          0.0112095 0.0112095 0.0112095 0.0112095 0.0112095 0.0112095 0.0112095 0.0112095 0.0112095 0.0112095 0.0112095 0.0112095
          0.0125696 0.0125696 0.0125696 0.0125696 0.0125696 0.0125696 0.0125696 0.0125696 0.0125696 0.0125696 0.0125696 0.0125696
          0.0125696 0.0125696 0.0125696 0.0125696 0.0141382 0.0141382 0.0141382 0.0141382 0.0141382 0.0141382 0.0141382 0.0141382
          0.0141382 0.0141382 0.0141382 0.0141382 0.0141382 0.0141382 0.0141382 0.0141382 0.0160988 0.0160988 0.0160988 0.0160988
          0.0160988 0.0160988 0.0160988 0.0160988 0.0160988 0.0160988 0.0160988 0.0160988 0.0160988 0.0160988 0.0160988 0.0160988
          0.0202916 0.0202916 0.0202916 0.0202915 0.0202915 0.0202915 0.0202915 0.0202915 0.0202915 0.0202915 0.0202915 0.0202914
          0.0202914 0.0202914 0.0202914 0.0202914 0.0413843 0.0413842 0.0413841 0.0413841 0.0413841 0.041384 0.041384 0.041384
          0.0413839 0.0413839 0.0413839 0.0413838 0.0413838 0.0413837 0.0413836 0.0413835 0.0842805 0.0842801 0.08428 0.08428
          0.0842799 0.0842798 0.0842798 0.0842797 0.0842796 0.0842795 0.0842794 0.0842794 0.0842793 0.0842792 0.084279 0.0842786
          0.153907 0.153906 0.153906 0.153906 0.153906 0.153906 0.153906 0.153906 0.153905 0.153905 0.153905 0.153905
          0.153905 0.153905 0.153904 0.153903
        </DataArray>
        <DataArray type="Float32" Name="Sw" NumberOfComponents="1" format="ascii">
          0.989951 0.989951 0.989895 0.989895 0.989951 0.989895 0.989951 0.989895 0.989951 0.989895 0.989951 0.989895
          0.989951 0.989895 0.989951 0.989895 0.989951 0.989895 0.989951 0.989895 0.989951 0.989895 0.989951 0.989895
          0.989951 0.989895 0.989951 0.989895 0.989951 0.989895 0.989951 0.989895 0.989853 0.989853 0.989853 0.989853
          0.989853 0.989853 0.989853 0.989853 0.989853 0.989853 0.989853 0.989853 0.989853 0.989853 0.989853 0.989853
          0.989807 0.989807 0.989807 0.989807 0.989807 0.989807 0.989807 0.989807 0.989807 0.989807 0.989807 0.989807
          0.989807 0.989807 0.989807 0.989807 0.989646 0.989646 0.989646 0.989646 0.989646 0.989646 0.989646 0.989646
          0.989646 0.989646 0.989646 0.989646 0.989646 0.989646 0.989646 0.989646 0.98879 0.98879 0.98879 0.98879
          0.98879 0.98879 0.98879 0.98879 0.98879 0.98879 0.98879 0.98879 0.98879 0.98879 0.98879 0.98879
          0.98743 0.98743 0.98743 0.98743 0.98743 0.98743 0.98743 0.98743 0.98743 0.98743 0.98743 0.98743
          0.98743 0.98743 0.98743 0.98743 0.985862 0.985862 0.985862 0.985862 0.985862 0.985862 0.985862 0.985862
          0.985862 0.985862 0.985862 0.985862 0.985862 0.985862 0.985862 0.985862 0.983901 0.983901 0.983901 0.983901
          0.983901 0.983901 0.983901 0.983901 0.983901 0.983901 0.983901 0.983901 0.983901 0.983901 0.983901 0.983901
          0.979708 0.979708 0.979708 0.979708 0.979708 0.979708 0.979708 0.979708 0.979708 0.979709 0.979709 0.979709
          0.979709 0.979709 0.979709 0.979709 0.958616 0.958616 0.958616 0.958616 0.958616 0.958616 0.958616 0.958616
          0.958616 0.958616 0.958616 0.958616 0.958616 0.958616 0.958616 0.958616 0.91572 0.91572 0.91572 0.91572
          0.91572 0.91572 0.91572 0.91572 0.91572 0.91572 0.915721 0.915721 0.915721 0.915721 0.915721 0.915721
          0.846093 0.846094 0.846094 0.846094 0.846094 0.846094 0.846094 0.846094 0.846095 0.846095 0.846095 0.846095
          0.846095 0.846095 0.846096 0.846097
        </DataArray>
        <DataArray type="Float32" Name="pn" NumberOfComponents="1" format="ascii">
          101172 101172 100856 100856 101172 100856 101172 100856 101172 100856 101172 100856
          101172 100856 101172 100856 101172 100856 101172 100856 101172 100856 101172 100856
          101172 100856 101172 100856 101172 100856 101172 100856 100567 100567 100567 100567
          100567 100567 100567 100567 100567 100567 100567 100567 100567 100567 100567 100567
          100306 100306 100306 100306 100306 100306 100306 100306 100306 100306 100306 100306
          100306 100306 100306 100306 100089 100089 100089 100089 100089 100089 100089 100089
          100089 100089 100089 100089 100089 100089 100089 100089 100009 100009 100009 100009
          100009 100009 100009 100009 100009 100009 100009 100009 100009 100009 100009 100009
          100003 100003 100003 100003 100003 100003 100003 100003 100003 100003 100003 100003
          100003 100003 100003 100003 100001 100001 100001 100001 100001 100001 100001 100001
          100001 100001 100001 100001 100001 100001 100001 100001 100001 100001 100001 100001
          100001 100001 100001 100001 100001 100001 100001 100001 100001 100001 100001 100001
          100000 100000 100000 100000 100000 100000 100000 100000 100000 100000 100000 100000
          100000 100000 100000 100000 100000 100000 100000 100000 100000 100000 100000 100000
          100000 100000 100000 100000 100000 100000 100000 100000 100000 100000 100000 100000
          100000 100000 100000 100000 100000 100000 100000 100000 100000 100000 100000 100000
          100000 100000 100000 100000 100000 100000 100000 100000 100000 100000 100000 100000
          100000 100000 100000 100000
        </DataArray>
        <DataArray type="Float32" Name="pw" NumberOfComponents="1" format="ascii">
          101164 101164 100837 100837 101164 100837 101164 100837 101164 100837 101164 100837
          101164 100837 101164 100837 101164 100837 101164 100837 101164 100837 101164 100837
          101164 100837 101164 100837 101164 100837 101164 100837 100541 100541 100541 100541
          100541 100541 100541 100541 100541 100541 100541 100541 100541 100541 100541 100541
          100271 100271 100271 100271 100271 100271 100271 100271 100271 100271 100271 100271
          100271 100271 100271 100271 100026 100026 100026 100026 100026 100026 100026 100026
          100026 100026 100026 100026 100026 100026 100026 100026 99803.1 99803.1 99803.1 99803.1
          99803.1 99803.1 99803.1 99803.1 99803.1 99803.1 99803.1 99803.1 99803.1 99803.1 99803.1 99803.1
          99600.5 99600.5 99600.5 99600.5 99600.5 99600.5 99600.5 99600.5 99600.5 99600.5 99600.5 99600.5
          99600.5 99600.5 99600.5 99600.5 99416.4 99416.4 99416.4 99416.4 99416.4 99416.4 99416.4 99416.4
          99416.4 99416.4 99416.4 99416.4 99416.4 99416.4 99416.4 99416.4 99248.9 99248.9 99248.9 99248.9
          99248.9 99248.9 99248.9 99248.9 99248.9 99248.9 99248.9 99248.9 99248.9 99248.9 99248.9 99248.9
          99096.7 99096.7 99096.7 99096.7 99096.7 99096.7 99096.7 99096.7 99096.7 99096.7 99096.7 99096.7
          99096.7 99096.7 99096.7 99096.7 98958.4 98958.4 98958.4 98958.4 98958.4 98958.4 98958.4 98958.4
          98958.4 98958.4 98958.4 98958.4 98958.4 98958.4 98958.4 98958.4 98832.6 98832.6 98832.6 98832.6
          98832.6 98832.6 98832.6 98832.6 98832.6 98832.6 98832.6 98832.6 98832.6 98832.6 98832.6 98832.6
          98718.2 98718.2 98718.2 98718.2 98718.2 98718.2 98718.2 98718.2 98718.2 98718.2 98718.2 98718.2
          98718.2 98718.2 98718.2 98718.2
        </DataArray>
        <DataArray type="Float32" Name="pc" NumberOfComponents="1" format="ascii">
          8.88149 8.88122 19.07 19.0697 8.88158 19.0698 8.88127 19.0705 8.88135 19.0702 8.88172 19.07
          8.8816 19.0704 8.88146 19.0703 8.88155 19.0696 8.88154 19.0699 8.88152 19.0706 8.88154 19.0702
          8.88168 19.0702 8.8817 19.07 8.88132 19.0702 8.88174 19.0705 26.6688 26.6686 26.6684 26.6691
          26.6687 26.6685 26.669 26.6691 26.6689 26.6685 26.6692 26.6689 26.6688 26.6691 26.6692 26.6694
          34.8159 34.8153 34.8146 34.8153 34.8153 34.8148 34.8152 34.8156 34.8151 34.8152 34.8164 34.8158
          34.8151 34.8159 34.8161 34.8161 63.3008 63.3007 63.3002 63.3008 63.3012 63.3012 63.3009 63.3006
          63.3009 63.3012 63.301 63.3009 63.3008 63.301 63.3018 63.3018 205.667 205.667 205.667 205.667
          205.666 205.666 205.666 205.666 205.666 205.666 205.666 205.666 205.666 205.667 205.667 205.667
          402.026 402.026 402.026 402.026 402.025 402.025 402.025 402.025 402.025 402.025 402.025 402.025
          402.025 402.025 402.025 402.025 584.898 584.898 584.898 584.898 584.898 584.898 584.897 584.897
          584.897 584.897 584.897 584.897 584.897 584.897 584.897 584.897 751.8 751.8 751.8 751.8
          751.799 751.799 751.799 751.799 751.799 751.799 751.799 751.798 751.798 751.798 751.798 751.798
          903.719 903.718 903.718 903.718 903.718 903.718 903.718 903.717 903.717 903.717 903.717 903.717
          903.717 903.716 903.716 903.716 1041.92 1041.92 1041.92 1041.92 1041.92 1041.92 1041.92 1041.92
          1041.92 1041.92 1041.92 1041.92 1041.92 1041.92 1041.92 1041.92 1167.58 1167.58 1167.58 1167.58
          1167.58 1167.58 1167.58 1167.58 1167.58 1167.58 1167.58 1167.58 1167.58 1167.58 1167.57 1167.57
          1281.82 1281.82 1281.82 1281.82 1281.82 1281.81 1281.81 1281.81 1281.81 1281.81 1281.81 1281.81
          1281.81 1281.81 1281.81 1281.81
        </DataArray>
        <DataArray type="Float32" Name="rhoW" NumberOfComponents="1" format="ascii">
          997.056 997.056 997.056 997.056 997.056 997.056 997.056 997.056 997.056 997.056 997.056 997.056
          997.056 997.056 997.056 997.056 997.056 997.056 997.056 997.056 997.056 997.056 997.056 997.056
          997.056 997.056 997.056 997.056 997.056 997.056 997.056 997.056 997.057 997.057 997.057 997.057
          997.057 997.057 997.057 997.057 997.057 997.057 997.057 997.057 997.057 997.057 997.057 997.057
          997.057 997.057 997.057 997.057 997.057 997.057 997.057 997.057 997.057 997.057 997.057 997.057
          997.057 997.057 997.057 997.057 997.06 997.06 997.06 997.06 997.06 997.06 997.06 997.06
          997.06 997.06 997.06 997.06 997.06 997.06 997.06 997.06 997.064 997.064 997.064 997.064
          997.064 997.064 997.064 997.064 997.064 997.064 997.064 997.064 997.064 997.064 997.064 997.064
          997.073 997.073 997.073 997.073 997.073 997.073 997.073 997.073 997.073 997.073 997.073 997.073
          997.073 997.073 997.073 997.073 997.087 997.087 997.087 997.088 997.088 997.088 997.088 997.088
          997.088 997.087 997.087 997.087 997.087 997.087 997.087 997.087 997.109 997.109 997.109 997.109
          997.109 997.109 997.109 997.109 997.109 997.109 997.109 997.109 997.108 997.108 997.108 997.108
          997.137 997.137 997.137 997.137 997.137 997.137 997.137 997.137 997.137 997.137 997.137 997.137
          997.137 997.136 997.136 997.136 997.172 997.172 997.172 997.172 997.172 997.172 997.172 997.172
          997.172 997.172 997.172 997.172 997.172 997.171 997.171 997.171 997.212 997.212 997.213 997.213
          997.213 997.213 997.213 997.213 997.213 997.213 997.213 997.212 997.212 997.212 997.212 997.211
          997.257 997.257 997.258 997.258 997.259 997.259 997.259 997.259 997.258 997.258 997.258 997.258
          997.257 997.257 997.257 997.255
        </DataArray>
        <DataArray type="Float32" Name="rhoN" NumberOfComponents="1" format="ascii">
          1.16797 1.16797 1.16428 1.16428 1.16797 1.16428 1.16797 1.16428 1.16797 1.16428 1.16797 1.16428
          1.16797 1.16428 1.16797 1.16428 1.16797 1.16428 1.16797 1.16428 1.16797 1.16428 1.16797 1.16428
          1.16797 1.16428 1.16797 1.16428 1.16797 1.16428 1.16797 1.16428 1.16091 1.16091 1.16091 1.16091
          1.16091 1.16091 1.16091 1.16091 1.16091 1.16091 1.16091 1.16091 1.16091 1.16091 1.16091 1.16091
          1.15788 1.15788 1.15788 1.15788 1.15788 1.15788 1.15788 1.15788 1.15788 1.15788 1.15788 1.15787
          1.15787 1.15787 1.15787 1.15787 1.15539 1.15539 1.15539 1.15539 1.15539 1.15539 1.15539 1.15539
          1.15539 1.15539 1.15539 1.15539 1.15539 1.15539 1.15539 1.15539 1.15454 1.15454 1.15454 1.15454
          1.15454 1.15454 1.15454 1.15454 1.15454 1.15454 1.15454 1.15454 1.15453 1.15453 1.15453 1.15453
          1.15463 1.15463 1.15463 1.15463 1.15463 1.15463 1.15463 1.15463 1.15463 1.15463 1.15463 1.15462
          1.15462 1.15462 1.15462 1.15462 1.15488 1.15488 1.15488 1.15488 1.15488 1.15488 1.15488 1.15488
          1.15488 1.15488 1.15488 1.15488 1.15487 1.15487 1.15487 1.15487 1.15526 1.15526 1.15526 1.15526
          1.15526 1.15527 1.15527 1.15526 1.15526 1.15526 1.15526 1.15526 1.15526 1.15526 1.15526 1.15526
          1.15578 1.15578 1.15578 1.15579 1.15579 1.15579 1.15579 1.15579 1.15579 1.15579 1.15578 1.15578
          1.15578 1.15578 1.15577 1.15577 1.15643 1.15643 1.15643 1.15644 1.15644 1.15644 1.15644 1.15644
          1.15644 1.15644 1.15643 1.15643 1.15643 1.15642 1.15642 1.15642 1.15718 1.15719 1.1572 1.1572
          1.15721 1.15721 1.15721 1.15721 1.1572 1.1572 1.1572 1.15719 1.15719 1.15718 1.15718 1.15717
          1.15802 1.15803 1.15805 1.15806 1.15806 1.15806 1.15806 1.15806 1.15806 1.15805 1.15805 1.15804
          1.15804 1.15803 1.15803 1.158
        </DataArray>
        <DataArray type="Float32" Name="mobW" NumberOfComponents="1" format="ascii">
          1123.57 1123.57 1123.55 1123.55 1123.57 1123.55 1123.57 1123.55 1123.57 1123.55 1123.57 1123.55
          1123.57 1123.55 1123.57 1123.55 1123.57 1123.55 1123.57 1123.55 1123.57 1123.55 1123.57 1123.55
          1123.57 1123.55 1123.57 1123.55 1123.57 1123.55 1123.57 1123.55 1123.52 1123.52 1123.52 1123.52
          1123.52 1123.52 1123.52 1123.52 1123.52 1123.52 1123.52 1123.52 1123.52 1123.52 1123.52 1123.52
          1123.42 1123.42 1123.42 1123.42 1123.42 1123.42 1123.42 1123.42 1123.42 1123.42 1123.42 1123.42
          1123.42 1123.42 1123.42 1123.42 1123.18 1123.18 1123.18 1123.18 1123.18 1123.18 1123.18 1123.18
          1123.18 1123.18 1123.18 1123.18 1123.18 1123.18 1123.18 1123.18 1122.59 1122.59 1122.59 1122.59
          1122.59 1122.59 1122.59 1122.59 1122.59 1122.59 1122.59 1122.59 1122.59 1122.59 1122.59 1122.6
          1121.3 1121.3 1121.3 1121.3 1121.3 1121.29 1121.29 1121.29 1121.3 1121.3 1121.3 1121.3
          1121.31 1121.31 1121.31 1121.31 1119.04 1119.04 1119.04 1119.03 1119.03 1119.03 1119.03 1119.03
          1119.03 1119.03 1119.04 1119.04 1119.05 1119.05 1119.05 1119.05 1115.39 1115.39 1115.38 1115.37
          1115.37 1115.36 1115.36 1115.36 1115.37 1115.37 1115.38 1115.39 1115.4 1115.4 1115.41 1115.41
          1107.47 1107.46 1107.45 1107.44 1107.43 1107.42 1107.42 1107.42 1107.43 1107.44 1107.45 1107.46
          1107.48 1107.49 1107.5 1107.5 1047.45 1047.44 1047.41 1047.39 1047.38 1047.37 1047.37 1047.37
          1047.38 1047.4 1047.41 1047.43 1047.45 1047.46 1047.48 1047.49 852.043 852.026 851.993 851.966
          851.948 851.94 851.941 851.948 851.96 851.975 851.992 852.009 852.027 852.045 852.072 852.099
          641.338 641.3 641.258 641.229 641.212 641.206 641.207 641.215 641.227 641.242 641.258 641.274
          641.29 641.307 641.324 641.407
        </DataArray>
        <DataArray type="Float32" Name="mobN" NumberOfComponents="1" format="ascii">
          7.56243e-05 7.56193e-05 0.000374098 0.000374086 7.56258e-05 0.000374091 7.56202e-05 0.000374121 7.56217e-05 0.000374106 7.56282e-05 0.000374101
          7.56261e-05 0.000374116 7.56236e-05 0.000374113 7.56253e-05 0.000374082 7.56251e-05 0.000374094 7.56248e-05 0.000374122 7.56251e-05 0.000374107
          7.56276e-05 0.000374105 7.56279e-05 0.000374097 7.56211e-05 0.000374106 7.56286e-05 0.00037412 0.000756212 0.000756199 0.000756188 0.000756228
          0.000756208 0.000756191 0.000756221 0.000756229 0.000756218 0.000756191 0.000756236 0.000756217 0.00075621 0.000756227 0.000756237 0.000756245
          0.00132503 0.00132498 0.00132493 0.00132498 0.00132499 0.00132495 0.00132497 0.00132501 0.00132497 0.00132498 0.00132507 0.00132502
          0.00132497 0.00132504 0.00132505 0.00132505 0.00469411 0.00469409 0.004694 0.00469409 0.00469417 0.00469416 0.00469411 0.00469407
          0.00469412 0.00469416 0.00469413 0.00469412 0.0046941 0.00469413 0.00469426 0.00469425 0.0606972 0.0606972 0.0606972 0.0606971
          0.060697 0.0606969 0.0606968 0.0606968 0.0606968 0.0606968 0.0606969 0.0606969 0.060697 0.060697 0.060697 0.0606971
          0.291648 0.291648 0.291648 0.291648 0.291648 0.291648 0.291647 0.291647 0.291647 0.291647 0.291647 0.291647
          0.291647 0.291646 0.291646 0.291646 0.786987 0.786987 0.786986 0.786986 0.786985 0.786985 0.786984 0.786984
          0.786983 0.786983 0.786982 0.786982 0.786981 0.78698 0.78698 0.78698 1.76531 1.76531 1.76531 1.76531
          1.76531 1.76531 1.76531 1.7653 1.7653 1.7653 1.7653 1.7653 1.76529 1.76529 1.76529 1.76529
          5.24907 5.24906 5.24904 5.24902 5.24901 5.249 5.24899 5.24897 5.24895 5.24894 5.24892 5.2489
          5.24888 5.24886 5.24883 5.24882 53.434 53.4336 53.4334 53.4334 53.4333 53.4332 53.4331 53.433
          53.4328 53.4326 53.4324 53.4322 53.432 53.4318 53.4314 53.4309 319.883 319.88 319.88 319.881
          319.881 319.88 319.88 319.879 319.878 319.877 319.875 319.874 319.873 319.871 319.869 319.865
          1257 1256.99 1257 1257 1257 1257 1257 1257 1256.99 1256.99 1256.98 1256.98
          1256.97 1256.97 1256.96 1256.93
        </DataArray>
        <DataArray type="Float32" Name="X_liquid^H2O" NumberOfComponents="1" format="ascii">
          0.999978 0.999978 0.999978 0.999978 0.999978 0.999978 0.999978 0.999978 0.999978 0.999978 0.999978 0.999978
          0.999978 0.999978 0.999978 0.999978 0.999978 0.999978 0.999978 0.999978 0.999978 0.999978 0.999978 0.999978
          0.999978 0.999978 0.999978 0.999978 0.999978 0.999978 0.999978 0.999978 0.999978 0.999978 0.999978 0.999978
          0.999978 0.999978 0.999978 0.999978 0.999978 0.999978 0.999978 0.999978 0.999978 0.999978 0.999978 0.999978
          0.999978 0.999978 0.999978 0.999978 0.999978 0.999978 0.999978 0.999978 0.999978 0.999978 0.999978 0.999978
          0.999978 0.999978 0.999978 0.999978 0.999978 0.999978 0.999978 0.999978 0.999978 0.999978 0.999978 0.999978
          0.999978 0.999978 0.999978 0.999978 0.999978 0.999978 0.999978 0.999978 0.999978 0.999978 0.999978 0.999978
          0.999978 0.999978 0.999978 0.999978 0.999978 0.999978 0.999978 0.999978 0.999978 0.999978 0.999978 0.999978
          0.999978 0.999978 0.999978 0.999978 0.999978 0.999978 0.999978 0.999978 0.999978 0.999978 0.999978 0.999978
          0.999978 0.999978 0.999978 0.999978 0.999978 0.999978 0.999978 0.999978 0.999978 0.999978 0.999978 0.999978
          0.999978 0.999978 0.999978 0.999978 0.999978 0.999978 0.999978 0.999978 0.999978 0.999978 0.999978 0.999978
          0.999978 0.999978 0.999978 0.999978 0.999978 0.999978 0.999978 0.999978 0.999978 0.999978 0.999978 0.999978
          0.999978 0.999978 0.999978 0.999978 0.999978 0.999978 0.999978 0.999978 0.999978 0.999978 0.999978 0.999978
          0.999978 0.999978 0.999978 0.999978 0.999978 0.999978 0.999978 0.999978 0.999978 0.999978 0.999978 0.999978
          0.999978 0.999978 0.999978 0.999978 0.999978 0.999978 0.999978 0.999978 0.999978 0.999978 0.999978 0.999978
          0.999978 0.999978 0.999978 0.999978 0.999978 0.999978 0.999978 0.999978 0.999978 0.999978 0.999978 0.999978
          0.999978 0.999978 0.999978 0.999978 0.999978 0.999978 0.999978 0.999978 0.999978 0.999978 0.999978 0.999978
          0.999978 0.999978 0.999978 0.999978
        </DataArray>
        <DataArray type="Float32" Name="X_liquid^Air" NumberOfComponents="1" format="ascii">
          2.18077e-05 2.18077e-05 2.17376e-05 2.17376e-05 2.18077e-05 2.17376e-05 2.18077e-05 2.17376e-05 2.18077e-05 2.17376e-05 2.18077e-05 2.17376e-05
          2.18077e-05 2.17376e-05 2.18077e-05 2.17376e-05 2.18077e-05 2.17376e-05 2.18077e-05 2.17376e-05 2.18077e-05 2.17376e-05 2.18077e-05 2.17376e-05
          2.18077e-05 2.17376e-05 2.18077e-05 2.17376e-05 2.18077e-05 2.17376e-05 2.18077e-05 2.17376e-05 2.16738e-05 2.16738e-05 2.16738e-05 2.16738e-05
          2.16738e-05 2.16738e-05 2.16738e-05 2.16738e-05 2.16738e-05 2.16738e-05 2.16738e-05 2.16738e-05 2.16738e-05 2.16738e-05 2.16738e-05 2.16738e-05
          2.16171e-05 2.16171e-05 2.16171e-05 2.16171e-05 2.16171e-05 2.16171e-05 2.16171e-05 2.16171e-05 2.16171e-05 2.16171e-05 2.16171e-05 2.16171e-05
          2.16171e-05 2.16171e-05 2.16171e-05 2.16171e-05 2.15723e-05 2.15723e-05 2.15723e-05 2.15723e-05 2.15723e-05 2.15723e-05 2.15723e-05 2.15723e-05
          2.15723e-05 2.15723e-05 2.15723e-05 2.15723e-05 2.15723e-05 2.15723e-05 2.15723e-05 2.15722e-05 2.15615e-05 2.15615e-05 2.15615e-05 2.15615e-05
          2.15615e-05 2.15615e-05 2.15615e-05 2.15615e-05 2.15615e-05 2.15615e-05 2.15615e-05 2.15615e-05 2.15615e-05 2.15614e-05 2.15614e-05 2.15614e-05
          2.15732e-05 2.15732e-05 2.15732e-05 2.15732e-05 2.15733e-05 2.15733e-05 2.15733e-05 2.15733e-05 2.15733e-05 2.15732e-05 2.15732e-05 2.15732e-05
          2.15731e-05 2.15731e-05 2.15731e-05 2.15731e-05 2.15943e-05 2.15943e-05 2.15943e-05 2.15944e-05 2.15945e-05 2.15945e-05 2.15945e-05 2.15945e-05
          2.15944e-05 2.15944e-05 2.15943e-05 2.15943e-05 2.15942e-05 2.15941e-05 2.15941e-05 2.15941e-05 2.16257e-05 2.16257e-05 2.16258e-05 2.16259e-05
          2.1626e-05 2.16261e-05 2.16261e-05 2.16261e-05 2.1626e-05 2.16259e-05 2.16258e-05 2.16257e-05 2.16256e-05 2.16255e-05 2.16254e-05 2.16253e-05
          2.1668e-05 2.16681e-05 2.16683e-05 2.16685e-05 2.16687e-05 2.16688e-05 2.16688e-05 2.16687e-05 2.16686e-05 2.16685e-05 2.16683e-05 2.16681e-05
          2.16679e-05 2.16677e-05 2.16676e-05 2.16675e-05 2.17209e-05 2.17211e-05 2.17214e-05 2.17218e-05 2.1722e-05 2.17221e-05 2.17222e-05 2.17221e-05
          2.17219e-05 2.17217e-05 2.17215e-05 2.17212e-05 2.17209e-05 2.17207e-05 2.17204e-05 2.17202e-05 2.17829e-05 2.17833e-05 2.17839e-05 2.17845e-05
          2.17848e-05 2.1785e-05 2.1785e-05 2.17848e-05 2.17846e-05 2.17843e-05 2.1784e-05 2.17837e-05 2.17833e-05 2.1783e-05 2.17825e-05 2.1782e-05
          2.18521e-05 2.18531e-05 2.18542e-05 2.1855e-05 2.18554e-05 2.18556e-05 2.18556e-05 2.18554e-05 2.18551e-05 2.18547e-05 2.18543e-05 2.18538e-05
          2.18534e-05 2.1853e-05 2.18526e-05 2.18505e-05
        </DataArray>
        <DataArray type="Float32" Name="X_gas^H2O" NumberOfComponents="1" format="ascii">
          0.0197228 0.0197228 0.0197848 0.0197848 0.0197228 0.0197848 0.0197228 0.0197848 0.0197228 0.0197848 0.0197228 0.0197848
          0.0197228 0.0197848 0.0197228 0.0197848 0.0197228 0.0197848 0.0197228 0.0197848 0.0197228 0.0197848 0.0197228 0.0197848
          0.0197228 0.0197848 0.0197228 0.0197848 0.0197228 0.0197848 0.0197228 0.0197848 0.0198406 0.0198406 0.0198406 0.0198406
          0.0198406 0.0198406 0.0198406 0.0198406 0.0198406 0.0198406 0.0198406 0.0198406 0.0198406 0.0198406 0.0198407 0.0198407
          0.0198884 0.0198884 0.0198884 0.0198884 0.0198884 0.0198884 0.0198884 0.0198884 0.0198884 0.0198884 0.0198885 0.0198885
          0.0198885 0.0198885 0.0198885 0.0198885 0.0199211 0.0199211 0.0199211 0.0199211 0.0199211 0.0199211 0.0199211 0.0199211
          0.0199211 0.0199211 0.0199212 0.0199212 0.0199212 0.0199212 0.0199212 0.0199212 0.0199147 0.0199147 0.0199147 0.0199146
          0.0199146 0.0199146 0.0199146 0.0199146 0.0199146 0.0199146 0.0199147 0.0199148 0.0199148 0.0199149 0.0199149 0.0199149
          0.0198744 0.0198744 0.0198743 0.0198742 0.0198741 0.0198741 0.0198741 0.0198741 0.0198742 0.0198743 0.0198744 0.0198745
          0.0198746 0.0198747 0.0198748 0.0198748 0.019807 0.0198069 0.0198068 0.0198066 0.0198064 0.0198063 0.0198063 0.0198063
          0.0198065 0.0198066 0.0198068 0.0198071 0.0198073 0.0198075 0.0198076 0.0198077 0.0197079 0.0197078 0.0197075 0.0197072
          0.0197069 0.0197067 0.0197066 0.0197067 0.0197069 0.0197072 0.0197076 0.019708 0.0197083 0.0197087 0.0197089 0.0197091
          0.0195758 0.0195756 0.019575 0.0195743 0.0195738 0.0195736 0.0195735 0.0195737 0.019574 0.0195745 0.019575 0.0195755
          0.0195761 0.0195767 0.0195772 0.0195774 0.0194128 0.0194123 0.0194112 0.0194101 0.0194094 0.019409 0.019409 0.0194092
          0.0194097 0.0194104 0.0194111 0.0194119 0.0194127 0.0194135 0.0194144 0.0194149 0.0192242 0.0192231 0.0192211 0.0192195
          0.0192184 0.0192179 0.019218 0.0192184 0.019219 0.0192199 0.0192209 0.0192219 0.0192229 0.019224 0.0192255 0.019227
          0.0190171 0.019014 0.0190107 0.0190084 0.0190071 0.0190066 0.0190067 0.0190073 0.0190082 0.0190093 0.0190105 0.0190118
          0.019013 0.0190142 0.0190156 0.0190219
        </DataArray>
        <DataArray type="Float32" Name="X_gas^Air" NumberOfComponents="1" format="ascii">
          0.980277 0.980277 0.980215 0.980215 0.980277 0.980215 0.980277 0.980215 0.980277 0.980215 0.980277 0.980215
          0.980277 0.980215 0.980277 0.980215 0.980277 0.980215 0.980277 0.980215 0.980277 0.980215 0.980277 0.980215
          0.980277 0.980215 0.980277 0.980215 0.980277 0.980215 0.980277 0.980215 0.980159 0.980159 0.980159 0.980159
          0.980159 0.980159 0.980159 0.980159 0.980159 0.980159 0.980159 0.980159 0.980159 0.980159 0.980159 0.980159
          0.980112 0.980112 0.980112 0.980112 0.980112 0.980112 0.980112 0.980112 0.980112 0.980112 0.980112 0.980112
          0.980112 0.980112 0.980112 0.980112 0.980079 0.980079 0.980079 0.980079 0.980079 0.980079 0.980079 0.980079
          0.980079 0.980079 0.980079 0.980079 0.980079 0.980079 0.980079 0.980079 0.980085 0.980085 0.980085 0.980085
          0.980085 0.980085 0.980085 0.980085 0.980085 0.980085 0.980085 0.980085 0.980085 0.980085 0.980085 0.980085
          0.980126 0.980126 0.980126 0.980126 0.980126 0.980126 0.980126 0.980126 0.980126 0.980126 0.980126 0.980126
          0.980125 0.980125 0.980125 0.980125 0.980193 0.980193 0.980193 0.980193 0.980194 0.980194 0.980194 0.980194
          0.980194 0.980193 0.980193 0.980193 0.980193 0.980193 0.980192 0.980192 0.980292 0.980292 0.980292 0.980293
          0.980293 0.980293 0.980293 0.980293 0.980293 0.980293 0.980292 0.980292 0.980292 0.980291 0.980291 0.980291
          0.980424 0.980424 0.980425 0.980426 0.980426 0.980426 0.980426 0.980426 0.980426 0.980426 0.980425 0.980424
          0.980424 0.980423 0.980423 0.980423 0.980587 0.980588 0.980589 0.98059 0.980591 0.980591 0.980591 0.980591
          0.98059 0.98059 0.980589 0.980588 0.980587 0.980586 0.980586 0.980585 0.980776 0.980777 0.980779 0.980781
          0.980782 0.980782 0.980782 0.980782 0.980781 0.98078 0.980779 0.980778 0.980777 0.980776 0.980774 0.980773
          0.980983 0.980986 0.980989 0.980992 0.980993 0.980993 0.980993 0.980993 0.980992 0.980991 0.980989 0.980988
          0.980987 0.980986 0.980984 0.980978
        </DataArray>
        <DataArray type="Float32" Name="x_liquid^H2O" NumberOfComponents="1" format="ascii">
          0.999986 0.999986 0.999986 0.999986 0.999986 0.999986 0.999986 0.999986 0.999986 0.999986 0.999986 0.999986
          0.999986 0.999986 0.999986 0.999986 0.999986 0.999986 0.999986 0.999986 0.999986 0.999986 0.999986 0.999986
          0.999986 0.999986 0.999986 0.999986 0.999986 0.999986 0.999986 0.999986 0.999987 0.999987 0.999987 0.999987
          0.999987 0.999987 0.999987 0.999987 0.999987 0.999987 0.999987 0.999987 0.999987 0.999987 0.999987 0.999987
          0.999987 0.999987 0.999987 0.999987 0.999987 0.999987 0.999987 0.999987 0.999987 0.999987 0.999987 0.999987
          0.999987 0.999987 0.999987 0.999987 0.999987 0.999987 0.999987 0.999987 0.999987 0.999987 0.999987 0.999987
          0.999987 0.999987 0.999987 0.999987 0.999987 0.999987 0.999987 0.999987 0.999987 0.999987 0.999987 0.999987
          0.999987 0.999987 0.999987 0.999987 0.999987 0.999987 0.999987 0.999987 0.999987 0.999987 0.999987 0.999987
          0.999987 0.999987 0.999987 0.999987 0.999987 0.999987 0.999987 0.999987 0.999987 0.999987 0.999987 0.999987
          0.999987 0.999987 0.999987 0.999987 0.999987 0.999987 0.999987 0.999987 0.999987 0.999987 0.999987 0.999987
          0.999987 0.999987 0.999987 0.999987 0.999987 0.999987 0.999987 0.999987 0.999987 0.999987 0.999987 0.999987
          0.999987 0.999987 0.999987 0.999987 0.999987 0.999987 0.999987 0.999987 0.999987 0.999987 0.999987 0.999987
          0.999987 0.999987 0.999987 0.999987 0.999987 0.999987 0.999987 0.999987 0.999987 0.999987 0.999987 0.999987
          0.999987 0.999987 0.999987 0.999987 0.999986 0.999986 0.999986 0.999986 0.999986 0.999986 0.999986 0.999986
          0.999986 0.999986 0.999986 0.999986 0.999986 0.999986 0.999986 0.999986 0.999986 0.999986 0.999986 0.999986
          0.999986 0.999986 0.999986 0.999986 0.999986 0.999986 0.999986 0.999986 0.999986 0.999986 0.999986 0.999986
          0.999986 0.999986 0.999986 0.999986 0.999986 0.999986 0.999986 0.999986 0.999986 0.999986 0.999986 0.999986
          0.999986 0.999986 0.999986 0.999986
        </DataArray>
        <DataArray type="Float32" Name="x_liquid^Air" NumberOfComponents="1" format="ascii">