<?xml version="1.0"?>
<VTKFile type="UnstructuredGrid" version="0.1" byte_order="LittleEndian">
  <UnstructuredGrid>
    <Piece NumberOfCells="48" NumberOfPoints="63">
      <PointData Scalars="temperature" Vectors="v">
        <DataArray type="Float32" Name="temperature" NumberOfComponents="1" format="ascii">
          295.777 295.77 298.15 298.141 295.762 298.133 295.755 298.124 295.749 298.115 295.744 298.106
          295.741 298.1 298.15 298.15 298.15 298.15 298.15 298.15 298.15 298.15 298.15 298.15
          298.15 298.15 298.15 298.15 298.15 298.15 298.15 298.15 298.15 298.15 298.15 298.15
          298.15 298.15 298.15 298.15 298.15 298.15 298.15 298.15 298.15 298.15 298.15 298.15
          298.15 298.15 298.15 298.15 298.15 298.15 298.15 298.15 298.15 298.15 298.15 298.15
          298.15 298.15 298.15
        </DataArray>
        <DataArray type="Float32" Name="pg" NumberOfComponents="1" format="ascii">
          100000 100000 100000 100000 100000 100000 100000 100000 100000 100000 100000 100000
          100000 100000 100000 100000 100000 100000 100000 100000 100000 100000 100000 100000
          100000 100000 100000 100000 100000 100000 100000 100000 100000 100000 100000 100000
          100000 100000 100000 100000 100000 100000 100000 100000 100000 100000 100000 100000
          100000 100000 100000 100000 100000 100000 100000 100000 100000 100000 100000 100000
          100000 100000 100000
        </DataArray>
        <DataArray type="Float32" Name="delP" NumberOfComponents="1" format="ascii">
          0.00201769 0.00169594 0.00200625 0.0016845 0.00135426 0.00134792 0.00101547 0.00101276 0.000676939 0.000674719 0.000338454 0.000337534
          0 0 0.00203023 0.00169113 0.00135307 0.00101496 0.000676672 0.000338321 0 0.00202483 0.00168638 0.00134966
          0.00101223 0.000674905 0.000337422 0 0.00203045 0.00169168 0.00135338 0.00101491 0.000676637 0.000338306 0 0.00202708
          0.00168827 0.0013507 0.00101274 0.000675235 0.000337619 0 0.00202988 0.00169127 0.00135299 0.00101456 0.000676384 0.000338197
          0 0.00202745 0.00168906 0.00135119 0.00101315 0.000675468 0.000337736 0 0.00202839 0.00168999 0.00135194 0.00101371
          0.00067584 0.000337918 0
        </DataArray>
        <DataArray type="Float32" Name="x_gas^H2O" NumberOfComponents="1" format="ascii">
          0.0274806 0.0274681 0.0127981 0.0128556 0.0274555 0.0129131 0.0274443 0.0129714 0.0274345 0.0130295 0.0274262 0.0130874
          0.02742 0.0131159 0.0127981 0.0127981 0.0127982 0.0127984 0.0127985 0.0127988 0.0127988 0.0127981 0.0127981 0.0127981
          0.0127981 0.0127981 0.0127981 0.012798 0.0127981 0.0127981 0.0127981 0.0127981 0.0127981 0.0127981 0.0127981 0.0127981
          0.0127981 0.0127981 0.0127981 0.0127981 0.0127981 0.0127982 0.0127981 0.0127981 0.0127981 0.0127981 0.0127981 0.0127981
          0.0127982 0.0127981 0.0127981 0.0127983 0.0127985 0.0127987 0.0127989 0.0127991 0.0127981 0.0128198 0.0128369 0.012849
          0.0128559 0.0128583 0.0127981
        </DataArray>
        <DataArray type="Float32" Name="X_gas^H2O" NumberOfComponents="1" format="ascii">
          0.0172743 0.0172664 0.008 0.00803612 0.0172584 0.00807225 0.0172512 0.00810887 0.017245 0.00814539 0.0172397 0.00818176
          0.0172358 0.00819964 0.008 0.00800003 0.00800009 0.00800018 0.0080003 0.00800045 0.00800043 0.008 0.008 0.008
          0.008 0.008 0.008 0.00799996 0.008 0.008 0.008 0.008 0.008 0.008 0.00800002 0.008
          0.008 0.008 0.008 0.008 0.008 0.00800006 0.008 0.008 0.008 0.008 0.008 0.008
          0.00800008 0.008 0.00800005 0.00800015 0.00800027 0.00800041 0.00800053 0.00800067 0.008 0.00801368 0.00802442 0.008032
          0.00803635 0.00803783 0.008
        </DataArray>
        <DataArray type="Float32" Name="x_gas^Air" NumberOfComponents="1" format="ascii">
          0.972519 0.972532 0.987202 0.987144 0.972544 0.987087 0.972556 0.987029 0.972565 0.98697 0.972574 0.986913
          0.97258 0.986884 0.987202 0.987202 0.987202 0.987202 0.987201 0.987201 0.987201 0.987202 0.987202 0.987202
          0.987202 0.987202 0.987202 0.987202 0.987202 0.987202 0.987202 0.987202 0.987202 0.987202 0.987202 0.987202
          0.987202 0.987202 0.987202 0.987202 0.987202 0.987202 0.987202 0.987202 0.987202 0.987202 0.987202 0.987202
          0.987202 0.987202 0.987202 0.987202 0.987202 0.987201 0.987201 0.987201 0.987202 0.98718 0.987163 0.987151
          0.987144 0.987142 0.987202
        </DataArray>
        <DataArray type="Float32" Name="X_gas^Air" NumberOfComponents="1" format="ascii">
          0.982726 0.982734 0.992 0.991964 0.982742 0.991928 0.982749 0.991891 0.982755 0.991855 0.98276 0.991818
          0.982764 0.9918 0.992 0.992 0.992 0.992 0.992 0.992 0.992 0.992 0.992 0.992
          0.992 0.992 0.992 0.992 0.992 0.992 0.992 0.992 0.992 0.992 0.992 0.992
          0.992 0.992 0.992 0.992 0.992 0.992 0.992 0.992 0.992 0.992 0.992 0.992
          0.992 0.992 0.992 0.992 0.992 0.992 0.991999 0.991999 0.992 0.991986 0.991976 0.991968
          0.991964 0.991962 0.992
        </DataArray>
        <DataArray type="Float32" Name="h" NumberOfComponents="1" format="ascii">
          65316.3 65289 44886.1 44966.4 65261.4 45046.7 65236.8 45128 65215.4 45209 65197.1 45289.7
          65183.5 45328.6 44886.1 44886.2 44886.3 44886.5 44886.8 44887.1 44886.7 44886.1 44886.1 44886.1
          44886.1 44886.1 44886.1 44885.9 44886.1 44886.1 44886.1 44886.1 44886.1 44886.1 44886.2 44886.1
          44886.1 44886.1 44886.1 44886.1 44886.1 44886.4 44886.1 44886.1 44886.1 44886.1 44886.1 44886.1
          44886.6 44886.1 44886.2 44886.5 44886.8 44887.1 44887.4 44888.1 44886.1 44919.9 44946.4 44965.1
          44975.9 44979.5 44886.1
        </DataArray>
        <DataArray type="Float32" Name="rho" NumberOfComponents="1" format="ascii">
          1.1654 1.16544 1.16259 1.1626 1.16547 1.1626 1.16551 1.16261 1.16553 1.16262 1.16556 1.16263
          1.16557 1.16264 1.16259 1.16259 1.16259 1.16259 1.16259 1.16259 1.16259 1.16259 1.16259 1.16259
          1.16259 1.16259 1.16259 1.16259 1.16259 1.16259 1.16259 1.16259 1.16259 1.16259 1.16259 1.16259
          1.16259 1.16259 1.16259 1.16259 1.16259 1.16259 1.16259 1.16259 1.16259 1.16259 1.16259 1.16259
          1.16259 1.16259 1.16259 1.16259 1.16259 1.16259 1.16259 1.16259 1.16259 1.16258 1.16257 1.16256
          1.16256 1.16256 1.16259
        </DataArray>
        <DataArray type="Float32" Name="mu" NumberOfComponents="1" format="ascii">
          1.78769e-05 1.78767e-05 1.81222e-05 1.81213e-05 1.78764e-05 1.81204e-05 1.78762e-05 1.81194e-05 1.7876e-05 1.81185e-05 1.78759e-05 1.81175e-05
          1.78757e-05 1.8117e-05 1.81222e-05 1.81222e-05 1.81222e-05 1.81222e-05 1.81222e-05 1.81222e-05 1.81222e-05 1.81222e-05 1.81222e-05 1.81222e-05
          1.81222e-05 1.81222e-05 1.81222e-05 1.81222e-05 1.81222e-05 1.81222e-05 1.81222e-05 1.81222e-05 1.81222e-05 1.81222e-05 1.81222e-05 1.81222e-05
          1.81222e-05 1.81222e-05 1.81222e-05 1.81222e-05 1.81222e-05 1.81222e-05 1.81222e-05 1.81222e-05 1.81222e-05 1.81222e-05 1.81222e-05 1.81222e-05
          1.81222e-05 1.81222e-05 1.81222e-05 1.81222e-05 1.81222e-05 1.81222e-05 1.81222e-05 1.81222e-05 1.81222e-05 1.8122e-05 1.81219e-05 1.81218e-05
          1.81217e-05 1.81217e-05 1.81222e-05
        </DataArray>
        <DataArray type="Float32" Name="v" NumberOfComponents="3" format="ascii">
          0.000915492 6.66737e-05 0 0.00091913 6.60397e-05 0 0.809861 0 0 0.811337 -0.000109469 0
          0.000922449 6.56775e-05 0 0.813085 -3.473e-05 0 0.000922386 6.54524e-05 0 0.813443 4.18993e-05 0
          0.000922774 6.52392e-05 0 0.813743 4.65491e-05 0 0.00092278 6.50231e-05 0 0.813785 5.91836e-05 0
          0.000922861 6.50045e-05 0 0.813871 5.87125e-05 0 1.82383 0 0 1.82428 -0.0014066 0
          1.8252 -0.000771375 0 1.82581 -0.00016848 0 1.82617 -9.97387e-05 0 1.82633 4.41562e-06 0
          1.82644 3.7148e-05 0 2.89743 0 0 2.89719 -0.00114218 0 2.89709 -0.00104986 0
          2.89742 -0.000545855 0 2.89767 -0.000275103 0 2.89782 -0.000112428 0 2.89791 -8.09985e-07 0
          3.50134 0 0 3.50113 -0.00106237 0 3.50074 -0.00106059 0 3.50053 -0.000735935 0
          3.50043 -0.000435501 0 3.50041 -0.000216621 0 3.5004 -3.17738e-05 0 2.89743 0 0
          2.89713 -0.000258398 0 2.89658 -0.000357889 0 2.8962 -0.000281232 0 2.89592 -0.000172923 0
          2.8958 -9.03498e-05 0 2.89572 -1.98142e-05 0 1.82383 0 0 1.82366 -0.000134556 0
          1.82333 -0.000146412 0 1.82305 -0.000126112 0 1.82283 -7.77261e-05 0 1.82272 -3.97669e-05 0
          1.82266 -3.31039e-06 0 0.809861 0 0 0.80977 0.000147197 0 0.809615 9.21372e-05 0
          0.80948 7.25307e-05 0 0.809362 4.72964e-05 0 0.809318 2.37108e-05 0 0.809281 1.80414e-06 0
          0.00134 0 0 0.00134 0 0 0.00134 5.85799e-37 0 0.00134 0 0
          0.00134 0 0 0.00134 0 0 0.00134 0 0
        </DataArray>
      </PointData>
      <Points>
        <DataArray type="Float32" Name="Coordinates" NumberOfComponents="3" format="ascii">
          0 0.25 0 0.0416667 0.25 0 0 0.265385 0 0.0416667 0.265385 0
          0.0833333 0.25 0 0.0833333 0.265385 0 0.125 0.25 0 0.125 0.265385 0
          0.166667 0.25 0 0.166667 0.265385 0 0.208333 0.25 0 0.208333 0.265385 0
          0.25 0.25 0 0.25 0.265385 0 0 0.288462 0 0.0416667 0.288462 0
          0.0833333 0.288462 0 0.125 0.288462 0 0.166667 0.288462 0 0.208333 0.288462 0
          0.25 0.288462 0 0 0.323077 0 0.0416667 0.323077 0 0.0833333 0.323077 0
          0.125 0.323077 0 0.166667 0.323077 0 0.208333 0.323077 0 0.25 0.323077 0
          0 0.375 0 0.0416667 0.375 0 0.0833333 0.375 0 0.125 0.375 0
          0.166667 0.375 0 0.208333 0.375 0 0.25 0.375 0 0 0.426923 0
          0.0416667 0.426923 0 0.0833333 0.426923 0 0.125 0.426923 0 0.166667 0.426923 0
          0.208333 0.426923 0 0.25 0.426923 0 0 0.461538 0 0.0416667 0.461538 0
          0.0833333 0.461538 0 0.125 0.461538 0 0.166667 0.461538 0 0.208333 0.461538 0
          0.25 0.461538 0 0 0.484615 0 0.0416667 0.484615 0 0.0833333 0.484615 0
          0.125 0.484615 0 0.166667 0.484615 0 0.208333 0.484615 0 0.25 0.484615 0
          0 0.5 0 0.0416667 0.5 0 0.0833333 0.5 0 0.125 0.5 0
          0.166667 0.5 0 0.208333 0.5 0 0.25 0.5 0
        </DataArray>
      </Points>
      <Cells>
        <DataArray type="Int32" Name="connectivity" NumberOfComponents="1" format="ascii">
          0 1 3 2 1 4 5 3 4 6 7 5
          6 8 9 7 8 10 11 9 10 12 13 11
          2 3 15 14 3 5 16 15 5 7 17 16
          7 9 18 17 9 11 19 18 11 13 20 19
          14 15 22 21 15 16 23 22 16 17 24 23
          17 18 25 24 18 19 26 25 19 20 27 26
          21 22 29 28 22 23 30 29 23 24 31 30
          24 25 32 31 25 26 33 32 26 27 34 33
          28 29 36 35 29 30 37 36 30 31 38 37
          31 32 39 38 32 33 40 39 33 34 41 40
          35 36 43 42 36 37 44 43 37 38 45 44
          38 39 46 45 39 40 47 46 40 41 48 47
          42 43 50 49 43 44 51 50 44 45 52 51
          45 46 53 52 46 47 54 53 47 48 55 54
          49 50 57 56 50 51 58 57 51 52 59 58
          52 53 60 59 53 54 61 60 54 55 62 61
        </DataArray>
        <DataArray type="Int32" Name="offsets" NumberOfComponents="1" format="ascii">
          4 8 12 16 20 24 28 32 36 40 44 48
          52 56 60 64 68 72 76 80 84 88 92 96
          100 104 108 112 116 120 124 128 132 136 140 144
          148 152 156 160 164 168 172 176 180 184 188 192
        </DataArray>
        <DataArray type="UInt8" Name="types" NumberOfComponents="1" format="ascii">
          9 9 9 9 9 9 9 9 9 9 9 9
          9 9 9 9 9 9 9 9 9 9 9 9
          9 9 9 9 9 9 9 9 9 9 9 9
          9 9 9 9 9 9 9 9 9 9 9 9
        </DataArray>
      </Cells>
    </Piece>
  </UnstructuredGrid>
</VTKFile>
