<?xml version="1.0"?>
<VTKFile type="UnstructuredGrid" version="0.1" byte_order="LittleEndian">
  <UnstructuredGrid>
    <Piece NumberOfCells="20" NumberOfPoints="30">
      <PointData Scalars="Sn" Vectors="velocityW">
        <DataArray type="Float32" Name="Sn" NumberOfComponents="1" format="ascii">
          0.0543867 0.0543946 0.845464 0.845186 0.0543783 0.844641 0.0543617 0.843984 0.0543594 0.843424 0.0543574 0.843219
          0.930831 0.930679 0.929333 0.927862 0.927087 0.926736 0.957084 0.961927 0.954792 0.950048 0.949003 0.948431
          0.966334 1 0.980232 0.973814 0.972083 0.964334
        </DataArray>
        <DataArray type="Float32" Name="Sw" NumberOfComponents="1" format="ascii">
          0.945613 0.945605 0.154536 0.154814 0.945622 0.155359 0.945638 0.156016 0.945641 0.156576 0.945643 0.156781
          0.0691686 0.0693209 0.0706668 0.0721383 0.0729126 0.0732636 0.0429162 0.0380733 0.0452075 0.0499519 0.0509966 0.0515691
          0.0336665 0 0.0197679 0.0261862 0.0279174 0.0356662
        </DataArray>
        <DataArray type="Float32" Name="pn" NumberOfComponents="1" format="ascii">
          100010 100010 100006 100006 100010 100005 100009 100005 100009 100004 100009 100004
          100006 100006 100004 100003 100003 100002 100008 100007 100002 100004 100001 100000
          100007 100012 99993.7 100009 99996.6 100000
        </DataArray>
        <DataArray type="Float32" Name="pw" NumberOfComponents="1" format="ascii">
          98920 98919.9 97982.7 97983.1 98919.7 97983.7 98919.4 97984.5 98919.2 97985.3 98919.1 97985.5
          97700.7 97700.9 97706.7 97713.4 97716.5 97717.8 97515.7 97464.6 97531.4 97573.1 97578.5 97582.4
          97411.6 96328.2 97136.5 97296.9 97315.1 97429.6
        </DataArray>
        <DataArray type="Float32" Name="pc" NumberOfComponents="1" format="ascii">
          1090.06 1090.09 2023.28 2022.67 1090.04 2021.49 1089.98 2020.06 1089.98 2018.85 1089.97 2018.41
          2305.63 2304.81 2297.68 2290.07 2286.14 2284.37 2492.02 2542.28 2470.69 2430.53 2422.32 2417.91
          2595.78 3684.13 2857.14 2712.13 2681.48 2570.44
        </DataArray>
        <DataArray type="Float32" Name="rhoW" NumberOfComponents="1" format="ascii">
          997.054 997.054 997.1 997.101 997.054 997.104 997.054 997.101 997.054 997.095 997.054 997.092
          997.29 997.322 997.362 997.362 997.304 997.261 997.605 997.846 998.056 998.119 997.894 997.587
          997.533 998.387 999.041 998.983 998.92 997.528
        </DataArray>
        <DataArray type="Float32" Name="rhoN" NumberOfComponents="1" format="ascii">
          1.15439 1.15439 1.15518 1.15521 1.15438 1.15525 1.15438 1.1552 1.15438 1.15508 1.15437 1.15502
          1.15875 1.15936 1.1601 1.16009 1.15898 1.15816 1.1649 1.16981 1.17423 1.17561 1.17072 1.16446
          1.16347 1.18533 1.19886 1.19734 1.19538 1.16329
        </DataArray>
        <DataArray type="Float32" Name="mobW" NumberOfComponents="1" format="ascii">
          1004.62 1004.59 4.55737 4.58053 1004.66 4.62649 1004.73 4.6843 1004.74 4.73572 1004.75 4.75507
          0.420226 0.421728 0.445176 0.473588 0.491649 0.500811 0.0938856 0.0625554 0.105398 0.142868 0.156198 0.166885
          0.0433528 0 0.00564983 0.0155954 0.0196126 0.0523442
        </DataArray>
        <DataArray type="Float32" Name="mobN" NumberOfComponents="1" format="ascii">
          108.703 108.743 42111.1 42086.3 108.66 42037.6 108.575 41977.4 108.564 41925 108.554 41905.5
          50550.7 50544.9 50405.4 50237 50127.8 50072.2 53443.2 53972.6 53430.2 52993.2 52781.7 52592.9
          54189.6 55550.8 55873.4 55491.1 55336.3 54032.9
        </DataArray>
        <DataArray type="Float32" Name="X_liquid^H2O" NumberOfComponents="1" format="ascii">
          0.999978 0.999978 0.999978 0.999978 0.999978 0.999978 0.999978 0.999978 0.999978 0.999978 0.999978 0.999978
          0.999978 0.999978 0.999978 0.999978 0.999978 0.999978 0.999978 0.999977 0.999977 0.999977 0.999977 0.999978
          0.999978 0.639775 0.999974 0.999974 0.999974 0.999978
        </DataArray>
        <DataArray type="Float32" Name="X_liquid^Air" NumberOfComponents="1" format="ascii">
          2.15488e-05 2.15488e-05 2.1616e-05 2.16184e-05 2.15487e-05 2.16215e-05 2.15487e-05 2.16181e-05 2.15486e-05 2.16091e-05 2.15486e-05 2.16042e-05
          2.1908e-05 2.19594e-05 2.20227e-05 2.20228e-05 2.19304e-05 2.18619e-05 2.24325e-05 2.28722e-05 2.32883e-05 2.34187e-05 2.29612e-05 2.23994e-05
          2.23076e-05 2.42112e-05 2.58999e-05 2.57061e-05 2.54941e-05 2.22983e-05
        </DataArray>
        <DataArray type="Float32" Name="X_gas^H2O" NumberOfComponents="1" format="ascii">
          0.019963 0.019963 0.0197474 0.0197397 0.0199631 0.0197296 0.0199631 0.01974 0.0199632 0.0197681 0.0199632 0.0197835
          0.0188619 0.0187117 0.0185281 0.0185273 0.0187946 0.0189948 0.0174128 0.0163227 0.0153823 0.015101 0.0161087 0.0174965
          0.0177428 0.00888508 0.0109918 0.0112542 0.0115389 0.0177643
        </DataArray>
        <DataArray type="Float32" Name="X_gas^Air" NumberOfComponents="1" format="ascii">
          0.980037 0.980037 0.980253 0.98026 0.980037 0.98027 0.980037 0.98026 0.980037 0.980232 0.980037 0.980216
          0.981138 0.981288 0.981472 0.981473 0.981205 0.981005 0.982587 0.983677 0.984618 0.984899 0.983891 0.982503
          0.982257 0.991115 0.989008 0.988746 0.988461 0.982236
        </DataArray>
        <DataArray type="Float32" Name="x_liquid^H2O" NumberOfComponents="1" format="ascii">
          0.999987 0.999987 0.999987 0.999987 0.999987 0.999987 0.999987 0.999987 0.999987 0.999987 0.999987 0.999987
          0.999986 0.999986 0.999986 0.999986 0.999986 0.999986 0.999986 0.999986 0.999986 0.999985 0.999986 0.999986
          0.999986 0.639784 0.999984 0.999984 0.999984 0.999986
        </DataArray>
        <DataArray type="Float32" Name="x_liquid^Air" NumberOfComponents="1" format="ascii">
          1.3405e-05 1.3405e-05 1.34468e-05 1.34483e-05 1.34049e-05 1.34502e-05 1.34049e-05 1.34481e-05 1.34049e-05 1.34425e-05 1.34049e-05 1.34395e-05
          1.36284e-05 1.36604e-05 1.36998e-05 1.36999e-05 1.36424e-05 1.35998e-05 1.39547e-05 1.42282e-05 1.44871e-05 1.45682e-05 1.42836e-05 1.39342e-05
          1.3877e-05 1.50613e-05 1.61118e-05 1.59912e-05 1.58593e-05 1.38713e-05
        </DataArray>
        <DataArray type="Float32" Name="x_gas^H2O" NumberOfComponents="1" format="ascii">
          0.0317066 0.0317067 0.0313683 0.0313562 0.0317068 0.0313403 0.0317069 0.0313567 0.0317069 0.0314007 0.031707 0.031425
          0.0299776 0.0297416 0.0294529 0.0294517 0.0298719 0.0301864 0.0276986 0.0259816 0.0244986 0.0240546 0.0256442 0.0278304
          0.0282179 0.0142064 0.0175525 0.0179686 0.01842 0.0282518
        </DataArray>
        <DataArray type="Float32" Name="x_gas^Air" NumberOfComponents="1" format="ascii">
          0.968293 0.968293 0.968632 0.968644 0.968293 0.96866 0.968293 0.968643 0.968293 0.968599 0.968293 0.968575
          0.970022 0.970258 0.970547 0.970548 0.970128 0.969814 0.972301 0.974018 0.975501 0.975945 0.974356 0.97217
          0.971782 0.985794 0.982448 0.982031 0.98158 0.971748
        </DataArray>
        <DataArray type="Float32" Name="porosity" NumberOfComponents="1" format="ascii">
          0.41 0.41 0.41 0.41 0.41 0.41 0.41 0.41 0.41 0.41 0.41 0.41
          0.41 0.41 0.41 0.41 0.41 0.41 0.41 0.41 0.41 0.41 0.41 0.41
          0.41 0.41 0.41 0.41 0.41 0.41
        </DataArray>
        <DataArray type="Float32" Name="temperature" NumberOfComponents="1" format="ascii">
          298.15 298.15 297.97 297.964 298.15 297.955 298.15 297.964 298.15 297.987 298.15 298
          297.212 297.08 296.919 296.918 297.153 297.328 295.903 294.852 293.893 293.601 294.641 295.979
          296.209 292.309 288.591 288.955 289.345 296.227
        </DataArray>
        <DataArray type="Float32" Name="phase presence" NumberOfComponents="1" format="ascii">
          3 3 3 3 3 3 3 3 3 3 3 3
          3 3 3 3 3 3 3 3 3 3 3 3
          3 2 3 3 3 3
        </DataArray>
        <DataArray type="Float32" Name="velocityW" NumberOfComponents="3" format="ascii">
          -2.0746e-08 -9.14348e-07 0 -3.67629e-08 -9.23766e-07 0 -6.84206e-09 -7.75019e-07 0 -1.77158e-08 -7.81284e-07 0
          -5.92074e-08 -9.42523e-07 0 -3.17643e-08 -8.1235e-07 0 -5.99821e-08 -9.66388e-07 0 -2.90336e-08 -8.50922e-07 0
          -3.76087e-08 -9.88033e-07 0 -1.61241e-08 -8.78232e-07 0 -2.08882e-08 -9.96253e-07 0 -9.12003e-09 -8.90416e-07 0
          1.38649e-08 -3.86252e-07 0 -8.13017e-09 -3.6061e-07 0 -2.80565e-08 -4.23751e-07 0 -1.70308e-08 -4.93809e-07 0
          -6.06993e-09 -5.24913e-07 0 -4.06608e-09 -5.43469e-07 0 8.64322e-08 -4.37047e-08 0 8.17244e-10 1.2405e-07 0
          -6.21655e-08 -4.91235e-09 0 -2.25492e-08 -1.25656e-07 0 -1.0471e-08 -1.44934e-07 0 -1.53769e-08 -1.78371e-07 0
          1.89621e-07 4.94049e-08 0 8.54844e-08 3.30518e-07 0 -1.47285e-08 1.55501e-07 0 -6.18262e-09 8.49122e-10 0
          -1.28245e-08 -8.47194e-09 0 -2.40888e-08 -5.43812e-08 0
        </DataArray>
        <DataArray type="Float32" Name="velocityN" NumberOfComponents="3" format="ascii">
          7.4476e-08 8.02838e-07 0 1.31213e-07 8.39281e-07 0 6.09747e-05 -9.88709e-05 0 9.97989e-05 -6.36921e-05 0
          2.0457e-07 9.21446e-07 0 0.000138345 -9.76774e-07 0 1.96391e-07 1.00625e-06 0 0.000122372 2.80345e-05 0
          1.1783e-07 1.06504e-06 0 7.4546e-05 5.53612e-05 0 6.40694e-08 1.08601e-06 0 4.24132e-05 7.13178e-05 0
          0.000169092 -0.000387388 0 0.000308925 -0.000272891 0 0.000298139 0.000145377 0 0.000210624 1.18339e-07 0
          0.000189908 0.000198687 0 0.00010609 0.000260953 0 1.66938e-05 -0.000620196 0 0.000889209 -0.00100829 0
          0.000457242 0.00120083 0 0.000104084 -0.000696211 0 0.000531078 0.000649432 0 6.74909e-06 0.000405453 0
          -0.00104939 -0.00066416 0 0.0017198 -0.00159903 0 0.000490674 0.00210803 0 -0.000278004 -0.0013376 0
          0.00112535 0.00101115 0 -0.000700934 0.00043055 0
        </DataArray>
      </PointData>
      <CellData Scalars="process rank">
        <DataArray type="Float32" Name="process rank" NumberOfComponents="1" format="ascii">
          0 0 0 0 0 0 0 0 0 0 0 0
          0 0 0 0 0 0 0 0
        </DataArray>
      </CellData>
      <Points>
        <DataArray type="Float32" Name="Coordinates" NumberOfComponents="3" format="ascii">
          0.05 0 0 0.1 0 0 0.05 0.103846 0 0.1 0.103846 0
          0.15 0 0 0.15 0.103846 0 0.2 0 0 0.2 0.103846 0
          0.25 0 0 0.25 0.103846 0 0.3 0 0 0.3 0.103846 0
          0.05 0.173077 0 0.1 0.173077 0 0.15 0.173077 0 0.2 0.173077 0
          0.25 0.173077 0 0.3 0.173077 0 0.05 0.219231 0 0.1 0.219231 0
          0.15 0.219231 0 0.2 0.219231 0 0.25 0.219231 0 0.3 0.219231 0
          0.05 0.25 0 0.1 0.25 0 0.15 0.25 0 0.2 0.25 0
          0.25 0.25 0 0.3 0.25 0
        </DataArray>
      </Points>
      <Cells>
        <DataArray type="Int32" Name="connectivity" NumberOfComponents="1" format="ascii">
          0 1 3 2 1 4 5 3 4 6 7 5
          6 8 9 7 8 10 11 9 2 3 13 12
          3 5 14 13 5 7 15 14 7 9 16 15
          9 11 17 16 12 13 19 18 13 14 20 19
          14 15 21 20 15 16 22 21 16 17 23 22
          18 19 25 24 19 20 26 25 20 21 27 26
          21 22 28 27 22 23 29 28
        </DataArray>
        <DataArray type="Int32" Name="offsets" NumberOfComponents="1" format="ascii">
          4 8 12 16 20 24 28 32 36 40 44 48
          52 56 60 64 68 72 76 80
        </DataArray>
        <DataArray type="UInt8" Name="types" NumberOfComponents="1" format="ascii">
          9 9 9 9 9 9 9 9 9 9 9 9
          9 9 9 9 9 9 9 9
        </DataArray>
      </Cells>
    </Piece>
  </UnstructuredGrid>
</VTKFile>
