<?xml version="1.0"?>
<VTKFile type="UnstructuredGrid" version="0.1" byte_order="LittleEndian">
  <UnstructuredGrid>
    <Piece NumberOfCells="180" NumberOfPoints="208">
      <PointData Scalars="Sn" Vectors="velocityW">
        <DataArray type="Float32" Name="Sn" NumberOfComponents="1" format="ascii">
          0.0100501 0.0100501 0.0101078 0.0101078 0.0100501 0.0101078 0.0100501 0.0101078 0.0100501 0.0101078 0.0100501 0.0101078
          0.0100501 0.0101078 0.0100501 0.0101078 0.0100501 0.0101078 0.0100501 0.0101078 0.0100501 0.0101078 0.0100501 0.0101078
          0.0100501 0.0101078 0.0100501 0.0101078 0.0100501 0.0101078 0.0100501 0.0101078 0.0101511 0.0101511 0.0101511 0.0101511
          0.0101511 0.0101511 0.0101511 0.0101511 0.0101511 0.0101511 0.0101511 0.0101511 0.0101511 0.0101511 0.0101511 0.0101511
          0.0101979 0.0101979 0.0101979 0.0101979 0.0101979 0.0101979 0.0101979 0.0101979 0.0101979 0.0101979 0.0101979 0.0101979
          0.0101979 0.0101979 0.0101979 0.0101979 0.0103608 0.0103608 0.0103608 0.0103608 0.0103608 0.0103607 0.0103607 0.0103608
          0.0103607 0.0103607 0.0103608 0.0103608 0.0103608 0.0103608 0.0103608 0.0103608 0.0112112 0.0112112 0.0112112 0.0112112
          0.0112112 0.0112112 0.0112112 0.0112112 0.0112112 0.0112112 0.0112112 0.0112112 0.0112112 0.0112112 0.0112112 0.0112112
          0.012569 0.012569 0.012569 0.012569 0.012569 0.012569 0.012569 0.012569 0.012569 0.012569 0.012569 0.012569
          0.012569 0.012569 0.012569 0.012569 0.0141368 0.0141368 0.0141368 0.0141368 0.0141368 0.0141368 0.0141368 0.0141368
          0.0141368 0.0141368 0.0141368 0.0141368 0.0141368 0.0141368 0.0141368 0.0141368 0.0160964 0.0160964 0.0160964 0.0160964
          0.0160964 0.0160964 0.0160964 0.0160964 0.0160964 0.0160964 0.0160964 0.0160964 0.0160964 0.0160964 0.0160964 0.0160964
          0.0202758 0.0202758 0.0202757 0.0202757 0.0202757 0.0202757 0.0202757 0.0202757 0.0202757 0.0202756 0.0202756 0.0202756
          0.0202756 0.0202756 0.0202756 0.0202755 0.0413428 0.0413426 0.0413426 0.0413425 0.0413425 0.0413425 0.0413424 0.0413424
          0.0413424 0.0413423 0.0413423 0.0413422 0.0413422 0.0413422 0.0413421 0.0413419 0.0841968 0.0841964 0.0841963 0.0841962
          0.0841962 0.0841961 0.0841961 0.084196 0.0841959 0.0841958 0.0841957 0.0841956 0.0841955 0.0841955 0.0841953 0.0841949
          0.153771 0.15377 0.15377 0.15377 0.15377 0.15377 0.15377 0.15377 0.15377 0.153769 0.153769 0.153769
          0.153769 0.153769 0.153769 0.153767
        </DataArray>
        <DataArray type="Float32" Name="Sw" NumberOfComponents="1" format="ascii">
          0.98995 0.98995 0.989892 0.989892 0.98995 0.989892 0.98995 0.989892 0.98995 0.989892 0.98995 0.989892
          0.98995 0.989892 0.98995 0.989892 0.98995 0.989892 0.98995 0.989892 0.98995 0.989892 0.98995 0.989892
          0.98995 0.989892 0.98995 0.989892 0.98995 0.989892 0.98995 0.989892 0.989849 0.989849 0.989849 0.989849
          0.989849 0.989849 0.989849 0.989849 0.989849 0.989849 0.989849 0.989849 0.989849 0.989849 0.989849 0.989849
          0.989802 0.989802 0.989802 0.989802 0.989802 0.989802 0.989802 0.989802 0.989802 0.989802 0.989802 0.989802
          0.989802 0.989802 0.989802 0.989802 0.989639 0.989639 0.989639 0.989639 0.989639 0.989639 0.989639 0.989639
          0.989639 0.989639 0.989639 0.989639 0.989639 0.989639 0.989639 0.989639 0.988789 0.988789 0.988789 0.988789
          0.988789 0.988789 0.988789 0.988789 0.988789 0.988789 0.988789 0.988789 0.988789 0.988789 0.988789 0.988789
          0.987431 0.987431 0.987431 0.987431 0.987431 0.987431 0.987431 0.987431 0.987431 0.987431 0.987431 0.987431
          0.987431 0.987431 0.987431 0.987431 0.985863 0.985863 0.985863 0.985863 0.985863 0.985863 0.985863 0.985863
          0.985863 0.985863 0.985863 0.985863 0.985863 0.985863 0.985863 0.985863 0.983904 0.983904 0.983904 0.983904
          0.983904 0.983904 0.983904 0.983904 0.983904 0.983904 0.983904 0.983904 0.983904 0.983904 0.983904 0.983904
          0.979724 0.979724 0.979724 0.979724 0.979724 0.979724 0.979724 0.979724 0.979724 0.979724 0.979724 0.979724
          0.979724 0.979724 0.979724 0.979724 0.958657 0.958657 0.958657 0.958657 0.958658 0.958658 0.958658 0.958658
          0.958658 0.958658 0.958658 0.958658 0.958658 0.958658 0.958658 0.958658 0.915803 0.915804 0.915804 0.915804
          0.915804 0.915804 0.915804 0.915804 0.915804 0.915804 0.915804 0.915804 0.915804 0.915805 0.915805 0.915805
          0.846229 0.84623 0.84623 0.84623 0.84623 0.84623 0.84623 0.84623 0.84623 0.846231 0.846231 0.846231
          0.846231 0.846231 0.846231 0.846233
        </DataArray>
        <DataArray type="Float32" Name="pn" NumberOfComponents="1" format="ascii">
          101173 101173 100857 100857 101173 100857 101173 100857 101173 100857 101173 100857
          101173 100857 101173 100857 101173 100857 101173 100857 101173 100857 101173 100857
          101173 100857 101173 100857 101173 100857 101173 100857 100568 100568 100568 100568
          100568 100568 100568 100568 100568 100568 100568 100568 100568 100568 100568 100568
          100307 100307 100307 100307 100307 100307 100307 100307 100307 100307 100307 100307
          100307 100307 100307 100307 100091 100091 100091 100091 100091 100091 100091 100091
          100091 100091 100091 100091 100091 100091 100091 100091 100009 100009 100009 100009
          100009 100009 100009 100009 100009 100009 100009 100009 100009 100009 100009 100009
          100003 100003 100003 100003 100003 100003 100003 100003 100003 100003 100003 100003
          100003 100003 100003 100003 100001 100001 100001 100001 100001 100001 100001 100001
          100001 100001 100001 100001 100001 100001 100001 100001 100001 100001 100001 100001
          100001 100001 100001 100001 100001 100001 100001 100001 100001 100001 100001 100001
          100000 100000 100000 100000 100000 100000 100000 100000 100000 100000 100000 100000
          100000 100000 100000 100000 100000 100000 100000 100000 100000 100000 100000 100000
          100000 100000 100000 100000 100000 100000 100000 100000 100000 100000 100000 100000
          100000 100000 100000 100000 100000 100000 100000 100000 100000 100000 100000 100000
          100000 100000 100000 100000 100000 100000 100000 100000 100000 100000 100000 100000
          100000 100000 100000 100000
        </DataArray>
        <DataArray type="Float32" Name="pw" NumberOfComponents="1" format="ascii">
          101164 101164 100837 100837 101164 100837 101164 100837 101164 100837 101164 100837
          101164 100837 101164 100837 101164 100837 101164 100837 101164 100837 101164 100837
          101164 100837 101164 100837 101164 100837 101164 100837 100541 100541 100541 100541
          100541 100541 100541 100541 100541 100541 100541 100541 100541 100541 100541 100541
          100271 100271 100271 100271 100271 100271 100271 100271 100271 100271 100271 100271
          100271 100271 100271 100271 100026 100026 100026 100026 100026 100026 100026 100026
          100026 100026 100026 100026 100026 100026 100026 100026 99803.3 99803.3 99803.3 99803.3
          99803.3 99803.3 99803.3 99803.3 99803.3 99803.3 99803.3 99803.3 99803.3 99803.3 99803.3 99803.3
          99600.7 99600.7 99600.7 99600.7 99600.7 99600.7 99600.7 99600.7 99600.7 99600.7 99600.7 99600.7
          99600.7 99600.7 99600.7 99600.7 99416.5 99416.5 99416.5 99416.5 99416.5 99416.5 99416.5 99416.5
          99416.5 99416.5 99416.5 99416.5 99416.5 99416.5 99416.5 99416.5 99249.1 99249.1 99249.1 99249.1
          99249.1 99249.1 99249.1 99249.1 99249.1 99249.1 99249.1 99249.1 99249.1 99249.1 99249.1 99249.1
          99096.9 99096.9 99096.9 99096.9 99096.9 99096.9 99096.9 99096.9 99096.9 99096.9 99096.9 99096.9
          99096.9 99096.9 99096.9 99096.9 98958.5 98958.5 98958.5 98958.5 98958.5 98958.5 98958.5 98958.5
          98958.5 98958.5 98958.5 98958.5 98958.5 98958.5 98958.5 98958.5 98832.7 98832.7 98832.7 98832.7
          98832.7 98832.7 98832.7 98832.7 98832.7 98832.7 98832.7 98832.7 98832.7 98832.7 98832.7 98832.7
          98718.4 98718.4 98718.4 98718.4 98718.4 98718.4 98718.4 98718.4 98718.4 98718.4 98718.4 98718.4
          98718.4 98718.4 98718.4 98718.4
        </DataArray>
        <DataArray type="Float32" Name="pc" NumberOfComponents="1" format="ascii">
          9.1088 9.10859 19.5512 19.5509 9.10891 19.5509 9.10886 19.5504 9.10862 19.5509 9.10871 19.5506
          9.10874 19.5512 9.10868 19.5503 9.10885 19.5498 9.10861 19.5509 9.10868 19.5513 9.10863 19.5512
          9.10861 19.5508 9.10871 19.5509 9.10875 19.5502 9.10853 19.5501 27.3427 27.3423 27.3422 27.3416
          27.3422 27.3418 27.342 27.3417 27.341 27.3418 27.3429 27.3427 27.3428 27.3422 27.3421 27.3423
          35.7035 35.7029 35.703 35.7028 35.7026 35.7027 35.7021 35.7021 35.7018 35.7021 35.703 35.7034
          35.7033 35.7035 35.703 35.7026 64.4787 64.4788 64.4785 64.4787 64.479 64.4776 64.478 64.4784
          64.4777 64.4779 64.4783 64.4791 64.479 64.4789 64.4789 64.4791 205.922 205.922 205.922 205.922
          205.922 205.921 205.921 205.921 205.921 205.921 205.921 205.921 205.922 205.922 205.922 205.922
          401.953 401.952 401.952 401.952 401.952 401.952 401.952 401.952 401.952 401.952 401.951 401.951
          401.951 401.951 401.951 401.951 584.756 584.756 584.756 584.755 584.755 584.755 584.755 584.755
          584.755 584.755 584.755 584.755 584.754 584.754 584.754 584.754 751.634 751.634 751.634 751.633
          751.633 751.633 751.633 751.633 751.633 751.633 751.633 751.632 751.632 751.632 751.632 751.632
          903.543 903.543 903.542 903.542 903.542 903.542 903.542 903.542 903.542 903.541 903.541 903.541
          903.541 903.541 903.54 903.54 1041.74 1041.74 1041.74 1041.74 1041.74 1041.74 1041.74 1041.74
          1041.74 1041.74 1041.74 1041.74 1041.74 1041.74 1041.74 1041.74 1167.4 1167.4 1167.4 1167.4
          1167.4 1167.4 1167.4 1167.4 1167.4 1167.4 1167.4 1167.4 1167.4 1167.4 1167.4 1167.4
          1281.64 1281.64 1281.64 1281.64 1281.64 1281.64 1281.64 1281.64 1281.64 1281.63 1281.63 1281.63
          1281.63 1281.63 1281.63 1281.63
        </DataArray>
        <DataArray type="Float32" Name="rhoW" NumberOfComponents="1" format="ascii">
          997.056 997.056 997.056 997.056 997.056 997.056 997.056 997.056 997.056 997.056 997.056 997.056
          997.056 997.056 997.056 997.056 997.056 997.056 997.056 997.056 997.056 997.056 997.056 997.056
          997.056 997.056 997.056 997.056 997.056 997.056 997.056 997.056 997.057 997.057 997.057 997.057
          997.057 997.057 997.057 997.057 997.057 997.057 997.057 997.057 997.057 997.057 997.057 997.057
          997.057 997.057 997.057 997.057 997.057 997.057 997.057 997.057 997.057 997.057 997.057 997.057
          997.057 997.057 997.057 997.057 997.059 997.059 997.059 997.059 997.059 997.059 997.059 997.059
          997.059 997.059 997.059 997.059 997.059 997.059 997.059 997.059 997.064 997.064 997.064 997.064
          997.064 997.064 997.064 997.064 997.064 997.064 997.064 997.064 997.064 997.064 997.064 997.064
          997.072 997.072 997.072 997.072 997.072 997.072 997.072 997.072 997.072 997.072 997.072 997.072
          997.072 997.072 997.072 997.072 997.086 997.086 997.086 997.086 997.086 997.086 997.086 997.086
          997.086 997.086 997.086 997.086 997.086 997.086 997.086 997.086 997.107 997.107 997.107 997.107
          997.107 997.107 997.107 997.107 997.107 997.107 997.107 997.107 997.107 997.107 997.107 997.107
          997.135 997.135 997.135 997.135 997.135 997.135 997.135 997.135 997.135 997.135 997.135 997.135
          997.135 997.135 997.135 997.135 997.17 997.17 997.17 997.17 997.17 997.17 997.17 997.17
          997.17 997.17 997.17 997.17 997.17 997.169 997.169 997.169 997.21 997.21 997.211 997.211
          997.211 997.211 997.211 997.211 997.211 997.211 997.211 997.21 997.21 997.21 997.21 997.209
          997.254 997.255 997.256 997.256 997.257 997.257 997.257 997.257 997.256 997.256 997.256 997.256
          997.255 997.255 997.255 997.254
        </DataArray>
        <DataArray type="Float32" Name="rhoN" NumberOfComponents="1" format="ascii">
          1.16798 1.16798 1.16429 1.16429 1.16798 1.16429 1.16798 1.16429 1.16798 1.16429 1.16798 1.16429
          1.16798 1.16429 1.16798 1.16429 1.16798 1.16429 1.16798 1.16429 1.16798 1.16429 1.16798 1.16429
          1.16798 1.16429 1.16798 1.16429 1.16798 1.16429 1.16798 1.16429 1.16092 1.16092 1.16092 1.16092
          1.16092 1.16092 1.16092 1.16092 1.16092 1.16092 1.16092 1.16092 1.16092 1.16092 1.16092 1.16092
          1.15789 1.15789 1.15789 1.15789 1.15789 1.15789 1.15789 1.15789 1.15789 1.15789 1.15789 1.15789
          1.15789 1.15789 1.15789 1.15789 1.1554 1.1554 1.1554 1.1554 1.1554 1.1554 1.1554 1.1554
          1.1554 1.1554 1.1554 1.1554 1.1554 1.1554 1.1554 1.1554 1.15453 1.15453 1.15453 1.15453
          1.15453 1.15453 1.15453 1.15453 1.15453 1.15453 1.15453 1.15453 1.15453 1.15453 1.15453 1.15453
          1.15461 1.15461 1.15461 1.15461 1.15461 1.15461 1.15461 1.15461 1.15461 1.15461 1.15461 1.15461
          1.15461 1.15461 1.15461 1.15461 1.15486 1.15486 1.15486 1.15486 1.15486 1.15486 1.15486 1.15486
          1.15486 1.15486 1.15486 1.15486 1.15486 1.15485 1.15485 1.15485 1.15523 1.15523 1.15523 1.15524
          1.15524 1.15524 1.15524 1.15524 1.15524 1.15524 1.15524 1.15523 1.15523 1.15523 1.15523 1.15523
          1.15575 1.15575 1.15575 1.15575 1.15575 1.15576 1.15576 1.15576 1.15575 1.15575 1.15575 1.15575
          1.15575 1.15574 1.15574 1.15574 1.15639 1.15639 1.1564 1.1564 1.1564 1.15641 1.15641 1.1564
          1.1564 1.1564 1.1564 1.15639 1.15639 1.15639 1.15638 1.15638 1.15714 1.15715 1.15716 1.15716
          1.15717 1.15717 1.15717 1.15717 1.15717 1.15716 1.15716 1.15715 1.15715 1.15715 1.15714 1.15713
          1.15798 1.15799 1.15801 1.15802 1.15802 1.15802 1.15802 1.15802 1.15802 1.15801 1.15801 1.158
          1.158 1.15799 1.15799 1.15796
        </DataArray>
        <DataArray type="Float32" Name="mobW" NumberOfComponents="1" format="ascii">
          1123.57 1123.57 1123.55 1123.55 1123.57 1123.55 1123.57 1123.55 1123.57 1123.55 1123.57 1123.55
          1123.57 1123.55 1123.57 1123.55 1123.57 1123.55 1123.57 1123.55 1123.57 1123.55 1123.57 1123.55
          1123.57 1123.55 1123.57 1123.55 1123.57 1123.55 1123.57 1123.55 1123.52 1123.52 1123.52 1123.52
          1123.52 1123.52 1123.52 1123.52 1123.52 1123.52 1123.52 1123.52 1123.52 1123.52 1123.52 1123.52
          1123.43 1123.43 1123.43 1123.43 1123.43 1123.43 1123.43 1123.43 1123.43 1123.43 1123.43 1123.43
          1123.43 1123.43 1123.43 1123.43 1123.2 1123.2 1123.2 1123.2 1123.2 1123.2 1123.2 1123.2
          1123.2 1123.2 1123.2 1123.2 1123.2 1123.2 1123.2 1123.2 1122.63 1122.63 1122.63 1122.63
          1122.63 1122.63 1122.63 1122.63 1122.63 1122.63 1122.63 1122.63 1122.64 1122.64 1122.64 1122.64
          1121.37 1121.37 1121.37 1121.37 1121.37 1121.37 1121.37 1121.37 1121.37 1121.37 1121.37 1121.37
          1121.38 1121.38 1121.38 1121.38 1119.15 1119.15 1119.15 1119.14 1119.14 1119.14 1119.13 1119.14
          1119.14 1119.14 1119.15 1119.15 1119.15 1119.16 1119.16 1119.16 1115.54 1115.53 1115.53 1115.52
          1115.51 1115.51 1115.51 1115.51 1115.51 1115.52 1115.53 1115.53 1115.54 1115.55 1115.56 1115.56
          1107.67 1107.67 1107.65 1107.64 1107.63 1107.62 1107.62 1107.62 1107.63 1107.64 1107.65 1107.66
          1107.68 1107.69 1107.7 1107.7 1047.79 1047.78 1047.76 1047.73 1047.72 1047.71 1047.71 1047.71
          1047.72 1047.74 1047.75 1047.77 1047.78 1047.8 1047.82 1047.83 852.582 852.564 852.531 852.503
          852.485 852.476 852.476 852.483 852.494 852.509 852.525 852.542 852.559 852.577 852.603 852.629
          641.788 641.75 641.707 641.677 641.659 641.653 641.654 641.661 641.672 641.687 641.703 641.719
          641.734 641.75 641.767 641.848
        </DataArray>
        <DataArray type="Float32" Name="mobN" NumberOfComponents="1" format="ascii">
          7.97243e-05 7.97206e-05 0.000394158 0.000394148 7.97263e-05 0.000394145 7.97255e-05 0.000394127 7.97211e-05 0.000394149 7.97228e-05 0.000394133
          7.97232e-05 0.00039416 7.97222e-05 0.000394122 7.97253e-05 0.000394102 7.97208e-05 0.000394148 7.97222e-05 0.000394163 7.97212e-05 0.000394159
          7.97209e-05 0.000394142 7.97227e-05 0.000394148 7.97233e-05 0.000394117 7.97195e-05 0.000394115 0.000796925 0.000796903 0.000796892 0.00079686
          0.000796891 0.000796872 0.00079688 0.000796862 0.000796822 0.000796867 0.000796935 0.000796925 0.000796931 0.000796893 0.000796889 0.000796902
          0.00139721 0.00139716 0.00139717 0.00139715 0.00139714 0.00139715 0.0013971 0.00139709 0.00139707 0.0013971 0.00139717 0.00139721
          0.0013972 0.00139722 0.00139717 0.00139714 0.00488185 0.00488187 0.00488183 0.00488186 0.0048819 0.00488169 0.00488175 0.00488181
          0.0048817 0.00488173 0.0048818 0.00488192 0.0048819 0.00488189 0.00488188 0.00488192 0.0608663 0.0608663 0.0608662 0.0608661
          0.060866 0.0608659 0.0608658 0.0608657 0.0608658 0.0608658 0.0608659 0.0608659 0.060866 0.060866 0.0608661 0.0608661
          0.291515 0.291515 0.291515 0.291514 0.291514 0.291514 0.291514 0.291514 0.291513 0.291513 0.291513 0.291513
          0.291513 0.291513 0.291513 0.291513 0.78643 0.786429 0.786429 0.786429 0.786428 0.786428 0.786427 0.786427
          0.786426 0.786426 0.786425 0.786424 0.786424 0.786423 0.786423 0.786423 1.76383 1.76383 1.76383 1.76383
          1.76383 1.76383 1.76383 1.76383 1.76382 1.76382 1.76382 1.76382 1.76382 1.76381 1.76381 1.76381
          5.23222 5.23221 5.23219 5.23217 5.23216 5.23215 5.23214 5.23212 5.2321 5.23209 5.23207 5.23205
          5.23203 5.23201 5.23198 5.23197 53.2862 53.2858 53.2856 53.2856 53.2855 53.2855 53.2854 53.2852
          53.285 53.2849 53.2847 53.2845 53.2843 53.2841 53.2837 53.2832 319.131 319.129 319.129 319.129
          319.129 319.129 319.128 319.127 319.126 319.125 319.124 319.123 319.121 319.12 319.118 319.114
          1254.54 1254.53 1254.53 1254.54 1254.54 1254.54 1254.54 1254.53 1254.53 1254.52 1254.52 1254.51
          1254.51 1254.5 1254.5 1254.47
        </DataArray>
        <DataArray type="Float32" Name="X_liquid^H2O" NumberOfComponents="1" format="ascii">
          0.999978 0.999978 0.999978 0.999978 0.999978 0.999978 0.999978 0.999978 0.999978 0.999978 0.999978 0.999978
          0.999978 0.999978 0.999978 0.999978 0.999978 0.999978 0.999978 0.999978 0.999978 0.999978 0.999978 0.999978
          0.999978 0.999978 0.999978 0.999978 0.999978 0.999978 0.999978 0.999978 0.999978 0.999978 0.999978 0.999978
          0.999978 0.999978 0.999978 0.999978 0.999978 0.999978 0.999978 0.999978 0.999978 0.999978 0.999978 0.999978
          0.999978 0.999978 0.999978 0.999978 0.999978 0.999978 0.999978 0.999978 0.999978 0.999978 0.999978 0.999978
          0.999978 0.999978 0.999978 0.999978 0.999978 0.999978 0.999978 0.999978 0.999978 0.999978 0.999978 0.999978
          0.999978 0.999978 0.999978 0.999978 0.999978 0.999978 0.999978 0.999978 0.999978 0.999978 0.999978 0.999978
          0.999978 0.999978 0.999978 0.999978 0.999978 0.999978 0.999978 0.999978 0.999978 0.999978 0.999978 0.999978
          0.999978 0.999978 0.999978 0.999978 0.999978 0.999978 0.999978 0.999978 0.999978 0.999978 0.999978 0.999978
          0.999978 0.999978 0.999978 0.999978 0.999978 0.999978 0.999978 0.999978 0.999978 0.999978 0.999978 0.999978
          0.999978 0.999978 0.999978 0.999978 0.999978 0.999978 0.999978 0.999978 0.999978 0.999978 0.999978 0.999978
          0.999978 0.999978 0.999978 0.999978 0.999978 0.999978 0.999978 0.999978 0.999978 0.999978 0.999978 0.999978
          0.999978 0.999978 0.999978 0.999978 0.999978 0.999978 0.999978 0.999978 0.999978 0.999978 0.999978 0.999978
          0.999978 0.999978 0.999978 0.999978 0.999978 0.999978 0.999978 0.999978 0.999978 0.999978 0.999978 0.999978
          0.999978 0.999978 0.999978 0.999978 0.999978 0.999978 0.999978 0.999978 0.999978 0.999978 0.999978 0.999978
          0.999978 0.999978 0.999978 0.999978 0.999978 0.999978 0.999978 0.999978 0.999978 0.999978 0.999978 0.999978
          0.999978 0.999978 0.999978 0.999978 0.999978 0.999978 0.999978 0.999978 0.999978 0.999978 0.999978 0.999978
          0.999978 0.999978 0.999978 0.999978
        </DataArray>
        <DataArray type="Float32" Name="X_liquid^Air" NumberOfComponents="1" format="ascii">
          2.18078e-05 2.18078e-05 2.17377e-05 2.17377e-05 2.18078e-05 2.17377e-05 2.18078e-05 2.17377e-05 2.18078e-05 2.17377e-05 2.18078e-05 2.17377e-05
          2.18078e-05 2.17377e-05 2.18078e-05 2.17377e-05 2.18078e-05 2.17377e-05 2.18078e-05 2.17377e-05 2.18078e-05 2.17377e-05 2.18078e-05 2.17377e-05
          2.18078e-05 2.17377e-05 2.18078e-05 2.17377e-05 2.18078e-05 2.17377e-05 2.18078e-05 2.17377e-05 2.1674e-05 2.1674e-05 2.1674e-05 2.1674e-05
          2.1674e-05 2.1674e-05 2.1674e-05 2.1674e-05 2.1674e-05 2.1674e-05 2.1674e-05 2.1674e-05 2.1674e-05 2.1674e-05 2.1674e-05 2.1674e-05
          2.16172e-05 2.16172e-05 2.16172e-05 2.16172e-05 2.16172e-05 2.16172e-05 2.16172e-05 2.16172e-05 2.16172e-05 2.16172e-05 2.16172e-05 2.16172e-05
          2.16172e-05 2.16172e-05 2.16172e-05 2.16172e-05 2.15723e-05 2.15723e-05 2.15723e-05 2.15723e-05 2.15723e-05 2.15723e-05 2.15723e-05 2.15723e-05
          2.15723e-05 2.15723e-05 2.15723e-05 2.15722e-05 2.15722e-05 2.15722e-05 2.15722e-05 2.15722e-05 2.1561e-05 2.1561e-05 2.1561e-05 2.1561e-05
          2.1561e-05 2.1561e-05 2.1561e-05 2.1561e-05 2.1561e-05 2.1561e-05 2.1561e-05 2.15609e-05 2.15609e-05 2.15609e-05 2.15609e-05 2.15609e-05
          2.15721e-05 2.15721e-05 2.15722e-05 2.15722e-05 2.15722e-05 2.15722e-05 2.15722e-05 2.15722e-05 2.15722e-05 2.15722e-05 2.15722e-05 2.15721e-05
          2.15721e-05 2.15721e-05 2.1572e-05 2.1572e-05 2.15927e-05 2.15927e-05 2.15927e-05 2.15928e-05 2.15929e-05 2.15929e-05 2.15929e-05 2.15929e-05
          2.15928e-05 2.15928e-05 2.15927e-05 2.15927e-05 2.15926e-05 2.15925e-05 2.15925e-05 2.15925e-05 2.16235e-05 2.16236e-05 2.16236e-05 2.16238e-05
          2.16239e-05 2.16239e-05 2.16239e-05 2.16239e-05 2.16238e-05 2.16238e-05 2.16237e-05 2.16235e-05 2.16234e-05 2.16233e-05 2.16232e-05 2.16232e-05
          2.16654e-05 2.16654e-05 2.16656e-05 2.16658e-05 2.1666e-05 2.16661e-05 2.16661e-05 2.16661e-05 2.1666e-05 2.16658e-05 2.16657e-05 2.16655e-05
          2.16653e-05 2.16651e-05 2.1665e-05 2.16649e-05 2.17178e-05 2.1718e-05 2.17184e-05 2.17187e-05 2.1719e-05 2.17191e-05 2.17191e-05 2.17191e-05
          2.17189e-05 2.17187e-05 2.17185e-05 2.17182e-05 2.1718e-05 2.17177e-05 2.17174e-05 2.17173e-05 2.17797e-05 2.178e-05 2.17807e-05 2.17813e-05
          2.17816e-05 2.17818e-05 2.17818e-05 2.17817e-05 2.17815e-05 2.17812e-05 2.17809e-05 2.17805e-05 2.17802e-05 2.17799e-05 2.17794e-05 2.17789e-05
          2.18488e-05 2.18498e-05 2.1851e-05 2.18517e-05 2.18522e-05 2.18524e-05 2.18524e-05 2.18522e-05 2.18519e-05 2.18515e-05 2.18511e-05 2.18507e-05
          2.18503e-05 2.18499e-05 2.18495e-05 2.18474e-05
        </DataArray>
        <DataArray type="Float32" Name="X_gas^H2O" NumberOfComponents="1" format="ascii">
          0.0197228 0.0197228 0.0197847 0.0197847 0.0197228 0.0197847 0.0197228 0.0197847 0.0197228 0.0197847 0.0197228 0.0197847
          0.0197228 0.0197847 0.0197228 0.0197847 0.0197228 0.0197847 0.0197228 0.0197847 0.0197228 0.0197847 0.0197228 0.0197847
          0.0197228 0.0197847 0.0197228 0.0197847 0.0197228 0.0197847 0.0197228 0.0197847 0.0198406 0.0198406 0.0198406 0.0198406
          0.0198406 0.0198406 0.0198406 0.0198406 0.0198406 0.0198406 0.0198406 0.0198407 0.0198407 0.0198407 0.0198407 0.0198407
          0.0198887 0.0198887 0.0198887 0.0198887 0.0198887 0.0198887 0.0198887 0.0198887 0.0198887 0.0198887 0.0198887 0.0198887
          0.0198887 0.0198887 0.0198887 0.0198887 0.0199219 0.0199219 0.0199219 0.0199219 0.0199219 0.0199219 0.0199219 0.0199219
          0.0199219 0.0199219 0.0199219 0.0199219 0.019922 0.019922 0.019922 0.019922 0.0199166 0.0199166 0.0199166 0.0199165
          0.0199165 0.0199165 0.0199165 0.0199165 0.0199165 0.0199166 0.0199166 0.0199167 0.0199167 0.0199168 0.0199168 0.0199168
          0.0198778 0.0198777 0.0198777 0.0198776 0.0198775 0.0198775 0.0198774 0.0198775 0.0198775 0.0198776 0.0198777 0.0198778
          0.0198779 0.019878 0.0198781 0.0198781 0.0198121 0.019812 0.0198118 0.0198117 0.0198115 0.0198114 0.0198114 0.0198114
          0.0198115 0.0198117 0.0198119 0.0198121 0.0198123 0.0198125 0.0198126 0.0198127 0.0197148 0.0197147 0.0197143 0.019714
          0.0197137 0.0197135 0.0197134 0.0197135 0.0197137 0.019714 0.0197143 0.0197147 0.019715 0.0197154 0.0197156 0.0197157
          0.0195841 0.0195839 0.0195833 0.0195826 0.0195821 0.0195818 0.0195818 0.0195819 0.0195822 0.0195826 0.0195831 0.0195837
          0.0195843 0.0195848 0.0195853 0.0195855 0.0194221 0.0194216 0.0194205 0.0194194 0.0194186 0.0194182 0.0194182 0.0194184
          0.0194189 0.0194195 0.0194202 0.019421 0.0194217 0.0194226 0.0194235 0.0194239 0.019234 0.0192329 0.0192309 0.0192292
          0.0192281 0.0192276 0.0192276 0.0192279 0.0192286 0.0192294 0.0192304 0.0192313 0.0192323 0.0192334 0.0192349 0.0192363
          0.0190269 0.0190237 0.0190204 0.019018 0.0190166 0.0190161 0.0190162 0.0190167 0.0190176 0.0190187 0.0190199 0.0190211
          0.0190223 0.0190235 0.0190248 0.0190309
        </DataArray>
        <DataArray type="Float32" Name="X_gas^Air" NumberOfComponents="1" format="ascii">
          0.980277 0.980277 0.980215 0.980215 0.980277 0.980215 0.980277 0.980215 0.980277 0.980215 0.980277 0.980215
          0.980277 0.980215 0.980277 0.980215 0.980277 0.980215 0.980277 0.980215 0.980277 0.980215 0.980277 0.980215
          0.980277 0.980215 0.980277 0.980215 0.980277 0.980215 0.980277 0.980215 0.980159 0.980159 0.980159 0.980159
          0.980159 0.980159 0.980159 0.980159 0.980159 0.980159 0.980159 0.980159 0.980159 0.980159 0.980159 0.980159
          0.980111 0.980111 0.980111 0.980111 0.980111 0.980111 0.980111 0.980111 0.980111 0.980111 0.980111 0.980111
          0.980111 0.980111 0.980111 0.980111 0.980078 0.980078 0.980078 0.980078 0.980078 0.980078 0.980078 0.980078
          0.980078 0.980078 0.980078 0.980078 0.980078 0.980078 0.980078 0.980078 0.980083 0.980083 0.980083 0.980083
          0.980083 0.980084 0.980084 0.980084 0.980083 0.980083 0.980083 0.980083 0.980083 0.980083 0.980083 0.980083
          0.980122 0.980122 0.980122 0.980122 0.980123 0.980123 0.980123 0.980123 0.980122 0.980122 0.980122 0.980122
          0.980122 0.980122 0.980122 0.980122 0.980188 0.980188 0.980188 0.980188 0.980188 0.980189 0.980189 0.980189
          0.980188 0.980188 0.980188 0.980188 0.980188 0.980188 0.980187 0.980187 0.980285 0.980285 0.980286 0.980286
          0.980286 0.980287 0.980287 0.980286 0.980286 0.980286 0.980286 0.980285 0.980285 0.980285 0.980284 0.980284
          0.980416 0.980416 0.980417 0.980417 0.980418 0.980418 0.980418 0.980418 0.980418 0.980417 0.980417 0.980416
          0.980416 0.980415 0.980415 0.980415 0.980578 0.980578 0.980579 0.980581 0.980581 0.980582 0.980582 0.980582
          0.980581 0.980581 0.98058 0.980579 0.980578 0.980577 0.980577 0.980576 0.980766 0.980767 0.980769 0.980771
          0.980772 0.980772 0.980772 0.980772 0.980771 0.980771 0.98077 0.980769 0.980768 0.980767 0.980765 0.980764
          0.980973 0.980976 0.98098 0.980982 0.980983 0.980984 0.980984 0.980983 0.980982 0.980981 0.98098 0.980979
          0.980978 0.980977 0.980975 0.980969
        </DataArray>
        <DataArray type="Float32" Name="x_liquid^H2O" NumberOfComponents="1" format="ascii">
          0.999986 0.999986 0.999986 0.999986 0.999986 0.999986 0.999986 0.999986 0.999986 0.999986 0.999986 0.999986
          0.999986 0.999986 0.999986 0.999986 0.999986 0.999986 0.999986 0.999986 0.999986 0.999986 0.999986 0.999986
          0.999986 0.999986 0.999986 0.999986 0.999986 0.999986 0.999986 0.999986 0.999987 0.999987 0.999987 0.999987
          0.999987 0.999987 0.999987 0.999987 0.999987 0.999987 0.999987 0.999987 0.999987 0.999987 0.999987 0.999987
          0.999987 0.999987 0.999987 0.999987 0.999987 0.999987 0.999987 0.999987 0.999987 0.999987 0.999987 0.999987
          0.999987 0.999987 0.999987 0.999987 0.999987 0.999987 0.999987 0.999987 0.999987 0.999987 0.999987 0.999987
          0.999987 0.999987 0.999987 0.999987 0.999987 0.999987 0.999987 0.999987 0.999987 0.999987 0.999987 0.999987
          0.999987 0.999987 0.999987 0.999987 0.999987 0.999987 0.999987 0.999987 0.999987 0.999987 0.999987 0.999987
          0.999987 0.999987 0.999987 0.999987 0.999987 0.999987 0.999987 0.999987 0.999987 0.999987 0.999987 0.999987
          0.999987 0.999987 0.999987 0.999987 0.999987 0.999987 0.999987 0.999987 0.999987 0.999987 0.999987 0.999987
          0.999987 0.999987 0.999987 0.999987 0.999987 0.999987 0.999987 0.999987 0.999987 0.999987 0.999987 0.999987
          0.999987 0.999987 0.999987 0.999987 0.999987 0.999987 0.999987 0.999987 0.999987 0.999987 0.999987 0.999987
          0.999987 0.999987 0.999987 0.999987 0.999987 0.999987 0.999987 0.999987 0.999987 0.999987 0.999987 0.999987
          0.999987 0.999987 0.999987 0.999987 0.999986 0.999986 0.999986 0.999986 0.999986 0.999986 0.999986 0.999986
          0.999986 0.999986 0.999986 0.999986 0.999986 0.999986 0.999986 0.999986 0.999986 0.999986 0.999986 0.999986
          0.999986 0.999986 0.999986 0.999986 0.999986 0.999986 0.999986 0.999986 0.999986 0.999986 0.999986 0.999986
          0.999986 0.999986 0.999986 0.999986 0.999986 0.999986 0.999986 0.999986 0.999986 0.999986 0.999986 0.999986
          0.999986 0.999986 0.999986 0.999986
        </DataArray>
        <DataArray type="Float32" Name="x_liquid^Air" NumberOfComponents="1" format="ascii">