<?xml version="1.0"?>
<VTKFile type="UnstructuredGrid" version="0.1" byte_order="LittleEndian">
  <UnstructuredGrid>
    <Piece NumberOfCells="180" NumberOfPoints="208">
      <PointData Scalars="Sn" Vectors="velocityW">
        <DataArray type="Float32" Name="Sn" NumberOfComponents="1" format="ascii">
          0.0100515 0.0100515 0.0101094 0.0101094 0.0100515 0.0101094 0.0100515 0.0101094 0.0100515 0.0101094 0.0100515 0.0101094
          0.0100515 0.0101094 0.0100515 0.0101094 0.0100515 0.0101094 0.0100515 0.0101094 0.0100515 0.0101094 0.0100515 0.0101094
          0.0100515 0.0101094 0.0100515 0.0101094 0.0100515 0.0101094 0.0100515 0.0101094 0.0101526 0.0101526 0.0101526 0.0101526
          0.0101526 0.0101526 0.0101526 0.0101526 0.0101526 0.0101526 0.0101526 0.0101526 0.0101526 0.0101526 0.0101526 0.0101526
          0.0102007 0.0102007 0.0102007 0.0102007 0.0102007 0.0102007 0.0102007 0.0102007 0.0102007 0.0102007 0.0102007 0.0102007
          0.0102007 0.0102007 0.0102007 0.0102007 0.0103922 0.0103922 0.0103922 0.0103922 0.0103922 0.0103922 0.0103922 0.0103922
          0.0103922 0.0103922 0.0103922 0.0103922 0.0103922 0.0103922 0.0103922 0.0103922 0.0113453 0.0113453 0.0113453 0.0113453
          0.0113453 0.0113452 0.0113452 0.0113452 0.0113452 0.0113452 0.0113452 0.0113452 0.0113452 0.0113452 0.0113452 0.0113452
          0.0127476 0.0127476 0.0127476 0.0127476 0.0127475 0.0127475 0.0127475 0.0127475 0.0127475 0.0127475 0.0127475 0.0127475
          0.0127475 0.0127475 0.0127475 0.0127475 0.014373 0.014373 0.014373 0.014373 0.014373 0.014373 0.014373 0.0143729
          0.0143729 0.0143729 0.0143729 0.0143729 0.0143729 0.0143729 0.0143729 0.0143729 0.0164612 0.0164612 0.0164612 0.0164612
          0.0164612 0.0164612 0.0164612 0.0164612 0.0164612 0.0164612 0.0164612 0.0164612 0.0164612 0.0164612 0.0164612 0.0164611
          0.0226457 0.0226457 0.0226456 0.0226456 0.0226456 0.0226456 0.0226456 0.0226456 0.0226455 0.0226455 0.0226455 0.0226455
          0.0226455 0.0226455 0.0226454 0.0226454 0.0473786 0.0473785 0.0473784 0.0473784 0.0473783 0.0473783 0.0473782 0.0473782
          0.0473782 0.0473781 0.0473781 0.0473781 0.0473781 0.047378 0.0473779 0.0473778 0.0961579 0.0961576 0.0961574 0.0961573
          0.0961573 0.0961572 0.0961572 0.0961571 0.0961571 0.096157 0.096157 0.0961569 0.0961569 0.0961568 0.0961567 0.0961563
          0.172869 0.172868 0.172868 0.172868 0.172868 0.172868 0.172868 0.172868 0.172868 0.172868 0.172867 0.172867
          0.172867 0.172867 0.172867 0.172866
        </DataArray>
        <DataArray type="Float32" Name="Sw" NumberOfComponents="1" format="ascii">
          0.989948 0.989948 0.989891 0.989891 0.989948 0.989891 0.989948 0.989891 0.989948 0.989891 0.989948 0.989891
          0.989948 0.989891 0.989948 0.989891 0.989948 0.989891 0.989948 0.989891 0.989948 0.989891 0.989948 0.989891
          0.989948 0.989891 0.989948 0.989891 0.989948 0.989891 0.989948 0.989891 0.989847 0.989847 0.989847 0.989847
          0.989847 0.989847 0.989847 0.989847 0.989847 0.989847 0.989847 0.989847 0.989847 0.989847 0.989847 0.989847
          0.989799 0.989799 0.989799 0.989799 0.989799 0.989799 0.989799 0.989799 0.989799 0.989799 0.989799 0.989799
          0.989799 0.989799 0.989799 0.989799 0.989608 0.989608 0.989608 0.989608 0.989608 0.989608 0.989608 0.989608
          0.989608 0.989608 0.989608 0.989608 0.989608 0.989608 0.989608 0.989608 0.988655 0.988655 0.988655 0.988655
          0.988655 0.988655 0.988655 0.988655 0.988655 0.988655 0.988655 0.988655 0.988655 0.988655 0.988655 0.988655
          0.987252 0.987252 0.987252 0.987252 0.987252 0.987252 0.987252 0.987252 0.987252 0.987252 0.987252 0.987252
          0.987252 0.987252 0.987252 0.987252 0.985627 0.985627 0.985627 0.985627 0.985627 0.985627 0.985627 0.985627
          0.985627 0.985627 0.985627 0.985627 0.985627 0.985627 0.985627 0.985627 0.983539 0.983539 0.983539 0.983539
          0.983539 0.983539 0.983539 0.983539 0.983539 0.983539 0.983539 0.983539 0.983539 0.983539 0.983539 0.983539
          0.977354 0.977354 0.977354 0.977354 0.977354 0.977354 0.977354 0.977354 0.977354 0.977354 0.977354 0.977355
          0.977355 0.977355 0.977355 0.977355 0.952621 0.952622 0.952622 0.952622 0.952622 0.952622 0.952622 0.952622
          0.952622 0.952622 0.952622 0.952622 0.952622 0.952622 0.952622 0.952622 0.903842 0.903842 0.903843 0.903843
          0.903843 0.903843 0.903843 0.903843 0.903843 0.903843 0.903843 0.903843 0.903843 0.903843 0.903843 0.903844
          0.827131 0.827132 0.827132 0.827132 0.827132 0.827132 0.827132 0.827132 0.827132 0.827132 0.827133 0.827133
          0.827133 0.827133 0.827133 0.827134
        </DataArray>
        <DataArray type="Float32" Name="pn" NumberOfComponents="1" format="ascii">
          101149 101149 100833 100833 101149 100833 101149 100833 101149 100833 101149 100833
          101149 100833 101149 100833 101149 100833 101149 100833 101149 100833 101149 100833
          101149 100833 101149 100833 101149 100833 101149 100833 100544 100544 100544 100544
          100544 100544 100544 100544 100544 100544 100544 100544 100544 100544 100544 100544
          100283 100283 100283 100283 100283 100283 100283 100283 100283 100283 100283 100283
          100283 100283 100283 100283 100072 100072 100072 100072 100072 100072 100072 100072
          100072 100072 100072 100072 100072 100072 100072 100072 100006 100006 100006 100006
          100006 100006 100006 100006 100006 100006 100006 100006 100006 100006 100006 100006
          100002 100002 100002 100002 100002 100002 100002 100002 100002 100002 100002 100002
          100002 100002 100002 100002 100001 100001 100001 100001 100001 100001 100001 100001
          100001 100001 100001 100001 100001 100001 100001 100001 100001 100001 100001 100001
          100001 100001 100001 100001 100001 100001 100001 100001 100001 100001 100001 100001
          100000 100000 100000 100000 100000 100000 100000 100000 100000 100000 100000 100000
          100000 100000 100000 100000 100000 100000 100000 100000 100000 100000 100000 100000
          100000 100000 100000 100000 100000 100000 100000 100000 100000 100000 100000 100000
          100000 100000 100000 100000 100000 100000 100000 100000 100000 100000 100000 100000
          100000 100000 100000 100000 100000 100000 100000 100000 100000 100000 100000 100000
          100000 100000 100000 100000
        </DataArray>
        <DataArray type="Float32" Name="pw" NumberOfComponents="1" format="ascii">
          101140 101140 100813 100813 101140 100813 101140 100813 101140 100813 101140 100813
          101140 100813 101140 100813 101140 100813 101140 100813 101140 100813 101140 100813
          101140 100813 101140 100813 101140 100813 101140 100813 100517 100517 100517 100517
          100517 100517 100517 100517 100517 100517 100517 100517 100517 100517 100517 100517
          100247 100247 100247 100247 100247 100247 100247 100247 100247 100247 100247 100247
          100247 100247 100247 100247 100002 100002 100002 100002 100002 100002 100002 100002
          100002 100002 100002 100002 100002 100002 100002 100002 99779.3 99779.3 99779.3 99779.3
          99779.3 99779.3 99779.3 99779.3 99779.3 99779.3 99779.3 99779.3 99779.3 99779.3 99779.3 99779.3
          99576.7 99576.7 99576.7 99576.7 99576.7 99576.7 99576.7 99576.7 99576.7 99576.7 99576.7 99576.7
          99576.7 99576.7 99576.7 99576.7 99392.5 99392.5 99392.5 99392.5 99392.5 99392.5 99392.5 99392.5
          99392.5 99392.5 99392.5 99392.5 99392.5 99392.5 99392.5 99392.5 99225.1 99225.1 99225.1 99225.1
          99225.1 99225.1 99225.1 99225.1 99225.1 99225.1 99225.1 99225.1 99225.1 99225.1 99225.1 99225.1
          99072.8 99072.8 99072.8 99072.8 99072.8 99072.8 99072.8 99072.8 99072.8 99072.8 99072.8 99072.8
          99072.8 99072.8 99072.8 99072.8 98934.4 98934.4 98934.4 98934.4 98934.4 98934.4 98934.4 98934.4
          98934.4 98934.4 98934.4 98934.4 98934.4 98934.4 98934.4 98934.4 98808.6 98808.6 98808.6 98808.6
          98808.6 98808.6 98808.6 98808.6 98808.6 98808.6 98808.6 98808.6 98808.6 98808.6 98808.6 98808.6
          98694.2 98694.2 98694.2 98694.2 98694.2 98694.2 98694.2 98694.2 98694.2 98694.2 98694.2 98694.2
          98694.2 98694.2 98694.2 98694.2
        </DataArray>
        <DataArray type="Float32" Name="pc" NumberOfComponents="1" format="ascii">
          9.37424 9.37434 19.8369 19.8372 9.37419 19.837 9.37421 19.8367 9.37439 19.8368 9.37424 19.8369
          9.37401 19.8364 9.37421 19.8366 9.37415 19.837 9.37428 19.8368 9.37417 19.8362 9.37424 19.8365
          9.37402 19.8368 9.37407 19.837 9.3741 19.8369 9.37416 19.8364 27.6016 27.601 27.6011 27.6013
          27.6012 27.601 27.6013 27.6006 27.6008 27.6005 27.6009 27.6007 27.6005 27.6006 27.6013 27.6008
          36.2131 36.2135 36.2128 36.2127 36.2131 36.2121 36.2125 36.212 36.2119 36.2113 36.2119 36.2114
          36.211 36.2111 36.2116 36.2112 69.9762 69.9757 69.9749 69.975 69.9747 69.9739 69.9728 69.9725
          69.9721 69.9717 69.9712 69.9709 69.9703 69.9703 69.9696 69.9703 226.893 226.893 226.893 226.893
          226.892 226.892 226.891 226.891 226.89 226.889 226.889 226.888 226.888 226.888 226.888 226.887
          425.081 425.081 425.081 425.08 425.08 425.08 425.079 425.079 425.079 425.078 425.078 425.078
          425.077 425.077 425.077 425.077 608.406 608.406 608.406 608.406 608.406 608.405 608.405 608.405
          608.405 608.404 608.404 608.404 608.404 608.403 608.403 608.403 775.537 775.536 775.536 775.536
          775.536 775.535 775.535 775.535 775.535 775.535 775.535 775.534 775.534 775.534 775.534 775.533
          927.591 927.591 927.59 927.59 927.59 927.59 927.59 927.589 927.589 927.589 927.589 927.589
          927.589 927.589 927.588 927.588 1065.84 1065.84 1065.84 1065.84 1065.84 1065.84 1065.84 1065.84
          1065.84 1065.84 1065.84 1065.84 1065.84 1065.84 1065.83 1065.83 1191.53 1191.53 1191.53 1191.53
          1191.53 1191.52 1191.52 1191.52 1191.52 1191.52 1191.52 1191.52 1191.52 1191.52 1191.52 1191.52
          1305.8 1305.8 1305.8 1305.8 1305.8 1305.8 1305.8 1305.8 1305.8 1305.8 1305.8 1305.8
          1305.8 1305.8 1305.8 1305.8
        </DataArray>
        <DataArray type="Float32" Name="rhoW" NumberOfComponents="1" format="ascii">
          997.056 997.056 997.057 997.057 997.056 997.057 997.056 997.057 997.056 997.057 997.056 997.057
          997.056 997.057 997.056 997.057 997.056 997.057 997.056 997.057 997.056 997.057 997.056 997.057
          997.056 997.057 997.056 997.057 997.056 997.057 997.056 997.057 997.058 997.058 997.058 997.058
          997.058 997.058 997.058 997.058 997.058 997.058 997.058 997.058 997.058 997.058 997.058 997.058
          997.061 997.061 997.061 997.061 997.061 997.061 997.061 997.061 997.061 997.061 997.061 997.061
          997.061 997.061 997.061 997.061 997.068 997.068 997.068 997.068 997.068 997.068 997.068 997.068
          997.068 997.068 997.068 997.068 997.068 997.068 997.068 997.068 997.083 997.083 997.083 997.083
          997.083 997.083 997.083 997.083 997.083 997.083 997.083 997.083 997.083 997.083 997.083 997.083
          997.109 997.109 997.109 997.109 997.109 997.109 997.109 997.109 997.109 997.109 997.109 997.109
          997.109 997.109 997.109 997.109 997.152 997.152 997.152 997.152 997.152 997.152 997.152 997.152
          997.152 997.152 997.152 997.152 997.152 997.152 997.152 997.152 997.211 997.211 997.212 997.212
          997.212 997.212 997.212 997.212 997.212 997.212 997.212 997.212 997.212 997.212 997.213 997.213
          997.288 997.288 997.288 997.288 997.288 997.289 997.289 997.289 997.289 997.289 997.289 997.29
          997.29 997.29 997.29 997.29 997.378 997.378 997.378 997.378 997.379 997.379 997.379 997.379
          997.38 997.38 997.38 997.38 997.38 997.381 997.381 997.381 997.476 997.476 997.476 997.477
          997.477 997.478 997.478 997.478 997.479 997.479 997.479 997.48 997.48 997.48 997.48 997.48
          997.578 997.578 997.579 997.579 997.58 997.58 997.581 997.581 997.582 997.582 997.583 997.583
          997.583 997.584 997.584 997.584
        </DataArray>
        <DataArray type="Float32" Name="rhoN" NumberOfComponents="1" format="ascii">
          1.1677 1.1677 1.16402 1.16402 1.1677 1.16402 1.1677 1.16402 1.1677 1.16402 1.1677 1.16402
          1.1677 1.16402 1.1677 1.16402 1.1677 1.16402 1.1677 1.16402 1.1677 1.16402 1.1677 1.16402
          1.1677 1.16402 1.1677 1.16402 1.1677 1.16402 1.1677 1.16402 1.16066 1.16066 1.16066 1.16066
          1.16066 1.16066 1.16066 1.16066 1.16066 1.16066 1.16066 1.16066 1.16066 1.16066 1.16066 1.16066
          1.15767 1.15767 1.15767 1.15767 1.15767 1.15767 1.15767 1.15767 1.15767 1.15767 1.15767 1.15767
          1.15767 1.15767 1.15767 1.15767 1.15534 1.15534 1.15534 1.15534 1.15534 1.15534 1.15534 1.15534
          1.15534 1.15534 1.15534 1.15534 1.15534 1.15534 1.15534 1.15534 1.15484 1.15484 1.15484 1.15484
          1.15484 1.15484 1.15484 1.15484 1.15484 1.15484 1.15484 1.15484 1.15484 1.15484 1.15484 1.15484
          1.15528 1.15528 1.15528 1.15528 1.15528 1.15528 1.15528 1.15529 1.15529 1.15529 1.15529 1.15529
          1.15529 1.15529 1.15529 1.15529 1.15606 1.15606 1.15606 1.15606 1.15606 1.15606 1.15606 1.15606
          1.15607 1.15607 1.15607 1.15607 1.15607 1.15607 1.15607 1.15607 1.15717 1.15718 1.15718 1.15718
          1.15718 1.15718 1.15718 1.15719 1.15719 1.15719 1.15719 1.15719 1.15719 1.15719 1.1572 1.1572
          1.15862 1.15862 1.15862 1.15862 1.15863 1.15863 1.15863 1.15864 1.15864 1.15864 1.15864 1.15865
          1.15865 1.15865 1.15865 1.15865 1.16033 1.16033 1.16033 1.16034 1.16035 1.16035 1.16036 1.16036
          1.16037 1.16037 1.16037 1.16038 1.16038 1.16038 1.16039 1.16039 1.16223 1.16223 1.16224 1.16225
          1.16226 1.16226 1.16227 1.16228 1.16229 1.16229 1.1623 1.1623 1.16231 1.16231 1.16232 1.16232
          1.16423 1.16424 1.16425 1.16426 1.16428 1.16429 1.1643 1.16431 1.16432 1.16433 1.16433 1.16434
          1.16435 1.16436 1.16436 1.16437
        </DataArray>
        <DataArray type="Float32" Name="mobW" NumberOfComponents="1" format="ascii">
          1123.57 1123.57 1123.52 1123.52 1123.57 1123.52 1123.57 1123.52 1123.57 1123.52 1123.57 1123.52
          1123.57 1123.52 1123.57 1123.52 1123.57 1123.52 1123.57 1123.52 1123.57 1123.52 1123.57 1123.52
          1123.57 1123.52 1123.57 1123.52 1123.57 1123.52 1123.57 1123.52 1123.41 1123.41 1123.41 1123.41
          1123.41 1123.41 1123.41 1123.41 1123.41 1123.41 1123.41 1123.41 1123.41 1123.41 1123.41 1123.41
          1123.1 1123.1 1123.1 1123.1 1123.1 1123.1 1123.1 1123.1 1123.1 1123.1 1123.1 1123.1
          1123.1 1123.1 1123.1 1123.1 1122.36 1122.36 1122.36 1122.36 1122.36 1122.36 1122.36 1122.36
          1122.36 1122.36 1122.36 1122.36 1122.36 1122.36 1122.36 1122.36 1120.74 1120.74 1120.74 1120.74
          1120.74 1120.74 1120.73 1120.73 1120.73 1120.73 1120.73 1120.73 1120.73 1120.73 1120.73 1120.73
          1117.6 1117.6 1117.6 1117.6 1117.6 1117.59 1117.59 1117.59 1117.59 1117.58 1117.58 1117.58
          1117.58 1117.58 1117.58 1117.58 1112.44 1112.44 1112.44 1112.43 1112.43 1112.42 1112.42 1112.41
          1112.41 1112.4 1112.4 1112.39 1112.39 1112.39 1112.38 1112.38 1104.67 1104.67 1104.66 1104.65
          1104.64 1104.63 1104.62 1104.61 1104.6 1104.59 1104.58 1104.57 1104.57 1104.56 1104.56 1104.56
          1088.37 1088.36 1088.35 1088.34 1088.32 1088.3 1088.28 1088.26 1088.25 1088.23 1088.22 1088.21
          1088.19 1088.19 1088.18 1088.18 1004.71 1004.71 1004.69 1004.66 1004.64 1004.61 1004.58 1004.56
          1004.53 1004.51 1004.49 1004.47 1004.46 1004.44 1004.43 1004.43 782.669 782.657 782.631 782.6
          782.567 782.536 782.506 782.477 782.451 782.426 782.402 782.38 782.36 782.342 782.329 782.324
          579.145 579.124 579.091 579.057 579.023 578.99 578.959 578.93 578.903 578.877 578.852 578.829
          578.808 578.789 578.772 578.764
        </DataArray>
        <DataArray type="Float32" Name="mobN" NumberOfComponents="1" format="ascii">
          8.46559e-05 8.46578e-05 0.000406335 0.000406348 8.46551e-05 0.000406339 8.46554e-05 0.000406324 8.46589e-05 0.00040633 8.4656e-05 0.000406332
          8.46517e-05 0.000406312 8.46553e-05 0.000406322 8.46543e-05 0.00040634 8.46567e-05 0.000406328 8.46547e-05 0.000406303 8.46559e-05 0.000406318
          8.46519e-05 0.00040633 8.46528e-05 0.000406338 8.46533e-05 0.000406333 8.46545e-05 0.000406313 0.000812873 0.000812841 0.000812844 0.000812856
          0.000812849 0.000812837 0.000812859 0.000812815 0.000812826 0.000812807 0.000812833 0.00081282 0.000812809 0.000812812 0.000812857 0.000812823
          0.00143961 0.00143965 0.00143958 0.00143958 0.00143961 0.00143953 0.00143956 0.00143952 0.00143951 0.00143946 0.00143951 0.00143947
          0.00143943 0.00143944 0.00143948 0.00143945 0.00581149 0.0058114 0.00581126 0.00581128 0.00581122 0.00581108 0.00581088 0.00581084
          0.00581077 0.00581068 0.0058106 0.00581054 0.00581045 0.00581044 0.00581032 0.00581043 0.0757578 0.0757578 0.0757577 0.0757574
          0.075757 0.0757566 0.0757562 0.0757558 0.0757554 0.0757549 0.0757546 0.0757543 0.075754 0.0757537 0.0757536 0.0757535
          0.335392 0.335392 0.335391 0.335391 0.33539 0.33539 0.335389 0.335388 0.335388 0.335387 0.335386 0.335386
          0.335385 0.335385 0.335384 0.335384 0.883209 0.883209 0.883208 0.883207 0.883206 0.883205 0.883205 0.883204
          0.883203 0.883202 0.883202 0.883201 0.8832 0.883199 0.883198 0.883198 1.99217 1.99216 1.99216 1.99216
          1.99216 1.99216 1.99216 1.99216 1.99216 1.99216 1.99216 1.99216 1.99216 1.99216 1.99215 1.99215
          8.06818 8.06812 8.06808 8.06806 8.06805 8.06804 8.06803 8.06801 8.068 8.06799 8.06798 8.06796
          8.06795 8.06793 8.06788 8.06782 76.9567 76.9562 76.9559 76.9559 76.9559 76.9559 76.9559 76.9559
          76.9559 76.9559 76.9559 76.9558 76.9558 76.9557 76.9554 76.9548 435.833 435.829 435.829 435.83
          435.831 435.831 435.832 435.833 435.833 435.834 435.835 435.835 435.835 435.835 435.834 435.83
          1626.2 1626.18 1626.19 1626.2 1626.2 1626.21 1626.21 1626.22 1626.22 1626.23 1626.23 1626.24
          1626.24 1626.24 1626.25 1626.22
        </DataArray>
        <DataArray type="Float32" Name="X_liquid^H2O" NumberOfComponents="1" format="ascii">
          0.999978 0.999978 0.999978 0.999978 0.999978 0.999978 0.999978 0.999978 0.999978 0.999978 0.999978 0.999978
          0.999978 0.999978 0.999978 0.999978 0.999978 0.999978 0.999978 0.999978 0.999978 0.999978 0.999978 0.999978
          0.999978 0.999978 0.999978 0.999978 0.999978 0.999978 0.999978 0.999978 0.999978 0.999978 0.999978 0.999978
          0.999978 0.999978 0.999978 0.999978 0.999978 0.999978 0.999978 0.999978 0.999978 0.999978 0.999978 0.999978
          0.999978 0.999978 0.999978 0.999978 0.999978 0.999978 0.999978 0.999978 0.999978 0.999978 0.999978 0.999978
          0.999978 0.999978 0.999978 0.999978 0.999978 0.999978 0.999978 0.999978 0.999978 0.999978 0.999978 0.999978
          0.999978 0.999978 0.999978 0.999978 0.999978 0.999978 0.999978 0.999978 0.999978 0.999978 0.999978 0.999978
          0.999978 0.999978 0.999978 0.999978 0.999978 0.999978 0.999978 0.999978 0.999978 0.999978 0.999978 0.999978
          0.999978 0.999978 0.999978 0.999978 0.999978 0.999978 0.999978 0.999978 0.999978 0.999978 0.999978 0.999978
          0.999978 0.999978 0.999978 0.999978 0.999978 0.999978 0.999978 0.999978 0.999978 0.999978 0.999978 0.999978
          0.999978 0.999978 0.999978 0.999978 0.999978 0.999978 0.999978 0.999978 0.999978 0.999978 0.999978 0.999978
          0.999978 0.999978 0.999978 0.999978 0.999978 0.999978 0.999978 0.999978 0.999978 0.999978 0.999978 0.999978
          0.999978 0.999978 0.999978 0.999978 0.999978 0.999978 0.999978 0.999978 0.999978 0.999978 0.999978 0.999978
          0.999978 0.999978 0.999978 0.999978 0.999978 0.999978 0.999978 0.999978 0.999978 0.999978 0.999978 0.999978
          0.999978 0.999978 0.999978 0.999978 0.999978 0.999978 0.999978 0.999978 0.999978 0.999978 0.999978 0.999978
          0.999978 0.999978 0.999978 0.999978 0.999978 0.999978 0.999978 0.999978 0.999978 0.999978 0.999978 0.999978
          0.999978 0.999978 0.999978 0.999978 0.999978 0.999978 0.999978 0.999978 0.999978 0.999978 0.999978 0.999978
          0.999978 0.999978 0.999978 0.999978
        </DataArray>
        <DataArray type="Float32" Name="X_liquid^Air" NumberOfComponents="1" format="ascii">
          2.18025e-05 2.18025e-05 2.17329e-05 2.17329e-05 2.18025e-05 2.17329e-05 2.18025e-05 2.17329e-05 2.18025e-05 2.17329e-05 2.18025e-05 2.17329e-05
          2.18025e-05 2.17329e-05 2.18025e-05 2.17329e-05 2.18025e-05 2.17329e-05 2.18025e-05 2.17329e-05 2.18025e-05 2.17329e-05 2.18025e-05 2.17329e-05
          2.18025e-05 2.17329e-05 2.18025e-05 2.17329e-05 2.18025e-05 2.17329e-05 2.18025e-05 2.17329e-05 2.16703e-05 2.16703e-05 2.16703e-05 2.16703e-05
          2.16703e-05 2.16703e-05 2.16703e-05 2.16703e-05 2.16703e-05 2.16703e-05 2.16703e-05 2.16703e-05 2.16703e-05 2.16703e-05 2.16703e-05 2.16703e-05
          2.16168e-05 2.16168e-05 2.16168e-05 2.16168e-05 2.16168e-05 2.16168e-05 2.16168e-05 2.16168e-05 2.16168e-05 2.16168e-05 2.16168e-05 2.16168e-05
          2.16168e-05 2.16168e-05 2.16168e-05 2.16168e-05 2.15805e-05 2.15805e-05 2.15805e-05 2.15805e-05 2.15805e-05 2.15805e-05 2.15805e-05 2.15805e-05
          2.15805e-05 2.15805e-05 2.15805e-05 2.15805e-05 2.15805e-05 2.15805e-05 2.15805e-05 2.15805e-05 2.15879e-05 2.15879e-05 2.15879e-05 2.15879e-05
          2.15879e-05 2.15879e-05 2.15879e-05 2.1588e-05 2.1588e-05 2.1588e-05 2.1588e-05 2.1588e-05 2.1588e-05 2.1588e-05 2.1588e-05 2.1588e-05
          2.16268e-05 2.16268e-05 2.16268e-05 2.16268e-05 2.16269e-05 2.16269e-05 2.16269e-05 2.1627e-05 2.1627e-05 2.1627e-05 2.16271e-05 2.16271e-05
          2.16271e-05 2.16272e-05 2.16272e-05 2.16272e-05 2.16904e-05 2.16904e-05 2.16904e-05 2.16905e-05 2.16906e-05 2.16907e-05 2.16908e-05 2.16909e-05
          2.16909e-05 2.1691e-05 2.16911e-05 2.16911e-05 2.16912e-05 2.16912e-05 2.16913e-05 2.16913e-05 2.17819e-05 2.17819e-05 2.1782e-05 2.17822e-05
          2.17823e-05 2.17825e-05 2.17826e-05 2.17828e-05 2.17829e-05 2.17831e-05 2.17832e-05 2.17833e-05 2.17834e-05 2.17835e-05 2.17836e-05 2.17836e-05
          2.19012e-05 2.19013e-05 2.19015e-05 2.19017e-05 2.1902e-05 2.19023e-05 2.19026e-05 2.19029e-05 2.19031e-05 2.19033e-05 2.19036e-05 2.19038e-05
          2.1904e-05 2.19041e-05 2.19042e-05 2.19042e-05 2.20448e-05 2.2045e-05 2.20453e-05 2.20457e-05 2.20462e-05 2.20467e-05 2.20471e-05 2.20475e-05
          2.20479e-05 2.20483e-05 2.20487e-05 2.2049e-05 2.20493e-05 2.20495e-05 2.20497e-05 2.20498e-05 2.22067e-05 2.22069e-05 2.22075e-05 2.22082e-05
          2.2209e-05 2.22097e-05 2.22103e-05 2.22109e-05 2.22115e-05 2.22121e-05 2.22126e-05 2.22131e-05 2.22135e-05 2.22139e-05 2.22143e-05 2.22144e-05
          2.238e-05 2.23807e-05 2.23817e-05 2.23827e-05 2.23837e-05 2.23847e-05 2.23857e-05 2.23865e-05 2.23874e-05 2.23881e-05 2.23889e-05 2.23896e-05
          2.23902e-05 2.23908e-05 2.23913e-05 2.23916e-05
        </DataArray>
        <DataArray type="Float32" Name="X_gas^H2O" NumberOfComponents="1" format="ascii">
          0.0197274 0.0197274 0.019788 0.019788 0.0197274 0.019788 0.0197274 0.019788 0.0197274 0.019788 0.0197274 0.019788
          0.0197274 0.019788 0.0197274 0.019788 0.0197274 0.019788 0.0197274 0.019788 0.0197274 0.019788 0.0197274 0.019788
          0.0197274 0.019788 0.0197274 0.019788 0.0197274 0.019788 0.0197274 0.019788 0.0198402 0.0198402 0.0198402 0.0198402
          0.0198402 0.0198402 0.0198402 0.0198402 0.0198402 0.0198402 0.0198402 0.0198402 0.0198402 0.0198402 0.0198402 0.0198402
          0.0198781 0.0198781 0.0198781 0.0198781 0.0198781 0.019878 0.019878 0.019878 0.019878 0.019878 0.019878 0.019878
          0.019878 0.019878 0.019878 0.019878 0.0198865 0.0198865 0.0198864 0.0198864 0.0198864 0.0198864 0.0198864 0.0198864
          0.0198863 0.0198863 0.0198863 0.0198863 0.0198863 0.0198863 0.0198863 0.0198863 0.0198297 0.0198297 0.0198297 0.0198296
          0.0198296 0.0198295 0.0198295 0.0198294 0.0198294 0.0198293 0.0198293 0.0198292 0.0198292 0.0198292 0.0198292 0.0198292
          0.0197051 0.0197051 0.019705 0.0197049 0.0197048 0.0197047 0.0197046 0.0197044 0.0197043 0.0197042 0.0197041 0.019704
          0.0197039 0.0197039 0.0197038 0.0197038 0.0195069 0.0195069 0.0195067 0.0195065 0.0195063 0.019506 0.0195057 0.0195055
          0.0195052 0.019505 0.0195048 0.0195046 0.0195044 0.0195043 0.0195042 0.0195042 0.0192275 0.0192274 0.0192271 0.0192267
          0.0192262 0.0192257 0.0192252 0.0192247 0.0192243 0.0192239 0.0192235 0.0192232 0.0192228 0.0192226 0.0192224 0.0192224
          0.0188721 0.0188719 0.0188713 0.0188706 0.0188698 0.0188689 0.0188681 0.0188673 0.0188666 0.0188659 0.0188652 0.0188646
          0.0188641 0.0188637 0.0188634 0.0188633 0.0184574 0.018457 0.018456 0.0184548 0.0184535 0.0184522 0.0184509 0.0184497
          0.0184486 0.0184475 0.0184465 0.0184456 0.0184448 0.018444 0.0184435 0.0184433 0.0180062 0.0180054 0.0180038 0.0180019
          0.0179999 0.017998 0.0179962 0.0179945 0.0179929 0.0179914 0.01799 0.0179886 0.0179874 0.0179863 0.0179855 0.0179851
          0.0175411 0.0175393 0.0175367 0.017534 0.0175313 0.0175287 0.0175262 0.0175239 0.0175218 0.0175197 0.0175178 0.017516
          0.0175143 0.0175127 0.0175114 0.0175106
        </DataArray>
        <DataArray type="Float32" Name="X_gas^Air" NumberOfComponents="1" format="ascii">
          0.980273 0.980273 0.980212 0.980212 0.980273 0.980212 0.980273 0.980212 0.980273 0.980212 0.980273 0.980212
          0.980273 0.980212 0.980273 0.980212 0.980273 0.980212 0.980273 0.980212 0.980273 0.980212 0.980273 0.980212
          0.980273 0.980212 0.980273 0.980212 0.980273 0.980212 0.980273 0.980212 0.98016 0.98016 0.98016 0.98016
          0.98016 0.98016 0.98016 0.98016 0.98016 0.98016 0.98016 0.98016 0.98016 0.98016 0.98016 0.98016
          0.980122 0.980122 0.980122 0.980122 0.980122 0.980122 0.980122 0.980122 0.980122 0.980122 0.980122 0.980122
          0.980122 0.980122 0.980122 0.980122 0.980114 0.980114 0.980114 0.980114 0.980114 0.980114 0.980114 0.980114
          0.980114 0.980114 0.980114 0.980114 0.980114 0.980114 0.980114 0.980114 0.98017 0.98017 0.98017 0.98017
          0.98017 0.98017 0.980171 0.980171 0.980171 0.980171 0.980171 0.980171 0.980171 0.980171 0.980171 0.980171
          0.980295 0.980295 0.980295 0.980295 0.980295 0.980295 0.980295 0.980296 0.980296 0.980296 0.980296 0.980296
          0.980296 0.980296 0.980296 0.980296 0.980493 0.980493 0.980493 0.980493 0.980494 0.980494 0.980494 0.980494
          0.980495 0.980495 0.980495 0.980495 0.980496 0.980496 0.980496 0.980496 0.980773 0.980773 0.980773 0.980773
          0.980774 0.980774 0.980775 0.980775 0.980776 0.980776 0.980776 0.980777 0.980777 0.980777 0.980778 0.980778
          0.981128 0.981128 0.981129 0.981129 0.98113 0.981131 0.981132 0.981133 0.981133 0.981134 0.981135 0.981135
          0.981136 0.981136 0.981137 0.981137 0.981543 0.981543 0.981544 0.981545 0.981547 0.981548 0.981549 0.98155
          0.981551 0.981552 0.981553 0.981554 0.981555 0.981556 0.981556 0.981557 0.981994 0.981995 0.981996 0.981998
          0.982 0.982002 0.982004 0.982005 0.982007 0.982009 0.98201 0.982011 0.982013 0.982014 0.982015 0.982015
          0.982459 0.982461 0.982463 0.982466 0.982469 0.982471 0.982474 0.982476 0.982478 0.98248 0.982482 0.982484
          0.982486 0.982487 0.982489 0.982489
        </DataArray>
        <DataArray type="Float32" Name="x_liquid^H2O" NumberOfComponents="1" format="ascii">
          0.999986 0.999986 0.999986 0.999986 0.999986 0.999986 0.999986 0.999986 0.999986 0.999986 0.999986 0.999986
          0.999986 0.999986 0.999986 0.999986 0.999986 0.999986 0.999986 0.999986 0.999986 0.999986 0.999986 0.999986
          0.999986 0.999986 0.999986 0.999986 0.999986 0.999986 0.999986 0.999986 0.999987 0.999987 0.999987 0.999987
          0.999987 0.999987 0.999987 0.999987 0.999987 0.999987 0.999987 0.999987 0.999987 0.999987 0.999987 0.999987
          0.999987 0.999987 0.999987 0.999987 0.999987 0.999987 0.999987 0.999987 0.999987 0.999987 0.999987 0.999987
          0.999987 0.999987 0.999987 0.999987 0.999987 0.999987 0.999987 0.999987 0.999987 0.999987 0.999987 0.999987
          0.999987 0.999987 0.999987 0.999987 0.999987 0.999987 0.999987 0.999987 0.999987 0.999987 0.999987 0.999987
          0.999987 0.999987 0.999987 0.999987 0.999987 0.999987 0.999987 0.999987 0.999987 0.999987 0.999987 0.999987
          0.999987 0.999987 0.999987 0.999987 0.999987 0.999987 0.999987 0.999987 0.999987 0.999987 0.999987 0.999987
          0.999987 0.999987 0.999987 0.999987 0.999987 0.999987 0.999987 0.999987 0.999987 0.999987 0.999987 0.999987
          0.999987 0.999987 0.999987 0.999987 0.999987 0.999987 0.999987 0.999987 0.999986 0.999986 0.999986 0.999986
          0.999986 0.999986 0.999986 0.999986 0.999986 0.999986 0.999986 0.999986 0.999986 0.999986 0.999986 0.999986
          0.999986 0.999986 0.999986 0.999986 0.999986 0.999986 0.999986 0.999986 0.999986 0.999986 0.999986 0.999986
          0.999986 0.999986 0.999986 0.999986 0.999986 0.999986 0.999986 0.999986 0.999986 0.999986 0.999986 0.999986
          0.999986 0.999986 0.999986 0.999986 0.999986 0.999986 0.999986 0.999986 0.999986 0.999986 0.999986 0.999986
          0.999986 0.999986 0.999986 0.999986 0.999986 0.999986 0.999986 0.999986 0.999986 0.999986 0.999986 0.999986
          0.999986 0.999986 0.999986 0.999986 0.999986 0.999986 0.999986 0.999986 0.999986 0.999986 0.999986 0.999986
          0.999986 0.999986 0.999986 0.999986
        </DataArray>
        <DataArray type="Float32" Name="x_liquid^Air" NumberOfComponents="1" format="ascii">