<?xml version="1.0"?>
<VTKFile type="UnstructuredGrid" version="0.1" byte_order="LittleEndian">
  <UnstructuredGrid>
    <Piece NumberOfCells="120" NumberOfPoints="144">
      <PointData Scalars="temperature" Vectors="v">
        <DataArray type="Float32" Name="temperature" NumberOfComponents="1" format="ascii">
          296.027 296.025 298.15 298.149 296.023 298.147 296.021 298.146 296.018 298.144 296.016 298.143
          296.013 298.141 296.011 298.14 296.009 298.138 296.007 298.137 296.005 298.135 296.004 298.134
          296.002 298.132 296.001 298.13 296 298.129 295.999 298.128 298.15 298.15 298.15 298.15
          298.15 298.15 298.15 298.15 298.15 298.15 298.15 298.15 298.15 298.15 298.15 298.15
          298.15 298.15 298.15 298.15 298.15 298.15 298.15 298.15 298.15 298.15 298.15 298.15
          298.15 298.15 298.15 298.15 298.15 298.15 298.15 298.15 298.15 298.15 298.15 298.15
          298.15 298.15 298.15 298.15 298.15 298.15 298.15 298.15 298.15 298.15 298.15 298.15
          298.15 298.15 298.15 298.15 298.15 298.15 298.15 298.15 298.15 298.15 298.15 298.15
          298.15 298.15 298.15 298.15 298.15 298.15 298.15 298.15 298.15 298.15 298.15 298.15
          298.15 298.15 298.15 298.15 298.15 298.15 298.15 298.15 298.15 298.15 298.15 298.15
          298.15 298.15 298.15 298.15 298.15 298.15 298.15 298.15 298.15 298.15 298.15 298.15
          298.15 298.15 298.15 298.15 298.15 298.15 298.15 298.15 298.15 298.15 298.15 298.15
        </DataArray>
        <DataArray type="Float32" Name="pg" NumberOfComponents="1" format="ascii">
          100000 100000 100000 100000 100000 100000 100000 100000 100000 100000 100000 100000
          100000 100000 100000 100000 100000 100000 100000 100000 100000 100000 100000 100000
          100000 100000 100000 100000 100000 100000 100000 100000 100000 100000 100000 100000
          100000 100000 100000 100000 100000 100000 100000 100000 100000 100000 100000 100000
          100000 100000 100000 100000 100000 100000 100000 100000 100000 100000 100000 100000
          100000 100000 100000 100000 100000 100000 100000 100000 100000 100000 100000 100000
          100000 100000 100000 100000 100000 100000 100000 100000 100000 100000 100000 100000
          100000 100000 100000 100000 100000 100000 100000 100000 100000 100000 100000 100000
          100000 100000 100000 100000 100000 100000 100000 100000 100000 100000 100000 100000
          100000 100000 100000 100000 100000 100000 100000 100000 100000 100000 100000 100000
          100000 100000 100000 100000 100000 100000 100000 100000 100000 100000 100000 100000
          100000 100000 100000 100000 100000 100000 100000 100000 100000 100000 100000 100000
        </DataArray>
        <DataArray type="Float32" Name="delP" NumberOfComponents="1" format="ascii">
          0.00202833 0.00189996 0.00200513 0.00187677 0.00176475 0.00174389 0.00162895 0.00161284 0.00149254 0.00147896 0.00135647 0.00134611
          0.00122033 0.00121166 0.00108448 0.00107787 0.000948635 0.000943152 0.000812985 0.000808856 0.000677342 0.000673999 0.000541831 0.000539415
          0.000406315 0.000404502 0.00027088 0.000269753 0.000135441 0.000134836 0 0 0.00203277 0.00189703 0.00176155 0.00162587
          0.00149025 0.00135462 0.001219 0.00108343 0.000947882 0.000812399 0.000676924 0.000541512 0.000406092 0.00027073 0.000135338 0
          0.00202109 0.00188515 0.00175093 0.00161633 0.00148201 0.00134762 0.00121306 0.00107857 0.000943836 0.0008092 0.000674345 0.000539587
          0.000404667 0.000269828 0.000134881 0 0.00203137 0.00189578 0.00176024 0.00162458 0.00148913 0.00135353 0.00121814 0.00108263
          0.000947282 0.000811857 0.000676542 0.000541182 0.000405887 0.000270575 0.000135284 0 0.00202564 0.00188982 0.00175488 0.00161953
          0.0014847 0.00134959 0.00121475 0.00107974 0.000944853 0.000809867 0.000674936 0.000539946 0.000404982 0.000269984 0.000135003 0
          0.00202986 0.00189431 0.00175894 0.00162339 0.00148807 0.00135258 0.00121732 0.00108189 0.000946679 0.000811326 0.000676139 0.000540841
          0.000405668 0.000270408 0.000135238 0 0.00202755 0.00189198 0.00175682 0.00162139 0.00148633 0.001351 0.00121596 0.00108072
          0.000945687 0.000810497 0.000675466 0.000540316 0.000405278 0.000270154 0.000135107 0 0.00202789 0.00189232 0.00175742 0.00162186
          0.00148671 0.0013513 0.0012162 0.00108091 0.000945843 0.000810626 0.000675573 0.000540402 0.000405343 0.000270201 0.000135123 0
        </DataArray>
        <DataArray type="Float32" Name="x_gas^H2O" NumberOfComponents="1" format="ascii">
          0.0279006 0.0278977 0.0127981 0.0128092 0.0278937 0.0128203 0.0278894 0.0128313 0.0278851 0.0128423 0.027881 0.0128533
          0.0278771 0.0128644 0.0278735 0.0128756 0.0278701 0.0128868 0.0278669 0.0128981 0.0278639 0.0129095 0.027861 0.0129208
          0.0278583 0.0129322 0.0278559 0.0129436 0.0278539 0.012955 0.0278525 0.0129607 0.0127981 0.0127981 0.0127981 0.0127981
          0.0127981 0.0127981 0.0127981 0.0127982 0.0127982 0.0127982 0.0127983 0.0127983 0.0127983 0.0127984 0.0127984 0.0127985
          0.0127981 0.0127981 0.0127981 0.0127981 0.0127981 0.0127981 0.0127981 0.0127981 0.0127981 0.0127981 0.0127981 0.0127981
          0.0127981 0.0127981 0.0127981 0.0127981 0.0127981 0.0127981 0.0127981 0.0127981 0.0127981 0.0127981 0.0127981 0.0127981
          0.0127981 0.0127981 0.0127981 0.0127981 0.0127981 0.0127981 0.0127981 0.0127981 0.0127981 0.0127981 0.0127981 0.0127981
          0.0127981 0.0127981 0.0127981 0.0127981 0.0127981 0.0127981 0.0127981 0.0127981 0.0127981 0.0127981 0.0127981 0.0127981
          0.0127981 0.0127981 0.0127981 0.0127981 0.0127981 0.0127981 0.0127981 0.0127981 0.0127981 0.0127981 0.0127981 0.0127981
          0.0127981 0.0127981 0.0127981 0.0127981 0.0127981 0.0127981 0.0127981 0.0127981 0.0127981 0.0127981 0.0127981 0.0127981
          0.0127981 0.0127981 0.0127981 0.0127981 0.0127981 0.0127981 0.0127981 0.0127981 0.0127981 0.0128003 0.0128028 0.012805
          0.0128069 0.0128084 0.0128097 0.0128107 0.0128115 0.0128122 0.0128128 0.0128133 0.0128136 0.0128138 0.0128139 0.0127981
        </DataArray>
        <DataArray type="Float32" Name="X_gas^H2O" NumberOfComponents="1" format="ascii">
          0.0175411 0.0175393 0.008 0.00800698 0.0175367 0.00801394 0.017534 0.00802089 0.0175313 0.00802781 0.0175287 0.00803473
          0.0175262 0.00804167 0.0175239 0.00804868 0.0175218 0.00805575 0.0175197 0.00806285 0.0175178 0.00806998 0.017516 0.00807712
          0.0175143 0.00808428 0.0175127 0.00809144 0.0175114 0.0080986 0.0175106 0.00810218 0.008 0.008 0.00800001 0.00800001
          0.00800002 0.00800003 0.00800005 0.00800006 0.00800008 0.0080001 0.00800013 0.00800015 0.00800018 0.00800021 0.00800024 0.00800025
          0.008 0.008 0.008 0.008 0.008 0.008 0.008 0.008 0.008 0.008 0.008 0.008
          0.008 0.008 0.008 0.00799999 0.008 0.008 0.008 0.008 0.008 0.008 0.008 0.008
          0.008 0.008 0.008 0.008 0.008 0.008 0.008 0.008 0.008 0.008 0.008 0.008
          0.008 0.008 0.008 0.008 0.008 0.008 0.008 0.008 0.008 0.008 0.008 0.008
          0.008 0.008 0.008 0.008 0.008 0.008 0.008 0.008 0.008 0.008 0.008 0.008
          0.008 0.008 0.008 0.00800001 0.008 0.008 0.008 0.008 0.008 0.008 0.008 0.008
          0.00800001 0.00800001 0.00800001 0.00800001 0.00800001 0.00800001 0.00800001 0.00800002 0.008 0.0080014 0.00800299 0.00800438
          0.00800554 0.0080065 0.00800728 0.00800793 0.00800846 0.00800891 0.00800927 0.00800955 0.00800976 0.0080099 0.00800995 0.008
        </DataArray>
        <DataArray type="Float32" Name="x_gas^Air" NumberOfComponents="1" format="ascii">
          0.972099 0.972102 0.987202 0.987191 0.972106 0.98718 0.972111 0.987169 0.972115 0.987158 0.972119 0.987147
          0.972123 0.987136 0.972126 0.987124 0.97213 0.987113 0.972133 0.987102 0.972136 0.987091 0.972139 0.987079
          0.972142 0.987068 0.972144 0.987056 0.972146 0.987045 0.972147 0.987039 0.987202 0.987202 0.987202 0.987202
          0.987202 0.987202 0.987202 0.987202 0.987202 0.987202 0.987202 0.987202 0.987202 0.987202 0.987202 0.987202
          0.987202 0.987202 0.987202 0.987202 0.987202 0.987202 0.987202 0.987202 0.987202 0.987202 0.987202 0.987202
          0.987202 0.987202 0.987202 0.987202 0.987202 0.987202 0.987202 0.987202 0.987202 0.987202 0.987202 0.987202
          0.987202 0.987202 0.987202 0.987202 0.987202 0.987202 0.987202 0.987202 0.987202 0.987202 0.987202 0.987202
          0.987202 0.987202 0.987202 0.987202 0.987202 0.987202 0.987202 0.987202 0.987202 0.987202 0.987202 0.987202
          0.987202 0.987202 0.987202 0.987202 0.987202 0.987202 0.987202 0.987202 0.987202 0.987202 0.987202 0.987202
          0.987202 0.987202 0.987202 0.987202 0.987202 0.987202 0.987202 0.987202 0.987202 0.987202 0.987202 0.987202
          0.987202 0.987202 0.987202 0.987202 0.987202 0.987202 0.987202 0.987202 0.987202 0.9872 0.987197 0.987195
          0.987193 0.987192 0.98719 0.987189 0.987188 0.987188 0.987187 0.987187 0.987186 0.987186 0.987186 0.987202
        </DataArray>
        <DataArray type="Float32" Name="X_gas^Air" NumberOfComponents="1" format="ascii">
          0.982459 0.982461 0.992 0.991993 0.982463 0.991986 0.982466 0.991979 0.982469 0.991972 0.982471 0.991965
          0.982474 0.991958 0.982476 0.991951 0.982478 0.991944 0.98248 0.991937 0.982482 0.99193 0.982484 0.991923
          0.982486 0.991916 0.982487 0.991909 0.982489 0.991901 0.982489 0.991898 0.992 0.992 0.992 0.992
          0.992 0.992 0.992 0.992 0.992 0.992 0.992 0.992 0.992 0.992 0.992 0.992
          0.992 0.992 0.992 0.992 0.992 0.992 0.992 0.992 0.992 0.992 0.992 0.992
          0.992 0.992 0.992 0.992 0.992 0.992 0.992 0.992 0.992 0.992 0.992 0.992
          0.992 0.992 0.992 0.992 0.992 0.992 0.992 0.992 0.992 0.992 0.992 0.992
          0.992 0.992 0.992 0.992 0.992 0.992 0.992 0.992 0.992 0.992 0.992 0.992
          0.992 0.992 0.992 0.992 0.992 0.992 0.992 0.992 0.992 0.992 0.992 0.992
          0.992 0.992 0.992 0.992 0.992 0.992 0.992 0.992 0.992 0.992 0.992 0.992
          0.992 0.992 0.992 0.992 0.992 0.992 0.992 0.992 0.992 0.991999 0.991997 0.991996
          0.991994 0.991993 0.991993 0.991992 0.991992 0.991991 0.991991 0.99199 0.99199 0.99199 0.99199 0.992
        </DataArray>
        <DataArray type="Float32" Name="h" NumberOfComponents="1" format="ascii">
          66235.7 66229.3 44886.1 44901.8 66220.5 44917.5 66211.1 44933.2 66201.7 44948.8 66192.8 44964.3
          66184.4 44980 66176.5 44995.8 66169 45011.7 66162 45027.7 66155.4 45043.7 66149.1 45059.8
          66143.3 45075.9 66138 45092 66133.5 45108.1 66130.6 45116.2 44886.1 44886.1 44886.1 44886.1
          44886.2 44886.2 44886.2 44886.2 44886.3 44886.3 44886.4 44886.4 44886.5 44886.6 44886.7 44886.6
          44886.1 44886.1 44886.1 44886.1 44886.1 44886.1 44886.1 44886.1 44886.1 44886.1 44886.1 44886.1
          44886.1 44886.1 44886.1 44886.1 44886.1 44886.1 44886.1 44886.1 44886.1 44886.1 44886.1 44886.1
          44886.1 44886.1 44886.1 44886.1 44886.1 44886.1 44886.1 44886.1 44886.1 44886.1 44886.1 44886.1
          44886.1 44886.1 44886.1 44886.1 44886.1 44886.1 44886.1 44886.1 44886.1 44886.1 44886.1 44886.1
          44886.1 44886.1 44886.1 44886.1 44886.1 44886.1 44886.1 44886.1 44886.1 44886.1 44886.1 44886.1
          44886.1 44886.1 44886.1 44886.1 44886.1 44886.1 44886.1 44886.1 44886.1 44886.1 44886.1 44886.1
          44886.1 44886.1 44886.1 44886.1 44886.1 44886.1 44886.1 44886.2 44886.1 44889.6 44893.5 44896.9
          44899.8 44902.1 44904.1 44905.7 44907 44908.1 44909 44909.7 44910.2 44910.6 44910.7 44886.1
        </DataArray>
        <DataArray type="Float32" Name="rho" NumberOfComponents="1" format="ascii">
          1.16423 1.16424 1.16259 1.16259 1.16425 1.16259 1.16426 1.16259 1.16428 1.16259 1.16429 1.16259
          1.1643 1.16259 1.16431 1.16259 1.16432 1.16259 1.16433 1.1626 1.16433 1.1626 1.16434 1.1626
          1.16435 1.1626 1.16436 1.1626 1.16436 1.1626 1.16437 1.1626 1.16259 1.16259 1.16259 1.16259
          1.16259 1.16259 1.16259 1.16259 1.16259 1.16259 1.16259 1.16259 1.16259 1.16259 1.16259 1.16259
          1.16259 1.16259 1.16259 1.16259 1.16259 1.16259 1.16259 1.16259 1.16259 1.16259 1.16259 1.16259
          1.16259 1.16259 1.16259 1.16259 1.16259 1.16259 1.16259 1.16259 1.16259 1.16259 1.16259 1.16259
          1.16259 1.16259 1.16259 1.16259 1.16259 1.16259 1.16259 1.16259 1.16259 1.16259 1.16259 1.16259
          1.16259 1.16259 1.16259 1.16259 1.16259 1.16259 1.16259 1.16259 1.16259 1.16259 1.16259 1.16259
          1.16259 1.16259 1.16259 1.16259 1.16259 1.16259 1.16259 1.16259 1.16259 1.16259 1.16259 1.16259
          1.16259 1.16259 1.16259 1.16259 1.16259 1.16259 1.16259 1.16259 1.16259 1.16259 1.16259 1.16259
          1.16259 1.16259 1.16259 1.16259 1.16259 1.16259 1.16259 1.16259 1.16259 1.16259 1.16259 1.16258
          1.16258 1.16258 1.16258 1.16258 1.16258 1.16258 1.16258 1.16258 1.16258 1.16258 1.16258 1.16259
        </DataArray>
        <DataArray type="Float32" Name="mu" NumberOfComponents="1" format="ascii">
          1.78849e-05 1.78849e-05 1.81222e-05 1.81221e-05 1.78848e-05 1.81219e-05 1.78847e-05 1.81217e-05 1.78846e-05 1.81216e-05 1.78846e-05 1.81214e-05
          1.78845e-05 1.81212e-05 1.78844e-05 1.8121e-05 1.78844e-05 1.81209e-05 1.78843e-05 1.81207e-05 1.78842e-05 1.81205e-05 1.78842e-05 1.81203e-05
          1.78841e-05 1.81202e-05 1.78841e-05 1.812e-05 1.78841e-05 1.81198e-05 1.7884e-05 1.81197e-05 1.81222e-05 1.81222e-05 1.81222e-05 1.81222e-05
          1.81222e-05 1.81222e-05 1.81222e-05 1.81222e-05 1.81222e-05 1.81222e-05 1.81222e-05 1.81222e-05 1.81222e-05 1.81222e-05 1.81222e-05 1.81222e-05
          1.81222e-05 1.81222e-05 1.81222e-05 1.81222e-05 1.81222e-05 1.81222e-05 1.81222e-05 1.81222e-05 1.81222e-05 1.81222e-05 1.81222e-05 1.81222e-05
          1.81222e-05 1.81222e-05 1.81222e-05 1.81222e-05 1.81222e-05 1.81222e-05 1.81222e-05 1.81222e-05 1.81222e-05 1.81222e-05 1.81222e-05 1.81222e-05
          1.81222e-05 1.81222e-05 1.81222e-05 1.81222e-05 1.81222e-05 1.81222e-05 1.81222e-05 1.81222e-05 1.81222e-05 1.81222e-05 1.81222e-05 1.81222e-05
          1.81222e-05 1.81222e-05 1.81222e-05 1.81222e-05 1.81222e-05 1.81222e-05 1.81222e-05 1.81222e-05 1.81222e-05 1.81222e-05 1.81222e-05 1.81222e-05
          1.81222e-05 1.81222e-05 1.81222e-05 1.81222e-05 1.81222e-05 1.81222e-05 1.81222e-05 1.81222e-05 1.81222e-05 1.81222e-05 1.81222e-05 1.81222e-05
          1.81222e-05 1.81222e-05 1.81222e-05 1.81222e-05 1.81222e-05 1.81222e-05 1.81222e-05 1.81222e-05 1.81222e-05 1.81222e-05 1.81222e-05 1.81222e-05
          1.81222e-05 1.81222e-05 1.81222e-05 1.81222e-05 1.81222e-05 1.81222e-05 1.81222e-05 1.81222e-05 1.81222e-05 1.81222e-05 1.81222e-05 1.81222e-05
          1.81222e-05 1.81221e-05 1.81221e-05 1.81221e-05 1.81221e-05 1.81221e-05 1.81221e-05 1.81221e-05 1.81221e-05 1.81221e-05 1.81221e-05 1.81222e-05
        </DataArray>
        <DataArray type="Float32" Name="v" NumberOfComponents="3" format="ascii">
          0.000914023 6.2468e-05 0 0.000916759 6.27426e-05 0 1.11851 0 0 1.11904 -0.000208196 0
          0.000919355 6.26682e-05 0 1.11998 -0.000233126 0 0.000920098 6.22975e-05 0 1.12074 -0.000173526 0
          0.00092078 6.20333e-05 0 1.1214 -0.00012783 0 0.000921109 6.17618e-05 0 1.12187 -7.96635e-05 0
          0.000921411 6.16272e-05 0 1.12225 -4.78658e-05 0 0.000921571 6.1582e-05 0 1.12252 -1.92743e-05 0
          0.000921721 6.15216e-05 0 1.12273 -6.39622e-07 0 0.000921799 6.14656e-05 0 1.12288 1.5553e-05 0
          0.000921874 6.1411e-05 0 1.123 2.63232e-05 0 0.00092191 6.13592e-05 0 1.12308 3.56722e-05 0
          0.000921949 6.13096e-05 0 1.12314 4.23078e-05 0 0.000921959 6.12775e-05 0 1.12318 4.81534e-05 0
          0.000921987 6.11883e-05 0 1.12321 5.37155e-05 0 0.00092198 6.14791e-05 0 1.12322 5.54225e-05 0
          2.1001 0 0 2.10017 -0.00172429 0 2.10045 -0.00188896 0 2.10086 -0.00154979 0
          2.10128 -0.00125064 0 2.10165 -0.000929676 0 2.10196 -0.000708148 0 2.10221 -0.000509061 0
          2.10241 -0.000374919 0 2.10256 -0.000259316 0 2.10268 -0.000180695 0 2.10277 -0.000113331 0
          2.10283 -6.53273e-05 0 2.10288 -2.30341e-05 0 2.10291 1.15648e-05 0 2.10292 4.40748e-05 0
          2.88064 0 0 2.88048 -0.000809572 0 2.88024 -0.00131946 0 2.88022 -0.00140602 0
          2.88029 -0.00128344 0 2.88045 -0.00108136 0 2.88063 -0.000874004 0 2.88081 -0.000680297 0
          2.88098 -0.000519323 0 2.88111 -0.000383508 0 2.88123 -0.000277574 0 2.88132 -0.000190534 0
          2.88139 -0.000123202 0 2.88144 -6.6033e-05 0 2.88147 -1.83534e-05 0 2.88149 2.77276e-05 0
          3.37718 0 0 3.37713 -0.00114483 0 3.37698 -0.00160838 0 3.37682 -0.00174 0
          3.37669 -0.00167196 0 3.37661 -0.00148338 0 3.37658 -0.00126363 0 3.37657 -0.0010297 0
          3.37657 -0.00082359 0 3.37659 -0.000634948 0 3.37661 -0.000482057 0 3.37663 -0.000348576 0
          3.37665 -0.000242098 0 3.37666 -0.000147494 0 3.37667 -6.70048e-05 0 3.37668 1.2469e-05 0
          3.48529 0 0 3.48518 -0.000323428 0 3.48494 -0.000678991 0 3.48468 -0.000879959 0
          3.48442 -0.000945896 0 3.48422 -0.000914613 0 3.48405 -0.000825414 0 3.48393 -0.000707505 0
          3.48383 -0.000583365 0 3.48377 -0.000463725 0 3.48373 -0.000357438 0 3.4837 -0.000263977 0
          3.48368 -0.000185575 0 3.48367 -0.000116445 0 3.48367 -5.64092e-05 0 3.48367 3.11334e-06 0
          3.07414 0 0 3.07409 -0.000449736 0 3.07394 -0.000649757 0 3.07373 -0.000760754 0
          3.07349 -0.000793851 0 3.07326 -0.000769477 0 3.07304 -0.00070552 0 3.07285 -0.000616976 0
          3.07269 -0.000521419 0 3.07256 -0.00042388 0 3.07246 -0.000334998 0 3.07238 -0.000252532 0
          3.07232 -0.000181182 0 3.07228 -0.0001156 0 3.07226 -5.6714e-05 0 3.07225 1.19443e-06 0
          1.98047 0 0 1.9804 0.000185419 0 1.98027 0.000159102 0 1.98011 0.000112266 0
          1.97993 6.80647e-05 0 1.97976 3.95752e-05 0 1.97958 2.11606e-05 0 1.97944 1.26034e-05 0
          1.9793 9.11205e-06 0 1.9792 8.55727e-06 0 1.97911 8.96824e-06 0 1.97904 8.81083e-06 0
          1.97899 8.14678e-06 0 1.97896 6.27105e-06 0 1.97894 4.41143e-06 0 1.97893 1.36795e-06 0
          0.00134 0 0 0.00134 0 0 0.00134 0 0 0.00134 0 0
          0.00134 0 0 0.00134 0 0 0.00134 0 0 0.00134 0 0
          0.00134 0 0 0.00134 0 0 0.00134 0 0 0.00134 0 0
          0.00134 0 0 0.00134 0 0 0.00134 0 0 0.00134 0 0
        </DataArray>
      </PointData>
      <Points>
        <DataArray type="Float32" Name="Coordinates" NumberOfComponents="3" format="ascii">
          0 0.25 0 0.0166667 0.25 0 0 0.271861 0 0.0166667 0.271861 0
          0.0333333 0.25 0 0.0333333 0.271861 0 0.05 0.25 0 0.05 0.271861 0
          0.0666667 0.25 0 0.0666667 0.271861 0 0.0833333 0.25 0 0.0833333 0.271861 0
          0.1 0.25 0 0.1 0.271861 0 0.116667 0.25 0 0.116667 0.271861 0
          0.133333 0.25 0 0.133333 0.271861 0 0.15 0.25 0 0.15 0.271861 0
          0.166667 0.25 0 0.166667 0.271861 0 0.183333 0.25 0 0.183333 0.271861 0
          0.2 0.25 0 0.2 0.271861 0 0.216667 0.25 0 0.216667 0.271861 0
          0.233333 0.25 0 0.233333 0.271861 0 0.25 0.25 0 0.25 0.271861 0
          0 0.295908 0 0.0166667 0.295908 0 0.0333333 0.295908 0 0.05 0.295908 0
          0.0666667 0.295908 0 0.0833333 0.295908 0 0.1 0.295908 0 0.116667 0.295908 0
          0.133333 0.295908 0 0.15 0.295908 0 0.166667 0.295908 0 0.183333 0.295908 0
          0.2 0.295908 0 0.216667 0.295908 0 0.233333 0.295908 0 0.25 0.295908 0
          0 0.32236 0 0.0166667 0.32236 0 0.0333333 0.32236 0 0.05 0.32236 0
          0.0666667 0.32236 0 0.0833333 0.32236 0 0.1 0.32236 0 0.116667 0.32236 0
          0.133333 0.32236 0 0.15 0.32236 0 0.166667 0.32236 0 0.183333 0.32236 0
          0.2 0.32236 0 0.216667 0.32236 0 0.233333 0.32236 0 0.25 0.32236 0
          0 0.351457 0 0.0166667 0.351457 0 0.0333333 0.351457 0 0.05 0.351457 0
          0.0666667 0.351457 0 0.0833333 0.351457 0 0.1 0.351457 0 0.116667 0.351457 0
          0.133333 0.351457 0 0.15 0.351457 0 0.166667 0.351457 0 0.183333 0.351457 0
          0.2 0.351457 0 0.216667 0.351457 0 0.233333 0.351457 0 0.25 0.351457 0
          0 0.383464 0 0.0166667 0.383464 0 0.0333333 0.383464 0 0.05 0.383464 0
          0.0666667 0.383464 0 0.0833333 0.383464 0 0.1 0.383464 0 0.116667 0.383464 0
          0.133333 0.383464 0 0.15 0.383464 0 0.166667 0.383464 0 0.183333 0.383464 0
          0.2 0.383464 0 0.216667 0.383464 0 0.233333 0.383464 0 0.25 0.383464 0
          0 0.418671 0 0.0166667 0.418671 0 0.0333333 0.418671 0 0.05 0.418671 0
          0.0666667 0.418671 0 0.0833333 0.418671 0 0.1 0.418671 0 0.116667 0.418671 0
          0.133333 0.418671 0 0.15 0.418671 0 0.166667 0.418671 0 0.183333 0.418671 0
          0.2 0.418671 0 0.216667 0.418671 0 0.233333 0.418671 0 0.25 0.418671 0
          0 0.457399 0 0.0166667 0.457399 0 0.0333333 0.457399 0 0.05 0.457399 0
          0.0666667 0.457399 0 0.0833333 0.457399 0 0.1 0.457399 0 0.116667 0.457399 0
          0.133333 0.457399 0 0.15 0.457399 0 0.166667 0.457399 0 0.183333 0.457399 0
          0.2 0.457399 0 0.216667 0.457399 0 0.233333 0.457399 0 0.25 0.457399 0
          0 0.5 0 0.0166667 0.5 0 0.0333333 0.5 0 0.05 0.5 0
          0.0666667 0.5 0 0.0833333 0.5 0 0.1 0.5 0 0.116667 0.5 0
          0.133333 0.5 0 0.15 0.5 0 0.166667 0.5 0 0.183333 0.5 0
          0.2 0.5 0 0.216667 0.5 0 0.233333 0.5 0 0.25 0.5 0
        </DataArray>
      </Points>
      <Cells>
        <DataArray type="Int32" Name="connectivity" NumberOfComponents="1" format="ascii">
          0 1 3 2 1 4 5 3 4 6 7 5
          6 8 9 7 8 10 11 9 10 12 13 11
          12 14 15 13 14 16 17 15 16 18 19 17
          18 20 21 19 20 22 23 21 22 24 25 23
          24 26 27 25 26 28 29 27 28 30 31 29
          2 3 33 32 3 5 34 33 5 7 35 34
          7 9 36 35 9 11 37 36 11 13 38 37
          13 15 39 38 15 17 40 39 17 19 41 40
          19 21 42 41 21 23 43 42 23 25 44 43
          25 27 45 44 27 29 46 45 29 31 47 46
          32 33 49 48 33 34 50 49 34 35 51 50
          35 36 52 51 36 37 53 52 37 38 54 53
          38 39 55 54 39 40 56 55 40 41 57 56
          41 42 58 57 42 43 59 58 43 44 60 59
          44 45 61 60 45 46 62 61 46 47 63 62
          48 49 65 64 49 50 66 65 50 51 67 66
          51 52 68 67 52 53 69 68 53 54 70 69
          54 55 71 70 55 56 72 71 56 57 73 72
          57 58 74 73 58 59 75 74 59 60 76 75
          60 61 77 76 61 62 78 77 62 63 79 78
          64 65 81 80 65 66 82 81 66 67 83 82
          67 68 84 83 68 69 85 84 69 70 86 85
          70 71 87 86 71 72 88 87 72 73 89 88
          73 74 90 89 74 75 91 90 75 76 92 91
          76 77 93 92 77 78 94 93 78 79 95 94
          80 81 97 96 81 82 98 97 82 83 99 98
          83 84 100 99 84 85 101 100 85 86 102 101
          86 87 103 102 87 88 104 103 88 89 105 104
          89 90 106 105 90 91 107 106 91 92 108 107
          92 93 109 108 93 94 110 109 94 95 111 110
          96 97 113 112 97 98 114 113 98 99 115 114
          99 100 116 115 100 101 117 116 101 102 118 117
          102 103 119 118 103 104 120 119 104 105 121 120
          105 106 122 121 106 107 123 122 107 108 124 123
          108 109 125 124 109 110 126 125 110 111 127 126
          112 113 129 128 113 114 130 129 114 115 131 130
          115 116 132 131 116 117 133 132 117 118 134 133
          118 119 135 134 119 120 136 135 120 121 137 136
          121 122 138 137 122 123 139 138 123 124 140 139
          124 125 141 140 125 126 142 141 126 127 143 142
        </DataArray>
        <DataArray type="Int32" Name="offsets" NumberOfComponents="1" format="ascii">
          4 8 12 16 20 24 28 32 36 40 44 48
          52 56 60 64 68 72 76 80 84 88 92 96
          100 104 108 112 116 120 124 128 132 136 140 144
          148 152 156 160 164 168 172 176 180 184 188 192
          196 200 204 208 212 216 220 224 228 232 236 240
          244 248 252 256 260 264 268 272 276 280 284 288
          292 296 300 304 308 312 316 320 324 328 332 336
          340 344 348 352 356 360 364 368 372 376 380 384
          388 392 396 400 404 408 412 416 420 424 428 432
          436 440 444 448 452 456 460 464 468 472 476 480
        </DataArray>
        <DataArray type="UInt8" Name="types" NumberOfComponents="1" format="ascii">
          9 9 9 9 9 9 9 9 9 9 9 9
          9 9 9 9 9 9 9 9 9 9 9 9
          9 9 9 9 9 9 9 9 9 9 9 9
          9 9 9 9 9 9 9 9 9 9 9 9
          9 9 9 9 9 9 9 9 9 9 9 9
          9 9 9 9 9 9 9 9 9 9 9 9
          9 9 9 9 9 9 9 9 9 9 9 9
          9 9 9 9 9 9 9 9 9 9 9 9
          9 9 9 9 9 9 9 9 9 9 9 9
          9 9 9 9 9 9 9 9 9 9 9 9
        </DataArray>
      </Cells>
    </Piece>
  </UnstructuredGrid>
</VTKFile>
