<?xml version="1.0"?>
<VTKFile type="UnstructuredGrid" version="0.1" byte_order="LittleEndian">
  <UnstructuredGrid>
    <Piece NumberOfCells="120" NumberOfPoints="143">
      <PointData Scalars="Sn" Vectors="velocityW">
        <DataArray type="Float32" Name="Sn" NumberOfComponents="1" format="ascii">
          0.010017 0.010017 0.0100341 0.0100341 0.010017 0.0100341 0.0100171 0.010034 0.010017 0.010034 0.0100171 0.010034
          0.0100171 0.0100339 0.0100168 0.010034 0.010017 0.010034 0.010017 0.010034 0.010017 0.010034 0.0100471 0.0100471
          0.0100471 0.010047 0.0100471 0.0100471 0.0100474 0.0100471 0.010047 0.010047 0.010047 0.0101575 0.0101575 0.0101575
          0.0101575 0.0101575 0.0101574 0.0101572 0.0101575 0.0101574 0.0101574 0.0101574 0.0117335 0.0117335 0.0117335 0.0117335
          0.0117335 0.0117335 0.0117335 0.0117335 0.0117335 0.0117335 0.0117335 0.0136025 0.0136025 0.0136025 0.0136025 0.0136025
          0.0136025 0.0136025 0.0136025 0.0136025 0.0136025 0.0136025 0.0157827 0.0157827 0.0157827 0.0157827 0.0157827 0.0157827
          0.0157827 0.0157827 0.0157827 0.0157826 0.0157826 0.0195444 0.0195444 0.0195444 0.0195443 0.0195443 0.0195443 0.0195442
          0.0195442 0.0195442 0.0195442 0.0195441 0.0353712 0.0353711 0.0353711 0.035371 0.0353709 0.0353708 0.0353707 0.0353706
          0.0353705 0.0353704 0.0353704 0.0613567 0.0613566 0.0613564 0.0613563 0.0613561 0.0613559 0.0613557 0.0613555 0.0613554
          0.0613552 0.0613551 0.0960918 0.0960916 0.0960914 0.0960911 0.0960908 0.0960905 0.0960902 0.0960899 0.0960897 0.0960895
          0.0960893 0.136264 0.136263 0.136263 0.136262 0.136262 0.136262 0.136261 0.136261 0.13626 0.13626 0.13626
          0.178147 0.178146 0.178146 0.178145 0.178145 0.178144 0.178144 0.178143 0.178143 0.178142 0.178142
        </DataArray>
        <DataArray type="Float32" Name="Sw" NumberOfComponents="1" format="ascii">
          0.989983 0.989983 0.989966 0.989966 0.989983 0.989966 0.989983 0.989966 0.989983 0.989966 0.989983 0.989966
          0.989983 0.989966 0.989983 0.989966 0.989983 0.989966 0.989983 0.989966 0.989983 0.989966 0.989953 0.989953
          0.989953 0.989953 0.989953 0.989953 0.989953 0.989953 0.989953 0.989953 0.989953 0.989843 0.989843 0.989843
          0.989843 0.989843 0.989843 0.989843 0.989842 0.989843 0.989843 0.989843 0.988267 0.988267 0.988267 0.988267
          0.988267 0.988267 0.988267 0.988267 0.988267 0.988267 0.988267 0.986398 0.986398 0.986398 0.986398 0.986398
          0.986398 0.986398 0.986398 0.986398 0.986398 0.986398 0.984217 0.984217 0.984217 0.984217 0.984217 0.984217
          0.984217 0.984217 0.984217 0.984217 0.984217 0.980456 0.980456 0.980456 0.980456 0.980456 0.980456 0.980456
          0.980456 0.980456 0.980456 0.980456 0.964629 0.964629 0.964629 0.964629 0.964629 0.964629 0.964629 0.964629
          0.964629 0.96463 0.96463 0.938643 0.938643 0.938644 0.938644 0.938644 0.938644 0.938644 0.938644 0.938645
          0.938645 0.938645 0.903908 0.903908 0.903909 0.903909 0.903909 0.90391 0.90391 0.90391 0.90391 0.903911
          0.903911 0.863737 0.863737 0.863737 0.863738 0.863738 0.863738 0.863739 0.863739 0.86374 0.86374 0.86374
          0.821853 0.821854 0.821854 0.821855 0.821855 0.821856 0.821856 0.821857 0.821857 0.821858 0.821858
        </DataArray>
        <DataArray type="Float32" Name="pn" NumberOfComponents="1" format="ascii">
          101168 101168 100712 100712 101168 100712 101168 100712 101168 100712 101168 100712
          101168 100712 101168 100712 101168 100712 101168 100712 101168 100712 100332 100332
          100332 100332 100332 100332 100332 100332 100332 100332 100332 100031 100031 100031
          100031 100031 100031 100031 100031 100031 100031 100031 100001 100001 100001 100001
          100001 100001 100001 100001 100001 100001 100001 100001 100001 100001 100001 100001
          100001 100001 100001 100001 100001 100001 100001 100001 100001 100001 100001 100001
          100001 100001 100001 100001 100001 100001 100001 100001 100001 100001 100001 100001
          100001 100001 100001 100001 100000 100000 100000 100000 100000 100000 100000 100000
          100000 100000 100000 100000 100000 100000 100000 100000 100000 100000 100000 100000
          100000 100000 100000 100000 100000 100000 100000 100000 100000 100000 100000 100000
          100000 100000 100000 100000 100000 100000 100000 100000 100000 100000 100000 100000
          100000 100000 100000 100000 100000 100000 100000 100000 100000 100000 100000
        </DataArray>
        <DataArray type="Float32" Name="pw" NumberOfComponents="1" format="ascii">
          101165 101165 100706 100706 101165 100706 101165 100706 101165 100706 101165 100706
          101165 100706 101165 100706 101165 100706 101165 100706 101165 100706 100324 100324
          100324 100324 100324 100324 100324 100324 100324 100324 100324 100005 100005 100005
          100005 100005 100005 100005 100005 100005 100005 100005 99739.4 99739.4 99739.4 99739.4
          99739.4 99739.4 99739.4 99739.4 99739.4 99739.4 99739.4 99518 99518 99518 99518 99518
          99518 99518 99518 99518 99518 99518 99333.5 99333.5 99333.5 99333.5 99333.5 99333.5
          99333.5 99333.5 99333.5 99333.5 99333.5 99179.8 99179.8 99179.8 99179.8 99179.8 99179.8 99179.8
          99179.8 99179.8 99179.8 99179.8 99051.7 99051.7 99051.7 99051.7 99051.7 99051.7 99051.7 99051.7
          99051.7 99051.7 99051.7 98944.9 98944.9 98944.9 98944.9 98944.9 98944.9 98944.9 98944.9 98944.9
          98944.9 98944.9 98856 98856 98856 98856 98856 98856 98856 98856 98856 98856
          98856 98781.8 98781.8 98781.8 98781.8 98781.8 98781.8 98781.8 98781.8 98781.8 98781.8 98781.8
          98720.1 98720.1 98720.1 98720.1 98720.1 98720.1 98720.1 98720.1 98720.1 98720.1 98720.1
        </DataArray>
        <DataArray type="Float32" Name="pc" NumberOfComponents="1" format="ascii">
          2.84985 2.84903 5.6935 5.69363 2.84784 5.69417 2.85589 5.69132 2.85282 5.69217 2.85483 5.69243
          2.8658 5.67603 2.81387 5.68728 2.85175 5.69174 2.85183 5.69156 2.85181 5.69153 7.86232 7.86218
          7.86156 7.85901 7.86919 7.86574 7.91585 7.87024 7.85971 7.85922 7.85917 26.1381 26.1377 26.1363
          26.1366 26.1355 26.1295 26.0946 26.143 26.1347 26.1331 26.1329 261.759 261.758 261.758 261.758
          261.757 261.757 261.759 261.755 261.756 261.756 261.756 482.884 482.884 482.883 482.883 482.883
          482.882 482.882 482.881 482.881 482.881 482.881 667.167 667.167 667.166 667.166 667.165 667.165
          667.165 667.164 667.164 667.163 667.163 820.731 820.73 820.73 820.73 820.729 820.729 820.728
          820.728 820.727 820.727 820.727 948.693 948.693 948.692 948.692 948.691 948.691 948.69 948.69
          948.689 948.689 948.688 1055.33 1055.33 1055.33 1055.33 1055.33 1055.32 1055.32 1055.32 1055.32
          1055.32 1055.32 1144.19 1144.19 1144.19 1144.19 1144.19 1144.19 1144.18 1144.18 1144.18 1144.18
          1144.18 1218.24 1218.24 1218.24 1218.24 1218.24 1218.24 1218.24 1218.24 1218.23 1218.23 1218.23
          1279.95 1279.95 1279.95 1279.95 1279.95 1279.95 1279.95 1279.95 1279.94 1279.94 1279.94
        </DataArray>
        <DataArray type="Float32" Name="rhoW" NumberOfComponents="1" format="ascii">
          997.048 997.048 997.048 997.048 997.048 997.048 997.048 997.048 997.048 997.048 997.048 997.048
          997.048 997.048 997.048 997.048 997.048 997.048 997.048 997.048 997.048 997.048 997.048 997.048
          997.048 997.048 997.048 997.048 997.048 997.048 997.048 997.048 997.048 997.048 997.048 997.048
          997.048 997.048 997.048 997.048 997.048 997.048 997.048 997.048 997.048 997.048 997.048 997.048
          997.048 997.048 997.048 997.048 997.048 997.048 997.048 997.047 997.047 997.047 997.047 997.047
          997.047 997.047 997.047 997.047 997.047 997.047 997.047 997.047 997.047 997.047 997.047 997.047
          997.047 997.047 997.047 997.047 997.047 997.047 997.047 997.047 997.047 997.047 997.047 997.047
          997.047 997.047 997.047 997.047 997.047 997.047 997.047 997.047 997.047 997.047 997.047 997.047
          997.047 997.047 997.047 997.047 997.047 997.047 997.047 997.047 997.047 997.047 997.047 997.047
          997.047 997.047 997.047 997.047 997.047 997.047 997.047 997.047 997.047 997.047 997.047 997.047
          997.047 997.047 997.047 997.047 997.047 997.047 997.047 997.047 997.047 997.047 997.047 997.047
          997.047 997.047 997.047 997.047 997.047 997.047 997.047 997.047 997.047 997.047 997.047
        </DataArray>
        <DataArray type="Float32" Name="rhoN" NumberOfComponents="1" format="ascii">
          1.16788 1.16788 1.16255 1.16255 1.16788 1.16256 1.16788 1.16255 1.16788 1.16255 1.16788 1.16255
          1.16788 1.16255 1.16788 1.16255 1.16788 1.16255 1.16788 1.16255 1.16788 1.16255 1.15811 1.15811
          1.15811 1.15811 1.15811 1.15811 1.15811 1.15811 1.15811 1.15811 1.15811 1.1546 1.1546 1.1546
          1.1546 1.1546 1.1546 1.1546 1.1546 1.1546 1.1546 1.1546 1.15425 1.15425 1.15425 1.15425
          1.15425 1.15425 1.15425 1.15425 1.15425 1.15425 1.15425 1.15425 1.15425 1.15425 1.15425 1.15425
          1.15425 1.15425 1.15425 1.15425 1.15425 1.15425 1.15425 1.15425 1.15425 1.15425 1.15425 1.15425
          1.15425 1.15425 1.15425 1.15425 1.15425 1.15424 1.15424 1.15424 1.15424 1.15424 1.15424 1.15424
          1.15424 1.15424 1.15424 1.15424 1.15424 1.15424 1.15424 1.15424 1.15424 1.15424 1.15424 1.15424
          1.15424 1.15424 1.15424 1.15424 1.15424 1.15424 1.15424 1.15424 1.15424 1.15424 1.15424 1.15424
          1.15424 1.15424 1.15424 1.15424 1.15424 1.15424 1.15424 1.15424 1.15424 1.15424 1.15424 1.15424
          1.15424 1.15424 1.15424 1.15424 1.15424 1.15424 1.15424 1.15424 1.15424 1.15424 1.15424 1.15424
          1.15424 1.15424 1.15424 1.15424 1.15424 1.15424 1.15424 1.15424 1.15424 1.15424 1.15424
        </DataArray>
        <DataArray type="Float32" Name="mobW" NumberOfComponents="1" format="ascii">
          1123.57 1123.57 1123.57 1123.57 1123.57 1123.57 1123.57 1123.57 1123.57 1123.57 1123.57 1123.57
          1123.57 1123.57 1123.57 1123.57 1123.57 1123.57 1123.57 1123.57 1123.57 1123.57 1123.57 1123.57
          1123.57 1123.57 1123.57 1123.57 1123.57 1123.57 1123.57 1123.57 1123.57 1123.57 1123.57 1123.57
          1123.57 1123.57 1123.57 1123.57 1123.57 1123.57 1123.57 1123.57 1123.31 1123.31 1123.31 1123.31
          1123.31 1123.31 1123.31 1123.31 1123.31 1123.31 1123.31 1122.49 1122.49 1122.49 1122.49 1122.49
          1122.49 1122.49 1122.49 1122.49 1122.49 1122.49 1120.82 1120.82 1120.82 1120.82 1120.82 1120.82
          1120.82 1120.82 1120.82 1120.82 1120.82 1116.25 1116.25 1116.25 1116.25 1116.25 1116.25 1116.25
          1116.25 1116.25 1116.25 1116.25 1076.72 1076.72 1076.72 1076.72 1076.72 1076.72 1076.72 1076.73
          1076.73 1076.73 1076.73 964.222 964.222 964.223 964.224 964.225 964.226 964.227 964.227 964.228
          964.229 964.229 798.22 798.221 798.222 798.223 798.224 798.225 798.227 798.228 798.229 798.23
          798.23 679.046 679.047 679.048 679.049 679.05 679.051 679.052 679.053 679.054 679.055 679.055
          577.276 577.278 577.279 577.28 577.281 577.282 577.284 577.285 577.286 577.286 577.287
        </DataArray>
        <DataArray type="Float32" Name="mobN" NumberOfComponents="1" format="ascii">
          1.31786e-05 1.31783e-05 5.41933e-05 5.42066e-05 1.31729e-05 5.42539e-05 1.35101e-05 5.42769e-05 1.32129e-05 5.4308e-05 1.32141e-05 5.41875e-05
          1.32358e-05 5.3962e-05 1.3077e-05 5.3942e-05 1.32016e-05 5.41683e-05 1.32022e-05 5.4166e-05 1.3202e-05 5.41653e-05 0.000104836 0.000104852
          0.000105008 0.00010474 0.000104776 0.000104762 0.00010506 0.000104955 0.000104772 0.000104761 0.00010476 0.00124822 0.00124833 0.0012488
          0.00124764 0.00124785 0.00124875 0.00124805 0.00124862 0.00124786 0.00124772 0.00124771 0.171243 0.171243 0.171242 0.171242
          0.171242 0.17124 0.171241 0.171239 0.17124 0.171239 0.171239 0.763078 0.763077 0.763076 0.763075 0.763073
          0.763071 0.76307 0.763068 0.763067 0.763066 0.763066 2.00634 2.00634 2.00634 2.00633 2.00633 2.00632
          2.00632 2.00631 2.00631 2.00631 2.00631 5.58684 5.58684 5.58682 5.58678 5.58675 5.58671 5.58667
          5.58664 5.58661 5.58659 5.58658 41.099 41.099 41.0987 41.0985 41.0981 41.0978 41.0975 41.0972
          41.0969 41.0968 41.0967 172.938 172.938 172.937 172.936 172.934 172.933 172.932 172.931 172.93
          172.929 172.929 494.309 494.308 494.305 494.302 494.299 494.295 494.292 494.289 494.286 494.284
          494.283 1074.13 1074.13 1074.13 1074.12 1074.11 1074.1 1074.1 1074.09 1074.08 1074.08 1074.08
          1915.53 1915.53 1915.52 1915.51 1915.49 1915.48 1915.47 1915.46 1915.45 1915.44 1915.44
        </DataArray>
        <DataArray type="Float32" Name="X_liquid^H2O" NumberOfComponents="1" format="ascii">
          0.999978 0.999978 0.999978 0.999978 0.999978 0.999978 0.999978 0.999978 0.999978 0.999978 0.999978 0.999978
          0.999978 0.999978 0.999978 0.999978 0.999978 0.999978 0.999978 0.999978 0.999978 0.999978 0.999978 0.999978
          0.999978 0.999978 0.999978 0.999978 0.999978 0.999978 0.999978 0.999978 0.999978 0.999978 0.999978 0.999978
          0.999978 0.999978 0.999978 0.999978 0.999978 0.999978 0.999978 0.999978 0.999978 0.999978 0.999978 0.999978
          0.999978 0.999978 0.999978 0.999978 0.999978 0.999978 0.999978 0.999978 0.999978 0.999978 0.999978 0.999978
          0.999978 0.999978 0.999978 0.999978 0.999978 0.999978 0.999978 0.999978 0.999978 0.999978 0.999978 0.999978
          0.999978 0.999978 0.999978 0.999978 0.999978 0.999978 0.999978 0.999978 0.999978 0.999978 0.999978 0.999978
          0.999978 0.999978 0.999978 0.999978 0.999978 0.999978 0.999978 0.999978 0.999978 0.999978 0.999978 0.999978
          0.999978 0.999978 0.999978 0.999978 0.999978 0.999978 0.999978 0.999978 0.999978 0.999978 0.999978 0.999978
          0.999978 0.999978 0.999978 0.999978 0.999978 0.999978 0.999978 0.999978 0.999978 0.999978 0.999978 0.999978
          0.999978 0.999978 0.999978 0.999978 0.999978 0.999978 0.999978 0.999978 0.999978 0.999978 0.999978 0.999978
          0.999978 0.999978 0.999978 0.999978 0.999978 0.999978 0.999978 0.999978 0.999978 0.999978 0.999978
        </DataArray>
        <DataArray type="Float32" Name="X_liquid^Air" NumberOfComponents="1" format="ascii">
          2.18068e-05 2.18068e-05 2.17053e-05 2.17053e-05 2.18068e-05 2.17053e-05 2.18068e-05 2.17053e-05 2.18068e-05 2.17053e-05 2.18068e-05 2.17053e-05
          2.18068e-05 2.17053e-05 2.18068e-05 2.17053e-05 2.18068e-05 2.17053e-05 2.18068e-05 2.17053e-05 2.18068e-05 2.17053e-05 2.16206e-05 2.16206e-05
          2.16206e-05 2.16206e-05 2.16206e-05 2.16206e-05 2.16207e-05 2.16206e-05 2.16206e-05 2.16206e-05 2.16206e-05 2.15538e-05 2.15538e-05 2.15538e-05
          2.15538e-05 2.15538e-05 2.15538e-05 2.15538e-05 2.15538e-05 2.15538e-05 2.15538e-05 2.15538e-05 2.15471e-05 2.15471e-05 2.15471e-05 2.15471e-05
          2.15471e-05 2.15471e-05 2.15471e-05 2.15471e-05 2.15471e-05 2.15471e-05 2.15471e-05 2.1547e-05 2.1547e-05 2.1547e-05 2.1547e-05 2.1547e-05
          2.1547e-05 2.1547e-05 2.1547e-05 2.1547e-05 2.1547e-05 2.1547e-05 2.1547e-05 2.1547e-05 2.1547e-05 2.1547e-05 2.1547e-05 2.1547e-05
          2.1547e-05 2.1547e-05 2.1547e-05 2.1547e-05 2.1547e-05 2.1547e-05 2.1547e-05 2.1547e-05 2.1547e-05 2.1547e-05 2.1547e-05 2.1547e-05
          2.1547e-05 2.1547e-05 2.1547e-05 2.1547e-05 2.15469e-05 2.15469e-05 2.15469e-05 2.15469e-05 2.15469e-05 2.15469e-05 2.15469e-05 2.15469e-05
          2.15469e-05 2.15469e-05 2.15469e-05 2.15469e-05 2.15469e-05 2.15469e-05 2.15469e-05 2.15469e-05 2.15469e-05 2.15469e-05 2.15469e-05 2.15469e-05
          2.15469e-05 2.15469e-05 2.15469e-05 2.15469e-05 2.15469e-05 2.15469e-05 2.15469e-05 2.15469e-05 2.15469e-05 2.15469e-05 2.15469e-05 2.15469e-05
          2.15469e-05 2.15469e-05 2.15469e-05 2.15469e-05 2.15469e-05 2.15469e-05 2.15469e-05 2.15469e-05 2.15469e-05 2.15469e-05 2.15469e-05 2.15469e-05
          2.15468e-05 2.15468e-05 2.15468e-05 2.15468e-05 2.15468e-05 2.15468e-05 2.15468e-05 2.15468e-05 2.15468e-05 2.15468e-05 2.15468e-05
        </DataArray>
        <DataArray type="Float32" Name="X_gas^H2O" NumberOfComponents="1" format="ascii">
          0.0197237 0.0197237 0.0198141 0.0198141 0.0197237 0.0198141 0.0197237 0.0198141 0.0197237 0.0198141 0.0197237 0.0198141
          0.0197237 0.0198141 0.0197237 0.0198141 0.0197237 0.0198141 0.0197237 0.0198141 0.0197237 0.0198141 0.0198901 0.0198901
          0.0198901 0.0198901 0.0198901 0.0198901 0.0198901 0.0198901 0.0198901 0.0198901 0.0198901 0.0199506 0.0199506 0.0199506
          0.0199506 0.0199506 0.0199506 0.0199506 0.0199506 0.0199506 0.0199506 0.0199506 0.0199567 0.0199567 0.0199567 0.0199567
          0.0199567 0.0199567 0.0199567 0.0199567 0.0199567 0.0199567 0.0199567 0.0199567 0.0199567 0.0199567 0.0199567 0.0199567
          0.0199567 0.0199567 0.0199567 0.0199567 0.0199567 0.0199567 0.0199567 0.0199567 0.0199567 0.0199567 0.0199567 0.0199567
          0.0199567 0.0199567 0.0199567 0.0199567 0.0199567 0.0199568 0.0199568 0.0199568 0.0199568 0.0199568 0.0199568 0.0199568
          0.0199568 0.0199568 0.0199568 0.0199568 0.0199568 0.0199568 0.0199568 0.0199568 0.0199568 0.0199568 0.0199568 0.0199568
          0.0199568 0.0199568 0.0199568 0.0199568 0.0199568 0.0199568 0.0199568 0.0199568 0.0199568 0.0199568 0.0199568 0.0199568
          0.0199568 0.0199568 0.0199569 0.0199569 0.0199569 0.0199569 0.0199569 0.0199569 0.0199569 0.0199569 0.0199569 0.0199569
          0.0199569 0.0199569 0.0199569 0.0199569 0.0199569 0.0199569 0.0199569 0.0199569 0.0199569 0.0199569 0.0199569 0.0199569
          0.0199569 0.0199569 0.0199569 0.0199569 0.0199569 0.0199569 0.0199569 0.0199569 0.0199569 0.0199569 0.0199569
        </DataArray>
        <DataArray type="Float32" Name="X_gas^Air" NumberOfComponents="1" format="ascii">
          0.980276 0.980276 0.980186 0.980186 0.980276 0.980186 0.980276 0.980186 0.980276 0.980186 0.980276 0.980186
          0.980276 0.980186 0.980276 0.980186 0.980276 0.980186 0.980276 0.980186 0.980276 0.980186 0.98011 0.98011
          0.98011 0.98011 0.98011 0.98011 0.98011 0.98011 0.98011 0.98011 0.98011 0.980049 0.980049 0.980049
          0.980049 0.980049 0.980049 0.980049 0.980049 0.980049 0.980049 0.980049 0.980043 0.980043 0.980043 0.980043
          0.980043 0.980043 0.980043 0.980043 0.980043 0.980043 0.980043 0.980043 0.980043 0.980043 0.980043 0.980043
          0.980043 0.980043 0.980043 0.980043 0.980043 0.980043 0.980043 0.980043 0.980043 0.980043 0.980043 0.980043
          0.980043 0.980043 0.980043 0.980043 0.980043 0.980043 0.980043 0.980043 0.980043 0.980043 0.980043 0.980043
          0.980043 0.980043 0.980043 0.980043 0.980043 0.980043 0.980043 0.980043 0.980043 0.980043 0.980043 0.980043
          0.980043 0.980043 0.980043 0.980043 0.980043 0.980043 0.980043 0.980043 0.980043 0.980043 0.980043 0.980043
          0.980043 0.980043 0.980043 0.980043 0.980043 0.980043 0.980043 0.980043 0.980043 0.980043 0.980043 0.980043
          0.980043 0.980043 0.980043 0.980043 0.980043 0.980043 0.980043 0.980043 0.980043 0.980043 0.980043 0.980043
          0.980043 0.980043 0.980043 0.980043 0.980043 0.980043 0.980043 0.980043 0.980043 0.980043 0.980043
        </DataArray>
        <DataArray type="Float32" Name="x_liquid^H2O" NumberOfComponents="1" format="ascii">
          0.999986 0.999986 0.999986 0.999986 0.999986 0.999986 0.999986 0.999986 0.999986 0.999986 0.999986 0.999986
          0.999986 0.999986 0.999986 0.999986 0.999986 0.999986 0.999986 0.999986 0.999986 0.999986 0.999987 0.999987
          0.999987 0.999987 0.999987 0.999987 0.999987 0.999987 0.999987 0.999987 0.999987 0.999987 0.999987 0.999987
          0.999987 0.999987 0.999987 0.999987 0.999987 0.999987 0.999987 0.999987 0.999987 0.999987 0.999987 0.999987
          0.999987 0.999987 0.999987 0.999987 0.999987 0.999987 0.999987 0.999987 0.999987 0.999987 0.999987 0.999987
          0.999987 0.999987 0.999987 0.999987 0.999987 0.999987 0.999987 0.999987 0.999987 0.999987 0.999987 0.999987
          0.999987 0.999987 0.999987 0.999987 0.999987 0.999987 0.999987 0.999987 0.999987 0.999987 0.999987 0.999987
          0.999987 0.999987 0.999987 0.999987 0.999987 0.999987 0.999987 0.999987 0.999987 0.999987 0.999987 0.999987
          0.999987 0.999987 0.999987 0.999987 0.999987 0.999987 0.999987 0.999987 0.999987 0.999987 0.999987 0.999987
          0.999987 0.999987 0.999987 0.999987 0.999987 0.999987 0.999987 0.999987 0.999987 0.999987 0.999987 0.999987
          0.999987 0.999987 0.999987 0.999987 0.999987 0.999987 0.999987 0.999987 0.999987 0.999987 0.999987 0.999987
          0.999987 0.999987 0.999987 0.999987 0.999987 0.999987 0.999987 0.999987 0.999987 0.999987 0.999987
        </DataArray>
        <DataArray type="Float32" Name="x_liquid^Air" NumberOfComponents="1" format="ascii">
          1.35655e-05 1.35655e-05 1.35023e-05 1.35023e-05 1.35655e-05 1.35023e-05 1.35655e-05 1.35023e-05 1.35655e-05 1.35023e-05 1.35655e-05 1.35023e-05
          1.35655e-05 1.35023e-05 1.35655e-05 1.35023e-05 1.35655e-05 1.35023e-05 1.35655e-05 1.35023e-05 1.35655e-05 1.35023e-05 1.34497e-05 1.34497e-05
          1.34497e-05 1.34497e-05 1.34497e-05 1.34497e-05 1.34497e-05 1.34497e-05 1.34497e-05 1.34497e-05 1.34497e-05 1.34081e-05 1.34081e-05 1.34081e-05
          1.34081e-05 1.34081e-05 1.34081e-05 1.34081e-05 1.34081e-05 1.34081e-05 1.34081e-05 1.34081e-05 1.34039e-05 1.34039e-05 1.34039e-05 1.34039e-05
          1.34039e-05 1.34039e-05 1.34039e-05 1.34039e-05 1.34039e-05 1.34039e-05 1.34039e-05 1.34039e-05 1.34039e-05 1.34039e-05 1.34039e-05 1.34039e-05
          1.34039e-05 1.34039e-05 1.34039e-05 1.34039e-05 1.34039e-05 1.34039e-05 1.34039e-05 1.34039e-05 1.34039e-05 1.34039e-05 1.34039e-05 1.34039e-05
          1.34039e-05 1.34039e-05 1.34039e-05 1.34039e-05 1.34039e-05 1.34039e-05 1.34039e-05 1.34039e-05 1.34039e-05 1.34039e-05 1.34039e-05 1.34039e-05
          1.34039e-05 1.34039e-05 1.34039e-05 1.34039e-05 1.34038e-05 1.34038e-05 1.34038e-05 1.34038e-05 1.34038e-05 1.34038e-05 1.34038e-05 1.34038e-05
          1.34038e-05 1.34038e-05 1.34038e-05 1.34038e-05 1.34038e-05 1.34038e-05 1.34038e-05 1.34038e-05 1.34038e-05 1.34038e-05 1.34038e-05 1.34038e-05
          1.34038e-05 1.34038e-05 1.34038e-05 1.34038e-05 1.34038e-05 1.34038e-05 1.34038e-05 1.34038e-05 1.34038e-05 1.34038e-05 1.34038e-05 1.34038e-05
          1.34038e-05 1.34038e-05 1.34038e-05 1.34038e-05 1.34038e-05 1.34038e-05 1.34038e-05 1.34038e-05 1.34038e-05 1.34038e-05 1.34038e-05 1.34038e-05
          1.34038e-05 1.34038e-05 1.34038e-05 1.34038e-05 1.34038e-05 1.34038e-05 1.34038e-05 1.34038e-05 1.34038e-05 1.34038e-05 1.34038e-05
        </DataArray>
        <DataArray type="Float32" Name="x_gas^H2O" NumberOfComponents="1" format="ascii">
          0.031331 0.031331 0.031473 0.031473 0.031331 0.031473 0.031331 0.031473 0.031331 0.031473 0.031331 0.031473
          0.031331 0.031473 0.0313311 0.031473 0.031331 0.031473 0.031331 0.031473 0.031331 0.031473 0.0315923 0.0315923
          0.0315923 0.0315923 0.0315923 0.0315923 0.0315923 0.0315923 0.0315923 0.0315923 0.0315923 0.0316872 0.0316872 0.0316872
          0.0316872 0.0316872 0.0316872 0.0316872 0.0316872 0.0316872 0.0316872 0.0316872 0.0316967 0.0316967 0.0316967 0.0316967
          0.0316967 0.0316967 0.0316967 0.0316967 0.0316967 0.0316967 0.0316967 0.0316968 0.0316968 0.0316968 0.0316968 0.0316968
          0.0316968 0.0316968 0.0316968 0.0316968 0.0316968 0.0316968 0.0316968 0.0316968 0.0316968 0.0316968 0.0316968 0.0316968
          0.0316968 0.0316968 0.0316968 0.0316968 0.0316968 0.0316969 0.0316969 0.0316969 0.0316969 0.0316969 0.0316969 0.0316969
          0.0316969 0.0316969 0.0316969 0.0316969 0.0316969 0.0316969 0.0316969 0.0316969 0.0316969 0.0316969 0.0316969 0.0316969
          0.0316969 0.0316969 0.0316969 0.031697 0.031697 0.031697 0.031697 0.031697 0.031697 0.031697 0.031697 0.031697
          0.031697 0.031697 0.031697 0.031697 0.031697 0.031697 0.031697 0.031697 0.031697 0.031697 0.031697 0.031697
          0.031697 0.031697 0.031697 0.031697 0.031697 0.031697 0.031697 0.031697 0.031697 0.031697 0.031697 0.031697
          0.031697 0.031697 0.031697 0.031697 0.031697 0.031697 0.031697 0.031697 0.031697 0.031697 0.031697
        </DataArray>
        <DataArray type="Float32" Name="x_gas^Air" NumberOfComponents="1" format="ascii">
          0.968669 0.968669 0.968527 0.968527 0.968669 0.968527 0.968669 0.968527 0.968669 0.968527 0.968669 0.968527
          0.968669 0.968527 0.968669 0.968527 0.968669 0.968527 0.968669 0.968527 0.968669 0.968527 0.968408 0.968408
          0.968408 0.968408 0.968408 0.968408 0.968408 0.968408 0.968408 0.968408 0.968408 0.968313 0.968313 0.968313
          0.968313 0.968313 0.968313 0.968313 0.968313 0.968313 0.968313 0.968313 0.968303 0.968303 0.968303 0.968303
          0.968303 0.968303 0.968303 0.968303 0.968303 0.968303 0.968303 0.968303 0.968303 0.968303 0.968303 0.968303
          0.968303 0.968303 0.968303 0.968303 0.968303 0.968303 0.968303 0.968303 0.968303 0.968303 0.968303 0.968303
          0.968303 0.968303 0.968303 0.968303 0.968303 0.968303 0.968303 0.968303 0.968303 0.968303 0.968303 0.968303
          0.968303 0.968303 0.968303 0.968303 0.968303 0.968303 0.968303 0.968303 0.968303 0.968303 0.968303 0.968303
          0.968303 0.968303 0.968303 0.968303 0.968303 0.968303 0.968303 0.968303 0.968303 0.968303 0.968303 0.968303
          0.968303 0.968303 0.968303 0.968303 0.968303 0.968303 0.968303 0.968303 0.968303 0.968303 0.968303 0.968303
          0.968303 0.968303 0.968303 0.968303 0.968303 0.968303 0.968303 0.968303 0.968303 0.968303 0.968303 0.968303
          0.968303 0.968303 0.968303 0.968303 0.968303 0.968303 0.968303 0.968303 0.968303 0.968303 0.968303
        </DataArray>
        <DataArray type="Float32" Name="porosity" NumberOfComponents="1" format="ascii">
          0.41 0.41 0.41 0.41 0.41 0.41 0.41 0.41 0.41 0.41 0.41 0.41
          0.41 0.41 0.41 0.41 0.41 0.41 0.41 0.41 0.41 0.41 0.41 0.41
          0.41 0.41 0.41 0.41 0.41 0.41 0.41 0.41 0.41 0.41 0.41 0.41
          0.41 0.41 0.41 0.41 0.41 0.41 0.41 0.41 0.41 0.41 0.41 0.41
          0.41 0.41 0.41 0.41 0.41 0.41 0.41 0.41 0.41 0.41 0.41 0.41
          0.41 0.41 0.41 0.41 0.41 0.41 0.41 0.41 0.41 0.41 0.41 0.41
          0.41 0.41 0.41 0.41 0.41 0.41 0.41 0.41 0.41 0.41 0.41 0.41
          0.41 0.41 0.41 0.41 0.41 0.41 0.41 0.41 0.41 0.41 0.41 0.41
          0.41 0.41 0.41 0.41 0.41 0.41 0.41 0.41 0.41 0.41 0.41 0.41
          0.41 0.41 0.41 0.41 0.41 0.41 0.41 0.41 0.41 0.41 0.41 0.41
          0.41 0.41 0.41 0.41 0.41 0.41 0.41 0.41 0.41 0.41 0.41 0.41
          0.41 0.41 0.41 0.41 0.41 0.41 0.41 0.41 0.41 0.41 0.41
        </DataArray>
        <DataArray type="Float32" Name="temperature" NumberOfComponents="1" format="ascii">
          298.15 298.15 298.15 298.15 298.15 298.15 298.15 298.15 298.15 298.15 298.15 298.15
          298.15 298.15 298.15 298.15 298.15 298.15 298.15 298.15 298.15 298.15 298.15 298.15
          298.15 298.15 298.15 298.15 298.15 298.15 298.15 298.15 298.15 298.15 298.15 298.15
          298.15 298.15 298.15 298.15 298.15 298.15 298.15 298.15 298.15 298.15 298.15 298.15
          298.15 298.15 298.15 298.15 298.15 298.15 298.15 298.15 298.15 298.15 298.15 298.15
          298.15 298.15 298.15 298.15 298.15 298.15 298.15 298.15 298.15 298.15 298.15 298.15
          298.15 298.15 298.15 298.15 298.15 298.15 298.15 298.15 298.15 298.15 298.15 298.15
          298.15 298.15 298.15 298.15 298.15 298.15 298.15 298.15 298.15 298.15 298.15 298.15
          298.15 298.15 298.15 298.15 298.15 298.15 298.15 298.15 298.15 298.15 298.15 298.15
          298.15 298.15 298.15 298.15 298.15 298.15 298.15 298.15 298.15 298.15 298.15 298.15
          298.15 298.15 298.15 298.15 298.15 298.15 298.15 298.15 298.15 298.15 298.15 298.15
          298.15 298.15 298.15 298.15 298.15 298.15 298.15 298.15 298.15 298.15 298.15
        </DataArray>
        <DataArray type="Float32" Name="phase presence" NumberOfComponents="1" format="ascii">
          3 3 3 3 3 3 3 3 3 3 3 3
          3 3 3 3 3 3 3 3 3 3 3 3
          3 3 3 3 3 3 3 3 3 3 3 3
          3 3 3 3 3 3 3 3 3 3 3 3
          3 3 3 3 3 3 3 3 3 3 3 3
          3 3 3 3 3 3 3 3 3 3 3 3
          3 3 3 3 3 3 3 3 3 3 3 3
          3 3 3 3 3 3 3 3 3 3 3 3
          3 3 3 3 3 3 3 3 3 3 3 3
          3 3 3 3 3 3 3 3 3 3 3 3
          3 3 3 3 3 3 3 3 3 3 3 3
          3 3 3 3 3 3 3 3 3 3 3
        </DataArray>
        <DataArray type="Float32" Name="velocityW" NumberOfComponents="3" format="ascii">
          -9.02289e-11 1.535e-10 0 -1.76444e-10 1.45133e-10 0 -1.05676e-10 2.99626e-10 0 -2.06015e-10 2.81891e-10 0
          -3.34647e-10 1.21161e-10 0 -3.91221e-10 2.30887e-10 0 -4.58701e-10 8.27743e-11 0 -5.38492e-10 1.50887e-10 0
          -5.634e-10 3.86321e-11 0 -6.33856e-10 4.99678e-11 0 -5.63444e-10 8.54657e-12 0 -6.56601e-10 -4.43328e-11 0
          -5.45136e-10 -6.23664e-11 0 -6.33702e-10 -1.56494e-10 0 -4.55145e-10 -9.25473e-11 0 -5.28766e-10 -2.37906e-10 0
          -2.94785e-10 -1.48323e-10 0 -3.68133e-10 -3.2748e-10 0 -1.73855e-10 -1.75029e-10 0 -2.01475e-10 -3.77744e-10 0
          -8.90109e-11 -1.82851e-10 0 -1.03198e-10 -3.93982e-10 0 -1.48255e-10 6.14267e-10 0 -2.88411e-10 5.75781e-10 0
          -5.46293e-10 4.65292e-10 0 -7.57132e-10 2.94935e-10 0 -8.7572e-10 7.97767e-11 0 -9.00192e-10 -1.39138e-10 0
          -8.58174e-10 -3.59407e-10 0 -7.28078e-10 -5.52489e-10 0 -5.25098e-10 -7.13821e-10 0 -2.76393e-10 -8.14608e-10 0
          -1.41588e-10 -8.48915e-10 0 -2.14265e-10 9.9934e-10 0 -4.15828e-10 9.34631e-10 0 -7.8413e-10 7.50089e-10 0