<?xml version="1.0"?>
<VTKFile type="UnstructuredGrid" version="0.1" byte_order="LittleEndian">
  <UnstructuredGrid>
    <Piece NumberOfCells="575" NumberOfPoints="624">
      <PointData Scalars="Sn" Vectors="velocityW">
        <DataArray type="Float32" Name="Sn" NumberOfComponents="1" format="ascii">
          0.0100116 0.0100116 0.0100225 0.0100225 0.0100116 0.0100225 0.0100115 0.0100225 0.0100115 0.0100225 0.0100115 0.0100225
          0.0100116 0.0100225 0.0100116 0.0100225 0.0100115 0.0100225 0.0100116 0.0100226 0.0100117 0.0100225 0.0100117 0.0100226
          0.0100132 0.0100228 0.0100105 0.0100226 0.0100109 0.0100228 0.0100113 0.0100219 0.0100133 0.010021 0.0100137 0.0100208
          0.0100076 0.0100245 0.0100112 0.0100226 0.0100112 0.0100221 0.0100085 0.0100234 0.0100115 0.0100225 0.0100116 0.0100225
          0.0100116 0.0100225 0.0100116 0.0100225 0.0100304 0.0100304 0.0100304 0.0100304 0.0100304 0.0100304 0.0100304 0.0100304
          0.0100304 0.0100304 0.0100305 0.0100305 0.0100303 0.0100308 0.0100305 0.0100308 0.0100301 0.0100301 0.0100308 0.0100305
          0.0100304 0.0100309 0.0100304 0.0100304 0.0100304 0.0100304 0.010037 0.010037 0.010037 0.010037 0.010037 0.010037
          0.010037 0.010037 0.010037 0.010037 0.010037 0.0100369 0.0100369 0.0100372 0.0100369 0.0100371 0.0100371 0.0100371
          0.010037 0.010037 0.010037 0.0100372 0.010037 0.0100369 0.0100369 0.0100369 0.0100428 0.0100428 0.0100428 0.0100428
          0.0100428 0.0100428 0.0100428 0.0100428 0.0100428 0.0100428 0.0100428 0.0100429 0.0100426 0.0100433 0.0100429 0.0100429
          0.010043 0.010043 0.0100427 0.0100428 0.0100429 0.0100429 0.0100428 0.0100428 0.0100428 0.0100428 0.0100543 0.0100543
          0.0100543 0.0100543 0.0100543 0.0100543 0.0100543 0.0100543 0.0100543 0.0100543 0.0100543 0.0100543 0.0100547 0.010054
          0.0100543 0.0100543 0.0100544 0.0100544 0.0100542 0.0100543 0.0100543 0.0100543 0.0100542 0.0100542 0.0100542 0.0100542
          0.0102838 0.0102838 0.0102838 0.0102838 0.0102838 0.0102838 0.0102838 0.0102837 0.0102837 0.0102837 0.0102837 0.0102837
          0.0102836 0.0102837 0.0102837 0.0102838 0.0102838 0.0102838 0.0102838 0.0102837 0.0102837 0.0102837 0.0102837 0.0102837
          0.0102837 0.0102837 0.0111968 0.0111968 0.0111968 0.0111968 0.0111968 0.0111968 0.0111968 0.0111968 0.0111968 0.0111968
          0.0111968 0.0111968 0.0111968 0.0111968 0.0111968 0.0111968 0.0111968 0.0111968 0.0111968 0.0111968 0.0111968 0.0111968
          0.0111968 0.0111968 0.0111968 0.0111968 0.0121397 0.0121397 0.0121397 0.0121397 0.0121397 0.0121397 0.0121397 0.0121397
          0.0121397 0.0121397 0.0121397 0.0121397 0.0121397 0.0121397 0.0121397 0.0121397 0.0121397 0.0121397 0.0121397 0.0121397
          0.0121397 0.0121397 0.0121397 0.0121397 0.0121397 0.0121397 0.0131208 0.0131208 0.0131208 0.0131208 0.0131208 0.0131208
          0.0131208 0.0131208 0.0131208 0.0131208 0.0131208 0.0131208 0.0131208 0.0131208 0.0131208 0.0131208 0.0131208 0.0131208
          0.0131208 0.0131208 0.0131208 0.0131208 0.0131208 0.0131208 0.0131208 0.0131208 0.0141649 0.0141649 0.0141649 0.0141649
          0.0141649 0.0141649 0.0141649 0.0141649 0.0141649 0.0141649 0.0141649 0.0141649 0.0141649 0.0141649 0.0141649 0.0141649
          0.0141649 0.0141649 0.0141649 0.0141649 0.0141649 0.0141649 0.0141649 0.0141649 0.0141649 0.0141649 0.0153173 0.0153173
          0.0153173 0.0153173 0.0153173 0.0153173 0.0153173 0.0153173 0.0153173 0.0153173 0.0153173 0.0153173 0.0153173 0.0153173
          0.0153173 0.0153173 0.0153173 0.0153173 0.0153173 0.0153173 0.0153173 0.0153173 0.0153173 0.0153173 0.0153172 0.0153172
          0.016681 0.016681 0.016681 0.016681 0.016681 0.016681 0.016681 0.016681 0.0166809 0.0166809 0.0166809 0.0166809
          0.0166809 0.0166809 0.0166809 0.0166809 0.0166809 0.0166809 0.0166809 0.0166809 0.0166809 0.0166809 0.0166809 0.0166809
          0.0166809 0.0166809 0.0186488 0.0186488 0.0186488 0.0186488 0.0186488 0.0186488 0.0186488 0.0186488 0.0186487 0.0186487
          0.0186487 0.0186487 0.0186487 0.0186487 0.0186486 0.0186486 0.0186486 0.0186486 0.0186486 0.0186486 0.0186486 0.0186486
          0.0186485 0.0186485 0.0186485 0.0186485 0.0245636 0.0245636 0.0245635 0.0245635 0.0245635 0.0245634 0.0245634 0.0245633
          0.0245633 0.0245632 0.0245631 0.0245631 0.024563 0.024563 0.0245629 0.0245629 0.0245628 0.0245628 0.0245628 0.0245627
          0.0245627 0.0245627 0.0245626 0.0245626 0.0245626 0.0245626 0.0337904 0.0337904 0.0337904 0.0337903 0.0337903 0.0337902
          0.0337901 0.03379 0.0337899 0.0337898 0.0337897 0.0337896 0.0337896 0.0337895 0.0337894 0.0337893 0.0337893 0.0337892
          0.0337891 0.0337891 0.033789 0.033789 0.0337889 0.0337889 0.0337889 0.0337889 0.0459266 0.0459266 0.0459266 0.0459265
          0.0459264 0.0459262 0.0459261 0.045926 0.0459258 0.0459257 0.0459256 0.0459254 0.0459253 0.0459252 0.0459251 0.045925
          0.0459249 0.0459248 0.0459247 0.0459246 0.0459245 0.0459245 0.0459244 0.0459243 0.0459243 0.0459243 0.0609014 0.0609014
          0.0609013 0.0609011 0.060901 0.0609008 0.0609006 0.0609004 0.0609002 0.0609 0.0608998 0.0608997 0.0608995 0.0608993
          0.0608992 0.060899 0.0608989 0.0608987 0.0608986 0.0608985 0.0608984 0.0608983 0.0608982 0.0608982 0.0608981 0.0608981
          0.0784244 0.0784243 0.0784242 0.078424 0.0784238 0.0784235 0.0784233 0.078423 0.0784227 0.0784225 0.0784222 0.078422
          0.0784217 0.0784215 0.0784213 0.0784211 0.0784209 0.0784208 0.0784206 0.0784205 0.0784203 0.0784202 0.0784201 0.07842
          0.0784199 0.0784199 0.0980397 0.0980396 0.0980394 0.0980391 0.0980388 0.0980385 0.0980381 0.0980378 0.0980375 0.0980371
          0.0980368 0.0980365 0.0980362 0.0980359 0.0980356 0.0980354 0.0980352 0.0980349 0.0980347 0.0980346 0.0980344 0.0980342
          0.0980341 0.098034 0.0980339 0.0980339 0.119196 0.119195 0.119195 0.119195 0.119194 0.119194 0.119193 0.119193
          0.119193 0.119192 0.119192 0.119191 0.119191 0.119191 0.11919 0.11919 0.11919 0.11919 0.119189 0.119189
          0.119189 0.119189 0.119189 0.119188 0.119188 0.119188 0.141313 0.141313 0.141312 0.141312 0.141311 0.141311
          0.14131 0.14131 0.141309 0.141309 0.141308 0.141308 0.141308 0.141307 0.141307 0.141306 0.141306 0.141306
          0.141305 0.141305 0.141305 0.141305 0.141305 0.141304 0.141304 0.141304 0.163843 0.163842 0.163842 0.163841
          0.163841 0.16384 0.163839 0.163839 0.163838 0.163837 0.163837 0.163836 0.163836 0.163835 0.163835 0.163835
          0.163834 0.163834 0.163833 0.163833 0.163833 0.163833 0.163832 0.163832 0.163832 0.163832 0.186301 0.186301
          0.1863 0.186299 0.186299 0.186298 0.186297 0.186296 0.186296 0.186295 0.186294 0.186294 0.186293 0.186293
          0.186292 0.186292 0.186291 0.186291 0.186291 0.18629 0.18629 0.18629 0.186289 0.186289 0.186289 0.186289
        </DataArray>
        <DataArray type="Float32" Name="Sw" NumberOfComponents="1" format="ascii">
          0.989988 0.989988 0.989977 0.989977 0.989988 0.989977 0.989988 0.989977 0.989988 0.989977 0.989988 0.989977
          0.989988 0.989977 0.989988 0.989977 0.989989 0.989977 0.989988 0.989977 0.989988 0.989977 0.989988 0.989977
          0.989987 0.989977 0.98999 0.989977 0.989989 0.989977 0.989989 0.989978 0.989987 0.989979 0.989986 0.989979
          0.989992 0.989976 0.989989 0.989977 0.989989 0.989978 0.989991 0.989977 0.989988 0.989977 0.989988 0.989977
          0.989988 0.989977 0.989988 0.989977 0.98997 0.98997 0.98997 0.98997 0.98997 0.98997 0.98997 0.98997
          0.98997 0.98997 0.98997 0.989969 0.98997 0.989969 0.989969 0.989969 0.98997 0.98997 0.989969 0.989969
          0.98997 0.989969 0.98997 0.98997 0.98997 0.98997 0.989963 0.989963 0.989963 0.989963 0.989963 0.989963
          0.989963 0.989963 0.989963 0.989963 0.989963 0.989963 0.989963 0.989963 0.989963 0.989963 0.989963 0.989963
          0.989963 0.989963 0.989963 0.989963 0.989963 0.989963 0.989963 0.989963 0.989957 0.989957 0.989957 0.989957
          0.989957 0.989957 0.989957 0.989957 0.989957 0.989957 0.989957 0.989957 0.989957 0.989957 0.989957 0.989957
          0.989957 0.989957 0.989957 0.989957 0.989957 0.989957 0.989957 0.989957 0.989957 0.989957 0.989946 0.989946
          0.989946 0.989946 0.989946 0.989946 0.989946 0.989946 0.989946 0.989946 0.989946 0.989946 0.989945 0.989946
          0.989946 0.989946 0.989946 0.989946 0.989946 0.989946 0.989946 0.989946 0.989946 0.989946 0.989946 0.989946
          0.989716 0.989716 0.989716 0.989716 0.989716 0.989716 0.989716 0.989716 0.989716 0.989716 0.989716 0.989716
          0.989716 0.989716 0.989716 0.989716 0.989716 0.989716 0.989716 0.989716 0.989716 0.989716 0.989716 0.989716
          0.989716 0.989716 0.988803 0.988803 0.988803 0.988803 0.988803 0.988803 0.988803 0.988803 0.988803 0.988803
          0.988803 0.988803 0.988803 0.988803 0.988803 0.988803 0.988803 0.988803 0.988803 0.988803 0.988803 0.988803
          0.988803 0.988803 0.988803 0.988803 0.98786 0.98786 0.98786 0.98786 0.98786 0.98786 0.98786 0.98786
          0.98786 0.98786 0.98786 0.98786 0.98786 0.98786 0.98786 0.98786 0.98786 0.98786 0.98786 0.98786
          0.98786 0.98786 0.98786 0.98786 0.98786 0.98786 0.986879 0.986879 0.986879 0.986879 0.986879 0.986879
          0.986879 0.986879 0.986879 0.986879 0.986879 0.986879 0.986879 0.986879 0.986879 0.986879 0.986879 0.986879
          0.986879 0.986879 0.986879 0.986879 0.986879 0.986879 0.986879 0.986879 0.985835 0.985835 0.985835 0.985835
          0.985835 0.985835 0.985835 0.985835 0.985835 0.985835 0.985835 0.985835 0.985835 0.985835 0.985835 0.985835
          0.985835 0.985835 0.985835 0.985835 0.985835 0.985835 0.985835 0.985835 0.985835 0.985835 0.984683 0.984683
          0.984683 0.984683 0.984683 0.984683 0.984683 0.984683 0.984683 0.984683 0.984683 0.984683 0.984683 0.984683
          0.984683 0.984683 0.984683 0.984683 0.984683 0.984683 0.984683 0.984683 0.984683 0.984683 0.984683 0.984683
          0.983319 0.983319 0.983319 0.983319 0.983319 0.983319 0.983319 0.983319 0.983319 0.983319 0.983319 0.983319
          0.983319 0.983319 0.983319 0.983319 0.983319 0.983319 0.983319 0.983319 0.983319 0.983319 0.983319 0.983319
          0.983319 0.983319 0.981351 0.981351 0.981351 0.981351 0.981351 0.981351 0.981351 0.981351 0.981351 0.981351
          0.981351 0.981351 0.981351 0.981351 0.981351 0.981351 0.981351 0.981351 0.981351 0.981351 0.981351 0.981351
          0.981351 0.981351 0.981351 0.981351 0.975436 0.975436 0.975436 0.975437 0.975437 0.975437 0.975437 0.975437
          0.975437 0.975437 0.975437 0.975437 0.975437 0.975437 0.975437 0.975437 0.975437 0.975437 0.975437 0.975437
          0.975437 0.975437 0.975437 0.975437 0.975437 0.975437 0.96621 0.96621 0.96621 0.96621 0.96621 0.96621
          0.96621 0.96621 0.96621 0.96621 0.96621 0.96621 0.96621 0.966211 0.966211 0.966211 0.966211 0.966211
          0.966211 0.966211 0.966211 0.966211 0.966211 0.966211 0.966211 0.966211 0.954073 0.954073 0.954073 0.954074
          0.954074 0.954074 0.954074 0.954074 0.954074 0.954074 0.954074 0.954075 0.954075 0.954075 0.954075 0.954075
          0.954075 0.954075 0.954075 0.954075 0.954076 0.954076 0.954076 0.954076 0.954076 0.954076 0.939099 0.939099
          0.939099 0.939099 0.939099 0.939099 0.939099 0.9391 0.9391 0.9391 0.9391 0.9391 0.939101 0.939101
          0.939101 0.939101 0.939101 0.939101 0.939101 0.939102 0.939102 0.939102 0.939102 0.939102 0.939102 0.939102
          0.921576 0.921576 0.921576 0.921576 0.921576 0.921576 0.921577 0.921577 0.921577 0.921578 0.921578 0.921578
          0.921578 0.921578 0.921579 0.921579 0.921579 0.921579 0.921579 0.92158 0.92158 0.92158 0.92158 0.92158
          0.92158 0.92158 0.90196 0.90196 0.901961 0.901961 0.901961 0.901962 0.901962 0.901962 0.901963 0.901963
          0.901963 0.901964 0.901964 0.901964 0.901964 0.901965 0.901965 0.901965 0.901965 0.901965 0.901966 0.901966
          0.901966 0.901966 0.901966 0.901966 0.880804 0.880805 0.880805 0.880805 0.880806 0.880806 0.880807 0.880807
          0.880807 0.880808 0.880808 0.880809 0.880809 0.880809 0.88081 0.88081 0.88081 0.88081 0.880811 0.880811
          0.880811 0.880811 0.880811 0.880812 0.880812 0.880812 0.858687 0.858687 0.858688 0.858688 0.858689 0.858689
          0.85869 0.85869 0.858691 0.858691 0.858692 0.858692 0.858692 0.858693 0.858693 0.858694 0.858694 0.858694
          0.858695 0.858695 0.858695 0.858695 0.858695 0.858696 0.858696 0.858696 0.836157 0.836158 0.836158 0.836159
          0.836159 0.83616 0.836161 0.836161 0.836162 0.836163 0.836163 0.836164 0.836164 0.836165 0.836165 0.836165
          0.836166 0.836166 0.836167 0.836167 0.836167 0.836167 0.836168 0.836168 0.836168 0.836168 0.813699 0.813699
          0.8137 0.813701 0.813701 0.813702 0.813703 0.813704 0.813704 0.813705 0.813706 0.813706 0.813707 0.813707
          0.813708 0.813708 0.813709 0.813709 0.813709 0.81371 0.81371 0.81371 0.813711 0.813711 0.813711 0.813711
        </DataArray>
        <DataArray type="Float32" Name="pn" NumberOfComponents="1" format="ascii">
          101156 101156 100908 100908 101156 100908 101156 100908 101156 100908 101156 100908
          101156 100908 101156 100908 101156 100908 101156 100908 101156 100908 101156 100908
          101157 100908 101156 100908 101156 100908 101156 100908 101157 100908 101157 100908
          101156 100908 101156 100908 101156 100908 101156 100908 101156 100908 101156 100908
          101156 100908 101156 100908 100682 100682 100682 100682 100682 100682 100682 100682
          100682 100682 100682 100682 100682 100682 100682 100682 100682 100682 100682 100682
          100682 100682 100682 100682 100682 100682 100476 100476 100476 100476 100476 100476
          100476 100476 100476 100476 100476 100476 100476 100476 100476 100476 100476 100476
          100476 100476 100476 100476 100476 100476 100476 100476 100289 100289 100289 100289
          100289 100289 100289 100289 100289 100289 100289 100289 100289 100289 100289 100289
          100289 100289 100289 100289 100289 100289 100289 100289 100289 100289 100120 100120
          100120 100120 100120 100120 100120 100120 100120 100120 100120 100120 100120 100120
          100120 100120 100120 100120 100120 100120 100120 100120 100120 100120 100120 100120
          100002 100002 100002 100002 100002 100002 100002 100002 100002 100002 100002 100002
          100002 100002 100002 100002 100002 100002 100002 100002 100002 100002 100002 100002
          100002 100002 100001 100001 100001 100001 100001 100001 100001 100001 100001 100001
          100001 100001 100001 100001 100001 100001 100001 100001 100001 100001 100001 100001
          100001 100001 100001 100001 100001 100001 100001 100001 100001 100001 100001 100001
          100001 100001 100001 100001 100001 100001 100001 100001 100001 100001 100001 100001
          100001 100001 100001 100001 100001 100001 100001 100001 100001 100001 100001 100001
          100001 100001 100001 100001 100001 100001 100001 100001 100001 100001 100001 100001
          100001 100001 100001 100001 100001 100001 100001 100001 100001 100001 100001 100001
          100001 100001 100001 100001 100001 100001 100001 100001 100001 100001 100001 100001
          100001 100001 100001 100001 100001 100001 100001 100001 100001 100001 100001 100001
          100001 100001 100001 100001 100001 100001 100001 100001 100001 100001 100001 100001
          100001 100001 100001 100001 100001 100001 100001 100001 100001 100001 100001 100001
          100001 100001 100001 100001 100001 100001 100001 100001 100001 100001 100001 100001
          100001 100001 100001 100001 100001 100001 100001 100001 100001 100001 100001 100001
          100001 100001 100001 100001 100001 100001 100001 100001 100001 100001 100001 100001
          100001 100001 100001 100001 100001 100001 100001 100001 100001 100001 100001 100001
          100001 100001 100001 100001 100000 100000 100000 100000 100000 100000 100000 100000
          100000 100000 100000 100000 100000 100000 100000 100000 100000 100000 100000 100000
          100000 100000 100000 100000 100000 100000 100000 100000 100000 100000 100000 100000
          100000 100000 100000 100000 100000 100000 100000 100000 100000 100000 100000 100000
          100000 100000 100000 100000 100000 100000 100000 100000 100000 100000 100000 100000
          100000 100000 100000 100000 100000 100000 100000 100000 100000 100000 100000 100000
          100000 100000 100000 100000 100000 100000 100000 100000 100000 100000 100000 100000
          100000 100000 100000 100000 100000 100000 100000 100000 100000 100000 100000 100000
          100000 100000 100000 100000 100000 100000 100000 100000 100000 100000 100000 100000
          100000 100000 100000 100000 100000 100000 100000 100000 100000 100000 100000 100000
          100000 100000 100000 100000 100000 100000 100000 100000 100000 100000 100000 100000
          100000 100000 100000 100000 100000 100000 100000 100000 100000 100000 100000 100000
          100000 100000 100000 100000 100000 100000 100000 100000 100000 100000 100000 100000
          100000 100000 100000 100000 100000 100000 100000 100000 100000 100000 100000 100000
          100000 100000 100000 100000 100000 100000 100000 100000 100000 100000 100000 100000
          100000 100000 100000 100000 100000 100000 100000 100000 100000 100000 100000 100000
          100000 100000 100000 100000 100000 100000 100000 100000 100000 100000 100000 100000
          100000 100000 100000 100000 100000 100000 100000 100000 100000 100000 100000 100000
          100000 100000 100000 100000 100000 100000 100000 100000 100000 100000 100000 100000
          100000 100000 100000 100000 100000 100000 100000 100000 100000 100000 100000 100000
          100000 100000 100000 100000 100000 100000 100000 100000 100000 100000 100000 100000
          100000 100000 100000 100000 100000 100000 100000 100000 100000 100000 100000 100000
        </DataArray>
        <DataArray type="Float32" Name="pw" NumberOfComponents="1" format="ascii">
          101154 101154 100904 100904 101154 100904 101154 100904 101154 100904 101154 100904
          101154 100904 101154 100904 101154 100904 101154 100904 101154 100904 101154 100904
          101154 100904 101154 100904 101154 100904 101154 100904 101154 100904 101154 100904
          101154 100904 101154 100904 101154 100904 101154 100904 101154 100904 101154 100904
          101154 100904 101154 100904 100677 100677 100677 100677 100677 100677 100677 100677
          100677 100677 100677 100677 100677 100677 100677 100677 100677 100677 100677 100677
          100677 100677 100677 100677 100677 100677 100470 100470 100470 100470 100470 100470
          100470 100470 100470 100470 100470 100470 100470 100470 100470 100470 100470 100470
          100470 100470 100470 100470 100470 100470 100470 100470 100282 100282 100282 100282
          100282 100282 100282 100282 100282 100282 100282 100282 100282 100282 100282 100282
          100282 100282 100282 100282 100282 100282 100282 100282 100282 100282 100111 100111
          100111 100111 100111 100111 100111 100111 100111 100111 100111 100111 100111 100111
          100111 100111 100111 100111 100111 100111 100111 100111 100111 100111 100111 100111
          99955.6 99955.6 99955.6 99955.6 99955.6 99955.6 99955.6 99955.6 99955.6 99955.6 99955.6 99955.6
          99955.6 99955.6 99955.6 99955.6 99955.6 99955.6 99955.6 99955.6 99955.6 99955.6 99955.6 99955.6
          99955.6 99955.6 99814.3 99814.3 99814.3 99814.3 99814.3 99814.3 99814.3 99814.3 99814.3 99814.4
          99814.4 99814.4 99814.4 99814.4 99814.4 99814.4 99814.4 99814.4 99814.4 99814.4 99814.4 99814.4
          99814.4 99814.4 99814.4 99814.4 99685.9 99685.9 99685.9 99685.9 99685.9 99685.9 99685.9 99685.9
          99685.9 99685.9 99685.9 99685.9 99685.9 99685.9 99685.9 99685.9 99685.9 99685.9 99685.9 99685.9
          99685.9 99685.9 99685.9 99685.9 99685.9 99685.9 99569.2 99569.2 99569.2 99569.2 99569.2 99569.2
          99569.2 99569.2 99569.2 99569.2 99569.2 99569.2 99569.2 99569.2 99569.2 99569.2 99569.2 99569.2
          99569.2 99569.2 99569.2 99569.2 99569.2 99569.2 99569.2 99569.2 99463.1 99463.1 99463.1 99463.1
          99463.1 99463.1 99463.1 99463.1 99463.1 99463.1 99463.1 99463.1 99463.1 99463.1 99463.1 99463.1
          99463.1 99463.1 99463.1 99463.1 99463.1 99463.1 99463.1 99463.1 99463.1 99463.1 99366.6 99366.6
          99366.6 99366.6 99366.6 99366.6 99366.6 99366.6 99366.6 99366.6 99366.6 99366.6 99366.6 99366.6
          99366.6 99366.6 99366.6 99366.6 99366.6 99366.6 99366.6 99366.6 99366.6 99366.6 99366.6 99366.6
          99278.9 99278.9 99278.9 99278.9 99278.9 99278.9 99278.9 99278.9 99278.9 99278.9 99278.9 99278.9
          99278.9 99278.9 99278.9 99278.9 99278.9 99278.9 99278.9 99278.9 99278.9 99278.9 99278.9 99278.9
          99278.9 99278.9 99199.1 99199.1 99199.1 99199.1 99199.1 99199.1 99199.1 99199.1 99199.1 99199.1
          99199.1 99199.1 99199.1 99199.1 99199.1 99199.1 99199.1 99199.1 99199.1 99199.1 99199.1 99199.1
          99199.1 99199.1 99199.1 99199.1 99126.7 99126.7 99126.7 99126.7 99126.7 99126.7 99126.7 99126.7
          99126.7 99126.7 99126.7 99126.7 99126.7 99126.7 99126.7 99126.7 99126.7 99126.7 99126.7 99126.7
          99126.7 99126.7 99126.7 99126.7 99126.7 99126.7 99060.8 99060.8 99060.8 99060.8 99060.8 99060.8
          99060.8 99060.8 99060.8 99060.8 99060.8 99060.8 99060.8 99060.8 99060.8 99060.8 99060.8 99060.8
          99060.8 99060.8 99060.8 99060.8 99060.8 99060.8 99060.8 99060.8 99000.9 99000.9 99000.9 99000.9
          99000.9 99000.9 99000.9 99000.9 99000.9 99000.9 99000.9 99000.9 99000.9 99000.9 99000.9 99000.9
          99000.9 99000.9 99000.9 99000.9 99000.9 99000.9 99000.9 99000.9 99000.9 99000.9 98946.4 98946.4
          98946.4 98946.4 98946.4 98946.4 98946.4 98946.4 98946.4 98946.4 98946.4 98946.4 98946.4 98946.4
          98946.4 98946.4 98946.4 98946.4 98946.4 98946.4 98946.4 98946.4 98946.4 98946.4 98946.4 98946.4
          98896.9 98896.9 98896.9 98896.9 98896.9 98896.9 98896.9 98896.9 98896.9 98896.9 98896.9 98896.9
          98896.9 98896.9 98896.9 98896.9 98896.9 98896.9 98896.9 98896.9 98896.9 98896.9 98896.9 98896.9
          98896.9 98896.9 98851.9 98851.9 98851.9 98851.9 98851.9 98851.9 98851.9 98851.9 98851.9 98851.9
          98851.9 98851.9 98851.9 98851.9 98851.9 98851.9 98851.9 98851.9 98851.9 98851.9 98851.9 98851.9
          98851.9 98851.9 98851.9 98851.9 98811 98811 98811 98811 98811 98811 98811 98811
          98811 98811 98811 98811 98811 98811 98811 98811 98811 98811 98811 98811
          98811 98811 98811 98811 98811 98811 98773.8 98773.8 98773.8 98773.8 98773.8 98773.8
          98773.8 98773.8 98773.8 98773.8 98773.8 98773.8 98773.8 98773.8 98773.8 98773.8 98773.8 98773.8
          98773.8 98773.8 98773.8 98773.8 98773.8 98773.8 98773.8 98773.8 98739.9 98739.9 98739.9 98739.9
          98739.9 98739.9 98739.9 98739.9 98739.9 98739.9 98739.9 98739.9 98739.9 98739.9 98739.9 98739.9
          98739.9 98739.9 98739.9 98739.9 98739.9 98739.9 98739.9 98739.9 98739.9 98739.9 98709.2 98709.2
          98709.2 98709.2 98709.2 98709.2 98709.2 98709.2 98709.2 98709.2 98709.2 98709.2 98709.2 98709.2
          98709.2 98709.2 98709.2 98709.2 98709.2 98709.2 98709.2 98709.2 98709.2 98709.2 98709.2 98709.2
        </DataArray>
        <DataArray type="Float32" Name="pc" NumberOfComponents="1" format="ascii">
          1.93453 1.93431 3.76818 3.76798 1.93394 3.76764 1.93335 3.76782 1.93313 3.76872 1.93286 3.77181
          1.93528 3.77109 1.93739 3.7721 1.92748 3.77166 1.93474 3.7761 1.95763 3.76644 1.95623 3.78518
          2.20269 3.81124 1.75758 3.7852 1.8188 3.81293 1.88902 3.66469 2.22725 3.51992 2.28545 3.48735
          1.27665 4.0984 1.88329 3.7858 1.87861 3.70538 1.42311 3.90752 1.93138 3.7673 1.93631 3.76549
          1.93365 3.76608 1.93363 3.76608 5.08599 5.08581 5.08547 5.0856 5.08668 5.08989 5.08715 5.08662
          5.08635 5.08767 5.09614 5.10766 5.06921 5.14284 5.09979 5.14542 5.02541 5.02932 5.1422 5.10138
          5.07616 5.16126 5.08548 5.0822 5.08253 5.08253 6.18141 6.18124 6.18091 6.18107 6.18224 6.18504
          6.18193 6.18088 6.18071 6.18176 6.19143 6.17545 6.1682 6.21874 6.17414 6.19607 6.19688 6.20118
          6.18013 6.18847 6.19096 6.21155 6.17898 6.17649 6.17654 6.17654 7.1529 7.15274 7.15243 7.15257
          7.1537 7.15591 7.15303 7.15183 7.15156 7.15243 7.1589 7.17116 7.11463 7.23251 7.16931 7.16295
          7.17988 7.18464 7.14311 7.15381 7.16427 7.16344 7.14836 7.14663 7.14655 7.14653 9.06511 9.06494
          9.06462 9.06475 9.06582 9.06753 9.06488 9.06356 9.06308 9.06384 9.06859 9.06812 9.14121 9.02495
          9.06811 9.07237 9.08923 9.09242 9.05484 9.06174 9.07332 9.06678 9.05821 9.05678 9.0566 9.05657
          46.7538 46.7537 46.7537 46.7537 46.7538 46.7536 46.7529 46.752 46.7513 46.751 46.7504 46.7498
          46.7316 46.7444 46.7479 46.7542 46.7579 46.7566 46.753 46.75 46.7493 46.7479 46.7456 46.7438
          46.743 46.7428 186.746 186.746 186.745 186.745 186.745 186.745 186.745 186.745 186.744 186.744
          186.744 186.743 186.745 186.743 186.743 186.742 186.742 186.742 186.742 186.742 186.742 186.741
          186.741 186.741 186.741 186.741 315.05 315.05 315.05 315.05 315.05 315.05 315.049 315.049
          315.049 315.049 315.048 315.048 315.048 315.048 315.047 315.047 315.047 315.046 315.046 315.046
          315.046 315.046 315.046 315.046 315.045 315.045 431.696 431.696 431.696 431.696 431.695 431.695
          431.695 431.695 431.694 431.694 431.694 431.693 431.693 431.693 431.693 431.692 431.692 431.692
          431.691 431.691 431.691 431.691 431.691 431.691 431.691 431.69 537.734 537.734 537.734 537.733
          537.733 537.733 537.733 537.732 537.732 537.732 537.731 537.731 537.731 537.73 537.73 537.73
          537.729 537.729 537.729 537.729 537.728 537.728 537.728 537.728 537.728 537.728 634.128 634.128
          634.128 634.127 634.127 634.127 634.126 634.126 634.126 634.125 634.125 634.125 634.124 634.124
          634.124 634.123 634.123 634.123 634.122 634.122 634.122 634.122 634.121 634.121 634.121 634.121
          721.755 721.755 721.755 721.754 721.754 721.754 721.753 721.753 721.753 721.752 721.752 721.751
          721.751 721.751 721.75 721.75 721.749 721.749 721.749 721.749 721.748 721.748 721.748 721.748
          721.748 721.748 801.412 801.412 801.412 801.411 801.411 801.411 801.41 801.41 801.409 801.409
          801.408 801.408 801.408 801.407 801.407 801.406 801.406 801.406 801.405 801.405 801.405 801.404
          801.404 801.404 801.404 801.404 873.821 873.821 873.821 873.82 873.82 873.82 873.819 873.819
          873.818 873.818 873.817 873.817 873.816 873.816 873.815 873.815 873.815 873.814 873.814 873.814
          873.813 873.813 873.813 873.813 873.812 873.812 939.646 939.646 939.645 939.645 939.645 939.644
          939.644 939.643 939.643 939.642 939.642 939.641 939.641 939.64 939.64 939.639 939.639 939.638
          939.638 939.638 939.637 939.637 939.637 939.637 939.637 939.637 999.486 999.486 999.485 999.485
          999.484 999.484 999.483 999.483 999.482 999.482 999.481 999.481 999.48 999.479 999.479 999.479
          999.478 999.478 999.477 999.477 999.477 999.476 999.476 999.476 999.476 999.476 1053.89 1053.88
          1053.88 1053.88 1053.88 1053.88 1053.88 1053.88 1053.88 1053.88 1053.88 1053.88 1053.88 1053.88
          1053.88 1053.88 1053.88 1053.88 1053.88 1053.88 1053.88 1053.88 1053.87 1053.87 1053.87 1053.87
          1103.34 1103.34 1103.34 1103.34 1103.34 1103.34 1103.34 1103.34 1103.33 1103.33 1103.33 1103.33
          1103.33 1103.33 1103.33 1103.33 1103.33 1103.33 1103.33 1103.33 1103.33 1103.33 1103.33 1103.33
          1103.33 1103.33 1148.3 1148.3 1148.3 1148.3 1148.3 1148.29 1148.29 1148.29 1148.29 1148.29
          1148.29 1148.29 1148.29 1148.29 1148.29 1148.29 1148.29 1148.29 1148.29 1148.29 1148.29 1148.29
          1148.29 1148.29 1148.28 1148.28 1189.17 1189.17 1189.17 1189.17 1189.17 1189.17 1189.16 1189.16
          1189.16 1189.16 1189.16 1189.16 1189.16 1189.16 1189.16 1189.16 1189.16 1189.16 1189.16 1189.16
          1189.16 1189.16 1189.16 1189.16 1189.16 1189.16 1226.32 1226.32 1226.32 1226.32 1226.32 1226.32
          1226.32 1226.32 1226.32 1226.32 1226.32 1226.32 1226.32 1226.31 1226.31 1226.31 1226.31 1226.31
          1226.31 1226.31 1226.31 1226.31 1226.31 1226.31 1226.31 1226.31 1260.1 1260.1 1260.1 1260.1
          1260.1 1260.1 1260.1 1260.1 1260.1 1260.09 1260.09 1260.09 1260.09 1260.09 1260.09 1260.09
          1260.09 1260.09 1260.09 1260.09 1260.09 1260.09 1260.09 1260.09 1260.09 1260.09 1290.81 1290.81
          1290.81 1290.81 1290.81 1290.81 1290.8 1290.8 1290.8 1290.8 1290.8 1290.8 1290.8 1290.8
          1290.8 1290.8 1290.8 1290.8 1290.8 1290.8 1290.8 1290.79 1290.79 1290.79 1290.79 1290.79
        </DataArray>
        <DataArray type="Float32" Name="rhoW" NumberOfComponents="1" format="ascii">
          997.048 997.048 997.048 997.048 997.048 997.048 997.048 997.048 997.048 997.048 997.048 997.048
          997.048 997.048 997.048 997.048 997.048 997.048 997.048 997.048 997.048 997.048 997.048 997.048
          997.048 997.048 997.048 997.048 997.048 997.048 997.048 997.048 997.048 997.048 997.048 997.048
          997.048 997.048 997.048 997.048 997.048 997.048 997.048 997.048 997.048 997.048 997.048 997.048
          997.048 997.048 997.048 997.048 997.048 997.048 997.048 997.048 997.048 997.048 997.048 997.048
          997.048 997.048 997.048 997.048 997.048 997.048 997.048 997.048 997.048 997.048 997.048 997.048
          997.048 997.048 997.048 997.048 997.048 997.048 997.048 997.048 997.048 997.048 997.048 997.048
          997.048 997.048 997.048 997.048 997.048 997.048 997.048 997.048 997.048 997.048 997.048 997.048