<?xml version="1.0"?>
<VTKFile type="UnstructuredGrid" version="0.1" byte_order="LittleEndian">
  <UnstructuredGrid>
    <Piece NumberOfCells="140" NumberOfPoints="165">
      <PointData Scalars="Sn" Vectors="velocityW">
        <DataArray type="Float32" Name="Sn" NumberOfComponents="1" format="ascii">
          0.0100111 0.0100111 0.0100231 0.010023 0.010011 0.010023 0.0100107 0.0100229 0.0100099 0.0100228 0.0100098 0.0100228
          0.0100106 0.0100229 0.0100113 0.010023 0.0100112 0.0100229 0.0100108 0.0100221 0.0100108 0.0100218 0.0100316 0.0100313
          0.0100316 0.0100315 0.0100317 0.0100318 0.0100318 0.0100318 0.0100318 0.0100324 0.010033 0.0100407 0.0100407 0.0100396
          0.0100395 0.0100396 0.0100396 0.0100394 0.0100392 0.0100392 0.0100396 0.0100395 0.0100536 0.0100545 0.0100549 0.010055
          0.0100553 0.0100556 0.010055 0.0100549 0.0100554 0.010055 0.0100548 0.0104433 0.0104431 0.0104431 0.0104432 0.0104433
          0.0104433 0.0104432 0.0104431 0.0104429 0.0104431 0.0104431 0.0117113 0.0117113 0.0117113 0.0117112 0.0117113 0.0117113
          0.0117112 0.0117113 0.0117113 0.0117113 0.0117113 0.0130957 0.0130957 0.0130957 0.0130957 0.0130957 0.0130957 0.0130957
          0.0130957 0.0130957 0.0130957 0.0130957 0.0146821 0.0146821 0.0146821 0.0146821 0.0146821 0.0146821 0.0146821 0.0146821
          0.0146821 0.0146821 0.0146821 0.0167269 0.0167269 0.0167269 0.0167269 0.0167269 0.0167269 0.0167269 0.0167269 0.0167269
          0.0167269 0.0167269 0.0222692 0.0222692 0.0222691 0.0222691 0.0222691 0.0222691 0.022269 0.022269 0.022269 0.022269
          0.0222689 0.0390885 0.0390885 0.0390884 0.0390883 0.0390883 0.0390883 0.0390882 0.0390882 0.0390881 0.0390881 0.039088
          0.0675167 0.0675165 0.0675164 0.0675164 0.0675163 0.0675162 0.0675161 0.067516 0.067516 0.0675159 0.0675157 0.108843
          0.108842 0.108842 0.108842 0.108842 0.108842 0.108842 0.108842 0.108842 0.108841 0.108841 0.16186 0.16186
          0.16186 0.16186 0.161859 0.161859 0.161859 0.161859 0.161859 0.161859 0.161858
        </DataArray>
        <DataArray type="Float32" Name="Sw" NumberOfComponents="1" format="ascii">
          0.989989 0.989989 0.989977 0.989977 0.989989 0.989977 0.989989 0.989977 0.98999 0.989977 0.98999 0.989977
          0.989989 0.989977 0.989989 0.989977 0.989989 0.989977 0.989989 0.989978 0.989989 0.989978 0.989968 0.989969
          0.989968 0.989969 0.989968 0.989968 0.989968 0.989968 0.989968 0.989968 0.989967 0.989959 0.989959 0.98996
          0.98996 0.98996 0.98996 0.989961 0.989961 0.989961 0.98996 0.98996 0.989946 0.989946 0.989945 0.989945
          0.989945 0.989944 0.989945 0.989945 0.989945 0.989945 0.989945 0.989557 0.989557 0.989557 0.989557 0.989557
          0.989557 0.989557 0.989557 0.989557 0.989557 0.989557 0.988289 0.988289 0.988289 0.988289 0.988289 0.988289
          0.988289 0.988289 0.988289 0.988289 0.988289 0.986904 0.986904 0.986904 0.986904 0.986904 0.986904 0.986904
          0.986904 0.986904 0.986904 0.986904 0.985318 0.985318 0.985318 0.985318 0.985318 0.985318 0.985318 0.985318
          0.985318 0.985318 0.985318 0.983273 0.983273 0.983273 0.983273 0.983273 0.983273 0.983273 0.983273 0.983273
          0.983273 0.983273 0.977731 0.977731 0.977731 0.977731 0.977731 0.977731 0.977731 0.977731 0.977731 0.977731
          0.977731 0.960911 0.960912 0.960912 0.960912 0.960912 0.960912 0.960912 0.960912 0.960912 0.960912 0.960912
          0.932483 0.932483 0.932484 0.932484 0.932484 0.932484 0.932484 0.932484 0.932484 0.932484 0.932484 0.891157
          0.891158 0.891158 0.891158 0.891158 0.891158 0.891158 0.891158 0.891158 0.891159 0.891159 0.83814 0.83814
          0.83814 0.83814 0.838141 0.838141 0.838141 0.838141 0.838141 0.838141 0.838142
        </DataArray>
        <DataArray type="Float32" Name="pn" NumberOfComponents="1" format="ascii">
          101190 101190 100890 100890 101190 100890 101190 100890 101190 100890 101190 100890
          101190 100890 101190 100890 101190 100890 101190 100890 101190 100890 100617 100617
          100617 100617 100617 100617 100617 100617 100617 100617 100617 100369 100369 100369
          100369 100369 100369 100369 100369 100369 100369 100369 100145 100145 100145 100145
          100145 100145 100145 100145 100145 100145 100145 100002 100002 100002 100002 100002
          100002 100002 100002 100002 100002 100002 100001 100001 100001 100001 100001 100001
          100001 100001 100001 100001 100001 100001 100001 100001 100001 100001 100001 100001
          100001 100001 100001 100001 100001 100001 100001 100001 100001 100001 100001 100001
          100001 100001 100001 100001 100001 100001 100001 100001 100001 100001 100001 100001
          100001 100001 100000 100000 100000 100000 100000 100000 100000 100000 100000 100000
          100000 100000 100000 100000 100000 100000 100000 100000 100000 100000 100000 100000
          100000 100000 100000 100000 100000 100000 100000 100000 100000 100000 100000 100000
          100000 100000 100000 100000 100000 100000 100000 100000 100000 100000 100000 100000
          100000 100000 100000 100000 100000 100000 100000 100000 100000
        </DataArray>
        <DataArray type="Float32" Name="pw" NumberOfComponents="1" format="ascii">
          101188 101188 100886 100886 101188 100886 101188 100886 101188 100886 101188 100886
          101188 100886 101188 100886 101188 100886 101188 100886 101188 100886 100612 100612
          100612 100612 100612 100612 100612 100612 100612 100612 100612 100363 100363 100363
          100363 100363 100363 100363 100363 100363 100363 100363 100136 100136 100136 100136
          100136 100136 100136 100136 100136 100136 100136 99929.7 99929.7 99929.7 99929.7 99929.7
          99929.7 99929.7 99929.7 99929.7 99929.7 99929.7 99742.3 99742.3 99742.3 99742.3 99742.3 99742.3
          99742.3 99742.3 99742.3 99742.3 99742.3 99572 99572 99572 99572 99572 99572 99572
          99572 99572 99572 99572 99417.2 99417.2 99417.2 99417.2 99417.2 99417.2 99417.2 99417.2
          99417.2 99417.2 99417.2 99276.4 99276.4 99276.4 99276.4 99276.4 99276.4 99276.4 99276.4 99276.4
          99276.4 99276.4 99148.4 99148.4 99148.4 99148.4 99148.4 99148.4 99148.4 99148.4 99148.4 99148.4
          99148.4 99032.1 99032.1 99032.1 99032.1 99032.1 99032.1 99032.1 99032.1 99032.1 99032.1 99032.1
          98926.3 98926.3 98926.3 98926.3 98926.3 98926.3 98926.3 98926.3 98926.3 98926.3 98926.3 98830.1
          98830.1 98830.1 98830.1 98830.1 98830.1 98830.1 98830.1 98830.1 98830.1 98830.1 98742.7 98742.7
          98742.7 98742.7 98742.7 98742.7 98742.7 98742.7 98742.7 98742.7 98742.7
        </DataArray>
        <DataArray type="Float32" Name="pc" NumberOfComponents="1" format="ascii">
          1.85937 1.8659 3.85958 3.84806 1.84689 3.84727 1.78646 3.8291 1.65969 3.81832 1.64027 3.8096
          1.76808 3.82836 1.88854 3.85242 1.88216 3.83504 1.81 3.69195 1.8148 3.64896 5.2766 5.2412
          5.28131 5.26453 5.30616 5.32443 5.31266 5.31742 5.31977 5.42579 5.52504 6.80841 6.79761 6.62647
          6.60483 6.61428 6.61453 6.57794 6.55665 6.5539 6.61311 6.60442 8.95124 9.10039 9.16773 9.19102
          9.23205 9.27902 9.18302 9.16754 9.24803 9.18488 9.15886 72.3524 72.3303 72.3315 72.3443 72.3593
          72.3634 72.3489 72.3317 72.2871 72.3293 72.3315 258.767 258.768 258.768 258.748 258.759 258.766
          258.748 258.766 258.767 258.765 258.766 428.919 428.919 428.918 428.921 428.918 428.916 428.921
          428.916 428.917 428.917 428.917 583.606 583.606 583.606 583.606 583.605 583.605 583.605 583.604
          583.604 583.604 583.604 724.229 724.229 724.228 724.228 724.228 724.228 724.228 724.227 724.227
          724.227 724.226 852.062 852.061 852.061 852.061 852.061 852.06 852.06 852.06 852.06 852.059
          852.059 968.271 968.27 968.27 968.27 968.27 968.269 968.269 968.269 968.269 968.268 968.268
          1073.91 1073.91 1073.91 1073.91 1073.91 1073.91 1073.91 1073.91 1073.91 1073.91 1073.91 1169.95
          1169.95 1169.95 1169.95 1169.95 1169.95 1169.95 1169.95 1169.95 1169.95 1169.95 1257.26 1257.26
          1257.26 1257.26 1257.26 1257.26 1257.26 1257.26 1257.26 1257.26 1257.26
        </DataArray>
        <DataArray type="Float32" Name="rhoW" NumberOfComponents="1" format="ascii">
          997.048 997.048 997.048 997.048 997.048 997.048 997.048 997.048 997.048 997.048 997.048 997.048
          997.048 997.048 997.048 997.048 997.048 997.048 997.048 997.048 997.048 997.048 997.048 997.048
          997.048 997.048 997.048 997.048 997.048 997.048 997.048 997.048 997.048 997.048 997.048 997.048
          997.048 997.048 997.048 997.048 997.048 997.048 997.048 997.048 997.048 997.048 997.048 997.048
          997.048 997.048 997.048 997.048 997.048 997.048 997.048 997.048 997.048 997.048 997.048 997.048
          997.048 997.048 997.048 997.048 997.048 997.048 997.048 997.048 997.048 997.048 997.048 997.048
          997.048 997.048 997.048 997.048 997.048 997.047 997.047 997.047 997.047 997.047 997.047 997.047
          997.047 997.047 997.047 997.047 997.047 997.047 997.047 997.047 997.047 997.047 997.047 997.047
          997.047 997.047 997.047 997.047 997.047 997.047 997.047 997.047 997.047 997.047 997.047 997.047
          997.047 997.047 997.047 997.047 997.047 997.047 997.047 997.047 997.047 997.047 997.047 997.047
          997.047 997.047 997.047 997.047 997.047 997.047 997.047 997.047 997.047 997.047 997.047 997.047
          997.047 997.047 997.047 997.047 997.047 997.047 997.047 997.047 997.047 997.047 997.047 997.047
          997.047 997.047 997.047 997.047 997.047 997.047 997.047 997.047 997.047 997.047 997.047 997.047
          997.047 997.047 997.047 997.047 997.047 997.047 997.047 997.047 997.047
        </DataArray>
        <DataArray type="Float32" Name="rhoN" NumberOfComponents="1" format="ascii">
          1.16814 1.16814 1.16464 1.16464 1.16814 1.16464 1.16814 1.16464 1.16814 1.16464 1.16814 1.16464
          1.16814 1.16464 1.16814 1.16464 1.16814 1.16464 1.16814 1.16463 1.16814 1.16463 1.16145 1.16145
          1.16145 1.16145 1.16145 1.16145 1.16145 1.16145 1.16145 1.16145 1.16145 1.15855 1.15855 1.15855
          1.15855 1.15855 1.15855 1.15855 1.15855 1.15855 1.15855 1.15855 1.15593 1.15593 1.15593 1.15593
          1.15593 1.15593 1.15593 1.15593 1.15593 1.15593 1.15593 1.15426 1.15426 1.15426 1.15426 1.15426
          1.15426 1.15426 1.15426 1.15426 1.15426 1.15426 1.15425 1.15425 1.15425 1.15425 1.15425 1.15425
          1.15425 1.15425 1.15425 1.15425 1.15425 1.15425 1.15425 1.15425 1.15425 1.15425 1.15425 1.15425
          1.15425 1.15425 1.15425 1.15425 1.15425 1.15425 1.15425 1.15425 1.15425 1.15425 1.15425 1.15425
          1.15425 1.15425 1.15425 1.15424 1.15424 1.15424 1.15424 1.15424 1.15424 1.15424 1.15424 1.15424
          1.15424 1.15424 1.15424 1.15424 1.15424 1.15424 1.15424 1.15424 1.15424 1.15424 1.15424 1.15424
          1.15424 1.15424 1.15424 1.15424 1.15424 1.15424 1.15424 1.15424 1.15424 1.15424 1.15424 1.15424
          1.15424 1.15424 1.15424 1.15424 1.15424 1.15424 1.15424 1.15424 1.15424 1.15424 1.15424 1.15424
          1.15424 1.15424 1.15424 1.15424 1.15424 1.15424 1.15424 1.15424 1.15424 1.15424 1.15424 1.15424
          1.15424 1.15424 1.15424 1.15424 1.15424 1.15424 1.15424 1.15424 1.15424
        </DataArray>
        <DataArray type="Float32" Name="mobW" NumberOfComponents="1" format="ascii">
          1123.57 1123.57 1123.57 1123.57 1123.57 1123.57 1123.57 1123.57 1123.57 1123.57 1123.57 1123.57
          1123.57 1123.57 1123.57 1123.57 1123.57 1123.57 1123.57 1123.57 1123.57 1123.57 1123.57 1123.57
          1123.57 1123.57 1123.57 1123.57 1123.57 1123.57 1123.57 1123.57 1123.57 1123.57 1123.57 1123.57
          1123.57 1123.57 1123.57 1123.57 1123.57 1123.57 1123.57 1123.57 1123.57 1123.57 1123.57 1123.57
          1123.57 1123.57 1123.57 1123.57 1123.57 1123.57 1123.57 1123.55 1123.55 1123.55 1123.55 1123.55
          1123.55 1123.55 1123.55 1123.55 1123.55 1123.55 1123.32 1123.32 1123.32 1123.32 1123.32 1123.32
          1123.32 1123.32 1123.32 1123.32 1123.32 1122.77 1122.77 1122.77 1122.77 1122.77 1122.77 1122.77
          1122.77 1122.77 1122.77 1122.77 1121.76 1121.76 1121.76 1121.76 1121.76 1121.76 1121.76 1121.76
          1121.76 1121.76 1121.76 1119.87 1119.87 1119.87 1119.87 1119.87 1119.87 1119.87 1119.87 1119.87
          1119.87 1119.87 1111.67 1111.67 1111.67 1111.67 1111.67 1111.67 1111.67 1111.67 1111.67 1111.67
          1111.67 1063.49 1063.49 1063.49 1063.49 1063.49 1063.49 1063.49 1063.49 1063.49 1063.49 1063.49
          933.395 933.396 933.396 933.397 933.397 933.398 933.398 933.399 933.399 933.399 933.4 753.949
          753.95 753.951 753.951 753.951 753.952 753.952 753.952 753.953 753.953 753.954 615.19 615.192
          615.192 615.192 615.193 615.193 615.193 615.194 615.194 615.195 615.196
        </DataArray>
        <DataArray type="Float32" Name="mobN" NumberOfComponents="1" format="ascii">
          5.5519e-06 5.59184e-06 2.47286e-05 2.45778e-05 5.47597e-06 2.45675e-05 5.11591e-06 2.43306e-05 4.40106e-06 2.41907e-05 4.29643e-06 2.40778e-05
          5.00886e-06 2.43211e-05 5.73146e-06 2.46349e-05 5.69198e-06 2.44079e-05 5.25469e-06 2.25809e-05 5.28321e-06 2.20462e-05 4.68997e-05 4.62579e-05
          4.69855e-05 4.66804e-05 4.74393e-05 4.77743e-05 4.75584e-05 4.76455e-05 4.76886e-05 4.96548e-05 5.15322e-05 7.90388e-05 7.87823e-05 7.47733e-05
          7.4274e-05 7.44917e-05 7.44975e-05 7.3656e-05 7.31685e-05 7.31057e-05 7.44649e-05 7.42645e-05 0.000138467 0.000143238 0.00014542 0.000146178
          0.000147519 0.000149062 0.000145917 0.000145414 0.000148043 0.000145978 0.000145131 0.0103803 0.0103737 0.010374 0.0103779 0.0103824
          0.0103836 0.0103793 0.0103741 0.0103607 0.0103734 0.010374 0.16405 0.164051 0.164051 0.164022 0.164038 0.164049
          0.164022 0.164048 0.16405 0.164047 0.164048 0.550722 0.550722 0.550717 0.550729 0.55072 0.550713 0.550727
          0.550713 0.550717 0.550715 0.550715 1.28233 1.28233 1.28232 1.28233 1.28232 1.28232 1.28232 1.28232
          1.28232 1.28231 1.28231 2.68822 2.68821 2.68821 2.68821 2.6882 2.6882 2.6882 2.68819 2.68819
          2.68818 2.68818 9.1718 9.17175 9.17171 9.17167 9.17164 9.1716 9.17157 9.17154 9.1715 9.17145
          9.17141 53.3921 53.3919 53.3916 53.3915 53.3913 53.3911 53.3909 53.3908 53.3906 53.3904 53.3901
          214.104 214.103 214.102 214.102 214.101 214.1 214.1 214.099 214.099 214.098 214.097 643.232
          643.228 643.226 643.225 643.223 643.221 643.22 643.218 643.217 643.215 643.211 1533.86 1533.85
          1533.84 1533.84 1533.84 1533.83 1533.83 1533.83 1533.82 1533.82 1533.81
        </DataArray>
        <DataArray type="Float32" Name="X_liquid^H2O" NumberOfComponents="1" format="ascii">
          0.999978 0.999978 0.999978 0.999978 0.999978 0.999978 0.999978 0.999978 0.999978 0.999978 0.999978 0.999978
          0.999978 0.999978 0.999978 0.999978 0.999978 0.999978 0.999978 0.999978 0.999978 0.999978 0.999978 0.999978
          0.999978 0.999978 0.999978 0.999978 0.999978 0.999978 0.999978 0.999978 0.999978 0.999978 0.999978 0.999978
          0.999978 0.999978 0.999978 0.999978 0.999978 0.999978 0.999978 0.999978 0.999978 0.999978 0.999978 0.999978
          0.999978 0.999978 0.999978 0.999978 0.999978 0.999978 0.999978 0.999978 0.999978 0.999978 0.999978 0.999978
          0.999978 0.999978 0.999978 0.999978 0.999978 0.999978 0.999978 0.999978 0.999978 0.999978 0.999978 0.999978
          0.999978 0.999978 0.999978 0.999978 0.999978 0.999978 0.999978 0.999978 0.999978 0.999978 0.999978 0.999978
          0.999978 0.999978 0.999978 0.999978 0.999978 0.999978 0.999978 0.999978 0.999978 0.999978 0.999978 0.999978
          0.999978 0.999978 0.999978 0.999978 0.999978 0.999978 0.999978 0.999978 0.999978 0.999978 0.999978 0.999978
          0.999978 0.999978 0.999978 0.999978 0.999978 0.999978 0.999978 0.999978 0.999978 0.999978 0.999978 0.999978
          0.999978 0.999978 0.999978 0.999978 0.999978 0.999978 0.999978 0.999978 0.999978 0.999978 0.999978 0.999978
          0.999978 0.999978 0.999978 0.999978 0.999978 0.999978 0.999978 0.999978 0.999978 0.999978 0.999978 0.999978
          0.999978 0.999978 0.999978 0.999978 0.999978 0.999978 0.999978 0.999978 0.999978 0.999978 0.999978 0.999978
          0.999978 0.999978 0.999978 0.999978 0.999978 0.999978 0.999978 0.999978 0.999978
        </DataArray>
        <DataArray type="Float32" Name="X_liquid^Air" NumberOfComponents="1" format="ascii">
          2.18116e-05 2.18116e-05 2.17449e-05 2.17449e-05 2.18116e-05 2.17449e-05 2.18116e-05 2.17449e-05 2.18116e-05 2.17449e-05 2.18116e-05 2.17449e-05
          2.18116e-05 2.17449e-05 2.18116e-05 2.17449e-05 2.18116e-05 2.17449e-05 2.18116e-05 2.17449e-05 2.18116e-05 2.17449e-05 2.16842e-05 2.16842e-05
          2.16842e-05 2.16842e-05 2.16842e-05 2.16842e-05 2.16842e-05 2.16842e-05 2.16842e-05 2.16842e-05 2.16842e-05 2.1629e-05 2.1629e-05 2.1629e-05
          2.1629e-05 2.1629e-05 2.1629e-05 2.1629e-05 2.1629e-05 2.1629e-05 2.1629e-05 2.1629e-05 2.15791e-05 2.15791e-05 2.15791e-05 2.15791e-05
          2.15791e-05 2.15791e-05 2.15791e-05 2.15791e-05 2.15791e-05 2.15791e-05 2.15791e-05 2.15473e-05 2.15473e-05 2.15473e-05 2.15473e-05 2.15473e-05
          2.15473e-05 2.15473e-05 2.15473e-05 2.15473e-05 2.15473e-05 2.15473e-05 2.15471e-05 2.15471e-05 2.15471e-05 2.15471e-05 2.15471e-05 2.15471e-05
          2.15471e-05 2.15471e-05 2.15471e-05 2.15471e-05 2.15471e-05 2.15471e-05 2.15471e-05 2.15471e-05 2.15471e-05 2.15471e-05 2.15471e-05 2.15471e-05
          2.15471e-05 2.15471e-05 2.15471e-05 2.15471e-05 2.1547e-05 2.1547e-05 2.1547e-05 2.1547e-05 2.1547e-05 2.1547e-05 2.1547e-05 2.1547e-05
          2.1547e-05 2.1547e-05 2.1547e-05 2.1547e-05 2.1547e-05 2.1547e-05 2.1547e-05 2.1547e-05 2.1547e-05 2.1547e-05 2.1547e-05 2.1547e-05
          2.1547e-05 2.1547e-05 2.1547e-05 2.1547e-05 2.1547e-05 2.1547e-05 2.1547e-05 2.1547e-05 2.1547e-05 2.1547e-05 2.1547e-05 2.1547e-05
          2.1547e-05 2.15469e-05 2.15469e-05 2.15469e-05 2.15469e-05 2.15469e-05 2.15469e-05 2.15469e-05 2.15469e-05 2.15469e-05 2.15469e-05 2.15469e-05
          2.15469e-05 2.15469e-05 2.15469e-05 2.15469e-05 2.15469e-05 2.15469e-05 2.15469e-05 2.15469e-05 2.15469e-05 2.15469e-05 2.15469e-05 2.15469e-05
          2.15469e-05 2.15469e-05 2.15469e-05 2.15469e-05 2.15469e-05 2.15469e-05 2.15469e-05 2.15469e-05 2.15469e-05 2.15469e-05 2.15468e-05 2.15468e-05
          2.15468e-05 2.15468e-05 2.15468e-05 2.15468e-05 2.15468e-05 2.15468e-05 2.15468e-05 2.15468e-05 2.15468e-05
        </DataArray>
        <DataArray type="Float32" Name="X_gas^H2O" NumberOfComponents="1" format="ascii">
          0.0197194 0.0197194 0.0197787 0.0197787 0.0197194 0.0197787 0.0197194 0.0197787 0.0197194 0.0197787 0.0197194 0.0197787
          0.0197194 0.0197787 0.0197194 0.0197787 0.0197194 0.0197787 0.0197194 0.0197787 0.0197194 0.0197787 0.019833 0.019833
          0.019833 0.019833 0.019833 0.019833 0.019833 0.019833 0.019833 0.019833 0.0198329 0.0198826 0.0198826 0.0198826
          0.0198826 0.0198826 0.0198826 0.0198826 0.0198826 0.0198826 0.0198826 0.0198826 0.0199277 0.0199277 0.0199276 0.0199276
          0.0199276 0.0199276 0.0199276 0.0199276 0.0199276 0.0199276 0.0199276 0.0199565 0.0199565 0.0199565 0.0199565 0.0199565
          0.0199565 0.0199565 0.0199565 0.0199565 0.0199565 0.0199565 0.0199567 0.0199567 0.0199567 0.0199567 0.0199567 0.0199567
          0.0199567 0.0199567 0.0199567 0.0199567 0.0199567 0.0199567 0.0199567 0.0199567 0.0199567 0.0199567 0.0199567 0.0199567
          0.0199567 0.0199567 0.0199567 0.0199567 0.0199567 0.0199567 0.0199567 0.0199567 0.0199567 0.0199567 0.0199567 0.0199567
          0.0199567 0.0199567 0.0199567 0.0199568 0.0199568 0.0199568 0.0199568 0.0199568 0.0199568 0.0199568 0.0199568 0.0199568
          0.0199568 0.0199568 0.0199568 0.0199568 0.0199568 0.0199568 0.0199568 0.0199568 0.0199568 0.0199568 0.0199568 0.0199568
          0.0199568 0.0199568 0.0199568 0.0199568 0.0199568 0.0199568 0.0199568 0.0199568 0.0199568 0.0199568 0.0199568 0.0199568
          0.0199568 0.0199568 0.0199568 0.0199568 0.0199568 0.0199568 0.0199568 0.0199568 0.0199568 0.0199568 0.0199568 0.0199569
          0.0199569 0.0199569 0.0199569 0.0199569 0.0199569 0.0199569 0.0199569 0.0199569 0.0199569 0.0199569 0.0199569 0.0199569
          0.0199569 0.0199569 0.0199569 0.0199569 0.0199569 0.0199569 0.0199569 0.0199569 0.0199569
        </DataArray>
        <DataArray type="Float32" Name="X_gas^Air" NumberOfComponents="1" format="ascii">
          0.980281 0.980281 0.980221 0.980221 0.980281 0.980221 0.980281 0.980221 0.980281 0.980221 0.980281 0.980221
          0.980281 0.980221 0.980281 0.980221 0.980281 0.980221 0.980281 0.980221 0.980281 0.980221 0.980167 0.980167
          0.980167 0.980167 0.980167 0.980167 0.980167 0.980167 0.980167 0.980167 0.980167 0.980117 0.980117 0.980117
          0.980117 0.980117 0.980117 0.980117 0.980117 0.980117 0.980117 0.980117 0.980072 0.980072 0.980072 0.980072
          0.980072 0.980072 0.980072 0.980072 0.980072 0.980072 0.980072 0.980044 0.980044 0.980044 0.980044 0.980044
          0.980044 0.980044 0.980044 0.980044 0.980044 0.980044 0.980043 0.980043 0.980043 0.980043 0.980043 0.980043
          0.980043 0.980043 0.980043 0.980043 0.980043 0.980043 0.980043 0.980043 0.980043 0.980043 0.980043 0.980043
          0.980043 0.980043 0.980043 0.980043 0.980043 0.980043 0.980043 0.980043 0.980043 0.980043 0.980043 0.980043
          0.980043 0.980043 0.980043 0.980043 0.980043 0.980043 0.980043 0.980043 0.980043 0.980043 0.980043 0.980043
          0.980043 0.980043 0.980043 0.980043 0.980043 0.980043 0.980043 0.980043 0.980043 0.980043 0.980043 0.980043
          0.980043 0.980043 0.980043 0.980043 0.980043 0.980043 0.980043 0.980043 0.980043 0.980043 0.980043 0.980043
          0.980043 0.980043 0.980043 0.980043 0.980043 0.980043 0.980043 0.980043 0.980043 0.980043 0.980043 0.980043
          0.980043 0.980043 0.980043 0.980043 0.980043 0.980043 0.980043 0.980043 0.980043 0.980043 0.980043 0.980043
          0.980043 0.980043 0.980043 0.980043 0.980043 0.980043 0.980043 0.980043 0.980043
        </DataArray>
        <DataArray type="Float32" Name="x_liquid^H2O" NumberOfComponents="1" format="ascii">
          0.999986 0.999986 0.999986 0.999986 0.999986 0.999986 0.999986 0.999986 0.999986 0.999986 0.999986 0.999986
          0.999986 0.999986 0.999986 0.999986 0.999986 0.999986 0.999986 0.999986 0.999986 0.999986 0.999987 0.999987
          0.999987 0.999987 0.999987 0.999987 0.999987 0.999987 0.999987 0.999987 0.999987 0.999987 0.999987 0.999987
          0.999987 0.999987 0.999987 0.999987 0.999987 0.999987 0.999987 0.999987 0.999987 0.999987 0.999987 0.999987
          0.999987 0.999987 0.999987 0.999987 0.999987 0.999987 0.999987 0.999987 0.999987 0.999987 0.999987 0.999987
          0.999987 0.999987 0.999987 0.999987 0.999987 0.999987 0.999987 0.999987 0.999987 0.999987 0.999987 0.999987
          0.999987 0.999987 0.999987 0.999987 0.999987 0.999987 0.999987 0.999987 0.999987 0.999987 0.999987 0.999987
          0.999987 0.999987 0.999987 0.999987 0.999987 0.999987 0.999987 0.999987 0.999987 0.999987 0.999987 0.999987
          0.999987 0.999987 0.999987 0.999987 0.999987 0.999987 0.999987 0.999987 0.999987 0.999987 0.999987 0.999987
          0.999987 0.999987 0.999987 0.999987 0.999987 0.999987 0.999987 0.999987 0.999987 0.999987 0.999987 0.999987
          0.999987 0.999987 0.999987 0.999987 0.999987 0.999987 0.999987 0.999987 0.999987 0.999987 0.999987 0.999987
          0.999987 0.999987 0.999987 0.999987 0.999987 0.999987 0.999987 0.999987 0.999987 0.999987 0.999987 0.999987
          0.999987 0.999987 0.999987 0.999987 0.999987 0.999987 0.999987 0.999987 0.999987 0.999987 0.999987 0.999987
          0.999987 0.999987 0.999987 0.999987 0.999987 0.999987 0.999987 0.999987 0.999987
        </DataArray>
        <DataArray type="Float32" Name="x_liquid^Air" NumberOfComponents="1" format="ascii">
          1.35685e-05 1.35685e-05 1.3527e-05 1.3527e-05 1.35685e-05 1.3527e-05 1.35685e-05 1.3527e-05 1.35685e-05 1.3527e-05 1.35685e-05 1.3527e-05
          1.35685e-05 1.3527e-05 1.35685e-05 1.3527e-05 1.35685e-05 1.3527e-05 1.35685e-05 1.3527e-05 1.35685e-05 1.3527e-05 1.34892e-05 1.34892e-05
          1.34892e-05 1.34892e-05 1.34892e-05 1.34892e-05 1.34892e-05 1.34892e-05 1.34892e-05 1.34892e-05 1.34893e-05 1.34549e-05 1.34549e-05 1.34549e-05
          1.34549e-05 1.34549e-05 1.34549e-05 1.34549e-05 1.34549e-05 1.34549e-05 1.34549e-05 1.34549e-05 1.34238e-05 1.34238e-05 1.34239e-05 1.34239e-05
          1.34239e-05 1.34239e-05 1.34239e-05 1.34239e-05 1.34239e-05 1.34239e-05 1.34238e-05 1.34041e-05 1.34041e-05 1.34041e-05 1.34041e-05 1.34041e-05
          1.34041e-05 1.34041e-05 1.34041e-05 1.34041e-05 1.34041e-05 1.34041e-05 1.34039e-05 1.34039e-05 1.34039e-05 1.34039e-05 1.34039e-05 1.34039e-05
          1.34039e-05 1.34039e-05 1.34039e-05 1.34039e-05 1.34039e-05 1.34039e-05 1.34039e-05 1.34039e-05 1.34039e-05 1.34039e-05 1.34039e-05 1.34039e-05
          1.34039e-05 1.34039e-05 1.34039e-05 1.34039e-05 1.34039e-05 1.34039e-05 1.34039e-05 1.34039e-05 1.34039e-05 1.34039e-05 1.34039e-05 1.34039e-05
          1.34039e-05 1.34039e-05 1.34039e-05 1.34039e-05 1.34039e-05 1.34039e-05 1.34039e-05 1.34039e-05 1.34039e-05 1.34039e-05 1.34039e-05 1.34039e-05
          1.34039e-05 1.34039e-05 1.34038e-05 1.34038e-05 1.34038e-05 1.34038e-05 1.34038e-05 1.34038e-05 1.34038e-05 1.34038e-05 1.34038e-05 1.34038e-05
          1.34038e-05 1.34038e-05 1.34038e-05 1.34038e-05 1.34038e-05 1.34038e-05 1.34038e-05 1.34038e-05 1.34038e-05 1.34038e-05 1.34038e-05 1.34038e-05
          1.34038e-05 1.34038e-05 1.34038e-05 1.34038e-05 1.34038e-05 1.34038e-05 1.34038e-05 1.34038e-05 1.34038e-05 1.34038e-05 1.34038e-05 1.34038e-05
          1.34038e-05 1.34038e-05 1.34038e-05 1.34038e-05 1.34038e-05 1.34038e-05 1.34038e-05 1.34038e-05 1.34038e-05 1.34038e-05 1.34038e-05 1.34038e-05
          1.34038e-05 1.34038e-05 1.34038e-05 1.34038e-05 1.34038e-05 1.34038e-05 1.34038e-05 1.34038e-05 1.34038e-05
        </DataArray>
        <DataArray type="Float32" Name="x_gas^H2O" NumberOfComponents="1" format="ascii">
          0.0313243 0.0313243 0.0314174 0.0314174 0.0313243 0.0314174 0.0313243 0.0314174 0.0313244 0.0314174 0.0313244 0.0314174
          0.0313243 0.0314174 0.0313243 0.0314174 0.0313243 0.0314174 0.0313243 0.0314174 0.0313243 0.0314175 0.0315026 0.0315026
          0.0315026 0.0315026 0.0315026 0.0315026 0.0315026 0.0315026 0.0315026 0.0315026 0.0315025 0.0315804 0.0315804 0.0315805
          0.0315805 0.0315805 0.0315805 0.0315805 0.0315805 0.0315805 0.0315805 0.0315805 0.0316512 0.0316512 0.0316512 0.0316511
          0.0316511 0.0316511 0.0316512 0.0316512 0.0316511 0.0316512 0.0316512 0.0316964 0.0316964 0.0316964 0.0316964 0.0316964
          0.0316964 0.0316964 0.0316964 0.0316964 0.0316964 0.0316964 0.0316967 0.0316967 0.0316967 0.0316967 0.0316967 0.0316967
          0.0316967 0.0316967 0.0316967 0.0316967 0.0316967 0.0316968 0.0316968 0.0316968 0.0316968 0.0316968 0.0316968 0.0316968
          0.0316968 0.0316968 0.0316968 0.0316968 0.0316968 0.0316968 0.0316968 0.0316968 0.0316968 0.0316968 0.0316968 0.0316968
          0.0316968 0.0316968 0.0316968 0.0316969 0.0316969 0.0316969 0.0316969 0.0316969 0.0316969 0.0316969 0.0316969 0.0316969
          0.0316969 0.0316969 0.0316969 0.0316969 0.0316969 0.0316969 0.0316969 0.0316969 0.0316969 0.0316969 0.0316969 0.0316969
          0.0316969 0.0316969 0.0316969 0.0316969 0.0316969 0.0316969 0.0316969 0.0316969 0.0316969 0.0316969 0.0316969 0.0316969
          0.031697 0.031697 0.031697 0.031697 0.031697 0.031697 0.031697 0.031697 0.031697 0.031697 0.031697 0.031697
          0.031697 0.031697 0.031697 0.031697 0.031697 0.031697 0.031697 0.031697 0.031697 0.031697 0.031697 0.031697
          0.031697 0.031697 0.031697 0.031697 0.031697 0.031697 0.031697 0.031697 0.031697
        </DataArray>
        <DataArray type="Float32" Name="x_gas^Air" NumberOfComponents="1" format="ascii">
          0.968676 0.968676 0.968583 0.968583 0.968676 0.968583 0.968676 0.968583 0.968676 0.968583 0.968676 0.968583
          0.968676 0.968583 0.968676 0.968583 0.968676 0.968583 0.968676 0.968583 0.968676 0.968583 0.968497 0.968497
          0.968497 0.968497 0.968497 0.968497 0.968497 0.968497 0.968497 0.968497 0.968497 0.96842 0.96842 0.96842
          0.96842 0.96842 0.96842 0.96842 0.968419 0.968419 0.96842 0.96842 0.968349 0.968349 0.968349 0.968349
          0.968349 0.968349 0.968349 0.968349 0.968349 0.968349 0.968349 0.968304 0.968304 0.968304 0.968304 0.968304
          0.968304 0.968304 0.968304 0.968304 0.968304 0.968304 0.968303 0.968303 0.968303 0.968303 0.968303 0.968303
          0.968303 0.968303 0.968303 0.968303 0.968303 0.968303 0.968303 0.968303 0.968303 0.968303 0.968303 0.968303
          0.968303 0.968303 0.968303 0.968303 0.968303 0.968303 0.968303 0.968303 0.968303 0.968303 0.968303 0.968303
          0.968303 0.968303 0.968303 0.968303 0.968303 0.968303 0.968303 0.968303 0.968303 0.968303 0.968303 0.968303
          0.968303 0.968303 0.968303 0.968303 0.968303 0.968303 0.968303 0.968303 0.968303 0.968303 0.968303 0.968303
          0.968303 0.968303 0.968303 0.968303 0.968303 0.968303 0.968303 0.968303 0.968303 0.968303 0.968303 0.968303
          0.968303 0.968303 0.968303 0.968303 0.968303 0.968303 0.968303 0.968303 0.968303 0.968303 0.968303 0.968303
          0.968303 0.968303 0.968303 0.968303 0.968303 0.968303 0.968303 0.968303 0.968303 0.968303 0.968303 0.968303
          0.968303 0.968303 0.968303 0.968303 0.968303 0.968303 0.968303 0.968303 0.968303
        </DataArray>
        <DataArray type="Float32" Name="porosity" NumberOfComponents="1" format="ascii">
          0.41 0.41 0.41 0.41 0.41 0.41 0.41 0.41 0.41 0.41 0.41 0.41