<?xml version="1.0"?>
<VTKFile type="UnstructuredGrid" version="0.1" byte_order="LittleEndian">
  <UnstructuredGrid>
    <Piece NumberOfCells="120" NumberOfPoints="143">
      <PointData Scalars="Sn" Vectors="velocityW">
        <DataArray type="Float32" Name="Sn" NumberOfComponents="1" format="ascii">
          0.0100172 0.0100174 0.0100345 0.0100346 0.0100174 0.0100345 0.0100176 0.0100345 0.0100154 0.0100355 0.0100171 0.0100348
          0.0100174 0.0100345 0.0100174 0.0100345 0.0100174 0.0100345 0.0100174 0.0100345 0.0100174 0.0100345 0.0100478 0.0100477
          0.0100477 0.0100477 0.0100479 0.0100478 0.0100477 0.0100477 0.0100477 0.0100477 0.0100477 0.0101676 0.0101676 0.0101675
          0.0101675 0.0101675 0.0101676 0.0101675 0.0101675 0.0101675 0.0101675 0.0101675 0.0117808 0.0117808 0.0117808 0.0117808
          0.0117808 0.0117808 0.0117808 0.0117808 0.0117808 0.0117807 0.0117807 0.0136651 0.0136651 0.0136651 0.0136651 0.0136651
          0.0136651 0.0136651 0.0136651 0.0136651 0.0136651 0.0136651 0.0158781 0.0158781 0.0158781 0.0158781 0.0158781 0.0158781
          0.0158781 0.0158781 0.0158781 0.015878 0.015878 0.0200185 0.0200185 0.0200185 0.0200184 0.0200183 0.0200183 0.0200182
          0.0200181 0.0200181 0.020018 0.020018 0.0365353 0.0365352 0.0365351 0.0365349 0.0365347 0.0365346 0.0365344 0.0365342
          0.0365341 0.036534 0.036534 0.0634068 0.0634066 0.0634063 0.063406 0.0634057 0.0634053 0.063405 0.0634047 0.0634045
          0.0634043 0.0634042 0.0991263 0.099126 0.0991255 0.099125 0.0991244 0.0991239 0.0991233 0.0991229 0.0991225 0.0991222
          0.099122 0.140233 0.140232 0.140232 0.140231 0.14023 0.140229 0.140228 0.140228 0.140227 0.140227 0.140226
          0.182904 0.182903 0.182903 0.182901 0.1829 0.182899 0.182898 0.182898 0.182897 0.182896 0.182896
        </DataArray>
        <DataArray type="Float32" Name="Sw" NumberOfComponents="1" format="ascii">
          0.989983 0.989983 0.989965 0.989965 0.989983 0.989965 0.989982 0.989965 0.989985 0.989964 0.989983 0.989965
          0.989983 0.989965 0.989983 0.989965 0.989983 0.989965 0.989983 0.989965 0.989983 0.989965 0.989952 0.989952
          0.989952 0.989952 0.989952 0.989952 0.989952 0.989952 0.989952 0.989952 0.989952 0.989832 0.989832 0.989832
          0.989833 0.989832 0.989832 0.989833 0.989833 0.989833 0.989833 0.989833 0.988219 0.988219 0.988219 0.988219
          0.988219 0.988219 0.988219 0.988219 0.988219 0.988219 0.988219 0.986335 0.986335 0.986335 0.986335 0.986335
          0.986335 0.986335 0.986335 0.986335 0.986335 0.986335 0.984122 0.984122 0.984122 0.984122 0.984122 0.984122
          0.984122 0.984122 0.984122 0.984122 0.984122 0.979981 0.979981 0.979982 0.979982 0.979982 0.979982 0.979982
          0.979982 0.979982 0.979982 0.979982 0.963465 0.963465 0.963465 0.963465 0.963465 0.963465 0.963466 0.963466
          0.963466 0.963466 0.963466 0.936593 0.936593 0.936594 0.936594 0.936594 0.936595 0.936595 0.936595 0.936595
          0.936596 0.936596 0.900874 0.900874 0.900874 0.900875 0.900876 0.900876 0.900877 0.900877 0.900878 0.900878
          0.900878 0.859767 0.859768 0.859768 0.859769 0.85977 0.859771 0.859772 0.859772 0.859773 0.859773 0.859774
          0.817096 0.817097 0.817097 0.817099 0.8171 0.817101 0.817102 0.817102 0.817103 0.817104 0.817104
        </DataArray>
        <DataArray type="Float32" Name="pn" NumberOfComponents="1" format="ascii">
          101162 101162 100706 100706 101162 100706 101162 100706 101162 100706 101162 100706
          101162 100706 101162 100706 101162 100706 101162 100706 101162 100706 100325 100325
          100325 100325 100325 100325 100325 100325 100325 100325 100325 100026 100026 100026
          100026 100026 100026 100026 100026 100026 100026 100026 100001 100001 100001 100001
          100001 100001 100001 100001 100001 100001 100001 100001 100001 100001 100001 100001
          100001 100001 100001 100001 100001 100001 100001 100001 100001 100001 100001 100001
          100001 100001 100001 100001 100001 100001 100001 100001 100001 100001 100001 100001
          100001 100001 100001 100001 100000 100000 100000 100000 100000 100000 100000 100000
          100000 100000 100000 100000 100000 100000 100000 100000 100000 100000 100000 100000
          100000 100000 100000 100000 100000 100000 100000 100000 100000 100000 100000 100000
          100000 100000 100000 100000 100000 100000 100000 100000 100000 100000 100000 100000
          100000 100000 100000 100000 100000 100000 100000 100000 100000 100000 100000
        </DataArray>
        <DataArray type="Float32" Name="pw" NumberOfComponents="1" format="ascii">
          101159 101159 100700 100700 101159 100700 101159 100700 101159 100700 101159 100700
          101159 100700 101159 100700 101159 100700 101159 100700 101159 100700 100317 100317
          100317 100317 100317 100317 100317 100317 100317 100317 100317 99998.6 99998.6 99998.6
          99998.6 99998.6 99998.6 99998.6 99998.6 99998.6 99998.6 99998.6 99733 99733 99733 99733
          99733 99733 99733 99733 99733 99733 99733 99511.6 99511.6 99511.6 99511.6 99511.6
          99511.6 99511.6 99511.6 99511.6 99511.6 99511.6 99327.1 99327.1 99327.1 99327.1 99327.2 99327.2
          99327.2 99327.2 99327.2 99327.2 99327.2 99173.4 99173.4 99173.4 99173.4 99173.4 99173.4 99173.4
          99173.4 99173.4 99173.4 99173.4 99045.3 99045.3 99045.3 99045.3 99045.3 99045.3 99045.3 99045.3
          99045.3 99045.3 99045.3 98938.6 98938.6 98938.6 98938.6 98938.6 98938.6 98938.6 98938.6 98938.6
          98938.6 98938.6 98849.6 98849.6 98849.6 98849.6 98849.6 98849.6 98849.6 98849.6 98849.6 98849.6
          98849.6 98775.5 98775.5 98775.5 98775.5 98775.5 98775.5 98775.5 98775.5 98775.5 98775.5 98775.5
          98713.7 98713.7 98713.7 98713.7 98713.7 98713.7 98713.7 98713.7 98713.7 98713.7 98713.7
        </DataArray>
        <DataArray type="Float32" Name="pc" NumberOfComponents="1" format="ascii">
          2.88466 2.9184 5.77159 5.77721 2.90756 5.77545 2.94044 5.77472 2.58585 5.93495 2.85508 5.81109
          2.91839 5.77549 2.91665 5.77594 2.91641 5.77563 2.91641 5.77547 2.91623 5.77549 7.97943 7.97589
          7.97561 7.96944 7.99995 7.97705 7.97339 7.9726 7.97218 7.97181 7.97174 27.8068 27.7985 27.7952
          27.788 27.7893 27.7978 27.788 27.787 27.7862 27.7858 27.7857 268.116 268.116 268.116 268.115
          268.115 268.114 268.114 268.113 268.113 268.112 268.112 489.248 489.248 489.248 489.247 489.246
          489.246 489.245 489.245 489.244 489.244 489.244 673.535 673.535 673.534 673.534 673.533 673.532
          673.531 673.531 673.53 673.53 673.53 827.1 827.099 827.099 827.098 827.097 827.096 827.096
          827.095 827.094 827.094 827.093 955.063 955.063 955.062 955.061 955.06 955.06 955.059 955.058
          955.057 955.057 955.056 1061.7 1061.7 1061.7 1061.7 1061.69 1061.69 1061.69 1061.69 1061.69
          1061.69 1061.69 1150.56 1150.56 1150.56 1150.56 1150.56 1150.56 1150.55 1150.55 1150.55 1150.55
          1150.55 1224.61 1224.61 1224.61 1224.61 1224.61 1224.61 1224.61 1224.6 1224.6 1224.6 1224.6
          1286.32 1286.32 1286.32 1286.32 1286.32 1286.32 1286.32 1286.31 1286.31 1286.31 1286.31
        </DataArray>
        <DataArray type="Float32" Name="rhoW" NumberOfComponents="1" format="ascii">
          997.048 997.048 997.048 997.048 997.048 997.048 997.048 997.048 997.048 997.048 997.048 997.048
          997.048 997.048 997.048 997.048 997.048 997.048 997.048 997.048 997.048 997.048 997.048 997.048
          997.048 997.048 997.048 997.048 997.048 997.048 997.048 997.048 997.048 997.048 997.048 997.048
          997.048 997.048 997.048 997.048 997.048 997.048 997.048 997.048 997.048 997.048 997.048 997.048
          997.048 997.048 997.048 997.048 997.048 997.048 997.048 997.047 997.047 997.047 997.047 997.047
          997.047 997.047 997.047 997.047 997.047 997.047 997.047 997.047 997.047 997.047 997.047 997.047
          997.047 997.047 997.047 997.047 997.047 997.047 997.047 997.047 997.047 997.047 997.047 997.047
          997.047 997.047 997.047 997.047 997.047 997.047 997.047 997.047 997.047 997.047 997.047 997.047
          997.047 997.047 997.047 997.047 997.047 997.047 997.047 997.047 997.047 997.047 997.047 997.047
          997.047 997.047 997.047 997.047 997.047 997.047 997.047 997.047 997.047 997.047 997.047 997.047
          997.047 997.047 997.047 997.047 997.047 997.047 997.047 997.047 997.047 997.047 997.047 997.047
          997.047 997.047 997.047 997.047 997.047 997.047 997.047 997.047 997.047 997.047 997.047
        </DataArray>
        <DataArray type="Float32" Name="rhoN" NumberOfComponents="1" format="ascii">
          1.16781 1.16781 1.16248 1.16248 1.16781 1.16248 1.16781 1.16248 1.16781 1.16248 1.16781 1.16248
          1.16781 1.16248 1.16781 1.16248 1.16781 1.16248 1.16781 1.16248 1.16781 1.16248 1.15804 1.15804
          1.15804 1.15804 1.15804 1.15804 1.15804 1.15804 1.15804 1.15804 1.15804 1.15455 1.15455 1.15455
          1.15455 1.15455 1.15455 1.15455 1.15455 1.15455 1.15455 1.15455 1.15425 1.15425 1.15425 1.15425
          1.15425 1.15425 1.15425 1.15425 1.15425 1.15425 1.15425 1.15425 1.15425 1.15425 1.15425 1.15425
          1.15425 1.15425 1.15425 1.15425 1.15425 1.15425 1.15425 1.15425 1.15425 1.15425 1.15425 1.15425
          1.15425 1.15425 1.15425 1.15425 1.15425 1.15424 1.15424 1.15424 1.15424 1.15424 1.15424 1.15424
          1.15424 1.15424 1.15424 1.15424 1.15424 1.15424 1.15424 1.15424 1.15424 1.15424 1.15424 1.15424
          1.15424 1.15424 1.15424 1.15424 1.15424 1.15424 1.15424 1.15424 1.15424 1.15424 1.15424 1.15424
          1.15424 1.15424 1.15424 1.15424 1.15424 1.15424 1.15424 1.15424 1.15424 1.15424 1.15424 1.15424
          1.15424 1.15424 1.15424 1.15424 1.15424 1.15424 1.15424 1.15424 1.15424 1.15424 1.15424 1.15424
          1.15424 1.15424 1.15424 1.15424 1.15424 1.15424 1.15424 1.15424 1.15424 1.15424 1.15424
        </DataArray>
        <DataArray type="Float32" Name="mobW" NumberOfComponents="1" format="ascii">
          1123.57 1123.57 1123.57 1123.57 1123.57 1123.57 1123.57 1123.57 1123.57 1123.57 1123.57 1123.57
          1123.57 1123.57 1123.57 1123.57 1123.57 1123.57 1123.57 1123.57 1123.57 1123.57 1123.57 1123.57
          1123.57 1123.57 1123.57 1123.57 1123.57 1123.57 1123.57 1123.57 1123.57 1123.56 1123.56 1123.56
          1123.56 1123.56 1123.56 1123.56 1123.56 1123.56 1123.56 1123.56 1123.3 1123.3 1123.3 1123.3
          1123.3 1123.3 1123.3 1123.3 1123.3 1123.3 1123.3 1122.45 1122.45 1122.45 1122.45 1122.45
          1122.45 1122.45 1122.45 1122.45 1122.45 1122.45 1120.73 1120.73 1120.73 1120.73 1120.73 1120.73
          1120.73 1120.73 1120.73 1120.73 1120.73 1115.53 1115.53 1115.53 1115.53 1115.53 1115.53 1115.53
          1115.53 1115.53 1115.53 1115.53 1072.72 1072.72 1072.72 1072.72 1072.72 1072.72 1072.72 1072.72
          1072.72 1072.72 1072.72 954.027 954.028 954.029 954.031 954.033 954.034 954.036 954.037 954.038
          954.039 954.04 786.345 786.346 786.347 786.349 786.352 786.354 786.356 786.357 786.359 786.36
          786.361 668.782 668.783 668.785 668.787 668.789 668.791 668.793 668.794 668.796 668.797 668.798
          566.574 566.576 566.578 566.58 566.583 566.585 566.587 566.589 566.59 566.592 566.593
        </DataArray>
        <DataArray type="Float32" Name="mobN" NumberOfComponents="1" format="ascii">
          1.36304e-05 1.39586e-05 5.63507e-05 5.64632e-05 1.38527e-05 5.6428e-05 1.4175e-05 5.64134e-05 1.08986e-05 5.9665e-05 1.33461e-05 5.71434e-05
          1.39585e-05 5.64288e-05 1.39415e-05 5.64377e-05 1.39391e-05 5.64316e-05 1.39391e-05 5.64283e-05 1.39373e-05 5.64287e-05 0.000109409 0.00010931
          0.000109302 0.000109129 0.000109986 0.000109342 0.000109239 0.000109217 0.000109205 0.000109195 0.000109193 0.00142295 0.00142207 0.00142172
          0.00142096 0.0014211 0.00142199 0.00142096 0.00142086 0.00142078 0.00142073 0.00142072 0.177938 0.177939 0.177938 0.177938
          0.177937 0.177935 0.177936 0.177934 0.177934 0.177933 0.177933 0.777563 0.777563 0.777561 0.777559 0.777556
          0.777553 0.777551 0.777549 0.777547 0.777545 0.777544 2.04087 2.04087 2.04087 2.04086 2.04085 2.04084
          2.04084 2.04083 2.04082 2.04082 2.04082 6.06386 6.06383 6.06376 6.06369 6.0636 6.06352 6.06344
          6.06336 6.0633 6.06325 6.06322 44.2703 44.27 44.2696 44.269 44.2684 44.2678 44.2673 44.2668
          44.2663 44.266 44.2658 184.121 184.12 184.118 184.115 184.113 184.111 184.108 184.106 184.105
          184.103 184.102 521.432 521.428 521.423 521.416 521.41 521.403 521.397 521.391 521.387 521.383
          521.381 1124.5 1124.49 1124.47 1124.46 1124.45 1124.43 1124.42 1124.41 1124.4 1124.39 1124.39
          1992.75 1992.73 1992.71 1992.68 1992.66 1992.63 1992.61 1992.59 1992.57 1992.56 1992.55
        </DataArray>
        <DataArray type="Float32" Name="X_liquid^H2O" NumberOfComponents="1" format="ascii">
          0.999978 0.999978 0.999978 0.999978 0.999978 0.999978 0.999978 0.999978 0.999978 0.999978 0.999978 0.999978
          0.999978 0.999978 0.999978 0.999978 0.999978 0.999978 0.999978 0.999978 0.999978 0.999978 0.999978 0.999978
          0.999978 0.999978 0.999978 0.999978 0.999978 0.999978 0.999978 0.999978 0.999978 0.999978 0.999978 0.999978
          0.999978 0.999978 0.999978 0.999978 0.999978 0.999978 0.999978 0.999978 0.999978 0.999978 0.999978 0.999978
          0.999978 0.999978 0.999978 0.999978 0.999978 0.999978 0.999978 0.999978 0.999978 0.999978 0.999978 0.999978
          0.999978 0.999978 0.999978 0.999978 0.999978 0.999978 0.999978 0.999978 0.999978 0.999978 0.999978 0.999978
          0.999978 0.999978 0.999978 0.999978 0.999978 0.999978 0.999978 0.999978 0.999978 0.999978 0.999978 0.999978
          0.999978 0.999978 0.999978 0.999978 0.999978 0.999978 0.999978 0.999978 0.999978 0.999978 0.999978 0.999978
          0.999978 0.999978 0.999978 0.999978 0.999978 0.999978 0.999978 0.999978 0.999978 0.999978 0.999978 0.999978
          0.999978 0.999978 0.999978 0.999978 0.999978 0.999978 0.999978 0.999978 0.999978 0.999978 0.999978 0.999978
          0.999978 0.999978 0.999978 0.999978 0.999978 0.999978 0.999978 0.999978 0.999978 0.999978 0.999978 0.999978
          0.999978 0.999978 0.999978 0.999978 0.999978 0.999978 0.999978 0.999978 0.999978 0.999978 0.999978
        </DataArray>
        <DataArray type="Float32" Name="X_liquid^Air" NumberOfComponents="1" format="ascii">
          2.18054e-05 2.18054e-05 2.17039e-05 2.17039e-05 2.18054e-05 2.17039e-05 2.18054e-05 2.17039e-05 2.18053e-05 2.17039e-05 2.18054e-05 2.17039e-05
          2.18054e-05 2.17039e-05 2.18054e-05 2.17039e-05 2.18054e-05 2.17039e-05 2.18054e-05 2.17039e-05 2.18054e-05 2.17039e-05 2.16193e-05 2.16193e-05
          2.16193e-05 2.16193e-05 2.16193e-05 2.16193e-05 2.16193e-05 2.16193e-05 2.16193e-05 2.16193e-05 2.16193e-05 2.15527e-05 2.15527e-05 2.15527e-05
          2.15527e-05 2.15527e-05 2.15527e-05 2.15527e-05 2.15527e-05 2.15527e-05 2.15527e-05 2.15527e-05 2.15471e-05 2.15471e-05 2.15471e-05 2.15471e-05
          2.15471e-05 2.15471e-05 2.15471e-05 2.15471e-05 2.15471e-05 2.15471e-05 2.15471e-05 2.1547e-05 2.1547e-05 2.1547e-05 2.1547e-05 2.1547e-05
          2.1547e-05 2.1547e-05 2.1547e-05 2.1547e-05 2.1547e-05 2.1547e-05 2.1547e-05 2.1547e-05 2.1547e-05 2.1547e-05 2.1547e-05 2.1547e-05
          2.1547e-05 2.1547e-05 2.1547e-05 2.1547e-05 2.1547e-05 2.1547e-05 2.1547e-05 2.1547e-05 2.1547e-05 2.1547e-05 2.1547e-05 2.1547e-05
          2.1547e-05 2.1547e-05 2.1547e-05 2.1547e-05 2.15469e-05 2.15469e-05 2.15469e-05 2.15469e-05 2.15469e-05 2.15469e-05 2.15469e-05 2.15469e-05
          2.15469e-05 2.15469e-05 2.15469e-05 2.15469e-05 2.15469e-05 2.15469e-05 2.15469e-05 2.15469e-05 2.15469e-05 2.15469e-05 2.15469e-05 2.15469e-05
          2.15469e-05 2.15469e-05 2.15469e-05 2.15469e-05 2.15469e-05 2.15469e-05 2.15469e-05 2.15469e-05 2.15469e-05 2.15469e-05 2.15469e-05 2.15469e-05
          2.15469e-05 2.15469e-05 2.15469e-05 2.15469e-05 2.15469e-05 2.15469e-05 2.15469e-05 2.15469e-05 2.15469e-05 2.15469e-05 2.15469e-05 2.15469e-05
          2.15468e-05 2.15468e-05 2.15468e-05 2.15468e-05 2.15468e-05 2.15468e-05 2.15468e-05 2.15468e-05 2.15468e-05 2.15468e-05 2.15468e-05
        </DataArray>
        <DataArray type="Float32" Name="X_gas^H2O" NumberOfComponents="1" format="ascii">
          0.0197249 0.0197249 0.0198154 0.0198153 0.0197249 0.0198153 0.0197249 0.0198153 0.019725 0.0198153 0.0197249 0.0198153
          0.0197249 0.0198153 0.0197249 0.0198153 0.0197249 0.0198153 0.0197249 0.0198153 0.0197249 0.0198153 0.0198914 0.0198914
          0.0198914 0.0198914 0.0198914 0.0198914 0.0198914 0.0198914 0.0198914 0.0198914 0.0198914 0.0199515 0.0199515 0.0199515
          0.0199515 0.0199515 0.0199515 0.0199515 0.0199515 0.0199515 0.0199515 0.0199515 0.0199567 0.0199567 0.0199567 0.0199567
          0.0199567 0.0199567 0.0199567 0.0199567 0.0199567 0.0199567 0.0199567 0.0199567 0.0199567 0.0199567 0.0199567 0.0199567
          0.0199567 0.0199567 0.0199567 0.0199567 0.0199567 0.0199567 0.0199567 0.0199567 0.0199567 0.0199567 0.0199567 0.0199567
          0.0199567 0.0199567 0.0199567 0.0199567 0.0199567 0.0199568 0.0199568 0.0199568 0.0199568 0.0199568 0.0199568 0.0199568
          0.0199568 0.0199568 0.0199568 0.0199568 0.0199568 0.0199568 0.0199568 0.0199568 0.0199568 0.0199568 0.0199568 0.0199568
          0.0199568 0.0199568 0.0199568 0.0199568 0.0199568 0.0199568 0.0199568 0.0199568 0.0199568 0.0199568 0.0199568 0.0199568
          0.0199568 0.0199568 0.0199569 0.0199569 0.0199569 0.0199569 0.0199569 0.0199569 0.0199569 0.0199569 0.0199569 0.0199569
          0.0199569 0.0199569 0.0199569 0.0199569 0.0199569 0.0199569 0.0199569 0.0199569 0.0199569 0.0199569 0.0199569 0.0199569
          0.0199569 0.0199569 0.0199569 0.0199569 0.0199569 0.0199569 0.0199569 0.0199569 0.0199569 0.0199569 0.0199569
        </DataArray>
        <DataArray type="Float32" Name="X_gas^Air" NumberOfComponents="1" format="ascii">
          0.980275 0.980275 0.980185 0.980185 0.980275 0.980185 0.980275 0.980185 0.980275 0.980185 0.980275 0.980185
          0.980275 0.980185 0.980275 0.980185 0.980275 0.980185 0.980275 0.980185 0.980275 0.980185 0.980109 0.980109
          0.980109 0.980109 0.980109 0.980109 0.980109 0.980109 0.980109 0.980109 0.980109 0.980048 0.980048 0.980048
          0.980048 0.980048 0.980048 0.980048 0.980048 0.980048 0.980048 0.980048 0.980043 0.980043 0.980043 0.980043
          0.980043 0.980043 0.980043 0.980043 0.980043 0.980043 0.980043 0.980043 0.980043 0.980043 0.980043 0.980043
          0.980043 0.980043 0.980043 0.980043 0.980043 0.980043 0.980043 0.980043 0.980043 0.980043 0.980043 0.980043
          0.980043 0.980043 0.980043 0.980043 0.980043 0.980043 0.980043 0.980043 0.980043 0.980043 0.980043 0.980043
          0.980043 0.980043 0.980043 0.980043 0.980043 0.980043 0.980043 0.980043 0.980043 0.980043 0.980043 0.980043
          0.980043 0.980043 0.980043 0.980043 0.980043 0.980043 0.980043 0.980043 0.980043 0.980043 0.980043 0.980043
          0.980043 0.980043 0.980043 0.980043 0.980043 0.980043 0.980043 0.980043 0.980043 0.980043 0.980043 0.980043
          0.980043 0.980043 0.980043 0.980043 0.980043 0.980043 0.980043 0.980043 0.980043 0.980043 0.980043 0.980043
          0.980043 0.980043 0.980043 0.980043 0.980043 0.980043 0.980043 0.980043 0.980043 0.980043 0.980043
        </DataArray>
        <DataArray type="Float32" Name="x_liquid^H2O" NumberOfComponents="1" format="ascii">
          0.999986 0.999986 0.999986 0.999986 0.999986 0.999986 0.999986 0.999986 0.999986 0.999986 0.999986 0.999986
          0.999986 0.999986 0.999986 0.999986 0.999986 0.999986 0.999986 0.999986 0.999986 0.999986 0.999987 0.999987
          0.999987 0.999987 0.999987 0.999987 0.999987 0.999987 0.999987 0.999987 0.999987 0.999987 0.999987 0.999987
          0.999987 0.999987 0.999987 0.999987 0.999987 0.999987 0.999987 0.999987 0.999987 0.999987 0.999987 0.999987
          0.999987 0.999987 0.999987 0.999987 0.999987 0.999987 0.999987 0.999987 0.999987 0.999987 0.999987 0.999987
          0.999987 0.999987 0.999987 0.999987 0.999987 0.999987 0.999987 0.999987 0.999987 0.999987 0.999987 0.999987
          0.999987 0.999987 0.999987 0.999987 0.999987 0.999987 0.999987 0.999987 0.999987 0.999987 0.999987 0.999987
          0.999987 0.999987 0.999987 0.999987 0.999987 0.999987 0.999987 0.999987 0.999987 0.999987 0.999987 0.999987
          0.999987 0.999987 0.999987 0.999987 0.999987 0.999987 0.999987 0.999987 0.999987 0.999987 0.999987 0.999987
          0.999987 0.999987 0.999987 0.999987 0.999987 0.999987 0.999987 0.999987 0.999987 0.999987 0.999987 0.999987
          0.999987 0.999987 0.999987 0.999987 0.999987 0.999987 0.999987 0.999987 0.999987 0.999987 0.999987 0.999987
          0.999987 0.999987 0.999987 0.999987 0.999987 0.999987 0.999987 0.999987 0.999987 0.999987 0.999987
        </DataArray>
        <DataArray type="Float32" Name="x_liquid^Air" NumberOfComponents="1" format="ascii">
          1.35646e-05 1.35646e-05 1.35015e-05 1.35015e-05 1.35646e-05 1.35015e-05 1.35646e-05 1.35015e-05 1.35646e-05 1.35015e-05 1.35646e-05 1.35015e-05
          1.35646e-05 1.35015e-05 1.35646e-05 1.35015e-05 1.35646e-05 1.35015e-05 1.35646e-05 1.35015e-05 1.35646e-05 1.35015e-05 1.34488e-05 1.34488e-05
          1.34488e-05 1.34488e-05 1.34488e-05 1.34488e-05 1.34488e-05 1.34488e-05 1.34488e-05 1.34488e-05 1.34488e-05 1.34074e-05 1.34074e-05 1.34074e-05
          1.34074e-05 1.34074e-05 1.34074e-05 1.34074e-05 1.34074e-05 1.34074e-05 1.34074e-05 1.34074e-05 1.34039e-05 1.34039e-05 1.34039e-05 1.34039e-05
          1.34039e-05 1.34039e-05 1.34039e-05 1.34039e-05 1.34039e-05 1.34039e-05 1.34039e-05 1.34039e-05 1.34039e-05 1.34039e-05 1.34039e-05 1.34039e-05
          1.34039e-05 1.34039e-05 1.34039e-05 1.34039e-05 1.34039e-05 1.34039e-05 1.34039e-05 1.34039e-05 1.34039e-05 1.34039e-05 1.34039e-05 1.34039e-05
          1.34039e-05 1.34039e-05 1.34039e-05 1.34039e-05 1.34039e-05 1.34039e-05 1.34039e-05 1.34039e-05 1.34039e-05 1.34039e-05 1.34039e-05 1.34039e-05
          1.34039e-05 1.34039e-05 1.34039e-05 1.34039e-05 1.34038e-05 1.34038e-05 1.34038e-05 1.34038e-05 1.34038e-05 1.34038e-05 1.34038e-05 1.34038e-05
          1.34038e-05 1.34038e-05 1.34038e-05 1.34038e-05 1.34038e-05 1.34038e-05 1.34038e-05 1.34038e-05 1.34038e-05 1.34038e-05 1.34038e-05 1.34038e-05
          1.34038e-05 1.34038e-05 1.34038e-05 1.34038e-05 1.34038e-05 1.34038e-05 1.34038e-05 1.34038e-05 1.34038e-05 1.34038e-05 1.34038e-05 1.34038e-05
          1.34038e-05 1.34038e-05 1.34038e-05 1.34038e-05 1.34038e-05 1.34038e-05 1.34038e-05 1.34038e-05 1.34038e-05 1.34038e-05 1.34038e-05 1.34038e-05
          1.34038e-05 1.34038e-05 1.34038e-05 1.34038e-05 1.34038e-05 1.34038e-05 1.34038e-05 1.34038e-05 1.34038e-05 1.34038e-05 1.34038e-05
        </DataArray>
        <DataArray type="Float32" Name="x_gas^H2O" NumberOfComponents="1" format="ascii">
          0.031333 0.031333 0.0314749 0.0314749 0.031333 0.0314749 0.031333 0.0314749 0.0313331 0.0314749 0.031333 0.0314749
          0.031333 0.0314749 0.031333 0.0314749 0.031333 0.0314749 0.031333 0.0314749 0.031333 0.0314749 0.0315942 0.0315942
          0.0315942 0.0315942 0.0315942 0.0315942 0.0315942 0.0315942 0.0315942 0.0315942 0.0315942 0.0316887 0.0316887 0.0316887
          0.0316887 0.0316887 0.0316887 0.0316887 0.0316887 0.0316887 0.0316887 0.0316887 0.0316967 0.0316967 0.0316967 0.0316967
          0.0316967 0.0316967 0.0316967 0.0316967 0.0316967 0.0316967 0.0316967 0.0316968 0.0316968 0.0316968 0.0316968 0.0316968
          0.0316968 0.0316968 0.0316968 0.0316968 0.0316968 0.0316968 0.0316968 0.0316968 0.0316968 0.0316968 0.0316968 0.0316968
          0.0316968 0.0316968 0.0316968 0.0316968 0.0316968 0.0316969 0.0316969 0.0316969 0.0316969 0.0316969 0.0316969 0.0316969
          0.0316969 0.0316969 0.0316969 0.0316969 0.0316969 0.0316969 0.0316969 0.0316969 0.0316969 0.0316969 0.0316969 0.0316969
          0.0316969 0.0316969 0.0316969 0.031697 0.031697 0.031697 0.031697 0.031697 0.031697 0.031697 0.031697 0.031697
          0.031697 0.031697 0.031697 0.031697 0.031697 0.031697 0.031697 0.031697 0.031697 0.031697 0.031697 0.031697
          0.031697 0.031697 0.031697 0.031697 0.031697 0.031697 0.031697 0.031697 0.031697 0.031697 0.031697 0.031697
          0.031697 0.031697 0.031697 0.031697 0.031697 0.031697 0.031697 0.031697 0.031697 0.031697 0.031697
        </DataArray>
        <DataArray type="Float32" Name="x_gas^Air" NumberOfComponents="1" format="ascii">
          0.968667 0.968667 0.968525 0.968525 0.968667 0.968525 0.968667 0.968525 0.968667 0.968525 0.968667 0.968525
          0.968667 0.968525 0.968667 0.968525 0.968667 0.968525 0.968667 0.968525 0.968667 0.968525 0.968406 0.968406
          0.968406 0.968406 0.968406 0.968406 0.968406 0.968406 0.968406 0.968406 0.968406 0.968311 0.968311 0.968311
          0.968311 0.968311 0.968311 0.968311 0.968311 0.968311 0.968311 0.968311 0.968303 0.968303 0.968303 0.968303
          0.968303 0.968303 0.968303 0.968303 0.968303 0.968303 0.968303 0.968303 0.968303 0.968303 0.968303 0.968303
          0.968303 0.968303 0.968303 0.968303 0.968303 0.968303 0.968303 0.968303 0.968303 0.968303 0.968303 0.968303
          0.968303 0.968303 0.968303 0.968303 0.968303 0.968303 0.968303 0.968303 0.968303 0.968303 0.968303 0.968303
          0.968303 0.968303 0.968303 0.968303 0.968303 0.968303 0.968303 0.968303 0.968303 0.968303 0.968303 0.968303
          0.968303 0.968303 0.968303 0.968303 0.968303 0.968303 0.968303 0.968303 0.968303 0.968303 0.968303 0.968303
          0.968303 0.968303 0.968303 0.968303 0.968303 0.968303 0.968303 0.968303 0.968303 0.968303 0.968303 0.968303
          0.968303 0.968303 0.968303 0.968303 0.968303 0.968303 0.968303 0.968303 0.968303 0.968303 0.968303 0.968303
          0.968303 0.968303 0.968303 0.968303 0.968303 0.968303 0.968303 0.968303 0.968303 0.968303 0.968303
        </DataArray>
        <DataArray type="Float32" Name="porosity" NumberOfComponents="1" format="ascii">
          0.41 0.41 0.41 0.41 0.41 0.41 0.41 0.41 0.41 0.41 0.41 0.41
          0.41 0.41 0.41 0.41 0.41 0.41 0.41 0.41 0.41 0.41 0.41 0.41
          0.41 0.41 0.41 0.41 0.41 0.41 0.41 0.41 0.41 0.41 0.41 0.41
          0.41 0.41 0.41 0.41 0.41 0.41 0.41 0.41 0.41 0.41 0.41 0.41
          0.41 0.41 0.41 0.41 0.41 0.41 0.41 0.41 0.41 0.41 0.41 0.41
          0.41 0.41 0.41 0.41 0.41 0.41 0.41 0.41 0.41 0.41 0.41 0.41
          0.41 0.41 0.41 0.41 0.41 0.41 0.41 0.41 0.41 0.41 0.41 0.41
          0.41 0.41 0.41 0.41 0.41 0.41 0.41 0.41 0.41 0.41 0.41 0.41
          0.41 0.41 0.41 0.41 0.41 0.41 0.41 0.41 0.41 0.41 0.41 0.41
          0.41 0.41 0.41 0.41 0.41 0.41 0.41 0.41 0.41 0.41 0.41 0.41
          0.41 0.41 0.41 0.41 0.41 0.41 0.41 0.41 0.41 0.41 0.41 0.41
          0.41 0.41 0.41 0.41 0.41 0.41 0.41 0.41 0.41 0.41 0.41
        </DataArray>
        <DataArray type="Float32" Name="temperature" NumberOfComponents="1" format="ascii">
          298.15 298.15 298.15 298.15 298.15 298.15 298.15 298.15 298.15 298.15 298.15 298.15
          298.15 298.15 298.15 298.15 298.15 298.15 298.15 298.15 298.15 298.15 298.15 298.15
          298.15 298.15 298.15 298.15 298.15 298.15 298.15 298.15 298.15 298.15 298.15 298.15
          298.15 298.15 298.15 298.15 298.15 298.15 298.15 298.15 298.15 298.15 298.15 298.15
          298.15 298.15 298.15 298.15 298.15 298.15 298.15 298.15 298.15 298.15 298.15 298.15
          298.15 298.15 298.15 298.15 298.15 298.15 298.15 298.15 298.15 298.15 298.15 298.15
          298.15 298.15 298.15 298.15 298.15 298.15 298.15 298.15 298.15 298.15 298.15 298.15
          298.15 298.15 298.15 298.15 298.15 298.15 298.15 298.15 298.15 298.15 298.15 298.15
          298.15 298.15 298.15 298.15 298.15 298.15 298.15 298.15 298.15 298.15 298.15 298.15
          298.15 298.15 298.15 298.15 298.15 298.15 298.15 298.15 298.15 298.15 298.15 298.15
          298.15 298.15 298.15 298.15 298.15 298.15 298.15 298.15 298.15 298.15 298.15 298.15
          298.15 298.15 298.15 298.15 298.15 298.15 298.15 298.15 298.15 298.15 298.15
        </DataArray>
        <DataArray type="Float32" Name="phase presence" NumberOfComponents="1" format="ascii">
          3 3 3 3 3 3 3 3 3 3 3 3
          3 3 3 3 3 3 3 3 3 3 3 3
          3 3 3 3 3 3 3 3 3 3 3 3
          3 3 3 3 3 3 3 3 3 3 3 3
          3 3 3 3 3 3 3 3 3 3 3 3
          3 3 3 3 3 3 3 3 3 3 3 3
          3 3 3 3 3 3 3 3 3 3 3 3
          3 3 3 3 3 3 3 3 3 3 3 3
          3 3 3 3 3 3 3 3 3 3 3 3
          3 3 3 3 3 3 3 3 3 3 3 3
          3 3 3 3 3 3 3 3 3 3 3 3
          3 3 3 3 3 3 3 3 3 3 3
        </DataArray>
        <DataArray type="Float32" Name="velocityW" NumberOfComponents="3" format="ascii">
          -1.93794e-10 3.48289e-10 0 -3.77417e-10 3.29671e-10 0 -2.27846e-10 7.0413e-10 0 -4.43892e-10 6.64643e-10 0
          -7.1625e-10 2.75604e-10 0 -8.41198e-10 5.51002e-10 0 -9.83863e-10 1.93327e-10 0 -1.15018e-09 3.77456e-10 0
          -1.18055e-09 8.05416e-11 0 -1.45744e-09 1.43882e-10 0 -1.20153e-09 -9.85207e-11 0 -1.40221e-09 -1.89532e-10 0
          -1.10684e-09 -1.42633e-10 0 -1.20895e-09 -3.10176e-10 0 -9.63076e-10 -2.27115e-10 0 -1.11852e-09 -4.87356e-10 0
          -6.97691e-10 -3.03035e-10 0 -8.08605e-10 -6.41535e-10 0 -3.66048e-10 -3.50962e-10 0 -4.23757e-10 -7.39403e-10 0
          -1.87427e-10 -3.67422e-10 0 -2.16889e-10 -7.7281e-10 0 -3.23098e-10 1.47717e-09 0 -6.27861e-10 1.39042e-09 0
          -1.185e-09 1.14311e-09 0 -1.61227e-09 7.68525e-10 0 -2.09522e-09 3.23235e-10 0 -1.93563e-09 -1.09856e-10 0
          -1.59055e-09 -6.29808e-10 0 -1.52989e-09 -1.05048e-09 0 -1.10306e-09 -1.36911e-09 0 -5.77086e-10 -1.57099e-09 0
          -2.94691e-10 -1.64003e-09 0 -4.73748e-10 2.42974e-09 0 -9.16434e-10 2.28097e-09 0 -1.7183e-09 1.86024e-09 0