<?xml version="1.0"?>
<VTKFile type="UnstructuredGrid" version="0.1" byte_order="LittleEndian">
  <UnstructuredGrid>
    <Piece NumberOfCells="575" NumberOfPoints="624">
      <PointData Scalars="Sn" Vectors="velocityW">
        <DataArray type="Float32" Name="Sn" NumberOfComponents="1" format="ascii">
          0.0100116 0.0100116 0.0100225 0.0100225 0.0100116 0.0100225 0.0100116 0.0100225 0.0100116 0.0100225 0.0100116 0.0100225
          0.0100116 0.0100225 0.0100117 0.0100225 0.0100115 0.0100225 0.0100115 0.0100225 0.0100115 0.0100224 0.0100117 0.0100226
          0.0100115 0.0100228 0.010012 0.0100221 0.0100117 0.0100223 0.0100108 0.0100226 0.010012 0.0100224 0.0100125 0.0100227
          0.0100111 0.0100228 0.0100096 0.010023 0.0100088 0.0100223 0.0100115 0.0100225 0.0100103 0.0100223 0.0100132 0.0100224
          0.0100116 0.0100225 0.0100116 0.0100225 0.0100304 0.0100304 0.0100304 0.0100304 0.0100304 0.0100304 0.0100304 0.0100304
          0.0100304 0.0100304 0.0100303 0.0100305 0.0100305 0.0100303 0.0100303 0.0100305 0.0100301 0.0100302 0.0100304 0.0100307
          0.0100306 0.0100304 0.0100303 0.0100301 0.0100303 0.0100304 0.0100369 0.0100369 0.0100369 0.0100369 0.0100369 0.0100369
          0.0100369 0.0100369 0.0100369 0.0100369 0.0100369 0.0100369 0.0100369 0.0100372 0.0100369 0.0100369 0.0100367 0.0100367
          0.0100369 0.0100371 0.0100372 0.010037 0.0100369 0.0100367 0.0100369 0.0100369 0.0100427 0.0100427 0.0100427 0.0100427
          0.0100427 0.0100427 0.0100427 0.0100427 0.0100427 0.0100427 0.0100427 0.0100427 0.0100424 0.0100427 0.0100428 0.0100427
          0.0100426 0.0100426 0.0100427 0.0100428 0.010043 0.0100428 0.0100428 0.0100426 0.0100427 0.0100427 0.0100542 0.0100542
          0.0100542 0.0100542 0.0100542 0.0100542 0.0100542 0.0100542 0.0100542 0.0100542 0.0100542 0.0100542 0.0100546 0.0100544
          0.0100543 0.0100543 0.0100541 0.0100541 0.0100542 0.0100543 0.0100544 0.0100543 0.0100543 0.0100541 0.0100542 0.0100542
          0.0102853 0.0102853 0.0102853 0.0102853 0.0102853 0.0102853 0.0102853 0.0102853 0.0102853 0.0102853 0.0102853 0.0102853
          0.0102852 0.0102853 0.0102853 0.0102853 0.0102853 0.0102853 0.0102853 0.0102853 0.0102853 0.0102853 0.0102853 0.0102853
          0.0102853 0.0102853 0.011199 0.011199 0.011199 0.011199 0.011199 0.011199 0.011199 0.011199 0.011199 0.011199
          0.011199 0.011199 0.011199 0.011199 0.011199 0.011199 0.011199 0.011199 0.011199 0.011199 0.011199 0.011199
          0.011199 0.011199 0.011199 0.011199 0.0121422 0.0121422 0.0121422 0.0121422 0.0121422 0.0121422 0.0121422 0.0121422
          0.0121422 0.0121422 0.0121422 0.0121422 0.0121422 0.0121422 0.0121422 0.0121422 0.0121422 0.0121422 0.0121422 0.0121422
          0.0121422 0.0121422 0.0121422 0.0121422 0.0121422 0.0121422 0.0131237 0.0131237 0.0131237 0.0131237 0.0131237 0.0131237
          0.0131237 0.0131237 0.0131237 0.0131237 0.0131237 0.0131237 0.0131237 0.0131237 0.0131237 0.0131237 0.0131237 0.0131237
          0.0131237 0.0131237 0.0131237 0.0131237 0.0131237 0.0131237 0.0131237 0.0131237 0.0141684 0.0141684 0.0141684 0.0141684
          0.0141684 0.0141683 0.0141683 0.0141683 0.0141683 0.0141683 0.0141683 0.0141683 0.0141683 0.0141683 0.0141683 0.0141683
          0.0141683 0.0141683 0.0141683 0.0141683 0.0141683 0.0141683 0.0141683 0.0141683 0.0141683 0.0141683 0.0153216 0.0153216
          0.0153216 0.0153216 0.0153216 0.0153216 0.0153216 0.0153216 0.0153216 0.0153216 0.0153216 0.0153216 0.0153216 0.0153216
          0.0153216 0.0153215 0.0153215 0.0153215 0.0153215 0.0153215 0.0153215 0.0153215 0.0153215 0.0153215 0.0153215 0.0153215
          0.0166869 0.0166869 0.0166869 0.0166869 0.0166869 0.0166869 0.0166868 0.0166868 0.0166868 0.0166868 0.0166868 0.0166868
          0.0166868 0.0166868 0.0166868 0.0166868 0.0166868 0.0166868 0.0166868 0.0166868 0.0166867 0.0166867 0.0166867 0.0166867
          0.0166867 0.0166867 0.0186606 0.0186605 0.0186605 0.0186605 0.0186605 0.0186605 0.0186605 0.0186605 0.0186605 0.0186604
          0.0186604 0.0186604 0.0186604 0.0186604 0.0186604 0.0186603 0.0186603 0.0186603 0.0186603 0.0186603 0.0186603 0.0186603
          0.0186603 0.0186603 0.0186603 0.0186603 0.0245997 0.0245997 0.0245996 0.0245996 0.0245996 0.0245995 0.0245995 0.0245994
          0.0245994 0.0245993 0.0245992 0.0245992 0.0245991 0.0245991 0.024599 0.024599 0.0245989 0.0245989 0.0245989 0.0245988
          0.0245988 0.0245988 0.0245987 0.0245987 0.0245987 0.0245987 0.0338447 0.0338447 0.0338447 0.0338446 0.0338445 0.0338445
          0.0338444 0.0338443 0.0338442 0.0338441 0.033844 0.0338439 0.0338438 0.0338437 0.0338437 0.0338436 0.0338435 0.0338435
          0.0338434 0.0338433 0.0338433 0.0338432 0.0338432 0.0338432 0.0338431 0.0338431 0.0460027 0.0460026 0.0460026 0.0460025
          0.0460024 0.0460022 0.0460021 0.046002 0.0460018 0.0460017 0.0460016 0.0460014 0.0460013 0.0460012 0.0460011 0.0460009
          0.0460008 0.0460007 0.0460007 0.0460006 0.0460005 0.0460004 0.0460004 0.0460003 0.0460003 0.0460003 0.0610018 0.0610018
          0.0610017 0.0610015 0.0610014 0.0610012 0.061001 0.0610008 0.0610006 0.0610004 0.0610002 0.061 0.0609998 0.0609997
          0.0609995 0.0609994 0.0609992 0.0609991 0.060999 0.0609988 0.0609987 0.0609986 0.0609986 0.0609985 0.0609985 0.0609984
          0.0785507 0.0785506 0.0785505 0.0785503 0.07855 0.0785498 0.0785495 0.0785493 0.078549 0.0785487 0.0785485 0.0785482
          0.078548 0.0785478 0.0785475 0.0785473 0.0785472 0.078547 0.0785468 0.0785467 0.0785465 0.0785464 0.0785463 0.0785462
          0.0785462 0.0785461 0.0981922 0.0981921 0.0981919 0.0981916 0.0981913 0.098191 0.0981906 0.0981903 0.0981899 0.0981896
          0.0981893 0.0981889 0.0981886 0.0981884 0.0981881 0.0981878 0.0981876 0.0981874 0.0981872 0.098187 0.0981868 0.0981867
          0.0981865 0.0981864 0.0981863 0.0981863 0.119374 0.119373 0.119373 0.119373 0.119372 0.119372 0.119371 0.119371
          0.119371 0.11937 0.11937 0.119369 0.119369 0.119369 0.119368 0.119368 0.119368 0.119367 0.119367 0.119367
          0.119367 0.119367 0.119366 0.119366 0.119366 0.119366 0.141515 0.141515 0.141514 0.141514 0.141513 0.141513
          0.141512 0.141512 0.141511 0.141511 0.14151 0.14151 0.141509 0.141509 0.141509 0.141508 0.141508 0.141508
          0.141507 0.141507 0.141507 0.141507 0.141506 0.141506 0.141506 0.141506 0.164066 0.164066 0.164065 0.164065
          0.164064 0.164063 0.164063 0.164062 0.164062 0.164061 0.16406 0.16406 0.164059 0.164059 0.164058 0.164058
          0.164058 0.164057 0.164057 0.164057 0.164056 0.164056 0.164056 0.164056 0.164056 0.164055 0.186544 0.186544
          0.186543 0.186542 0.186541 0.186541 0.18654 0.186539 0.186539 0.186538 0.186537 0.186537 0.186536 0.186536
          0.186535 0.186535 0.186534 0.186534 0.186533 0.186533 0.186533 0.186532 0.186532 0.186532 0.186532 0.186531
        </DataArray>
        <DataArray type="Float32" Name="Sw" NumberOfComponents="1" format="ascii">
          0.989988 0.989988 0.989977 0.989977 0.989988 0.989977 0.989988 0.989977 0.989988 0.989977 0.989988 0.989977
          0.989988 0.989977 0.989988 0.989977 0.989988 0.989977 0.989989 0.989977 0.989989 0.989978 0.989988 0.989977
          0.989989 0.989977 0.989988 0.989978 0.989988 0.989978 0.989989 0.989977 0.989988 0.989978 0.989987 0.989977
          0.989989 0.989977 0.98999 0.989977 0.989991 0.989978 0.989989 0.989978 0.98999 0.989978 0.989987 0.989978
          0.989988 0.989977 0.989988 0.989977 0.98997 0.98997 0.98997 0.98997 0.98997 0.98997 0.98997 0.98997
          0.98997 0.98997 0.98997 0.98997 0.98997 0.98997 0.98997 0.98997 0.98997 0.98997 0.98997 0.989969
          0.989969 0.98997 0.98997 0.98997 0.98997 0.98997 0.989963 0.989963 0.989963 0.989963 0.989963 0.989963
          0.989963 0.989963 0.989963 0.989963 0.989963 0.989963 0.989963 0.989963 0.989963 0.989963 0.989963 0.989963
          0.989963 0.989963 0.989963 0.989963 0.989963 0.989963 0.989963 0.989963 0.989957 0.989957 0.989957 0.989957
          0.989957 0.989957 0.989957 0.989957 0.989957 0.989957 0.989957 0.989957 0.989958 0.989957 0.989957 0.989957
          0.989957 0.989957 0.989957 0.989957 0.989957 0.989957 0.989957 0.989957 0.989957 0.989957 0.989946 0.989946
          0.989946 0.989946 0.989946 0.989946 0.989946 0.989946 0.989946 0.989946 0.989946 0.989946 0.989945 0.989946
          0.989946 0.989946 0.989946 0.989946 0.989946 0.989946 0.989946 0.989946 0.989946 0.989946 0.989946 0.989946
          0.989715 0.989715 0.989715 0.989715 0.989715 0.989715 0.989715 0.989715 0.989715 0.989715 0.989715 0.989715
          0.989715 0.989715 0.989715 0.989715 0.989715 0.989715 0.989715 0.989715 0.989715 0.989715 0.989715 0.989715
          0.989715 0.989715 0.988801 0.988801 0.988801 0.988801 0.988801 0.988801 0.988801 0.988801 0.988801 0.988801
          0.988801 0.988801 0.988801 0.988801 0.988801 0.988801 0.988801 0.988801 0.988801 0.988801 0.988801 0.988801
          0.988801 0.988801 0.988801 0.988801 0.987858 0.987858 0.987858 0.987858 0.987858 0.987858 0.987858 0.987858
          0.987858 0.987858 0.987858 0.987858 0.987858 0.987858 0.987858 0.987858 0.987858 0.987858 0.987858 0.987858
          0.987858 0.987858 0.987858 0.987858 0.987858 0.987858 0.986876 0.986876 0.986876 0.986876 0.986876 0.986876
          0.986876 0.986876 0.986876 0.986876 0.986876 0.986876 0.986876 0.986876 0.986876 0.986876 0.986876 0.986876
          0.986876 0.986876 0.986876 0.986876 0.986876 0.986876 0.986876 0.986876 0.985832 0.985832 0.985832 0.985832
          0.985832 0.985832 0.985832 0.985832 0.985832 0.985832 0.985832 0.985832 0.985832 0.985832 0.985832 0.985832
          0.985832 0.985832 0.985832 0.985832 0.985832 0.985832 0.985832 0.985832 0.985832 0.985832 0.984678 0.984678
          0.984678 0.984678 0.984678 0.984678 0.984678 0.984678 0.984678 0.984678 0.984678 0.984678 0.984678 0.984678
          0.984678 0.984678 0.984678 0.984678 0.984678 0.984678 0.984678 0.984678 0.984678 0.984678 0.984679 0.984679
          0.983313 0.983313 0.983313 0.983313 0.983313 0.983313 0.983313 0.983313 0.983313 0.983313 0.983313 0.983313
          0.983313 0.983313 0.983313 0.983313 0.983313 0.983313 0.983313 0.983313 0.983313 0.983313 0.983313 0.983313
          0.983313 0.983313 0.981339 0.981339 0.981339 0.981339 0.981339 0.98134 0.98134 0.98134 0.98134 0.98134
          0.98134 0.98134 0.98134 0.98134 0.98134 0.98134 0.98134 0.98134 0.98134 0.98134 0.98134 0.98134
          0.98134 0.98134 0.98134 0.98134 0.9754 0.9754 0.9754 0.9754 0.9754 0.975401 0.975401 0.975401
          0.975401 0.975401 0.975401 0.975401 0.975401 0.975401 0.975401 0.975401 0.975401 0.975401 0.975401 0.975401
          0.975401 0.975401 0.975401 0.975401 0.975401 0.975401 0.966155 0.966155 0.966155 0.966155 0.966155 0.966156
          0.966156 0.966156 0.966156 0.966156 0.966156 0.966156 0.966156 0.966156 0.966156 0.966156 0.966156 0.966157
          0.966157 0.966157 0.966157 0.966157 0.966157 0.966157 0.966157 0.966157 0.953997 0.953997 0.953997 0.953998
          0.953998 0.953998 0.953998 0.953998 0.953998 0.953998 0.953998 0.953999 0.953999 0.953999 0.953999 0.953999
          0.953999 0.953999 0.953999 0.953999 0.954 0.954 0.954 0.954 0.954 0.954 0.938998 0.938998
          0.938998 0.938998 0.938999 0.938999 0.938999 0.938999 0.938999 0.939 0.939 0.939 0.939 0.939
          0.939 0.939001 0.939001 0.939001 0.939001 0.939001 0.939001 0.939001 0.939001 0.939002 0.939002 0.939002
          0.921449 0.921449 0.92145 0.92145 0.92145 0.92145 0.92145 0.921451 0.921451 0.921451 0.921452 0.921452
          0.921452 0.921452 0.921452 0.921453 0.921453 0.921453 0.921453 0.921453 0.921453 0.921454 0.921454 0.921454
          0.921454 0.921454 0.901808 0.901808 0.901808 0.901808 0.901809 0.901809 0.901809 0.90181 0.90181 0.90181
          0.901811 0.901811 0.901811 0.901812 0.901812 0.901812 0.901812 0.901813 0.901813 0.901813 0.901813 0.901813
          0.901813 0.901814 0.901814 0.901814 0.880626 0.880627 0.880627 0.880627 0.880628 0.880628 0.880629 0.880629
          0.880629 0.88063 0.88063 0.880631 0.880631 0.880631 0.880632 0.880632 0.880632 0.880633 0.880633 0.880633
          0.880633 0.880633 0.880634 0.880634 0.880634 0.880634 0.858485 0.858485 0.858486 0.858486 0.858487 0.858487
          0.858488 0.858488 0.858489 0.858489 0.85849 0.85849 0.858491 0.858491 0.858491 0.858492 0.858492 0.858492
          0.858493 0.858493 0.858493 0.858494 0.858494 0.858494 0.858494 0.858494 0.835934 0.835934 0.835935 0.835935
          0.835936 0.835936 0.835937 0.835938 0.835938 0.835939 0.83594 0.83594 0.835941 0.835941 0.835941 0.835942
          0.835942 0.835943 0.835943 0.835943 0.835944 0.835944 0.835944 0.835944 0.835944 0.835945 0.813456 0.813456
          0.813457 0.813458 0.813459 0.813459 0.81346 0.813461 0.813461 0.813462 0.813463 0.813463 0.813464 0.813464
          0.813465 0.813465 0.813466 0.813466 0.813467 0.813467 0.813467 0.813468 0.813468 0.813468 0.813468 0.813469
        </DataArray>
        <DataArray type="Float32" Name="pn" NumberOfComponents="1" format="ascii">
          101156 101156 100908 100908 101156 100908 101156 100908 101156 100908 101156 100908
          101156 100908 101156 100908 101156 100908 101156 100908 101156 100908 101156 100908
          101156 100908 101156 100908 101156 100908 101156 100908 101156 100908 101156 100908
          101156 100908 101156 100908 101156 100908 101156 100908 101156 100908 101156 100908
          101156 100908 101156 100908 100681 100681 100681 100681 100681 100681 100681 100681
          100681 100681 100681 100682 100682 100681 100681 100682 100681 100681 100682 100682
          100682 100681 100681 100681 100681 100681 100476 100476 100476 100476 100476 100476
          100476 100476 100476 100476 100476 100476 100476 100476 100476 100476 100476 100476
          100476 100476 100476 100476 100476 100476 100476 100476 100289 100289 100289 100289
          100289 100289 100289 100289 100289 100289 100289 100289 100289 100289 100289 100289
          100289 100289 100289 100289 100289 100289 100289 100289 100289 100289 100120 100120
          100120 100120 100120 100120 100120 100120 100120 100120 100120 100120 100120 100120
          100120 100120 100120 100120 100120 100120 100120 100120 100120 100120 100120 100120
          100002 100002 100002 100002 100002 100002 100002 100002 100002 100002 100002 100002
          100002 100002 100002 100002 100002 100002 100002 100002 100002 100002 100002 100002
          100002 100002 100001 100001 100001 100001 100001 100001 100001 100001 100001 100001
          100001 100001 100001 100001 100001 100001 100001 100001 100001 100001 100001 100001
          100001 100001 100001 100001 100001 100001 100001 100001 100001 100001 100001 100001
          100001 100001 100001 100001 100001 100001 100001 100001 100001 100001 100001 100001
          100001 100001 100001 100001 100001 100001 100001 100001 100001 100001 100001 100001
          100001 100001 100001 100001 100001 100001 100001 100001 100001 100001 100001 100001
          100001 100001 100001 100001 100001 100001 100001 100001 100001 100001 100001 100001
          100001 100001 100001 100001 100001 100001 100001 100001 100001 100001 100001 100001
          100001 100001 100001 100001 100001 100001 100001 100001 100001 100001 100001 100001
          100001 100001 100001 100001 100001 100001 100001 100001 100001 100001 100001 100001
          100001 100001 100001 100001 100001 100001 100001 100001 100001 100001 100001 100001
          100001 100001 100001 100001 100001 100001 100001 100001 100001 100001 100001 100001
          100001 100001 100001 100001 100001 100001 100001 100001 100001 100001 100001 100001
          100001 100001 100001 100001 100001 100001 100001 100001 100001 100001 100001 100001
          100001 100001 100001 100001 100001 100001 100001 100001 100001 100001 100001 100001
          100001 100001 100001 100001 100000 100000 100000 100000 100000 100000 100000 100000
          100000 100000 100000 100000 100000 100000 100000 100000 100000 100000 100000 100000
          100000 100000 100000 100000 100000 100000 100000 100000 100000 100000 100000 100000
          100000 100000 100000 100000 100000 100000 100000 100000 100000 100000 100000 100000
          100000 100000 100000 100000 100000 100000 100000 100000 100000 100000 100000 100000
          100000 100000 100000 100000 100000 100000 100000 100000 100000 100000 100000 100000
          100000 100000 100000 100000 100000 100000 100000 100000 100000 100000 100000 100000
          100000 100000 100000 100000 100000 100000 100000 100000 100000 100000 100000 100000
          100000 100000 100000 100000 100000 100000 100000 100000 100000 100000 100000 100000
          100000 100000 100000 100000 100000 100000 100000 100000 100000 100000 100000 100000
          100000 100000 100000 100000 100000 100000 100000 100000 100000 100000 100000 100000
          100000 100000 100000 100000 100000 100000 100000 100000 100000 100000 100000 100000
          100000 100000 100000 100000 100000 100000 100000 100000 100000 100000 100000 100000
          100000 100000 100000 100000 100000 100000 100000 100000 100000 100000 100000 100000
          100000 100000 100000 100000 100000 100000 100000 100000 100000 100000 100000 100000
          100000 100000 100000 100000 100000 100000 100000 100000 100000 100000 100000 100000
          100000 100000 100000 100000 100000 100000 100000 100000 100000 100000 100000 100000
          100000 100000 100000 100000 100000 100000 100000 100000 100000 100000 100000 100000
          100000 100000 100000 100000 100000 100000 100000 100000 100000 100000 100000 100000
          100000 100000 100000 100000 100000 100000 100000 100000 100000 100000 100000 100000
          100000 100000 100000 100000 100000 100000 100000 100000 100000 100000 100000 100000
          100000 100000 100000 100000 100000 100000 100000 100000 100000 100000 100000 100000
        </DataArray>
        <DataArray type="Float32" Name="pw" NumberOfComponents="1" format="ascii">
          101154 101154 100904 100904 101154 100904 101154 100904 101154 100904 101154 100904
          101154 100904 101154 100904 101154 100904 101154 100904 101154 100904 101154 100904
          101154 100904 101154 100904 101154 100904 101154 100904 101154 100904 101154 100904
          101154 100904 101154 100904 101154 100904 101154 100904 101154 100904 101154 100904
          101154 100904 101154 100904 100676 100676 100676 100676 100676 100676 100676 100676
          100676 100676 100676 100676 100676 100676 100676 100676 100676 100676 100676 100676
          100676 100676 100676 100676 100676 100676 100470 100470 100470 100470 100470 100470
          100470 100470 100470 100470 100470 100470 100470 100470 100470 100470 100470 100470
          100470 100470 100470 100470 100470 100470 100470 100470 100282 100282 100282 100282
          100282 100282 100282 100282 100282 100282 100282 100282 100282 100282 100282 100282
          100282 100282 100282 100282 100282 100282 100282 100282 100282 100282 100111 100111
          100111 100111 100111 100111 100111 100111 100111 100111 100111 100111 100111 100111
          100111 100111 100111 100111 100111 100111 100111 100111 100111 100111 100111 100111
          99955.3 99955.3 99955.3 99955.3 99955.3 99955.3 99955.3 99955.3 99955.3 99955.3 99955.3 99955.3
          99955.3 99955.3 99955.3 99955.3 99955.3 99955.3 99955.3 99955.3 99955.3 99955.3 99955.3 99955.3
          99955.3 99955.3 99814 99814 99814 99814 99814 99814 99814 99814 99814 99814
          99814 99814 99814 99814 99814 99814 99814 99814 99814 99814 99814 99814
          99814 99814 99814 99814 99685.6 99685.6 99685.6 99685.6 99685.6 99685.6 99685.6 99685.6
          99685.6 99685.6 99685.6 99685.6 99685.6 99685.6 99685.6 99685.6 99685.6 99685.6 99685.6 99685.6
          99685.6 99685.6 99685.6 99685.6 99685.6 99685.6 99568.9 99568.9 99568.9 99568.9 99568.9 99568.9
          99568.9 99568.9 99568.9 99568.9 99568.9 99568.9 99568.9 99568.9 99568.9 99568.9 99568.9 99568.9
          99568.9 99568.9 99568.9 99568.9 99568.9 99568.9 99568.9 99568.9 99462.7 99462.7 99462.7 99462.7
          99462.7 99462.7 99462.7 99462.8 99462.8 99462.8 99462.8 99462.8 99462.8 99462.8 99462.8 99462.8
          99462.8 99462.8 99462.8 99462.8 99462.8 99462.8 99462.8 99462.8 99462.8 99462.8 99366.3 99366.3
          99366.3 99366.3 99366.3 99366.3 99366.3 99366.3 99366.3 99366.3 99366.3 99366.3 99366.3 99366.3
          99366.3 99366.3 99366.3 99366.3 99366.3 99366.3 99366.3 99366.3 99366.3 99366.3 99366.3 99366.3
          99278.6 99278.6 99278.6 99278.6 99278.6 99278.6 99278.6 99278.6 99278.6 99278.6 99278.6 99278.6
          99278.6 99278.6 99278.6 99278.6 99278.6 99278.6 99278.6 99278.6 99278.6 99278.6 99278.6 99278.6
          99278.6 99278.6 99198.8 99198.8 99198.8 99198.8 99198.8 99198.8 99198.8 99198.8 99198.8 99198.8
          99198.8 99198.8 99198.8 99198.8 99198.8 99198.8 99198.8 99198.8 99198.8 99198.8 99198.8 99198.8
          99198.8 99198.8 99198.8 99198.8 99126.3 99126.3 99126.3 99126.3 99126.3 99126.3 99126.3 99126.3
          99126.3 99126.3 99126.3 99126.3 99126.3 99126.3 99126.3 99126.3 99126.3 99126.3 99126.3 99126.3
          99126.3 99126.3 99126.3 99126.3 99126.3 99126.3 99060.4 99060.4 99060.4 99060.4 99060.4 99060.4
          99060.4 99060.4 99060.4 99060.4 99060.4 99060.4 99060.4 99060.4 99060.4 99060.4 99060.4 99060.4
          99060.4 99060.4 99060.4 99060.4 99060.4 99060.4 99060.4 99060.4 99000.5 99000.5 99000.5 99000.5
          99000.5 99000.5 99000.5 99000.5 99000.5 99000.5 99000.5 99000.5 99000.5 99000.5 99000.5 99000.5
          99000.5 99000.5 99000.5 99000.5 99000.5 99000.5 99000.5 99000.5 99000.5 99000.5 98946.1 98946.1
          98946.1 98946.1 98946.1 98946.1 98946.1 98946.1 98946.1 98946.1 98946.1 98946.1 98946.1 98946.1
          98946.1 98946.1 98946.1 98946.1 98946.1 98946.1 98946.1 98946.1 98946.1 98946.1 98946.1 98946.1
          98896.6 98896.6 98896.6 98896.6 98896.6 98896.6 98896.6 98896.6 98896.6 98896.6 98896.6 98896.6
          98896.6 98896.6 98896.6 98896.6 98896.6 98896.6 98896.6 98896.6 98896.6 98896.6 98896.6 98896.6
          98896.6 98896.6 98851.5 98851.5 98851.5 98851.5 98851.6 98851.6 98851.6 98851.6 98851.6 98851.6
          98851.6 98851.6 98851.6 98851.6 98851.6 98851.6 98851.6 98851.6 98851.6 98851.6 98851.6 98851.6
          98851.6 98851.6 98851.6 98851.6 98810.6 98810.6 98810.6 98810.6 98810.6 98810.6 98810.6 98810.6
          98810.6 98810.6 98810.6 98810.6 98810.6 98810.6 98810.6 98810.6 98810.6 98810.6 98810.6 98810.6
          98810.6 98810.6 98810.6 98810.6 98810.6 98810.6 98773.4 98773.4 98773.4 98773.4 98773.4 98773.4
          98773.4 98773.4 98773.4 98773.4 98773.4 98773.4 98773.4 98773.4 98773.4 98773.4 98773.4 98773.4
          98773.4 98773.4 98773.4 98773.4 98773.4 98773.4 98773.4 98773.4 98739.6 98739.6 98739.6 98739.6
          98739.6 98739.6 98739.6 98739.6 98739.6 98739.6 98739.6 98739.6 98739.6 98739.6 98739.6 98739.6
          98739.6 98739.6 98739.6 98739.6 98739.6 98739.6 98739.6 98739.6 98739.6 98739.6 98708.9 98708.9
          98708.9 98708.9 98708.9 98708.9 98708.9 98708.9 98708.9 98708.9 98708.9 98708.9 98708.9 98708.9
          98708.9 98708.9 98708.9 98708.9 98708.9 98708.9 98708.9 98708.9 98708.9 98708.9 98708.9 98708.9
        </DataArray>
        <DataArray type="Float32" Name="pc" NumberOfComponents="1" format="ascii">
          1.93899 1.93477 3.7678 3.76504 1.93463 3.76502 1.93448 3.76486 1.93456 3.76505 1.93456 3.76537
          1.9348 3.76545 1.96496 3.77112 1.93132 3.77026 1.92837 3.76871 1.9247 3.75505 1.95343 3.77842
          1.92299 3.8206 2.00122 3.70023 1.96573 3.73041 1.80447 3.78365 2.00853 3.73993 2.0984 3.79146
          1.86151 3.82173 1.61044 3.85344 1.46732 3.72359 1.91766 3.76084 1.73122 3.72735 2.2114 3.74628
          1.9379 3.76329 1.93434 3.76354 5.08153 5.07989 5.07988 5.07972 5.07986 5.08015 5.07948 5.07723
          5.0841 5.08245 5.0675 5.09613 5.09332 5.06948 5.06519 5.09204 5.03979 5.04477 5.08952 5.127
          5.12221 5.08391 5.06865 5.03141 5.07419 5.07689 6.1735 6.17259 6.17258 6.17241 6.17251 6.1727
          6.17164 6.16775 6.17474 6.17421 6.16925 6.16682 6.17372 6.21033 6.1741 6.16105 6.13911 6.13646
          6.16449 6.19502 6.22403 6.17994 6.17647 6.13645 6.16527 6.16808 7.14212 7.14163 7.14161 7.14144
          7.14148 7.14156 7.14036 7.13671 7.14196 7.14222 7.13396 7.13571 7.09133 7.13443 7.15386 7.14251
          7.11847 7.11406 7.12981 7.15248 7.18347 7.14919 7.15005 7.1183 7.13356 7.13564 9.0576 9.05734
          9.0573 9.0571 9.05707 9.05701 9.05569 9.05252 9.05627 9.05707 9.04924 9.05032 9.12051 9.07654
          9.07124 9.06085 9.04178 9.03591 9.04488 9.06245 9.08908 9.06439 9.06623 9.04131 9.04805 9.04937
          47.0068 47.0068 47.0066 47.0064 47.0061 47.0055 47.0048 47.0043 47.0041 47.0037 47.0036 47.0051
          46.9928 47.0026 47.0082 47.0052 47.0006 46.9983 47.0006 47.0062 47.0096 47.0095 47.0049 47.001
          46.998 46.9976 187.062 187.062 187.062 187.062 187.062 187.062 187.061 187.061 187.061 187.061
          187.06 187.06 187.061 187.06 187.059 187.059 187.059 187.059 187.059 187.058 187.058 187.058
          187.058 187.058 187.058 187.058 315.368 315.368 315.368 315.368 315.367 315.367 315.367 315.367
          315.366 315.366 315.366 315.366 315.365 315.365 315.365 315.364 315.364 315.364 315.364 315.364
          315.363 315.363 315.363 315.363 315.363 315.363 432.014 432.014 432.014 432.014 432.013 432.013
          432.013 432.013 432.012 432.012 432.012 432.011 432.011 432.011 432.01 432.01 432.01 432.01
          432.009 432.009 432.009 432.009 432.009 432.009 432.009 432.008 538.052 538.052 538.052 538.052
          538.052 538.051 538.051 538.051 538.05 538.05 538.05 538.049 538.049 538.049 538.048 538.048
          538.048 538.047 538.047 538.047 538.047 538.047 538.046 538.046 538.046 538.046 634.446 634.446
          634.446 634.446 634.446 634.445 634.445 634.445 634.444 634.444 634.444 634.443 634.443 634.442
          634.442 634.442 634.441 634.441 634.441 634.44 634.44 634.44 634.44 634.44 634.44 634.44
          722.073 722.073 722.073 722.073 722.073 722.072 722.072 722.072 722.071 722.071 722.07 722.07
          722.07 722.069 722.069 722.068 722.068 722.068 722.067 722.067 722.067 722.067 722.066 722.066
          722.066 722.066 801.731 801.73 801.73 801.73 801.73 801.729 801.729 801.729 801.728 801.728
          801.727 801.727 801.726 801.726 801.725 801.725 801.725 801.724 801.724 801.724 801.723 801.723
          801.723 801.723 801.723 801.723 874.14 874.14 874.139 874.139 874.139 874.138 874.138 874.137
          874.137 874.136 874.136 874.135 874.135 874.135 874.134 874.134 874.133 874.133 874.133 874.132
          874.132 874.132 874.131 874.131 874.131 874.131 939.965 939.964 939.964 939.964 939.964 939.963
          939.963 939.962 939.961 939.961 939.96 939.96 939.959 939.959 939.958 939.958 939.958 939.957
          939.957 939.956 939.956 939.956 939.956 939.955 939.955 939.955 999.804 999.804 999.804 999.804
          999.803 999.803 999.802 999.802 999.801 999.8 999.8 999.799 999.799 999.798 999.798 999.797
          999.797 999.796 999.796 999.796 999.795 999.795 999.795 999.795 999.794 999.794 1054.2 1054.2
          1054.2 1054.2 1054.2 1054.2 1054.2 1054.2 1054.2 1054.2 1054.2 1054.2 1054.2 1054.2
          1054.2 1054.2 1054.2 1054.2 1054.19 1054.19 1054.19 1054.19 1054.19 1054.19 1054.19 1054.19
          1103.66 1103.66 1103.66 1103.66 1103.66 1103.66 1103.65 1103.65 1103.65 1103.65 1103.65 1103.65
          1103.65 1103.65 1103.65 1103.65 1103.65 1103.65 1103.65 1103.65 1103.65 1103.65 1103.65 1103.65
          1103.65 1103.65 1148.62 1148.62 1148.62 1148.61 1148.61 1148.61 1148.61 1148.61 1148.61 1148.61
          1148.61 1148.61 1148.61 1148.61 1148.61 1148.61 1148.61 1148.61 1148.61 1148.6 1148.6 1148.6
          1148.6 1148.6 1148.6 1148.6 1189.49 1189.49 1189.49 1189.49 1189.48 1189.48 1189.48 1189.48
          1189.48 1189.48 1189.48 1189.48 1189.48 1189.48 1189.48 1189.48 1189.48 1189.48 1189.48 1189.48
          1189.47 1189.47 1189.47 1189.47 1189.47 1189.47 1226.64 1226.64 1226.64 1226.64 1226.64 1226.64
          1226.64 1226.64 1226.64 1226.64 1226.64 1226.63 1226.63 1226.63 1226.63 1226.63 1226.63 1226.63
          1226.63 1226.63 1226.63 1226.63 1226.63 1226.63 1226.63 1226.63 1260.42 1260.42 1260.42 1260.42
          1260.42 1260.42 1260.42 1260.42 1260.41 1260.41 1260.41 1260.41 1260.41 1260.41 1260.41 1260.41
          1260.41 1260.41 1260.41 1260.41 1260.41 1260.41 1260.41 1260.41 1260.41 1260.41 1291.13 1291.13
          1291.13 1291.13 1291.13 1291.12 1291.12 1291.12 1291.12 1291.12 1291.12 1291.12 1291.12 1291.12
          1291.12 1291.12 1291.12 1291.12 1291.11 1291.11 1291.11 1291.11 1291.11 1291.11 1291.11 1291.11
        </DataArray>
        <DataArray type="Float32" Name="rhoW" NumberOfComponents="1" format="ascii">
          997.048 997.048 997.048 997.048 997.048 997.048 997.048 997.048 997.048 997.048 997.048 997.048
          997.048 997.048 997.048 997.048 997.048 997.048 997.048 997.048 997.048 997.048 997.048 997.048
          997.048 997.048 997.048 997.048 997.048 997.048 997.048 997.048 997.048 997.048 997.048 997.048
          997.048 997.048 997.048 997.048 997.048 997.048 997.048 997.048 997.048 997.048 997.048 997.048
          997.048 997.048 997.048 997.048 997.048 997.048 997.048 997.048 997.048 997.048 997.048 997.048
          997.048 997.048 997.048 997.048 997.048 997.048 997.048 997.048 997.048 997.048 997.048 997.048
          997.048 997.048 997.048 997.048 997.048 997.048 997.048 997.048 997.048 997.048 997.048 997.048
          997.048 997.048 997.048 997.048 997.048 997.048 997.048 997.048 997.048 997.048 997.048 997.048