<?xml version="1.0"?>
<VTKFile type="UnstructuredGrid" version="0.1" byte_order="LittleEndian">
  <UnstructuredGrid>
    <Piece NumberOfCells="575" NumberOfPoints="624">
      <PointData Scalars="Sn" Vectors="velocityW">
        <DataArray type="Float32" Name="Sn" NumberOfComponents="1" format="ascii">
          0.0100114 0.0100114 0.0100221 0.0100221 0.0100114 0.0100221 0.0100114 0.0100221 0.0100114 0.0100221 0.0100114 0.0100221
          0.0100114 0.0100221 0.0100114 0.0100221 0.0100114 0.0100221 0.0100114 0.0100221 0.0100115 0.0100222 0.0100115 0.0100222
          0.0100114 0.010022 0.0100113 0.0100216 0.0100101 0.010022 0.0100119 0.0100219 0.0100116 0.0100222 0.0100104 0.0100223
          0.0100089 0.0100226 0.0100106 0.0100222 0.010011 0.0100222 0.0100101 0.0100225 0.0100114 0.0100221 0.0100114 0.0100221
          0.0100114 0.0100221 0.0100114 0.0100221 0.0100298 0.0100298 0.0100298 0.0100298 0.0100298 0.0100298 0.0100298 0.0100298
          0.0100298 0.0100298 0.0100298 0.0100299 0.0100301 0.0100299 0.01003 0.0100299 0.0100299 0.0100301 0.0100299 0.01003
          0.0100298 0.01003 0.0100298 0.0100298 0.0100298 0.0100298 0.0100362 0.0100362 0.0100362 0.0100362 0.0100362 0.0100362
          0.0100362 0.0100362 0.0100362 0.0100362 0.0100362 0.0100362 0.0100363 0.0100363 0.0100364 0.0100362 0.0100362 0.0100364
          0.0100367 0.0100362 0.0100362 0.0100363 0.0100362 0.0100362 0.0100362 0.0100362 0.0100419 0.0100419 0.0100419 0.0100419
          0.0100419 0.0100419 0.0100419 0.0100419 0.0100419 0.0100419 0.0100418 0.0100418 0.010042 0.010042 0.010042 0.0100418
          0.0100418 0.0100419 0.010042 0.0100419 0.0100419 0.0100419 0.0100418 0.0100418 0.0100418 0.0100418 0.0100531 0.0100531
          0.0100531 0.0100531 0.0100531 0.0100531 0.010053 0.010053 0.010053 0.010053 0.010053 0.0100531 0.0100531 0.0100534
          0.0100532 0.010053 0.010053 0.0100531 0.0100531 0.0100531 0.010053 0.010053 0.010053 0.010053 0.010053 0.010053
          0.0102838 0.0102838 0.0102838 0.0102838 0.0102838 0.0102838 0.0102838 0.0102838 0.0102838 0.0102838 0.0102838 0.0102838
          0.0102839 0.0102839 0.0102839 0.0102838 0.0102838 0.0102838 0.0102838 0.0102838 0.0102838 0.0102838 0.0102838 0.0102837
          0.0102837 0.0102837 0.011199 0.011199 0.011199 0.011199 0.011199 0.011199 0.011199 0.011199 0.011199 0.011199
          0.011199 0.011199 0.011199 0.011199 0.011199 0.011199 0.011199 0.011199 0.011199 0.011199 0.011199 0.011199
          0.011199 0.011199 0.011199 0.011199 0.0121422 0.0121422 0.0121422 0.0121422 0.0121422 0.0121422 0.0121422 0.0121422
          0.0121422 0.0121422 0.0121422 0.0121422 0.0121422 0.0121422 0.0121422 0.0121422 0.0121422 0.0121422 0.0121422 0.0121422
          0.0121422 0.0121422 0.0121422 0.0121422 0.0121422 0.0121422 0.0131237 0.0131237 0.0131237 0.0131237 0.0131237 0.0131237
          0.0131237 0.0131237 0.0131237 0.0131237 0.0131237 0.0131237 0.0131237 0.0131237 0.0131237 0.0131237 0.0131237 0.0131237
          0.0131237 0.0131237 0.0131237 0.0131237 0.0131237 0.0131237 0.0131237 0.0131237 0.0141684 0.0141684 0.0141684 0.0141684
          0.0141684 0.0141684 0.0141684 0.0141684 0.0141684 0.0141684 0.0141684 0.0141684 0.0141684 0.0141684 0.0141684 0.0141684
          0.0141684 0.0141684 0.0141684 0.0141684 0.0141683 0.0141683 0.0141683 0.0141683 0.0141683 0.0141683 0.0153217 0.0153217
          0.0153217 0.0153217 0.0153217 0.0153217 0.0153217 0.0153217 0.0153217 0.0153216 0.0153216 0.0153216 0.0153216 0.0153216
          0.0153216 0.0153216 0.0153216 0.0153216 0.0153216 0.0153216 0.0153216 0.0153216 0.0153216 0.0153216 0.0153216 0.0153216
          0.016687 0.016687 0.016687 0.016687 0.016687 0.0166869 0.0166869 0.0166869 0.0166869 0.0166869 0.0166869 0.0166869
          0.0166869 0.0166869 0.0166869 0.0166869 0.0166869 0.0166869 0.0166869 0.0166868 0.0166868 0.0166868 0.0166868 0.0166868
          0.0166868 0.0166868 0.0186607 0.0186607 0.0186607 0.0186607 0.0186607 0.0186607 0.0186607 0.0186607 0.0186607 0.0186606
          0.0186606 0.0186606 0.0186606 0.0186606 0.0186606 0.0186605 0.0186605 0.0186605 0.0186605 0.0186605 0.0186605 0.0186605
          0.0186605 0.0186605 0.0186605 0.0186605 0.0246003 0.0246003 0.0246002 0.0246002 0.0246002 0.0246001 0.0246001 0.0246
          0.0246 0.0245999 0.0245998 0.0245998 0.0245997 0.0245997 0.0245996 0.0245996 0.0245995 0.0245995 0.0245995 0.0245994
          0.0245994 0.0245994 0.0245993 0.0245993 0.0245993 0.0245993 0.0338456 0.0338456 0.0338456 0.0338455 0.0338454 0.0338454
          0.0338453 0.0338452 0.0338451 0.033845 0.0338449 0.0338448 0.0338447 0.0338447 0.0338446 0.0338445 0.0338444 0.0338444
          0.0338443 0.0338442 0.0338442 0.0338442 0.0338441 0.0338441 0.0338441 0.0338441 0.0460039 0.0460039 0.0460038 0.0460038
          0.0460036 0.0460035 0.0460034 0.0460032 0.0460031 0.046003 0.0460028 0.0460027 0.0460026 0.0460024 0.0460023 0.0460022
          0.0460021 0.046002 0.0460019 0.0460018 0.0460018 0.0460017 0.0460017 0.0460016 0.0460016 0.0460016 0.0610035 0.0610035
          0.0610034 0.0610032 0.0610031 0.0610029 0.0610027 0.0610025 0.0610023 0.0610021 0.0610019 0.0610017 0.0610015 0.0610014
          0.0610012 0.061001 0.0610009 0.0610008 0.0610006 0.0610005 0.0610004 0.0610003 0.0610003 0.0610002 0.0610001 0.0610001
          0.0785528 0.0785527 0.0785526 0.0785524 0.0785522 0.0785519 0.0785517 0.0785514 0.0785511 0.0785509 0.0785506 0.0785504
          0.0785501 0.0785499 0.0785497 0.0785495 0.0785493 0.0785491 0.0785489 0.0785488 0.0785487 0.0785485 0.0785484 0.0785483
          0.0785483 0.0785483 0.0981948 0.0981947 0.0981944 0.0981942 0.0981939 0.0981935 0.0981932 0.0981928 0.0981925 0.0981921
          0.0981918 0.0981915 0.0981912 0.0981909 0.0981907 0.0981904 0.0981902 0.0981899 0.0981897 0.0981895 0.0981894 0.0981892
          0.0981891 0.098189 0.0981889 0.0981888 0.119377 0.119376 0.119376 0.119376 0.119375 0.119375 0.119374 0.119374
          0.119374 0.119373 0.119373 0.119372 0.119372 0.119372 0.119371 0.119371 0.119371 0.11937 0.11937 0.11937
          0.11937 0.11937 0.119369 0.119369 0.119369 0.119369 0.141518 0.141518 0.141518 0.141517 0.141517 0.141516
          0.141516 0.141515 0.141515 0.141514 0.141514 0.141513 0.141513 0.141512 0.141512 0.141512 0.141511 0.141511
          0.141511 0.14151 0.14151 0.14151 0.14151 0.14151 0.141509 0.141509 0.16407 0.16407 0.164069 0.164069
          0.164068 0.164067 0.164067 0.164066 0.164065 0.164065 0.164064 0.164064 0.164063 0.164063 0.164062 0.164062
          0.164061 0.164061 0.164061 0.16406 0.16406 0.16406 0.16406 0.16406 0.164059 0.164059 0.186548 0.186548
          0.186547 0.186546 0.186546 0.186545 0.186544 0.186543 0.186543 0.186542 0.186541 0.186541 0.18654 0.18654
          0.186539 0.186539 0.186538 0.186538 0.186537 0.186537 0.186537 0.186536 0.186536 0.186536 0.186536 0.186535
        </DataArray>
        <DataArray type="Float32" Name="Sw" NumberOfComponents="1" format="ascii">
          0.989989 0.989989 0.989978 0.989978 0.989989 0.989978 0.989989 0.989978 0.989989 0.989978 0.989989 0.989978
          0.989989 0.989978 0.989989 0.989978 0.989989 0.989978 0.989989 0.989978 0.989989 0.989978 0.989989 0.989978
          0.989989 0.989978 0.989989 0.989978 0.98999 0.989978 0.989988 0.989978 0.989988 0.989978 0.98999 0.989978
          0.989991 0.989977 0.989989 0.989978 0.989989 0.989978 0.98999 0.989978 0.989989 0.989978 0.989989 0.989978
          0.989989 0.989978 0.989989 0.989978 0.98997 0.98997 0.98997 0.98997 0.98997 0.98997 0.98997 0.98997
          0.98997 0.98997 0.98997 0.98997 0.98997 0.98997 0.98997 0.98997 0.98997 0.98997 0.98997 0.98997
          0.98997 0.98997 0.98997 0.98997 0.98997 0.98997 0.989964 0.989964 0.989964 0.989964 0.989964 0.989964
          0.989964 0.989964 0.989964 0.989964 0.989964 0.989964 0.989964 0.989964 0.989964 0.989964 0.989964 0.989964
          0.989963 0.989964 0.989964 0.989964 0.989964 0.989964 0.989964 0.989964 0.989958 0.989958 0.989958 0.989958
          0.989958 0.989958 0.989958 0.989958 0.989958 0.989958 0.989958 0.989958 0.989958 0.989958 0.989958 0.989958
          0.989958 0.989958 0.989958 0.989958 0.989958 0.989958 0.989958 0.989958 0.989958 0.989958 0.989947 0.989947
          0.989947 0.989947 0.989947 0.989947 0.989947 0.989947 0.989947 0.989947 0.989947 0.989947 0.989947 0.989947
          0.989947 0.989947 0.989947 0.989947 0.989947 0.989947 0.989947 0.989947 0.989947 0.989947 0.989947 0.989947
          0.989716 0.989716 0.989716 0.989716 0.989716 0.989716 0.989716 0.989716 0.989716 0.989716 0.989716 0.989716
          0.989716 0.989716 0.989716 0.989716 0.989716 0.989716 0.989716 0.989716 0.989716 0.989716 0.989716 0.989716
          0.989716 0.989716 0.988801 0.988801 0.988801 0.988801 0.988801 0.988801 0.988801 0.988801 0.988801 0.988801
          0.988801 0.988801 0.988801 0.988801 0.988801 0.988801 0.988801 0.988801 0.988801 0.988801 0.988801 0.988801
          0.988801 0.988801 0.988801 0.988801 0.987858 0.987858 0.987858 0.987858 0.987858 0.987858 0.987858 0.987858
          0.987858 0.987858 0.987858 0.987858 0.987858 0.987858 0.987858 0.987858 0.987858 0.987858 0.987858 0.987858
          0.987858 0.987858 0.987858 0.987858 0.987858 0.987858 0.986876 0.986876 0.986876 0.986876 0.986876 0.986876
          0.986876 0.986876 0.986876 0.986876 0.986876 0.986876 0.986876 0.986876 0.986876 0.986876 0.986876 0.986876
          0.986876 0.986876 0.986876 0.986876 0.986876 0.986876 0.986876 0.986876 0.985832 0.985832 0.985832 0.985832
          0.985832 0.985832 0.985832 0.985832 0.985832 0.985832 0.985832 0.985832 0.985832 0.985832 0.985832 0.985832
          0.985832 0.985832 0.985832 0.985832 0.985832 0.985832 0.985832 0.985832 0.985832 0.985832 0.984678 0.984678
          0.984678 0.984678 0.984678 0.984678 0.984678 0.984678 0.984678 0.984678 0.984678 0.984678 0.984678 0.984678
          0.984678 0.984678 0.984678 0.984678 0.984678 0.984678 0.984678 0.984678 0.984678 0.984678 0.984678 0.984678
          0.983313 0.983313 0.983313 0.983313 0.983313 0.983313 0.983313 0.983313 0.983313 0.983313 0.983313 0.983313
          0.983313 0.983313 0.983313 0.983313 0.983313 0.983313 0.983313 0.983313 0.983313 0.983313 0.983313 0.983313
          0.983313 0.983313 0.981339 0.981339 0.981339 0.981339 0.981339 0.981339 0.981339 0.981339 0.981339 0.981339
          0.981339 0.981339 0.981339 0.981339 0.981339 0.981339 0.981339 0.98134 0.98134 0.98134 0.98134 0.98134
          0.98134 0.98134 0.98134 0.98134 0.9754 0.9754 0.9754 0.9754 0.9754 0.9754 0.9754 0.9754
          0.9754 0.9754 0.9754 0.9754 0.9754 0.9754 0.9754 0.9754 0.9754 0.975401 0.975401 0.975401
          0.975401 0.975401 0.975401 0.975401 0.975401 0.975401 0.966154 0.966154 0.966154 0.966154 0.966155 0.966155
          0.966155 0.966155 0.966155 0.966155 0.966155 0.966155 0.966155 0.966155 0.966155 0.966155 0.966156 0.966156
          0.966156 0.966156 0.966156 0.966156 0.966156 0.966156 0.966156 0.966156 0.953996 0.953996 0.953996 0.953996
          0.953996 0.953996 0.953997 0.953997 0.953997 0.953997 0.953997 0.953997 0.953997 0.953998 0.953998 0.953998
          0.953998 0.953998 0.953998 0.953998 0.953998 0.953998 0.953998 0.953998 0.953998 0.953998 0.938996 0.938997
          0.938997 0.938997 0.938997 0.938997 0.938997 0.938998 0.938998 0.938998 0.938998 0.938998 0.938998 0.938999
          0.938999 0.938999 0.938999 0.938999 0.938999 0.938999 0.939 0.939 0.939 0.939 0.939 0.939
          0.921447 0.921447 0.921447 0.921448 0.921448 0.921448 0.921448 0.921449 0.921449 0.921449 0.921449 0.92145
          0.92145 0.92145 0.92145 0.921451 0.921451 0.921451 0.921451 0.921451 0.921451 0.921451 0.921452 0.921452
          0.921452 0.921452 0.901805 0.901805 0.901806 0.901806 0.901806 0.901806 0.901807 0.901807 0.901807 0.901808
          0.901808 0.901809 0.901809 0.901809 0.901809 0.90181 0.90181 0.90181 0.90181 0.90181 0.901811 0.901811
          0.901811 0.901811 0.901811 0.901811 0.880624 0.880624 0.880624 0.880624 0.880625 0.880625 0.880626 0.880626
          0.880626 0.880627 0.880627 0.880628 0.880628 0.880628 0.880629 0.880629 0.880629 0.88063 0.88063 0.88063
          0.88063 0.88063 0.880631 0.880631 0.880631 0.880631 0.858482 0.858482 0.858482 0.858483 0.858483 0.858484
          0.858484 0.858485 0.858485 0.858486 0.858486 0.858487 0.858487 0.858488 0.858488 0.858488 0.858489 0.858489
          0.858489 0.85849 0.85849 0.85849 0.85849 0.85849 0.858491 0.858491 0.83593 0.83593 0.835931 0.835931
          0.835932 0.835933 0.835933 0.835934 0.835935 0.835935 0.835936 0.835936 0.835937 0.835937 0.835938 0.835938
          0.835939 0.835939 0.835939 0.83594 0.83594 0.83594 0.83594 0.83594 0.835941 0.835941 0.813452 0.813452
          0.813453 0.813454 0.813454 0.813455 0.813456 0.813457 0.813457 0.813458 0.813459 0.813459 0.81346 0.81346
          0.813461 0.813461 0.813462 0.813462 0.813463 0.813463 0.813463 0.813464 0.813464 0.813464 0.813464 0.813465
        </DataArray>
        <DataArray type="Float32" Name="pn" NumberOfComponents="1" format="ascii">
          101156 101156 100908 100908 101156 100908 101156 100908 101156 100908 101156 100908
          101156 100908 101156 100908 101156 100908 101156 100908 101156 100908 101156 100908
          101156 100908 101156 100908 101156 100908 101156 100908 101156 100908 101156 100908
          101156 100908 101156 100908 101156 100908 101156 100908 101156 100908 101156 100908
          101156 100908 101156 100908 100681 100681 100681 100681 100681 100681 100681 100681
          100681 100681 100681 100681 100681 100681 100681 100681 100681 100681 100681 100681
          100681 100681 100681 100681 100681 100681 100476 100476 100476 100476 100476 100476
          100476 100476 100476 100476 100476 100476 100476 100476 100476 100476 100476 100476
          100476 100476 100476 100476 100476 100476 100476 100476 100289 100289 100289 100289
          100289 100289 100289 100289 100289 100289 100289 100289 100289 100289 100289 100289
          100289 100289 100289 100289 100289 100289 100289 100289 100289 100289 100120 100120
          100120 100120 100120 100120 100120 100120 100120 100120 100120 100120 100120 100120
          100120 100120 100120 100120 100120 100120 100120 100120 100120 100120 100120 100120
          100002 100002 100002 100002 100002 100002 100002 100002 100002 100002 100002 100002
          100002 100002 100002 100002 100002 100002 100002 100002 100002 100002 100002 100002
          100002 100002 100001 100001 100001 100001 100001 100001 100001 100001 100001 100001
          100001 100001 100001 100001 100001 100001 100001 100001 100001 100001 100001 100001
          100001 100001 100001 100001 100001 100001 100001 100001 100001 100001 100001 100001
          100001 100001 100001 100001 100001 100001 100001 100001 100001 100001 100001 100001
          100001 100001 100001 100001 100001 100001 100001 100001 100001 100001 100001 100001
          100001 100001 100001 100001 100001 100001 100001 100001 100001 100001 100001 100001
          100001 100001 100001 100001 100001 100001 100001 100001 100001 100001 100001 100001
          100001 100001 100001 100001 100001 100001 100001 100001 100001 100001 100001 100001
          100001 100001 100001 100001 100001 100001 100001 100001 100001 100001 100001 100001
          100001 100001 100001 100001 100001 100001 100001 100001 100001 100001 100001 100001
          100001 100001 100001 100001 100001 100001 100001 100001 100001 100001 100001 100001
          100001 100001 100001 100001 100001 100001 100001 100001 100001 100001 100001 100001
          100001 100001 100001 100001 100001 100001 100001 100001 100001 100001 100001 100001
          100001 100001 100001 100001 100001 100001 100001 100001 100001 100001 100001 100001
          100001 100001 100001 100001 100001 100001 100001 100001 100001 100001 100001 100001
          100001 100001 100001 100001 100000 100000 100000 100000 100000 100000 100000 100000
          100000 100000 100000 100000 100000 100000 100000 100000 100000 100000 100000 100000
          100000 100000 100000 100000 100000 100000 100000 100000 100000 100000 100000 100000
          100000 100000 100000 100000 100000 100000 100000 100000 100000 100000 100000 100000
          100000 100000 100000 100000 100000 100000 100000 100000 100000 100000 100000 100000
          100000 100000 100000 100000 100000 100000 100000 100000 100000 100000 100000 100000
          100000 100000 100000 100000 100000 100000 100000 100000 100000 100000 100000 100000
          100000 100000 100000 100000 100000 100000 100000 100000 100000 100000 100000 100000
          100000 100000 100000 100000 100000 100000 100000 100000 100000 100000 100000 100000
          100000 100000 100000 100000 100000 100000 100000 100000 100000 100000 100000 100000
          100000 100000 100000 100000 100000 100000 100000 100000 100000 100000 100000 100000
          100000 100000 100000 100000 100000 100000 100000 100000 100000 100000 100000 100000
          100000 100000 100000 100000 100000 100000 100000 100000 100000 100000 100000 100000
          100000 100000 100000 100000 100000 100000 100000 100000 100000 100000 100000 100000
          100000 100000 100000 100000 100000 100000 100000 100000 100000 100000 100000 100000
          100000 100000 100000 100000 100000 100000 100000 100000 100000 100000 100000 100000
          100000 100000 100000 100000 100000 100000 100000 100000 100000 100000 100000 100000
          100000 100000 100000 100000 100000 100000 100000 100000 100000 100000 100000 100000
          100000 100000 100000 100000 100000 100000 100000 100000 100000 100000 100000 100000
          100000 100000 100000 100000 100000 100000 100000 100000 100000 100000 100000 100000
          100000 100000 100000 100000 100000 100000 100000 100000 100000 100000 100000 100000
          100000 100000 100000 100000 100000 100000 100000 100000 100000 100000 100000 100000
        </DataArray>
        <DataArray type="Float32" Name="pw" NumberOfComponents="1" format="ascii">
          101154 101154 100904 100904 101154 100904 101154 100904 101154 100904 101154 100904
          101154 100904 101154 100904 101154 100904 101154 100904 101154 100904 101154 100904
          101154 100904 101154 100904 101154 100904 101154 100904 101154 100904 101154 100904
          101154 100904 101154 100904 101154 100904 101154 100904 101154 100904 101154 100904
          101154 100904 101154 100904 100676 100676 100676 100676 100676 100676 100676 100676
          100676 100676 100676 100676 100676 100676 100676 100676 100676 100676 100676 100676
          100676 100676 100676 100676 100676 100676 100470 100470 100470 100470 100470 100470
          100470 100470 100470 100470 100470 100470 100470 100470 100470 100470 100470 100470
          100470 100470 100470 100470 100470 100470 100470 100470 100282 100282 100282 100282
          100282 100282 100282 100282 100282 100282 100282 100282 100282 100282 100282 100282
          100282 100282 100282 100282 100282 100282 100282 100282 100282 100282 100111 100111
          100111 100111 100111 100111 100111 100111 100111 100111 100111 100111 100111 100111
          100111 100111 100111 100111 100111 100111 100111 100111 100111 100111 100111 100111
          99955.3 99955.3 99955.3 99955.3 99955.3 99955.3 99955.3 99955.3 99955.3 99955.3 99955.3 99955.3
          99955.3 99955.3 99955.3 99955.3 99955.3 99955.3 99955.3 99955.3 99955.3 99955.3 99955.3 99955.3
          99955.3 99955.3 99814 99814 99814 99814 99814 99814 99814 99814 99814 99814
          99814 99814 99814 99814 99814 99814 99814 99814 99814 99814 99814 99814
          99814 99814 99814 99814 99685.6 99685.6 99685.6 99685.6 99685.6 99685.6 99685.6 99685.6
          99685.6 99685.6 99685.6 99685.6 99685.6 99685.6 99685.6 99685.6 99685.6 99685.6 99685.6 99685.6
          99685.6 99685.6 99685.6 99685.6 99685.6 99685.6 99568.9 99568.9 99568.9 99568.9 99568.9 99568.9
          99568.9 99568.9 99568.9 99568.9 99568.9 99568.9 99568.9 99568.9 99568.9 99568.9 99568.9 99568.9
          99568.9 99568.9 99568.9 99568.9 99568.9 99568.9 99568.9 99568.9 99462.7 99462.7 99462.7 99462.7
          99462.7 99462.7 99462.7 99462.7 99462.7 99462.7 99462.7 99462.7 99462.7 99462.7 99462.7 99462.7
          99462.7 99462.7 99462.7 99462.7 99462.7 99462.7 99462.7 99462.7 99462.7 99462.7 99366.3 99366.3
          99366.3 99366.3 99366.3 99366.3 99366.3 99366.3 99366.3 99366.3 99366.3 99366.3 99366.3 99366.3
          99366.3 99366.3 99366.3 99366.3 99366.3 99366.3 99366.3 99366.3 99366.3 99366.3 99366.3 99366.3
          99278.6 99278.6 99278.6 99278.6 99278.6 99278.6 99278.6 99278.6 99278.6 99278.6 99278.6 99278.6
          99278.6 99278.6 99278.6 99278.6 99278.6 99278.6 99278.6 99278.6 99278.6 99278.6 99278.6 99278.6
          99278.6 99278.6 99198.8 99198.8 99198.8 99198.8 99198.8 99198.8 99198.8 99198.8 99198.8 99198.8
          99198.8 99198.8 99198.8 99198.8 99198.8 99198.8 99198.8 99198.8 99198.8 99198.8 99198.8 99198.8
          99198.8 99198.8 99198.8 99198.8 99126.3 99126.3 99126.3 99126.3 99126.3 99126.3 99126.3 99126.3
          99126.3 99126.3 99126.3 99126.3 99126.3 99126.3 99126.3 99126.3 99126.3 99126.3 99126.3 99126.3
          99126.3 99126.3 99126.3 99126.3 99126.3 99126.3 99060.4 99060.4 99060.4 99060.4 99060.4 99060.4
          99060.4 99060.4 99060.4 99060.4 99060.4 99060.4 99060.4 99060.4 99060.4 99060.4 99060.4 99060.4
          99060.4 99060.4 99060.4 99060.4 99060.4 99060.4 99060.4 99060.4 99000.5 99000.5 99000.5 99000.5
          99000.5 99000.5 99000.5 99000.5 99000.5 99000.5 99000.5 99000.5 99000.5 99000.5 99000.5 99000.5
          99000.5 99000.5 99000.5 99000.5 99000.5 99000.5 99000.5 99000.5 99000.5 99000.5 98946.1 98946.1
          98946.1 98946.1 98946.1 98946.1 98946.1 98946.1 98946.1 98946.1 98946.1 98946.1 98946.1 98946.1
          98946.1 98946.1 98946.1 98946.1 98946.1 98946.1 98946.1 98946.1 98946.1 98946.1 98946.1 98946.1
          98896.6 98896.6 98896.6 98896.6 98896.6 98896.6 98896.6 98896.6 98896.6 98896.6 98896.6 98896.6
          98896.6 98896.6 98896.6 98896.6 98896.6 98896.6 98896.6 98896.6 98896.6 98896.6 98896.6 98896.6
          98896.6 98896.6 98851.5 98851.5 98851.5 98851.5 98851.5 98851.5 98851.5 98851.5 98851.5 98851.5
          98851.5 98851.5 98851.5 98851.6 98851.6 98851.6 98851.6 98851.6 98851.6 98851.6 98851.6 98851.6
          98851.6 98851.6 98851.6 98851.6 98810.6 98810.6 98810.6 98810.6 98810.6 98810.6 98810.6 98810.6
          98810.6 98810.6 98810.6 98810.6 98810.6 98810.6 98810.6 98810.6 98810.6 98810.6 98810.6 98810.6
          98810.6 98810.6 98810.6 98810.6 98810.6 98810.6 98773.4 98773.4 98773.4 98773.4 98773.4 98773.4
          98773.4 98773.4 98773.4 98773.4 98773.4 98773.4 98773.4 98773.4 98773.4 98773.4 98773.4 98773.4
          98773.4 98773.4 98773.4 98773.4 98773.4 98773.4 98773.4 98773.4 98739.6 98739.6 98739.6 98739.6
          98739.6 98739.6 98739.6 98739.6 98739.6 98739.6 98739.6 98739.6 98739.6 98739.6 98739.6 98739.6
          98739.6 98739.6 98739.6 98739.6 98739.6 98739.6 98739.6 98739.6 98739.6 98739.6 98708.9 98708.9
          98708.9 98708.9 98708.9 98708.9 98708.9 98708.9 98708.9 98708.9 98708.9 98708.9 98708.9 98708.9
          98708.9 98708.9 98708.9 98708.9 98708.9 98708.9 98708.9 98708.9 98708.9 98708.9 98708.9 98708.9
        </DataArray>
        <DataArray type="Float32" Name="pc" NumberOfComponents="1" format="ascii">
          1.91367 1.91213 3.70428 3.70303 1.91351 3.70372 1.91269 3.70349 1.9128 3.70355 1.91312 3.70363
          1.91171 3.70373 1.9148 3.70469 1.90899 3.70395 1.90154 3.70323 1.92642 3.70751 1.92795 3.71524
          1.9072 3.67802 1.89791 3.61176 1.69815 3.67355 1.99388 3.6639 1.94932 3.70679 1.74095 3.735
          1.49505 3.78665 1.77464 3.70792 1.83429 3.71067 1.69142 3.75715 1.90979 3.70211 1.91118 3.7014
          1.91117 3.70136 1.91117 3.70135 4.98753 4.98661 4.98691 4.98692 4.98689 4.98674 4.98676 4.9865
          4.98646 4.9866 4.98661 4.9927 5.0267 4.99415 5.01815 5.00681 4.99556 5.02716 4.99674 5.0123
          4.9909 5.02193 4.98535 4.98385 4.98378 4.98377 6.05274 6.05209 6.05218 6.05227 6.05216 6.0519
          6.05183 6.05123 6.05147 6.05152 6.04874 6.05125 6.06044 6.07011 6.08295 6.05001 6.05379 6.07914
          6.13161 6.05678 6.0557 6.06509 6.0491 6.048 6.04792 6.0479 6.99623 6.99576 6.99575 6.99582
          6.99566 6.99534 6.99517 6.99453 6.99472 6.99447 6.99097 6.98668 7.02246 7.01784 7.02293 6.98821
          6.99178 7.00915 7.01639 7.0018 6.99583 6.99754 6.99089 6.99019 6.9901 6.99008 8.86097 8.86061
          8.86053 8.86055 8.86032 8.85992 8.85961 8.85893 8.85896 8.85842 8.85559 8.86294 8.86787 8.91693
          8.88281 8.85297 8.8528 8.86425 8.86489 8.86294 8.85807 8.85664 8.85346 8.85293 8.85281 8.85278
          46.7626 46.7625 46.7623 46.7621 46.7618 46.7613 46.7609 46.7604 46.7602 46.7602 46.7615 46.7645
          46.7708 46.7746 46.7723 46.7645 46.7594 46.758 46.7579 46.7571 46.7558 46.7543 46.7531 46.7523
          46.7519 46.7518 187.061 187.061 187.061 187.061 187.06 187.06 187.06 187.06 187.06 187.059
          187.059 187.059 187.059 187.058 187.058 187.058 187.058 187.058 187.057 187.057 187.057 187.057
          187.056 187.056 187.056 187.056 315.37 315.37 315.37 315.37 315.37 315.369 315.369 315.369
          315.369 315.369 315.368 315.368 315.368 315.367 315.367 315.367 315.367 315.366 315.366 315.366
          315.366 315.366 315.365 315.365 315.365 315.365 432.018 432.018 432.018 432.017 432.017 432.017
          432.017 432.016 432.016 432.016 432.016 432.015 432.015 432.015 432.014 432.014 432.014 432.013
          432.013 432.013 432.013 432.013 432.012 432.012 432.012 432.012 538.057 538.057 538.057 538.056
          538.056 538.056 538.056 538.055 538.055 538.055 538.054 538.054 538.054 538.053 538.053 538.053
          538.052 538.052 538.052 538.051 538.051 538.051 538.051 538.051 538.051 538.051 634.451 634.451
          634.451 634.451 634.451 634.45 634.45 634.45 634.449 634.449 634.448 634.448 634.448 634.447
          634.447 634.447 634.446 634.446 634.446 634.445 634.445 634.445 634.445 634.445 634.445 634.445
          722.079 722.079 722.078 722.078 722.078 722.078 722.077 722.077 722.076 722.076 722.076 722.075
          722.075 722.074 722.074 722.074 722.073 722.073 722.073 722.072 722.072 722.072 722.072 722.071
          722.071 722.071 801.736 801.736 801.736 801.735 801.735 801.735 801.734 801.734 801.733 801.733
          801.732 801.732 801.732 801.731 801.731 801.73 801.73 801.729 801.729 801.729 801.729 801.728
          801.728 801.728 801.728 801.728 874.145 874.145 874.145 874.144 874.144 874.144 874.143 874.143
          874.142 874.142 874.141 874.141 874.14 874.14 874.139 874.139 874.139 874.138 874.138 874.138
          874.137 874.137 874.137 874.137 874.136 874.136 939.97 939.97 939.97 939.969 939.969 939.968
          939.968 939.967 939.967 939.966 939.966 939.965 939.965 939.964 939.964 939.963 939.963 939.962
          939.962 939.962 939.961 939.961 939.961 939.961 939.961 939.961 999.81 999.81 999.809 999.809
          999.809 999.808 999.807 999.807 999.806 999.806 999.805 999.805 999.804 999.804 999.803 999.803
          999.802 999.802 999.801 999.801 999.801 999.8 999.8 999.8 999.8 999.8 1054.21 1054.21
          1054.21 1054.21 1054.21 1054.21 1054.21 1054.21 1054.21 1054.2 1054.2 1054.2 1054.2 1054.2
          1054.2 1054.2 1054.2 1054.2 1054.2 1054.2 1054.2 1054.2 1054.2 1054.2 1054.2 1054.2
          1103.66 1103.66 1103.66 1103.66 1103.66 1103.66 1103.66 1103.66 1103.66 1103.66 1103.66 1103.66
          1103.66 1103.66 1103.66 1103.65 1103.65 1103.65 1103.65 1103.65 1103.65 1103.65 1103.65 1103.65
          1103.65 1103.65 1148.62 1148.62 1148.62 1148.62 1148.62 1148.62 1148.62 1148.62 1148.62 1148.62
          1148.62 1148.61 1148.61 1148.61 1148.61 1148.61 1148.61 1148.61 1148.61 1148.61 1148.61 1148.61
          1148.61 1148.61 1148.61 1148.61 1189.49 1189.49 1189.49 1189.49 1189.49 1189.49 1189.49 1189.49
          1189.49 1189.49 1189.49 1189.48 1189.48 1189.48 1189.48 1189.48 1189.48 1189.48 1189.48 1189.48
          1189.48 1189.48 1189.48 1189.48 1189.48 1189.48 1226.65 1226.65 1226.65 1226.65 1226.65 1226.64
          1226.64 1226.64 1226.64 1226.64 1226.64 1226.64 1226.64 1226.64 1226.64 1226.64 1226.64 1226.64
          1226.64 1226.64 1226.64 1226.63 1226.63 1226.63 1226.63 1226.63 1260.43 1260.43 1260.43 1260.42
          1260.42 1260.42 1260.42 1260.42 1260.42 1260.42 1260.42 1260.42 1260.42 1260.42 1260.42 1260.41
          1260.41 1260.41 1260.41 1260.41 1260.41 1260.41 1260.41 1260.41 1260.41 1260.41 1291.13 1291.13
          1291.13 1291.13 1291.13 1291.13 1291.13 1291.13 1291.13 1291.13 1291.13 1291.12 1291.12 1291.12
          1291.12 1291.12 1291.12 1291.12 1291.12 1291.12 1291.12 1291.12 1291.12 1291.12 1291.12 1291.12
        </DataArray>
        <DataArray type="Float32" Name="rhoW" NumberOfComponents="1" format="ascii">
          997.048 997.048 997.048 997.048 997.048 997.048 997.048 997.048 997.048 997.048 997.048 997.048
          997.048 997.048 997.048 997.048 997.048 997.048 997.048 997.048 997.048 997.048 997.048 997.048
          997.048 997.048 997.048 997.048 997.048 997.048 997.048 997.048 997.048 997.048 997.048 997.048
          997.048 997.048 997.048 997.048 997.048 997.048 997.048 997.048 997.048 997.048 997.048 997.048
          997.048 997.048 997.048 997.048 997.048 997.048 997.048 997.048 997.048 997.048 997.048 997.048
          997.048 997.048 997.048 997.048 997.048 997.048 997.048 997.048 997.048 997.048 997.048 997.048
          997.048 997.048 997.048 997.048 997.048 997.048 997.048 997.048 997.048 997.048 997.048 997.048
          997.048 997.048 997.048 997.048 997.048 997.048 997.048 997.048 997.048 997.048 997.048 997.048
          997.048 997.048 997.048 997.048 997.048 997.048 997.048 997.048 997.048 997.048 997.048 997.048