<?xml version="1.0"?>
<VTKFile type="UnstructuredGrid" version="0.1" byte_order="LittleEndian">
  <UnstructuredGrid>
    <Piece NumberOfCells="575" NumberOfPoints="624">
      <PointData Scalars="Sn" Vectors="velocityW">
        <DataArray type="Float32" Name="Sn" NumberOfComponents="1" format="ascii">
          0.0100116 0.0100116 0.0100225 0.0100225 0.0100116 0.0100225 0.0100116 0.0100225 0.0100116 0.0100225 0.0100115 0.0100225
          0.0100115 0.0100225 0.0100115 0.0100225 0.0100115 0.0100225 0.0100114 0.0100225 0.0100117 0.0100225 0.0100117 0.0100225
          0.0100118 0.0100227 0.0100115 0.0100231 0.0100141 0.010021 0.0100103 0.0100227 0.010012 0.0100231 0.0100106 0.0100224
          0.0100123 0.0100228 0.0100108 0.0100235 0.0100111 0.0100225 0.0100126 0.0100222 0.0100116 0.0100225 0.0100116 0.0100225
          0.0100116 0.0100225 0.0100116 0.0100225 0.0100304 0.0100304 0.0100304 0.0100304 0.0100304 0.0100304 0.0100304 0.0100304
          0.0100304 0.0100304 0.0100304 0.0100307 0.0100307 0.0100312 0.0100299 0.0100306 0.0100304 0.0100307 0.0100303 0.0100304
          0.0100303 0.0100302 0.0100304 0.0100304 0.0100304 0.0100304 0.010037 0.010037 0.010037 0.010037 0.010037 0.010037
          0.010037 0.0100369 0.0100369 0.0100369 0.0100369 0.010037 0.0100367 0.0100369 0.010037 0.010037 0.0100368 0.0100368
          0.0100368 0.0100368 0.0100369 0.0100369 0.0100369 0.0100369 0.0100369 0.0100369 0.0100428 0.0100428 0.0100428 0.0100428
          0.0100428 0.0100428 0.0100428 0.0100428 0.0100428 0.0100427 0.0100428 0.0100425 0.0100424 0.0100418 0.0100426 0.0100428
          0.0100426 0.0100428 0.0100426 0.0100426 0.0100428 0.0100427 0.0100427 0.0100427 0.0100427 0.0100427 0.0100543 0.0100543
          0.0100543 0.0100543 0.0100543 0.0100543 0.0100543 0.0100543 0.0100543 0.0100542 0.0100542 0.0100542 0.0100543 0.0100541
          0.0100543 0.0100543 0.0100541 0.0100543 0.0100541 0.0100541 0.0100543 0.0100542 0.0100542 0.0100542 0.0100542 0.0100542
          0.0102853 0.0102853 0.0102853 0.0102853 0.0102853 0.0102853 0.0102853 0.0102853 0.0102853 0.0102853 0.0102853 0.0102853
          0.0102853 0.0102853 0.0102853 0.0102853 0.0102853 0.0102853 0.0102852 0.0102852 0.0102853 0.0102853 0.0102853 0.0102853
          0.0102853 0.0102853 0.011199 0.011199 0.011199 0.011199 0.011199 0.011199 0.011199 0.011199 0.011199 0.011199
          0.011199 0.011199 0.011199 0.011199 0.011199 0.011199 0.011199 0.011199 0.011199 0.011199 0.011199 0.011199
          0.011199 0.011199 0.011199 0.011199 0.0121422 0.0121422 0.0121422 0.0121422 0.0121422 0.0121422 0.0121422 0.0121422
          0.0121422 0.0121422 0.0121422 0.0121422 0.0121422 0.0121422 0.0121422 0.0121422 0.0121422 0.0121422 0.0121422 0.0121422
          0.0121422 0.0121422 0.0121422 0.0121422 0.0121422 0.0121422 0.0131237 0.0131237 0.0131237 0.0131237 0.0131237 0.0131237
          0.0131237 0.0131237 0.0131237 0.0131237 0.0131237 0.0131237 0.0131237 0.0131237 0.0131237 0.0131237 0.0131237 0.0131237
          0.0131237 0.0131237 0.0131237 0.0131237 0.0131237 0.0131237 0.0131237 0.0131237 0.0141684 0.0141684 0.0141684 0.0141684
          0.0141684 0.0141683 0.0141683 0.0141683 0.0141683 0.0141683 0.0141683 0.0141683 0.0141683 0.0141683 0.0141683 0.0141683
          0.0141683 0.0141683 0.0141683 0.0141683 0.0141683 0.0141683 0.0141683 0.0141683 0.0141683 0.0141683 0.0153216 0.0153216
          0.0153216 0.0153216 0.0153216 0.0153216 0.0153216 0.0153216 0.0153216 0.0153216 0.0153216 0.0153216 0.0153216 0.0153216
          0.0153216 0.0153215 0.0153215 0.0153215 0.0153215 0.0153215 0.0153215 0.0153215 0.0153215 0.0153215 0.0153215 0.0153215
          0.0166869 0.0166869 0.0166869 0.0166869 0.0166869 0.0166868 0.0166868 0.0166868 0.0166868 0.0166868 0.0166868 0.0166868
          0.0166868 0.0166868 0.0166868 0.0166868 0.0166868 0.0166868 0.0166868 0.0166867 0.0166867 0.0166867 0.0166867 0.0166867
          0.0166867 0.0166867 0.0186605 0.0186605 0.0186605 0.0186605 0.0186605 0.0186605 0.0186605 0.0186605 0.0186605 0.0186604
          0.0186604 0.0186604 0.0186604 0.0186604 0.0186604 0.0186603 0.0186603 0.0186603 0.0186603 0.0186603 0.0186603 0.0186603
          0.0186603 0.0186603 0.0186603 0.0186603 0.0245997 0.0245996 0.0245996 0.0245996 0.0245995 0.0245995 0.0245994 0.0245994
          0.0245993 0.0245993 0.0245992 0.0245992 0.0245991 0.0245991 0.024599 0.024599 0.0245989 0.0245989 0.0245988 0.0245988
          0.0245988 0.0245987 0.0245987 0.0245987 0.0245987 0.0245987 0.0338447 0.0338447 0.0338446 0.0338446 0.0338445 0.0338444
          0.0338443 0.0338442 0.0338442 0.0338441 0.033844 0.0338439 0.0338438 0.0338437 0.0338436 0.0338436 0.0338435 0.0338434
          0.0338434 0.0338433 0.0338433 0.0338432 0.0338432 0.0338431 0.0338431 0.0338431 0.0460026 0.0460026 0.0460025 0.0460024
          0.0460023 0.0460022 0.0460021 0.0460019 0.0460018 0.0460016 0.0460015 0.0460014 0.0460012 0.0460011 0.046001 0.0460009
          0.0460008 0.0460007 0.0460006 0.0460005 0.0460004 0.0460004 0.0460003 0.0460003 0.0460002 0.0460002 0.0610017 0.0610017
          0.0610016 0.0610015 0.0610013 0.0610011 0.0610009 0.0610007 0.0610005 0.0610003 0.0610001 0.061 0.0609998 0.0609996
          0.0609994 0.0609993 0.0609991 0.060999 0.0609989 0.0609988 0.0609987 0.0609986 0.0609985 0.0609984 0.0609984 0.0609984
          0.0785506 0.0785505 0.0785504 0.0785502 0.07855 0.0785497 0.0785494 0.0785492 0.0785489 0.0785487 0.0785484 0.0785481
          0.0785479 0.0785477 0.0785475 0.0785473 0.0785471 0.0785469 0.0785467 0.0785466 0.0785465 0.0785463 0.0785462 0.0785462
          0.0785461 0.078546 0.0981921 0.098192 0.0981918 0.0981915 0.0981912 0.0981909 0.0981905 0.0981902 0.0981898 0.0981895
          0.0981892 0.0981888 0.0981885 0.0981883 0.098188 0.0981877 0.0981875 0.0981873 0.0981871 0.0981869 0.0981867 0.0981866
          0.0981864 0.0981863 0.0981862 0.0981862 0.119373 0.119373 0.119373 0.119373 0.119372 0.119372 0.119371 0.119371
          0.11937 0.11937 0.11937 0.119369 0.119369 0.119369 0.119368 0.119368 0.119368 0.119367 0.119367 0.119367
          0.119367 0.119366 0.119366 0.119366 0.119366 0.119366 0.141515 0.141515 0.141514 0.141514 0.141513 0.141513
          0.141512 0.141512 0.141511 0.141511 0.14151 0.14151 0.141509 0.141509 0.141508 0.141508 0.141508 0.141507
          0.141507 0.141507 0.141507 0.141506 0.141506 0.141506 0.141506 0.141506 0.164066 0.164066 0.164065 0.164065
          0.164064 0.164063 0.164063 0.164062 0.164061 0.164061 0.16406 0.16406 0.164059 0.164059 0.164058 0.164058
          0.164058 0.164057 0.164057 0.164057 0.164056 0.164056 0.164056 0.164056 0.164055 0.164055 0.186544 0.186543
          0.186543 0.186542 0.186541 0.186541 0.18654 0.186539 0.186538 0.186538 0.186537 0.186536 0.186536 0.186535
          0.186535 0.186534 0.186534 0.186534 0.186533 0.186533 0.186532 0.186532 0.186532 0.186532 0.186532 0.186531
        </DataArray>
        <DataArray type="Float32" Name="Sw" NumberOfComponents="1" format="ascii">
          0.989988 0.989988 0.989977 0.989977 0.989988 0.989977 0.989988 0.989977 0.989988 0.989977 0.989988 0.989977
          0.989989 0.989977 0.989989 0.989977 0.989989 0.989977 0.989989 0.989977 0.989988 0.989978 0.989988 0.989977
          0.989988 0.989977 0.989988 0.989977 0.989986 0.989979 0.98999 0.989977 0.989988 0.989977 0.989989 0.989978
          0.989988 0.989977 0.989989 0.989976 0.989989 0.989977 0.989987 0.989978 0.989988 0.989977 0.989988 0.989977
          0.989988 0.989977 0.989988 0.989977 0.98997 0.98997 0.98997 0.98997 0.98997 0.98997 0.98997 0.98997
          0.98997 0.98997 0.98997 0.989969 0.989969 0.989969 0.98997 0.989969 0.98997 0.989969 0.98997 0.98997
          0.98997 0.98997 0.98997 0.98997 0.98997 0.98997 0.989963 0.989963 0.989963 0.989963 0.989963 0.989963
          0.989963 0.989963 0.989963 0.989963 0.989963 0.989963 0.989963 0.989963 0.989963 0.989963 0.989963 0.989963
          0.989963 0.989963 0.989963 0.989963 0.989963 0.989963 0.989963 0.989963 0.989957 0.989957 0.989957 0.989957
          0.989957 0.989957 0.989957 0.989957 0.989957 0.989957 0.989957 0.989958 0.989958 0.989958 0.989957 0.989957
          0.989957 0.989957 0.989957 0.989957 0.989957 0.989957 0.989957 0.989957 0.989957 0.989957 0.989946 0.989946
          0.989946 0.989946 0.989946 0.989946 0.989946 0.989946 0.989946 0.989946 0.989946 0.989946 0.989946 0.989946
          0.989946 0.989946 0.989946 0.989946 0.989946 0.989946 0.989946 0.989946 0.989946 0.989946 0.989946 0.989946
          0.989715 0.989715 0.989715 0.989715 0.989715 0.989715 0.989715 0.989715 0.989715 0.989715 0.989715 0.989715
          0.989715 0.989715 0.989715 0.989715 0.989715 0.989715 0.989715 0.989715 0.989715 0.989715 0.989715 0.989715
          0.989715 0.989715 0.988801 0.988801 0.988801 0.988801 0.988801 0.988801 0.988801 0.988801 0.988801 0.988801
          0.988801 0.988801 0.988801 0.988801 0.988801 0.988801 0.988801 0.988801 0.988801 0.988801 0.988801 0.988801
          0.988801 0.988801 0.988801 0.988801 0.987858 0.987858 0.987858 0.987858 0.987858 0.987858 0.987858 0.987858
          0.987858 0.987858 0.987858 0.987858 0.987858 0.987858 0.987858 0.987858 0.987858 0.987858 0.987858 0.987858
          0.987858 0.987858 0.987858 0.987858 0.987858 0.987858 0.986876 0.986876 0.986876 0.986876 0.986876 0.986876
          0.986876 0.986876 0.986876 0.986876 0.986876 0.986876 0.986876 0.986876 0.986876 0.986876 0.986876 0.986876
          0.986876 0.986876 0.986876 0.986876 0.986876 0.986876 0.986876 0.986876 0.985832 0.985832 0.985832 0.985832
          0.985832 0.985832 0.985832 0.985832 0.985832 0.985832 0.985832 0.985832 0.985832 0.985832 0.985832 0.985832
          0.985832 0.985832 0.985832 0.985832 0.985832 0.985832 0.985832 0.985832 0.985832 0.985832 0.984678 0.984678
          0.984678 0.984678 0.984678 0.984678 0.984678 0.984678 0.984678 0.984678 0.984678 0.984678 0.984678 0.984678
          0.984678 0.984678 0.984678 0.984678 0.984678 0.984678 0.984678 0.984678 0.984679 0.984679 0.984679 0.984679
          0.983313 0.983313 0.983313 0.983313 0.983313 0.983313 0.983313 0.983313 0.983313 0.983313 0.983313 0.983313
          0.983313 0.983313 0.983313 0.983313 0.983313 0.983313 0.983313 0.983313 0.983313 0.983313 0.983313 0.983313
          0.983313 0.983313 0.981339 0.981339 0.981339 0.981339 0.98134 0.98134 0.98134 0.98134 0.98134 0.98134
          0.98134 0.98134 0.98134 0.98134 0.98134 0.98134 0.98134 0.98134 0.98134 0.98134 0.98134 0.98134
          0.98134 0.98134 0.98134 0.98134 0.9754 0.9754 0.9754 0.9754 0.9754 0.975401 0.975401 0.975401
          0.975401 0.975401 0.975401 0.975401 0.975401 0.975401 0.975401 0.975401 0.975401 0.975401 0.975401 0.975401
          0.975401 0.975401 0.975401 0.975401 0.975401 0.975401 0.966155 0.966155 0.966155 0.966155 0.966155 0.966156
          0.966156 0.966156 0.966156 0.966156 0.966156 0.966156 0.966156 0.966156 0.966156 0.966156 0.966157 0.966157
          0.966157 0.966157 0.966157 0.966157 0.966157 0.966157 0.966157 0.966157 0.953997 0.953997 0.953997 0.953998
          0.953998 0.953998 0.953998 0.953998 0.953998 0.953998 0.953999 0.953999 0.953999 0.953999 0.953999 0.953999
          0.953999 0.953999 0.953999 0.953999 0.954 0.954 0.954 0.954 0.954 0.954 0.938998 0.938998
          0.938998 0.938999 0.938999 0.938999 0.938999 0.938999 0.938999 0.939 0.939 0.939 0.939 0.939
          0.939001 0.939001 0.939001 0.939001 0.939001 0.939001 0.939001 0.939001 0.939002 0.939002 0.939002 0.939002
          0.921449 0.921449 0.92145 0.92145 0.92145 0.92145 0.921451 0.921451 0.921451 0.921451 0.921452 0.921452
          0.921452 0.921452 0.921453 0.921453 0.921453 0.921453 0.921453 0.921453 0.921454 0.921454 0.921454 0.921454
          0.921454 0.921454 0.901808 0.901808 0.901808 0.901809 0.901809 0.901809 0.901809 0.90181 0.90181 0.901811
          0.901811 0.901811 0.901811 0.901812 0.901812 0.901812 0.901812 0.901813 0.901813 0.901813 0.901813 0.901813
          0.901814 0.901814 0.901814 0.901814 0.880627 0.880627 0.880627 0.880627 0.880628 0.880628 0.880629 0.880629
          0.88063 0.88063 0.88063 0.880631 0.880631 0.880632 0.880632 0.880632 0.880632 0.880633 0.880633 0.880633
          0.880633 0.880634 0.880634 0.880634 0.880634 0.880634 0.858485 0.858485 0.858486 0.858486 0.858487 0.858487
          0.858488 0.858488 0.858489 0.858489 0.85849 0.85849 0.858491 0.858491 0.858492 0.858492 0.858492 0.858493
          0.858493 0.858493 0.858493 0.858494 0.858494 0.858494 0.858494 0.858494 0.835934 0.835934 0.835935 0.835935
          0.835936 0.835937 0.835937 0.835938 0.835939 0.835939 0.83594 0.83594 0.835941 0.835941 0.835942 0.835942
          0.835942 0.835943 0.835943 0.835943 0.835944 0.835944 0.835944 0.835944 0.835945 0.835945 0.813456 0.813457
          0.813457 0.813458 0.813459 0.813459 0.81346 0.813461 0.813462 0.813462 0.813463 0.813464 0.813464 0.813465
          0.813465 0.813466 0.813466 0.813466 0.813467 0.813467 0.813468 0.813468 0.813468 0.813468 0.813468 0.813469
        </DataArray>
        <DataArray type="Float32" Name="pn" NumberOfComponents="1" format="ascii">
          101156 101156 100908 100908 101156 100908 101156 100908 101156 100908 101156 100908
          101156 100908 101156 100908 101156 100908 101156 100908 101156 100908 101156 100908
          101156 100908 101156 100908 101156 100907 101156 100908 101156 100908 101156 100908
          101156 100908 101156 100908 101156 100908 101156 100908 101156 100908 101156 100908
          101156 100908 101156 100908 100681 100681 100681 100681 100681 100681 100681 100681
          100681 100681 100681 100682 100682 100682 100681 100682 100682 100682 100681 100681
          100681 100681 100681 100681 100681 100681 100476 100476 100476 100476 100476 100476
          100476 100476 100476 100476 100476 100476 100476 100476 100476 100476 100476 100476
          100476 100476 100476 100476 100476 100476 100476 100476 100289 100289 100289 100289
          100289 100289 100289 100289 100289 100289 100289 100289 100289 100289 100289 100289
          100289 100289 100289 100289 100289 100289 100289 100289 100289 100289 100120 100120
          100120 100120 100120 100120 100120 100120 100120 100120 100120 100120 100120 100120
          100120 100120 100120 100120 100120 100120 100120 100120 100120 100120 100120 100120
          100002 100002 100002 100002 100002 100002 100002 100002 100002 100002 100002 100002
          100002 100002 100002 100002 100002 100002 100002 100002 100002 100002 100002 100002
          100002 100002 100001 100001 100001 100001 100001 100001 100001 100001 100001 100001
          100001 100001 100001 100001 100001 100001 100001 100001 100001 100001 100001 100001
          100001 100001 100001 100001 100001 100001 100001 100001 100001 100001 100001 100001
          100001 100001 100001 100001 100001 100001 100001 100001 100001 100001 100001 100001
          100001 100001 100001 100001 100001 100001 100001 100001 100001 100001 100001 100001
          100001 100001 100001 100001 100001 100001 100001 100001 100001 100001 100001 100001
          100001 100001 100001 100001 100001 100001 100001 100001 100001 100001 100001 100001
          100001 100001 100001 100001 100001 100001 100001 100001 100001 100001 100001 100001
          100001 100001 100001 100001 100001 100001 100001 100001 100001 100001 100001 100001
          100001 100001 100001 100001 100001 100001 100001 100001 100001 100001 100001 100001
          100001 100001 100001 100001 100001 100001 100001 100001 100001 100001 100001 100001
          100001 100001 100001 100001 100001 100001 100001 100001 100001 100001 100001 100001
          100001 100001 100001 100001 100001 100001 100001 100001 100001 100001 100001 100001
          100001 100001 100001 100001 100001 100001 100001 100001 100001 100001 100001 100001
          100001 100001 100001 100001 100001 100001 100001 100001 100001 100001 100001 100001
          100001 100001 100001 100001 100000 100000 100000 100000 100000 100000 100000 100000
          100000 100000 100000 100000 100000 100000 100000 100000 100000 100000 100000 100000
          100000 100000 100000 100000 100000 100000 100000 100000 100000 100000 100000 100000
          100000 100000 100000 100000 100000 100000 100000 100000 100000 100000 100000 100000
          100000 100000 100000 100000 100000 100000 100000 100000 100000 100000 100000 100000
          100000 100000 100000 100000 100000 100000 100000 100000 100000 100000 100000 100000
          100000 100000 100000 100000 100000 100000 100000 100000 100000 100000 100000 100000
          100000 100000 100000 100000 100000 100000 100000 100000 100000 100000 100000 100000
          100000 100000 100000 100000 100000 100000 100000 100000 100000 100000 100000 100000
          100000 100000 100000 100000 100000 100000 100000 100000 100000 100000 100000 100000
          100000 100000 100000 100000 100000 100000 100000 100000 100000 100000 100000 100000
          100000 100000 100000 100000 100000 100000 100000 100000 100000 100000 100000 100000
          100000 100000 100000 100000 100000 100000 100000 100000 100000 100000 100000 100000
          100000 100000 100000 100000 100000 100000 100000 100000 100000 100000 100000 100000
          100000 100000 100000 100000 100000 100000 100000 100000 100000 100000 100000 100000
          100000 100000 100000 100000 100000 100000 100000 100000 100000 100000 100000 100000
          100000 100000 100000 100000 100000 100000 100000 100000 100000 100000 100000 100000
          100000 100000 100000 100000 100000 100000 100000 100000 100000 100000 100000 100000
          100000 100000 100000 100000 100000 100000 100000 100000 100000 100000 100000 100000
          100000 100000 100000 100000 100000 100000 100000 100000 100000 100000 100000 100000
          100000 100000 100000 100000 100000 100000 100000 100000 100000 100000 100000 100000
          100000 100000 100000 100000 100000 100000 100000 100000 100000 100000 100000 100000
        </DataArray>
        <DataArray type="Float32" Name="pw" NumberOfComponents="1" format="ascii">
          101154 101154 100904 100904 101154 100904 101154 100904 101154 100904 101154 100904
          101154 100904 101154 100904 101154 100904 101154 100904 101154 100904 101154 100904
          101154 100904 101154 100904 101154 100904 101154 100904 101154 100904 101154 100904
          101154 100904 101154 100904 101154 100904 101154 100904 101154 100904 101154 100904
          101154 100904 101154 100904 100676 100676 100676 100676 100676 100676 100676 100676
          100676 100676 100676 100676 100676 100676 100676 100676 100676 100676 100676 100676
          100676 100676 100676 100676 100676 100676 100470 100470 100470 100470 100470 100470
          100470 100470 100470 100470 100470 100470 100470 100470 100470 100470 100470 100470
          100470 100470 100470 100470 100470 100470 100470 100470 100282 100282 100282 100282
          100282 100282 100282 100282 100282 100282 100282 100282 100282 100282 100282 100282
          100282 100282 100282 100282 100282 100282 100282 100282 100282 100282 100111 100111
          100111 100111 100111 100111 100111 100111 100111 100111 100111 100111 100111 100111
          100111 100111 100111 100111 100111 100111 100111 100111 100111 100111 100111 100111
          99955.3 99955.3 99955.3 99955.3 99955.3 99955.3 99955.3 99955.3 99955.3 99955.3 99955.3 99955.3
          99955.3 99955.3 99955.3 99955.3 99955.3 99955.3 99955.3 99955.3 99955.3 99955.3 99955.3 99955.3
          99955.3 99955.3 99814 99814 99814 99814 99814 99814 99814 99814 99814 99814
          99814 99814 99814 99814 99814 99814 99814 99814 99814 99814 99814 99814
          99814 99814 99814 99814 99685.6 99685.6 99685.6 99685.6 99685.6 99685.6 99685.6 99685.6
          99685.6 99685.6 99685.6 99685.6 99685.6 99685.6 99685.6 99685.6 99685.6 99685.6 99685.6 99685.6
          99685.6 99685.6 99685.6 99685.6 99685.6 99685.6 99568.9 99568.9 99568.9 99568.9 99568.9 99568.9
          99568.9 99568.9 99568.9 99568.9 99568.9 99568.9 99568.9 99568.9 99568.9 99568.9 99568.9 99568.9
          99568.9 99568.9 99568.9 99568.9 99568.9 99568.9 99568.9 99568.9 99462.7 99462.7 99462.7 99462.7
          99462.7 99462.7 99462.8 99462.8 99462.8 99462.8 99462.8 99462.8 99462.8 99462.8 99462.8 99462.8
          99462.8 99462.8 99462.8 99462.8 99462.8 99462.8 99462.8 99462.8 99462.8 99462.8 99366.3 99366.3
          99366.3 99366.3 99366.3 99366.3 99366.3 99366.3 99366.3 99366.3 99366.3 99366.3 99366.3 99366.3
          99366.3 99366.3 99366.3 99366.3 99366.3 99366.3 99366.3 99366.3 99366.3 99366.3 99366.3 99366.3
          99278.6 99278.6 99278.6 99278.6 99278.6 99278.6 99278.6 99278.6 99278.6 99278.6 99278.6 99278.6
          99278.6 99278.6 99278.6 99278.6 99278.6 99278.6 99278.6 99278.6 99278.6 99278.6 99278.6 99278.6
          99278.6 99278.6 99198.8 99198.8 99198.8 99198.8 99198.8 99198.8 99198.8 99198.8 99198.8 99198.8
          99198.8 99198.8 99198.8 99198.8 99198.8 99198.8 99198.8 99198.8 99198.8 99198.8 99198.8 99198.8
          99198.8 99198.8 99198.8 99198.8 99126.3 99126.3 99126.3 99126.3 99126.3 99126.3 99126.3 99126.3
          99126.3 99126.3 99126.3 99126.3 99126.3 99126.3 99126.3 99126.3 99126.3 99126.3 99126.3 99126.3
          99126.3 99126.3 99126.3 99126.3 99126.3 99126.3 99060.4 99060.4 99060.4 99060.4 99060.4 99060.4
          99060.4 99060.4 99060.4 99060.4 99060.4 99060.4 99060.4 99060.4 99060.4 99060.4 99060.4 99060.4
          99060.4 99060.4 99060.4 99060.4 99060.4 99060.4 99060.4 99060.4 99000.5 99000.5 99000.5 99000.5
          99000.5 99000.5 99000.5 99000.5 99000.5 99000.5 99000.5 99000.5 99000.5 99000.5 99000.5 99000.5
          99000.5 99000.5 99000.5 99000.5 99000.5 99000.5 99000.5 99000.5 99000.5 99000.5 98946.1 98946.1
          98946.1 98946.1 98946.1 98946.1 98946.1 98946.1 98946.1 98946.1 98946.1 98946.1 98946.1 98946.1
          98946.1 98946.1 98946.1 98946.1 98946.1 98946.1 98946.1 98946.1 98946.1 98946.1 98946.1 98946.1
          98896.6 98896.6 98896.6 98896.6 98896.6 98896.6 98896.6 98896.6 98896.6 98896.6 98896.6 98896.6
          98896.6 98896.6 98896.6 98896.6 98896.6 98896.6 98896.6 98896.6 98896.6 98896.6 98896.6 98896.6
          98896.6 98896.6 98851.5 98851.5 98851.5 98851.6 98851.6 98851.6 98851.6 98851.6 98851.6 98851.6
          98851.6 98851.6 98851.6 98851.6 98851.6 98851.6 98851.6 98851.6 98851.6 98851.6 98851.6 98851.6
          98851.6 98851.6 98851.6 98851.6 98810.6 98810.6 98810.6 98810.6 98810.6 98810.6 98810.6 98810.6
          98810.6 98810.6 98810.6 98810.6 98810.6 98810.6 98810.6 98810.6 98810.6 98810.6 98810.6 98810.6
          98810.6 98810.6 98810.6 98810.6 98810.6 98810.6 98773.4 98773.4 98773.4 98773.4 98773.4 98773.4
          98773.4 98773.4 98773.4 98773.4 98773.4 98773.4 98773.4 98773.4 98773.4 98773.4 98773.4 98773.4
          98773.4 98773.4 98773.4 98773.4 98773.4 98773.4 98773.4 98773.4 98739.6 98739.6 98739.6 98739.6
          98739.6 98739.6 98739.6 98739.6 98739.6 98739.6 98739.6 98739.6 98739.6 98739.6 98739.6 98739.6
          98739.6 98739.6 98739.6 98739.6 98739.6 98739.6 98739.6 98739.6 98739.6 98739.6 98708.9 98708.9
          98708.9 98708.9 98708.9 98708.9 98708.9 98708.9 98708.9 98708.9 98708.9 98708.9 98708.9 98708.9
          98708.9 98708.9 98708.9 98708.9 98708.9 98708.9 98708.9 98708.9 98708.9 98708.9 98708.9 98708.9
        </DataArray>
        <DataArray type="Float32" Name="pc" NumberOfComponents="1" format="ascii">
          1.93705 1.93565 3.76879 3.76723 1.93509 3.76734 1.93516 3.76756 1.93415 3.7679 1.93304 3.76839
          1.92821 3.76878 1.9253 3.76846 1.92478 3.77017 1.916 3.77155 1.9662 3.75737 1.95812 3.77042
          1.9681 3.79497 1.93195 3.86331 2.35572 3.51288 1.72903 3.79614 2.01646 3.86375 1.77352 3.7426
          2.05568 3.81919 1.81147 3.93415 1.85267 3.7669 2.1129 3.71043 1.93848 3.76527 1.9368 3.7657
          1.93506 3.7657 1.93504 3.76569 5.08467 5.08331 5.08346 5.08361 5.08397 5.0843 5.08394 5.08299
          5.08301 5.08375 5.07904 5.13032 5.12607 5.21186 4.99791 5.11222 5.0872 5.13581 5.06117 5.08056
          5.06755 5.05244 5.07938 5.0802 5.08034 5.08034 6.17826 6.17716 6.17724 6.17732 6.17761 6.17776
          6.177 6.1759 6.17509 6.1751 6.17641 6.18254 6.13818 6.1668 6.18686 6.18743 6.15028 6.15277
          6.14336 6.14464 6.17364 6.16306 6.17214 6.17248 6.1726 6.17261 7.14815 7.14729 7.14728 7.14728
          7.14749 7.14749 7.14657 7.14539 7.14411 7.14334 7.14436 7.09792 7.0818 6.98797 7.12512 7.14876
          7.11721 7.14808 7.11877 7.11646 7.1448 7.13877 7.1411 7.14102 7.14107 7.14107 9.06571 9.065
          9.06488 9.06479 9.0649 9.06472 9.06362 9.06223 9.06047 9.0589 9.05921 9.05579 9.07135 9.03693
          9.06662 9.06205 9.03824 9.06541 9.04116 9.03811 9.06005 9.05702 9.0568 9.05645 9.05642 9.05641
          47.0093 47.0092 47.009 47.0087 47.0083 47.0076 47.0066 47.0055 47.0045 47.0042 47.0053 47.0085
          47.0078 47.0082 47.0051 47.0019 46.9991 46.996 46.9948 46.9944 46.9959 46.9977 46.9979 46.9978
          46.9977 46.9977 187.062 187.062 187.062 187.062 187.062 187.061 187.061 187.061 187.061 187.061
          187.06 187.06 187.06 187.059 187.059 187.059 187.059 187.059 187.058 187.058 187.058 187.058
          187.058 187.057 187.057 187.057 315.368 315.368 315.367 315.367 315.367 315.367 315.367 315.367
          315.366 315.366 315.366 315.365 315.365 315.365 315.365 315.364 315.364 315.364 315.364 315.363
          315.363 315.363 315.363 315.363 315.363 315.363 432.014 432.014 432.014 432.013 432.013 432.013
          432.013 432.012 432.012 432.012 432.012 432.011 432.011 432.011 432.01 432.01 432.01 432.009
          432.009 432.009 432.009 432.009 432.008 432.008 432.008 432.008 538.052 538.052 538.052 538.052
          538.051 538.051 538.051 538.051 538.05 538.05 538.049 538.049 538.049 538.048 538.048 538.048
          538.047 538.047 538.047 538.047 538.046 538.046 538.046 538.046 538.046 538.046 634.446 634.446
          634.446 634.446 634.445 634.445 634.445 634.444 634.444 634.444 634.443 634.443 634.443 634.442
          634.442 634.441 634.441 634.441 634.441 634.44 634.44 634.44 634.44 634.44 634.439 634.439
          722.073 722.073 722.073 722.073 722.073 722.072 722.072 722.071 722.071 722.071 722.07 722.07
          722.069 722.069 722.069 722.068 722.068 722.068 722.067 722.067 722.067 722.066 722.066 722.066
          722.066 722.066 801.73 801.73 801.73 801.73 801.73 801.729 801.729 801.728 801.728 801.727
          801.727 801.726 801.726 801.726 801.725 801.725 801.724 801.724 801.724 801.723 801.723 801.723
          801.723 801.723 801.722 801.722 874.14 874.139 874.139 874.139 874.139 874.138 874.138 874.137
          874.137 874.136 874.136 874.135 874.135 874.134 874.134 874.133 874.133 874.133 874.132 874.132
          874.132 874.131 874.131 874.131 874.131 874.131 939.964 939.964 939.964 939.964 939.963 939.963
          939.962 939.962 939.961 939.961 939.96 939.96 939.959 939.959 939.958 939.958 939.957 939.957
          939.957 939.956 939.956 939.956 939.955 939.955 939.955 939.955 999.804 999.804 999.804 999.803
          999.803 999.802 999.802 999.801 999.801 999.8 999.8 999.799 999.799 999.798 999.797 999.797
          999.797 999.796 999.796 999.795 999.795 999.795 999.795 999.794 999.794 999.794 1054.2 1054.2
          1054.2 1054.2 1054.2 1054.2 1054.2 1054.2 1054.2 1054.2 1054.2 1054.2 1054.2 1054.2
          1054.2 1054.2 1054.2 1054.19 1054.19 1054.19 1054.19 1054.19 1054.19 1054.19 1054.19 1054.19
          1103.66 1103.66 1103.66 1103.66 1103.66 1103.66 1103.65 1103.65 1103.65 1103.65 1103.65 1103.65
          1103.65 1103.65 1103.65 1103.65 1103.65 1103.65 1103.65 1103.65 1103.65 1103.65 1103.65 1103.65
          1103.65 1103.65 1148.62 1148.62 1148.61 1148.61 1148.61 1148.61 1148.61 1148.61 1148.61 1148.61
          1148.61 1148.61 1148.61 1148.61 1148.61 1148.61 1148.61 1148.61 1148.61 1148.6 1148.6 1148.6
          1148.6 1148.6 1148.6 1148.6 1189.49 1189.49 1189.49 1189.49 1189.48 1189.48 1189.48 1189.48
          1189.48 1189.48 1189.48 1189.48 1189.48 1189.48 1189.48 1189.48 1189.48 1189.48 1189.48 1189.48
          1189.47 1189.47 1189.47 1189.47 1189.47 1189.47 1226.64 1226.64 1226.64 1226.64 1226.64 1226.64
          1226.64 1226.64 1226.64 1226.64 1226.64 1226.63 1226.63 1226.63 1226.63 1226.63 1226.63 1226.63
          1226.63 1226.63 1226.63 1226.63 1226.63 1226.63 1226.63 1226.63 1260.42 1260.42 1260.42 1260.42
          1260.42 1260.42 1260.42 1260.42 1260.41 1260.41 1260.41 1260.41 1260.41 1260.41 1260.41 1260.41
          1260.41 1260.41 1260.41 1260.41 1260.41 1260.41 1260.41 1260.41 1260.41 1260.41 1291.13 1291.13
          1291.13 1291.13 1291.13 1291.12 1291.12 1291.12 1291.12 1291.12 1291.12 1291.12 1291.12 1291.12
          1291.12 1291.12 1291.12 1291.12 1291.11 1291.11 1291.11 1291.11 1291.11 1291.11 1291.11 1291.11
        </DataArray>
        <DataArray type="Float32" Name="rhoW" NumberOfComponents="1" format="ascii">
          997.048 997.048 997.048 997.048 997.048 997.048 997.048 997.048 997.048 997.048 997.048 997.048
          997.048 997.048 997.048 997.048 997.048 997.048 997.048 997.048 997.048 997.048 997.048 997.048
          997.048 997.048 997.048 997.048 997.048 997.048 997.048 997.048 997.048 997.048 997.048 997.048
          997.048 997.048 997.048 997.048 997.048 997.048 997.048 997.048 997.048 997.048 997.048 997.048
          997.048 997.048 997.048 997.048 997.048 997.048 997.048 997.048 997.048 997.048 997.048 997.048
          997.048 997.048 997.048 997.048 997.048 997.048 997.048 997.048 997.048 997.048 997.048 997.048
          997.048 997.048 997.048 997.048 997.048 997.048 997.048 997.048 997.048 997.048 997.048 997.048
          997.048 997.048 997.048 997.048 997.048 997.048 997.048 997.048 997.048 997.048 997.048 997.048