<?xml version="1.0"?>
<VTKFile type="UnstructuredGrid" version="0.1" byte_order="LittleEndian">
  <UnstructuredGrid>
    <Piece NumberOfCells="575" NumberOfPoints="624">
      <PointData Scalars="Sn" Vectors="velocityW">
        <DataArray type="Float32" Name="Sn" NumberOfComponents="1" format="ascii">
          0.0100116 0.0100116 0.0100225 0.0100225 0.0100115 0.0100225 0.0100115 0.0100225 0.0100115 0.0100225 0.0100115 0.0100225
          0.0100115 0.0100225 0.0100115 0.0100225 0.0100115 0.0100225 0.0100115 0.0100225 0.0100116 0.0100224 0.0100115 0.0100224
          0.0100116 0.0100219 0.0100133 0.0100195 0.0100145 0.0100203 0.0100121 0.0100226 0.0100108 0.0100228 0.010013 0.0100221
          0.0100092 0.010023 0.0100081 0.0100222 0.0100113 0.0100224 0.010009 0.0100235 0.0100115 0.0100225 0.0100115 0.0100225
          0.0100115 0.0100225 0.0100115 0.0100225 0.0100304 0.0100304 0.0100304 0.0100304 0.0100304 0.0100304 0.0100304 0.0100304
          0.0100304 0.0100304 0.0100303 0.0100304 0.0100302 0.0100315 0.0100303 0.0100304 0.0100306 0.0100303 0.0100311 0.0100307
          0.0100304 0.0100306 0.0100304 0.0100303 0.0100303 0.0100303 0.0100369 0.0100369 0.0100369 0.0100369 0.0100369 0.0100369
          0.0100369 0.0100369 0.0100369 0.0100369 0.0100369 0.0100368 0.0100366 0.0100344 0.0100375 0.010037 0.010037 0.0100369
          0.0100373 0.0100373 0.010037 0.010037 0.0100369 0.0100369 0.0100369 0.0100369 0.0100427 0.0100427 0.0100427 0.0100427
          0.0100427 0.0100427 0.0100427 0.0100427 0.0100427 0.0100427 0.0100427 0.0100426 0.0100445 0.010046 0.0100429 0.0100427
          0.0100427 0.0100427 0.0100429 0.010043 0.0100428 0.0100427 0.0100427 0.0100427 0.0100427 0.0100427 0.0100542 0.0100542
          0.0100542 0.0100542 0.0100542 0.0100542 0.0100542 0.0100542 0.0100542 0.0100542 0.0100542 0.0100541 0.010053 0.0100548
          0.0100543 0.0100542 0.0100541 0.0100542 0.0100543 0.0100545 0.0100543 0.0100542 0.0100542 0.0100542 0.0100542 0.0100542
          0.0102852 0.0102852 0.0102852 0.0102852 0.0102852 0.0102852 0.0102852 0.0102852 0.0102852 0.0102852 0.0102852 0.0102852
          0.0102855 0.0102852 0.0102852 0.0102852 0.0102851 0.0102852 0.0102852 0.0102852 0.0102852 0.0102852 0.0102852 0.0102852
          0.0102852 0.0102852 0.011199 0.011199 0.011199 0.011199 0.011199 0.011199 0.011199 0.011199 0.011199 0.011199
          0.011199 0.011199 0.011199 0.011199 0.011199 0.011199 0.011199 0.011199 0.011199 0.011199 0.011199 0.011199
          0.011199 0.011199 0.011199 0.011199 0.0121422 0.0121422 0.0121422 0.0121422 0.0121422 0.0121422 0.0121422 0.0121422
          0.0121422 0.0121422 0.0121422 0.0121422 0.0121422 0.0121422 0.0121422 0.0121422 0.0121422 0.0121422 0.0121422 0.0121422
          0.0121422 0.0121422 0.0121422 0.0121422 0.0121422 0.0121422 0.0131237 0.0131237 0.0131237 0.0131237 0.0131237 0.0131237
          0.0131237 0.0131237 0.0131237 0.0131237 0.0131237 0.0131237 0.0131237 0.0131237 0.0131237 0.0131237 0.0131237 0.0131237
          0.0131237 0.0131237 0.0131237 0.0131237 0.0131237 0.0131237 0.0131237 0.0131237 0.0141684 0.0141684 0.0141684 0.0141684
          0.0141684 0.0141684 0.0141683 0.0141683 0.0141683 0.0141683 0.0141683 0.0141683 0.0141683 0.0141683 0.0141683 0.0141683
          0.0141683 0.0141683 0.0141683 0.0141683 0.0141683 0.0141683 0.0141683 0.0141683 0.0141683 0.0141683 0.0153216 0.0153216
          0.0153216 0.0153216 0.0153216 0.0153216 0.0153216 0.0153216 0.0153216 0.0153216 0.0153216 0.0153216 0.0153216 0.0153216
          0.0153216 0.0153216 0.0153215 0.0153215 0.0153215 0.0153215 0.0153215 0.0153215 0.0153215 0.0153215 0.0153215 0.0153215
          0.0166869 0.0166869 0.0166869 0.0166869 0.0166869 0.0166869 0.0166868 0.0166868 0.0166868 0.0166868 0.0166868 0.0166868
          0.0166868 0.0166868 0.0166868 0.0166868 0.0166868 0.0166868 0.0166868 0.0166868 0.0166868 0.0166867 0.0166867 0.0166867
          0.0166867 0.0166867 0.0186606 0.0186606 0.0186605 0.0186605 0.0186605 0.0186605 0.0186605 0.0186605 0.0186605 0.0186604
          0.0186604 0.0186604 0.0186604 0.0186604 0.0186604 0.0186603 0.0186603 0.0186603 0.0186603 0.0186603 0.0186603 0.0186603
          0.0186603 0.0186603 0.0186603 0.0186603 0.0245997 0.0245997 0.0245997 0.0245996 0.0245996 0.0245995 0.0245995 0.0245994
          0.0245994 0.0245993 0.0245993 0.0245992 0.0245992 0.0245991 0.024599 0.024599 0.024599 0.0245989 0.0245989 0.0245988
          0.0245988 0.0245988 0.0245988 0.0245987 0.0245987 0.0245987 0.0338447 0.0338447 0.0338447 0.0338446 0.0338446 0.0338445
          0.0338444 0.0338443 0.0338442 0.0338441 0.033844 0.0338439 0.0338439 0.0338438 0.0338437 0.0338436 0.0338435 0.0338435
          0.0338434 0.0338434 0.0338433 0.0338433 0.0338432 0.0338432 0.0338432 0.0338432 0.0460027 0.0460027 0.0460026 0.0460025
          0.0460024 0.0460023 0.0460021 0.046002 0.0460019 0.0460017 0.0460016 0.0460015 0.0460013 0.0460012 0.0460011 0.046001
          0.0460009 0.0460008 0.0460007 0.0460006 0.0460005 0.0460005 0.0460004 0.0460004 0.0460003 0.0460003 0.0610019 0.0610018
          0.0610017 0.0610016 0.0610014 0.0610012 0.061001 0.0610008 0.0610006 0.0610004 0.0610003 0.0610001 0.0609999 0.0609997
          0.0609996 0.0609994 0.0609993 0.0609991 0.060999 0.0609989 0.0609988 0.0609987 0.0609986 0.0609985 0.0609985 0.0609985
          0.0785507 0.0785507 0.0785505 0.0785503 0.0785501 0.0785498 0.0785496 0.0785493 0.078549 0.0785488 0.0785485 0.0785483
          0.078548 0.0785478 0.0785476 0.0785474 0.0785472 0.078547 0.0785469 0.0785467 0.0785466 0.0785465 0.0785464 0.0785463
          0.0785462 0.0785462 0.0981923 0.0981922 0.0981919 0.0981917 0.0981914 0.098191 0.0981907 0.0981903 0.09819 0.0981897
          0.0981893 0.098189 0.0981887 0.0981884 0.0981882 0.0981879 0.0981877 0.0981874 0.0981872 0.098187 0.0981869 0.0981867
          0.0981866 0.0981865 0.0981864 0.0981864 0.119374 0.119373 0.119373 0.119373 0.119372 0.119372 0.119372 0.119371
          0.119371 0.11937 0.11937 0.119369 0.119369 0.119369 0.119368 0.119368 0.119368 0.119368 0.119367 0.119367
          0.119367 0.119367 0.119366 0.119366 0.119366 0.119366 0.141515 0.141515 0.141514 0.141514 0.141513 0.141513
          0.141512 0.141512 0.141511 0.141511 0.14151 0.14151 0.141509 0.141509 0.141509 0.141508 0.141508 0.141508
          0.141507 0.141507 0.141507 0.141507 0.141506 0.141506 0.141506 0.141506 0.164066 0.164066 0.164065 0.164065
          0.164064 0.164064 0.164063 0.164062 0.164062 0.164061 0.164061 0.16406 0.16406 0.164059 0.164059 0.164058
          0.164058 0.164057 0.164057 0.164057 0.164056 0.164056 0.164056 0.164056 0.164056 0.164055 0.186544 0.186544
          0.186543 0.186542 0.186542 0.186541 0.18654 0.186539 0.186539 0.186538 0.186537 0.186537 0.186536 0.186536
          0.186535 0.186535 0.186534 0.186534 0.186533 0.186533 0.186533 0.186532 0.186532 0.186532 0.186532 0.186532
        </DataArray>
        <DataArray type="Float32" Name="Sw" NumberOfComponents="1" format="ascii">
          0.989988 0.989988 0.989977 0.989977 0.989988 0.989978 0.989988 0.989977 0.989988 0.989977 0.989988 0.989977
          0.989989 0.989977 0.989989 0.989977 0.989989 0.989977 0.989989 0.989977 0.989988 0.989978 0.989989 0.989978
          0.989988 0.989978 0.989987 0.98998 0.989986 0.98998 0.989988 0.989977 0.989989 0.989977 0.989987 0.989978
          0.989991 0.989977 0.989992 0.989978 0.989989 0.989978 0.989991 0.989976 0.989988 0.989977 0.989988 0.989978
          0.989988 0.989978 0.989988 0.989978 0.98997 0.98997 0.98997 0.98997 0.98997 0.98997 0.98997 0.98997
          0.98997 0.98997 0.98997 0.98997 0.98997 0.989969 0.98997 0.98997 0.989969 0.98997 0.989969 0.989969
          0.98997 0.989969 0.98997 0.98997 0.98997 0.98997 0.989963 0.989963 0.989963 0.989963 0.989963 0.989963
          0.989963 0.989963 0.989963 0.989963 0.989963 0.989963 0.989963 0.989966 0.989963 0.989963 0.989963 0.989963
          0.989963 0.989963 0.989963 0.989963 0.989963 0.989963 0.989963 0.989963 0.989957 0.989957 0.989957 0.989957
          0.989957 0.989957 0.989957 0.989957 0.989957 0.989957 0.989957 0.989957 0.989955 0.989954 0.989957 0.989957
          0.989957 0.989957 0.989957 0.989957 0.989957 0.989957 0.989957 0.989957 0.989957 0.989957 0.989946 0.989946
          0.989946 0.989946 0.989946 0.989946 0.989946 0.989946 0.989946 0.989946 0.989946 0.989946 0.989947 0.989945
          0.989946 0.989946 0.989946 0.989946 0.989946 0.989946 0.989946 0.989946 0.989946 0.989946 0.989946 0.989946
          0.989715 0.989715 0.989715 0.989715 0.989715 0.989715 0.989715 0.989715 0.989715 0.989715 0.989715 0.989715
          0.989715 0.989715 0.989715 0.989715 0.989715 0.989715 0.989715 0.989715 0.989715 0.989715 0.989715 0.989715
          0.989715 0.989715 0.988801 0.988801 0.988801 0.988801 0.988801 0.988801 0.988801 0.988801 0.988801 0.988801
          0.988801 0.988801 0.988801 0.988801 0.988801 0.988801 0.988801 0.988801 0.988801 0.988801 0.988801 0.988801
          0.988801 0.988801 0.988801 0.988801 0.987858 0.987858 0.987858 0.987858 0.987858 0.987858 0.987858 0.987858
          0.987858 0.987858 0.987858 0.987858 0.987858 0.987858 0.987858 0.987858 0.987858 0.987858 0.987858 0.987858
          0.987858 0.987858 0.987858 0.987858 0.987858 0.987858 0.986876 0.986876 0.986876 0.986876 0.986876 0.986876
          0.986876 0.986876 0.986876 0.986876 0.986876 0.986876 0.986876 0.986876 0.986876 0.986876 0.986876 0.986876
          0.986876 0.986876 0.986876 0.986876 0.986876 0.986876 0.986876 0.986876 0.985832 0.985832 0.985832 0.985832
          0.985832 0.985832 0.985832 0.985832 0.985832 0.985832 0.985832 0.985832 0.985832 0.985832 0.985832 0.985832
          0.985832 0.985832 0.985832 0.985832 0.985832 0.985832 0.985832 0.985832 0.985832 0.985832 0.984678 0.984678
          0.984678 0.984678 0.984678 0.984678 0.984678 0.984678 0.984678 0.984678 0.984678 0.984678 0.984678 0.984678
          0.984678 0.984678 0.984678 0.984678 0.984678 0.984678 0.984678 0.984678 0.984678 0.984678 0.984678 0.984678
          0.983313 0.983313 0.983313 0.983313 0.983313 0.983313 0.983313 0.983313 0.983313 0.983313 0.983313 0.983313
          0.983313 0.983313 0.983313 0.983313 0.983313 0.983313 0.983313 0.983313 0.983313 0.983313 0.983313 0.983313
          0.983313 0.983313 0.981339 0.981339 0.981339 0.981339 0.981339 0.98134 0.98134 0.98134 0.98134 0.98134
          0.98134 0.98134 0.98134 0.98134 0.98134 0.98134 0.98134 0.98134 0.98134 0.98134 0.98134 0.98134
          0.98134 0.98134 0.98134 0.98134 0.9754 0.9754 0.9754 0.9754 0.9754 0.9754 0.975401 0.975401
          0.975401 0.975401 0.975401 0.975401 0.975401 0.975401 0.975401 0.975401 0.975401 0.975401 0.975401 0.975401
          0.975401 0.975401 0.975401 0.975401 0.975401 0.975401 0.966155 0.966155 0.966155 0.966155 0.966155 0.966156
          0.966156 0.966156 0.966156 0.966156 0.966156 0.966156 0.966156 0.966156 0.966156 0.966156 0.966156 0.966157
          0.966157 0.966157 0.966157 0.966157 0.966157 0.966157 0.966157 0.966157 0.953997 0.953997 0.953997 0.953997
          0.953998 0.953998 0.953998 0.953998 0.953998 0.953998 0.953998 0.953999 0.953999 0.953999 0.953999 0.953999
          0.953999 0.953999 0.953999 0.953999 0.953999 0.954 0.954 0.954 0.954 0.954 0.938998 0.938998
          0.938998 0.938998 0.938999 0.938999 0.938999 0.938999 0.938999 0.939 0.939 0.939 0.939 0.939
          0.939 0.939001 0.939001 0.939001 0.939001 0.939001 0.939001 0.939001 0.939001 0.939001 0.939002 0.939002
          0.921449 0.921449 0.921449 0.92145 0.92145 0.92145 0.92145 0.921451 0.921451 0.921451 0.921451 0.921452
          0.921452 0.921452 0.921452 0.921453 0.921453 0.921453 0.921453 0.921453 0.921453 0.921454 0.921454 0.921454
          0.921454 0.921454 0.901808 0.901808 0.901808 0.901808 0.901809 0.901809 0.901809 0.90181 0.90181 0.90181
          0.901811 0.901811 0.901811 0.901812 0.901812 0.901812 0.901812 0.901813 0.901813 0.901813 0.901813 0.901813
          0.901813 0.901814 0.901814 0.901814 0.880626 0.880627 0.880627 0.880627 0.880628 0.880628 0.880628 0.880629
          0.880629 0.88063 0.88063 0.880631 0.880631 0.880631 0.880632 0.880632 0.880632 0.880633 0.880633 0.880633
          0.880633 0.880633 0.880634 0.880634 0.880634 0.880634 0.858485 0.858485 0.858486 0.858486 0.858487 0.858487
          0.858488 0.858488 0.858489 0.858489 0.85849 0.85849 0.858491 0.858491 0.858491 0.858492 0.858492 0.858492
          0.858493 0.858493 0.858493 0.858493 0.858494 0.858494 0.858494 0.858494 0.835934 0.835934 0.835935 0.835935
          0.835936 0.835936 0.835937 0.835938 0.835938 0.835939 0.835939 0.83594 0.83594 0.835941 0.835941 0.835942
          0.835942 0.835943 0.835943 0.835943 0.835944 0.835944 0.835944 0.835944 0.835944 0.835945 0.813456 0.813456
          0.813457 0.813458 0.813458 0.813459 0.81346 0.813461 0.813461 0.813462 0.813463 0.813463 0.813464 0.813464
          0.813465 0.813465 0.813466 0.813466 0.813467 0.813467 0.813467 0.813468 0.813468 0.813468 0.813468 0.813469
        </DataArray>
        <DataArray type="Float32" Name="pn" NumberOfComponents="1" format="ascii">
          101156 101156 100908 100908 101156 100908 101156 100908 101156 100908 101156 100908
          101156 100908 101156 100908 101156 100908 101156 100908 101156 100908 101156 100908
          101156 100908 101156 100907 101157 100907 101156 100908 101156 100908 101156 100908
          101156 100908 101155 100908 101156 100908 101156 100908 101156 100908 101156 100908
          101156 100908 101156 100908 100681 100681 100681 100681 100681 100681 100681 100681
          100681 100681 100681 100682 100681 100682 100681 100682 100682 100681 100682 100682
          100681 100682 100681 100681 100681 100681 100476 100476 100476 100476 100476 100476
          100476 100476 100476 100476 100476 100476 100476 100475 100476 100476 100476 100476
          100476 100476 100476 100476 100476 100476 100476 100476 100289 100289 100289 100289
          100289 100289 100289 100289 100289 100289 100289 100289 100289 100289 100289 100289
          100289 100289 100289 100289 100289 100289 100289 100289 100289 100289 100120 100120
          100120 100120 100120 100120 100120 100120 100120 100120 100120 100120 100120 100120
          100120 100120 100120 100120 100120 100120 100120 100120 100120 100120 100120 100120
          100002 100002 100002 100002 100002 100002 100002 100002 100002 100002 100002 100002
          100002 100002 100002 100002 100002 100002 100002 100002 100002 100002 100002 100002
          100002 100002 100001 100001 100001 100001 100001 100001 100001 100001 100001 100001
          100001 100001 100001 100001 100001 100001 100001 100001 100001 100001 100001 100001
          100001 100001 100001 100001 100001 100001 100001 100001 100001 100001 100001 100001
          100001 100001 100001 100001 100001 100001 100001 100001 100001 100001 100001 100001
          100001 100001 100001 100001 100001 100001 100001 100001 100001 100001 100001 100001
          100001 100001 100001 100001 100001 100001 100001 100001 100001 100001 100001 100001
          100001 100001 100001 100001 100001 100001 100001 100001 100001 100001 100001 100001
          100001 100001 100001 100001 100001 100001 100001 100001 100001 100001 100001 100001
          100001 100001 100001 100001 100001 100001 100001 100001 100001 100001 100001 100001
          100001 100001 100001 100001 100001 100001 100001 100001 100001 100001 100001 100001
          100001 100001 100001 100001 100001 100001 100001 100001 100001 100001 100001 100001
          100001 100001 100001 100001 100001 100001 100001 100001 100001 100001 100001 100001
          100001 100001 100001 100001 100001 100001 100001 100001 100001 100001 100001 100001
          100001 100001 100001 100001 100001 100001 100001 100001 100001 100001 100001 100001
          100001 100001 100001 100001 100001 100001 100001 100001 100001 100001 100001 100001
          100001 100001 100001 100001 100000 100000 100000 100000 100000 100000 100000 100000
          100000 100000 100000 100000 100000 100000 100000 100000 100000 100000 100000 100000
          100000 100000 100000 100000 100000 100000 100000 100000 100000 100000 100000 100000
          100000 100000 100000 100000 100000 100000 100000 100000 100000 100000 100000 100000
          100000 100000 100000 100000 100000 100000 100000 100000 100000 100000 100000 100000
          100000 100000 100000 100000 100000 100000 100000 100000 100000 100000 100000 100000
          100000 100000 100000 100000 100000 100000 100000 100000 100000 100000 100000 100000
          100000 100000 100000 100000 100000 100000 100000 100000 100000 100000 100000 100000
          100000 100000 100000 100000 100000 100000 100000 100000 100000 100000 100000 100000
          100000 100000 100000 100000 100000 100000 100000 100000 100000 100000 100000 100000
          100000 100000 100000 100000 100000 100000 100000 100000 100000 100000 100000 100000
          100000 100000 100000 100000 100000 100000 100000 100000 100000 100000 100000 100000
          100000 100000 100000 100000 100000 100000 100000 100000 100000 100000 100000 100000
          100000 100000 100000 100000 100000 100000 100000 100000 100000 100000 100000 100000
          100000 100000 100000 100000 100000 100000 100000 100000 100000 100000 100000 100000
          100000 100000 100000 100000 100000 100000 100000 100000 100000 100000 100000 100000
          100000 100000 100000 100000 100000 100000 100000 100000 100000 100000 100000 100000
          100000 100000 100000 100000 100000 100000 100000 100000 100000 100000 100000 100000
          100000 100000 100000 100000 100000 100000 100000 100000 100000 100000 100000 100000
          100000 100000 100000 100000 100000 100000 100000 100000 100000 100000 100000 100000
          100000 100000 100000 100000 100000 100000 100000 100000 100000 100000 100000 100000
          100000 100000 100000 100000 100000 100000 100000 100000 100000 100000 100000 100000
        </DataArray>
        <DataArray type="Float32" Name="pw" NumberOfComponents="1" format="ascii">
          101154 101154 100904 100904 101154 100904 101154 100904 101154 100904 101154 100904
          101154 100904 101154 100904 101154 100904 101154 100904 101154 100904 101154 100904
          101154 100904 101154 100904 101154 100904 101154 100904 101154 100904 101154 100904
          101154 100904 101154 100904 101154 100904 101154 100904 101154 100904 101154 100904
          101154 100904 101154 100904 100676 100676 100676 100676 100676 100676 100676 100676
          100676 100676 100676 100676 100676 100676 100676 100676 100676 100676 100676 100676
          100676 100676 100676 100676 100676 100676 100470 100470 100470 100470 100470 100470
          100470 100470 100470 100470 100470 100470 100470 100470 100470 100470 100470 100470
          100470 100470 100470 100470 100470 100470 100470 100470 100282 100282 100282 100282
          100282 100282 100282 100282 100282 100282 100282 100282 100282 100282 100282 100282
          100282 100282 100282 100282 100282 100282 100282 100282 100282 100282 100111 100111
          100111 100111 100111 100111 100111 100111 100111 100111 100111 100111 100111 100111
          100111 100111 100111 100111 100111 100111 100111 100111 100111 100111 100111 100111
          99955.3 99955.3 99955.3 99955.3 99955.3 99955.3 99955.3 99955.3 99955.3 99955.3 99955.3 99955.3
          99955.3 99955.3 99955.3 99955.3 99955.3 99955.3 99955.3 99955.3 99955.3 99955.3 99955.3 99955.3
          99955.3 99955.3 99814 99814 99814 99814 99814 99814 99814 99814 99814 99814
          99814 99814 99814 99814 99814 99814 99814 99814 99814 99814 99814 99814
          99814 99814 99814 99814 99685.6 99685.6 99685.6 99685.6 99685.6 99685.6 99685.6 99685.6
          99685.6 99685.6 99685.6 99685.6 99685.6 99685.6 99685.6 99685.6 99685.6 99685.6 99685.6 99685.6
          99685.6 99685.6 99685.6 99685.6 99685.6 99685.6 99568.9 99568.9 99568.9 99568.9 99568.9 99568.9
          99568.9 99568.9 99568.9 99568.9 99568.9 99568.9 99568.9 99568.9 99568.9 99568.9 99568.9 99568.9
          99568.9 99568.9 99568.9 99568.9 99568.9 99568.9 99568.9 99568.9 99462.7 99462.7 99462.7 99462.7
          99462.7 99462.7 99462.7 99462.8 99462.8 99462.8 99462.8 99462.8 99462.8 99462.8 99462.8 99462.8
          99462.8 99462.8 99462.8 99462.8 99462.8 99462.8 99462.8 99462.8 99462.8 99462.8 99366.3 99366.3
          99366.3 99366.3 99366.3 99366.3 99366.3 99366.3 99366.3 99366.3 99366.3 99366.3 99366.3 99366.3
          99366.3 99366.3 99366.3 99366.3 99366.3 99366.3 99366.3 99366.3 99366.3 99366.3 99366.3 99366.3
          99278.6 99278.6 99278.6 99278.6 99278.6 99278.6 99278.6 99278.6 99278.6 99278.6 99278.6 99278.6
          99278.6 99278.6 99278.6 99278.6 99278.6 99278.6 99278.6 99278.6 99278.6 99278.6 99278.6 99278.6
          99278.6 99278.6 99198.8 99198.8 99198.8 99198.8 99198.8 99198.8 99198.8 99198.8 99198.8 99198.8
          99198.8 99198.8 99198.8 99198.8 99198.8 99198.8 99198.8 99198.8 99198.8 99198.8 99198.8 99198.8
          99198.8 99198.8 99198.8 99198.8 99126.3 99126.3 99126.3 99126.3 99126.3 99126.3 99126.3 99126.3
          99126.3 99126.3 99126.3 99126.3 99126.3 99126.3 99126.3 99126.3 99126.3 99126.3 99126.3 99126.3
          99126.3 99126.3 99126.3 99126.3 99126.3 99126.3 99060.4 99060.4 99060.4 99060.4 99060.4 99060.4
          99060.4 99060.4 99060.4 99060.4 99060.4 99060.4 99060.4 99060.4 99060.4 99060.4 99060.4 99060.4
          99060.4 99060.4 99060.4 99060.4 99060.4 99060.4 99060.4 99060.4 99000.5 99000.5 99000.5 99000.5
          99000.5 99000.5 99000.5 99000.5 99000.5 99000.5 99000.5 99000.5 99000.5 99000.5 99000.5 99000.5
          99000.5 99000.5 99000.5 99000.5 99000.5 99000.5 99000.5 99000.5 99000.5 99000.5 98946.1 98946.1
          98946.1 98946.1 98946.1 98946.1 98946.1 98946.1 98946.1 98946.1 98946.1 98946.1 98946.1 98946.1
          98946.1 98946.1 98946.1 98946.1 98946.1 98946.1 98946.1 98946.1 98946.1 98946.1 98946.1 98946.1
          98896.6 98896.6 98896.6 98896.6 98896.6 98896.6 98896.6 98896.6 98896.6 98896.6 98896.6 98896.6
          98896.6 98896.6 98896.6 98896.6 98896.6 98896.6 98896.6 98896.6 98896.6 98896.6 98896.6 98896.6
          98896.6 98896.6 98851.5 98851.5 98851.5 98851.5 98851.6 98851.6 98851.6 98851.6 98851.6 98851.6
          98851.6 98851.6 98851.6 98851.6 98851.6 98851.6 98851.6 98851.6 98851.6 98851.6 98851.6 98851.6
          98851.6 98851.6 98851.6 98851.6 98810.6 98810.6 98810.6 98810.6 98810.6 98810.6 98810.6 98810.6
          98810.6 98810.6 98810.6 98810.6 98810.6 98810.6 98810.6 98810.6 98810.6 98810.6 98810.6 98810.6
          98810.6 98810.6 98810.6 98810.6 98810.6 98810.6 98773.4 98773.4 98773.4 98773.4 98773.4 98773.4
          98773.4 98773.4 98773.4 98773.4 98773.4 98773.4 98773.4 98773.4 98773.4 98773.4 98773.4 98773.4
          98773.4 98773.4 98773.4 98773.4 98773.4 98773.4 98773.4 98773.4 98739.6 98739.6 98739.6 98739.6
          98739.6 98739.6 98739.6 98739.6 98739.6 98739.6 98739.6 98739.6 98739.6 98739.6 98739.6 98739.6
          98739.6 98739.6 98739.6 98739.6 98739.6 98739.6 98739.6 98739.6 98739.6 98739.6 98708.9 98708.9
          98708.9 98708.9 98708.9 98708.9 98708.9 98708.9 98708.9 98708.9 98708.9 98708.9 98708.9 98708.9
          98708.9 98708.9 98708.9 98708.9 98708.9 98708.9 98708.9 98708.9 98708.9 98708.9 98708.9 98708.9
        </DataArray>
        <DataArray type="Float32" Name="pc" NumberOfComponents="1" format="ascii">
          1.9338 1.93361 3.76323 3.763 1.93312 3.76249 1.93335 3.76314 1.93277 3.7633 1.93129 3.76447
          1.92908 3.76401 1.92337 3.76384 1.91938 3.76571 1.91876 3.76681 1.95021 3.75202 1.91734 3.74752
          1.94056 3.66755 2.21914 3.26582 2.42594 3.39644 2.02221 3.77932 1.802 3.82244 2.18244 3.68924
          1.53323 3.85527 1.34956 3.71318 1.88956 3.75499 1.50853 3.93786 1.93225 3.76297 1.93326 3.76186
          1.93326 3.76182 1.93326 3.76181 5.07763 5.0774 5.07696 5.07755 5.07789 5.07895 5.07861 5.07819
          5.0792 5.07969 5.0686 5.08773 5.04484 5.26377 5.07171 5.08869 5.12124 5.0651 5.19695 5.13257
          5.08334 5.11784 5.07624 5.075 5.07495 5.07493 6.17005 6.16984 6.16947 6.16993 6.17029 6.17108
          6.1707 6.17012 6.17065 6.17036 6.16261 6.15702 6.12439 5.74746 6.26952 6.1778 6.18628 6.17066
          6.23725 6.23711 6.17953 6.17737 6.16663 6.16602 6.16596 6.16594 7.13887 7.13868 7.13837 7.13871
          7.13901 7.13954 7.13912 7.13849 7.1387 7.13791 7.13158 7.12141 7.43934 7.69098 7.17205 7.13976
          7.13715 7.13699 7.17055 7.19304 7.14735 7.13749 7.13366 7.13333 7.13327 7.13325 9.05355 9.05337
          9.05308 9.05331 9.05355 9.05387 9.05335 9.05264 9.05258 9.05143 9.04653 9.04002 8.84499 9.14684
          9.06273 9.04734 9.04072 9.04558 9.06339 9.09331 9.05986 9.04858 9.04619 9.0459 9.04582 9.04579
          46.9896 46.9896 46.9895 46.9894 46.9892 46.989 46.9885 46.9879 46.9871 46.9862 46.9857 46.9873
          47.0359 46.9929 46.989 46.9814 46.979 46.9813 46.9871 46.9902 46.9891 46.9844 46.9814 46.9799
          46.9794 46.9792 187.062 187.062 187.062 187.062 187.061 187.061 187.061 187.061 187.061 187.06
          187.061 187.061 187.056 187.061 187.059 187.059 187.059 187.059 187.058 187.058 187.058 187.058
          187.058 187.057 187.057 187.057 315.368 315.368 315.368 315.367 315.367 315.367 315.367 315.367
          315.366 315.366 315.366 315.365 315.365 315.365 315.365 315.365 315.364 315.364 315.364 315.363
          315.363 315.363 315.363 315.363 315.363 315.363 432.014 432.014 432.014 432.014 432.013 432.013
          432.013 432.013 432.012 432.012 432.012 432.011 432.011 432.011 432.011 432.01 432.01 432.01
          432.009 432.009 432.009 432.009 432.009 432.009 432.009 432.009 538.052 538.052 538.052 538.052
          538.052 538.051 538.051 538.051 538.05 538.05 538.05 538.049 538.049 538.049 538.048 538.048
          538.048 538.047 538.047 538.047 538.047 538.047 538.046 538.046 538.046 538.046 634.446 634.446
          634.446 634.446 634.446 634.445 634.445 634.445 634.444 634.444 634.444 634.443 634.443 634.443
          634.442 634.442 634.441 634.441 634.441 634.441 634.44 634.44 634.44 634.44 634.44 634.44
          722.074 722.074 722.073 722.073 722.073 722.073 722.072 722.072 722.071 722.071 722.07 722.07
          722.07 722.069 722.069 722.069 722.068 722.068 722.068 722.067 722.067 722.067 722.067 722.066
          722.066 722.066 801.731 801.731 801.73 801.73 801.73 801.729 801.729 801.729 801.728 801.728
          801.727 801.727 801.726 801.726 801.726 801.725 801.725 801.724 801.724 801.724 801.724 801.723
          801.723 801.723 801.723 801.723 874.14 874.14 874.14 874.139 874.139 874.138 874.138 874.138
          874.137 874.137 874.136 874.136 874.135 874.135 874.134 874.134 874.133 874.133 874.133 874.132
          874.132 874.132 874.132 874.131 874.131 874.131 939.965 939.965 939.964 939.964 939.964 939.963
          939.963 939.962 939.962 939.961 939.961 939.96 939.959 939.959 939.958 939.958 939.958 939.957
          939.957 939.957 939.956 939.956 939.956 939.956 939.956 939.955 999.805 999.804 999.804 999.804
          999.803 999.803 999.802 999.802 999.801 999.801 999.8 999.799 999.799 999.798 999.798 999.797
          999.797 999.797 999.796 999.796 999.795 999.795 999.795 999.795 999.795 999.795 1054.2 1054.2
          1054.2 1054.2 1054.2 1054.2 1054.2 1054.2 1054.2 1054.2 1054.2 1054.2 1054.2 1054.2
          1054.2 1054.2 1054.2 1054.2 1054.19 1054.19 1054.19 1054.19 1054.19 1054.19 1054.19 1054.19
          1103.66 1103.66 1103.66 1103.66 1103.66 1103.66 1103.65 1103.65 1103.65 1103.65 1103.65 1103.65
          1103.65 1103.65 1103.65 1103.65 1103.65 1103.65 1103.65 1103.65 1103.65 1103.65 1103.65 1103.65
          1103.65 1103.65 1148.62 1148.62 1148.62 1148.61 1148.61 1148.61 1148.61 1148.61 1148.61 1148.61
          1148.61 1148.61 1148.61 1148.61 1148.61 1148.61 1148.61 1148.61 1148.61 1148.61 1148.6 1148.6
          1148.6 1148.6 1148.6 1148.6 1189.49 1189.49 1189.49 1189.49 1189.48 1189.48 1189.48 1189.48
          1189.48 1189.48 1189.48 1189.48 1189.48 1189.48 1189.48 1189.48 1189.48 1189.48 1189.48 1189.48
          1189.48 1189.47 1189.47 1189.47 1189.47 1189.47 1226.64 1226.64 1226.64 1226.64 1226.64 1226.64
          1226.64 1226.64 1226.64 1226.64 1226.64 1226.63 1226.63 1226.63 1226.63 1226.63 1226.63 1226.63
          1226.63 1226.63 1226.63 1226.63 1226.63 1226.63 1226.63 1226.63 1260.42 1260.42 1260.42 1260.42
          1260.42 1260.42 1260.42 1260.42 1260.41 1260.41 1260.41 1260.41 1260.41 1260.41 1260.41 1260.41
          1260.41 1260.41 1260.41 1260.41 1260.41 1260.41 1260.41 1260.41 1260.41 1260.41 1291.13 1291.13
          1291.13 1291.13 1291.13 1291.12 1291.12 1291.12 1291.12 1291.12 1291.12 1291.12 1291.12 1291.12
          1291.12 1291.12 1291.12 1291.12 1291.11 1291.11 1291.11 1291.11 1291.11 1291.11 1291.11 1291.11
        </DataArray>
        <DataArray type="Float32" Name="rhoW" NumberOfComponents="1" format="ascii">
          997.048 997.048 997.048 997.048 997.048 997.048 997.048 997.048 997.048 997.048 997.048 997.048
          997.048 997.048 997.048 997.048 997.048 997.048 997.048 997.048 997.048 997.048 997.048 997.048
          997.048 997.048 997.048 997.048 997.048 997.048 997.048 997.048 997.048 997.048 997.048 997.048
          997.048 997.048 997.048 997.048 997.048 997.048 997.048 997.048 997.048 997.048 997.048 997.048
          997.048 997.048 997.048 997.048 997.048 997.048 997.048 997.048 997.048 997.048 997.048 997.048
          997.048 997.048 997.048 997.048 997.048 997.048 997.048 997.048 997.048 997.048 997.048 997.048
          997.048 997.048 997.048 997.048 997.048 997.048 997.048 997.048 997.048 997.048 997.048 997.048
          997.048 997.048 997.048 997.048 997.048 997.048 997.048 997.048 997.048 997.048 997.048 997.048