<?xml version="1.0"?>
<VTKFile type="UnstructuredGrid" version="0.1" byte_order="LittleEndian">
  <UnstructuredGrid>
    <Piece NumberOfCells="140" NumberOfPoints="165">
      <PointData Scalars="Sn" Vectors="velocityW">
        <DataArray type="Float32" Name="Sn" NumberOfComponents="1" format="ascii">
          0.0100111 0.0100111 0.0100231 0.010023 0.0100111 0.0100229 0.0100111 0.0100228 0.0100111 0.010023 0.0100107 0.0100229
          0.0100106 0.0100229 0.0100108 0.0100229 0.0100108 0.0100229 0.0100104 0.0100228 0.0100096 0.0100226 0.0100313 0.0100315
          0.0100317 0.0100317 0.0100317 0.0100317 0.0100317 0.0100317 0.0100317 0.0100317 0.0100317 0.0100408 0.0100405 0.0100399
          0.0100395 0.0100393 0.0100394 0.0100395 0.0100393 0.0100393 0.0100393 0.0100394 0.0100525 0.0100539 0.0100548 0.010055
          0.010055 0.0100551 0.0100553 0.010055 0.010055 0.0100551 0.0100551 0.0104434 0.0104432 0.0104431 0.0104432 0.0104432
          0.0104432 0.0104432 0.0104432 0.0104432 0.0104432 0.0104432 0.0117113 0.0117113 0.0117113 0.0117113 0.0117113 0.0117113
          0.0117113 0.0117113 0.0117113 0.0117113 0.0117113 0.0130957 0.0130957 0.0130957 0.0130957 0.0130957 0.0130957 0.0130957
          0.0130957 0.0130957 0.0130957 0.0130957 0.0146821 0.0146821 0.0146821 0.0146821 0.0146821 0.0146821 0.0146821 0.0146821
          0.0146821 0.0146821 0.0146821 0.0167269 0.0167269 0.0167269 0.0167269 0.0167269 0.0167269 0.0167269 0.0167269 0.0167269
          0.0167269 0.0167269 0.0222692 0.0222692 0.0222691 0.0222691 0.0222691 0.0222691 0.022269 0.022269 0.022269 0.022269
          0.0222689 0.0390885 0.0390885 0.0390884 0.0390884 0.0390883 0.0390883 0.0390882 0.0390882 0.0390881 0.0390881 0.039088
          0.0675167 0.0675166 0.0675164 0.0675164 0.0675163 0.0675162 0.0675161 0.067516 0.067516 0.0675159 0.0675157 0.108843
          0.108842 0.108842 0.108842 0.108842 0.108842 0.108842 0.108842 0.108842 0.108841 0.108841 0.161861 0.16186
          0.16186 0.16186 0.161859 0.161859 0.161859 0.161859 0.161859 0.161859 0.161858
        </DataArray>
        <DataArray type="Float32" Name="Sw" NumberOfComponents="1" format="ascii">
          0.989989 0.989989 0.989977 0.989977 0.989989 0.989977 0.989989 0.989977 0.989989 0.989977 0.989989 0.989977
          0.989989 0.989977 0.989989 0.989977 0.989989 0.989977 0.98999 0.989977 0.98999 0.989977 0.989969 0.989968
          0.989968 0.989968 0.989968 0.989968 0.989968 0.989968 0.989968 0.989968 0.989968 0.989959 0.989959 0.98996
          0.989961 0.989961 0.989961 0.98996 0.989961 0.989961 0.989961 0.989961 0.989947 0.989946 0.989945 0.989945
          0.989945 0.989945 0.989945 0.989945 0.989945 0.989945 0.989945 0.989557 0.989557 0.989557 0.989557 0.989557
          0.989557 0.989557 0.989557 0.989557 0.989557 0.989557 0.988289 0.988289 0.988289 0.988289 0.988289 0.988289
          0.988289 0.988289 0.988289 0.988289 0.988289 0.986904 0.986904 0.986904 0.986904 0.986904 0.986904 0.986904
          0.986904 0.986904 0.986904 0.986904 0.985318 0.985318 0.985318 0.985318 0.985318 0.985318 0.985318 0.985318
          0.985318 0.985318 0.985318 0.983273 0.983273 0.983273 0.983273 0.983273 0.983273 0.983273 0.983273 0.983273
          0.983273 0.983273 0.977731 0.977731 0.977731 0.977731 0.977731 0.977731 0.977731 0.977731 0.977731 0.977731
          0.977731 0.960911 0.960912 0.960912 0.960912 0.960912 0.960912 0.960912 0.960912 0.960912 0.960912 0.960912
          0.932483 0.932483 0.932484 0.932484 0.932484 0.932484 0.932484 0.932484 0.932484 0.932484 0.932484 0.891157
          0.891158 0.891158 0.891158 0.891158 0.891158 0.891158 0.891158 0.891158 0.891159 0.891159 0.838139 0.83814
          0.83814 0.83814 0.83814 0.838141 0.838141 0.838141 0.838141 0.838141 0.838142
        </DataArray>
        <DataArray type="Float32" Name="pn" NumberOfComponents="1" format="ascii">
          101190 101190 100890 100890 101190 100890 101190 100890 101190 100890 101190 100890
          101190 100890 101190 100890 101190 100890 101190 100890 101190 100890 100617 100617
          100617 100617 100617 100617 100617 100617 100617 100617 100617 100369 100369 100369
          100369 100369 100369 100369 100369 100369 100369 100369 100145 100145 100145 100145
          100145 100145 100145 100145 100145 100145 100145 100002 100002 100002 100002 100002
          100002 100002 100002 100002 100002 100002 100001 100001 100001 100001 100001 100001
          100001 100001 100001 100001 100001 100001 100001 100001 100001 100001 100001 100001
          100001 100001 100001 100001 100001 100001 100001 100001 100001 100001 100001 100001
          100001 100001 100001 100001 100001 100001 100001 100001 100001 100001 100001 100001
          100001 100001 100000 100000 100000 100000 100000 100000 100000 100000 100000 100000
          100000 100000 100000 100000 100000 100000 100000 100000 100000 100000 100000 100000
          100000 100000 100000 100000 100000 100000 100000 100000 100000 100000 100000 100000
          100000 100000 100000 100000 100000 100000 100000 100000 100000 100000 100000 100000
          100000 100000 100000 100000 100000 100000 100000 100000 100000
        </DataArray>
        <DataArray type="Float32" Name="pw" NumberOfComponents="1" format="ascii">
          101188 101188 100886 100886 101188 100886 101188 100886 101188 100886 101188 100886
          101188 100886 101188 100886 101188 100886 101188 100886 101188 100886 100612 100612
          100612 100612 100612 100612 100612 100612 100612 100612 100612 100363 100363 100363
          100363 100363 100363 100363 100363 100363 100363 100363 100136 100136 100136 100136
          100136 100136 100136 100136 100136 100136 100136 99929.7 99929.7 99929.7 99929.7 99929.7
          99929.7 99929.7 99929.7 99929.7 99929.7 99929.7 99742.3 99742.3 99742.3 99742.3 99742.3 99742.3
          99742.3 99742.3 99742.3 99742.3 99742.3 99572 99572 99572 99572 99572 99572 99572
          99572 99572 99572 99572 99417.2 99417.2 99417.2 99417.2 99417.2 99417.2 99417.2 99417.2
          99417.2 99417.2 99417.2 99276.4 99276.4 99276.4 99276.4 99276.4 99276.4 99276.4 99276.4 99276.4
          99276.4 99276.4 99148.4 99148.4 99148.4 99148.4 99148.4 99148.4 99148.4 99148.4 99148.4 99148.4
          99148.4 99032.1 99032.1 99032.1 99032.1 99032.1 99032.1 99032.1 99032.1 99032.1 99032.1 99032.1
          98926.3 98926.3 98926.3 98926.3 98926.3 98926.3 98926.3 98926.3 98926.3 98926.3 98926.3 98830.1
          98830.1 98830.1 98830.1 98830.1 98830.1 98830.1 98830.1 98830.1 98830.1 98830.1 98742.7 98742.7
          98742.7 98742.7 98742.7 98742.7 98742.7 98742.7 98742.7 98742.7 98742.7
        </DataArray>
        <DataArray type="Float32" Name="pc" NumberOfComponents="1" format="ascii">
          1.85612 1.85371 3.87113 3.85162 1.85735 3.83071 1.86212 3.80881 1.85223 3.83984 1.79074 3.83805
          1.77707 3.83912 1.8128 3.83582 1.80253 3.82685 1.74232 3.81509 1.61059 3.78222 5.23469 5.27266
          5.29263 5.29255 5.30492 5.30696 5.29974 5.30076 5.29888 5.30204 5.30553 6.81051 6.76749 6.6672
          6.59671 6.56547 6.58246 6.60816 6.5718 6.56819 6.57301 6.58527 8.77402 9.00546 9.14524 9.19015
          9.18351 9.20457 9.22765 9.19022 9.18986 9.20447 9.20612 72.3755 72.3338 72.3276 72.3372 72.3414
          72.3476 72.3492 72.3447 72.3423 72.3393 72.3458 258.767 258.769 258.768 258.767 258.767 258.767
          258.767 258.767 258.766 258.766 258.766 428.919 428.919 428.919 428.918 428.918 428.918 428.918
          428.918 428.917 428.917 428.917 583.606 583.606 583.606 583.606 583.605 583.605 583.605 583.605
          583.604 583.604 583.604 724.229 724.229 724.228 724.228 724.228 724.228 724.227 724.227 724.227
          724.227 724.227 852.062 852.061 852.061 852.061 852.061 852.06 852.06 852.06 852.06 852.059
          852.059 968.271 968.27 968.27 968.27 968.27 968.269 968.269 968.269 968.269 968.268 968.268
          1073.91 1073.91 1073.91 1073.91 1073.91 1073.91 1073.91 1073.91 1073.91 1073.91 1073.91 1169.95
          1169.95 1169.95 1169.95 1169.95 1169.95 1169.95 1169.95 1169.95 1169.95 1169.95 1257.26 1257.26
          1257.26 1257.26 1257.26 1257.26 1257.26 1257.26 1257.26 1257.26 1257.26
        </DataArray>
        <DataArray type="Float32" Name="rhoW" NumberOfComponents="1" format="ascii">
          997.048 997.048 997.048 997.048 997.048 997.048 997.048 997.048 997.048 997.048 997.048 997.048
          997.048 997.048 997.048 997.048 997.048 997.048 997.048 997.048 997.048 997.048 997.048 997.048
          997.048 997.048 997.048 997.048 997.048 997.048 997.048 997.048 997.048 997.048 997.048 997.048
          997.048 997.048 997.048 997.048 997.048 997.048 997.048 997.048 997.048 997.048 997.048 997.048
          997.048 997.048 997.048 997.048 997.048 997.048 997.048 997.048 997.048 997.048 997.048 997.048
          997.048 997.048 997.048 997.048 997.048 997.048 997.048 997.048 997.048 997.048 997.048 997.048
          997.048 997.048 997.048 997.048 997.048 997.047 997.047 997.047 997.047 997.047 997.047 997.047
          997.047 997.047 997.047 997.047 997.047 997.047 997.047 997.047 997.047 997.047 997.047 997.047
          997.047 997.047 997.047 997.047 997.047 997.047 997.047 997.047 997.047 997.047 997.047 997.047
          997.047 997.047 997.047 997.047 997.047 997.047 997.047 997.047 997.047 997.047 997.047 997.047
          997.047 997.047 997.047 997.047 997.047 997.047 997.047 997.047 997.047 997.047 997.047 997.047
          997.047 997.047 997.047 997.047 997.047 997.047 997.047 997.047 997.047 997.047 997.047 997.047
          997.047 997.047 997.047 997.047 997.047 997.047 997.047 997.047 997.047 997.047 997.047 997.047
          997.047 997.047 997.047 997.047 997.047 997.047 997.047 997.047 997.047
        </DataArray>
        <DataArray type="Float32" Name="rhoN" NumberOfComponents="1" format="ascii">
          1.16814 1.16814 1.16464 1.16464 1.16814 1.16464 1.16814 1.16464 1.16814 1.16464 1.16814 1.16464
          1.16814 1.16464 1.16814 1.16464 1.16814 1.16464 1.16814 1.16464 1.16813 1.16463 1.16145 1.16145
          1.16145 1.16145 1.16145 1.16145 1.16145 1.16145 1.16145 1.16145 1.16145 1.15855 1.15855 1.15855
          1.15855 1.15855 1.15855 1.15855 1.15855 1.15855 1.15855 1.15855 1.15593 1.15593 1.15593 1.15593
          1.15593 1.15593 1.15593 1.15593 1.15593 1.15593 1.15593 1.15426 1.15426 1.15426 1.15426 1.15426
          1.15426 1.15426 1.15426 1.15426 1.15426 1.15426 1.15425 1.15425 1.15425 1.15425 1.15425 1.15425
          1.15425 1.15425 1.15425 1.15425 1.15425 1.15425 1.15425 1.15425 1.15425 1.15425 1.15425 1.15425
          1.15425 1.15425 1.15425 1.15425 1.15425 1.15425 1.15425 1.15425 1.15425 1.15425 1.15425 1.15425
          1.15425 1.15425 1.15425 1.15424 1.15424 1.15424 1.15424 1.15424 1.15424 1.15424 1.15424 1.15424
          1.15424 1.15424 1.15424 1.15424 1.15424 1.15424 1.15424 1.15424 1.15424 1.15424 1.15424 1.15424
          1.15424 1.15424 1.15424 1.15424 1.15424 1.15424 1.15424 1.15424 1.15424 1.15424 1.15424 1.15424
          1.15424 1.15424 1.15424 1.15424 1.15424 1.15424 1.15424 1.15424 1.15424 1.15424 1.15424 1.15424
          1.15424 1.15424 1.15424 1.15424 1.15424 1.15424 1.15424 1.15424 1.15424 1.15424 1.15424 1.15424
          1.15424 1.15424 1.15424 1.15424 1.15424 1.15424 1.15424 1.15424 1.15424
        </DataArray>
        <DataArray type="Float32" Name="mobW" NumberOfComponents="1" format="ascii">
          1123.57 1123.57 1123.57 1123.57 1123.57 1123.57 1123.57 1123.57 1123.57 1123.57 1123.57 1123.57
          1123.57 1123.57 1123.57 1123.57 1123.57 1123.57 1123.57 1123.57 1123.57 1123.57 1123.57 1123.57
          1123.57 1123.57 1123.57 1123.57 1123.57 1123.57 1123.57 1123.57 1123.57 1123.57 1123.57 1123.57
          1123.57 1123.57 1123.57 1123.57 1123.57 1123.57 1123.57 1123.57 1123.57 1123.57 1123.57 1123.57
          1123.57 1123.57 1123.57 1123.57 1123.57 1123.57 1123.57 1123.55 1123.55 1123.55 1123.55 1123.55
          1123.55 1123.55 1123.55 1123.55 1123.55 1123.55 1123.32 1123.32 1123.32 1123.32 1123.32 1123.32
          1123.32 1123.32 1123.32 1123.32 1123.32 1122.77 1122.77 1122.77 1122.77 1122.77 1122.77 1122.77
          1122.77 1122.77 1122.77 1122.77 1121.76 1121.76 1121.76 1121.76 1121.76 1121.76 1121.76 1121.76
          1121.76 1121.76 1121.76 1119.87 1119.87 1119.87 1119.87 1119.87 1119.87 1119.87 1119.87 1119.87
          1119.87 1119.87 1111.67 1111.67 1111.67 1111.67 1111.67 1111.67 1111.67 1111.67 1111.67 1111.67
          1111.67 1063.49 1063.49 1063.49 1063.49 1063.49 1063.49 1063.49 1063.49 1063.49 1063.49 1063.49
          933.395 933.396 933.396 933.397 933.397 933.398 933.398 933.398 933.399 933.399 933.4 753.949
          753.95 753.951 753.951 753.951 753.952 753.952 753.952 753.953 753.953 753.954 615.19 615.191
          615.192 615.192 615.193 615.193 615.193 615.194 615.194 615.195 615.196
        </DataArray>
        <DataArray type="Float32" Name="mobN" NumberOfComponents="1" format="ascii">
          5.53213e-06 5.51742e-06 2.48803e-05 2.46244e-05 5.53961e-06 2.43516e-05 5.56871e-06 2.40676e-05 5.50839e-06 2.44705e-05 5.14099e-06 2.44472e-05
          5.06106e-06 2.44611e-05 5.27129e-06 2.44181e-05 5.21042e-06 2.43014e-05 4.86074e-06 2.41488e-05 4.139e-06 2.3725e-05 4.61403e-05 4.68281e-05
          4.7192e-05 4.71905e-05 4.74167e-05 4.74539e-05 4.73218e-05 4.73405e-05 4.73062e-05 4.7364e-05 4.74278e-05 7.90889e-05 7.8069e-05 7.57177e-05
          7.4087e-05 7.33703e-05 7.37595e-05 7.43507e-05 7.35151e-05 7.34325e-05 7.35429e-05 7.38243e-05 0.000132906 0.000140192 0.000144689 0.00014615
          0.000145933 0.00014662 0.000147375 0.000146152 0.00014614 0.000146617 0.000146671 0.0103873 0.0103747 0.0103728 0.0103757 0.010377
          0.0103789 0.0103793 0.010378 0.0103773 0.0103764 0.0103783 0.164049 0.164052 0.164051 0.16405 0.16405 0.16405
          0.16405 0.164049 0.164049 0.164049 0.164048 0.550722 0.550722 0.550722 0.550721 0.55072 0.550719 0.550718
          0.550718 0.550717 0.550716 0.550716 1.28233 1.28233 1.28233 1.28232 1.28232 1.28232 1.28232 1.28232
          1.28232 1.28231 1.28231 2.68822 2.68822 2.68821 2.68821 2.6882 2.6882 2.6882 2.68819 2.68819
          2.68819 2.68818 9.1718 9.17176 9.17171 9.17168 9.17164 9.17161 9.17157 9.17154 9.17151 9.17146
          9.17141 53.3922 53.3919 53.3917 53.3915 53.3913 53.3911 53.391 53.3908 53.3906 53.3904 53.3901
          214.104 214.103 214.102 214.102 214.101 214.1 214.1 214.099 214.099 214.098 214.097 643.232
          643.228 643.227 643.225 643.223 643.222 643.22 643.219 643.217 643.215 643.211 1533.86 1533.85
          1533.84 1533.84 1533.84 1533.83 1533.83 1533.83 1533.82 1533.82 1533.81
        </DataArray>
        <DataArray type="Float32" Name="X_liquid^H2O" NumberOfComponents="1" format="ascii">
          0.999978 0.999978 0.999978 0.999978 0.999978 0.999978 0.999978 0.999978 0.999978 0.999978 0.999978 0.999978
          0.999978 0.999978 0.999978 0.999978 0.999978 0.999978 0.999978 0.999978 0.999978 0.999978 0.999978 0.999978
          0.999978 0.999978 0.999978 0.999978 0.999978 0.999978 0.999978 0.999978 0.999978 0.999978 0.999978 0.999978
          0.999978 0.999978 0.999978 0.999978 0.999978 0.999978 0.999978 0.999978 0.999978 0.999978 0.999978 0.999978
          0.999978 0.999978 0.999978 0.999978 0.999978 0.999978 0.999978 0.999978 0.999978 0.999978 0.999978 0.999978
          0.999978 0.999978 0.999978 0.999978 0.999978 0.999978 0.999978 0.999978 0.999978 0.999978 0.999978 0.999978
          0.999978 0.999978 0.999978 0.999978 0.999978 0.999978 0.999978 0.999978 0.999978 0.999978 0.999978 0.999978
          0.999978 0.999978 0.999978 0.999978 0.999978 0.999978 0.999978 0.999978 0.999978 0.999978 0.999978 0.999978
          0.999978 0.999978 0.999978 0.999978 0.999978 0.999978 0.999978 0.999978 0.999978 0.999978 0.999978 0.999978
          0.999978 0.999978 0.999978 0.999978 0.999978 0.999978 0.999978 0.999978 0.999978 0.999978 0.999978 0.999978
          0.999978 0.999978 0.999978 0.999978 0.999978 0.999978 0.999978 0.999978 0.999978 0.999978 0.999978 0.999978
          0.999978 0.999978 0.999978 0.999978 0.999978 0.999978 0.999978 0.999978 0.999978 0.999978 0.999978 0.999978
          0.999978 0.999978 0.999978 0.999978 0.999978 0.999978 0.999978 0.999978 0.999978 0.999978 0.999978 0.999978
          0.999978 0.999978 0.999978 0.999978 0.999978 0.999978 0.999978 0.999978 0.999978
        </DataArray>
        <DataArray type="Float32" Name="X_liquid^Air" NumberOfComponents="1" format="ascii">
          2.18116e-05 2.18116e-05 2.17449e-05 2.17449e-05 2.18116e-05 2.17449e-05 2.18116e-05 2.17449e-05 2.18116e-05 2.17449e-05 2.18116e-05 2.17449e-05
          2.18116e-05 2.17449e-05 2.18116e-05 2.17449e-05 2.18116e-05 2.17449e-05 2.18116e-05 2.17449e-05 2.18116e-05 2.17449e-05 2.16842e-05 2.16842e-05
          2.16842e-05 2.16842e-05 2.16842e-05 2.16842e-05 2.16842e-05 2.16842e-05 2.16842e-05 2.16842e-05 2.16842e-05 2.1629e-05 2.1629e-05 2.1629e-05
          2.1629e-05 2.1629e-05 2.1629e-05 2.1629e-05 2.1629e-05 2.1629e-05 2.1629e-05 2.1629e-05 2.1579e-05 2.15791e-05 2.15791e-05 2.15791e-05
          2.15791e-05 2.15791e-05 2.15791e-05 2.15791e-05 2.15791e-05 2.15791e-05 2.15791e-05 2.15473e-05 2.15473e-05 2.15473e-05 2.15473e-05 2.15473e-05
          2.15473e-05 2.15473e-05 2.15473e-05 2.15473e-05 2.15473e-05 2.15473e-05 2.15471e-05 2.15471e-05 2.15471e-05 2.15471e-05 2.15471e-05 2.15471e-05
          2.15471e-05 2.15471e-05 2.15471e-05 2.15471e-05 2.15471e-05 2.15471e-05 2.15471e-05 2.15471e-05 2.15471e-05 2.15471e-05 2.15471e-05 2.15471e-05
          2.15471e-05 2.15471e-05 2.15471e-05 2.15471e-05 2.1547e-05 2.1547e-05 2.1547e-05 2.1547e-05 2.1547e-05 2.1547e-05 2.1547e-05 2.1547e-05
          2.1547e-05 2.1547e-05 2.1547e-05 2.1547e-05 2.1547e-05 2.1547e-05 2.1547e-05 2.1547e-05 2.1547e-05 2.1547e-05 2.1547e-05 2.1547e-05
          2.1547e-05 2.1547e-05 2.1547e-05 2.1547e-05 2.1547e-05 2.1547e-05 2.1547e-05 2.1547e-05 2.1547e-05 2.1547e-05 2.1547e-05 2.1547e-05
          2.1547e-05 2.15469e-05 2.15469e-05 2.15469e-05 2.15469e-05 2.15469e-05 2.15469e-05 2.15469e-05 2.15469e-05 2.15469e-05 2.15469e-05 2.15469e-05
          2.15469e-05 2.15469e-05 2.15469e-05 2.15469e-05 2.15469e-05 2.15469e-05 2.15469e-05 2.15469e-05 2.15469e-05 2.15469e-05 2.15469e-05 2.15469e-05
          2.15469e-05 2.15469e-05 2.15469e-05 2.15469e-05 2.15469e-05 2.15469e-05 2.15469e-05 2.15469e-05 2.15469e-05 2.15469e-05 2.15468e-05 2.15468e-05
          2.15468e-05 2.15468e-05 2.15468e-05 2.15468e-05 2.15468e-05 2.15468e-05 2.15468e-05 2.15468e-05 2.15468e-05
        </DataArray>
        <DataArray type="Float32" Name="X_gas^H2O" NumberOfComponents="1" format="ascii">
          0.0197194 0.0197194 0.0197787 0.0197787 0.0197194 0.0197787 0.0197194 0.0197787 0.0197194 0.0197787 0.0197194 0.0197787
          0.0197194 0.0197787 0.0197194 0.0197787 0.0197194 0.0197787 0.0197194 0.0197787 0.0197195 0.0197787 0.019833 0.019833
          0.019833 0.019833 0.019833 0.019833 0.019833 0.019833 0.019833 0.019833 0.019833 0.0198826 0.0198826 0.0198826
          0.0198826 0.0198826 0.0198826 0.0198826 0.0198826 0.0198826 0.0198826 0.0198826 0.0199277 0.0199277 0.0199276 0.0199276
          0.0199276 0.0199276 0.0199276 0.0199276 0.0199276 0.0199276 0.0199276 0.0199565 0.0199565 0.0199565 0.0199565 0.0199565
          0.0199565 0.0199565 0.0199565 0.0199565 0.0199565 0.0199565 0.0199567 0.0199567 0.0199567 0.0199567 0.0199567 0.0199567
          0.0199567 0.0199567 0.0199567 0.0199567 0.0199567 0.0199567 0.0199567 0.0199567 0.0199567 0.0199567 0.0199567 0.0199567
          0.0199567 0.0199567 0.0199567 0.0199567 0.0199567 0.0199567 0.0199567 0.0199567 0.0199567 0.0199567 0.0199567 0.0199567
          0.0199567 0.0199567 0.0199567 0.0199568 0.0199568 0.0199568 0.0199568 0.0199568 0.0199568 0.0199568 0.0199568 0.0199568
          0.0199568 0.0199568 0.0199568 0.0199568 0.0199568 0.0199568 0.0199568 0.0199568 0.0199568 0.0199568 0.0199568 0.0199568
          0.0199568 0.0199568 0.0199568 0.0199568 0.0199568 0.0199568 0.0199568 0.0199568 0.0199568 0.0199568 0.0199568 0.0199568
          0.0199568 0.0199568 0.0199568 0.0199568 0.0199568 0.0199568 0.0199568 0.0199568 0.0199568 0.0199568 0.0199568 0.0199569
          0.0199569 0.0199569 0.0199569 0.0199569 0.0199569 0.0199569 0.0199569 0.0199569 0.0199569 0.0199569 0.0199569 0.0199569
          0.0199569 0.0199569 0.0199569 0.0199569 0.0199569 0.0199569 0.0199569 0.0199569 0.0199569
        </DataArray>
        <DataArray type="Float32" Name="X_gas^Air" NumberOfComponents="1" format="ascii">
          0.980281 0.980281 0.980221 0.980221 0.980281 0.980221 0.980281 0.980221 0.980281 0.980221 0.980281 0.980221
          0.980281 0.980221 0.980281 0.980221 0.980281 0.980221 0.980281 0.980221 0.980281 0.980221 0.980167 0.980167
          0.980167 0.980167 0.980167 0.980167 0.980167 0.980167 0.980167 0.980167 0.980167 0.980117 0.980117 0.980117
          0.980117 0.980117 0.980117 0.980117 0.980117 0.980117 0.980117 0.980117 0.980072 0.980072 0.980072 0.980072
          0.980072 0.980072 0.980072 0.980072 0.980072 0.980072 0.980072 0.980044 0.980044 0.980044 0.980044 0.980044
          0.980044 0.980044 0.980044 0.980044 0.980044 0.980044 0.980043 0.980043 0.980043 0.980043 0.980043 0.980043
          0.980043 0.980043 0.980043 0.980043 0.980043 0.980043 0.980043 0.980043 0.980043 0.980043 0.980043 0.980043
          0.980043 0.980043 0.980043 0.980043 0.980043 0.980043 0.980043 0.980043 0.980043 0.980043 0.980043 0.980043
          0.980043 0.980043 0.980043 0.980043 0.980043 0.980043 0.980043 0.980043 0.980043 0.980043 0.980043 0.980043
          0.980043 0.980043 0.980043 0.980043 0.980043 0.980043 0.980043 0.980043 0.980043 0.980043 0.980043 0.980043
          0.980043 0.980043 0.980043 0.980043 0.980043 0.980043 0.980043 0.980043 0.980043 0.980043 0.980043 0.980043
          0.980043 0.980043 0.980043 0.980043 0.980043 0.980043 0.980043 0.980043 0.980043 0.980043 0.980043 0.980043
          0.980043 0.980043 0.980043 0.980043 0.980043 0.980043 0.980043 0.980043 0.980043 0.980043 0.980043 0.980043
          0.980043 0.980043 0.980043 0.980043 0.980043 0.980043 0.980043 0.980043 0.980043
        </DataArray>
        <DataArray type="Float32" Name="x_liquid^H2O" NumberOfComponents="1" format="ascii">
          0.999986 0.999986 0.999986 0.999986 0.999986 0.999986 0.999986 0.999986 0.999986 0.999986 0.999986 0.999986
          0.999986 0.999986 0.999986 0.999986 0.999986 0.999986 0.999986 0.999986 0.999986 0.999986 0.999987 0.999987
          0.999987 0.999987 0.999987 0.999987 0.999987 0.999987 0.999987 0.999987 0.999987 0.999987 0.999987 0.999987
          0.999987 0.999987 0.999987 0.999987 0.999987 0.999987 0.999987 0.999987 0.999987 0.999987 0.999987 0.999987
          0.999987 0.999987 0.999987 0.999987 0.999987 0.999987 0.999987 0.999987 0.999987 0.999987 0.999987 0.999987
          0.999987 0.999987 0.999987 0.999987 0.999987 0.999987 0.999987 0.999987 0.999987 0.999987 0.999987 0.999987
          0.999987 0.999987 0.999987 0.999987 0.999987 0.999987 0.999987 0.999987 0.999987 0.999987 0.999987 0.999987
          0.999987 0.999987 0.999987 0.999987 0.999987 0.999987 0.999987 0.999987 0.999987 0.999987 0.999987 0.999987
          0.999987 0.999987 0.999987 0.999987 0.999987 0.999987 0.999987 0.999987 0.999987 0.999987 0.999987 0.999987
          0.999987 0.999987 0.999987 0.999987 0.999987 0.999987 0.999987 0.999987 0.999987 0.999987 0.999987 0.999987
          0.999987 0.999987 0.999987 0.999987 0.999987 0.999987 0.999987 0.999987 0.999987 0.999987 0.999987 0.999987
          0.999987 0.999987 0.999987 0.999987 0.999987 0.999987 0.999987 0.999987 0.999987 0.999987 0.999987 0.999987
          0.999987 0.999987 0.999987 0.999987 0.999987 0.999987 0.999987 0.999987 0.999987 0.999987 0.999987 0.999987
          0.999987 0.999987 0.999987 0.999987 0.999987 0.999987 0.999987 0.999987 0.999987
        </DataArray>
        <DataArray type="Float32" Name="x_liquid^Air" NumberOfComponents="1" format="ascii">
          1.35685e-05 1.35685e-05 1.3527e-05 1.3527e-05 1.35685e-05 1.3527e-05 1.35685e-05 1.3527e-05 1.35685e-05 1.3527e-05 1.35685e-05 1.3527e-05
          1.35685e-05 1.3527e-05 1.35685e-05 1.3527e-05 1.35685e-05 1.3527e-05 1.35685e-05 1.3527e-05 1.35685e-05 1.3527e-05 1.34892e-05 1.34892e-05
          1.34892e-05 1.34892e-05 1.34892e-05 1.34892e-05 1.34892e-05 1.34892e-05 1.34892e-05 1.34892e-05 1.34892e-05 1.34549e-05 1.34549e-05 1.34549e-05
          1.34549e-05 1.34549e-05 1.34549e-05 1.34549e-05 1.34549e-05 1.34549e-05 1.34549e-05 1.34549e-05 1.34238e-05 1.34238e-05 1.34238e-05 1.34239e-05
          1.34239e-05 1.34239e-05 1.34239e-05 1.34239e-05 1.34239e-05 1.34239e-05 1.34239e-05 1.34041e-05 1.34041e-05 1.34041e-05 1.34041e-05 1.34041e-05
          1.34041e-05 1.34041e-05 1.34041e-05 1.34041e-05 1.34041e-05 1.34041e-05 1.34039e-05 1.34039e-05 1.34039e-05 1.34039e-05 1.34039e-05 1.34039e-05
          1.34039e-05 1.34039e-05 1.34039e-05 1.34039e-05 1.34039e-05 1.34039e-05 1.34039e-05 1.34039e-05 1.34039e-05 1.34039e-05 1.34039e-05 1.34039e-05
          1.34039e-05 1.34039e-05 1.34039e-05 1.34039e-05 1.34039e-05 1.34039e-05 1.34039e-05 1.34039e-05 1.34039e-05 1.34039e-05 1.34039e-05 1.34039e-05
          1.34039e-05 1.34039e-05 1.34039e-05 1.34039e-05 1.34039e-05 1.34039e-05 1.34039e-05 1.34039e-05 1.34039e-05 1.34039e-05 1.34039e-05 1.34039e-05
          1.34039e-05 1.34039e-05 1.34038e-05 1.34038e-05 1.34038e-05 1.34038e-05 1.34038e-05 1.34038e-05 1.34038e-05 1.34038e-05 1.34038e-05 1.34038e-05
          1.34038e-05 1.34038e-05 1.34038e-05 1.34038e-05 1.34038e-05 1.34038e-05 1.34038e-05 1.34038e-05 1.34038e-05 1.34038e-05 1.34038e-05 1.34038e-05
          1.34038e-05 1.34038e-05 1.34038e-05 1.34038e-05 1.34038e-05 1.34038e-05 1.34038e-05 1.34038e-05 1.34038e-05 1.34038e-05 1.34038e-05 1.34038e-05
          1.34038e-05 1.34038e-05 1.34038e-05 1.34038e-05 1.34038e-05 1.34038e-05 1.34038e-05 1.34038e-05 1.34038e-05 1.34038e-05 1.34038e-05 1.34038e-05
          1.34038e-05 1.34038e-05 1.34038e-05 1.34038e-05 1.34038e-05 1.34038e-05 1.34038e-05 1.34038e-05 1.34038e-05
        </DataArray>
        <DataArray type="Float32" Name="x_gas^H2O" NumberOfComponents="1" format="ascii">
          0.0313243 0.0313243 0.0314174 0.0314174 0.0313243 0.0314174 0.0313243 0.0314174 0.0313243 0.0314174 0.0313243 0.0314174
          0.0313243 0.0314174 0.0313243 0.0314174 0.0313243 0.0314174 0.0313244 0.0314174 0.0313244 0.0314174 0.0315026 0.0315026
          0.0315026 0.0315026 0.0315026 0.0315026 0.0315026 0.0315026 0.0315026 0.0315026 0.0315026 0.0315804 0.0315804 0.0315804
          0.0315805 0.0315805 0.0315805 0.0315805 0.0315805 0.0315805 0.0315805 0.0315805 0.0316513 0.0316512 0.0316512 0.0316511
          0.0316512 0.0316511 0.0316511 0.0316511 0.0316511 0.0316511 0.0316511 0.0316964 0.0316964 0.0316964 0.0316964 0.0316964
          0.0316964 0.0316964 0.0316964 0.0316964 0.0316964 0.0316964 0.0316967 0.0316967 0.0316967 0.0316967 0.0316967 0.0316967
          0.0316967 0.0316967 0.0316967 0.0316967 0.0316967 0.0316968 0.0316968 0.0316968 0.0316968 0.0316968 0.0316968 0.0316968
          0.0316968 0.0316968 0.0316968 0.0316968 0.0316968 0.0316968 0.0316968 0.0316968 0.0316968 0.0316968 0.0316968 0.0316968
          0.0316968 0.0316968 0.0316968 0.0316969 0.0316969 0.0316969 0.0316969 0.0316969 0.0316969 0.0316969 0.0316969 0.0316969
          0.0316969 0.0316969 0.0316969 0.0316969 0.0316969 0.0316969 0.0316969 0.0316969 0.0316969 0.0316969 0.0316969 0.0316969
          0.0316969 0.0316969 0.0316969 0.0316969 0.0316969 0.0316969 0.0316969 0.0316969 0.0316969 0.0316969 0.0316969 0.0316969
          0.031697 0.031697 0.031697 0.031697 0.031697 0.031697 0.031697 0.031697 0.031697 0.031697 0.031697 0.031697
          0.031697 0.031697 0.031697 0.031697 0.031697 0.031697 0.031697 0.031697 0.031697 0.031697 0.031697 0.031697
          0.031697 0.031697 0.031697 0.031697 0.031697 0.031697 0.031697 0.031697 0.031697
        </DataArray>
        <DataArray type="Float32" Name="x_gas^Air" NumberOfComponents="1" format="ascii">
          0.968676 0.968676 0.968583 0.968583 0.968676 0.968583 0.968676 0.968583 0.968676 0.968583 0.968676 0.968583
          0.968676 0.968583 0.968676 0.968583 0.968676 0.968583 0.968676 0.968583 0.968676 0.968583 0.968497 0.968497
          0.968497 0.968497 0.968497 0.968497 0.968497 0.968497 0.968497 0.968497 0.968497 0.96842 0.96842 0.96842
          0.96842 0.968419 0.96842 0.96842 0.968419 0.968419 0.968419 0.96842 0.968349 0.968349 0.968349 0.968349
          0.968349 0.968349 0.968349 0.968349 0.968349 0.968349 0.968349 0.968304 0.968304 0.968304 0.968304 0.968304
          0.968304 0.968304 0.968304 0.968304 0.968304 0.968304 0.968303 0.968303 0.968303 0.968303 0.968303 0.968303
          0.968303 0.968303 0.968303 0.968303 0.968303 0.968303 0.968303 0.968303 0.968303 0.968303 0.968303 0.968303
          0.968303 0.968303 0.968303 0.968303 0.968303 0.968303 0.968303 0.968303 0.968303 0.968303 0.968303 0.968303
          0.968303 0.968303 0.968303 0.968303 0.968303 0.968303 0.968303 0.968303 0.968303 0.968303 0.968303 0.968303
          0.968303 0.968303 0.968303 0.968303 0.968303 0.968303 0.968303 0.968303 0.968303 0.968303 0.968303 0.968303
          0.968303 0.968303 0.968303 0.968303 0.968303 0.968303 0.968303 0.968303 0.968303 0.968303 0.968303 0.968303
          0.968303 0.968303 0.968303 0.968303 0.968303 0.968303 0.968303 0.968303 0.968303 0.968303 0.968303 0.968303
          0.968303 0.968303 0.968303 0.968303 0.968303 0.968303 0.968303 0.968303 0.968303 0.968303 0.968303 0.968303
          0.968303 0.968303 0.968303 0.968303 0.968303 0.968303 0.968303 0.968303 0.968303
        </DataArray>
        <DataArray type="Float32" Name="porosity" NumberOfComponents="1" format="ascii">