<?xml version="1.0"?>
<VTKFile type="UnstructuredGrid" version="0.1" byte_order="LittleEndian">
  <UnstructuredGrid>
    <Piece NumberOfCells="575" NumberOfPoints="624">
      <PointData Scalars="Sn" Vectors="velocityW">
        <DataArray type="Float32" Name="Sn" NumberOfComponents="1" format="ascii">
          0.0100115 0.0100115 0.0100225 0.0100225 0.0100115 0.0100225 0.0100115 0.0100225 0.0100115 0.0100225 0.0100115 0.0100225
          0.0100115 0.0100225 0.0100115 0.0100225 0.0100114 0.0100225 0.0100115 0.0100225 0.0100117 0.0100225 0.0100117 0.0100226
          0.0100117 0.0100226 0.0100117 0.0100226 0.0100113 0.0100227 0.0100112 0.0100218 0.0100112 0.0100223 0.0100117 0.0100224
          0.0100091 0.0100229 0.0100115 0.0100223 0.0100085 0.0100232 0.0100106 0.0100228 0.0100116 0.0100225 0.0100117 0.0100225
          0.0100115 0.0100225 0.0100115 0.0100225 0.0100304 0.0100303 0.0100303 0.0100303 0.0100304 0.0100304 0.0100304 0.0100304
          0.0100304 0.0100304 0.0100304 0.0100306 0.0100304 0.0100307 0.0100304 0.0100315 0.0100303 0.0100303 0.0100307 0.0100304
          0.0100308 0.0100305 0.0100303 0.0100303 0.0100303 0.0100303 0.0100369 0.0100369 0.0100369 0.0100369 0.0100369 0.0100369
          0.0100369 0.0100369 0.0100369 0.0100369 0.0100369 0.0100369 0.010037 0.0100374 0.010037 0.0100368 0.0100369 0.0100369
          0.0100371 0.010037 0.0100371 0.0100369 0.0100369 0.0100369 0.0100369 0.0100369 0.0100427 0.0100427 0.0100427 0.0100427
          0.0100427 0.0100427 0.0100427 0.0100427 0.0100427 0.0100427 0.0100427 0.0100424 0.0100433 0.0100429 0.0100427 0.0100426
          0.0100427 0.0100427 0.0100428 0.0100428 0.0100428 0.0100427 0.0100427 0.0100427 0.0100427 0.0100427 0.0100542 0.0100542
          0.0100542 0.0100542 0.0100542 0.0100542 0.0100542 0.0100541 0.0100541 0.0100542 0.0100542 0.0100542 0.0100534 0.0100538
          0.0100541 0.0100541 0.0100541 0.0100541 0.0100542 0.0100542 0.0100542 0.0100541 0.0100541 0.0100541 0.0100541 0.0100541
          0.0102836 0.0102836 0.0102836 0.0102836 0.0102836 0.0102836 0.0102836 0.0102836 0.0102836 0.0102836 0.0102835 0.0102835
          0.0102834 0.0102834 0.0102834 0.0102835 0.0102835 0.0102835 0.0102835 0.0102835 0.0102835 0.0102835 0.0102835 0.0102835
          0.0102835 0.0102835 0.0111968 0.0111968 0.0111968 0.0111968 0.0111968 0.0111968 0.0111968 0.0111968 0.0111968 0.0111968
          0.0111968 0.0111968 0.0111968 0.0111968 0.0111968 0.0111968 0.0111968 0.0111968 0.0111968 0.0111968 0.0111968 0.0111968
          0.0111968 0.0111968 0.0111968 0.0111968 0.0121397 0.0121397 0.0121397 0.0121397 0.0121397 0.0121397 0.0121397 0.0121397
          0.0121397 0.0121397 0.0121397 0.0121397 0.0121397 0.0121397 0.0121397 0.0121397 0.0121397 0.0121397 0.0121397 0.0121397
          0.0121397 0.0121397 0.0121397 0.0121397 0.0121397 0.0121397 0.0131208 0.0131208 0.0131208 0.0131208 0.0131208 0.0131208
          0.0131208 0.0131208 0.0131208 0.0131208 0.0131208 0.0131208 0.0131208 0.0131208 0.0131208 0.0131208 0.0131208 0.0131208
          0.0131208 0.0131208 0.0131208 0.0131208 0.0131208 0.0131208 0.0131208 0.0131208 0.0141649 0.0141649 0.0141649 0.0141649
          0.0141649 0.0141649 0.0141649 0.0141649 0.0141649 0.0141649 0.0141649 0.0141649 0.0141649 0.0141649 0.0141649 0.0141649
          0.0141649 0.0141649 0.0141649 0.0141649 0.0141649 0.0141649 0.0141649 0.0141649 0.0141649 0.0141649 0.0153173 0.0153173
          0.0153173 0.0153173 0.0153173 0.0153173 0.0153173 0.0153173 0.0153173 0.0153173 0.0153173 0.0153173 0.0153173 0.0153173
          0.0153173 0.0153173 0.0153173 0.0153173 0.0153173 0.0153173 0.0153173 0.0153173 0.0153173 0.0153173 0.0153173 0.0153173
          0.016681 0.016681 0.016681 0.016681 0.016681 0.016681 0.016681 0.016681 0.016681 0.0166809 0.0166809 0.0166809
          0.0166809 0.0166809 0.0166809 0.0166809 0.0166809 0.0166809 0.0166809 0.0166809 0.0166809 0.0166809 0.0166809 0.0166809
          0.0166809 0.0166809 0.0186488 0.0186488 0.0186488 0.0186488 0.0186488 0.0186488 0.0186488 0.0186488 0.0186488 0.0186487
          0.0186487 0.0186487 0.0186487 0.0186487 0.0186487 0.0186486 0.0186486 0.0186486 0.0186486 0.0186486 0.0186486 0.0186486
          0.0186486 0.0186486 0.0186486 0.0186486 0.0245636 0.0245636 0.0245636 0.0245636 0.0245635 0.0245635 0.0245634 0.0245634
          0.0245633 0.0245633 0.0245632 0.0245632 0.0245631 0.0245631 0.024563 0.024563 0.0245629 0.0245629 0.0245628 0.0245628
          0.0245628 0.0245627 0.0245627 0.0245627 0.0245627 0.0245627 0.0337905 0.0337905 0.0337905 0.0337904 0.0337904 0.0337903
          0.0337902 0.0337901 0.03379 0.0337899 0.0337898 0.0337897 0.0337897 0.0337896 0.0337895 0.0337894 0.0337894 0.0337893
          0.0337892 0.0337892 0.0337891 0.0337891 0.033789 0.033789 0.033789 0.033789 0.0459268 0.0459268 0.0459267 0.0459266
          0.0459265 0.0459264 0.0459263 0.0459261 0.045926 0.0459258 0.0459257 0.0459256 0.0459254 0.0459253 0.0459252 0.0459251
          0.045925 0.0459249 0.0459248 0.0459247 0.0459247 0.0459246 0.0459245 0.0459245 0.0459245 0.0459244 0.0609016 0.0609016
          0.0609015 0.0609013 0.0609012 0.060901 0.0609008 0.0609006 0.0609004 0.0609002 0.0609 0.0608999 0.0608997 0.0608995
          0.0608993 0.0608992 0.0608991 0.0608989 0.0608988 0.0608987 0.0608986 0.0608985 0.0608984 0.0608984 0.0608983 0.0608983
          0.0784247 0.0784246 0.0784244 0.0784242 0.078424 0.0784238 0.0784235 0.0784232 0.078423 0.0784227 0.0784225 0.0784222
          0.078422 0.0784218 0.0784216 0.0784214 0.0784212 0.078421 0.0784208 0.0784207 0.0784206 0.0784204 0.0784203 0.0784203
          0.0784202 0.0784202 0.09804 0.0980399 0.0980397 0.0980394 0.0980391 0.0980388 0.0980384 0.0980381 0.0980377 0.0980374
          0.0980371 0.0980368 0.0980365 0.0980362 0.0980359 0.0980357 0.0980355 0.0980352 0.098035 0.0980349 0.0980347 0.0980345
          0.0980344 0.0980343 0.0980342 0.0980342 0.119196 0.119196 0.119195 0.119195 0.119195 0.119194 0.119194 0.119193
          0.119193 0.119193 0.119192 0.119192 0.119191 0.119191 0.119191 0.11919 0.11919 0.11919 0.11919 0.119189
          0.119189 0.119189 0.119189 0.119189 0.119189 0.119189 0.141313 0.141313 0.141313 0.141312 0.141312 0.141311
          0.141311 0.14131 0.14131 0.141309 0.141309 0.141308 0.141308 0.141308 0.141307 0.141307 0.141306 0.141306
          0.141306 0.141306 0.141305 0.141305 0.141305 0.141305 0.141305 0.141305 0.163843 0.163843 0.163842 0.163842
          0.163841 0.16384 0.16384 0.163839 0.163838 0.163838 0.163837 0.163837 0.163836 0.163836 0.163835 0.163835
          0.163835 0.163834 0.163834 0.163834 0.163833 0.163833 0.163833 0.163833 0.163833 0.163832 0.186302 0.186301
          0.186301 0.1863 0.186299 0.186298 0.186298 0.186297 0.186296 0.186296 0.186295 0.186294 0.186294 0.186293
          0.186293 0.186292 0.186292 0.186291 0.186291 0.186291 0.18629 0.18629 0.18629 0.18629 0.18629 0.186289
        </DataArray>
        <DataArray type="Float32" Name="Sw" NumberOfComponents="1" format="ascii">
          0.989988 0.989988 0.989978 0.989978 0.989988 0.989978 0.989988 0.989978 0.989988 0.989978 0.989989 0.989977
          0.989989 0.989977 0.989989 0.989977 0.989989 0.989977 0.989989 0.989977 0.989988 0.989977 0.989988 0.989977
          0.989988 0.989977 0.989988 0.989977 0.989989 0.989977 0.989989 0.989978 0.989989 0.989978 0.989988 0.989978
          0.989991 0.989977 0.989988 0.989978 0.989991 0.989977 0.989989 0.989977 0.989988 0.989978 0.989988 0.989978
          0.989988 0.989978 0.989988 0.989978 0.98997 0.98997 0.98997 0.98997 0.98997 0.98997 0.98997 0.98997
          0.98997 0.98997 0.98997 0.989969 0.98997 0.989969 0.98997 0.989969 0.98997 0.98997 0.989969 0.98997
          0.989969 0.98997 0.98997 0.98997 0.98997 0.98997 0.989963 0.989963 0.989963 0.989963 0.989963 0.989963
          0.989963 0.989963 0.989963 0.989963 0.989963 0.989963 0.989963 0.989963 0.989963 0.989963 0.989963 0.989963
          0.989963 0.989963 0.989963 0.989963 0.989963 0.989963 0.989963 0.989963 0.989957 0.989957 0.989957 0.989957
          0.989957 0.989957 0.989957 0.989957 0.989957 0.989957 0.989957 0.989958 0.989957 0.989957 0.989957 0.989957
          0.989957 0.989957 0.989957 0.989957 0.989957 0.989957 0.989957 0.989957 0.989957 0.989957 0.989946 0.989946
          0.989946 0.989946 0.989946 0.989946 0.989946 0.989946 0.989946 0.989946 0.989946 0.989946 0.989947 0.989946
          0.989946 0.989946 0.989946 0.989946 0.989946 0.989946 0.989946 0.989946 0.989946 0.989946 0.989946 0.989946
          0.989716 0.989716 0.989716 0.989716 0.989716 0.989716 0.989716 0.989716 0.989716 0.989716 0.989716 0.989717
          0.989717 0.989717 0.989717 0.989717 0.989716 0.989716 0.989716 0.989716 0.989716 0.989716 0.989716 0.989716
          0.989716 0.989716 0.988803 0.988803 0.988803 0.988803 0.988803 0.988803 0.988803 0.988803 0.988803 0.988803
          0.988803 0.988803 0.988803 0.988803 0.988803 0.988803 0.988803 0.988803 0.988803 0.988803 0.988803 0.988803
          0.988803 0.988803 0.988803 0.988803 0.98786 0.98786 0.98786 0.98786 0.98786 0.98786 0.98786 0.98786
          0.98786 0.98786 0.98786 0.98786 0.98786 0.98786 0.98786 0.98786 0.98786 0.98786 0.98786 0.98786
          0.98786 0.98786 0.98786 0.98786 0.98786 0.98786 0.986879 0.986879 0.986879 0.986879 0.986879 0.986879
          0.986879 0.986879 0.986879 0.986879 0.986879 0.986879 0.986879 0.986879 0.986879 0.986879 0.986879 0.986879
          0.986879 0.986879 0.986879 0.986879 0.986879 0.986879 0.986879 0.986879 0.985835 0.985835 0.985835 0.985835
          0.985835 0.985835 0.985835 0.985835 0.985835 0.985835 0.985835 0.985835 0.985835 0.985835 0.985835 0.985835
          0.985835 0.985835 0.985835 0.985835 0.985835 0.985835 0.985835 0.985835 0.985835 0.985835 0.984683 0.984683
          0.984683 0.984683 0.984683 0.984683 0.984683 0.984683 0.984683 0.984683 0.984683 0.984683 0.984683 0.984683
          0.984683 0.984683 0.984683 0.984683 0.984683 0.984683 0.984683 0.984683 0.984683 0.984683 0.984683 0.984683
          0.983319 0.983319 0.983319 0.983319 0.983319 0.983319 0.983319 0.983319 0.983319 0.983319 0.983319 0.983319
          0.983319 0.983319 0.983319 0.983319 0.983319 0.983319 0.983319 0.983319 0.983319 0.983319 0.983319 0.983319
          0.983319 0.983319 0.981351 0.981351 0.981351 0.981351 0.981351 0.981351 0.981351 0.981351 0.981351 0.981351
          0.981351 0.981351 0.981351 0.981351 0.981351 0.981351 0.981351 0.981351 0.981351 0.981351 0.981351 0.981351
          0.981351 0.981351 0.981351 0.981351 0.975436 0.975436 0.975436 0.975436 0.975436 0.975437 0.975437 0.975437
          0.975437 0.975437 0.975437 0.975437 0.975437 0.975437 0.975437 0.975437 0.975437 0.975437 0.975437 0.975437
          0.975437 0.975437 0.975437 0.975437 0.975437 0.975437 0.966209 0.966209 0.96621 0.96621 0.96621 0.96621
          0.96621 0.96621 0.96621 0.96621 0.96621 0.96621 0.96621 0.96621 0.96621 0.966211 0.966211 0.966211
          0.966211 0.966211 0.966211 0.966211 0.966211 0.966211 0.966211 0.966211 0.954073 0.954073 0.954073 0.954073
          0.954073 0.954074 0.954074 0.954074 0.954074 0.954074 0.954074 0.954074 0.954075 0.954075 0.954075 0.954075
          0.954075 0.954075 0.954075 0.954075 0.954075 0.954075 0.954075 0.954076 0.954076 0.954076 0.939098 0.939098
          0.939099 0.939099 0.939099 0.939099 0.939099 0.939099 0.9391 0.9391 0.9391 0.9391 0.9391 0.939101
          0.939101 0.939101 0.939101 0.939101 0.939101 0.939101 0.939101 0.939102 0.939102 0.939102 0.939102 0.939102
          0.921575 0.921575 0.921576 0.921576 0.921576 0.921576 0.921576 0.921577 0.921577 0.921577 0.921578 0.921578
          0.921578 0.921578 0.921578 0.921579 0.921579 0.921579 0.921579 0.921579 0.921579 0.92158 0.92158 0.92158
          0.92158 0.92158 0.90196 0.90196 0.90196 0.901961 0.901961 0.901961 0.901962 0.901962 0.901962 0.901963
          0.901963 0.901963 0.901964 0.901964 0.901964 0.901964 0.901965 0.901965 0.901965 0.901965 0.901965 0.901965
          0.901966 0.901966 0.901966 0.901966 0.880804 0.880804 0.880805 0.880805 0.880805 0.880806 0.880806 0.880807
          0.880807 0.880807 0.880808 0.880808 0.880809 0.880809 0.880809 0.88081 0.88081 0.88081 0.88081 0.880811
          0.880811 0.880811 0.880811 0.880811 0.880811 0.880811 0.858687 0.858687 0.858687 0.858688 0.858688 0.858689
          0.858689 0.85869 0.85869 0.858691 0.858691 0.858692 0.858692 0.858692 0.858693 0.858693 0.858694 0.858694
          0.858694 0.858694 0.858695 0.858695 0.858695 0.858695 0.858695 0.858695 0.836157 0.836157 0.836158 0.836158
          0.836159 0.83616 0.83616 0.836161 0.836162 0.836162 0.836163 0.836163 0.836164 0.836164 0.836165 0.836165
          0.836165 0.836166 0.836166 0.836166 0.836167 0.836167 0.836167 0.836167 0.836167 0.836168 0.813698 0.813699
          0.813699 0.8137 0.813701 0.813702 0.813702 0.813703 0.813704 0.813704 0.813705 0.813706 0.813706 0.813707
          0.813707 0.813708 0.813708 0.813709 0.813709 0.813709 0.81371 0.81371 0.81371 0.81371 0.81371 0.813711
        </DataArray>
        <DataArray type="Float32" Name="pn" NumberOfComponents="1" format="ascii">
          101156 101156 100908 100908 101156 100908 101156 100908 101156 100908 101156 100908
          101156 100908 101156 100908 101156 100908 101156 100908 101156 100908 101156 100908
          101156 100908 101156 100908 101156 100908 101156 100908 101156 100908 101156 100908
          101156 100908 101156 100908 101156 100908 101156 100908 101156 100908 101156 100908
          101156 100908 101156 100908 100682 100682 100682 100682 100682 100682 100682 100682
          100682 100682 100682 100682 100682 100682 100682 100682 100682 100682 100682 100682
          100682 100682 100682 100682 100682 100682 100476 100476 100476 100476 100476 100476
          100476 100476 100476 100476 100476 100476 100476 100476 100476 100476 100476 100476
          100476 100476 100476 100476 100476 100476 100476 100476 100289 100289 100289 100289
          100289 100289 100289 100289 100289 100289 100289 100289 100289 100289 100289 100289
          100289 100289 100289 100289 100289 100289 100289 100289 100289 100289 100120 100120
          100120 100120 100120 100120 100120 100120 100120 100120 100120 100120 100120 100120
          100120 100120 100120 100120 100120 100120 100120 100120 100120 100120 100120 100120
          100002 100002 100002 100002 100002 100002 100002 100002 100002 100002 100002 100002
          100002 100002 100002 100002 100002 100002 100002 100002 100002 100002 100002 100002
          100002 100002 100001 100001 100001 100001 100001 100001 100001 100001 100001 100001
          100001 100001 100001 100001 100001 100001 100001 100001 100001 100001 100001 100001
          100001 100001 100001 100001 100001 100001 100001 100001 100001 100001 100001 100001
          100001 100001 100001 100001 100001 100001 100001 100001 100001 100001 100001 100001
          100001 100001 100001 100001 100001 100001 100001 100001 100001 100001 100001 100001
          100001 100001 100001 100001 100001 100001 100001 100001 100001 100001 100001 100001
          100001 100001 100001 100001 100001 100001 100001 100001 100001 100001 100001 100001
          100001 100001 100001 100001 100001 100001 100001 100001 100001 100001 100001 100001
          100001 100001 100001 100001 100001 100001 100001 100001 100001 100001 100001 100001
          100001 100001 100001 100001 100001 100001 100001 100001 100001 100001 100001 100001
          100001 100001 100001 100001 100001 100001 100001 100001 100001 100001 100001 100001
          100001 100001 100001 100001 100001 100001 100001 100001 100001 100001 100001 100001
          100001 100001 100001 100001 100001 100001 100001 100001 100001 100001 100001 100001
          100001 100001 100001 100001 100001 100001 100001 100001 100001 100001 100001 100001
          100001 100001 100001 100001 100001 100001 100001 100001 100001 100001 100001 100001
          100001 100001 100001 100001 100000 100000 100000 100000 100000 100000 100000 100000
          100000 100000 100000 100000 100000 100000 100000 100000 100000 100000 100000 100000
          100000 100000 100000 100000 100000 100000 100000 100000 100000 100000 100000 100000
          100000 100000 100000 100000 100000 100000 100000 100000 100000 100000 100000 100000
          100000 100000 100000 100000 100000 100000 100000 100000 100000 100000 100000 100000
          100000 100000 100000 100000 100000 100000 100000 100000 100000 100000 100000 100000
          100000 100000 100000 100000 100000 100000 100000 100000 100000 100000 100000 100000
          100000 100000 100000 100000 100000 100000 100000 100000 100000 100000 100000 100000
          100000 100000 100000 100000 100000 100000 100000 100000 100000 100000 100000 100000
          100000 100000 100000 100000 100000 100000 100000 100000 100000 100000 100000 100000
          100000 100000 100000 100000 100000 100000 100000 100000 100000 100000 100000 100000
          100000 100000 100000 100000 100000 100000 100000 100000 100000 100000 100000 100000
          100000 100000 100000 100000 100000 100000 100000 100000 100000 100000 100000 100000
          100000 100000 100000 100000 100000 100000 100000 100000 100000 100000 100000 100000
          100000 100000 100000 100000 100000 100000 100000 100000 100000 100000 100000 100000
          100000 100000 100000 100000 100000 100000 100000 100000 100000 100000 100000 100000
          100000 100000 100000 100000 100000 100000 100000 100000 100000 100000 100000 100000
          100000 100000 100000 100000 100000 100000 100000 100000 100000 100000 100000 100000
          100000 100000 100000 100000 100000 100000 100000 100000 100000 100000 100000 100000
          100000 100000 100000 100000 100000 100000 100000 100000 100000 100000 100000 100000
          100000 100000 100000 100000 100000 100000 100000 100000 100000 100000 100000 100000
          100000 100000 100000 100000 100000 100000 100000 100000 100000 100000 100000 100000
        </DataArray>
        <DataArray type="Float32" Name="pw" NumberOfComponents="1" format="ascii">
          101154 101154 100904 100904 101154 100904 101154 100904 101154 100904 101154 100904
          101154 100904 101154 100904 101154 100904 101154 100904 101154 100904 101154 100904
          101154 100904 101154 100904 101154 100904 101154 100904 101154 100904 101154 100904
          101154 100904 101154 100904 101154 100904 101154 100904 101154 100904 101154 100904
          101154 100904 101154 100904 100677 100677 100677 100677 100677 100677 100677 100677
          100677 100677 100677 100677 100677 100677 100677 100677 100677 100677 100677 100677
          100677 100677 100677 100677 100677 100677 100470 100470 100470 100470 100470 100470
          100470 100470 100470 100470 100470 100470 100470 100470 100470 100470 100470 100470
          100470 100470 100470 100470 100470 100470 100470 100470 100282 100282 100282 100282
          100282 100282 100282 100282 100282 100282 100282 100282 100282 100282 100282 100282
          100282 100282 100282 100282 100282 100282 100282 100282 100282 100282 100111 100111
          100111 100111 100111 100111 100111 100111 100111 100111 100111 100111 100111 100111
          100111 100111 100111 100111 100111 100111 100111 100111 100111 100111 100111 100111
          99955.6 99955.6 99955.6 99955.6 99955.6 99955.6 99955.6 99955.6 99955.6 99955.6 99955.6 99955.6
          99955.6 99955.6 99955.6 99955.6 99955.6 99955.6 99955.6 99955.6 99955.6 99955.6 99955.6 99955.6
          99955.6 99955.6 99814.3 99814.3 99814.3 99814.3 99814.3 99814.3 99814.3 99814.3 99814.3 99814.3
          99814.3 99814.3 99814.3 99814.4 99814.4 99814.4 99814.4 99814.4 99814.4 99814.4 99814.4 99814.4
          99814.4 99814.4 99814.4 99814.4 99685.9 99685.9 99685.9 99685.9 99685.9 99685.9 99685.9 99685.9
          99685.9 99685.9 99685.9 99685.9 99685.9 99685.9 99685.9 99685.9 99685.9 99685.9 99685.9 99685.9
          99685.9 99685.9 99685.9 99685.9 99685.9 99685.9 99569.2 99569.2 99569.2 99569.2 99569.2 99569.2
          99569.2 99569.2 99569.2 99569.2 99569.2 99569.2 99569.2 99569.2 99569.2 99569.2 99569.2 99569.2
          99569.2 99569.2 99569.2 99569.2 99569.2 99569.2 99569.2 99569.2 99463.1 99463.1 99463.1 99463.1
          99463.1 99463.1 99463.1 99463.1 99463.1 99463.1 99463.1 99463.1 99463.1 99463.1 99463.1 99463.1
          99463.1 99463.1 99463.1 99463.1 99463.1 99463.1 99463.1 99463.1 99463.1 99463.1 99366.6 99366.6
          99366.6 99366.6 99366.6 99366.6 99366.6 99366.6 99366.6 99366.6 99366.6 99366.6 99366.6 99366.6
          99366.6 99366.6 99366.6 99366.6 99366.6 99366.6 99366.6 99366.6 99366.6 99366.6 99366.6 99366.6
          99278.9 99278.9 99278.9 99278.9 99278.9 99278.9 99278.9 99278.9 99278.9 99278.9 99278.9 99278.9
          99278.9 99278.9 99278.9 99278.9 99278.9 99278.9 99278.9 99278.9 99278.9 99278.9 99278.9 99278.9
          99278.9 99278.9 99199.1 99199.1 99199.1 99199.1 99199.1 99199.1 99199.1 99199.1 99199.1 99199.1
          99199.1 99199.1 99199.1 99199.1 99199.1 99199.1 99199.1 99199.1 99199.1 99199.1 99199.1 99199.1
          99199.1 99199.1 99199.1 99199.1 99126.6 99126.6 99126.7 99126.7 99126.7 99126.7 99126.7 99126.7
          99126.7 99126.7 99126.7 99126.7 99126.7 99126.7 99126.7 99126.7 99126.7 99126.7 99126.7 99126.7
          99126.7 99126.7 99126.7 99126.7 99126.7 99126.7 99060.8 99060.8 99060.8 99060.8 99060.8 99060.8
          99060.8 99060.8 99060.8 99060.8 99060.8 99060.8 99060.8 99060.8 99060.8 99060.8 99060.8 99060.8
          99060.8 99060.8 99060.8 99060.8 99060.8 99060.8 99060.8 99060.8 99000.9 99000.9 99000.9 99000.9
          99000.9 99000.9 99000.9 99000.9 99000.9 99000.9 99000.9 99000.9 99000.9 99000.9 99000.9 99000.9
          99000.9 99000.9 99000.9 99000.9 99000.9 99000.9 99000.9 99000.9 99000.9 99000.9 98946.4 98946.4
          98946.4 98946.4 98946.4 98946.4 98946.4 98946.4 98946.4 98946.4 98946.4 98946.4 98946.4 98946.4
          98946.4 98946.4 98946.4 98946.4 98946.4 98946.4 98946.4 98946.4 98946.4 98946.4 98946.4 98946.4
          98896.9 98896.9 98896.9 98896.9 98896.9 98896.9 98896.9 98896.9 98896.9 98896.9 98896.9 98896.9
          98896.9 98896.9 98896.9 98896.9 98896.9 98896.9 98896.9 98896.9 98896.9 98896.9 98896.9 98896.9
          98896.9 98896.9 98851.9 98851.9 98851.9 98851.9 98851.9 98851.9 98851.9 98851.9 98851.9 98851.9
          98851.9 98851.9 98851.9 98851.9 98851.9 98851.9 98851.9 98851.9 98851.9 98851.9 98851.9 98851.9
          98851.9 98851.9 98851.9 98851.9 98811 98811 98811 98811 98811 98811 98811 98811
          98811 98811 98811 98811 98811 98811 98811 98811 98811 98811 98811 98811
          98811 98811 98811 98811 98811 98811 98773.8 98773.8 98773.8 98773.8 98773.8 98773.8
          98773.8 98773.8 98773.8 98773.8 98773.8 98773.8 98773.8 98773.8 98773.8 98773.8 98773.8 98773.8
          98773.8 98773.8 98773.8 98773.8 98773.8 98773.8 98773.8 98773.8 98739.9 98739.9 98739.9 98739.9
          98739.9 98739.9 98739.9 98739.9 98739.9 98739.9 98739.9 98739.9 98739.9 98739.9 98739.9 98739.9
          98739.9 98739.9 98739.9 98739.9 98739.9 98739.9 98739.9 98739.9 98739.9 98739.9 98709.2 98709.2
          98709.2 98709.2 98709.2 98709.2 98709.2 98709.2 98709.2 98709.2 98709.2 98709.2 98709.2 98709.2
          98709.2 98709.2 98709.2 98709.2 98709.2 98709.2 98709.2 98709.2 98709.2 98709.2 98709.2 98709.2
        </DataArray>
        <DataArray type="Float32" Name="pc" NumberOfComponents="1" format="ascii">
          1.93174 1.93152 3.76102 3.76083 1.93113 3.76049 1.9307 3.7605 1.92985 3.76142 1.92748 3.76488
          1.9282 3.76403 1.92455 3.76694 1.91336 3.76896 1.91834 3.77253 1.95583 3.76754 1.95433 3.77884
          1.95621 3.78709 1.96334 3.78181 1.89603 3.79528 1.88175 3.64743 1.87147 3.72309 1.95465 3.74278
          1.52144 3.83275 1.93253 3.73913 1.42856 3.87453 1.76833 3.82135 1.94941 3.75797 1.95056 3.7576
          1.93094 3.75888 1.93069 3.75892 5.07552 5.07533 5.075 5.07514 5.07638 5.07983 5.0775 5.07759
          5.07758 5.0798 5.08334 5.11247 5.08935 5.12546 5.08405 5.26232 5.06987 5.06711 5.14148 5.08736
          5.14529 5.09222 5.06937 5.0687 5.07187 5.07207 6.1681 6.16792 6.16762 6.16779 6.16908 6.17205
          6.16923 6.16842 6.16802 6.1696 6.17499 6.17499 6.18443 6.2479 6.18107 6.14369 6.16747 6.16391
          6.20337 6.18179 6.20323 6.17068 6.16123 6.16075 6.16303 6.16323 7.13697 7.13681 7.13652 7.13668
          7.13789 7.14021 7.13752 7.13639 7.13586 7.13709 7.14135 7.08291 7.24142 7.16055 7.13442 7.12359
          7.13708 7.13431 7.15287 7.14475 7.15293 7.13434 7.12945 7.12909 7.13044 7.13059 9.04378 9.0436
          9.04329 9.04345 9.04458 9.04638 9.04384 9.04253 9.04185 9.04313 9.04655 9.04998 8.91163 8.97659
          9.02726 9.03015 9.04269 9.0405 9.04895 9.04549 9.04873 9.03774 9.03464 9.03429 9.03507 9.03518
          46.724 46.7239 46.7239 46.724 46.7241 46.7239 46.7233 46.7225 46.7219 46.7212 46.7193 46.7098
          46.7017 46.6933 46.699 46.7078 46.7132 46.7168 46.7181 46.7185 46.7173 46.7154 46.7136 46.7127
          46.7125 46.7124 186.745 186.745 186.745 186.745 186.745 186.745 186.745 186.745 186.744 186.744
          186.743 186.743 186.743 186.743 186.743 186.742 186.742 186.742 186.742 186.742 186.741 186.741
          186.741 186.741 186.741 186.741 315.051 315.051 315.05 315.05 315.05 315.05 315.05 315.049
          315.049 315.049 315.049 315.048 315.048 315.048 315.048 315.047 315.047 315.047 315.047 315.046
          315.046 315.046 315.046 315.046 315.046 315.046 431.696 431.696 431.696 431.696 431.696 431.696
          431.695 431.695 431.695 431.694 431.694 431.694 431.694 431.693 431.693 431.693 431.692 431.692
          431.692 431.692 431.691 431.691 431.691 431.691 431.691 431.691 537.734 537.734 537.734 537.734
          537.734 537.734 537.733 537.733 537.733 537.732 537.732 537.732 537.731 537.731 537.731 537.73
          537.73 537.73 537.729 537.729 537.729 537.729 537.729 537.729 537.728 537.728 634.128 634.128
          634.128 634.128 634.128 634.127 634.127 634.127 634.126 634.126 634.126 634.125 634.125 634.124
          634.124 634.124 634.123 634.123 634.123 634.123 634.122 634.122 634.122 634.122 634.122 634.122
          721.755 721.755 721.755 721.755 721.755 721.754 721.754 721.754 721.753 721.753 721.752 721.752
          721.752 721.751 721.751 721.75 721.75 721.75 721.749 721.749 721.749 721.749 721.748 721.748
          721.748 721.748 801.412 801.412 801.412 801.412 801.412 801.411 801.411 801.41 801.41 801.409
          801.409 801.409 801.408 801.408 801.407 801.407 801.406 801.406 801.406 801.406 801.405 801.405
          801.405 801.405 801.405 801.405 873.822 873.822 873.821 873.821 873.821 873.82 873.82 873.819
          873.819 873.818 873.818 873.817 873.817 873.816 873.816 873.816 873.815 873.815 873.814 873.814
          873.814 873.814 873.813 873.813 873.813 873.813 939.646 939.646 939.646 939.646 939.645 939.645
          939.644 939.644 939.643 939.643 939.642 939.642 939.641 939.641 939.64 939.64 939.639 939.639
          939.639 939.638 939.638 939.638 939.638 939.637 939.637 939.637 999.486 999.486 999.486 999.485
          999.485 999.484 999.484 999.483 999.483 999.482 999.482 999.481 999.481 999.48 999.48 999.479
          999.479 999.478 999.478 999.478 999.477 999.477 999.477 999.477 999.476 999.476 1053.89 1053.89
          1053.89 1053.88 1053.88 1053.88 1053.88 1053.88 1053.88 1053.88 1053.88 1053.88 1053.88 1053.88
          1053.88 1053.88 1053.88 1053.88 1053.88 1053.88 1053.88 1053.88 1053.88 1053.88 1053.88 1053.88
          1103.34 1103.34 1103.34 1103.34 1103.34 1103.34 1103.34 1103.34 1103.34 1103.33 1103.33 1103.33
          1103.33 1103.33 1103.33 1103.33 1103.33 1103.33 1103.33 1103.33 1103.33 1103.33 1103.33 1103.33
          1103.33 1103.33 1148.3 1148.3 1148.3 1148.3 1148.3 1148.3 1148.29 1148.29 1148.29 1148.29
          1148.29 1148.29 1148.29 1148.29 1148.29 1148.29 1148.29 1148.29 1148.29 1148.29 1148.29 1148.29
          1148.29 1148.29 1148.29 1148.29 1189.17 1189.17 1189.17 1189.17 1189.17 1189.17 1189.17 1189.16
          1189.16 1189.16 1189.16 1189.16 1189.16 1189.16 1189.16 1189.16 1189.16 1189.16 1189.16 1189.16
          1189.16 1189.16 1189.16 1189.16 1189.16 1189.16 1226.32 1226.32 1226.32 1226.32 1226.32 1226.32
          1226.32 1226.32 1226.32 1226.32 1226.32 1226.32 1226.32 1226.32 1226.31 1226.31 1226.31 1226.31
          1226.31 1226.31 1226.31 1226.31 1226.31 1226.31 1226.31 1226.31 1260.1 1260.1 1260.1 1260.1
          1260.1 1260.1 1260.1 1260.1 1260.1 1260.1 1260.09 1260.09 1260.09 1260.09 1260.09 1260.09
          1260.09 1260.09 1260.09 1260.09 1260.09 1260.09 1260.09 1260.09 1260.09 1260.09 1290.81 1290.81
          1290.81 1290.81 1290.81 1290.81 1290.81 1290.8 1290.8 1290.8 1290.8 1290.8 1290.8 1290.8
          1290.8 1290.8 1290.8 1290.8 1290.8 1290.8 1290.8 1290.8 1290.8 1290.79 1290.79 1290.79
        </DataArray>
        <DataArray type="Float32" Name="rhoW" NumberOfComponents="1" format="ascii">
          997.048 997.048 997.048 997.048 997.048 997.048 997.048 997.048 997.048 997.048 997.048 997.048
          997.048 997.048 997.048 997.048 997.048 997.048 997.048 997.048 997.048 997.048 997.048 997.048
          997.048 997.048 997.048 997.048 997.048 997.048 997.048 997.048 997.048 997.048 997.048 997.048
          997.048 997.048 997.048 997.048 997.048 997.048 997.048 997.048 997.048 997.048 997.048 997.048
          997.048 997.048 997.048 997.048 997.048 997.048 997.048 997.048 997.048 997.048 997.048 997.048
          997.048 997.048 997.048 997.048 997.048 997.048 997.048 997.048 997.048 997.048 997.048 997.048
          997.048 997.048 997.048 997.048 997.048 997.048 997.048 997.048 997.048 997.048 997.048 997.048
          997.048 997.048 997.048 997.048 997.048 997.048 997.048 997.048 997.048 997.048 997.048 997.048