<?xml version="1.0"?>
<VTKFile type="UnstructuredGrid" version="0.1" byte_order="LittleEndian">
  <UnstructuredGrid>
    <Piece NumberOfCells="120" NumberOfPoints="143">
      <PointData Scalars="Sn" Vectors="velocityW">
        <DataArray type="Float32" Name="Sn" NumberOfComponents="1" format="ascii">
          0.010017 0.010017 0.0100341 0.0100341 0.010017 0.0100341 0.0100171 0.010034 0.010017 0.010034 0.0100171 0.010034
          0.0100171 0.0100339 0.0100168 0.010034 0.010017 0.010034 0.010017 0.010034 0.010017 0.010034 0.0100471 0.0100471
          0.0100471 0.010047 0.0100471 0.0100471 0.0100474 0.0100471 0.010047 0.010047 0.010047 0.0101575 0.0101575 0.0101575
          0.0101575 0.0101575 0.0101574 0.0101572 0.0101575 0.0101574 0.0101574 0.0101574 0.0117335 0.0117335 0.0117335 0.0117335
          0.0117335 0.0117335 0.0117335 0.0117335 0.0117335 0.0117335 0.0117335 0.0136025 0.0136025 0.0136025 0.0136025 0.0136025
          0.0136025 0.0136025 0.0136025 0.0136025 0.0136025 0.0136025 0.0157827 0.0157827 0.0157827 0.0157827 0.0157827 0.0157827
          0.0157827 0.0157827 0.0157827 0.0157826 0.0157826 0.0195444 0.0195444 0.0195444 0.0195443 0.0195443 0.0195443 0.0195442
          0.0195442 0.0195442 0.0195442 0.0195441 0.0353712 0.0353711 0.0353711 0.035371 0.0353709 0.0353708 0.0353707 0.0353706
          0.0353705 0.0353704 0.0353704 0.0613567 0.0613566 0.0613564 0.0613563 0.0613561 0.0613559 0.0613557 0.0613555 0.0613554
          0.0613552 0.0613551 0.0960918 0.0960916 0.0960914 0.0960911 0.0960908 0.0960905 0.0960902 0.0960899 0.0960897 0.0960895
          0.0960893 0.136264 0.136263 0.136263 0.136262 0.136262 0.136262 0.136261 0.136261 0.13626 0.13626 0.13626
          0.178147 0.178146 0.178146 0.178145 0.178145 0.178144 0.178144 0.178143 0.178143 0.178142 0.178142
        </DataArray>
        <DataArray type="Float32" Name="Sw" NumberOfComponents="1" format="ascii">
          0.989983 0.989983 0.989966 0.989966 0.989983 0.989966 0.989983 0.989966 0.989983 0.989966 0.989983 0.989966
          0.989983 0.989966 0.989983 0.989966 0.989983 0.989966 0.989983 0.989966 0.989983 0.989966 0.989953 0.989953
          0.989953 0.989953 0.989953 0.989953 0.989953 0.989953 0.989953 0.989953 0.989953 0.989843 0.989843 0.989843
          0.989843 0.989843 0.989843 0.989843 0.989842 0.989843 0.989843 0.989843 0.988267 0.988267 0.988267 0.988267
          0.988267 0.988267 0.988267 0.988267 0.988267 0.988267 0.988267 0.986398 0.986398 0.986398 0.986398 0.986398
          0.986398 0.986398 0.986398 0.986398 0.986398 0.986398 0.984217 0.984217 0.984217 0.984217 0.984217 0.984217
          0.984217 0.984217 0.984217 0.984217 0.984217 0.980456 0.980456 0.980456 0.980456 0.980456 0.980456 0.980456
          0.980456 0.980456 0.980456 0.980456 0.964629 0.964629 0.964629 0.964629 0.964629 0.964629 0.964629 0.964629
          0.964629 0.96463 0.96463 0.938643 0.938643 0.938644 0.938644 0.938644 0.938644 0.938644 0.938644 0.938645
          0.938645 0.938645 0.903908 0.903908 0.903909 0.903909 0.903909 0.90391 0.90391 0.90391 0.90391 0.903911
          0.903911 0.863737 0.863737 0.863737 0.863738 0.863738 0.863738 0.863739 0.863739 0.86374 0.86374 0.86374
          0.821853 0.821854 0.821854 0.821855 0.821855 0.821856 0.821856 0.821857 0.821857 0.821858 0.821858
        </DataArray>
        <DataArray type="Float32" Name="pn" NumberOfComponents="1" format="ascii">
          101168 101168 100712 100712 101168 100712 101168 100712 101168 100712 101168 100712
          101168 100712 101168 100712 101168 100712 101168 100712 101168 100712 100332 100332
          100332 100332 100332 100332 100332 100332 100332 100332 100332 100031 100031 100031
          100031 100031 100031 100031 100031 100031 100031 100031 100001 100001 100001 100001
          100001 100001 100001 100001 100001 100001 100001 100001 100001 100001 100001 100001
          100001 100001 100001 100001 100001 100001 100001 100001 100001 100001 100001 100001
          100001 100001 100001 100001 100001 100001 100001 100001 100001 100001 100001 100001
          100001 100001 100001 100001 100000 100000 100000 100000 100000 100000 100000 100000
          100000 100000 100000 100000 100000 100000 100000 100000 100000 100000 100000 100000
          100000 100000 100000 100000 100000 100000 100000 100000 100000 100000 100000 100000
          100000 100000 100000 100000 100000 100000 100000 100000 100000 100000 100000 100000
          100000 100000 100000 100000 100000 100000 100000 100000 100000 100000 100000
        </DataArray>
        <DataArray type="Float32" Name="pw" NumberOfComponents="1" format="ascii">
          101165 101165 100706 100706 101165 100706 101165 100706 101165 100706 101165 100706
          101165 100706 101165 100706 101165 100706 101165 100706 101165 100706 100324 100324
          100324 100324 100324 100324 100324 100324 100324 100324 100324 100005 100005 100005
          100005 100005 100005 100005 100005 100005 100005 100005 99739.4 99739.4 99739.4 99739.4
          99739.4 99739.4 99739.4 99739.4 99739.4 99739.4 99739.4 99518 99518 99518 99518 99518
          99518 99518 99518 99518 99518 99518 99333.5 99333.5 99333.5 99333.5 99333.5 99333.5
          99333.5 99333.5 99333.5 99333.5 99333.5 99179.8 99179.8 99179.8 99179.8 99179.8 99179.8 99179.8
          99179.8 99179.8 99179.8 99179.8 99051.7 99051.7 99051.7 99051.7 99051.7 99051.7 99051.7 99051.7
          99051.7 99051.7 99051.7 98944.9 98944.9 98944.9 98944.9 98944.9 98944.9 98944.9 98944.9 98944.9
          98944.9 98944.9 98856 98856 98856 98856 98856 98856 98856 98856 98856 98856
          98856 98781.8 98781.8 98781.8 98781.8 98781.8 98781.8 98781.8 98781.8 98781.8 98781.8 98781.8
          98720.1 98720.1 98720.1 98720.1 98720.1 98720.1 98720.1 98720.1 98720.1 98720.1 98720.1
        </DataArray>
        <DataArray type="Float32" Name="pc" NumberOfComponents="1" format="ascii">
          2.84985 2.84903 5.6935 5.69363 2.84784 5.69417 2.85589 5.69132 2.85282 5.69217 2.85483 5.69243
          2.8658 5.67603 2.81387 5.68728 2.85175 5.69174 2.85183 5.69156 2.85181 5.69153 7.86232 7.86218
          7.86156 7.85901 7.86919 7.86574 7.91585 7.87024 7.85971 7.85922 7.85917 26.1381 26.1377 26.1363
          26.1366 26.1355 26.1295 26.0946 26.143 26.1347 26.1331 26.1329 261.759 261.758 261.758 261.758
          261.757 261.757 261.759 261.755 261.756 261.756 261.756 482.884 482.884 482.883 482.883 482.883
          482.882 482.882 482.881 482.881 482.881 482.881 667.167 667.167 667.166 667.166 667.165 667.165
          667.165 667.164 667.164 667.163 667.163 820.731 820.73 820.73 820.73 820.729 820.729 820.728
          820.728 820.727 820.727 820.727 948.693 948.693 948.692 948.692 948.691 948.691 948.69 948.69
          948.689 948.689 948.688 1055.33 1055.33 1055.33 1055.33 1055.33 1055.32 1055.32 1055.32 1055.32
          1055.32 1055.32 1144.19 1144.19 1144.19 1144.19 1144.19 1144.19 1144.18 1144.18 1144.18 1144.18
          1144.18 1218.24 1218.24 1218.24 1218.24 1218.24 1218.24 1218.24 1218.24 1218.23 1218.23 1218.23
          1279.95 1279.95 1279.95 1279.95 1279.95 1279.95 1279.95 1279.95 1279.94 1279.94 1279.94
        </DataArray>
        <DataArray type="Float32" Name="rhoW" NumberOfComponents="1" format="ascii">
          997.048 997.048 997.048 997.048 997.048 997.048 997.048 997.048 997.048 997.048 997.048 997.048
          997.048 997.048 997.048 997.048 997.048 997.048 997.048 997.048 997.048 997.048 997.048 997.048
          997.048 997.048 997.048 997.048 997.048 997.048 997.048 997.048 997.048 997.048 997.048 997.048
          997.048 997.048 997.048 997.048 997.048 997.048 997.048 997.048 997.048 997.048 997.048 997.048
          997.048 997.048 997.048 997.048 997.048 997.048 997.048 997.047 997.047 997.047 997.047 997.047
          997.047 997.047 997.047 997.047 997.047 997.047 997.047 997.047 997.047 997.047 997.047 997.047
          997.047 997.047 997.047 997.047 997.047 997.047 997.047 997.047 997.047 997.047 997.047 997.047
          997.047 997.047 997.047 997.047 997.047 997.047 997.047 997.047 997.047 997.047 997.047 997.047
          997.047 997.047 997.047 997.047 997.047 997.047 997.047 997.047 997.047 997.047 997.047 997.047
          997.047 997.047 997.047 997.047 997.047 997.047 997.047 997.047 997.047 997.047 997.047 997.047
          997.047 997.047 997.047 997.047 997.047 997.047 997.047 997.047 997.047 997.047 997.047 997.047
          997.047 997.047 997.047 997.047 997.047 997.047 997.047 997.047 997.047 997.047 997.047
        </DataArray>
        <DataArray type="Float32" Name="rhoN" NumberOfComponents="1" format="ascii">
          1.16788 1.16788 1.16255 1.16255 1.16788 1.16256 1.16788 1.16255 1.16788 1.16255 1.16788 1.16255
          1.16788 1.16255 1.16788 1.16255 1.16788 1.16255 1.16788 1.16255 1.16788 1.16255 1.15811 1.15811
          1.15811 1.15811 1.15811 1.15811 1.15811 1.15811 1.15811 1.15811 1.15811 1.1546 1.1546 1.1546
          1.1546 1.1546 1.1546 1.1546 1.1546 1.1546 1.1546 1.1546 1.15425 1.15425 1.15425 1.15425
          1.15425 1.15425 1.15425 1.15425 1.15425 1.15425 1.15425 1.15425 1.15425 1.15425 1.15425 1.15425
          1.15425 1.15425 1.15425 1.15425 1.15425 1.15425 1.15425 1.15425 1.15425 1.15425 1.15425 1.15425
          1.15425 1.15425 1.15425 1.15425 1.15425 1.15424 1.15424 1.15424 1.15424 1.15424 1.15424 1.15424
          1.15424 1.15424 1.15424 1.15424 1.15424 1.15424 1.15424 1.15424 1.15424 1.15424 1.15424 1.15424
          1.15424 1.15424 1.15424 1.15424 1.15424 1.15424 1.15424 1.15424 1.15424 1.15424 1.15424 1.15424
          1.15424 1.15424 1.15424 1.15424 1.15424 1.15424 1.15424 1.15424 1.15424 1.15424 1.15424 1.15424
          1.15424 1.15424 1.15424 1.15424 1.15424 1.15424 1.15424 1.15424 1.15424 1.15424 1.15424 1.15424
          1.15424 1.15424 1.15424 1.15424 1.15424 1.15424 1.15424 1.15424 1.15424 1.15424 1.15424
        </DataArray>
        <DataArray type="Float32" Name="mobW" NumberOfComponents="1" format="ascii">
          1123.57 1123.57 1123.57 1123.57 1123.57 1123.57 1123.57 1123.57 1123.57 1123.57 1123.57 1123.57
          1123.57 1123.57 1123.57 1123.57 1123.57 1123.57 1123.57 1123.57 1123.57 1123.57 1123.57 1123.57
          1123.57 1123.57 1123.57 1123.57 1123.57 1123.57 1123.57 1123.57 1123.57 1123.57 1123.57 1123.57
          1123.57 1123.57 1123.57 1123.57 1123.57 1123.57 1123.57 1123.57 1123.31 1123.31 1123.31 1123.31
          1123.31 1123.31 1123.31 1123.31 1123.31 1123.31 1123.31 1122.49 1122.49 1122.49 1122.49 1122.49
          1122.49 1122.49 1122.49 1122.49 1122.49 1122.49 1120.82 1120.82 1120.82 1120.82 1120.82 1120.82
          1120.82 1120.82 1120.82 1120.82 1120.82 1116.25 1116.25 1116.25 1116.25 1116.25 1116.25 1116.25
          1116.25 1116.25 1116.25 1116.25 1076.72 1076.72 1076.72 1076.72 1076.72 1076.72 1076.72 1076.73
          1076.73 1076.73 1076.73 964.222 964.222 964.223 964.224 964.225 964.226 964.227 964.227 964.228
          964.229 964.229 798.22 798.221 798.222 798.223 798.224 798.225 798.227 798.228 798.229 798.23
          798.23 679.046 679.047 679.048 679.049 679.05 679.051 679.052 679.053 679.054 679.055 679.055
          577.276 577.278 577.279 577.28 577.281 577.282 577.284 577.285 577.286 577.286 577.287
        </DataArray>
        <DataArray type="Float32" Name="mobN" NumberOfComponents="1" format="ascii">
          1.32961e-05 1.32883e-05 5.48007e-05 5.48033e-05 1.32769e-05 5.48139e-05 1.33538e-05 5.47577e-05 1.33244e-05 5.47744e-05 1.33437e-05 5.47797e-05
          1.34488e-05 5.44569e-05 1.2955e-05 5.46781e-05 1.33142e-05 5.4766e-05 1.33151e-05 5.47625e-05 1.33148e-05 5.47619e-05 0.000106144 0.00010614
          0.000106123 0.000106052 0.000106334 0.000106239 0.00010763 0.000106363 0.000106072 0.000106058 0.000106057 0.00125239 0.00125235 0.00125222
          0.00125224 0.00125214 0.00125154 0.00124809 0.00125288 0.00125206 0.0012519 0.00125188 0.168417 0.168417 0.168417 0.168416
          0.168416 0.168414 0.168418 0.168412 0.168414 0.168414 0.168413 0.750675 0.750675 0.750674 0.750672 0.75067
          0.750669 0.750668 0.750665 0.750664 0.750663 0.750663 1.97377 1.97377 1.97377 1.97376 1.97376 1.97375
          1.97375 1.97374 1.97374 1.97374 1.97374 5.49229 5.49227 5.49224 5.49221 5.49217 5.49213 5.4921
          5.49206 5.49203 5.49201 5.49199 40.3994 40.3993 40.399 40.3987 40.3984 40.3981 40.3978 40.3975
          40.3972 40.397 40.3969 170.02 170.019 170.018 170.017 170.016 170.015 170.013 170.012 170.011
          170.01 170.01 486.028 486.026 486.023 486.02 486.016 486.013 486.01 486.006 486.004 486.001
          485.999 1056.25 1056.24 1056.24 1056.23 1056.22 1056.21 1056.21 1056.2 1056.19 1056.19 1056.19
          1883.8 1883.79 1883.78 1883.76 1883.75 1883.74 1883.73 1883.71 1883.7 1883.7 1883.69
        </DataArray>
        <DataArray type="Float32" Name="X_liquid^H2O" NumberOfComponents="1" format="ascii">
          0.999978 0.999978 0.999978 0.999978 0.999978 0.999978 0.999978 0.999978 0.999978 0.999978 0.999978 0.999978
          0.999978 0.999978 0.999978 0.999978 0.999978 0.999978 0.999978 0.999978 0.999978 0.999978 0.999978 0.999978
          0.999978 0.999978 0.999978 0.999978 0.999978 0.999978 0.999978 0.999978 0.999978 0.999978 0.999978 0.999978
          0.999978 0.999978 0.999978 0.999978 0.999978 0.999978 0.999978 0.999978 0.999978 0.999978 0.999978 0.999978
          0.999978 0.999978 0.999978 0.999978 0.999978 0.999978 0.999978 0.999978 0.999978 0.999978 0.999978 0.999978
          0.999978 0.999978 0.999978 0.999978 0.999978 0.999978 0.999978 0.999978 0.999978 0.999978 0.999978 0.999978
          0.999978 0.999978 0.999978 0.999978 0.999978 0.999978 0.999978 0.999978 0.999978 0.999978 0.999978 0.999978
          0.999978 0.999978 0.999978 0.999978 0.999978 0.999978 0.999978 0.999978 0.999978 0.999978 0.999978 0.999978
          0.999978 0.999978 0.999978 0.999978 0.999978 0.999978 0.999978 0.999978 0.999978 0.999978 0.999978 0.999978
          0.999978 0.999978 0.999978 0.999978 0.999978 0.999978 0.999978 0.999978 0.999978 0.999978 0.999978 0.999978
          0.999978 0.999978 0.999978 0.999978 0.999978 0.999978 0.999978 0.999978 0.999978 0.999978 0.999978 0.999978
          0.999978 0.999978 0.999978 0.999978 0.999978 0.999978 0.999978 0.999978 0.999978 0.999978 0.999978
        </DataArray>
        <DataArray type="Float32" Name="X_liquid^Air" NumberOfComponents="1" format="ascii">
          2.18068e-05 2.18068e-05 2.17053e-05 2.17053e-05 2.18068e-05 2.17053e-05 2.18068e-05 2.17053e-05 2.18068e-05 2.17053e-05 2.18068e-05 2.17053e-05
          2.18068e-05 2.17053e-05 2.18068e-05 2.17053e-05 2.18068e-05 2.17053e-05 2.18068e-05 2.17053e-05 2.18068e-05 2.17053e-05 2.16206e-05 2.16206e-05
          2.16206e-05 2.16206e-05 2.16206e-05 2.16206e-05 2.16207e-05 2.16206e-05 2.16206e-05 2.16206e-05 2.16206e-05 2.15538e-05 2.15538e-05 2.15538e-05
          2.15538e-05 2.15538e-05 2.15538e-05 2.15538e-05 2.15538e-05 2.15538e-05 2.15538e-05 2.15538e-05 2.15471e-05 2.15471e-05 2.15471e-05 2.15471e-05
          2.15471e-05 2.15471e-05 2.15471e-05 2.15471e-05 2.15471e-05 2.15471e-05 2.15471e-05 2.1547e-05 2.1547e-05 2.1547e-05 2.1547e-05 2.1547e-05
          2.1547e-05 2.1547e-05 2.1547e-05 2.1547e-05 2.1547e-05 2.1547e-05 2.1547e-05 2.1547e-05 2.1547e-05 2.1547e-05 2.1547e-05 2.1547e-05
          2.1547e-05 2.1547e-05 2.1547e-05 2.1547e-05 2.1547e-05 2.1547e-05 2.1547e-05 2.1547e-05 2.1547e-05 2.1547e-05 2.1547e-05 2.1547e-05
          2.1547e-05 2.1547e-05 2.1547e-05 2.1547e-05 2.15469e-05 2.15469e-05 2.15469e-05 2.15469e-05 2.15469e-05 2.15469e-05 2.15469e-05 2.15469e-05
          2.15469e-05 2.15469e-05 2.15469e-05 2.15469e-05 2.15469e-05 2.15469e-05 2.15469e-05 2.15469e-05 2.15469e-05 2.15469e-05 2.15469e-05 2.15469e-05
          2.15469e-05 2.15469e-05 2.15469e-05 2.15469e-05 2.15469e-05 2.15469e-05 2.15469e-05 2.15469e-05 2.15469e-05 2.15469e-05 2.15469e-05 2.15469e-05
          2.15469e-05 2.15469e-05 2.15469e-05 2.15469e-05 2.15469e-05 2.15469e-05 2.15469e-05 2.15469e-05 2.15469e-05 2.15469e-05 2.15469e-05 2.15469e-05
          2.15468e-05 2.15468e-05 2.15468e-05 2.15468e-05 2.15468e-05 2.15468e-05 2.15468e-05 2.15468e-05 2.15468e-05 2.15468e-05 2.15468e-05
        </DataArray>
        <DataArray type="Float32" Name="X_gas^H2O" NumberOfComponents="1" format="ascii">
          0.0197237 0.0197237 0.0198141 0.0198141 0.0197237 0.0198141 0.0197237 0.0198141 0.0197237 0.0198141 0.0197237 0.0198141
          0.0197237 0.0198141 0.0197237 0.0198141 0.0197237 0.0198141 0.0197237 0.0198141 0.0197237 0.0198141 0.0198901 0.0198901
          0.0198901 0.0198901 0.0198901 0.0198901 0.0198901 0.0198901 0.0198901 0.0198901 0.0198901 0.0199506 0.0199506 0.0199506
          0.0199506 0.0199506 0.0199506 0.0199506 0.0199506 0.0199506 0.0199506 0.0199506 0.0199567 0.0199567 0.0199567 0.0199567
          0.0199567 0.0199567 0.0199567 0.0199567 0.0199567 0.0199567 0.0199567 0.0199567 0.0199567 0.0199567 0.0199567 0.0199567
          0.0199567 0.0199567 0.0199567 0.0199567 0.0199567 0.0199567 0.0199567 0.0199567 0.0199567 0.0199567 0.0199567 0.0199567
          0.0199567 0.0199567 0.0199567 0.0199567 0.0199567 0.0199568 0.0199568 0.0199568 0.0199568 0.0199568 0.0199568 0.0199568
          0.0199568 0.0199568 0.0199568 0.0199568 0.0199568 0.0199568 0.0199568 0.0199568 0.0199568 0.0199568 0.0199568 0.0199568
          0.0199568 0.0199568 0.0199568 0.0199568 0.0199568 0.0199568 0.0199568 0.0199568 0.0199568 0.0199568 0.0199568 0.0199568
          0.0199568 0.0199568 0.0199569 0.0199569 0.0199569 0.0199569 0.0199569 0.0199569 0.0199569 0.0199569 0.0199569 0.0199569
          0.0199569 0.0199569 0.0199569 0.0199569 0.0199569 0.0199569 0.0199569 0.0199569 0.0199569 0.0199569 0.0199569 0.0199569
          0.0199569 0.0199569 0.0199569 0.0199569 0.0199569 0.0199569 0.0199569 0.0199569 0.0199569 0.0199569 0.0199569
        </DataArray>
        <DataArray type="Float32" Name="X_gas^Air" NumberOfComponents="1" format="ascii">
          0.980276 0.980276 0.980186 0.980186 0.980276 0.980186 0.980276 0.980186 0.980276 0.980186 0.980276 0.980186
          0.980276 0.980186 0.980276 0.980186 0.980276 0.980186 0.980276 0.980186 0.980276 0.980186 0.98011 0.98011
          0.98011 0.98011 0.98011 0.98011 0.98011 0.98011 0.98011 0.98011 0.98011 0.980049 0.980049 0.980049
          0.980049 0.980049 0.980049 0.980049 0.980049 0.980049 0.980049 0.980049 0.980043 0.980043 0.980043 0.980043
          0.980043 0.980043 0.980043 0.980043 0.980043 0.980043 0.980043 0.980043 0.980043 0.980043 0.980043 0.980043
          0.980043 0.980043 0.980043 0.980043 0.980043 0.980043 0.980043 0.980043 0.980043 0.980043 0.980043 0.980043
          0.980043 0.980043 0.980043 0.980043 0.980043 0.980043 0.980043 0.980043 0.980043 0.980043 0.980043 0.980043
          0.980043 0.980043 0.980043 0.980043 0.980043 0.980043 0.980043 0.980043 0.980043 0.980043 0.980043 0.980043
          0.980043 0.980043 0.980043 0.980043 0.980043 0.980043 0.980043 0.980043 0.980043 0.980043 0.980043 0.980043
          0.980043 0.980043 0.980043 0.980043 0.980043 0.980043 0.980043 0.980043 0.980043 0.980043 0.980043 0.980043
          0.980043 0.980043 0.980043 0.980043 0.980043 0.980043 0.980043 0.980043 0.980043 0.980043 0.980043 0.980043
          0.980043 0.980043 0.980043 0.980043 0.980043 0.980043 0.980043 0.980043 0.980043 0.980043 0.980043
        </DataArray>
        <DataArray type="Float32" Name="x_liquid^H2O" NumberOfComponents="1" format="ascii">
          0.999986 0.999986 0.999986 0.999986 0.999986 0.999986 0.999986 0.999986 0.999986 0.999986 0.999986 0.999986
          0.999986 0.999986 0.999986 0.999986 0.999986 0.999986 0.999986 0.999986 0.999986 0.999986 0.999987 0.999987
          0.999987 0.999987 0.999987 0.999987 0.999987 0.999987 0.999987 0.999987 0.999987 0.999987 0.999987 0.999987
          0.999987 0.999987 0.999987 0.999987 0.999987 0.999987 0.999987 0.999987 0.999987 0.999987 0.999987 0.999987
          0.999987 0.999987 0.999987 0.999987 0.999987 0.999987 0.999987 0.999987 0.999987 0.999987 0.999987 0.999987
          0.999987 0.999987 0.999987 0.999987 0.999987 0.999987 0.999987 0.999987 0.999987 0.999987 0.999987 0.999987
          0.999987 0.999987 0.999987 0.999987 0.999987 0.999987 0.999987 0.999987 0.999987 0.999987 0.999987 0.999987
          0.999987 0.999987 0.999987 0.999987 0.999987 0.999987 0.999987 0.999987 0.999987 0.999987 0.999987 0.999987
          0.999987 0.999987 0.999987 0.999987 0.999987 0.999987 0.999987 0.999987 0.999987 0.999987 0.999987 0.999987
          0.999987 0.999987 0.999987 0.999987 0.999987 0.999987 0.999987 0.999987 0.999987 0.999987 0.999987 0.999987
          0.999987 0.999987 0.999987 0.999987 0.999987 0.999987 0.999987 0.999987 0.999987 0.999987 0.999987 0.999987
          0.999987 0.999987 0.999987 0.999987 0.999987 0.999987 0.999987 0.999987 0.999987 0.999987 0.999987
        </DataArray>
        <DataArray type="Float32" Name="x_liquid^Air" NumberOfComponents="1" format="ascii">
          1.35655e-05 1.35655e-05 1.35023e-05 1.35023e-05 1.35655e-05 1.35023e-05 1.35655e-05 1.35023e-05 1.35655e-05 1.35023e-05 1.35655e-05 1.35023e-05
          1.35655e-05 1.35023e-05 1.35655e-05 1.35023e-05 1.35655e-05 1.35023e-05 1.35655e-05 1.35023e-05 1.35655e-05 1.35023e-05 1.34497e-05 1.34497e-05
          1.34497e-05 1.34497e-05 1.34497e-05 1.34497e-05 1.34497e-05 1.34497e-05 1.34497e-05 1.34497e-05 1.34497e-05 1.34081e-05 1.34081e-05 1.34081e-05
          1.34081e-05 1.34081e-05 1.34081e-05 1.34081e-05 1.34081e-05 1.34081e-05 1.34081e-05 1.34081e-05 1.34039e-05 1.34039e-05 1.34039e-05 1.34039e-05
          1.34039e-05 1.34039e-05 1.34039e-05 1.34039e-05 1.34039e-05 1.34039e-05 1.34039e-05 1.34039e-05 1.34039e-05 1.34039e-05 1.34039e-05 1.34039e-05
          1.34039e-05 1.34039e-05 1.34039e-05 1.34039e-05 1.34039e-05 1.34039e-05 1.34039e-05 1.34039e-05 1.34039e-05 1.34039e-05 1.34039e-05 1.34039e-05
          1.34039e-05 1.34039e-05 1.34039e-05 1.34039e-05 1.34039e-05 1.34039e-05 1.34039e-05 1.34039e-05 1.34039e-05 1.34039e-05 1.34039e-05 1.34039e-05
          1.34039e-05 1.34039e-05 1.34039e-05 1.34039e-05 1.34038e-05 1.34038e-05 1.34038e-05 1.34038e-05 1.34038e-05 1.34038e-05 1.34038e-05 1.34038e-05
          1.34038e-05 1.34038e-05 1.34038e-05 1.34038e-05 1.34038e-05 1.34038e-05 1.34038e-05 1.34038e-05 1.34038e-05 1.34038e-05 1.34038e-05 1.34038e-05
          1.34038e-05 1.34038e-05 1.34038e-05 1.34038e-05 1.34038e-05 1.34038e-05 1.34038e-05 1.34038e-05 1.34038e-05 1.34038e-05 1.34038e-05 1.34038e-05
          1.34038e-05 1.34038e-05 1.34038e-05 1.34038e-05 1.34038e-05 1.34038e-05 1.34038e-05 1.34038e-05 1.34038e-05 1.34038e-05 1.34038e-05 1.34038e-05
          1.34038e-05 1.34038e-05 1.34038e-05 1.34038e-05 1.34038e-05 1.34038e-05 1.34038e-05 1.34038e-05 1.34038e-05 1.34038e-05 1.34038e-05
        </DataArray>
        <DataArray type="Float32" Name="x_gas^H2O" NumberOfComponents="1" format="ascii">
          0.031331 0.031331 0.031473 0.031473 0.031331 0.031473 0.031331 0.031473 0.031331 0.031473 0.031331 0.031473
          0.031331 0.031473 0.0313311 0.031473 0.031331 0.031473 0.031331 0.031473 0.031331 0.031473 0.0315923 0.0315923
          0.0315923 0.0315923 0.0315923 0.0315923 0.0315923 0.0315923 0.0315923 0.0315923 0.0315923 0.0316872 0.0316872 0.0316872
          0.0316872 0.0316872 0.0316872 0.0316872 0.0316872 0.0316872 0.0316872 0.0316872 0.0316967 0.0316967 0.0316967 0.0316967
          0.0316967 0.0316967 0.0316967 0.0316967 0.0316967 0.0316967 0.0316967 0.0316968 0.0316968 0.0316968 0.0316968 0.0316968
          0.0316968 0.0316968 0.0316968 0.0316968 0.0316968 0.0316968 0.0316968 0.0316968 0.0316968 0.0316968 0.0316968 0.0316968
          0.0316968 0.0316968 0.0316968 0.0316968 0.0316968 0.0316969 0.0316969 0.0316969 0.0316969 0.0316969 0.0316969 0.0316969
          0.0316969 0.0316969 0.0316969 0.0316969 0.0316969 0.0316969 0.0316969 0.0316969 0.0316969 0.0316969 0.0316969 0.0316969
          0.0316969 0.0316969 0.0316969 0.031697 0.031697 0.031697 0.031697 0.031697 0.031697 0.031697 0.031697 0.031697
          0.031697 0.031697 0.031697 0.031697 0.031697 0.031697 0.031697 0.031697 0.031697 0.031697 0.031697 0.031697
          0.031697 0.031697 0.031697 0.031697 0.031697 0.031697 0.031697 0.031697 0.031697 0.031697 0.031697 0.031697
          0.031697 0.031697 0.031697 0.031697 0.031697 0.031697 0.031697 0.031697 0.031697 0.031697 0.031697
        </DataArray>
        <DataArray type="Float32" Name="x_gas^Air" NumberOfComponents="1" format="ascii">
          0.968669 0.968669 0.968527 0.968527 0.968669 0.968527 0.968669 0.968527 0.968669 0.968527 0.968669 0.968527
          0.968669 0.968527 0.968669 0.968527 0.968669 0.968527 0.968669 0.968527 0.968669 0.968527 0.968408 0.968408
          0.968408 0.968408 0.968408 0.968408 0.968408 0.968408 0.968408 0.968408 0.968408 0.968313 0.968313 0.968313
          0.968313 0.968313 0.968313 0.968313 0.968313 0.968313 0.968313 0.968313 0.968303 0.968303 0.968303 0.968303
          0.968303 0.968303 0.968303 0.968303 0.968303 0.968303 0.968303 0.968303 0.968303 0.968303 0.968303 0.968303
          0.968303 0.968303 0.968303 0.968303 0.968303 0.968303 0.968303 0.968303 0.968303 0.968303 0.968303 0.968303
          0.968303 0.968303 0.968303 0.968303 0.968303 0.968303 0.968303 0.968303 0.968303 0.968303 0.968303 0.968303
          0.968303 0.968303 0.968303 0.968303 0.968303 0.968303 0.968303 0.968303 0.968303 0.968303 0.968303 0.968303
          0.968303 0.968303 0.968303 0.968303 0.968303 0.968303 0.968303 0.968303 0.968303 0.968303 0.968303 0.968303
          0.968303 0.968303 0.968303 0.968303 0.968303 0.968303 0.968303 0.968303 0.968303 0.968303 0.968303 0.968303
          0.968303 0.968303 0.968303 0.968303 0.968303 0.968303 0.968303 0.968303 0.968303 0.968303 0.968303 0.968303
          0.968303 0.968303 0.968303 0.968303 0.968303 0.968303 0.968303 0.968303 0.968303 0.968303 0.968303
        </DataArray>
        <DataArray type="Float32" Name="porosity" NumberOfComponents="1" format="ascii">
          0.41 0.41 0.41 0.41 0.41 0.41 0.41 0.41 0.41 0.41 0.41 0.41
          0.41 0.41 0.41 0.41 0.41 0.41 0.41 0.41 0.41 0.41 0.41 0.41
          0.41 0.41 0.41 0.41 0.41 0.41 0.41 0.41 0.41 0.41 0.41 0.41
          0.41 0.41 0.41 0.41 0.41 0.41 0.41 0.41 0.41 0.41 0.41 0.41
          0.41 0.41 0.41 0.41 0.41 0.41 0.41 0.41 0.41 0.41 0.41 0.41
          0.41 0.41 0.41 0.41 0.41 0.41 0.41 0.41 0.41 0.41 0.41 0.41
          0.41 0.41 0.41 0.41 0.41 0.41 0.41 0.41 0.41 0.41 0.41 0.41
          0.41 0.41 0.41 0.41 0.41 0.41 0.41 0.41 0.41 0.41 0.41 0.41
          0.41 0.41 0.41 0.41 0.41 0.41 0.41 0.41 0.41 0.41 0.41 0.41
          0.41 0.41 0.41 0.41 0.41 0.41 0.41 0.41 0.41 0.41 0.41 0.41
          0.41 0.41 0.41 0.41 0.41 0.41 0.41 0.41 0.41 0.41 0.41 0.41
          0.41 0.41 0.41 0.41 0.41 0.41 0.41 0.41 0.41 0.41 0.41
        </DataArray>
        <DataArray type="Float32" Name="temperature" NumberOfComponents="1" format="ascii">
          298.15 298.15 298.15 298.15 298.15 298.15 298.15 298.15 298.15 298.15 298.15 298.15
          298.15 298.15 298.15 298.15 298.15 298.15 298.15 298.15 298.15 298.15 298.15 298.15
          298.15 298.15 298.15 298.15 298.15 298.15 298.15 298.15 298.15 298.15 298.15 298.15
          298.15 298.15 298.15 298.15 298.15 298.15 298.15 298.15 298.15 298.15 298.15 298.15
          298.15 298.15 298.15 298.15 298.15 298.15 298.15 298.15 298.15 298.15 298.15 298.15
          298.15 298.15 298.15 298.15 298.15 298.15 298.15 298.15 298.15 298.15 298.15 298.15
          298.15 298.15 298.15 298.15 298.15 298.15 298.15 298.15 298.15 298.15 298.15 298.15
          298.15 298.15 298.15 298.15 298.15 298.15 298.15 298.15 298.15 298.15 298.15 298.15
          298.15 298.15 298.15 298.15 298.15 298.15 298.15 298.15 298.15 298.15 298.15 298.15
          298.15 298.15 298.15 298.15 298.15 298.15 298.15 298.15 298.15 298.15 298.15 298.15
          298.15 298.15 298.15 298.15 298.15 298.15 298.15 298.15 298.15 298.15 298.15 298.15
          298.15 298.15 298.15 298.15 298.15 298.15 298.15 298.15 298.15 298.15 298.15
        </DataArray>
        <DataArray type="Float32" Name="phase presence" NumberOfComponents="1" format="ascii">
          3 3 3 3 3 3 3 3 3 3 3 3
          3 3 3 3 3 3 3 3 3 3 3 3
          3 3 3 3 3 3 3 3 3 3 3 3
          3 3 3 3 3 3 3 3 3 3 3 3
          3 3 3 3 3 3 3 3 3 3 3 3
          3 3 3 3 3 3 3 3 3 3 3 3
          3 3 3 3 3 3 3 3 3 3 3 3
          3 3 3 3 3 3 3 3 3 3 3 3
          3 3 3 3 3 3 3 3 3 3 3 3
          3 3 3 3 3 3 3 3 3 3 3 3
          3 3 3 3 3 3 3 3 3 3 3 3
          3 3 3 3 3 3 3 3 3 3 3
        </DataArray>
        <DataArray type="Float32" Name="velocityW" NumberOfComponents="3" format="ascii">
          -9.0203e-11 1.53631e-10 0 -1.75854e-10 1.45103e-10 0 -1.05722e-10 2.99748e-10 0 -2.06021e-10 2.81944e-10 0
          -3.33987e-10 1.20423e-10 0 -3.91029e-10 2.30598e-10 0 -4.58662e-10 8.21357e-11 0 -5.36496e-10 1.51537e-10 0
          -5.72792e-10 3.91221e-11 0 -6.44224e-10 5.319e-11 0 -5.67877e-10 1.06768e-11 0 -6.6833e-10 -5.77645e-11 0
          -5.00886e-10 -6.86429e-11 0 -6.08142e-10 -1.7691e-10 0 -4.5174e-10 -1.16555e-10 0 -5.1904e-10 -2.583e-10 0
          -3.30432e-10 -1.5171e-10 0 -3.83446e-10 -3.29822e-10 0 -1.73491e-10 -1.74642e-10 0 -2.01395e-10 -3.77277e-10 0
          -8.88535e-11 -1.82557e-10 0 -1.0316e-10 -3.93617e-10 0 -1.48266e-10 6.14341e-10 0 -2.8851e-10 5.75879e-10 0
          -5.4612e-10 4.65403e-10 0 -7.46307e-10 2.965e-10 0 -9.04521e-10 8.75193e-11 0 -9.38612e-10 -1.42219e-10 0
          -8.27401e-10 -3.54203e-10 0 -6.99868e-10 -5.56911e-10 0 -5.26916e-10 -7.14371e-10 0 -2.76637e-10 -8.14266e-10 0
          -1.41688e-10 -8.48619e-10 0 -2.14244e-10 9.99198e-10 0 -4.15901e-10 9.34476e-10 0 -7.8402e-10 7.49904e-10 0
          -1.06541e-09 4.70789e-10 0 -1.25862e-09 1.34404e-10 0 -1.28962e-09 -2.07901e-10 0 -1.18826e-09 -5.62417e-10 0