<?xml version="1.0"?>
<VTKFile type="UnstructuredGrid" version="0.1" byte_order="LittleEndian">
  <UnstructuredGrid>
    <Piece NumberOfCells="120" NumberOfPoints="143">
      <PointData Scalars="temperature" Vectors="v">
        <DataArray type="Float32" Name="temperature" NumberOfComponents="1" format="ascii">
          298.15 298.15 298.15 298.15 298.15 298.15 298.15 298.15 298.15 298.15 298.15 298.15
          298.15 298.15 298.15 298.15 298.15 298.15 298.15 298.15 298.15 298.15 298.15 298.15
          298.15 298.15 298.15 298.15 298.15 298.15 298.15 298.15 298.15 298.15 298.15 298.15
          298.15 298.15 298.15 298.15 298.15 298.15 298.15 298.15 298.15 298.15 298.15 298.15
          298.15 298.15 298.15 298.15 298.15 298.15 298.15 298.15 298.15 298.15 298.15 298.15
          298.15 298.15 298.15 298.15 298.15 298.15 298.15 298.15 298.15 298.15 298.15 298.15
          298.15 298.15 298.15 298.15 298.15 298.15 298.15 298.15 298.15 298.15 298.15 298.15
          298.15 298.15 298.15 298.15 298.15 298.15 298.15 298.15 298.15 298.15 298.15 298.15
          298.15 298.15 298.15 298.15 298.15 298.15 298.15 298.15 298.15 298.15 298.15 298.15
          298.15 298.15 298.15 298.15 298.15 298.15 298.15 298.15 298.15 298.15 298.15 298.15
          298.15 298.15 298.15 298.15 298.15 298.15 298.15 298.15 298.15 298.15 298.15 298.15
          298.15 298.15 298.15 298.15 298.15 298.15 298.15 298.15 298.15 298.15 298.15
        </DataArray>
        <DataArray type="Float32" Name="P" NumberOfComponents="1" format="ascii">
          100000 100000 100000 100000 100000 100000 100000 100000 100000 100000 100000 100000
          100000 100000 100000 100000 100000 100000 100000 100000 100000 100000 100000 100000
          100000 100000 100000 100000 100000 100000 100000 100000 100000 100000 100000 100000
          100000 100000 100000 100000 100000 100000 100000 100000 100000 100000 100000 100000
          100000 100000 100000 100000 100000 100000 100000 100000 100000 100000 100000 100000
          100000 100000 100000 100000 100000 100000 100000 100000 100000 100000 100000 100000
          100000 100000 100000 100000 100000 100000 100000 100000 100000 100000 100000 100000
          100000 100000 100000 100000 100000 100000 100000 100000 100000 100000 100000 100000
          100000 100000 100000 100000 100000 100000 100000 100000 100000 100000 100000 100000
          100000 100000 100000 100000 100000 100000 100000 100000 100000 100000 100000 100000
          100000 100000 100000 100000 100000 100000 100000 100000 100000 100000 100000 100000
          100000 100000 100000 100000 100000 100000 100000 100000 100000 100000 100000
        </DataArray>
        <DataArray type="Float32" Name="delP" NumberOfComponents="1" format="ascii">
          0.00204761 0.0018335 0.00205644 0.00184233 0.00163171 0.00163761 0.00142802 0.00143213 0.00122411 0.00122747 0.00102026 0.00102274
          0.000816237 0.000818117 0.000612227 0.000613583 0.000408128 0.000409046 0.000204016 0.000204627 0 0 0.00203966 0.00183638
          0.00163237 0.00142863 0.00122463 0.00102068 0.000816604 0.000612542 0.000408392 0.000204269 0 0.00204633 0.00184161 0.0016362
          0.0014314 0.00122672 0.00102218 0.000817655 0.000613219 0.000408768 0.000204377 0 0.0020416 0.00183741 0.00163327 0.00142923
          0.00122509 0.00102099 0.000816813 0.000612659 0.000408446 0.000204244 0 0.00204453 0.00184033 0.00163544 0.00143095 0.00122636
          0.00102194 0.000817478 0.000613107 0.000408707 0.000204351 0 0.00204216 0.00183801 0.00163378 0.00142963 0.00122539 0.00102121
          0.000816967 0.000612754 0.000408501 0.000204258 0 0.00204361 0.00183946 0.00163491 0.00143059 0.0012261 0.00102177 0.000817356
          0.000613029 0.000408662 0.000204333 0 0.00204249 0.0018383 0.00163405 0.00142984 0.00122558 0.00102135 0.00081707 0.000612821
          0.000408543 0.000204274 0 0.00204311 0.00183893 0.00163455 0.00143029 0.00122591 0.00102162 0.000817262 0.000612963 0.000408627
          0.000204315 0 0.0020427 0.00183847 0.0016342 0.00142997 0.00122568 0.00102143 0.000817138 0.000612865 0.000408574 0.000204285
          0 0.0020429 0.00183867 0.00163436 0.0014301 0.00122578 0.00102151 0.000817195 0.000612909 0.000408599 0.000204298 0
          0.00204287 0.00183864 0.00163433 0.00143009 0.00122578 0.00102152 0.000817202 0.000612916 0.000408605 0.000204306 0
        </DataArray>
        <DataArray type="Float32" Name="x_gas^H2O" NumberOfComponents="1" format="ascii">
          0.031697 0.031697 0.0136817 0.015131 0.031697 0.0163691 0.031697 0.0174292 0.031697 0.0183396 0.031697 0.0191238
          0.031697 0.0198016 0.031697 0.0203896 0.031697 0.0209014 0.031697 0.0213511 0.031697 0.0215637 0.0128567 0.0129196
          0.013014 0.013133 0.0132714 0.0134248 0.0135895 0.0137624 0.0139411 0.0141233 0.0142154 0.0128376 0.0128386 0.0128407
          0.0128441 0.0128489 0.0128554 0.0128636 0.0128736 0.0128854 0.0128989 0.012906 0.0128404 0.0128404 0.0128405 0.0128405
          0.0128406 0.0128407 0.0128408 0.012841 0.0128413 0.0128416 0.0128417 0.0128472 0.0128472 0.0128472 0.0128472 0.0128472
          0.0128472 0.0128472 0.0128472 0.0128472 0.0128472 0.0128472 0.0128583 0.0128583 0.0128583 0.0128583 0.0128583 0.0128583
          0.0128583 0.0128583 0.0128583 0.0128583 0.0128583 0.0128755 0.0128755 0.0128755 0.0128755 0.0128755 0.0128755 0.0128756
          0.0128756 0.0128756 0.0128756 0.0128756 0.0129035 0.0129035 0.0129035 0.0129035 0.0129035 0.0129035 0.0129035 0.0129035
          0.0129035 0.0129035 0.0129035 0.0129529 0.0129529 0.0129529 0.0129529 0.0129529 0.0129529 0.0129529 0.0129529 0.012953
          0.012953 0.012953 0.0130578 0.0130578 0.0130578 0.0130579 0.0130579 0.0130579 0.0130579 0.0130579 0.013058 0.013058
          0.013058 0.0134059 0.0134058 0.0134057 0.0134056 0.0134054 0.0134053 0.0134052 0.0134051 0.013405 0.0134048 0.0134048
          0.0127981 0.0127983 0.0127986 0.0127989 0.0127993 0.0127998 0.0128002 0.0128007 0.0128011 0.0128016 0.0127981
        </DataArray>
        <DataArray type="Float32" Name="X_gas^H2O" NumberOfComponents="1" format="ascii">
          0.0199569 0.0199569 0.00855522 0.00946671 0.0199569 0.0102461 0.0199569 0.0109141 0.0199569 0.0114881 0.0199569 0.011983
          0.0199569 0.0124109 0.0199569 0.0127823 0.0199569 0.0131057 0.0199569 0.0133899 0.0199569 0.0135244 0.00803682 0.00807635
          0.00813565 0.00821039 0.00829739 0.00839378 0.00849729 0.00860598 0.00871832 0.00883287 0.00889073 0.00802482 0.00802547 0.00802678
          0.00802889 0.00803194 0.00803602 0.00804118 0.00804745 0.00805487 0.00806333 0.00806779 0.0080266 0.00802661 0.00802663 0.00802666
          0.0080267 0.00802677 0.00802686 0.00802698 0.00802714 0.00802733 0.00802743 0.00803084 0.00803085 0.00803085 0.00803085 0.00803086
          0.00803086 0.00803086 0.00803087 0.00803087 0.00803088 0.00803087 0.00803781 0.00803781 0.00803781 0.00803781 0.00803781 0.00803782
          0.00803782 0.00803782 0.00803782 0.00803782 0.00803782 0.00804867 0.00804867 0.00804867 0.00804867 0.00804867 0.00804867 0.00804867
          0.00804868 0.00804868 0.00804868 0.00804868 0.00806623 0.00806623 0.00806623 0.00806623 0.00806623 0.00806624 0.00806624 0.00806624
          0.00806624 0.00806625 0.00806624 0.00809727 0.00809727 0.00809727 0.00809728 0.00809728 0.00809728 0.00809729 0.00809729 0.0080973
          0.0080973 0.0080973 0.00816316 0.00816317 0.00816318 0.0081632 0.00816321 0.00816323 0.00816324 0.00816326 0.00816327 0.00816329
          0.00816329 0.0083819 0.00838182 0.00838175 0.00838167 0.00838159 0.00838152 0.00838144 0.00838137 0.0083813 0.00838122 0.00838118
          0.008 0.00800015 0.00800033 0.00800055 0.0080008 0.00800107 0.00800135 0.00800164 0.00800193 0.00800221 0.008
        </DataArray>
        <DataArray type="Float32" Name="x_gas^Air" NumberOfComponents="1" format="ascii">
          0.968303 0.968303 0.986318 0.984869 0.968303 0.983631 0.968303 0.982571 0.968303 0.98166 0.968303 0.980876
          0.968303 0.980198 0.968303 0.97961 0.968303 0.979099 0.968303 0.978649 0.968303 0.978436 0.987143 0.98708
          0.986986 0.986867 0.986729 0.986575 0.98641 0.986238 0.986059 0.985877 0.985785 0.987162 0.987161 0.987159
          0.987156 0.987151 0.987145 0.987136 0.987126 0.987115 0.987101 0.987094 0.98716 0.98716 0.98716 0.987159
          0.987159 0.987159 0.987159 0.987159 0.987159 0.987158 0.987158 0.987153 0.987153 0.987153 0.987153 0.987153
          0.987153 0.987153 0.987153 0.987153 0.987153 0.987153 0.987142 0.987142 0.987142 0.987142 0.987142 0.987142
          0.987142 0.987142 0.987142 0.987142 0.987142 0.987124 0.987124 0.987124 0.987124 0.987124 0.987124 0.987124
          0.987124 0.987124 0.987124 0.987124 0.987096 0.987096 0.987096 0.987096 0.987096 0.987096 0.987096 0.987096
          0.987096 0.987096 0.987096 0.987047 0.987047 0.987047 0.987047 0.987047 0.987047 0.987047 0.987047 0.987047
          0.987047 0.987047 0.986942 0.986942 0.986942 0.986942 0.986942 0.986942 0.986942 0.986942 0.986942 0.986942
          0.986942 0.986594 0.986594 0.986594 0.986594 0.986595 0.986595 0.986595 0.986595 0.986595 0.986595 0.986595
          0.987202 0.987202 0.987201 0.987201 0.987201 0.9872 0.9872 0.987199 0.987199 0.987198 0.987202
        </DataArray>
        <DataArray type="Float32" Name="X_gas^Air" NumberOfComponents="1" format="ascii">
          0.980043 0.980043 0.991445 0.990533 0.980043 0.989754 0.980043 0.989086 0.980043 0.988512 0.980043 0.988017
          0.980043 0.987589 0.980043 0.987218 0.980043 0.986894 0.980043 0.98661 0.980043 0.986476 0.991963 0.991924
          0.991864 0.99179 0.991703 0.991606 0.991503 0.991394 0.991282 0.991167 0.991109 0.991975 0.991975 0.991973
          0.991971 0.991968 0.991964 0.991959 0.991953 0.991945 0.991937 0.991932 0.991973 0.991973 0.991973 0.991973
          0.991973 0.991973 0.991973 0.991973 0.991973 0.991973 0.991973 0.991969 0.991969 0.991969 0.991969 0.991969
          0.991969 0.991969 0.991969 0.991969 0.991969 0.991969 0.991962 0.991962 0.991962 0.991962 0.991962 0.991962
          0.991962 0.991962 0.991962 0.991962 0.991962 0.991951 0.991951 0.991951 0.991951 0.991951 0.991951 0.991951
          0.991951 0.991951 0.991951 0.991951 0.991934 0.991934 0.991934 0.991934 0.991934 0.991934 0.991934 0.991934
          0.991934 0.991934 0.991934 0.991903 0.991903 0.991903 0.991903 0.991903 0.991903 0.991903 0.991903 0.991903
          0.991903 0.991903 0.991837 0.991837 0.991837 0.991837 0.991837 0.991837 0.991837 0.991837 0.991837 0.991837
          0.991837 0.991618 0.991618 0.991618 0.991618 0.991618 0.991618 0.991619 0.991619 0.991619 0.991619 0.991619
          0.992 0.992 0.992 0.991999 0.991999 0.991999 0.991999 0.991998 0.991998 0.991998 0.992
        </DataArray>
        <DataArray type="Float32" Name="rho" NumberOfComponents="1" format="ascii">
          1.15424 1.15424 1.16219 1.16155 1.15424 1.161 1.15424 1.16054 1.15424 1.16013 1.15424 1.15979
          1.15424 1.15949 1.15424 1.15923 1.15424 1.159 1.15424 1.15881 1.15424 1.15871 1.16256 1.16253
          1.16249 1.16243 1.16237 1.1623 1.16223 1.16216 1.16208 1.162 1.16196 1.16256 1.16256 1.16256
          1.16256 1.16256 1.16256 1.16255 1.16255 1.16254 1.16254 1.16253 1.16256 1.16256 1.16256 1.16256
          1.16256 1.16256 1.16256 1.16256 1.16256 1.16256 1.16256 1.16256 1.16256 1.16256 1.16256 1.16256
          1.16256 1.16256 1.16256 1.16256 1.16256 1.16256 1.16255 1.16255 1.16255 1.16255 1.16255 1.16255
          1.16255 1.16255 1.16255 1.16255 1.16255 1.16255 1.16255 1.16255 1.16255 1.16255 1.16255 1.16255
          1.16255 1.16255 1.16255 1.16255 1.16253 1.16253 1.16253 1.16253 1.16253 1.16253 1.16253 1.16253
          1.16253 1.16253 1.16253 1.16251 1.16251 1.16251 1.16251 1.16251 1.16251 1.16251 1.16251 1.16251
          1.16251 1.16251 1.16247 1.16247 1.16247 1.16247 1.16247 1.16247 1.16247 1.16247 1.16247 1.16247
          1.16247 1.16231 1.16231 1.16231 1.16231 1.16231 1.16231 1.16231 1.16231 1.16231 1.16231 1.16231
          1.16258 1.16258 1.16258 1.16258 1.16258 1.16258 1.16258 1.16258 1.16258 1.16258 1.16258
        </DataArray>
        <DataArray type="Float32" Name="mu" NumberOfComponents="1" format="ascii">
          1.82387e-05 1.82387e-05 1.82387e-05 1.82387e-05 1.82387e-05 1.82387e-05 1.82387e-05 1.82387e-05 1.82387e-05 1.82387e-05 1.82387e-05 1.82387e-05
          1.82387e-05 1.82387e-05 1.82387e-05 1.82387e-05 1.82387e-05 1.82387e-05 1.82387e-05 1.82387e-05 1.82387e-05 1.82387e-05 1.82387e-05 1.82387e-05
          1.82387e-05 1.82387e-05 1.82387e-05 1.82387e-05 1.82387e-05 1.82387e-05 1.82387e-05 1.82387e-05 1.82387e-05 1.82387e-05 1.82387e-05 1.82387e-05
          1.82387e-05 1.82387e-05 1.82387e-05 1.82387e-05 1.82387e-05 1.82387e-05 1.82387e-05 1.82387e-05 1.82387e-05 1.82387e-05 1.82387e-05 1.82387e-05
          1.82387e-05 1.82387e-05 1.82387e-05 1.82387e-05 1.82387e-05 1.82387e-05 1.82387e-05 1.82387e-05 1.82387e-05 1.82387e-05 1.82387e-05 1.82387e-05
          1.82387e-05 1.82387e-05 1.82387e-05 1.82387e-05 1.82387e-05 1.82387e-05 1.82387e-05 1.82387e-05 1.82387e-05 1.82387e-05 1.82387e-05 1.82387e-05
          1.82387e-05 1.82387e-05 1.82387e-05 1.82387e-05 1.82387e-05 1.82387e-05 1.82387e-05 1.82387e-05 1.82387e-05 1.82387e-05 1.82387e-05 1.82387e-05
          1.82387e-05 1.82387e-05 1.82387e-05 1.82387e-05 1.82387e-05 1.82387e-05 1.82387e-05 1.82387e-05 1.82387e-05 1.82387e-05 1.82387e-05 1.82387e-05
          1.82387e-05 1.82387e-05 1.82387e-05 1.82387e-05 1.82387e-05 1.82387e-05 1.82387e-05 1.82387e-05 1.82387e-05 1.82387e-05 1.82387e-05 1.82387e-05
          1.82387e-05 1.82387e-05 1.82387e-05 1.82387e-05 1.82387e-05 1.82387e-05 1.82387e-05 1.82387e-05 1.82387e-05 1.82387e-05 1.82387e-05 1.82387e-05
          1.82387e-05 1.82387e-05 1.82387e-05 1.82387e-05 1.82387e-05 1.82387e-05 1.82387e-05 1.82387e-05 1.82387e-05 1.82387e-05 1.82387e-05 1.82387e-05
          1.82387e-05 1.82387e-05 1.82387e-05 1.82387e-05 1.82387e-05 1.82387e-05 1.82387e-05 1.82387e-05 1.82387e-05 1.82387e-05 1.82387e-05
        </DataArray>
        <DataArray type="Float32" Name="v" NumberOfComponents="3" format="ascii">
          0.00085182 6.25182e-05 0 0.000855451 5.75029e-05 0 0.254842 0 0 0.254645 7.93074e-05 0
          0.000858579 5.31966e-05 0 0.254448 5.52238e-05 0 0.00086241 4.9514e-05 0 0.254447 4.92815e-05 0
          0.000865457 4.63508e-05 0 0.254426 4.67229e-05 0 0.00086817 4.3626e-05 0 0.254423 4.33791e-05 0
          0.000870508 4.1271e-05 0 0.25442 4.11053e-05 0 0.000872544 3.92285e-05 0 0.25442 3.89871e-05 0
          0.00087432 3.74496e-05 0 0.25442 3.71719e-05 0 0.000875888 3.58897e-05 0 0.254425 3.52773e-05 0
          0.000876651 3.51546e-05 0 0.254434 3.54477e-05 0 0.558319 0 0 0.558208 0.000226954 0
          0.558042 0.000135581 0 0.557991 9.48884e-05 0 0.557965 9.01859e-05 0 0.557953 7.69479e-05 0
          0.557947 7.02584e-05 0 0.557945 6.37243e-05 0 0.557946 5.758e-05 0 0.557952 5.40257e-05 0
          0.557965 3.50072e-05 0 0.916728 0 0 0.9167 0.000171101 0 0.916593 0.000122532 0
          0.916502 7.85562e-05 0 0.916461 7.27593e-05 0 0.916439 6.48325e-05 0 0.916427 6.15687e-05 0
          0.916422 5.88711e-05 0 0.916422 5.53652e-05 0 0.916426 5.33312e-05 0 0.916439 3.39026e-05 0
          1.33203 0 0 1.33202 0.000276796 0 1.33196 0.000204313 0 1.33188 0.00013517 0
          1.33183 0.000109743 0 1.33181 8.87076e-05 0 1.33179 7.71264e-05 0 1.33179 6.75822e-05 0
          1.33179 5.89333e-05 0 1.33179 5.08356e-05 0 1.3318 3.2161e-05 0 1.80003 0 0
          1.80007 0.000192308 0 1.80006 0.000185399 0 1.79999 0.000131801 0 1.79994 0.000101291 0
          1.79991 8.13863e-05 0 1.79989 6.97069e-05 0 1.79988 6.15533e-05 0 1.79988 5.37318e-05 0
          1.79988 4.56388e-05 0 1.79989 2.99368e-05 0 2.30517 0 0 2.3052 0.000255875 0
          2.30521 0.0002476 0 2.30518 0.000194745 0 2.30515 0.00014764 0 2.30513 0.000113134 0
          2.30511 8.9769e-05 0 2.3051 7.2462e-05 0 2.3051 5.78556e-05 0 2.30511 4.3943e-05 0
          2.30511 2.74234e-05 0 2.81179 0 0 2.81184 0.000151051 0 2.81188 0.00019466 0
          2.81188 0.000173101 0 2.81187 0.000137043 0 2.81185 0.00010665 0 2.81184 8.33196e-05 0
          2.81184 6.64068e-05 0 2.81184 5.2019e-05 0 2.81184 3.8997e-05 0 2.81184 2.46958e-05 0
          3.25008 0 0 3.25011 0.000180326 0 3.25015 0.000215632 0 3.25018 0.000204179 0
          3.25019 0.000167682 0 3.2502 0.000132405 0 3.2502 0.000100857 0 3.2502 7.65364e-05 0
          3.25021 5.58971e-05 0 3.25021 3.85162e-05 0 3.25022 2.159e-05 0 3.49327 0 0
          3.4933 7.36855e-05 0 3.49335 0.000123065 0 3.49339 0.00013286 0 3.49342 0.000119404 0
          3.49344 9.89643e-05 0 3.49346 7.74687e-05 0 3.49347 5.93099e-05 0 3.49348 4.35053e-05 0
          3.49348 3.0329e-05 0 3.49349 1.74598e-05 0 3.32119 0 0 3.32121 8.01528e-05 0
          3.32124 0.000106387 0 3.32129 0.00011434 0 3.32133 0.000103707 0 3.32136 8.82939e-05 0
          3.32139 6.9175e-05 0 3.3214 5.25785e-05 0 3.32142 3.70799e-05 0 3.32143 2.41025e-05 0
          3.32144 1.15816e-05 0 2.36226 0 0 2.36227 -1.18195e-05 0 2.3623 5.46175e-07 0
          2.36233 7.94952e-06 0 2.36237 1.22472e-05 0 2.36239 1.2136e-05 0 2.36242 1.12019e-05 0
          2.36243 9.05526e-06 0 2.36245 7.35821e-06 0 2.36246 5.54086e-06 0 2.36246 4.41537e-06 0
          0.00134 0 0 0.00134 0 0 0.00134 0 0 0.00134 0 0
          0.00134 0 0 0.00134 0 0 0.00134 0 0 0.00134 0 0
          0.00134 0 0 0.00134 0 0 0.00134 0 0
        </DataArray>
      </PointData>
      <Points>
        <DataArray type="Float32" Name="Coordinates" NumberOfComponents="3" format="ascii">
          0 0.25 0 0.025 0.25 0 0 0.254612 0 0.025 0.254612 0
          0.05 0.25 0 0.05 0.254612 0 0.075 0.25 0 0.075 0.254612 0
          0.1 0.25 0 0.1 0.254612 0 0.125 0.25 0 0.125 0.254612 0
          0.15 0.25 0 0.15 0.254612 0 0.175 0.25 0 0.175 0.254612 0
          0.2 0.25 0 0.2 0.254612 0 0.225 0.25 0 0.225 0.254612 0
          0.25 0.25 0 0.25 0.254612 0 0 0.260377 0 0.025 0.260377 0
          0.05 0.260377 0 0.075 0.260377 0 0.1 0.260377 0 0.125 0.260377 0
          0.15 0.260377 0 0.175 0.260377 0 0.2 0.260377 0 0.225 0.260377 0
          0.25 0.260377 0 0 0.267583 0 0.025 0.267583 0 0.05 0.267583 0
          0.075 0.267583 0 0.1 0.267583 0 0.125 0.267583 0 0.15 0.267583 0
          0.175 0.267583 0 0.2 0.267583 0 0.225 0.267583 0 0.25 0.267583 0
          0 0.27659 0 0.025 0.27659 0 0.05 0.27659 0 0.075 0.27659 0
          0.1 0.27659 0 0.125 0.27659 0 0.15 0.27659 0 0.175 0.27659 0
          0.2 0.27659 0 0.225 0.27659 0 0.25 0.27659 0 0 0.28785 0
          0.025 0.28785 0 0.05 0.28785 0 0.075 0.28785 0 0.1 0.28785 0
          0.125 0.28785 0 0.15 0.28785 0 0.175 0.28785 0 0.2 0.28785 0
          0.225 0.28785 0 0.25 0.28785 0 0 0.301924 0 0.025 0.301924 0
          0.05 0.301924 0 0.075 0.301924 0 0.1 0.301924 0 0.125 0.301924 0
          0.15 0.301924 0 0.175 0.301924 0 0.2 0.301924 0 0.225 0.301924 0
          0.25 0.301924 0 0 0.319517 0 0.025 0.319517 0 0.05 0.319517 0
          0.075 0.319517 0 0.1 0.319517 0 0.125 0.319517 0 0.15 0.319517 0
          0.175 0.319517 0 0.2 0.319517 0 0.225 0.319517 0 0.25 0.319517 0
          0 0.341509 0 0.025 0.341509 0 0.05 0.341509 0 0.075 0.341509 0
          0.1 0.341509 0 0.125 0.341509 0 0.15 0.341509 0 0.175 0.341509 0
          0.2 0.341509 0 0.225 0.341509 0 0.25 0.341509 0 0 0.368998 0
          0.025 0.368998 0 0.05 0.368998 0 0.075 0.368998 0 0.1 0.368998 0
          0.125 0.368998 0 0.15 0.368998 0 0.175 0.368998 0 0.2 0.368998 0
          0.225 0.368998 0 0.25 0.368998 0 0 0.403359 0 0.025 0.403359 0
          0.05 0.403359 0 0.075 0.403359 0 0.1 0.403359 0 0.125 0.403359 0
          0.15 0.403359 0 0.175 0.403359 0 0.2 0.403359 0 0.225 0.403359 0
          0.25 0.403359 0 0 0.44631 0 0.025 0.44631 0 0.05 0.44631 0
          0.075 0.44631 0 0.1 0.44631 0 0.125 0.44631 0 0.15 0.44631 0
          0.175 0.44631 0 0.2 0.44631 0 0.225 0.44631 0 0.25 0.44631 0
          0 0.5 0 0.025 0.5 0 0.05 0.5 0 0.075 0.5 0
          0.1 0.5 0 0.125 0.5 0 0.15 0.5 0 0.175 0.5 0
          0.2 0.5 0 0.225 0.5 0 0.25 0.5 0
        </DataArray>
      </Points>
      <Cells>
        <DataArray type="Int32" Name="connectivity" NumberOfComponents="1" format="ascii">
          0 1 3 2 1 4 5 3 4 6 7 5
          6 8 9 7 8 10 11 9 10 12 13 11
          12 14 15 13 14 16 17 15 16 18 19 17
          18 20 21 19 2 3 23 22 3 5 24 23
          5 7 25 24 7 9 26 25 9 11 27 26
          11 13 28 27 13 15 29 28 15 17 30 29
          17 19 31 30 19 21 32 31 22 23 34 33
          23 24 35 34 24 25 36 35 25 26 37 36
          26 27 38 37 27 28 39 38 28 29 40 39
          29 30 41 40 30 31 42 41 31 32 43 42
          33 34 45 44 34 35 46 45 35 36 47 46
          36 37 48 47 37 38 49 48 38 39 50 49
          39 40 51 50 40 41 52 51 41 42 53 52
          42 43 54 53 44 45 56 55 45 46 57 56
          46 47 58 57 47 48 59 58 48 49 60 59
          49 50 61 60 50 51 62 61 51 52 63 62
          52 53 64 63 53 54 65 64 55 56 67 66
          56 57 68 67 57 58 69 68 58 59 70 69
          59 60 71 70 60 61 72 71 61 62 73 72
          62 63 74 73 63 64 75 74 64 65 76 75
          66 67 78 77 67 68 79 78 68 69 80 79
          69 70 81 80 70 71 82 81 71 72 83 82
          72 73 84 83 73 74 85 84 74 75 86 85
          75 76 87 86 77 78 89 88 78 79 90 89
          79 80 91 90 80 81 92 91 81 82 93 92
          82 83 94 93 83 84 95 94 84 85 96 95
          85 86 97 96 86 87 98 97 88 89 100 99
          89 90 101 100 90 91 102 101 91 92 103 102
          92 93 104 103 93 94 105 104 94 95 106 105
          95 96 107 106 96 97 108 107 97 98 109 108
          99 100 111 110 100 101 112 111 101 102 113 112
          102 103 114 113 103 104 115 114 104 105 116 115
          105 106 117 116 106 107 118 117 107 108 119 118
          108 109 120 119 110 111 122 121 111 112 123 122
          112 113 124 123 113 114 125 124 114 115 126 125
          115 116 127 126 116 117 128 127 117 118 129 128
          118 119 130 129 119 120 131 130 121 122 133 132
          122 123 134 133 123 124 135 134 124 125 136 135
          125 126 137 136 126 127 138 137 127 128 139 138
          128 129 140 139 129 130 141 140 130 131 142 141
        </DataArray>
        <DataArray type="Int32" Name="offsets" NumberOfComponents="1" format="ascii">
          4 8 12 16 20 24 28 32 36 40 44 48
          52 56 60 64 68 72 76 80 84 88 92 96
          100 104 108 112 116 120 124 128 132 136 140 144
          148 152 156 160 164 168 172 176 180 184 188 192
          196 200 204 208 212 216 220 224 228 232 236 240
          244 248 252 256 260 264 268 272 276 280 284 288
          292 296 300 304 308 312 316 320 324 328 332 336
          340 344 348 352 356 360 364 368 372 376 380 384
          388 392 396 400 404 408 412 416 420 424 428 432
          436 440 444 448 452 456 460 464 468 472 476 480
        </DataArray>
        <DataArray type="UInt8" Name="types" NumberOfComponents="1" format="ascii">
          9 9 9 9 9 9 9 9 9 9 9 9
          9 9 9 9 9 9 9 9 9 9 9 9
          9 9 9 9 9 9 9 9 9 9 9 9
          9 9 9 9 9 9 9 9 9 9 9 9
          9 9 9 9 9 9 9 9 9 9 9 9
          9 9 9 9 9 9 9 9 9 9 9 9
          9 9 9 9 9 9 9 9 9 9 9 9
          9 9 9 9 9 9 9 9 9 9 9 9
          9 9 9 9 9 9 9 9 9 9 9 9
          9 9 9 9 9 9 9 9 9 9 9 9
        </DataArray>
      </Cells>
    </Piece>
  </UnstructuredGrid>
</VTKFile>
