<?xml version="1.0"?>
<VTKFile type="UnstructuredGrid" version="0.1" byte_order="LittleEndian">
  <UnstructuredGrid>
    <Piece NumberOfCells="575" NumberOfPoints="624">
      <PointData Scalars="Sn" Vectors="velocityW">
        <DataArray type="Float32" Name="Sn" NumberOfComponents="1" format="ascii">
          0.0100116 0.0100116 0.0100225 0.0100225 0.0100116 0.0100225 0.0100116 0.0100225 0.0100116 0.0100225 0.0100115 0.0100225
          0.0100115 0.0100225 0.0100115 0.0100225 0.0100115 0.0100225 0.0100115 0.0100226 0.0100117 0.0100224 0.0100126 0.0100227
          0.0100133 0.0100224 0.0100112 0.0100226 0.010011 0.0100231 0.0100136 0.010022 0.0100103 0.0100226 0.0100123 0.0100224
          0.0100093 0.010023 0.0100117 0.0100235 0.0100114 0.0100227 0.0100115 0.0100226 0.0100114 0.0100225 0.0100116 0.0100225
          0.0100116 0.0100225 0.0100116 0.0100225 0.0100304 0.0100304 0.0100304 0.0100304 0.0100304 0.0100304 0.0100304 0.0100304
          0.0100304 0.0100304 0.0100304 0.0100302 0.0100302 0.0100309 0.0100303 0.0100305 0.0100306 0.0100304 0.0100307 0.0100307
          0.0100305 0.0100304 0.0100304 0.0100304 0.0100304 0.0100304 0.010037 0.010037 0.010037 0.010037 0.010037 0.010037
          0.010037 0.010037 0.010037 0.010037 0.010037 0.0100369 0.0100367 0.0100368 0.0100368 0.010037 0.0100371 0.010037
          0.0100371 0.0100371 0.010037 0.010037 0.010037 0.010037 0.010037 0.010037 0.0100428 0.0100428 0.0100428 0.0100428
          0.0100428 0.0100428 0.0100428 0.0100428 0.0100428 0.0100428 0.0100428 0.0100427 0.0100429 0.0100426 0.0100426 0.0100427
          0.0100429 0.0100428 0.0100429 0.0100427 0.0100428 0.0100428 0.0100428 0.0100428 0.0100428 0.0100428 0.0100543 0.0100543
          0.0100543 0.0100543 0.0100543 0.0100543 0.0100543 0.0100543 0.0100543 0.0100543 0.0100543 0.0100543 0.0100543 0.0100541
          0.0100541 0.0100541 0.0100543 0.0100543 0.0100543 0.0100541 0.0100542 0.0100543 0.0100543 0.0100543 0.0100543 0.0100543
          0.0102837 0.0102837 0.0102837 0.0102837 0.0102837 0.0102837 0.0102837 0.0102837 0.0102837 0.0102837 0.0102837 0.0102837
          0.0102836 0.0102836 0.0102836 0.0102836 0.0102836 0.0102836 0.0102836 0.0102836 0.0102836 0.0102836 0.0102837 0.0102837
          0.0102837 0.0102837 0.0111968 0.0111968 0.0111968 0.0111968 0.0111968 0.0111968 0.0111968 0.0111968 0.0111968 0.0111968
          0.0111968 0.0111968 0.0111968 0.0111968 0.0111968 0.0111968 0.0111968 0.0111968 0.0111968 0.0111968 0.0111968 0.0111968
          0.0111968 0.0111968 0.0111968 0.0111968 0.0121397 0.0121397 0.0121397 0.0121397 0.0121397 0.0121397 0.0121397 0.0121397
          0.0121397 0.0121397 0.0121397 0.0121397 0.0121397 0.0121397 0.0121397 0.0121397 0.0121397 0.0121397 0.0121397 0.0121397
          0.0121397 0.0121397 0.0121397 0.0121397 0.0121397 0.0121397 0.0131208 0.0131208 0.0131208 0.0131208 0.0131208 0.0131208
          0.0131208 0.0131208 0.0131208 0.0131208 0.0131208 0.0131208 0.0131208 0.0131208 0.0131208 0.0131208 0.0131208 0.0131208
          0.0131208 0.0131208 0.0131208 0.0131208 0.0131208 0.0131208 0.0131208 0.0131208 0.0141649 0.0141649 0.0141649 0.0141649
          0.0141649 0.0141649 0.0141649 0.0141649 0.0141649 0.0141649 0.0141649 0.0141649 0.0141649 0.0141649 0.0141649 0.0141649
          0.0141649 0.0141649 0.0141649 0.0141649 0.0141649 0.0141649 0.0141649 0.0141649 0.0141649 0.0141649 0.0153173 0.0153173
          0.0153173 0.0153173 0.0153173 0.0153173 0.0153173 0.0153173 0.0153173 0.0153173 0.0153173 0.0153173 0.0153173 0.0153173
          0.0153173 0.0153173 0.0153173 0.0153173 0.0153173 0.0153173 0.0153173 0.0153173 0.0153173 0.0153172 0.0153172 0.0153172
          0.016681 0.016681 0.016681 0.016681 0.016681 0.016681 0.016681 0.0166809 0.0166809 0.0166809 0.0166809 0.0166809
          0.0166809 0.0166809 0.0166809 0.0166809 0.0166809 0.0166809 0.0166809 0.0166809 0.0166809 0.0166809 0.0166809 0.0166809
          0.0166808 0.0166808 0.0186488 0.0186488 0.0186488 0.0186488 0.0186488 0.0186488 0.0186488 0.0186487 0.0186487 0.0186487
          0.0186487 0.0186487 0.0186487 0.0186487 0.0186486 0.0186486 0.0186486 0.0186486 0.0186486 0.0186486 0.0186486 0.0186486
          0.0186485 0.0186485 0.0186485 0.0186485 0.0245636 0.0245635 0.0245635 0.0245635 0.0245635 0.0245634 0.0245634 0.0245633
          0.0245632 0.0245632 0.0245631 0.0245631 0.024563 0.024563 0.0245629 0.0245629 0.0245628 0.0245628 0.0245628 0.0245627
          0.0245627 0.0245627 0.0245626 0.0245626 0.0245626 0.0245626 0.0337904 0.0337904 0.0337904 0.0337903 0.0337902 0.0337902
          0.0337901 0.03379 0.0337899 0.0337898 0.0337897 0.0337896 0.0337895 0.0337895 0.0337894 0.0337893 0.0337892 0.0337892
          0.0337891 0.0337891 0.033789 0.033789 0.0337889 0.0337889 0.0337889 0.0337889 0.0459266 0.0459266 0.0459265 0.0459264
          0.0459263 0.0459262 0.0459261 0.0459259 0.0459258 0.0459257 0.0459255 0.0459254 0.0459253 0.0459252 0.045925 0.0459249
          0.0459248 0.0459247 0.0459246 0.0459246 0.0459245 0.0459244 0.0459244 0.0459243 0.0459243 0.0459243 0.0609014 0.0609014
          0.0609013 0.0609011 0.0609009 0.0609008 0.0609006 0.0609004 0.0609002 0.0609 0.0608998 0.0608996 0.0608995 0.0608993
          0.0608991 0.060899 0.0608988 0.0608987 0.0608986 0.0608985 0.0608984 0.0608983 0.0608982 0.0608981 0.0608981 0.0608981
          0.0784244 0.0784243 0.0784242 0.078424 0.0784237 0.0784235 0.0784232 0.078423 0.0784227 0.0784224 0.0784222 0.0784219
          0.0784217 0.0784215 0.0784213 0.0784211 0.0784209 0.0784207 0.0784206 0.0784204 0.0784203 0.0784202 0.0784201 0.07842
          0.0784199 0.0784199 0.0980396 0.0980396 0.0980393 0.0980391 0.0980388 0.0980384 0.0980381 0.0980377 0.0980374 0.0980371
          0.0980368 0.0980364 0.0980361 0.0980359 0.0980356 0.0980353 0.0980351 0.0980349 0.0980347 0.0980345 0.0980343 0.0980342
          0.0980341 0.098034 0.0980339 0.0980338 0.119195 0.119195 0.119195 0.119195 0.119194 0.119194 0.119193 0.119193
          0.119193 0.119192 0.119192 0.119191 0.119191 0.119191 0.11919 0.11919 0.11919 0.119189 0.119189 0.119189
          0.119189 0.119189 0.119188 0.119188 0.119188 0.119188 0.141313 0.141313 0.141312 0.141312 0.141311 0.141311
          0.14131 0.14131 0.141309 0.141309 0.141308 0.141308 0.141307 0.141307 0.141307 0.141306 0.141306 0.141306
          0.141305 0.141305 0.141305 0.141305 0.141304 0.141304 0.141304 0.141304 0.163843 0.163842 0.163842 0.163841
          0.16384 0.16384 0.163839 0.163839 0.163838 0.163837 0.163837 0.163836 0.163836 0.163835 0.163835 0.163834
          0.163834 0.163834 0.163833 0.163833 0.163833 0.163833 0.163832 0.163832 0.163832 0.163832 0.186301 0.186301
          0.1863 0.186299 0.186299 0.186298 0.186297 0.186296 0.186296 0.186295 0.186294 0.186294 0.186293 0.186293
          0.186292 0.186292 0.186291 0.186291 0.18629 0.18629 0.18629 0.18629 0.186289 0.186289 0.186289 0.186289
        </DataArray>
        <DataArray type="Float32" Name="Sw" NumberOfComponents="1" format="ascii">
          0.989988 0.989988 0.989977 0.989977 0.989988 0.989977 0.989988 0.989977 0.989988 0.989977 0.989988 0.989977
          0.989988 0.989977 0.989988 0.989977 0.989988 0.989977 0.989989 0.989977 0.989988 0.989978 0.989987 0.989977
          0.989987 0.989978 0.989989 0.989977 0.989989 0.989977 0.989986 0.989978 0.98999 0.989977 0.989988 0.989978
          0.989991 0.989977 0.989988 0.989977 0.989989 0.989977 0.989989 0.989977 0.989989 0.989977 0.989988 0.989977
          0.989988 0.989977 0.989988 0.989977 0.98997 0.98997 0.98997 0.98997 0.98997 0.98997 0.98997 0.98997
          0.98997 0.98997 0.98997 0.98997 0.98997 0.989969 0.98997 0.989969 0.989969 0.98997 0.989969 0.989969
          0.98997 0.98997 0.98997 0.98997 0.98997 0.98997 0.989963 0.989963 0.989963 0.989963 0.989963 0.989963
          0.989963 0.989963 0.989963 0.989963 0.989963 0.989963 0.989963 0.989963 0.989963 0.989963 0.989963 0.989963
          0.989963 0.989963 0.989963 0.989963 0.989963 0.989963 0.989963 0.989963 0.989957 0.989957 0.989957 0.989957
          0.989957 0.989957 0.989957 0.989957 0.989957 0.989957 0.989957 0.989957 0.989957 0.989957 0.989957 0.989957
          0.989957 0.989957 0.989957 0.989957 0.989957 0.989957 0.989957 0.989957 0.989957 0.989957 0.989946 0.989946
          0.989946 0.989946 0.989946 0.989946 0.989946 0.989946 0.989946 0.989946 0.989946 0.989946 0.989946 0.989946
          0.989946 0.989946 0.989946 0.989946 0.989946 0.989946 0.989946 0.989946 0.989946 0.989946 0.989946 0.989946
          0.989716 0.989716 0.989716 0.989716 0.989716 0.989716 0.989716 0.989716 0.989716 0.989716 0.989716 0.989716
          0.989716 0.989716 0.989716 0.989716 0.989716 0.989716 0.989716 0.989716 0.989716 0.989716 0.989716 0.989716
          0.989716 0.989716 0.988803 0.988803 0.988803 0.988803 0.988803 0.988803 0.988803 0.988803 0.988803 0.988803
          0.988803 0.988803 0.988803 0.988803 0.988803 0.988803 0.988803 0.988803 0.988803 0.988803 0.988803 0.988803
          0.988803 0.988803 0.988803 0.988803 0.98786 0.98786 0.98786 0.98786 0.98786 0.98786 0.98786 0.98786
          0.98786 0.98786 0.98786 0.98786 0.98786 0.98786 0.98786 0.98786 0.98786 0.98786 0.98786 0.98786
          0.98786 0.98786 0.98786 0.98786 0.98786 0.98786 0.986879 0.986879 0.986879 0.986879 0.986879 0.986879
          0.986879 0.986879 0.986879 0.986879 0.986879 0.986879 0.986879 0.986879 0.986879 0.986879 0.986879 0.986879
          0.986879 0.986879 0.986879 0.986879 0.986879 0.986879 0.986879 0.986879 0.985835 0.985835 0.985835 0.985835
          0.985835 0.985835 0.985835 0.985835 0.985835 0.985835 0.985835 0.985835 0.985835 0.985835 0.985835 0.985835
          0.985835 0.985835 0.985835 0.985835 0.985835 0.985835 0.985835 0.985835 0.985835 0.985835 0.984683 0.984683
          0.984683 0.984683 0.984683 0.984683 0.984683 0.984683 0.984683 0.984683 0.984683 0.984683 0.984683 0.984683
          0.984683 0.984683 0.984683 0.984683 0.984683 0.984683 0.984683 0.984683 0.984683 0.984683 0.984683 0.984683
          0.983319 0.983319 0.983319 0.983319 0.983319 0.983319 0.983319 0.983319 0.983319 0.983319 0.983319 0.983319
          0.983319 0.983319 0.983319 0.983319 0.983319 0.983319 0.983319 0.983319 0.983319 0.983319 0.983319 0.983319
          0.983319 0.983319 0.981351 0.981351 0.981351 0.981351 0.981351 0.981351 0.981351 0.981351 0.981351 0.981351
          0.981351 0.981351 0.981351 0.981351 0.981351 0.981351 0.981351 0.981351 0.981351 0.981351 0.981351 0.981351
          0.981351 0.981351 0.981351 0.981351 0.975436 0.975436 0.975436 0.975437 0.975437 0.975437 0.975437 0.975437
          0.975437 0.975437 0.975437 0.975437 0.975437 0.975437 0.975437 0.975437 0.975437 0.975437 0.975437 0.975437
          0.975437 0.975437 0.975437 0.975437 0.975437 0.975437 0.96621 0.96621 0.96621 0.96621 0.96621 0.96621
          0.96621 0.96621 0.96621 0.96621 0.96621 0.96621 0.96621 0.966211 0.966211 0.966211 0.966211 0.966211
          0.966211 0.966211 0.966211 0.966211 0.966211 0.966211 0.966211 0.966211 0.954073 0.954073 0.954073 0.954074
          0.954074 0.954074 0.954074 0.954074 0.954074 0.954074 0.954074 0.954075 0.954075 0.954075 0.954075 0.954075
          0.954075 0.954075 0.954075 0.954075 0.954076 0.954076 0.954076 0.954076 0.954076 0.954076 0.939099 0.939099
          0.939099 0.939099 0.939099 0.939099 0.939099 0.9391 0.9391 0.9391 0.9391 0.9391 0.939101 0.939101
          0.939101 0.939101 0.939101 0.939101 0.939101 0.939102 0.939102 0.939102 0.939102 0.939102 0.939102 0.939102
          0.921576 0.921576 0.921576 0.921576 0.921576 0.921576 0.921577 0.921577 0.921577 0.921578 0.921578 0.921578
          0.921578 0.921579 0.921579 0.921579 0.921579 0.921579 0.921579 0.92158 0.92158 0.92158 0.92158 0.92158
          0.92158 0.92158 0.90196 0.90196 0.901961 0.901961 0.901961 0.901962 0.901962 0.901962 0.901963 0.901963
          0.901963 0.901964 0.901964 0.901964 0.901964 0.901965 0.901965 0.901965 0.901965 0.901965 0.901966 0.901966
          0.901966 0.901966 0.901966 0.901966 0.880805 0.880805 0.880805 0.880805 0.880806 0.880806 0.880807 0.880807
          0.880807 0.880808 0.880808 0.880809 0.880809 0.880809 0.88081 0.88081 0.88081 0.88081 0.880811 0.880811
          0.880811 0.880811 0.880812 0.880812 0.880812 0.880812 0.858687 0.858687 0.858688 0.858688 0.858689 0.858689
          0.85869 0.85869 0.858691 0.858691 0.858692 0.858692 0.858693 0.858693 0.858693 0.858694 0.858694 0.858694
          0.858695 0.858695 0.858695 0.858695 0.858696 0.858696 0.858696 0.858696 0.836157 0.836158 0.836158 0.836159
          0.83616 0.83616 0.836161 0.836161 0.836162 0.836163 0.836163 0.836164 0.836164 0.836165 0.836165 0.836166
          0.836166 0.836166 0.836167 0.836167 0.836167 0.836167 0.836168 0.836168 0.836168 0.836168 0.813699 0.813699
          0.8137 0.813701 0.813701 0.813702 0.813703 0.813704 0.813704 0.813705 0.813706 0.813706 0.813707 0.813707
          0.813708 0.813708 0.813709 0.813709 0.813709 0.81371 0.81371 0.81371 0.813711 0.813711 0.813711 0.813711
        </DataArray>
        <DataArray type="Float32" Name="pn" NumberOfComponents="1" format="ascii">
          101156 101156 100908 100908 101156 100908 101156 100908 101156 100908 101156 100908
          101156 100908 101156 100908 101156 100908 101156 100908 101156 100908 101157 100908
          101157 100908 101156 100908 101156 100908 101157 100908 101156 100908 101157 100908
          101156 100908 101156 100908 101156 100908 101156 100908 101156 100908 101156 100908
          101156 100908 101156 100908 100682 100682 100682 100682 100682 100682 100682 100682
          100682 100682 100682 100682 100682 100682 100682 100682 100682 100682 100682 100682
          100682 100682 100682 100682 100682 100682 100476 100476 100476 100476 100476 100476
          100476 100476 100476 100476 100476 100476 100476 100476 100476 100476 100476 100476
          100476 100476 100476 100476 100476 100476 100476 100476 100289 100289 100289 100289
          100289 100289 100289 100289 100289 100289 100289 100289 100289 100289 100289 100289
          100289 100289 100289 100289 100289 100289 100289 100289 100289 100289 100120 100120
          100120 100120 100120 100120 100120 100120 100120 100120 100120 100120 100120 100120
          100120 100120 100120 100120 100120 100120 100120 100120 100120 100120 100120 100120
          100002 100002 100002 100002 100002 100002 100002 100002 100002 100002 100002 100002
          100002 100002 100002 100002 100002 100002 100002 100002 100002 100002 100002 100002
          100002 100002 100001 100001 100001 100001 100001 100001 100001 100001 100001 100001
          100001 100001 100001 100001 100001 100001 100001 100001 100001 100001 100001 100001
          100001 100001 100001 100001 100001 100001 100001 100001 100001 100001 100001 100001
          100001 100001 100001 100001 100001 100001 100001 100001 100001 100001 100001 100001
          100001 100001 100001 100001 100001 100001 100001 100001 100001 100001 100001 100001
          100001 100001 100001 100001 100001 100001 100001 100001 100001 100001 100001 100001
          100001 100001 100001 100001 100001 100001 100001 100001 100001 100001 100001 100001
          100001 100001 100001 100001 100001 100001 100001 100001 100001 100001 100001 100001
          100001 100001 100001 100001 100001 100001 100001 100001 100001 100001 100001 100001
          100001 100001 100001 100001 100001 100001 100001 100001 100001 100001 100001 100001
          100001 100001 100001 100001 100001 100001 100001 100001 100001 100001 100001 100001
          100001 100001 100001 100001 100001 100001 100001 100001 100001 100001 100001 100001
          100001 100001 100001 100001 100001 100001 100001 100001 100001 100001 100001 100001
          100001 100001 100001 100001 100001 100001 100001 100001 100001 100001 100001 100001
          100001 100001 100001 100001 100001 100001 100001 100001 100001 100001 100001 100001
          100001 100001 100001 100001 100000 100000 100000 100000 100000 100000 100000 100000
          100000 100000 100000 100000 100000 100000 100000 100000 100000 100000 100000 100000
          100000 100000 100000 100000 100000 100000 100000 100000 100000 100000 100000 100000
          100000 100000 100000 100000 100000 100000 100000 100000 100000 100000 100000 100000
          100000 100000 100000 100000 100000 100000 100000 100000 100000 100000 100000 100000
          100000 100000 100000 100000 100000 100000 100000 100000 100000 100000 100000 100000
          100000 100000 100000 100000 100000 100000 100000 100000 100000 100000 100000 100000
          100000 100000 100000 100000 100000 100000 100000 100000 100000 100000 100000 100000
          100000 100000 100000 100000 100000 100000 100000 100000 100000 100000 100000 100000
          100000 100000 100000 100000 100000 100000 100000 100000 100000 100000 100000 100000
          100000 100000 100000 100000 100000 100000 100000 100000 100000 100000 100000 100000
          100000 100000 100000 100000 100000 100000 100000 100000 100000 100000 100000 100000
          100000 100000 100000 100000 100000 100000 100000 100000 100000 100000 100000 100000
          100000 100000 100000 100000 100000 100000 100000 100000 100000 100000 100000 100000
          100000 100000 100000 100000 100000 100000 100000 100000 100000 100000 100000 100000
          100000 100000 100000 100000 100000 100000 100000 100000 100000 100000 100000 100000
          100000 100000 100000 100000 100000 100000 100000 100000 100000 100000 100000 100000
          100000 100000 100000 100000 100000 100000 100000 100000 100000 100000 100000 100000
          100000 100000 100000 100000 100000 100000 100000 100000 100000 100000 100000 100000
          100000 100000 100000 100000 100000 100000 100000 100000 100000 100000 100000 100000
          100000 100000 100000 100000 100000 100000 100000 100000 100000 100000 100000 100000
          100000 100000 100000 100000 100000 100000 100000 100000 100000 100000 100000 100000
        </DataArray>
        <DataArray type="Float32" Name="pw" NumberOfComponents="1" format="ascii">
          101154 101154 100904 100904 101154 100904 101154 100904 101154 100904 101154 100904
          101154 100904 101154 100904 101154 100904 101154 100904 101154 100904 101154 100904
          101154 100904 101154 100904 101154 100904 101154 100904 101154 100904 101154 100904
          101154 100904 101154 100904 101154 100904 101154 100904 101154 100904 101154 100904
          101154 100904 101154 100904 100677 100677 100677 100677 100677 100677 100677 100677
          100677 100677 100677 100677 100677 100677 100677 100677 100677 100677 100677 100677
          100677 100677 100677 100677 100677 100677 100470 100470 100470 100470 100470 100470
          100470 100470 100470 100470 100470 100470 100470 100470 100470 100470 100470 100470
          100470 100470 100470 100470 100470 100470 100470 100470 100282 100282 100282 100282
          100282 100282 100282 100282 100282 100282 100282 100282 100282 100282 100282 100282
          100282 100282 100282 100282 100282 100282 100282 100282 100282 100282 100111 100111
          100111 100111 100111 100111 100111 100111 100111 100111 100111 100111 100111 100111
          100111 100111 100111 100111 100111 100111 100111 100111 100111 100111 100111 100111
          99955.6 99955.6 99955.6 99955.6 99955.6 99955.6 99955.6 99955.6 99955.6 99955.6 99955.6 99955.6
          99955.6 99955.6 99955.6 99955.6 99955.6 99955.6 99955.6 99955.6 99955.6 99955.6 99955.6 99955.6
          99955.6 99955.6 99814.3 99814.3 99814.3 99814.3 99814.3 99814.3 99814.3 99814.3 99814.3 99814.4
          99814.4 99814.4 99814.4 99814.4 99814.4 99814.4 99814.4 99814.4 99814.4 99814.4 99814.4 99814.4
          99814.4 99814.4 99814.4 99814.4 99685.9 99685.9 99685.9 99685.9 99685.9 99685.9 99685.9 99685.9
          99685.9 99685.9 99685.9 99685.9 99685.9 99685.9 99685.9 99685.9 99685.9 99685.9 99685.9 99685.9
          99685.9 99685.9 99685.9 99685.9 99685.9 99685.9 99569.2 99569.2 99569.2 99569.2 99569.2 99569.2
          99569.2 99569.2 99569.2 99569.2 99569.2 99569.2 99569.2 99569.2 99569.2 99569.2 99569.2 99569.2
          99569.2 99569.2 99569.2 99569.2 99569.2 99569.2 99569.2 99569.2 99463.1 99463.1 99463.1 99463.1
          99463.1 99463.1 99463.1 99463.1 99463.1 99463.1 99463.1 99463.1 99463.1 99463.1 99463.1 99463.1
          99463.1 99463.1 99463.1 99463.1 99463.1 99463.1 99463.1 99463.1 99463.1 99463.1 99366.6 99366.6
          99366.6 99366.6 99366.6 99366.6 99366.6 99366.6 99366.6 99366.6 99366.6 99366.6 99366.6 99366.6
          99366.6 99366.6 99366.6 99366.6 99366.6 99366.6 99366.6 99366.6 99366.6 99366.6 99366.6 99366.6
          99278.9 99278.9 99278.9 99278.9 99278.9 99278.9 99278.9 99278.9 99278.9 99278.9 99278.9 99278.9
          99278.9 99278.9 99278.9 99278.9 99278.9 99278.9 99278.9 99278.9 99278.9 99278.9 99278.9 99278.9
          99278.9 99278.9 99199.1 99199.1 99199.1 99199.1 99199.1 99199.1 99199.1 99199.1 99199.1 99199.1
          99199.1 99199.1 99199.1 99199.1 99199.1 99199.1 99199.1 99199.1 99199.1 99199.1 99199.1 99199.1
          99199.1 99199.1 99199.1 99199.1 99126.7 99126.7 99126.7 99126.7 99126.7 99126.7 99126.7 99126.7
          99126.7 99126.7 99126.7 99126.7 99126.7 99126.7 99126.7 99126.7 99126.7 99126.7 99126.7 99126.7
          99126.7 99126.7 99126.7 99126.7 99126.7 99126.7 99060.8 99060.8 99060.8 99060.8 99060.8 99060.8
          99060.8 99060.8 99060.8 99060.8 99060.8 99060.8 99060.8 99060.8 99060.8 99060.8 99060.8 99060.8
          99060.8 99060.8 99060.8 99060.8 99060.8 99060.8 99060.8 99060.8 99000.9 99000.9 99000.9 99000.9
          99000.9 99000.9 99000.9 99000.9 99000.9 99000.9 99000.9 99000.9 99000.9 99000.9 99000.9 99000.9
          99000.9 99000.9 99000.9 99000.9 99000.9 99000.9 99000.9 99000.9 99000.9 99000.9 98946.4 98946.4
          98946.4 98946.4 98946.4 98946.4 98946.4 98946.4 98946.4 98946.4 98946.4 98946.4 98946.4 98946.4
          98946.4 98946.4 98946.4 98946.4 98946.4 98946.4 98946.4 98946.4 98946.4 98946.4 98946.4 98946.4
          98896.9 98896.9 98896.9 98896.9 98896.9 98896.9 98896.9 98896.9 98896.9 98896.9 98896.9 98896.9
          98896.9 98896.9 98896.9 98896.9 98896.9 98896.9 98896.9 98896.9 98896.9 98896.9 98896.9 98896.9
          98896.9 98896.9 98851.9 98851.9 98851.9 98851.9 98851.9 98851.9 98851.9 98851.9 98851.9 98851.9
          98851.9 98851.9 98851.9 98851.9 98851.9 98851.9 98851.9 98851.9 98851.9 98851.9 98851.9 98851.9
          98851.9 98851.9 98851.9 98851.9 98811 98811 98811 98811 98811 98811 98811 98811
          98811 98811 98811 98811 98811 98811 98811 98811 98811 98811 98811 98811
          98811 98811 98811 98811 98811 98811 98773.8 98773.8 98773.8 98773.8 98773.8 98773.8
          98773.8 98773.8 98773.8 98773.8 98773.8 98773.8 98773.8 98773.8 98773.8 98773.8 98773.8 98773.8
          98773.8 98773.8 98773.8 98773.8 98773.8 98773.8 98773.8 98773.8 98739.9 98739.9 98739.9 98739.9
          98739.9 98739.9 98739.9 98739.9 98739.9 98739.9 98739.9 98739.9 98739.9 98739.9 98739.9 98739.9
          98739.9 98739.9 98739.9 98739.9 98739.9 98739.9 98739.9 98739.9 98739.9 98739.9 98709.2 98709.2
          98709.2 98709.2 98709.2 98709.2 98709.2 98709.2 98709.2 98709.2 98709.2 98709.2 98709.2 98709.2
          98709.2 98709.2 98709.2 98709.2 98709.2 98709.2 98709.2 98709.2 98709.2 98709.2 98709.2 98709.2
        </DataArray>
        <DataArray type="Float32" Name="pc" NumberOfComponents="1" format="ascii">
          1.93488 1.9348 3.76969 3.76954 1.93366 3.76919 1.93359 3.76914 1.93401 3.76923 1.93337 3.76943
          1.93222 3.7703 1.9332 3.7713 1.93142 3.77251 1.9274 3.77281 1.96314 3.75034 2.10758 3.80291
          2.23406 3.74541 1.8695 3.77519 1.84978 3.86884 2.28387 3.68556 1.71954 3.77851 2.05307 3.74816
          1.56494 3.84897 1.96261 3.9237 1.90106 3.79382 1.92523 3.7758 1.90311 3.76941 1.93373 3.76772
          1.93408 3.7676 1.93408 3.76759 5.08836 5.0882 5.08795 5.08785 5.08782 5.08775 5.08774 5.08809
          5.08791 5.08801 5.08416 5.05723 5.05663 5.1692 5.06123 5.10725 5.12169 5.08128 5.14041 5.14159
          5.09495 5.08467 5.09004 5.08531 5.08494 5.08492 6.18452 6.18436 6.18409 6.18395 6.18391 6.18376
          6.18358 6.1837 6.18337 6.18352 6.1836 6.16734 6.1312 6.15187 6.1578 6.18551 6.20414 6.18451
          6.20587 6.19446 6.18336 6.17989 6.18375 6.18017 6.17973 6.17969 7.15671 7.15656 7.15625 7.15607
          7.156 7.15581 7.15555 7.15551 7.15512 7.15504 7.15439 7.13236 7.17009 7.12598 7.12541 7.13263
          7.1625 7.15599 7.16149 7.13999 7.14897 7.15065 7.15314 7.15086 7.15046 7.15042 9.07021 9.07005
          9.06969 9.06943 9.0693 9.06904 9.06867 9.06846 9.06792 9.06737 9.06579 9.07144 9.07294 9.04064
          9.04067 9.03367 9.06586 9.06553 9.06407 9.03759 9.05573 9.06131 9.06346 9.06212 9.06179 9.06175
          46.7499 46.7498 46.7495 46.7492 46.7488 46.7484 46.7478 46.7472 46.7463 46.745 46.7433 46.7402
          46.7343 46.7317 46.728 46.7288 46.7314 46.7335 46.7313 46.7298 46.7307 46.7342 46.7366 46.7378
          46.7381 46.7382 186.745 186.745 186.745 186.745 186.745 186.745 186.745 186.744 186.744 186.744
          186.743 186.743 186.743 186.743 186.743 186.742 186.742 186.741 186.741 186.741 186.741 186.741
          186.741 186.741 186.741 186.741 315.05 315.05 315.05 315.05 315.05 315.049 315.049 315.049
          315.049 315.048 315.048 315.048 315.048 315.047 315.047 315.047 315.046 315.046 315.046 315.046
          315.046 315.045 315.045 315.045 315.045 315.045 431.696 431.696 431.696 431.695 431.695 431.695
          431.695 431.695 431.694 431.694 431.694 431.693 431.693 431.693 431.692 431.692 431.692 431.691
          431.691 431.691 431.691 431.691 431.691 431.69 431.69 431.69 537.734 537.734 537.734 537.733
          537.733 537.733 537.733 537.732 537.732 537.732 537.731 537.731 537.731 537.73 537.73 537.73
          537.729 537.729 537.729 537.729 537.728 537.728 537.728 537.728 537.728 537.728 634.128 634.128
          634.127 634.127 634.127 634.127 634.126 634.126 634.126 634.125 634.125 634.125 634.124 634.124
          634.123 634.123 634.123 634.122 634.122 634.122 634.122 634.121 634.121 634.121 634.121 634.121
          721.755 721.755 721.754 721.754 721.754 721.754 721.753 721.753 721.753 721.752 721.752 721.751
          721.751 721.75 721.75 721.75 721.749 721.749 721.749 721.748 721.748 721.748 721.748 721.748
          721.748 721.747 801.412 801.412 801.411 801.411 801.411 801.411 801.41 801.41 801.409 801.409
          801.408 801.408 801.407 801.407 801.407 801.406 801.406 801.405 801.405 801.405 801.405 801.404
          801.404 801.404 801.404 801.404 873.821 873.821 873.821 873.82 873.82 873.82 873.819 873.819
          873.818 873.818 873.817 873.817 873.816 873.816 873.815 873.815 873.814 873.814 873.814 873.813
          873.813 873.813 873.813 873.813 873.812 873.812 939.646 939.646 939.645 939.645 939.645 939.644
          939.644 939.643 939.643 939.642 939.642 939.641 939.641 939.64 939.64 939.639 939.639 939.638
          939.638 939.638 939.637 939.637 939.637 939.637 939.637 939.637 999.486 999.485 999.485 999.485
          999.484 999.484 999.483 999.483 999.482 999.482 999.481 999.48 999.48 999.479 999.479 999.478
          999.478 999.478 999.477 999.477 999.477 999.476 999.476 999.476 999.476 999.476 1053.89 1053.88
          1053.88 1053.88 1053.88 1053.88 1053.88 1053.88 1053.88 1053.88 1053.88 1053.88 1053.88 1053.88
          1053.88 1053.88 1053.88 1053.88 1053.88 1053.88 1053.88 1053.88 1053.87 1053.87 1053.87 1053.87
          1103.34 1103.34 1103.34 1103.34 1103.34 1103.34 1103.34 1103.34 1103.33 1103.33 1103.33 1103.33
          1103.33 1103.33 1103.33 1103.33 1103.33 1103.33 1103.33 1103.33 1103.33 1103.33 1103.33 1103.33
          1103.33 1103.33 1148.3 1148.3 1148.3 1148.3 1148.3 1148.29 1148.29 1148.29 1148.29 1148.29
          1148.29 1148.29 1148.29 1148.29 1148.29 1148.29 1148.29 1148.29 1148.29 1148.29 1148.29 1148.29
          1148.29 1148.29 1148.28 1148.28 1189.17 1189.17 1189.17 1189.17 1189.17 1189.17 1189.16 1189.16
          1189.16 1189.16 1189.16 1189.16 1189.16 1189.16 1189.16 1189.16 1189.16 1189.16 1189.16 1189.16
          1189.16 1189.16 1189.16 1189.16 1189.16 1189.15 1226.32 1226.32 1226.32 1226.32 1226.32 1226.32
          1226.32 1226.32 1226.32 1226.32 1226.32 1226.32 1226.32 1226.31 1226.31 1226.31 1226.31 1226.31
          1226.31 1226.31 1226.31 1226.31 1226.31 1226.31 1226.31 1226.31 1260.1 1260.1 1260.1 1260.1
          1260.1 1260.1 1260.1 1260.1 1260.1 1260.09 1260.09 1260.09 1260.09 1260.09 1260.09 1260.09
          1260.09 1260.09 1260.09 1260.09 1260.09 1260.09 1260.09 1260.09 1260.09 1260.09 1290.81 1290.81
          1290.81 1290.81 1290.81 1290.81 1290.8 1290.8 1290.8 1290.8 1290.8 1290.8 1290.8 1290.8
          1290.8 1290.8 1290.8 1290.8 1290.8 1290.8 1290.8 1290.79 1290.79 1290.79 1290.79 1290.79
        </DataArray>
        <DataArray type="Float32" Name="rhoW" NumberOfComponents="1" format="ascii">
          997.048 997.048 997.048 997.048 997.048 997.048 997.048 997.048 997.048 997.048 997.048 997.048
          997.048 997.048 997.048 997.048 997.048 997.048 997.048 997.048 997.048 997.048 997.048 997.048
          997.048 997.048 997.048 997.048 997.048 997.048 997.048 997.048 997.048 997.048 997.048 997.048
          997.048 997.048 997.048 997.048 997.048 997.048 997.048 997.048 997.048 997.048 997.048 997.048
          997.048 997.048 997.048 997.048 997.048 997.048 997.048 997.048 997.048 997.048 997.048 997.048
          997.048 997.048 997.048 997.048 997.048 997.048 997.048 997.048 997.048 997.048 997.048 997.048
          997.048 997.048 997.048 997.048 997.048 997.048 997.048 997.048 997.048 997.048 997.048 997.048
          997.048 997.048 997.048 997.048 997.048 997.048 997.048 997.048 997.048 997.048 997.048 997.048