<?xml version="1.0"?>
<VTKFile type="UnstructuredGrid" version="0.1" byte_order="LittleEndian">
  <UnstructuredGrid>
    <Piece NumberOfCells="575" NumberOfPoints="624">
      <PointData Scalars="Sn" Vectors="velocityW">
        <DataArray type="Float32" Name="Sn" NumberOfComponents="1" format="ascii">
          0.0100115 0.0100115 0.0100225 0.0100225 0.0100115 0.0100225 0.0100115 0.0100225 0.0100115 0.0100225 0.0100116 0.0100225
          0.0100116 0.0100225 0.0100115 0.0100225 0.0100115 0.0100225 0.0100114 0.0100225 0.0100117 0.0100225 0.0100112 0.0100226
          0.0100113 0.0100226 0.0100109 0.0100231 0.0100115 0.0100231 0.0100083 0.0100255 0.0100104 0.0100229 0.0100093 0.0100224
          0.0100142 0.0100223 0.0100151 0.0100201 0.0100097 0.0100231 0.0100115 0.0100225 0.0100115 0.0100225 0.0100115 0.0100225
          0.0100115 0.0100225 0.0100115 0.0100225 0.0100304 0.0100304 0.0100304 0.0100304 0.0100304 0.0100304 0.0100304 0.0100304
          0.0100304 0.0100303 0.0100303 0.0100305 0.0100303 0.0100302 0.0100303 0.0100298 0.0100304 0.0100308 0.0100302 0.0100295
          0.0100305 0.0100304 0.0100304 0.0100304 0.0100304 0.0100304 0.0100369 0.0100369 0.0100369 0.0100369 0.0100369 0.0100369
          0.0100369 0.0100369 0.0100369 0.0100369 0.0100369 0.0100371 0.0100373 0.0100372 0.0100367 0.0100366 0.010037 0.0100372
          0.0100368 0.0100367 0.010037 0.0100369 0.0100369 0.0100369 0.0100369 0.0100369 0.0100428 0.0100428 0.0100428 0.0100428
          0.0100428 0.0100428 0.0100428 0.0100428 0.0100427 0.0100428 0.0100428 0.0100424 0.0100425 0.0100423 0.0100426 0.0100427
          0.0100428 0.010043 0.0100426 0.0100427 0.0100428 0.0100427 0.0100427 0.0100427 0.0100427 0.0100427 0.0100542 0.0100542
          0.0100542 0.0100542 0.0100542 0.0100542 0.0100542 0.0100542 0.0100542 0.0100542 0.0100542 0.0100534 0.0100544 0.0100545
          0.0100542 0.0100542 0.0100543 0.0100543 0.0100541 0.0100542 0.0100542 0.0100542 0.0100542 0.0100542 0.0100542 0.0100542
          0.0102837 0.0102837 0.0102837 0.0102837 0.0102837 0.0102837 0.0102837 0.0102837 0.0102837 0.0102837 0.0102838 0.0102841
          0.0102837 0.0102836 0.0102837 0.0102837 0.0102837 0.0102837 0.0102837 0.0102836 0.0102836 0.0102836 0.0102836 0.0102836
          0.0102836 0.0102836 0.0111968 0.0111968 0.0111968 0.0111968 0.0111968 0.0111968 0.0111968 0.0111968 0.0111968 0.0111968
          0.0111968 0.0111968 0.0111968 0.0111968 0.0111968 0.0111968 0.0111968 0.0111968 0.0111968 0.0111968 0.0111968 0.0111968
          0.0111968 0.0111968 0.0111968 0.0111968 0.0121397 0.0121397 0.0121397 0.0121397 0.0121397 0.0121397 0.0121397 0.0121397
          0.0121397 0.0121397 0.0121397 0.0121397 0.0121397 0.0121397 0.0121397 0.0121397 0.0121397 0.0121397 0.0121397 0.0121397
          0.0121397 0.0121397 0.0121397 0.0121397 0.0121397 0.0121397 0.0131208 0.0131208 0.0131208 0.0131208 0.0131208 0.0131208
          0.0131208 0.0131208 0.0131208 0.0131208 0.0131208 0.0131208 0.0131208 0.0131208 0.0131208 0.0131208 0.0131208 0.0131208
          0.0131208 0.0131208 0.0131208 0.0131208 0.0131208 0.0131208 0.0131208 0.0131208 0.0141649 0.0141649 0.0141649 0.0141649
          0.0141649 0.0141649 0.0141649 0.0141649 0.0141649 0.0141649 0.0141649 0.0141649 0.0141649 0.0141649 0.0141649 0.0141649
          0.0141649 0.0141649 0.0141649 0.0141649 0.0141649 0.0141649 0.0141649 0.0141649 0.0141649 0.0141649 0.0153173 0.0153173
          0.0153173 0.0153173 0.0153173 0.0153173 0.0153173 0.0153173 0.0153173 0.0153173 0.0153173 0.0153173 0.0153173 0.0153173
          0.0153173 0.0153173 0.0153173 0.0153173 0.0153173 0.0153173 0.0153173 0.0153173 0.0153173 0.0153173 0.0153173 0.0153173
          0.016681 0.016681 0.016681 0.016681 0.016681 0.016681 0.016681 0.016681 0.016681 0.0166809 0.0166809 0.0166809
          0.0166809 0.0166809 0.0166809 0.0166809 0.0166809 0.0166809 0.0166809 0.0166809 0.0166809 0.0166809 0.0166809 0.0166809
          0.0166809 0.0166809 0.0186488 0.0186488 0.0186488 0.0186488 0.0186488 0.0186488 0.0186488 0.0186488 0.0186487 0.0186487
          0.0186487 0.0186487 0.0186487 0.0186487 0.0186487 0.0186486 0.0186486 0.0186486 0.0186486 0.0186486 0.0186486 0.0186486
          0.0186486 0.0186486 0.0186486 0.0186486 0.0245636 0.0245636 0.0245636 0.0245635 0.0245635 0.0245635 0.0245634 0.0245633
          0.0245633 0.0245632 0.0245632 0.0245631 0.0245631 0.024563 0.024563 0.0245629 0.0245629 0.0245628 0.0245628 0.0245628
          0.0245627 0.0245627 0.0245627 0.0245627 0.0245627 0.0245626 0.0337905 0.0337905 0.0337904 0.0337904 0.0337903 0.0337902
          0.0337902 0.0337901 0.03379 0.0337899 0.0337898 0.0337897 0.0337896 0.0337895 0.0337895 0.0337894 0.0337893 0.0337892
          0.0337892 0.0337891 0.0337891 0.033789 0.033789 0.033789 0.0337889 0.0337889 0.0459267 0.0459267 0.0459266 0.0459266
          0.0459264 0.0459263 0.0459262 0.0459261 0.0459259 0.0459258 0.0459256 0.0459255 0.0459254 0.0459253 0.0459252 0.045925
          0.0459249 0.0459248 0.0459248 0.0459247 0.0459246 0.0459245 0.0459245 0.0459244 0.0459244 0.0459244 0.0609015 0.0609015
          0.0609014 0.0609013 0.0609011 0.0609009 0.0609007 0.0609005 0.0609003 0.0609001 0.0609 0.0608998 0.0608996 0.0608994
          0.0608993 0.0608991 0.060899 0.0608988 0.0608987 0.0608986 0.0608985 0.0608984 0.0608983 0.0608983 0.0608982 0.0608982
          0.0784246 0.0784245 0.0784243 0.0784241 0.0784239 0.0784237 0.0784234 0.0784231 0.0784229 0.0784226 0.0784224 0.0784221
          0.0784219 0.0784217 0.0784215 0.0784213 0.0784211 0.0784209 0.0784207 0.0784206 0.0784205 0.0784203 0.0784202 0.0784202
          0.0784201 0.0784201 0.0980399 0.0980398 0.0980396 0.0980393 0.098039 0.0980386 0.0980383 0.098038 0.0980376 0.0980373
          0.098037 0.0980367 0.0980364 0.0980361 0.0980358 0.0980356 0.0980353 0.0980351 0.0980349 0.0980347 0.0980346 0.0980344
          0.0980343 0.0980342 0.0980341 0.098034 0.119196 0.119196 0.119195 0.119195 0.119195 0.119194 0.119194 0.119193
          0.119193 0.119192 0.119192 0.119192 0.119191 0.119191 0.119191 0.11919 0.11919 0.11919 0.119189 0.119189
          0.119189 0.119189 0.119189 0.119189 0.119188 0.119188 0.141313 0.141313 0.141313 0.141312 0.141312 0.141311
          0.141311 0.14131 0.14131 0.141309 0.141309 0.141308 0.141308 0.141307 0.141307 0.141307 0.141306 0.141306
          0.141306 0.141305 0.141305 0.141305 0.141305 0.141305 0.141304 0.141304 0.163843 0.163842 0.163842 0.163841
          0.163841 0.16384 0.16384 0.163839 0.163838 0.163838 0.163837 0.163837 0.163836 0.163836 0.163835 0.163835
          0.163834 0.163834 0.163834 0.163833 0.163833 0.163833 0.163833 0.163833 0.163832 0.163832 0.186302 0.186301
          0.1863 0.1863 0.186299 0.186298 0.186297 0.186297 0.186296 0.186295 0.186295 0.186294 0.186294 0.186293
          0.186292 0.186292 0.186292 0.186291 0.186291 0.18629 0.18629 0.18629 0.18629 0.186289 0.186289 0.186289
        </DataArray>
        <DataArray type="Float32" Name="Sw" NumberOfComponents="1" format="ascii">
          0.989988 0.989988 0.989977 0.989977 0.989988 0.989977 0.989988 0.989977 0.989988 0.989977 0.989988 0.989977
          0.989988 0.989977 0.989988 0.989977 0.989989 0.989977 0.989989 0.989978 0.989988 0.989977 0.989989 0.989977
          0.989989 0.989977 0.989989 0.989977 0.989989 0.989977 0.989992 0.989974 0.98999 0.989977 0.989991 0.989978
          0.989986 0.989978 0.989985 0.98998 0.98999 0.989977 0.989988 0.989977 0.989988 0.989977 0.989988 0.989977
          0.989988 0.989977 0.989988 0.989977 0.98997 0.98997 0.98997 0.98997 0.98997 0.98997 0.98997 0.98997
          0.98997 0.98997 0.98997 0.989969 0.98997 0.98997 0.98997 0.98997 0.98997 0.989969 0.98997 0.98997
          0.989969 0.98997 0.98997 0.98997 0.98997 0.98997 0.989963 0.989963 0.989963 0.989963 0.989963 0.989963
          0.989963 0.989963 0.989963 0.989963 0.989963 0.989963 0.989963 0.989963 0.989963 0.989963 0.989963 0.989963
          0.989963 0.989963 0.989963 0.989963 0.989963 0.989963 0.989963 0.989963 0.989957 0.989957 0.989957 0.989957
          0.989957 0.989957 0.989957 0.989957 0.989957 0.989957 0.989957 0.989958 0.989958 0.989958 0.989957 0.989957
          0.989957 0.989957 0.989957 0.989957 0.989957 0.989957 0.989957 0.989957 0.989957 0.989957 0.989946 0.989946
          0.989946 0.989946 0.989946 0.989946 0.989946 0.989946 0.989946 0.989946 0.989946 0.989947 0.989946 0.989946
          0.989946 0.989946 0.989946 0.989946 0.989946 0.989946 0.989946 0.989946 0.989946 0.989946 0.989946 0.989946
          0.989716 0.989716 0.989716 0.989716 0.989716 0.989716 0.989716 0.989716 0.989716 0.989716 0.989716 0.989716
          0.989716 0.989716 0.989716 0.989716 0.989716 0.989716 0.989716 0.989716 0.989716 0.989716 0.989716 0.989716
          0.989716 0.989716 0.988803 0.988803 0.988803 0.988803 0.988803 0.988803 0.988803 0.988803 0.988803 0.988803
          0.988803 0.988803 0.988803 0.988803 0.988803 0.988803 0.988803 0.988803 0.988803 0.988803 0.988803 0.988803
          0.988803 0.988803 0.988803 0.988803 0.98786 0.98786 0.98786 0.98786 0.98786 0.98786 0.98786 0.98786
          0.98786 0.98786 0.98786 0.98786 0.98786 0.98786 0.98786 0.98786 0.98786 0.98786 0.98786 0.98786
          0.98786 0.98786 0.98786 0.98786 0.98786 0.98786 0.986879 0.986879 0.986879 0.986879 0.986879 0.986879
          0.986879 0.986879 0.986879 0.986879 0.986879 0.986879 0.986879 0.986879 0.986879 0.986879 0.986879 0.986879
          0.986879 0.986879 0.986879 0.986879 0.986879 0.986879 0.986879 0.986879 0.985835 0.985835 0.985835 0.985835
          0.985835 0.985835 0.985835 0.985835 0.985835 0.985835 0.985835 0.985835 0.985835 0.985835 0.985835 0.985835
          0.985835 0.985835 0.985835 0.985835 0.985835 0.985835 0.985835 0.985835 0.985835 0.985835 0.984683 0.984683
          0.984683 0.984683 0.984683 0.984683 0.984683 0.984683 0.984683 0.984683 0.984683 0.984683 0.984683 0.984683
          0.984683 0.984683 0.984683 0.984683 0.984683 0.984683 0.984683 0.984683 0.984683 0.984683 0.984683 0.984683
          0.983319 0.983319 0.983319 0.983319 0.983319 0.983319 0.983319 0.983319 0.983319 0.983319 0.983319 0.983319
          0.983319 0.983319 0.983319 0.983319 0.983319 0.983319 0.983319 0.983319 0.983319 0.983319 0.983319 0.983319
          0.983319 0.983319 0.981351 0.981351 0.981351 0.981351 0.981351 0.981351 0.981351 0.981351 0.981351 0.981351
          0.981351 0.981351 0.981351 0.981351 0.981351 0.981351 0.981351 0.981351 0.981351 0.981351 0.981351 0.981351
          0.981351 0.981351 0.981351 0.981351 0.975436 0.975436 0.975436 0.975436 0.975437 0.975437 0.975437 0.975437
          0.975437 0.975437 0.975437 0.975437 0.975437 0.975437 0.975437 0.975437 0.975437 0.975437 0.975437 0.975437
          0.975437 0.975437 0.975437 0.975437 0.975437 0.975437 0.966209 0.96621 0.96621 0.96621 0.96621 0.96621
          0.96621 0.96621 0.96621 0.96621 0.96621 0.96621 0.96621 0.96621 0.966211 0.966211 0.966211 0.966211
          0.966211 0.966211 0.966211 0.966211 0.966211 0.966211 0.966211 0.966211 0.954073 0.954073 0.954073 0.954073
          0.954074 0.954074 0.954074 0.954074 0.954074 0.954074 0.954074 0.954075 0.954075 0.954075 0.954075 0.954075
          0.954075 0.954075 0.954075 0.954075 0.954075 0.954075 0.954076 0.954076 0.954076 0.954076 0.939098 0.939098
          0.939099 0.939099 0.939099 0.939099 0.939099 0.939099 0.9391 0.9391 0.9391 0.9391 0.9391 0.939101
          0.939101 0.939101 0.939101 0.939101 0.939101 0.939101 0.939102 0.939102 0.939102 0.939102 0.939102 0.939102
          0.921575 0.921575 0.921576 0.921576 0.921576 0.921576 0.921577 0.921577 0.921577 0.921577 0.921578 0.921578
          0.921578 0.921578 0.921579 0.921579 0.921579 0.921579 0.921579 0.921579 0.92158 0.92158 0.92158 0.92158
          0.92158 0.92158 0.90196 0.90196 0.90196 0.901961 0.901961 0.901961 0.901962 0.901962 0.901962 0.901963
          0.901963 0.901963 0.901964 0.901964 0.901964 0.901964 0.901965 0.901965 0.901965 0.901965 0.901965 0.901966
          0.901966 0.901966 0.901966 0.901966 0.880804 0.880804 0.880805 0.880805 0.880805 0.880806 0.880806 0.880807
          0.880807 0.880808 0.880808 0.880808 0.880809 0.880809 0.880809 0.88081 0.88081 0.88081 0.88081 0.880811
          0.880811 0.880811 0.880811 0.880811 0.880812 0.880812 0.858687 0.858687 0.858687 0.858688 0.858688 0.858689
          0.858689 0.85869 0.85869 0.858691 0.858691 0.858692 0.858692 0.858693 0.858693 0.858693 0.858694 0.858694
          0.858694 0.858695 0.858695 0.858695 0.858695 0.858695 0.858696 0.858696 0.836157 0.836158 0.836158 0.836159
          0.836159 0.83616 0.83616 0.836161 0.836162 0.836162 0.836163 0.836163 0.836164 0.836164 0.836165 0.836165
          0.836166 0.836166 0.836166 0.836167 0.836167 0.836167 0.836167 0.836167 0.836168 0.836168 0.813698 0.813699
          0.8137 0.8137 0.813701 0.813702 0.813703 0.813703 0.813704 0.813705 0.813705 0.813706 0.813706 0.813707
          0.813707 0.813708 0.813708 0.813709 0.813709 0.813709 0.81371 0.81371 0.81371 0.813711 0.813711 0.813711
        </DataArray>
        <DataArray type="Float32" Name="pn" NumberOfComponents="1" format="ascii">
          101156 101156 100908 100908 101156 100908 101156 100908 101156 100908 101156 100908
          101156 100908 101156 100908 101156 100908 101156 100908 101156 100908 101156 100908
          101156 100908 101156 100908 101156 100908 101156 100908 101156 100908 101156 100908
          101157 100908 101157 100908 101156 100908 101156 100908 101156 100908 101156 100908
          101156 100908 101156 100908 100682 100682 100682 100682 100682 100682 100682 100682
          100682 100682 100682 100682 100682 100682 100682 100682 100682 100682 100682 100682
          100682 100682 100682 100682 100682 100682 100476 100476 100476 100476 100476 100476
          100476 100476 100476 100476 100476 100476 100476 100476 100476 100476 100476 100476
          100476 100476 100476 100476 100476 100476 100476 100476 100289 100289 100289 100289
          100289 100289 100289 100289 100289 100289 100289 100289 100289 100289 100289 100289
          100289 100289 100289 100289 100289 100289 100289 100289 100289 100289 100120 100120
          100120 100120 100120 100120 100120 100120 100120 100120 100120 100120 100120 100120
          100120 100120 100120 100120 100120 100120 100120 100120 100120 100120 100120 100120
          100002 100002 100002 100002 100002 100002 100002 100002 100002 100002 100002 100002
          100002 100002 100002 100002 100002 100002 100002 100002 100002 100002 100002 100002
          100002 100002 100001 100001 100001 100001 100001 100001 100001 100001 100001 100001
          100001 100001 100001 100001 100001 100001 100001 100001 100001 100001 100001 100001
          100001 100001 100001 100001 100001 100001 100001 100001 100001 100001 100001 100001
          100001 100001 100001 100001 100001 100001 100001 100001 100001 100001 100001 100001
          100001 100001 100001 100001 100001 100001 100001 100001 100001 100001 100001 100001
          100001 100001 100001 100001 100001 100001 100001 100001 100001 100001 100001 100001
          100001 100001 100001 100001 100001 100001 100001 100001 100001 100001 100001 100001
          100001 100001 100001 100001 100001 100001 100001 100001 100001 100001 100001 100001
          100001 100001 100001 100001 100001 100001 100001 100001 100001 100001 100001 100001
          100001 100001 100001 100001 100001 100001 100001 100001 100001 100001 100001 100001
          100001 100001 100001 100001 100001 100001 100001 100001 100001 100001 100001 100001
          100001 100001 100001 100001 100001 100001 100001 100001 100001 100001 100001 100001
          100001 100001 100001 100001 100001 100001 100001 100001 100001 100001 100001 100001
          100001 100001 100001 100001 100001 100001 100001 100001 100001 100001 100001 100001
          100001 100001 100001 100001 100001 100001 100001 100001 100001 100001 100001 100001
          100001 100001 100001 100001 100000 100000 100000 100000 100000 100000 100000 100000
          100000 100000 100000 100000 100000 100000 100000 100000 100000 100000 100000 100000
          100000 100000 100000 100000 100000 100000 100000 100000 100000 100000 100000 100000
          100000 100000 100000 100000 100000 100000 100000 100000 100000 100000 100000 100000
          100000 100000 100000 100000 100000 100000 100000 100000 100000 100000 100000 100000
          100000 100000 100000 100000 100000 100000 100000 100000 100000 100000 100000 100000
          100000 100000 100000 100000 100000 100000 100000 100000 100000 100000 100000 100000
          100000 100000 100000 100000 100000 100000 100000 100000 100000 100000 100000 100000
          100000 100000 100000 100000 100000 100000 100000 100000 100000 100000 100000 100000
          100000 100000 100000 100000 100000 100000 100000 100000 100000 100000 100000 100000
          100000 100000 100000 100000 100000 100000 100000 100000 100000 100000 100000 100000
          100000 100000 100000 100000 100000 100000 100000 100000 100000 100000 100000 100000
          100000 100000 100000 100000 100000 100000 100000 100000 100000 100000 100000 100000
          100000 100000 100000 100000 100000 100000 100000 100000 100000 100000 100000 100000
          100000 100000 100000 100000 100000 100000 100000 100000 100000 100000 100000 100000
          100000 100000 100000 100000 100000 100000 100000 100000 100000 100000 100000 100000
          100000 100000 100000 100000 100000 100000 100000 100000 100000 100000 100000 100000
          100000 100000 100000 100000 100000 100000 100000 100000 100000 100000 100000 100000
          100000 100000 100000 100000 100000 100000 100000 100000 100000 100000 100000 100000
          100000 100000 100000 100000 100000 100000 100000 100000 100000 100000 100000 100000
          100000 100000 100000 100000 100000 100000 100000 100000 100000 100000 100000 100000
          100000 100000 100000 100000 100000 100000 100000 100000 100000 100000 100000 100000
        </DataArray>
        <DataArray type="Float32" Name="pw" NumberOfComponents="1" format="ascii">
          101154 101154 100904 100904 101154 100904 101154 100904 101154 100904 101154 100904
          101154 100904 101154 100904 101154 100904 101154 100904 101154 100904 101154 100904
          101154 100904 101154 100904 101154 100904 101154 100904 101154 100904 101154 100904
          101154 100904 101154 100904 101154 100904 101154 100904 101154 100904 101154 100904
          101154 100904 101154 100904 100677 100677 100677 100677 100677 100677 100677 100677
          100677 100677 100677 100677 100677 100677 100677 100677 100677 100677 100677 100677
          100677 100677 100677 100677 100677 100677 100470 100470 100470 100470 100470 100470
          100470 100470 100470 100470 100470 100470 100470 100470 100470 100470 100470 100470
          100470 100470 100470 100470 100470 100470 100470 100470 100282 100282 100282 100282
          100282 100282 100282 100282 100282 100282 100282 100282 100282 100282 100282 100282
          100282 100282 100282 100282 100282 100282 100282 100282 100282 100282 100111 100111
          100111 100111 100111 100111 100111 100111 100111 100111 100111 100111 100111 100111
          100111 100111 100111 100111 100111 100111 100111 100111 100111 100111 100111 100111
          99955.6 99955.6 99955.6 99955.6 99955.6 99955.6 99955.6 99955.6 99955.6 99955.6 99955.6 99955.6
          99955.6 99955.6 99955.6 99955.6 99955.6 99955.6 99955.6 99955.6 99955.6 99955.6 99955.6 99955.6
          99955.6 99955.6 99814.3 99814.3 99814.3 99814.3 99814.3 99814.3 99814.3 99814.3 99814.3 99814.3
          99814.3 99814.4 99814.4 99814.4 99814.4 99814.4 99814.4 99814.4 99814.4 99814.4 99814.4 99814.4
          99814.4 99814.4 99814.4 99814.4 99685.9 99685.9 99685.9 99685.9 99685.9 99685.9 99685.9 99685.9
          99685.9 99685.9 99685.9 99685.9 99685.9 99685.9 99685.9 99685.9 99685.9 99685.9 99685.9 99685.9
          99685.9 99685.9 99685.9 99685.9 99685.9 99685.9 99569.2 99569.2 99569.2 99569.2 99569.2 99569.2
          99569.2 99569.2 99569.2 99569.2 99569.2 99569.2 99569.2 99569.2 99569.2 99569.2 99569.2 99569.2
          99569.2 99569.2 99569.2 99569.2 99569.2 99569.2 99569.2 99569.2 99463.1 99463.1 99463.1 99463.1
          99463.1 99463.1 99463.1 99463.1 99463.1 99463.1 99463.1 99463.1 99463.1 99463.1 99463.1 99463.1
          99463.1 99463.1 99463.1 99463.1 99463.1 99463.1 99463.1 99463.1 99463.1 99463.1 99366.6 99366.6
          99366.6 99366.6 99366.6 99366.6 99366.6 99366.6 99366.6 99366.6 99366.6 99366.6 99366.6 99366.6
          99366.6 99366.6 99366.6 99366.6 99366.6 99366.6 99366.6 99366.6 99366.6 99366.6 99366.6 99366.6
          99278.9 99278.9 99278.9 99278.9 99278.9 99278.9 99278.9 99278.9 99278.9 99278.9 99278.9 99278.9
          99278.9 99278.9 99278.9 99278.9 99278.9 99278.9 99278.9 99278.9 99278.9 99278.9 99278.9 99278.9
          99278.9 99278.9 99199.1 99199.1 99199.1 99199.1 99199.1 99199.1 99199.1 99199.1 99199.1 99199.1
          99199.1 99199.1 99199.1 99199.1 99199.1 99199.1 99199.1 99199.1 99199.1 99199.1 99199.1 99199.1
          99199.1 99199.1 99199.1 99199.1 99126.7 99126.7 99126.7 99126.7 99126.7 99126.7 99126.7 99126.7
          99126.7 99126.7 99126.7 99126.7 99126.7 99126.7 99126.7 99126.7 99126.7 99126.7 99126.7 99126.7
          99126.7 99126.7 99126.7 99126.7 99126.7 99126.7 99060.8 99060.8 99060.8 99060.8 99060.8 99060.8
          99060.8 99060.8 99060.8 99060.8 99060.8 99060.8 99060.8 99060.8 99060.8 99060.8 99060.8 99060.8
          99060.8 99060.8 99060.8 99060.8 99060.8 99060.8 99060.8 99060.8 99000.9 99000.9 99000.9 99000.9
          99000.9 99000.9 99000.9 99000.9 99000.9 99000.9 99000.9 99000.9 99000.9 99000.9 99000.9 99000.9
          99000.9 99000.9 99000.9 99000.9 99000.9 99000.9 99000.9 99000.9 99000.9 99000.9 98946.4 98946.4
          98946.4 98946.4 98946.4 98946.4 98946.4 98946.4 98946.4 98946.4 98946.4 98946.4 98946.4 98946.4
          98946.4 98946.4 98946.4 98946.4 98946.4 98946.4 98946.4 98946.4 98946.4 98946.4 98946.4 98946.4
          98896.9 98896.9 98896.9 98896.9 98896.9 98896.9 98896.9 98896.9 98896.9 98896.9 98896.9 98896.9
          98896.9 98896.9 98896.9 98896.9 98896.9 98896.9 98896.9 98896.9 98896.9 98896.9 98896.9 98896.9
          98896.9 98896.9 98851.9 98851.9 98851.9 98851.9 98851.9 98851.9 98851.9 98851.9 98851.9 98851.9
          98851.9 98851.9 98851.9 98851.9 98851.9 98851.9 98851.9 98851.9 98851.9 98851.9 98851.9 98851.9
          98851.9 98851.9 98851.9 98851.9 98811 98811 98811 98811 98811 98811 98811 98811
          98811 98811 98811 98811 98811 98811 98811 98811 98811 98811 98811 98811
          98811 98811 98811 98811 98811 98811 98773.8 98773.8 98773.8 98773.8 98773.8 98773.8
          98773.8 98773.8 98773.8 98773.8 98773.8 98773.8 98773.8 98773.8 98773.8 98773.8 98773.8 98773.8
          98773.8 98773.8 98773.8 98773.8 98773.8 98773.8 98773.8 98773.8 98739.9 98739.9 98739.9 98739.9
          98739.9 98739.9 98739.9 98739.9 98739.9 98739.9 98739.9 98739.9 98739.9 98739.9 98739.9 98739.9
          98739.9 98739.9 98739.9 98739.9 98739.9 98739.9 98739.9 98739.9 98739.9 98739.9 98709.2 98709.2
          98709.2 98709.2 98709.2 98709.2 98709.2 98709.2 98709.2 98709.2 98709.2 98709.2 98709.2 98709.2
          98709.2 98709.2 98709.2 98709.2 98709.2 98709.2 98709.2 98709.2 98709.2 98709.2 98709.2 98709.2
        </DataArray>
        <DataArray type="Float32" Name="pc" NumberOfComponents="1" format="ascii">
          1.93304 1.93308 3.76495 3.76502 1.93314 3.76512 1.93257 3.76462 1.93184 3.76469 1.9352 3.76667
          1.93404 3.76873 1.9296 3.77028 1.92538 3.76665 1.90697 3.75872 1.95578 3.76527 1.87606 3.77844
          1.88858 3.77615 1.82507 3.85859 1.92655 3.86466 1.39406 4.26587 1.74015 3.83644 1.55207 3.75547
          2.37077 3.73245 2.52758 3.35928 1.61634 3.85699 1.92994 3.76451 1.93314 3.76345 1.93225 3.76373
          1.93236 3.76365 1.93235 3.76365 5.08165 5.0817 5.08177 5.08128 5.08116 5.08194 5.08313 5.08343
          5.07906 5.07392 5.07175 5.10543 5.06481 5.04709 5.06858 4.98282 5.07682 5.14331 5.04515 4.93931
          5.10742 5.07996 5.0792 5.07911 5.07906 5.07905 6.1762 6.17625 6.17627 6.17581 6.17559 6.17591
          6.17671 6.17657 6.1727 6.17093 6.17208 6.2001 6.23369 6.22583 6.13402 6.11822 6.18495 6.22359
          6.14741 6.13698 6.1795 6.17301 6.17244 6.1723 6.17224 6.17222 7.14693 7.14696 7.14694 7.14651
          7.14625 7.14637 7.14691 7.14654 7.1436 7.14405 7.14561 7.08114 7.09744 7.06212 7.12022 7.13168
          7.15669 7.1776 7.12382 7.13872 7.1455 7.14255 7.14178 7.14157 7.14149 7.14147 9.05725 9.05726
          9.05718 9.05675 9.05643 9.05646 9.05684 9.05637 9.05434 9.05633 9.0564 8.92009 9.0798 9.10031
          9.04309 9.05698 9.0652 9.07584 9.03745 9.05739 9.05497 9.05152 9.05026 9.04989 9.04976 9.04972
          46.7403 46.7403 46.7401 46.7399 46.7397 46.7396 46.7396 46.7398 46.7408 46.7438 46.7526 46.8132
          46.7398 46.7325 46.7373 46.738 46.7398 46.7381 46.7363 46.7344 46.7342 46.7329 46.7316 46.7308
          46.7303 46.7302 186.745 186.745 186.745 186.745 186.745 186.745 186.745 186.745 186.745 186.745
          186.746 186.739 186.746 186.744 186.743 186.743 186.742 186.742 186.742 186.742 186.742 186.741
          186.741 186.741 186.741 186.741 315.05 315.05 315.05 315.05 315.05 315.05 315.05 315.049
          315.049 315.049 315.048 315.048 315.048 315.048 315.048 315.047 315.047 315.047 315.046 315.046
          315.046 315.046 315.046 315.046 315.046 315.046 431.696 431.696 431.696 431.696 431.696 431.695
          431.695 431.695 431.695 431.694 431.694 431.694 431.693 431.693 431.693 431.693 431.692 431.692
          431.692 431.691 431.691 431.691 431.691 431.691 431.691 431.691 537.734 537.734 537.734 537.734
          537.734 537.733 537.733 537.733 537.732 537.732 537.732 537.731 537.731 537.731 537.73 537.73
          537.73 537.729 537.729 537.729 537.729 537.729 537.728 537.728 537.728 537.728 634.128 634.128
          634.128 634.128 634.127 634.127 634.127 634.126 634.126 634.126 634.125 634.125 634.125 634.124
          634.124 634.124 634.123 634.123 634.123 634.122 634.122 634.122 634.122 634.122 634.122 634.122
          721.755 721.755 721.755 721.755 721.754 721.754 721.754 721.753 721.753 721.753 721.752 721.752
          721.751 721.751 721.75 721.75 721.75 721.749 721.749 721.749 721.749 721.748 721.748 721.748
          721.748 721.748 801.412 801.412 801.412 801.412 801.411 801.411 801.411 801.41 801.41 801.409
          801.409 801.408 801.408 801.407 801.407 801.407 801.406 801.406 801.406 801.405 801.405 801.405
          801.405 801.404 801.404 801.404 873.821 873.821 873.821 873.821 873.82 873.82 873.82 873.819
          873.819 873.818 873.818 873.817 873.817 873.816 873.816 873.815 873.815 873.815 873.814 873.814
          873.814 873.813 873.813 873.813 873.813 873.813 939.646 939.646 939.646 939.646 939.645 939.645
          939.644 939.644 939.643 939.643 939.642 939.641 939.641 939.641 939.64 939.64 939.639 939.639
          939.638 939.638 939.638 939.638 939.637 939.637 939.637 939.637 999.486 999.486 999.486 999.485
          999.485 999.484 999.484 999.483 999.483 999.482 999.481 999.481 999.48 999.48 999.479 999.479
          999.478 999.478 999.478 999.477 999.477 999.477 999.477 999.476 999.476 999.476 1053.89 1053.89
          1053.89 1053.88 1053.88 1053.88 1053.88 1053.88 1053.88 1053.88 1053.88 1053.88 1053.88 1053.88
          1053.88 1053.88 1053.88 1053.88 1053.88 1053.88 1053.88 1053.88 1053.88 1053.88 1053.87 1053.87
          1103.34 1103.34 1103.34 1103.34 1103.34 1103.34 1103.34 1103.34 1103.34 1103.33 1103.33 1103.33
          1103.33 1103.33 1103.33 1103.33 1103.33 1103.33 1103.33 1103.33 1103.33 1103.33 1103.33 1103.33
          1103.33 1103.33 1148.3 1148.3 1148.3 1148.3 1148.3 1148.29 1148.29 1148.29 1148.29 1148.29
          1148.29 1148.29 1148.29 1148.29 1148.29 1148.29 1148.29 1148.29 1148.29 1148.29 1148.29 1148.29
          1148.29 1148.29 1148.29 1148.29 1189.17 1189.17 1189.17 1189.17 1189.17 1189.17 1189.16 1189.16
          1189.16 1189.16 1189.16 1189.16 1189.16 1189.16 1189.16 1189.16 1189.16 1189.16 1189.16 1189.16
          1189.16 1189.16 1189.16 1189.16 1189.16 1189.16 1226.32 1226.32 1226.32 1226.32 1226.32 1226.32
          1226.32 1226.32 1226.32 1226.32 1226.32 1226.32 1226.32 1226.31 1226.31 1226.31 1226.31 1226.31
          1226.31 1226.31 1226.31 1226.31 1226.31 1226.31 1226.31 1226.31 1260.1 1260.1 1260.1 1260.1
          1260.1 1260.1 1260.1 1260.1 1260.1 1260.1 1260.09 1260.09 1260.09 1260.09 1260.09 1260.09
          1260.09 1260.09 1260.09 1260.09 1260.09 1260.09 1260.09 1260.09 1260.09 1260.09 1290.81 1290.81
          1290.81 1290.81 1290.81 1290.81 1290.81 1290.8 1290.8 1290.8 1290.8 1290.8 1290.8 1290.8
          1290.8 1290.8 1290.8 1290.8 1290.8 1290.8 1290.8 1290.8 1290.79 1290.79 1290.79 1290.79
        </DataArray>
        <DataArray type="Float32" Name="rhoW" NumberOfComponents="1" format="ascii">
          997.048 997.048 997.048 997.048 997.048 997.048 997.048 997.048 997.048 997.048 997.048 997.048
          997.048 997.048 997.048 997.048 997.048 997.048 997.048 997.048 997.048 997.048 997.048 997.048
          997.048 997.048 997.048 997.048 997.048 997.048 997.048 997.048 997.048 997.048 997.048 997.048
          997.048 997.048 997.048 997.048 997.048 997.048 997.048 997.048 997.048 997.048 997.048 997.048
          997.048 997.048 997.048 997.048 997.048 997.048 997.048 997.048 997.048 997.048 997.048 997.048
          997.048 997.048 997.048 997.048 997.048 997.048 997.048 997.048 997.048 997.048 997.048 997.048
          997.048 997.048 997.048 997.048 997.048 997.048 997.048 997.048 997.048 997.048 997.048 997.048
          997.048 997.048 997.048 997.048 997.048 997.048 997.048 997.048 997.048 997.048 997.048 997.048