<?xml version="1.0"?>
<VTKFile type="UnstructuredGrid" version="0.1" byte_order="LittleEndian">
  <UnstructuredGrid>
    <Piece NumberOfCells="575" NumberOfPoints="624">
      <PointData Scalars="Sn" Vectors="velocityW">
        <DataArray type="Float32" Name="Sn" NumberOfComponents="1" format="ascii">
          0.0100115 0.0100113 0.0100225 0.0100225 0.0100116 0.0100226 0.0100116 0.0100226 0.0100116 0.0100226 0.0100116 0.0100226
          0.0100116 0.0100226 0.0100116 0.0100226 0.0100116 0.0100226 0.0100116 0.0100226 0.0100117 0.0100227 0.0100116 0.0100226
          0.0100117 0.0100226 0.0100116 0.0100226 0.0100127 0.010022 0.0100112 0.0100224 0.0100122 0.0100229 0.0100106 0.010023
          0.0100131 0.0100223 0.0100095 0.010023 0.0100129 0.010021 0.0100125 0.0100225 0.0100116 0.0100226 0.0100116 0.0100226
          0.0100116 0.0100226 0.0100116 0.0100226 0.0100305 0.0100305 0.0100305 0.0100305 0.0100305 0.0100305 0.0100305 0.0100305
          0.0100305 0.0100305 0.0100306 0.0100307 0.01003 0.0100305 0.0100304 0.010031 0.0100306 0.0100305 0.01003 0.010031
          0.0100313 0.0100303 0.0100305 0.0100305 0.0100305 0.0100305 0.0100371 0.0100371 0.0100371 0.0100371 0.0100371 0.0100371
          0.0100371 0.0100371 0.0100371 0.0100371 0.010037 0.0100371 0.010037 0.0100372 0.0100369 0.0100372 0.010037 0.010037
          0.0100368 0.0100374 0.0100372 0.0100369 0.010037 0.010037 0.010037 0.010037 0.0100429 0.0100429 0.0100429 0.0100429
          0.0100429 0.0100429 0.0100429 0.0100429 0.0100429 0.0100429 0.0100428 0.0100428 0.0100431 0.0100431 0.0100429 0.0100429
          0.0100428 0.0100428 0.0100427 0.010043 0.0100429 0.0100428 0.0100429 0.0100429 0.0100429 0.0100429 0.0100544 0.0100544
          0.0100544 0.0100544 0.0100544 0.0100544 0.0100544 0.0100544 0.0100544 0.0100544 0.0100543 0.0100543 0.0100544 0.0100543
          0.0100544 0.0100543 0.0100543 0.0100543 0.0100543 0.0100544 0.0100544 0.0100543 0.0100544 0.0100544 0.0100544 0.0100544
          0.010284 0.010284 0.0102839 0.0102839 0.0102839 0.0102839 0.0102839 0.0102839 0.0102839 0.0102839 0.0102839 0.0102838
          0.0102838 0.0102838 0.0102838 0.0102838 0.0102838 0.0102838 0.0102838 0.0102839 0.0102839 0.0102839 0.0102839 0.0102839
          0.0102839 0.0102839 0.0111968 0.0111968 0.0111968 0.0111968 0.0111968 0.0111968 0.0111968 0.0111968 0.0111968 0.0111968
          0.0111968 0.0111968 0.0111968 0.0111968 0.0111968 0.0111968 0.0111968 0.0111968 0.0111968 0.0111968 0.0111968 0.0111968
          0.0111968 0.0111968 0.0111968 0.0111968 0.0121397 0.0121397 0.0121397 0.0121397 0.0121397 0.0121397 0.0121397 0.0121397
          0.0121397 0.0121397 0.0121397 0.0121397 0.0121397 0.0121397 0.0121397 0.0121397 0.0121397 0.0121397 0.0121397 0.0121397
          0.0121397 0.0121397 0.0121397 0.0121397 0.0121397 0.0121397 0.0131208 0.0131208 0.0131208 0.0131208 0.0131208 0.0131208
          0.0131208 0.0131208 0.0131208 0.0131208 0.0131208 0.0131208 0.0131208 0.0131208 0.0131208 0.0131208 0.0131208 0.0131208
          0.0131208 0.0131208 0.0131208 0.0131208 0.0131208 0.0131208 0.0131208 0.0131208 0.0141649 0.0141649 0.0141649 0.0141649
          0.0141649 0.0141649 0.0141649 0.0141649 0.0141649 0.0141649 0.0141649 0.0141649 0.0141649 0.0141649 0.0141649 0.0141649
          0.0141649 0.0141649 0.0141649 0.0141649 0.0141649 0.0141649 0.0141649 0.0141649 0.0141649 0.0141649 0.0153173 0.0153173
          0.0153173 0.0153173 0.0153173 0.0153173 0.0153173 0.0153173 0.0153173 0.0153173 0.0153173 0.0153173 0.0153173 0.0153173
          0.0153173 0.0153173 0.0153173 0.0153173 0.0153173 0.0153173 0.0153172 0.0153172 0.0153172 0.0153172 0.0153172 0.0153172
          0.016681 0.016681 0.016681 0.016681 0.016681 0.016681 0.0166809 0.0166809 0.0166809 0.0166809 0.0166809 0.0166809
          0.0166809 0.0166809 0.0166809 0.0166809 0.0166809 0.0166809 0.0166809 0.0166809 0.0166809 0.0166808 0.0166808 0.0166808
          0.0166808 0.0166808 0.0186488 0.0186488 0.0186488 0.0186488 0.0186488 0.0186488 0.0186487 0.0186487 0.0186487 0.0186487
          0.0186487 0.0186487 0.0186486 0.0186486 0.0186486 0.0186486 0.0186486 0.0186486 0.0186486 0.0186486 0.0186485 0.0186485
          0.0186485 0.0186485 0.0186485 0.0186485 0.0245635 0.0245635 0.0245635 0.0245634 0.0245634 0.0245633 0.0245633 0.0245632
          0.0245632 0.0245631 0.0245631 0.024563 0.024563 0.0245629 0.0245629 0.0245628 0.0245628 0.0245627 0.0245627 0.0245627
          0.0245626 0.0245626 0.0245626 0.0245626 0.0245625 0.0245625 0.0337903 0.0337903 0.0337903 0.0337902 0.0337901 0.0337901
          0.03379 0.0337899 0.0337898 0.0337897 0.0337896 0.0337895 0.0337895 0.0337894 0.0337893 0.0337892 0.0337891 0.0337891
          0.033789 0.033789 0.0337889 0.0337889 0.0337888 0.0337888 0.0337888 0.0337888 0.0459265 0.0459265 0.0459264 0.0459263
          0.0459262 0.0459261 0.045926 0.0459258 0.0459257 0.0459255 0.0459254 0.0459253 0.0459252 0.045925 0.0459249 0.0459248
          0.0459247 0.0459246 0.0459245 0.0459244 0.0459244 0.0459243 0.0459242 0.0459242 0.0459242 0.0459241 0.0609012 0.0609012
          0.0609011 0.0609009 0.0609008 0.0609006 0.0609004 0.0609002 0.0609 0.0608998 0.0608996 0.0608995 0.0608993 0.0608991
          0.060899 0.0608988 0.0608987 0.0608985 0.0608984 0.0608983 0.0608982 0.0608981 0.060898 0.060898 0.0608979 0.0608979
          0.0784242 0.0784241 0.0784239 0.0784238 0.0784235 0.0784233 0.078423 0.0784228 0.0784225 0.0784222 0.078422 0.0784217
          0.0784215 0.0784213 0.0784211 0.0784209 0.0784207 0.0784205 0.0784203 0.0784202 0.0784201 0.07842 0.0784199 0.0784198
          0.0784197 0.0784197 0.0980394 0.0980393 0.0980391 0.0980388 0.0980385 0.0980382 0.0980378 0.0980375 0.0980372 0.0980368
          0.0980365 0.0980362 0.0980359 0.0980356 0.0980353 0.0980351 0.0980349 0.0980346 0.0980344 0.0980343 0.0980341 0.0980339
          0.0980338 0.0980337 0.0980336 0.0980336 0.119195 0.119195 0.119195 0.119194 0.119194 0.119194 0.119193 0.119193
          0.119192 0.119192 0.119191 0.119191 0.119191 0.11919 0.11919 0.11919 0.119189 0.119189 0.119189 0.119189
          0.119189 0.119188 0.119188 0.119188 0.119188 0.119188 0.141313 0.141312 0.141312 0.141312 0.141311 0.141311
          0.14131 0.14131 0.141309 0.141309 0.141308 0.141308 0.141307 0.141307 0.141306 0.141306 0.141306 0.141305
          0.141305 0.141305 0.141305 0.141304 0.141304 0.141304 0.141304 0.141304 0.163842 0.163842 0.163841 0.163841
          0.16384 0.163839 0.163839 0.163838 0.163838 0.163837 0.163836 0.163836 0.163835 0.163835 0.163835 0.163834
          0.163834 0.163833 0.163833 0.163833 0.163832 0.163832 0.163832 0.163832 0.163832 0.163831 0.186301 0.1863
          0.1863 0.186299 0.186298 0.186297 0.186297 0.186296 0.186295 0.186295 0.186294 0.186293 0.186293 0.186292
          0.186292 0.186291 0.186291 0.18629 0.18629 0.18629 0.186289 0.186289 0.186289 0.186289 0.186289 0.186288
        </DataArray>
        <DataArray type="Float32" Name="Sw" NumberOfComponents="1" format="ascii">
          0.989989 0.989989 0.989977 0.989978 0.989988 0.989977 0.989988 0.989977 0.989988 0.989977 0.989988 0.989977
          0.989988 0.989977 0.989988 0.989977 0.989988 0.989977 0.989988 0.989977 0.989988 0.989977 0.989988 0.989977
          0.989988 0.989977 0.989988 0.989977 0.989987 0.989978 0.989989 0.989978 0.989988 0.989977 0.989989 0.989977
          0.989987 0.989978 0.98999 0.989977 0.989987 0.989979 0.989987 0.989978 0.989988 0.989977 0.989988 0.989977
          0.989988 0.989977 0.989988 0.989977 0.98997 0.98997 0.98997 0.98997 0.98997 0.98997 0.989969 0.989969
          0.989969 0.989969 0.989969 0.989969 0.98997 0.98997 0.98997 0.989969 0.989969 0.989969 0.98997 0.989969
          0.989969 0.98997 0.98997 0.98997 0.98997 0.98997 0.989963 0.989963 0.989963 0.989963 0.989963 0.989963
          0.989963 0.989963 0.989963 0.989963 0.989963 0.989963 0.989963 0.989963 0.989963 0.989963 0.989963 0.989963
          0.989963 0.989963 0.989963 0.989963 0.989963 0.989963 0.989963 0.989963 0.989957 0.989957 0.989957 0.989957
          0.989957 0.989957 0.989957 0.989957 0.989957 0.989957 0.989957 0.989957 0.989957 0.989957 0.989957 0.989957
          0.989957 0.989957 0.989957 0.989957 0.989957 0.989957 0.989957 0.989957 0.989957 0.989957 0.989946 0.989946
          0.989946 0.989946 0.989946 0.989946 0.989946 0.989946 0.989946 0.989946 0.989946 0.989946 0.989946 0.989946
          0.989946 0.989946 0.989946 0.989946 0.989946 0.989946 0.989946 0.989946 0.989946 0.989946 0.989946 0.989946
          0.989716 0.989716 0.989716 0.989716 0.989716 0.989716 0.989716 0.989716 0.989716 0.989716 0.989716 0.989716
          0.989716 0.989716 0.989716 0.989716 0.989716 0.989716 0.989716 0.989716 0.989716 0.989716 0.989716 0.989716
          0.989716 0.989716 0.988803 0.988803 0.988803 0.988803 0.988803 0.988803 0.988803 0.988803 0.988803 0.988803
          0.988803 0.988803 0.988803 0.988803 0.988803 0.988803 0.988803 0.988803 0.988803 0.988803 0.988803 0.988803
          0.988803 0.988803 0.988803 0.988803 0.98786 0.98786 0.98786 0.98786 0.98786 0.98786 0.98786 0.98786
          0.98786 0.98786 0.98786 0.98786 0.98786 0.98786 0.98786 0.98786 0.98786 0.98786 0.98786 0.98786
          0.98786 0.98786 0.98786 0.98786 0.98786 0.98786 0.986879 0.986879 0.986879 0.986879 0.986879 0.986879
          0.986879 0.986879 0.986879 0.986879 0.986879 0.986879 0.986879 0.986879 0.986879 0.986879 0.986879 0.986879
          0.986879 0.986879 0.986879 0.986879 0.986879 0.986879 0.986879 0.986879 0.985835 0.985835 0.985835 0.985835
          0.985835 0.985835 0.985835 0.985835 0.985835 0.985835 0.985835 0.985835 0.985835 0.985835 0.985835 0.985835
          0.985835 0.985835 0.985835 0.985835 0.985835 0.985835 0.985835 0.985835 0.985835 0.985835 0.984683 0.984683
          0.984683 0.984683 0.984683 0.984683 0.984683 0.984683 0.984683 0.984683 0.984683 0.984683 0.984683 0.984683
          0.984683 0.984683 0.984683 0.984683 0.984683 0.984683 0.984683 0.984683 0.984683 0.984683 0.984683 0.984683
          0.983319 0.983319 0.983319 0.983319 0.983319 0.983319 0.983319 0.983319 0.983319 0.983319 0.983319 0.983319
          0.983319 0.983319 0.983319 0.983319 0.983319 0.983319 0.983319 0.983319 0.983319 0.983319 0.983319 0.983319
          0.983319 0.983319 0.981351 0.981351 0.981351 0.981351 0.981351 0.981351 0.981351 0.981351 0.981351 0.981351
          0.981351 0.981351 0.981351 0.981351 0.981351 0.981351 0.981351 0.981351 0.981351 0.981351 0.981351 0.981351
          0.981351 0.981351 0.981351 0.981351 0.975437 0.975437 0.975437 0.975437 0.975437 0.975437 0.975437 0.975437
          0.975437 0.975437 0.975437 0.975437 0.975437 0.975437 0.975437 0.975437 0.975437 0.975437 0.975437 0.975437
          0.975437 0.975437 0.975437 0.975437 0.975437 0.975437 0.96621 0.96621 0.96621 0.96621 0.96621 0.96621
          0.96621 0.96621 0.96621 0.96621 0.96621 0.96621 0.966211 0.966211 0.966211 0.966211 0.966211 0.966211
          0.966211 0.966211 0.966211 0.966211 0.966211 0.966211 0.966211 0.966211 0.954073 0.954074 0.954074 0.954074
          0.954074 0.954074 0.954074 0.954074 0.954074 0.954074 0.954075 0.954075 0.954075 0.954075 0.954075 0.954075
          0.954075 0.954075 0.954075 0.954076 0.954076 0.954076 0.954076 0.954076 0.954076 0.954076 0.939099 0.939099
          0.939099 0.939099 0.939099 0.939099 0.9391 0.9391 0.9391 0.9391 0.9391 0.939101 0.939101 0.939101
          0.939101 0.939101 0.939101 0.939101 0.939102 0.939102 0.939102 0.939102 0.939102 0.939102 0.939102 0.939102
          0.921576 0.921576 0.921576 0.921576 0.921576 0.921577 0.921577 0.921577 0.921578 0.921578 0.921578 0.921578
          0.921579 0.921579 0.921579 0.921579 0.921579 0.921579 0.92158 0.92158 0.92158 0.92158 0.92158 0.92158
          0.92158 0.92158 0.901961 0.901961 0.901961 0.901961 0.901962 0.901962 0.901962 0.901963 0.901963 0.901963
          0.901963 0.901964 0.901964 0.901964 0.901965 0.901965 0.901965 0.901965 0.901966 0.901966 0.901966 0.901966
          0.901966 0.901966 0.901966 0.901966 0.880805 0.880805 0.880805 0.880806 0.880806 0.880806 0.880807 0.880807
          0.880808 0.880808 0.880809 0.880809 0.880809 0.88081 0.88081 0.88081 0.880811 0.880811 0.880811 0.880811
          0.880812 0.880812 0.880812 0.880812 0.880812 0.880812 0.858687 0.858688 0.858688 0.858688 0.858689 0.858689
          0.85869 0.858691 0.858691 0.858692 0.858692 0.858692 0.858693 0.858693 0.858694 0.858694 0.858694 0.858695
          0.858695 0.858695 0.858695 0.858696 0.858696 0.858696 0.858696 0.858696 0.836158 0.836158 0.836159 0.836159
          0.83616 0.836161 0.836161 0.836162 0.836162 0.836163 0.836164 0.836164 0.836165 0.836165 0.836165 0.836166
          0.836166 0.836167 0.836167 0.836167 0.836168 0.836168 0.836168 0.836168 0.836168 0.836169 0.813699 0.8137
          0.8137 0.813701 0.813702 0.813703 0.813703 0.813704 0.813705 0.813705 0.813706 0.813707 0.813707 0.813708
          0.813708 0.813709 0.813709 0.81371 0.81371 0.81371 0.813711 0.813711 0.813711 0.813711 0.813711 0.813712
        </DataArray>
        <DataArray type="Float32" Name="pn" NumberOfComponents="1" format="ascii">
          101156 101156 100908 100908 101156 100908 101156 100908 101156 100908 101156 100908
          101156 100908 101156 100908 101156 100908 101156 100908 101156 100908 101156 100908
          101156 100908 101156 100908 101157 100908 101156 100908 101157 100908 101156 100908
          101157 100908 101156 100908 101157 100908 101157 100908 101156 100908 101156 100908
          101156 100908 101156 100908 100682 100682 100682 100682 100682 100682 100682 100682
          100682 100682 100682 100682 100682 100682 100682 100682 100682 100682 100682 100682
          100682 100682 100682 100682 100682 100682 100476 100476 100476 100476 100476 100476
          100476 100476 100476 100476 100476 100476 100476 100476 100476 100476 100476 100476
          100476 100476 100476 100476 100476 100476 100476 100476 100289 100289 100289 100289
          100289 100289 100289 100289 100289 100289 100289 100289 100289 100289 100289 100289
          100289 100289 100289 100289 100289 100289 100289 100289 100289 100289 100120 100120
          100120 100120 100120 100120 100120 100120 100120 100120 100120 100120 100120 100120
          100120 100120 100120 100120 100120 100120 100120 100120 100120 100120 100120 100120
          100002 100002 100002 100002 100002 100002 100002 100002 100002 100002 100002 100002
          100002 100002 100002 100002 100002 100002 100002 100002 100002 100002 100002 100002
          100002 100002 100001 100001 100001 100001 100001 100001 100001 100001 100001 100001
          100001 100001 100001 100001 100001 100001 100001 100001 100001 100001 100001 100001
          100001 100001 100001 100001 100001 100001 100001 100001 100001 100001 100001 100001
          100001 100001 100001 100001 100001 100001 100001 100001 100001 100001 100001 100001
          100001 100001 100001 100001 100001 100001 100001 100001 100001 100001 100001 100001
          100001 100001 100001 100001 100001 100001 100001 100001 100001 100001 100001 100001
          100001 100001 100001 100001 100001 100001 100001 100001 100001 100001 100001 100001
          100001 100001 100001 100001 100001 100001 100001 100001 100001 100001 100001 100001
          100001 100001 100001 100001 100001 100001 100001 100001 100001 100001 100001 100001
          100001 100001 100001 100001 100001 100001 100001 100001 100001 100001 100001 100001
          100001 100001 100001 100001 100001 100001 100001 100001 100001 100001 100001 100001
          100001 100001 100001 100001 100001 100001 100001 100001 100001 100001 100001 100001
          100001 100001 100001 100001 100001 100001 100001 100001 100001 100001 100001 100001
          100001 100001 100001 100001 100001 100001 100001 100001 100001 100001 100001 100001
          100001 100001 100001 100001 100001 100001 100001 100001 100001 100001 100001 100001
          100001 100001 100001 100001 100000 100000 100000 100000 100000 100000 100000 100000
          100000 100000 100000 100000 100000 100000 100000 100000 100000 100000 100000 100000
          100000 100000 100000 100000 100000 100000 100000 100000 100000 100000 100000 100000
          100000 100000 100000 100000 100000 100000 100000 100000 100000 100000 100000 100000
          100000 100000 100000 100000 100000 100000 100000 100000 100000 100000 100000 100000
          100000 100000 100000 100000 100000 100000 100000 100000 100000 100000 100000 100000
          100000 100000 100000 100000 100000 100000 100000 100000 100000 100000 100000 100000
          100000 100000 100000 100000 100000 100000 100000 100000 100000 100000 100000 100000
          100000 100000 100000 100000 100000 100000 100000 100000 100000 100000 100000 100000
          100000 100000 100000 100000 100000 100000 100000 100000 100000 100000 100000 100000
          100000 100000 100000 100000 100000 100000 100000 100000 100000 100000 100000 100000
          100000 100000 100000 100000 100000 100000 100000 100000 100000 100000 100000 100000
          100000 100000 100000 100000 100000 100000 100000 100000 100000 100000 100000 100000
          100000 100000 100000 100000 100000 100000 100000 100000 100000 100000 100000 100000
          100000 100000 100000 100000 100000 100000 100000 100000 100000 100000 100000 100000
          100000 100000 100000 100000 100000 100000 100000 100000 100000 100000 100000 100000
          100000 100000 100000 100000 100000 100000 100000 100000 100000 100000 100000 100000
          100000 100000 100000 100000 100000 100000 100000 100000 100000 100000 100000 100000
          100000 100000 100000 100000 100000 100000 100000 100000 100000 100000 100000 100000
          100000 100000 100000 100000 100000 100000 100000 100000 100000 100000 100000 100000
          100000 100000 100000 100000 100000 100000 100000 100000 100000 100000 100000 100000
          100000 100000 100000 100000 100000 100000 100000 100000 100000 100000 100000 100000
        </DataArray>
        <DataArray type="Float32" Name="pw" NumberOfComponents="1" format="ascii">
          101154 101154 100904 100904 101154 100904 101154 100904 101154 100904 101154 100904
          101154 100904 101154 100904 101154 100904 101154 100904 101154 100904 101154 100904
          101154 100904 101154 100904 101154 100904 101154 100904 101154 100904 101154 100904
          101154 100904 101154 100904 101154 100904 101154 100904 101154 100904 101154 100904
          101154 100904 101154 100904 100677 100677 100677 100677 100677 100677 100677 100677
          100677 100677 100677 100677 100677 100677 100677 100677 100677 100677 100677 100677
          100677 100677 100677 100677 100677 100677 100470 100470 100470 100470 100470 100470
          100470 100470 100470 100470 100470 100470 100470 100470 100470 100470 100470 100470
          100470 100470 100470 100470 100470 100470 100470 100470 100282 100282 100282 100282
          100282 100282 100282 100282 100282 100282 100282 100282 100282 100282 100282 100282
          100282 100282 100282 100282 100282 100282 100282 100282 100282 100282 100111 100111
          100111 100111 100111 100111 100111 100111 100111 100111 100111 100111 100111 100111
          100111 100111 100111 100111 100111 100111 100111 100111 100111 100111 100111 100111
          99955.6 99955.6 99955.6 99955.6 99955.6 99955.6 99955.6 99955.6 99955.6 99955.6 99955.6 99955.6
          99955.6 99955.6 99955.6 99955.6 99955.6 99955.6 99955.6 99955.6 99955.6 99955.6 99955.6 99955.6
          99955.6 99955.6 99814.3 99814.3 99814.3 99814.3 99814.3 99814.4 99814.4 99814.4 99814.4 99814.4
          99814.4 99814.4 99814.4 99814.4 99814.4 99814.4 99814.4 99814.4 99814.4 99814.4 99814.4 99814.4
          99814.4 99814.4 99814.4 99814.4 99685.9 99685.9 99685.9 99685.9 99685.9 99685.9 99685.9 99685.9
          99685.9 99685.9 99685.9 99685.9 99685.9 99685.9 99685.9 99685.9 99685.9 99685.9 99685.9 99685.9
          99685.9 99685.9 99685.9 99685.9 99685.9 99685.9 99569.2 99569.2 99569.2 99569.2 99569.2 99569.2
          99569.2 99569.2 99569.2 99569.2 99569.2 99569.2 99569.2 99569.2 99569.2 99569.2 99569.2 99569.2
          99569.2 99569.2 99569.2 99569.2 99569.2 99569.2 99569.2 99569.2 99463.1 99463.1 99463.1 99463.1
          99463.1 99463.1 99463.1 99463.1 99463.1 99463.1 99463.1 99463.1 99463.1 99463.1 99463.1 99463.1
          99463.1 99463.1 99463.1 99463.1 99463.1 99463.1 99463.1 99463.1 99463.1 99463.1 99366.6 99366.6
          99366.6 99366.6 99366.6 99366.6 99366.6 99366.6 99366.6 99366.6 99366.6 99366.6 99366.6 99366.6
          99366.6 99366.6 99366.6 99366.6 99366.6 99366.6 99366.6 99366.6 99366.6 99366.6 99366.6 99366.6
          99278.9 99278.9 99278.9 99278.9 99278.9 99278.9 99278.9 99278.9 99278.9 99278.9 99278.9 99278.9
          99278.9 99278.9 99278.9 99278.9 99278.9 99278.9 99278.9 99278.9 99278.9 99278.9 99278.9 99278.9
          99278.9 99278.9 99199.1 99199.1 99199.1 99199.1 99199.1 99199.1 99199.1 99199.1 99199.1 99199.1
          99199.1 99199.1 99199.1 99199.1 99199.1 99199.1 99199.1 99199.1 99199.1 99199.1 99199.1 99199.1
          99199.1 99199.1 99199.1 99199.1 99126.7 99126.7 99126.7 99126.7 99126.7 99126.7 99126.7 99126.7
          99126.7 99126.7 99126.7 99126.7 99126.7 99126.7 99126.7 99126.7 99126.7 99126.7 99126.7 99126.7
          99126.7 99126.7 99126.7 99126.7 99126.7 99126.7 99060.8 99060.8 99060.8 99060.8 99060.8 99060.8
          99060.8 99060.8 99060.8 99060.8 99060.8 99060.8 99060.8 99060.8 99060.8 99060.8 99060.8 99060.8
          99060.8 99060.8 99060.8 99060.8 99060.8 99060.8 99060.8 99060.8 99000.9 99000.9 99000.9 99000.9
          99000.9 99000.9 99000.9 99000.9 99000.9 99000.9 99000.9 99000.9 99000.9 99000.9 99000.9 99000.9
          99000.9 99000.9 99000.9 99000.9 99000.9 99000.9 99000.9 99000.9 99000.9 99000.9 98946.4 98946.4
          98946.4 98946.4 98946.4 98946.4 98946.4 98946.4 98946.4 98946.4 98946.4 98946.4 98946.4 98946.4
          98946.4 98946.4 98946.4 98946.4 98946.4 98946.4 98946.4 98946.4 98946.4 98946.4 98946.4 98946.4
          98896.9 98896.9 98896.9 98896.9 98896.9 98896.9 98896.9 98896.9 98896.9 98896.9 98896.9 98896.9
          98896.9 98896.9 98896.9 98896.9 98896.9 98896.9 98896.9 98896.9 98896.9 98896.9 98896.9 98896.9
          98896.9 98896.9 98851.9 98851.9 98851.9 98851.9 98851.9 98851.9 98851.9 98851.9 98851.9 98851.9
          98851.9 98851.9 98851.9 98851.9 98851.9 98851.9 98851.9 98851.9 98851.9 98851.9 98851.9 98851.9
          98851.9 98851.9 98851.9 98851.9 98811 98811 98811 98811 98811 98811 98811 98811
          98811 98811 98811 98811 98811 98811 98811 98811 98811 98811 98811 98811
          98811 98811 98811 98811 98811 98811 98773.8 98773.8 98773.8 98773.8 98773.8 98773.8
          98773.8 98773.8 98773.8 98773.8 98773.8 98773.8 98773.8 98773.8 98773.8 98773.8 98773.8 98773.8
          98773.8 98773.8 98773.8 98773.8 98773.8 98773.8 98773.8 98773.8 98739.9 98739.9 98739.9 98739.9
          98739.9 98739.9 98739.9 98739.9 98739.9 98739.9 98739.9 98739.9 98739.9 98739.9 98739.9 98739.9
          98739.9 98739.9 98739.9 98739.9 98739.9 98739.9 98739.9 98739.9 98739.9 98739.9 98709.2 98709.2
          98709.2 98709.2 98709.2 98709.2 98709.2 98709.2 98709.2 98709.2 98709.2 98709.2 98709.2 98709.2
          98709.2 98709.2 98709.2 98709.2 98709.2 98709.2 98709.2 98709.2 98709.2 98709.2 98709.2 98709.2
        </DataArray>
        <DataArray type="Float32" Name="pc" NumberOfComponents="1" format="ascii">
          1.91824 1.89466 3.76857 3.76096 1.93683 3.77466 1.93607 3.77419 1.93513 3.77386 1.93581 3.77526
          1.94386 3.77867 1.93667 3.77851 1.94736 3.78242 1.93658 3.77909 1.95863 3.79363 1.94163 3.78379
          1.96247 3.78864 1.94808 3.78489 2.13098 3.68521 1.87843 3.7443 2.04916 3.83579 1.78256 3.84172
          2.18875 3.72887 1.59529 3.84707 2.16076 3.51395 2.09097 3.75642 1.94519 3.77411 1.9385 3.77329
          1.93654 3.77356 1.9366 3.77352 5.09617 5.09424 5.09639 5.09549 5.09518 5.0963 5.09746 5.09874
          5.0999 5.09957 5.11688 5.13468 5.0153 5.09554 5.08206 5.18387 5.11182 5.10454 5.02475 5.19059
          5.22818 5.06843 5.092 5.09315 5.09345 5.09344 6.19757 6.19751 6.19522 6.19394 6.19363 6.19461
          6.1954 6.19719 6.19835 6.19795 6.19292 6.20104 6.19246 6.21868 6.17524 6.22173 6.18739 6.18963
          6.14646 6.24704 6.22542 6.17406 6.1886 6.19022 6.19044 6.19044 7.17297 7.17332 7.16974 7.16824
          7.16793 7.16879 7.16963 7.17159 7.17306 7.17193 7.15698 7.15532 7.19768 7.20282 7.17323 7.16714
          7.15072 7.15856 7.13787 7.19147 7.17209 7.15328 7.16161 7.16304 7.16321 7.16321 9.09165 9.09191
          9.088 9.08628 9.0859 9.08673 9.08782 9.08997 9.09173 9.08976 9.07151 9.07 9.08192 9.07236
          9.08389 9.07268 9.06213 9.07203 9.06357 9.09204 9.0807 9.07268 9.07768 9.07892 9.07908 9.07909
          46.7862 46.7857 46.7847 46.7837 46.7832 46.7832 46.7835 46.7834 46.7816 46.7769 46.771 46.7677
          46.7684 46.7635 46.7629 46.763 46.763 46.764 46.7673 46.7695 46.7708 46.7705 46.7707 46.7714
          46.7718 46.7719 186.746 186.746 186.746 186.746 186.746 186.745 186.745 186.745 186.744 186.744
          186.744 186.744 186.743 186.743 186.743 186.743 186.742 186.742 186.742 186.742 186.742 186.742
          186.741 186.741 186.741 186.741 315.05 315.05 315.05 315.05 315.05 315.049 315.049 315.049
          315.049 315.048 315.048 315.048 315.048 315.047 315.047 315.047 315.046 315.046 315.046 315.046
          315.046 315.045 315.045 315.045 315.045 315.045 431.695 431.695 431.695 431.695 431.695 431.695
          431.695 431.694 431.694 431.694 431.693 431.693 431.693 431.692 431.692 431.692 431.691 431.691
          431.691 431.691 431.691 431.69 431.69 431.69 431.69 431.69 537.733 537.733 537.733 537.733
          537.733 537.732 537.732 537.732 537.732 537.731 537.731 537.731 537.73 537.73 537.729 537.729
          537.729 537.729 537.728 537.728 537.728 537.728 537.728 537.727 537.727 537.727 634.127 634.127
          634.127 634.127 634.127 634.126 634.126 634.126 634.125 634.125 634.124 634.124 634.124 634.123
          634.123 634.123 634.122 634.122 634.122 634.121 634.121 634.121 634.121 634.121 634.121 634.121
          721.754 721.754 721.754 721.754 721.753 721.753 721.753 721.752 721.752 721.752 721.751 721.751
          721.75 721.75 721.75 721.749 721.749 721.748 721.748 721.748 721.748 721.747 721.747 721.747
          721.747 721.747 801.411 801.411 801.411 801.411 801.41 801.41 801.41 801.409 801.409 801.408
          801.408 801.407 801.407 801.406 801.406 801.406 801.405 801.405 801.405 801.404 801.404 801.404
          801.404 801.404 801.403 801.403 873.82 873.82 873.82 873.82 873.819 873.819 873.819 873.818
          873.818 873.817 873.817 873.816 873.816 873.815 873.815 873.814 873.814 873.814 873.813 873.813
          873.813 873.812 873.812 873.812 873.812 873.812 939.645 939.645 939.645 939.645 939.644 939.644
          939.643 939.643 939.642 939.642 939.641 939.641 939.64 939.64 939.639 939.639 939.638 939.638
          939.637 939.637 939.637 939.637 939.636 939.636 939.636 939.636 999.485 999.485 999.485 999.484
          999.484 999.483 999.483 999.482 999.482 999.481 999.48 999.48 999.479 999.479 999.478 999.478
          999.477 999.477 999.477 999.476 999.476 999.476 999.476 999.475 999.475 999.475 1053.88 1053.88
          1053.88 1053.88 1053.88 1053.88 1053.88 1053.88 1053.88 1053.88 1053.88 1053.88 1053.88 1053.88
          1053.88 1053.88 1053.88 1053.88 1053.88 1053.88 1053.87 1053.87 1053.87 1053.87 1053.87 1053.87
          1103.34 1103.34 1103.34 1103.34 1103.34 1103.34 1103.34 1103.33 1103.33 1103.33 1103.33 1103.33
          1103.33 1103.33 1103.33 1103.33 1103.33 1103.33 1103.33 1103.33 1103.33 1103.33 1103.33 1103.33
          1103.33 1103.33 1148.3 1148.3 1148.3 1148.3 1148.29 1148.29 1148.29 1148.29 1148.29 1148.29
          1148.29 1148.29 1148.29 1148.29 1148.29 1148.29 1148.29 1148.29 1148.29 1148.29 1148.29 1148.29
          1148.28 1148.28 1148.28 1148.28 1189.17 1189.17 1189.17 1189.17 1189.17 1189.16 1189.16 1189.16
          1189.16 1189.16 1189.16 1189.16 1189.16 1189.16 1189.16 1189.16 1189.16 1189.16 1189.16 1189.16
          1189.16 1189.16 1189.16 1189.15 1189.15 1189.15 1226.32 1226.32 1226.32 1226.32 1226.32 1226.32
          1226.32 1226.32 1226.32 1226.32 1226.32 1226.32 1226.31 1226.31 1226.31 1226.31 1226.31 1226.31
          1226.31 1226.31 1226.31 1226.31 1226.31 1226.31 1226.31 1226.31 1260.1 1260.1 1260.1 1260.1
          1260.1 1260.1 1260.1 1260.1 1260.1 1260.09 1260.09 1260.09 1260.09 1260.09 1260.09 1260.09
          1260.09 1260.09 1260.09 1260.09 1260.09 1260.09 1260.09 1260.09 1260.09 1260.09 1290.81 1290.81
          1290.81 1290.81 1290.81 1290.81 1290.8 1290.8 1290.8 1290.8 1290.8 1290.8 1290.8 1290.8
          1290.8 1290.8 1290.8 1290.8 1290.8 1290.79 1290.79 1290.79 1290.79 1290.79 1290.79 1290.79
        </DataArray>
        <DataArray type="Float32" Name="rhoW" NumberOfComponents="1" format="ascii">
          997.048 997.048 997.048 997.048 997.048 997.048 997.048 997.048 997.048 997.048 997.048 997.048
          997.048 997.048 997.048 997.048 997.048 997.048 997.048 997.048 997.048 997.048 997.048 997.048
          997.048 997.048 997.048 997.048 997.048 997.048 997.048 997.048 997.048 997.048 997.048 997.048
          997.048 997.048 997.048 997.048 997.048 997.048 997.048 997.048 997.048 997.048 997.048 997.048
          997.048 997.048 997.048 997.048 997.048 997.048 997.048 997.048 997.048 997.048 997.048 997.048
          997.048 997.048 997.048 997.048 997.048 997.048 997.048 997.048 997.048 997.048 997.048 997.048
          997.048 997.048 997.048 997.048 997.048 997.048 997.048 997.048 997.048 997.048 997.048 997.048
          997.048 997.048 997.048 997.048 997.048 997.048 997.048 997.048 997.048 997.048 997.048 997.048