<?xml version="1.0"?>
<VTKFile type="UnstructuredGrid" version="0.1" byte_order="LittleEndian">
  <UnstructuredGrid>
    <Piece NumberOfCells="575" NumberOfPoints="624">
      <PointData Scalars="Sn" Vectors="velocityW">
        <DataArray type="Float32" Name="Sn" NumberOfComponents="1" format="ascii">
          0.0100115 0.0100115 0.0100225 0.0100225 0.0100115 0.0100225 0.0100115 0.0100225 0.0100115 0.0100225 0.0100115 0.0100225
          0.0100115 0.0100225 0.0100115 0.0100225 0.0100114 0.0100225 0.0100114 0.0100225 0.0100117 0.0100224 0.0100115 0.0100224
          0.0100116 0.0100225 0.0100113 0.0100227 0.0100118 0.0100221 0.0100116 0.0100222 0.0100112 0.0100231 0.010012 0.0100226
          0.0100118 0.0100226 0.0100094 0.010024 0.010011 0.0100226 0.0100104 0.0100228 0.0100115 0.0100225 0.0100115 0.0100225
          0.0100115 0.0100225 0.0100115 0.0100225 0.0100303 0.0100303 0.0100303 0.0100303 0.0100303 0.0100303 0.0100303 0.0100303
          0.0100303 0.0100304 0.0100303 0.0100304 0.01003 0.0100291 0.0100304 0.0100301 0.0100302 0.0100304 0.0100302 0.0100304
          0.0100304 0.0100305 0.0100303 0.0100303 0.0100303 0.0100303 0.0100369 0.0100369 0.0100369 0.0100369 0.0100369 0.0100369
          0.0100369 0.0100369 0.0100368 0.0100369 0.0100369 0.0100369 0.0100369 0.0100369 0.0100369 0.0100368 0.0100366 0.0100369
          0.0100368 0.0100368 0.0100369 0.0100369 0.0100369 0.0100368 0.0100368 0.0100368 0.0100427 0.0100427 0.0100427 0.0100427
          0.0100427 0.0100427 0.0100427 0.0100427 0.0100427 0.0100427 0.0100427 0.0100424 0.0100426 0.0100432 0.0100427 0.0100426
          0.0100424 0.0100426 0.0100426 0.0100426 0.0100426 0.0100427 0.0100426 0.0100426 0.0100426 0.0100426 0.0100542 0.0100542
          0.0100542 0.0100542 0.0100541 0.0100541 0.0100541 0.0100541 0.0100541 0.0100541 0.0100542 0.0100542 0.0100545 0.010054
          0.0100541 0.0100541 0.0100539 0.0100541 0.0100541 0.0100541 0.0100541 0.0100541 0.0100541 0.0100541 0.0100541 0.0100541
          0.0102851 0.0102851 0.0102851 0.0102851 0.0102851 0.0102851 0.0102851 0.0102851 0.0102851 0.0102851 0.0102851 0.0102851
          0.010285 0.0102851 0.010285 0.010285 0.010285 0.010285 0.010285 0.010285 0.010285 0.010285 0.010285 0.010285
          0.010285 0.010285 0.011199 0.011199 0.011199 0.011199 0.011199 0.011199 0.011199 0.011199 0.011199 0.011199
          0.011199 0.011199 0.011199 0.011199 0.011199 0.011199 0.011199 0.011199 0.011199 0.011199 0.011199 0.011199
          0.011199 0.011199 0.011199 0.011199 0.0121422 0.0121422 0.0121422 0.0121422 0.0121422 0.0121422 0.0121422 0.0121422
          0.0121422 0.0121422 0.0121422 0.0121422 0.0121422 0.0121422 0.0121422 0.0121422 0.0121422 0.0121422 0.0121422 0.0121422
          0.0121422 0.0121422 0.0121422 0.0121422 0.0121422 0.0121422 0.0131237 0.0131237 0.0131237 0.0131237 0.0131237 0.0131237
          0.0131237 0.0131237 0.0131237 0.0131237 0.0131237 0.0131237 0.0131237 0.0131237 0.0131237 0.0131237 0.0131237 0.0131237
          0.0131237 0.0131237 0.0131237 0.0131237 0.0131237 0.0131237 0.0131237 0.0131237 0.0141684 0.0141684 0.0141684 0.0141684
          0.0141684 0.0141684 0.0141684 0.0141683 0.0141683 0.0141683 0.0141683 0.0141683 0.0141683 0.0141683 0.0141683 0.0141683
          0.0141683 0.0141683 0.0141683 0.0141683 0.0141683 0.0141683 0.0141683 0.0141683 0.0141683 0.0141683 0.0153216 0.0153216
          0.0153216 0.0153216 0.0153216 0.0153216 0.0153216 0.0153216 0.0153216 0.0153216 0.0153216 0.0153216 0.0153216 0.0153216
          0.0153216 0.0153216 0.0153216 0.0153215 0.0153215 0.0153215 0.0153215 0.0153215 0.0153215 0.0153215 0.0153215 0.0153215
          0.0166869 0.0166869 0.0166869 0.0166869 0.0166869 0.0166869 0.0166869 0.0166868 0.0166868 0.0166868 0.0166868 0.0166868
          0.0166868 0.0166868 0.0166868 0.0166868 0.0166868 0.0166868 0.0166868 0.0166868 0.0166868 0.0166868 0.0166868 0.0166867
          0.0166867 0.0166867 0.0186606 0.0186606 0.0186606 0.0186606 0.0186605 0.0186605 0.0186605 0.0186605 0.0186605 0.0186605
          0.0186604 0.0186604 0.0186604 0.0186604 0.0186604 0.0186604 0.0186603 0.0186603 0.0186603 0.0186603 0.0186603 0.0186603
          0.0186603 0.0186603 0.0186603 0.0186603 0.0245997 0.0245997 0.0245997 0.0245997 0.0245996 0.0245996 0.0245995 0.0245995
          0.0245994 0.0245994 0.0245993 0.0245992 0.0245992 0.0245991 0.0245991 0.024599 0.024599 0.024599 0.0245989 0.0245989
          0.0245988 0.0245988 0.0245988 0.0245988 0.0245988 0.0245988 0.0338448 0.0338448 0.0338448 0.0338447 0.0338446 0.0338445
          0.0338445 0.0338444 0.0338443 0.0338442 0.0338441 0.033844 0.0338439 0.0338438 0.0338438 0.0338437 0.0338436 0.0338435
          0.0338435 0.0338434 0.0338434 0.0338433 0.0338433 0.0338433 0.0338432 0.0338432 0.0460028 0.0460028 0.0460027 0.0460026
          0.0460025 0.0460024 0.0460022 0.0460021 0.046002 0.0460018 0.0460017 0.0460015 0.0460014 0.0460013 0.0460012 0.0460011
          0.046001 0.0460009 0.0460008 0.0460007 0.0460006 0.0460006 0.0460005 0.0460005 0.0460004 0.0460004 0.061002 0.0610019
          0.0610018 0.0610017 0.0610015 0.0610013 0.0610012 0.061001 0.0610008 0.0610006 0.0610004 0.0610002 0.061 0.0609998
          0.0609997 0.0609995 0.0609994 0.0609992 0.0609991 0.060999 0.0609989 0.0609988 0.0609987 0.0609987 0.0609986 0.0609986
          0.0785509 0.0785508 0.0785507 0.0785505 0.0785502 0.07855 0.0785497 0.0785495 0.0785492 0.0785489 0.0785487 0.0785484
          0.0785482 0.078548 0.0785478 0.0785476 0.0785474 0.0785472 0.078547 0.0785469 0.0785467 0.0785466 0.0785465 0.0785464
          0.0785464 0.0785463 0.0981924 0.0981923 0.0981921 0.0981919 0.0981915 0.0981912 0.0981909 0.0981905 0.0981902 0.0981898
          0.0981895 0.0981892 0.0981889 0.0981886 0.0981883 0.0981881 0.0981878 0.0981876 0.0981874 0.0981872 0.0981871 0.0981869
          0.0981868 0.0981867 0.0981866 0.0981865 0.119374 0.119374 0.119373 0.119373 0.119373 0.119372 0.119372 0.119371
          0.119371 0.11937 0.11937 0.11937 0.119369 0.119369 0.119369 0.119368 0.119368 0.119368 0.119367 0.119367
          0.119367 0.119367 0.119367 0.119367 0.119366 0.119366 0.141515 0.141515 0.141515 0.141514 0.141514 0.141513
          0.141513 0.141512 0.141512 0.141511 0.141511 0.14151 0.14151 0.141509 0.141509 0.141509 0.141508 0.141508
          0.141508 0.141507 0.141507 0.141507 0.141507 0.141507 0.141506 0.141506 0.164067 0.164066 0.164066 0.164065
          0.164064 0.164064 0.164063 0.164063 0.164062 0.164061 0.164061 0.16406 0.16406 0.164059 0.164059 0.164058
          0.164058 0.164058 0.164057 0.164057 0.164057 0.164057 0.164056 0.164056 0.164056 0.164056 0.186545 0.186544
          0.186543 0.186543 0.186542 0.186541 0.18654 0.18654 0.186539 0.186538 0.186538 0.186537 0.186536 0.186536
          0.186535 0.186535 0.186534 0.186534 0.186534 0.186533 0.186533 0.186533 0.186533 0.186532 0.186532 0.186532
        </DataArray>
        <DataArray type="Float32" Name="Sw" NumberOfComponents="1" format="ascii">
          0.989988 0.989988 0.989978 0.989978 0.989988 0.989978 0.989988 0.989978 0.989988 0.989978 0.989988 0.989978
          0.989989 0.989978 0.989989 0.989978 0.989989 0.989978 0.989989 0.989977 0.989988 0.989978 0.989988 0.989978
          0.989988 0.989977 0.989989 0.989977 0.989988 0.989978 0.989988 0.989978 0.989989 0.989977 0.989988 0.989977
          0.989988 0.989977 0.989991 0.989976 0.989989 0.989977 0.98999 0.989977 0.989988 0.989978 0.989988 0.989978
          0.989988 0.989978 0.989988 0.989978 0.98997 0.98997 0.98997 0.98997 0.98997 0.98997 0.98997 0.98997
          0.98997 0.98997 0.98997 0.98997 0.98997 0.989971 0.98997 0.98997 0.98997 0.98997 0.98997 0.98997
          0.98997 0.989969 0.98997 0.98997 0.98997 0.98997 0.989963 0.989963 0.989963 0.989963 0.989963 0.989963
          0.989963 0.989963 0.989963 0.989963 0.989963 0.989963 0.989963 0.989963 0.989963 0.989963 0.989963 0.989963
          0.989963 0.989963 0.989963 0.989963 0.989963 0.989963 0.989963 0.989963 0.989957 0.989957 0.989957 0.989957
          0.989957 0.989957 0.989957 0.989957 0.989957 0.989957 0.989957 0.989958 0.989957 0.989957 0.989957 0.989957
          0.989958 0.989957 0.989957 0.989957 0.989957 0.989957 0.989957 0.989957 0.989957 0.989957 0.989946 0.989946
          0.989946 0.989946 0.989946 0.989946 0.989946 0.989946 0.989946 0.989946 0.989946 0.989946 0.989945 0.989946
          0.989946 0.989946 0.989946 0.989946 0.989946 0.989946 0.989946 0.989946 0.989946 0.989946 0.989946 0.989946
          0.989715 0.989715 0.989715 0.989715 0.989715 0.989715 0.989715 0.989715 0.989715 0.989715 0.989715 0.989715
          0.989715 0.989715 0.989715 0.989715 0.989715 0.989715 0.989715 0.989715 0.989715 0.989715 0.989715 0.989715
          0.989715 0.989715 0.988801 0.988801 0.988801 0.988801 0.988801 0.988801 0.988801 0.988801 0.988801 0.988801
          0.988801 0.988801 0.988801 0.988801 0.988801 0.988801 0.988801 0.988801 0.988801 0.988801 0.988801 0.988801
          0.988801 0.988801 0.988801 0.988801 0.987858 0.987858 0.987858 0.987858 0.987858 0.987858 0.987858 0.987858
          0.987858 0.987858 0.987858 0.987858 0.987858 0.987858 0.987858 0.987858 0.987858 0.987858 0.987858 0.987858
          0.987858 0.987858 0.987858 0.987858 0.987858 0.987858 0.986876 0.986876 0.986876 0.986876 0.986876 0.986876
          0.986876 0.986876 0.986876 0.986876 0.986876 0.986876 0.986876 0.986876 0.986876 0.986876 0.986876 0.986876
          0.986876 0.986876 0.986876 0.986876 0.986876 0.986876 0.986876 0.986876 0.985832 0.985832 0.985832 0.985832
          0.985832 0.985832 0.985832 0.985832 0.985832 0.985832 0.985832 0.985832 0.985832 0.985832 0.985832 0.985832
          0.985832 0.985832 0.985832 0.985832 0.985832 0.985832 0.985832 0.985832 0.985832 0.985832 0.984678 0.984678
          0.984678 0.984678 0.984678 0.984678 0.984678 0.984678 0.984678 0.984678 0.984678 0.984678 0.984678 0.984678
          0.984678 0.984678 0.984678 0.984678 0.984678 0.984678 0.984678 0.984678 0.984678 0.984678 0.984678 0.984678
          0.983313 0.983313 0.983313 0.983313 0.983313 0.983313 0.983313 0.983313 0.983313 0.983313 0.983313 0.983313
          0.983313 0.983313 0.983313 0.983313 0.983313 0.983313 0.983313 0.983313 0.983313 0.983313 0.983313 0.983313
          0.983313 0.983313 0.981339 0.981339 0.981339 0.981339 0.981339 0.981339 0.98134 0.98134 0.98134 0.98134
          0.98134 0.98134 0.98134 0.98134 0.98134 0.98134 0.98134 0.98134 0.98134 0.98134 0.98134 0.98134
          0.98134 0.98134 0.98134 0.98134 0.9754 0.9754 0.9754 0.9754 0.9754 0.9754 0.9754 0.975401
          0.975401 0.975401 0.975401 0.975401 0.975401 0.975401 0.975401 0.975401 0.975401 0.975401 0.975401 0.975401
          0.975401 0.975401 0.975401 0.975401 0.975401 0.975401 0.966155 0.966155 0.966155 0.966155 0.966155 0.966155
          0.966156 0.966156 0.966156 0.966156 0.966156 0.966156 0.966156 0.966156 0.966156 0.966156 0.966156 0.966156
          0.966157 0.966157 0.966157 0.966157 0.966157 0.966157 0.966157 0.966157 0.953997 0.953997 0.953997 0.953997
          0.953997 0.953998 0.953998 0.953998 0.953998 0.953998 0.953998 0.953998 0.953999 0.953999 0.953999 0.953999
          0.953999 0.953999 0.953999 0.953999 0.953999 0.953999 0.954 0.954 0.954 0.954 0.938998 0.938998
          0.938998 0.938998 0.938998 0.938999 0.938999 0.938999 0.938999 0.938999 0.939 0.939 0.939 0.939
          0.939 0.939 0.939001 0.939001 0.939001 0.939001 0.939001 0.939001 0.939001 0.939001 0.939001 0.939001
          0.921449 0.921449 0.921449 0.92145 0.92145 0.92145 0.92145 0.921451 0.921451 0.921451 0.921451 0.921452
          0.921452 0.921452 0.921452 0.921452 0.921453 0.921453 0.921453 0.921453 0.921453 0.921453 0.921453 0.921454
          0.921454 0.921454 0.901808 0.901808 0.901808 0.901808 0.901808 0.901809 0.901809 0.90181 0.90181 0.90181
          0.90181 0.901811 0.901811 0.901811 0.901812 0.901812 0.901812 0.901812 0.901813 0.901813 0.901813 0.901813
          0.901813 0.901813 0.901813 0.901813 0.880626 0.880626 0.880627 0.880627 0.880627 0.880628 0.880628 0.880629
          0.880629 0.88063 0.88063 0.88063 0.880631 0.880631 0.880631 0.880632 0.880632 0.880632 0.880633 0.880633
          0.880633 0.880633 0.880633 0.880633 0.880634 0.880634 0.858485 0.858485 0.858485 0.858486 0.858486 0.858487
          0.858487 0.858488 0.858488 0.858489 0.858489 0.85849 0.85849 0.858491 0.858491 0.858491 0.858492 0.858492
          0.858492 0.858493 0.858493 0.858493 0.858493 0.858494 0.858494 0.858494 0.835933 0.835934 0.835934 0.835935
          0.835935 0.835936 0.835937 0.835937 0.835938 0.835939 0.835939 0.83594 0.83594 0.835941 0.835941 0.835942
          0.835942 0.835942 0.835943 0.835943 0.835943 0.835943 0.835944 0.835944 0.835944 0.835944 0.813455 0.813456
          0.813457 0.813457 0.813458 0.813459 0.81346 0.81346 0.813461 0.813462 0.813462 0.813463 0.813464 0.813464
          0.813465 0.813465 0.813466 0.813466 0.813466 0.813467 0.813467 0.813467 0.813468 0.813468 0.813468 0.813468
        </DataArray>
        <DataArray type="Float32" Name="pn" NumberOfComponents="1" format="ascii">
          101156 101156 100908 100908 101156 100908 101156 100908 101156 100908 101156 100908
          101156 100908 101156 100908 101156 100908 101156 100908 101156 100908 101156 100908
          101156 100908 101156 100908 101156 100908 101156 100908 101156 100908 101156 100908
          101156 100908 101156 100908 101156 100908 101156 100908 101156 100908 101156 100908
          101156 100908 101156 100908 100681 100681 100681 100681 100681 100681 100681 100681
          100681 100681 100681 100681 100681 100681 100681 100681 100681 100681 100681 100682
          100681 100682 100681 100681 100681 100681 100476 100476 100476 100476 100476 100476
          100476 100476 100476 100476 100476 100476 100476 100476 100476 100476 100476 100476
          100476 100476 100476 100476 100476 100476 100476 100476 100289 100289 100289 100289
          100289 100289 100289 100289 100289 100289 100289 100289 100289 100289 100289 100289
          100289 100289 100289 100289 100289 100289 100289 100289 100289 100289 100120 100120
          100120 100120 100120 100120 100120 100120 100120 100120 100120 100120 100120 100120
          100120 100120 100120 100120 100120 100120 100120 100120 100120 100120 100120 100120
          100002 100002 100002 100002 100002 100002 100002 100002 100002 100002 100002 100002
          100002 100002 100002 100002 100002 100002 100002 100002 100002 100002 100002 100002
          100002 100002 100001 100001 100001 100001 100001 100001 100001 100001 100001 100001
          100001 100001 100001 100001 100001 100001 100001 100001 100001 100001 100001 100001
          100001 100001 100001 100001 100001 100001 100001 100001 100001 100001 100001 100001
          100001 100001 100001 100001 100001 100001 100001 100001 100001 100001 100001 100001
          100001 100001 100001 100001 100001 100001 100001 100001 100001 100001 100001 100001
          100001 100001 100001 100001 100001 100001 100001 100001 100001 100001 100001 100001
          100001 100001 100001 100001 100001 100001 100001 100001 100001 100001 100001 100001
          100001 100001 100001 100001 100001 100001 100001 100001 100001 100001 100001 100001
          100001 100001 100001 100001 100001 100001 100001 100001 100001 100001 100001 100001
          100001 100001 100001 100001 100001 100001 100001 100001 100001 100001 100001 100001
          100001 100001 100001 100001 100001 100001 100001 100001 100001 100001 100001 100001
          100001 100001 100001 100001 100001 100001 100001 100001 100001 100001 100001 100001
          100001 100001 100001 100001 100001 100001 100001 100001 100001 100001 100001 100001
          100001 100001 100001 100001 100001 100001 100001 100001 100001 100001 100001 100001
          100001 100001 100001 100001 100001 100001 100001 100001 100001 100001 100001 100001
          100001 100001 100001 100001 100000 100000 100000 100000 100000 100000 100000 100000
          100000 100000 100000 100000 100000 100000 100000 100000 100000 100000 100000 100000
          100000 100000 100000 100000 100000 100000 100000 100000 100000 100000 100000 100000
          100000 100000 100000 100000 100000 100000 100000 100000 100000 100000 100000 100000
          100000 100000 100000 100000 100000 100000 100000 100000 100000 100000 100000 100000
          100000 100000 100000 100000 100000 100000 100000 100000 100000 100000 100000 100000
          100000 100000 100000 100000 100000 100000 100000 100000 100000 100000 100000 100000
          100000 100000 100000 100000 100000 100000 100000 100000 100000 100000 100000 100000
          100000 100000 100000 100000 100000 100000 100000 100000 100000 100000 100000 100000
          100000 100000 100000 100000 100000 100000 100000 100000 100000 100000 100000 100000
          100000 100000 100000 100000 100000 100000 100000 100000 100000 100000 100000 100000
          100000 100000 100000 100000 100000 100000 100000 100000 100000 100000 100000 100000
          100000 100000 100000 100000 100000 100000 100000 100000 100000 100000 100000 100000
          100000 100000 100000 100000 100000 100000 100000 100000 100000 100000 100000 100000
          100000 100000 100000 100000 100000 100000 100000 100000 100000 100000 100000 100000
          100000 100000 100000 100000 100000 100000 100000 100000 100000 100000 100000 100000
          100000 100000 100000 100000 100000 100000 100000 100000 100000 100000 100000 100000
          100000 100000 100000 100000 100000 100000 100000 100000 100000 100000 100000 100000
          100000 100000 100000 100000 100000 100000 100000 100000 100000 100000 100000 100000
          100000 100000 100000 100000 100000 100000 100000 100000 100000 100000 100000 100000
          100000 100000 100000 100000 100000 100000 100000 100000 100000 100000 100000 100000
          100000 100000 100000 100000 100000 100000 100000 100000 100000 100000 100000 100000
        </DataArray>
        <DataArray type="Float32" Name="pw" NumberOfComponents="1" format="ascii">
          101154 101154 100904 100904 101154 100904 101154 100904 101154 100904 101154 100904
          101154 100904 101154 100904 101154 100904 101154 100904 101154 100904 101154 100904
          101154 100904 101154 100904 101154 100904 101154 100904 101154 100904 101154 100904
          101154 100904 101154 100904 101154 100904 101154 100904 101154 100904 101154 100904
          101154 100904 101154 100904 100676 100676 100676 100676 100676 100676 100676 100676
          100676 100676 100676 100676 100676 100676 100676 100676 100676 100676 100676 100676
          100676 100676 100676 100676 100676 100676 100470 100470 100470 100470 100470 100470
          100470 100470 100470 100470 100470 100470 100470 100470 100470 100470 100470 100470
          100470 100470 100470 100470 100470 100470 100470 100470 100282 100282 100282 100282
          100282 100282 100282 100282 100282 100282 100282 100282 100282 100282 100282 100282
          100282 100282 100282 100282 100282 100282 100282 100282 100282 100282 100111 100111
          100111 100111 100111 100111 100111 100111 100111 100111 100111 100111 100111 100111
          100111 100111 100111 100111 100111 100111 100111 100111 100111 100111 100111 100111
          99955.3 99955.3 99955.3 99955.3 99955.3 99955.3 99955.3 99955.3 99955.3 99955.3 99955.3 99955.3
          99955.3 99955.3 99955.3 99955.3 99955.3 99955.3 99955.3 99955.3 99955.3 99955.3 99955.3 99955.3
          99955.3 99955.3 99814 99814 99814 99814 99814 99814 99814 99814 99814 99814
          99814 99814 99814 99814 99814 99814 99814 99814 99814 99814 99814 99814
          99814 99814 99814 99814 99685.6 99685.6 99685.6 99685.6 99685.6 99685.6 99685.6 99685.6
          99685.6 99685.6 99685.6 99685.6 99685.6 99685.6 99685.6 99685.6 99685.6 99685.6 99685.6 99685.6
          99685.6 99685.6 99685.6 99685.6 99685.6 99685.6 99568.9 99568.9 99568.9 99568.9 99568.9 99568.9
          99568.9 99568.9 99568.9 99568.9 99568.9 99568.9 99568.9 99568.9 99568.9 99568.9 99568.9 99568.9
          99568.9 99568.9 99568.9 99568.9 99568.9 99568.9 99568.9 99568.9 99462.7 99462.7 99462.7 99462.7
          99462.7 99462.7 99462.7 99462.7 99462.7 99462.8 99462.8 99462.8 99462.8 99462.8 99462.8 99462.8
          99462.8 99462.8 99462.8 99462.8 99462.8 99462.8 99462.8 99462.8 99462.8 99462.8 99366.3 99366.3
          99366.3 99366.3 99366.3 99366.3 99366.3 99366.3 99366.3 99366.3 99366.3 99366.3 99366.3 99366.3
          99366.3 99366.3 99366.3 99366.3 99366.3 99366.3 99366.3 99366.3 99366.3 99366.3 99366.3 99366.3
          99278.6 99278.6 99278.6 99278.6 99278.6 99278.6 99278.6 99278.6 99278.6 99278.6 99278.6 99278.6
          99278.6 99278.6 99278.6 99278.6 99278.6 99278.6 99278.6 99278.6 99278.6 99278.6 99278.6 99278.6
          99278.6 99278.6 99198.8 99198.8 99198.8 99198.8 99198.8 99198.8 99198.8 99198.8 99198.8 99198.8
          99198.8 99198.8 99198.8 99198.8 99198.8 99198.8 99198.8 99198.8 99198.8 99198.8 99198.8 99198.8
          99198.8 99198.8 99198.8 99198.8 99126.3 99126.3 99126.3 99126.3 99126.3 99126.3 99126.3 99126.3
          99126.3 99126.3 99126.3 99126.3 99126.3 99126.3 99126.3 99126.3 99126.3 99126.3 99126.3 99126.3
          99126.3 99126.3 99126.3 99126.3 99126.3 99126.3 99060.4 99060.4 99060.4 99060.4 99060.4 99060.4
          99060.4 99060.4 99060.4 99060.4 99060.4 99060.4 99060.4 99060.4 99060.4 99060.4 99060.4 99060.4
          99060.4 99060.4 99060.4 99060.4 99060.4 99060.4 99060.4 99060.4 99000.5 99000.5 99000.5 99000.5
          99000.5 99000.5 99000.5 99000.5 99000.5 99000.5 99000.5 99000.5 99000.5 99000.5 99000.5 99000.5
          99000.5 99000.5 99000.5 99000.5 99000.5 99000.5 99000.5 99000.5 99000.5 99000.5 98946.1 98946.1
          98946.1 98946.1 98946.1 98946.1 98946.1 98946.1 98946.1 98946.1 98946.1 98946.1 98946.1 98946.1
          98946.1 98946.1 98946.1 98946.1 98946.1 98946.1 98946.1 98946.1 98946.1 98946.1 98946.1 98946.1
          98896.6 98896.6 98896.6 98896.6 98896.6 98896.6 98896.6 98896.6 98896.6 98896.6 98896.6 98896.6
          98896.6 98896.6 98896.6 98896.6 98896.6 98896.6 98896.6 98896.6 98896.6 98896.6 98896.6 98896.6
          98896.6 98896.6 98851.5 98851.5 98851.5 98851.5 98851.5 98851.6 98851.6 98851.6 98851.6 98851.6
          98851.6 98851.6 98851.6 98851.6 98851.6 98851.6 98851.6 98851.6 98851.6 98851.6 98851.6 98851.6
          98851.6 98851.6 98851.6 98851.6 98810.6 98810.6 98810.6 98810.6 98810.6 98810.6 98810.6 98810.6
          98810.6 98810.6 98810.6 98810.6 98810.6 98810.6 98810.6 98810.6 98810.6 98810.6 98810.6 98810.6
          98810.6 98810.6 98810.6 98810.6 98810.6 98810.6 98773.4 98773.4 98773.4 98773.4 98773.4 98773.4
          98773.4 98773.4 98773.4 98773.4 98773.4 98773.4 98773.4 98773.4 98773.4 98773.4 98773.4 98773.4
          98773.4 98773.4 98773.4 98773.4 98773.4 98773.4 98773.4 98773.4 98739.6 98739.6 98739.6 98739.6
          98739.6 98739.6 98739.6 98739.6 98739.6 98739.6 98739.6 98739.6 98739.6 98739.6 98739.6 98739.6
          98739.6 98739.6 98739.6 98739.6 98739.6 98739.6 98739.6 98739.6 98739.6 98739.6 98708.9 98708.9
          98708.9 98708.9 98708.9 98708.9 98708.9 98708.9 98708.9 98708.9 98708.9 98708.9 98708.9 98708.9
          98708.9 98708.9 98708.9 98708.9 98708.9 98708.9 98708.9 98708.9 98708.9 98708.9 98708.9 98708.9
        </DataArray>
        <DataArray type="Float32" Name="pc" NumberOfComponents="1" format="ascii">
          1.93258 1.93258 3.75992 3.75992 1.93258 3.75997 1.93247 3.76004 1.93176 3.75978 1.93015 3.75913
          1.92824 3.76091 1.92403 3.76279 1.91115 3.7578 1.91536 3.76783 1.95452 3.74303 1.9335 3.74396
          1.93968 3.77079 1.89357 3.79751 1.97518 3.6988 1.94713 3.7206 1.87711 3.86442 2.00337 3.77333
          1.98291 3.78263 1.56785 4.01285 1.84642 3.78549 1.74077 3.81216 1.9313 3.75927 1.93171 3.75845
          1.93188 3.75829 1.93183 3.7583 5.07268 5.07267 5.0727 5.07272 5.07226 5.07138 5.07271 5.07333
          5.06859 5.07536 5.06651 5.08544 5.02424 4.87087 5.0801 5.04065 5.05024 5.08201 5.05499 5.08965
          5.0847 5.1014 5.07108 5.06979 5.06973 5.06972 6.16368 6.16366 6.16365 6.16359 6.16308 6.16226
          6.16328 6.16356 6.15983 6.16471 6.16122 6.16194 6.16351 6.17262 6.16487 6.14354 6.1141 6.16058
          6.14544 6.15813 6.16506 6.17255 6.16027 6.15937 6.1593 6.15928 7.13118 7.13115 7.13111 7.13097
          7.13042 7.12969 7.13044 7.13052 7.12764 7.13116 7.12986 7.0878 7.11527 7.22062 7.13063 7.115
          7.08745 7.12424 7.11871 7.12089 7.12681 7.13056 7.12589 7.12535 7.12527 7.12525 9.0434 9.04336
          9.04326 9.04303 9.0424 9.04169 9.04221 9.04212 9.03974 9.04242 9.0434 9.05669 9.10489 9.02018
          9.03546 9.02787 9.00877 9.03449 9.03277 9.02967 9.03472 9.03738 9.03571 9.03539 9.0353 9.03528
          46.9735 46.9734 46.9732 46.9728 46.9724 46.972 46.9716 46.9712 46.971 46.9709 46.9713 46.9711
          46.9596 46.9672 46.9582 46.9563 46.9568 46.958 46.9599 46.9605 46.9611 46.9619 46.9623 46.9623
          46.9623 46.9623 187.062 187.062 187.062 187.062 187.061 187.061 187.061 187.061 187.061 187.06
          187.06 187.059 187.06 187.059 187.059 187.059 187.058 187.058 187.058 187.058 187.058 187.057
          187.057 187.057 187.057 187.057 315.368 315.368 315.368 315.368 315.367 315.367 315.367 315.367
          315.367 315.366 315.366 315.366 315.365 315.365 315.365 315.365 315.364 315.364 315.364 315.364
          315.363 315.363 315.363 315.363 315.363 315.363 432.014 432.014 432.014 432.014 432.014 432.014
          432.013 432.013 432.013 432.012 432.012 432.012 432.011 432.011 432.011 432.01 432.01 432.01
          432.01 432.009 432.009 432.009 432.009 432.009 432.009 432.009 538.052 538.052 538.052 538.052
          538.052 538.052 538.051 538.051 538.051 538.05 538.05 538.05 538.049 538.049 538.049 538.048
          538.048 538.048 538.048 538.047 538.047 538.047 538.047 538.047 538.047 538.047 634.447 634.447
          634.447 634.446 634.446 634.446 634.445 634.445 634.445 634.444 634.444 634.444 634.443 634.443
          634.443 634.442 634.442 634.442 634.441 634.441 634.441 634.44 634.44 634.44 634.44 634.44
          722.074 722.074 722.074 722.074 722.073 722.073 722.073 722.072 722.072 722.071 722.071 722.07
          722.07 722.07 722.069 722.069 722.069 722.068 722.068 722.068 722.067 722.067 722.067 722.067
          722.067 722.067 801.731 801.731 801.731 801.731 801.73 801.73 801.729 801.729 801.729 801.728
          801.728 801.727 801.727 801.726 801.726 801.725 801.725 801.725 801.724 801.724 801.724 801.724
          801.723 801.723 801.723 801.723 874.14 874.14 874.14 874.14 874.139 874.139 874.138 874.138
          874.137 874.137 874.136 874.136 874.135 874.135 874.135 874.134 874.134 874.133 874.133 874.133
          874.132 874.132 874.132 874.132 874.132 874.132 939.965 939.965 939.965 939.964 939.964 939.964
          939.963 939.963 939.962 939.961 939.961 939.96 939.96 939.959 939.959 939.958 939.958 939.958
          939.957 939.957 939.957 939.956 939.956 939.956 939.956 939.956 999.805 999.805 999.805 999.804
          999.804 999.803 999.803 999.802 999.801 999.801 999.8 999.8 999.799 999.799 999.798 999.798
          999.797 999.797 999.797 999.796 999.796 999.796 999.795 999.795 999.795 999.795 1054.2 1054.2
          1054.2 1054.2 1054.2 1054.2 1054.2 1054.2 1054.2 1054.2 1054.2 1054.2 1054.2 1054.2
          1054.2 1054.2 1054.2 1054.2 1054.2 1054.19 1054.19 1054.19 1054.19 1054.19 1054.19 1054.19
          1103.66 1103.66 1103.66 1103.66 1103.66 1103.66 1103.66 1103.65 1103.65 1103.65 1103.65 1103.65
          1103.65 1103.65 1103.65 1103.65 1103.65 1103.65 1103.65 1103.65 1103.65 1103.65 1103.65 1103.65
          1103.65 1103.65 1148.62 1148.62 1148.62 1148.62 1148.61 1148.61 1148.61 1148.61 1148.61 1148.61
          1148.61 1148.61 1148.61 1148.61 1148.61 1148.61 1148.61 1148.61 1148.61 1148.61 1148.61 1148.6
          1148.6 1148.6 1148.6 1148.6 1189.49 1189.49 1189.49 1189.49 1189.49 1189.48 1189.48 1189.48
          1189.48 1189.48 1189.48 1189.48 1189.48 1189.48 1189.48 1189.48 1189.48 1189.48 1189.48 1189.48
          1189.48 1189.48 1189.47 1189.47 1189.47 1189.47 1226.64 1226.64 1226.64 1226.64 1226.64 1226.64
          1226.64 1226.64 1226.64 1226.64 1226.64 1226.64 1226.63 1226.63 1226.63 1226.63 1226.63 1226.63
          1226.63 1226.63 1226.63 1226.63 1226.63 1226.63 1226.63 1226.63 1260.42 1260.42 1260.42 1260.42
          1260.42 1260.42 1260.42 1260.42 1260.42 1260.41 1260.41 1260.41 1260.41 1260.41 1260.41 1260.41
          1260.41 1260.41 1260.41 1260.41 1260.41 1260.41 1260.41 1260.41 1260.41 1260.41 1291.13 1291.13
          1291.13 1291.13 1291.13 1291.12 1291.12 1291.12 1291.12 1291.12 1291.12 1291.12 1291.12 1291.12
          1291.12 1291.12 1291.12 1291.12 1291.12 1291.11 1291.11 1291.11 1291.11 1291.11 1291.11 1291.11
        </DataArray>
        <DataArray type="Float32" Name="rhoW" NumberOfComponents="1" format="ascii">
          997.048 997.048 997.048 997.048 997.048 997.048 997.048 997.048 997.048 997.048 997.048 997.048
          997.048 997.048 997.048 997.048 997.048 997.048 997.048 997.048 997.048 997.048 997.048 997.048
          997.048 997.048 997.048 997.048 997.048 997.048 997.048 997.048 997.048 997.048 997.048 997.048
          997.048 997.048 997.048 997.048 997.048 997.048 997.048 997.048 997.048 997.048 997.048 997.048
          997.048 997.048 997.048 997.048 997.048 997.048 997.048 997.048 997.048 997.048 997.048 997.048
          997.048 997.048 997.048 997.048 997.048 997.048 997.048 997.048 997.048 997.048 997.048 997.048
          997.048 997.048 997.048 997.048 997.048 997.048 997.048 997.048 997.048 997.048 997.048 997.048
          997.048 997.048 997.048 997.048 997.048 997.048 997.048 997.048 997.048 997.048 997.048 997.048