<?xml version="1.0"?>
<VTKFile type="UnstructuredGrid" version="0.1" byte_order="LittleEndian">
  <UnstructuredGrid>
    <Piece NumberOfCells="55" NumberOfPoints="72">
      <PointData Scalars="Sn" Vectors="velocityW">
        <DataArray type="Float32" Name="Sn" NumberOfComponents="1" format="ascii">
          0.0140735 0.0140721 0.0242515 0.0242369 0.0140694 0.0242084 0.0140672 0.0241845 0.0140657 0.0241691 0.0140652 0.0241637
          0.11515 0.115079 0.114939 0.114822 0.114746 0.114719 0.342753 0.342619 0.342345 0.342115 0.341967 0.341914
          0.597452 0.597327 0.597059 0.596848 0.596706 0.596651 0.76742 0.767349 0.76716 0.76703 0.766917 0.766854
          0.860726 0.860762 0.860661 0.8606 0.860471 0.860343 0.911199 0.91151 0.911529 0.911519 0.911296 0.910933
          0.940039 0.941086 0.94128 0.941318 0.940895 0.939862 0.957833 0.960786 0.96117 0.961275 0.960555 0.957769
          0.969085 0.97719 0.97749 0.977746 0.976793 0.969303 0.965428 1 1 1 1 0.966488
        </DataArray>
        <DataArray type="Float32" Name="Sw" NumberOfComponents="1" format="ascii">
          0.985927 0.985928 0.975748 0.975763 0.985931 0.975792 0.985933 0.975815 0.985934 0.975831 0.985935 0.975836
          0.88485 0.884921 0.885061 0.885178 0.885254 0.885281 0.657247 0.657381 0.657655 0.657885 0.658033 0.658086
          0.402548 0.402673 0.402941 0.403152 0.403294 0.403349 0.23258 0.232651 0.23284 0.23297 0.233083 0.233146
          0.139274 0.139238 0.139339 0.1394 0.139529 0.139657 0.0888011 0.0884896 0.0884714 0.0884813 0.0887042 0.0890673
          0.0599615 0.0589138 0.0587203 0.0586822 0.0591051 0.0601381 0.0421667 0.0392145 0.0388302 0.0387255 0.0394446 0.0422315
          0.0309154 0.0228101 0.02251 0.0222541 0.0232072 0.0306968 0.0345725 0 0 0 0 0.0335122
        </DataArray>
        <DataArray type="Float32" Name="pn" NumberOfComponents="1" format="ascii">
          100003 100003 100003 100002 100003 100002 100002 100002 100002 100002 100002 100002
          100002 100002 100002 100002 100002 100001 100002 100002 100002 100001 100001 100001
          100002 100002 100001 100001 100001 100001 100001 100001 100001 100001 100001 100000
          100001 100001 100001 100000 100000 100000 100001 100001 100000 100000 100000 99999.9
          100001 100001 99999.7 100000 99999.7 99999.7 100001 100001 99999 100000 99999.3 99999.6
          100001 100002 99997.7 100001 99998.7 99999.6 100001 100003 99995.6 100002 99997.6 100000
        </DataArray>
        <DataArray type="Float32" Name="pw" NumberOfComponents="1" format="ascii">
          99473.8 99473.8 99131.6 99131.6 99473.8 99131.6 99473.8 99131.6 99473.8 99131.6 99473.8 99131.6
          98820.4 98820.4 98820.4 98820.4 98820.4 98820.4 98537.6 98537.6 98537.6 98537.6 98537.6 98537.6
          98280.4 98280.4 98280.4 98280.4 98280.4 98280.4 98046.6 98046.5 98046.4 98046.4 98046.5 98046.6
          97833.5 97833.1 97832.9 97832.9 97833.1 97833.5 97637.8 97636 97635.1 97635.1 97636 97637.8
          97454.3 97445.3 97442.4 97442.5 97445.6 97454.1 97274.6 97235.1 97227.4 97227.2 97236.4 97273.6
          97099.5 96907.2 96894.1 96889.3 96915.8 97093.6 97164.2 95700.5 95693.1 95699.4 95695.1 97145.5
        </DataArray>
        <DataArray type="Float32" Name="pc" NumberOfComponents="1" format="ascii">
          529.171 529.043 871.038 870.907 528.789 870.65 528.574 870.434 528.435 870.294 528.387 870.246
          1181.82 1181.69 1181.43 1181.22 1181.08 1181.03 1464.36 1464.23 1463.96 1463.73 1463.58 1463.53
          1721.26 1721.11 1720.81 1720.58 1720.42 1720.36 1954.93 1954.8 1954.47 1954.24 1954.04 1953.93
          2167.9 2168.01 2167.7 2167.51 2167.13 2166.74 2363.47 2365.05 2365.15 2365.1 2363.96 2362.13
          2547.05 2555.67 2557.28 2557.6 2554.08 2545.62 2726.77 2766.11 2771.52 2773 2762.91 2725.95
          2901.8 3094.55 3103.56 3111.38 3082.9 2906.03 2836.61 4302.49 4302.49 4302.49 4302.49 2854.51
        </DataArray>
        <DataArray type="Float32" Name="rhoW" NumberOfComponents="1" format="ascii">
          997.047 997.047 997.047 997.047 997.047 997.047 997.047 997.047 997.047 997.047 997.047 997.047
          997.047 997.047 997.047 997.047 997.047 997.047 997.047 997.047 997.047 997.047 997.047 997.047
          997.047 997.047 997.047 997.047 997.047 997.047 997.047 997.047 997.047 997.047 997.047 997.047
          997.047 997.047 997.047 997.047 997.047 997.047 997.047 997.047 997.047 997.047 997.047 997.047
          997.047 997.047 997.047 997.047 997.047 997.047 997.046 997.046 997.046 997.046 997.046 997.046
          997.046 997.046 997.046 997.046 997.046 997.046 997.046 997.046 997.046 997.046 997.046 997.046
        </DataArray>
        <DataArray type="Float32" Name="rhoN" NumberOfComponents="1" format="ascii">
          1.15427 1.15427 1.15427 1.15427 1.15427 1.15426 1.15427 1.15426 1.15426 1.15426 1.15426 1.15426
          1.15426 1.15426 1.15426 1.15426 1.15426 1.15425 1.15426 1.15426 1.15426 1.15425 1.15425 1.15425
          1.15426 1.15426 1.15425 1.15425 1.15425 1.15425 1.15425 1.15425 1.15425 1.15425 1.15424 1.15424
          1.15425 1.15425 1.15424 1.15424 1.15424 1.15424 1.15425 1.15425 1.15424 1.15424 1.15424 1.15424
          1.15425 1.15425 1.15423 1.15424 1.15423 1.15423 1.15425 1.15425 1.15423 1.15424 1.15423 1.15423
          1.15425 1.15426 1.15421 1.15424 1.15422 1.15423 1.15425 1.16429 1.16322 1.16249 1.16162 1.15424
        </DataArray>
        <DataArray type="Float32" Name="mobW" NumberOfComponents="1" format="ascii">
          1122.19 1122.19 1107.71 1107.74 1122.19 1107.8 1122.2 1107.85 1122.2 1107.89 1122.2 1107.9
          736.07 736.271 736.662 736.99 737.204 737.279 287.063 287.242 287.608 287.915 288.114 288.185
          66.2057 66.2667 66.3971 66.4997 66.5688 66.596 13.191 13.2029 13.2344 13.2561 13.275 13.2855
          2.91047 2.90824 2.91446 2.91828 2.92626 2.93425 0.758508 0.750502 0.750037 0.75029 0.756012 0.765394
          0.228279 0.216116 0.213917 0.213486 0.218304 0.230372 0.0750418 0.0593104 0.0574365 0.0569328 0.0604514 0.0754142
          0.0269312 0.00927879 0.00884154 0.00847939 0.00987847 0.0262906 0.039189 0 0 0 0 0.0353266
        </DataArray>
        <DataArray type="Float32" Name="mobN" NumberOfComponents="1" format="ascii">
          0.964857 0.964199 12.4522 12.4261 0.962901 12.3754 0.961799 12.333 0.961088 12.3056 0.960844 12.2961
          729.183 728.176 726.218 724.577 723.507 723.135 7381.64 7375.74 7363.72 7353.65 7347.14 7344.82
          22321.1 22312.1 22292.8 22277.6 22267.4 22263.4 35757.4 35751.4 35735.4 35724.4 35714.8 35709.4
          43833.8 43836.9 43828.1 43822.8 43811.5 43800.3 48381.3 48413.4 48415.3 48414.3 48391.3 48354
          51422.6 51529.1 51548.7 51552.5 51509.7 51404.6 53092.5 53332.3 53362.5 53370.7 53314.1 53087.1
          53929.7 54385.4 54399.5 54411.4 54366.3 53943.7 53681.3 54828.6 54828.6 54828.6 54828.6 53755.8
        </DataArray>
        <DataArray type="Float32" Name="X_liquid^H2O" NumberOfComponents="1" format="ascii">
          0.999978 0.999978 0.999978 0.999978 0.999978 0.999978 0.999978 0.999978 0.999978 0.999978 0.999978 0.999978
          0.999978 0.999978 0.999978 0.999978 0.999978 0.999978 0.999978 0.999978 0.999978 0.999978 0.999978 0.999978
          0.999978 0.999978 0.999978 0.999978 0.999978 0.999978 0.999978 0.999978 0.999978 0.999978 0.999978 0.999978
          0.999978 0.999978 0.999978 0.999978 0.999978 0.999978 0.999978 0.999978 0.999978 0.999978 0.999978 0.999978
          0.999978 0.999978 0.999978 0.999978 0.999978 0.999978 0.999978 0.999978 0.999978 0.999978 0.999978 0.999978
          0.999978 0.999978 0.999978 0.999978 0.999978 0.999978 0.999978 0.28427 0.354514 0.411606 0.470565 0.999978
        </DataArray>
        <DataArray type="Float32" Name="X_liquid^Air" NumberOfComponents="1" format="ascii">
          2.15475e-05 2.15475e-05 2.15474e-05 2.15474e-05 2.15474e-05 2.15473e-05 2.15474e-05 2.15473e-05 2.15474e-05 2.15473e-05 2.15473e-05 2.15473e-05
          2.15474e-05 2.15473e-05 2.15473e-05 2.15472e-05 2.15472e-05 2.15472e-05 2.15473e-05 2.15473e-05 2.15472e-05 2.15471e-05 2.15471e-05 2.15471e-05
          2.15472e-05 2.15472e-05 2.15471e-05 2.15471e-05 2.1547e-05 2.1547e-05 2.15472e-05 2.15471e-05 2.15471e-05 2.1547e-05 2.1547e-05 2.1547e-05
          2.15472e-05 2.15471e-05 2.1547e-05 2.15469e-05 2.15469e-05 2.15469e-05 2.15471e-05 2.15471e-05 2.15469e-05 2.15469e-05 2.15468e-05 2.15468e-05
          2.15471e-05 2.15471e-05 2.15468e-05 2.15469e-05 2.15468e-05 2.15468e-05 2.15472e-05 2.15471e-05 2.15466e-05 2.15469e-05 2.15467e-05 2.15468e-05
          2.15471e-05 2.15472e-05 2.15463e-05 2.1547e-05 2.15466e-05 2.15468e-05 2.1547e-05 2.20519e-05 2.20008e-05 2.1962e-05 2.19195e-05 2.15469e-05
        </DataArray>
        <DataArray type="Float32" Name="X_gas^H2O" NumberOfComponents="1" format="ascii">
          0.0199563 0.0199563 0.0199564 0.0199564 0.0199564 0.0199564 0.0199564 0.0199565 0.0199564 0.0199565 0.0199564 0.0199565
          0.0199564 0.0199565 0.0199565 0.0199565 0.0199566 0.0199566 0.0199565 0.0199565 0.0199566 0.0199566 0.0199566 0.0199567
          0.0199565 0.0199566 0.0199566 0.0199567 0.0199567 0.0199567 0.0199566 0.0199566 0.0199567 0.0199567 0.0199568 0.0199568
          0.0199566 0.0199567 0.0199568 0.0199568 0.0199568 0.0199568 0.0199566 0.0199567 0.0199568 0.0199568 0.0199569 0.0199569
          0.0199566 0.0199567 0.0199569 0.0199569 0.019957 0.0199569 0.0199566 0.0199566 0.0199571 0.0199569 0.019957 0.019957
          0.0199566 0.0199565 0.0199574 0.0199568 0.0199572 0.019957 0.0199567 0.00562442 0.00702063 0.00815631 0.00933162 0.0199569
        </DataArray>
        <DataArray type="Float32" Name="X_gas^Air" NumberOfComponents="1" format="ascii">
          0.980044 0.980044 0.980044 0.980044 0.980044 0.980044 0.980044 0.980044 0.980044 0.980043 0.980044 0.980043
          0.980044 0.980044 0.980043 0.980043 0.980043 0.980043 0.980044 0.980043 0.980043 0.980043 0.980043 0.980043
          0.980043 0.980043 0.980043 0.980043 0.980043 0.980043 0.980043 0.980043 0.980043 0.980043 0.980043 0.980043
          0.980043 0.980043 0.980043 0.980043 0.980043 0.980043 0.980043 0.980043 0.980043 0.980043 0.980043 0.980043
          0.980043 0.980043 0.980043 0.980043 0.980043 0.980043 0.980043 0.980043 0.980043 0.980043 0.980043 0.980043
          0.980043 0.980043 0.980043 0.980043 0.980043 0.980043 0.980043 0.994376 0.992979 0.991844 0.990668 0.980043
        </DataArray>
        <DataArray type="Float32" Name="x_liquid^H2O" NumberOfComponents="1" format="ascii">
          0.999987 0.999987 0.999987 0.999987 0.999987 0.999987 0.999987 0.999987 0.999987 0.999987 0.999987 0.999987
          0.999987 0.999987 0.999987 0.999987 0.999987 0.999987 0.999987 0.999987 0.999987 0.999987 0.999987 0.999987
          0.999987 0.999987 0.999987 0.999987 0.999987 0.999987 0.999987 0.999987 0.999987 0.999987 0.999987 0.999987
          0.999987 0.999987 0.999987 0.999987 0.999987 0.999987 0.999987 0.999987 0.999987 0.999987 0.999987 0.999987
          0.999987 0.999987 0.999987 0.999987 0.999987 0.999987 0.999987 0.999987 0.999987 0.999987 0.999987 0.999987
          0.999987 0.999987 0.999987 0.999987 0.999987 0.999987 0.999987 0.284279 0.354523 0.411614 0.470573 0.999987
        </DataArray>
        <DataArray type="Float32" Name="x_liquid^Air" NumberOfComponents="1" format="ascii">
          1.34042e-05 1.34042e-05 1.34041e-05 1.34041e-05 1.34041e-05 1.34041e-05 1.34041e-05 1.34041e-05 1.34041e-05 1.3404e-05 1.34041e-05 1.3404e-05
          1.34041e-05 1.34041e-05 1.3404e-05 1.3404e-05 1.3404e-05 1.3404e-05 1.34041e-05 1.3404e-05 1.3404e-05 1.3404e-05 1.34039e-05 1.34039e-05
          1.3404e-05 1.3404e-05 1.3404e-05 1.34039e-05 1.34039e-05 1.34039e-05 1.3404e-05 1.3404e-05 1.34039e-05 1.34039e-05 1.34039e-05 1.34038e-05
          1.3404e-05 1.34039e-05 1.34039e-05 1.34038e-05 1.34038e-05 1.34038e-05 1.3404e-05 1.34039e-05 1.34038e-05 1.34038e-05 1.34038e-05 1.34038e-05
          1.3404e-05 1.34039e-05 1.34037e-05 1.34038e-05 1.34037e-05 1.34037e-05 1.3404e-05 1.3404e-05 1.34036e-05 1.34038e-05 1.34037e-05 1.34037e-05
          1.3404e-05 1.3404e-05 1.34035e-05 1.34039e-05 1.34036e-05 1.34037e-05 1.34039e-05 1.37182e-05 1.36864e-05 1.36622e-05 1.36357e-05 1.34038e-05
        </DataArray>
        <DataArray type="Float32" Name="x_gas^H2O" NumberOfComponents="1" format="ascii">
          0.0316961 0.0316961 0.0316962 0.0316963 0.0316962 0.0316963 0.0316963 0.0316964 0.0316963 0.0316964 0.0316963 0.0316965
          0.0316963 0.0316964 0.0316964 0.0316965 0.0316966 0.0316966 0.0316964 0.0316965 0.0316966 0.0316966 0.0316967 0.0316967
          0.0316965 0.0316966 0.0316967 0.0316967 0.0316968 0.0316968 0.0316966 0.0316966 0.0316968 0.0316968 0.0316969 0.0316969
          0.0316966 0.0316967 0.0316969 0.0316969 0.031697 0.031697 0.0316966 0.0316967 0.031697 0.031697 0.0316971 0.0316971
          0.0316966 0.0316967 0.0316971 0.031697 0.0316972 0.0316971 0.0316966 0.0316967 0.0316974 0.031697 0.0316973 0.0316972
          0.0316966 0.0316965 0.0316978 0.0316968 0.0316975 0.0316972 0.0316968 0.00901065 0.011238 0.0130469 0.0149163 0.031697
        </DataArray>
        <DataArray type="Float32" Name="x_gas^Air" NumberOfComponents="1" format="ascii">
          0.968304 0.968304 0.968304 0.968304 0.968304 0.968304 0.968304 0.968304 0.968304 0.968304 0.968304 0.968304
          0.968304 0.968304 0.968304 0.968304 0.968303 0.968303 0.968304 0.968304 0.968303 0.968303 0.968303 0.968303
          0.968304 0.968303 0.968303 0.968303 0.968303 0.968303 0.968303 0.968303 0.968303 0.968303 0.968303 0.968303
          0.968303 0.968303 0.968303 0.968303 0.968303 0.968303 0.968303 0.968303 0.968303 0.968303 0.968303 0.968303
          0.968303 0.968303 0.968303 0.968303 0.968303 0.968303 0.968303 0.968303 0.968303 0.968303 0.968303 0.968303
          0.968303 0.968304 0.968302 0.968303 0.968303 0.968303 0.968303 0.990989 0.988762 0.986953 0.985084 0.968303
        </DataArray>
        <DataArray type="Float32" Name="porosity" NumberOfComponents="1" format="ascii">
          0.41 0.41 0.41 0.41 0.41 0.41 0.41 0.41 0.41 0.41 0.41 0.41
          0.41 0.41 0.41 0.41 0.41 0.41 0.41 0.41 0.41 0.41 0.41 0.41
          0.41 0.41 0.41 0.41 0.41 0.41 0.41 0.41 0.41 0.41 0.41 0.41
          0.41 0.41 0.41 0.41 0.41 0.41 0.41 0.41 0.41 0.41 0.41 0.41
          0.41 0.41 0.41 0.41 0.41 0.41 0.41 0.41 0.41 0.41 0.41 0.41
          0.41 0.41 0.41 0.41 0.41 0.41 0.41 0.41 0.41 0.41 0.41 0.41
        </DataArray>
        <DataArray type="Float32" Name="temperature" NumberOfComponents="1" format="ascii">
          298.15 298.15 298.15 298.15 298.15 298.15 298.15 298.15 298.15 298.15 298.15 298.15
          298.15 298.15 298.15 298.15 298.15 298.15 298.15 298.15 298.15 298.15 298.15 298.15
          298.15 298.15 298.15 298.15 298.15 298.15 298.15 298.15 298.15 298.15 298.15 298.15
          298.15 298.15 298.15 298.15 298.15 298.15 298.15 298.15 298.15 298.15 298.15 298.15
          298.15 298.15 298.15 298.15 298.15 298.15 298.15 298.15 298.15 298.15 298.15 298.15
          298.15 298.15 298.15 298.15 298.15 298.15 298.15 298.15 298.15 298.15 298.15 298.15
        </DataArray>
        <DataArray type="Float32" Name="phase presence" NumberOfComponents="1" format="ascii">
          3 3 3 3 3 3 3 3 3 3 3 3
          3 3 3 3 3 3 3 3 3 3 3 3
          3 3 3 3 3 3 3 3 3 3 3 3
          3 3 3 3 3 3 3 3 3 3 3 3
          3 3 3 3 3 3 3 3 3 3 3 3
          3 3 3 3 3 3 3 2 2 2 2 3
        </DataArray>
        <DataArray type="Float32" Name="velocityW" NumberOfComponents="3" format="ascii">
          3.17116e-09 -1.90556e-09 0 4.20044e-09 -4.06614e-10 0 4.59625e-09 -1.83623e-09 0 5.95555e-09 1.80081e-09 0
          2.69636e-09 2.08659e-09 0 3.73864e-09 7.56507e-09 0 -2.3885e-09 2.09924e-09 0 -3.41443e-09 7.57478e-09 0
          -3.99835e-09 -3.45424e-10 0 -5.72103e-09 1.91141e-09 0 -3.05671e-09 -1.82563e-09 0 -4.45076e-09 -1.67295e-09 0
          7.03927e-09 7.91498e-09 0 8.42102e-09 1.70802e-08 0 4.94726e-09 2.9862e-08 0 -4.71836e-09 2.9834e-08 0
          -8.17423e-09 1.72359e-08 0 -6.82e-09 8.26658e-09 0 7.40526e-09 3.70943e-08 0 8.18823e-09 5.32508e-08 0
          4.47828e-09 7.26655e-08 0 -4.42284e-09 7.25581e-08 0 -8.01649e-09 5.33903e-08 0 -7.20196e-09 3.76694e-08 0
          6.38921e-09 7.24846e-08 0 6.25701e-09 9.54546e-08 0 3.02587e-09 1.19241e-07 0 -3.08424e-09 1.19056e-07 0
          -6.15248e-09 9.55764e-08 0 -6.20956e-09 7.33073e-08 0 6.48048e-09 9.64426e-08 0 5.60999e-09 1.25907e-07 0
          2.32268e-09 1.51889e-07 0 -2.43066e-09 1.51642e-07 0 -5.5257e-09 1.25999e-07 0 -6.28421e-09 9.75162e-08 0
          7.84102e-09 1.0717e-07 0 6.0978e-09 1.43805e-07 0 2.12699e-09 1.70707e-07 0 -2.27031e-09 1.70413e-07 0
          -6.01315e-09 1.43821e-07 0 -7.58626e-09 1.0849e-07 0 1.03527e-08 1.09196e-07 0 7.2689e-09 1.54676e-07 0
          2.05216e-09 1.81447e-07 0 -2.23036e-09 1.81139e-07 0 -7.18194e-09 1.54544e-07 0 -9.98393e-09 1.10791e-07 0
          1.43626e-08 1.05544e-07 0 9.04097e-09 1.62573e-07 0 1.8631e-09 1.8784e-07 0 -2.07324e-09 1.87614e-07 0
          -8.95424e-09 1.62176e-07 0 -1.37551e-08 1.07502e-07 0 2.17807e-08 9.69318e-08 0 1.2108e-08 1.70091e-07 0
          1.34145e-09 1.91567e-07 0 -1.57473e-09 1.91642e-07 0 -1.19369e-08 1.69177e-07 0 -2.04768e-08 9.95083e-08 0
          4.74022e-08 7.77149e-08 0 2.39888e-08 1.70415e-07 0 3.55643e-10 1.89219e-07 0 -4.68503e-10 1.85133e-07 0
          -2.27832e-08 1.76206e-07 0 -4.44935e-08 8.18253e-08 0 2.38004e-07 6.40943e-08 0 1.19002e-07 1.66798e-07 0
          0 1.85558e-07 0 0 1.77086e-07 0 -1.05996e-07 1.79641e-07 0 -2.11993e-07 6.93326e-08 0
        </DataArray>
        <DataArray type="Float32" Name="velocityN" NumberOfComponents="3" format="ascii">
          6.62752e-10 -7.77521e-10 0 9.83393e-10 -5.38088e-10 0 8.70193e-09 -9.7025e-09 0 1.28333e-08 -6.40904e-09 0
          1.20214e-09 -2.42347e-10 0 1.55591e-08 -2.41116e-09 0 9.02974e-10 -1.75542e-10 0 1.16076e-08 -1.57812e-09 0
          4.73599e-10 -1.51135e-10 0 6.07803e-09 -1.25907e-09 0 2.41503e-10 -1.44537e-10 0 3.09451e-09 -1.17746e-09 0
          5.17248e-07 -3.4658e-07 0 7.63048e-07 -1.75362e-07 0 9.22927e-07 3.36527e-08 0 6.85888e-07 7.48428e-08 0
          3.58673e-07 9.06703e-08 0 1.82576e-07 9.47676e-08 0 5.44794e-06 -3.70316e-06 0 8.19497e-06 -1.87634e-06 0
          9.9172e-06 6.11888e-07 0 7.22442e-06 1.04912e-06 0 3.7252e-06 1.17091e-06 0 1.89398e-06 1.21354e-06 0
          1.84889e-05 -1.60123e-05 0 2.81019e-05 -8.24774e-06 0 3.27035e-05 3.62894e-06 0 2.2427e-05 4.57002e-06 0
          1.15226e-05 4.96865e-06 0 5.88332e-06 5.1682e-06 0 3.6254e-05 -4.17991e-05 0 5.55577e-05 -2.18687e-05 0
          5.8666e-05 1.34161e-05 0 3.55155e-05 1.03764e-05 0 1.90826e-05 1.20871e-05 0 9.60496e-06 1.24727e-05 0
          5.68201e-05 -8.18129e-05 0 9.12687e-05 -4.48688e-05 0 8.24344e-05 3.85012e-05 0 3.95343e-05 1.34738e-05 0
          2.5443e-05 2.23642e-05 0 1.09688e-05 2.14002e-05 0 7.66994e-05 -0.000134202 0 0.000143475 -8.40649e-05 0
          0.000105253 9.5491e-05 0 3.14301e-05 1.85578e-06 0 3.42337e-05 3.89287e-05 0 5.86199e-06 2.822e-05 0
          8.06e-05 -0.000190803 0 0.000224786 -0.000158024 0 0.000128237 0.000216476 0 5.35643e-06 -4.95504e-05 0
          5.20093e-05 7.36542e-05 0 -1.9192e-05 2.40859e-05 0 2.52703e-05 -0.000226821 0 0.000346918 -0.000306295 0
          0.000147857 0.000459107 0 -4.94219e-05 -0.000189121 0 8.8101e-05 0.000155074 0 -9.78044e-05 -1.23261e-05 0
          -0.000177035 -0.000185075 0 0.000526502 -0.000590653 0 0.000160468 0.000924088 0 -0.00014746 -0.000492595 0
          0.000157321 0.000343042 0 -0.000299542 -0.000125448 0 -0.000494106 -0.000135029 0 0.000707104 -0.000775716 0
          0.000162602 0.00122821 0 -0.000257618 -0.000696372 0 0.000241665 0.000473721 0 -0.000584544 -0.000208555 0
        </DataArray>
      </PointData>
      <CellData Scalars="process rank">
        <DataArray type="Float32" Name="process rank" NumberOfComponents="1" format="ascii">
          0 0 0 0 0 0 0 0 0 0 0 0
          0 0 0 0 0 0 0 0 0 0 0 0
          0 0 0 0 0 0 0 0 0 0 0 0
          0 0 0 0 0 0 0 0 0 0 0 0
          0 0 0 0 0 0 0
        </DataArray>
      </CellData>
      <Points>
        <DataArray type="Float32" Name="Coordinates" NumberOfComponents="3" format="ascii">
          0.25 0 0 0.3 0 0 0.25 0.0349916 0 0.3 0.0349916 0
          0.35 0 0 0.35 0.0349916 0 0.4 0 0 0.4 0.0349916 0
          0.45 0 0 0.45 0.0349916 0 0.5 0 0 0.5 0.0349916 0
          0.25 0.0668022 0 0.3 0.0668022 0 0.35 0.0668022 0 0.4 0.0668022 0
          0.45 0.0668022 0 0.5 0.0668022 0 0.25 0.0957209 0 0.3 0.0957209 0
          0.35 0.0957209 0 0.4 0.0957209 0 0.45 0.0957209 0 0.5 0.0957209 0
          0.25 0.122011 0 0.3 0.122011 0 0.35 0.122011 0 0.4 0.122011 0
          0.45 0.122011 0 0.5 0.122011 0 0.25 0.14591 0 0.3 0.14591 0
          0.35 0.14591 0 0.4 0.14591 0 0.45 0.14591 0 0.5 0.14591 0
          0.25 0.167637 0 0.3 0.167637 0 0.35 0.167637 0 0.4 0.167637 0
          0.45 0.167637 0 0.5 0.167637 0 0.25 0.187389 0 0.3 0.187389 0
          0.35 0.187389 0 0.4 0.187389 0 0.45 0.187389 0 0.5 0.187389 0
          0.25 0.205345 0 0.3 0.205345 0 0.35 0.205345 0 0.4 0.205345 0
          0.45 0.205345 0 0.5 0.205345 0 0.25 0.221669 0 0.3 0.221669 0
          0.35 0.221669 0 0.4 0.221669 0 0.45 0.221669 0 0.5 0.221669 0
          0.25 0.236509 0 0.3 0.236509 0 0.35 0.236509 0 0.4 0.236509 0
          0.45 0.236509 0 0.5 0.236509 0 0.25 0.25 0 0.3 0.25 0
          0.35 0.25 0 0.4 0.25 0 0.45 0.25 0 0.5 0.25 0
        </DataArray>
      </Points>
      <Cells>
        <DataArray type="Int32" Name="connectivity" NumberOfComponents="1" format="ascii">
          0 1 3 2 1 4 5 3 4 6 7 5
          6 8 9 7 8 10 11 9 2 3 13 12
          3 5 14 13 5 7 15 14 7 9 16 15
          9 11 17 16 12 13 19 18 13 14 20 19
          14 15 21 20 15 16 22 21 16 17 23 22
          18 19 25 24 19 20 26 25 20 21 27 26
          21 22 28 27 22 23 29 28 24 25 31 30
          25 26 32 31 26 27 33 32 27 28 34 33
          28 29 35 34 30 31 37 36 31 32 38 37
          32 33 39 38 33 34 40 39 34 35 41 40
          36 37 43 42 37 38 44 43 38 39 45 44
          39 40 46 45 40 41 47 46 42 43 49 48
          43 44 50 49 44 45 51 50 45 46 52 51
          46 47 53 52 48 49 55 54 49 50 56 55
          50 51 57 56 51 52 58 57 52 53 59 58
          54 55 61 60 55 56 62 61 56 57 63 62
          57 58 64 63 58 59 65 64 60 61 67 66
          61 62 68 67 62 63 69 68 63 64 70 69
          64 65 71 70
        </DataArray>
        <DataArray type="Int32" Name="offsets" NumberOfComponents="1" format="ascii">
          4 8 12 16 20 24 28 32 36 40 44 48
          52 56 60 64 68 72 76 80 84 88 92 96
          100 104 108 112 116 120 124 128 132 136 140 144
          148 152 156 160 164 168 172 176 180 184 188 192
          196 200 204 208 212 216 220
        </DataArray>
        <DataArray type="UInt8" Name="types" NumberOfComponents="1" format="ascii">
          9 9 9 9 9 9 9 9 9 9 9 9
          9 9 9 9 9 9 9 9 9 9 9 9
          9 9 9 9 9 9 9 9 9 9 9 9
          9 9 9 9 9 9 9 9 9 9 9 9
          9 9 9 9 9 9 9
        </DataArray>
      </Cells>
    </Piece>
  </UnstructuredGrid>
</VTKFile>
