<?xml version="1.0"?>
<VTKFile type="UnstructuredGrid" version="0.1" byte_order="LittleEndian">
  <UnstructuredGrid>
    <Piece NumberOfCells="60" NumberOfPoints="78">
      <PointData Scalars="Sn" Vectors="velocityW">
        <DataArray type="Float32" Name="Sn" NumberOfComponents="1" format="ascii">
          0.0123803 0.0123781 0.015842 0.0158379 0.0123737 0.0158296 0.01237 0.0158226 0.0123676 0.0158182 0.0123668 0.0158166
          0.0389155 0.0388595 0.0387478 0.0386548 0.0385951 0.0385745 0.148013 0.147828 0.147458 0.147145 0.146936 0.146864
          0.360189 0.359897 0.359284 0.35877 0.358415 0.35828 0.582174 0.581907 0.581301 0.580815 0.580438 0.58027
          0.738897 0.73875 0.738285 0.737921 0.737516 0.737318 0.833119 0.833203 0.832905 0.832607 0.831989 0.831642
          0.888524 0.889124 0.889032 0.888693 0.887464 0.886698 0.922466 0.924276 0.924472 0.923967 0.921381 0.919664
          0.944668 0.949337 0.949877 0.949123 0.943752 0.940135 0.959385 0.971378 0.972022 0.971199 0.95991 0.95307
          0.949676 1 1 1 0.967518 0.963144
        </DataArray>
        <DataArray type="Float32" Name="Sw" NumberOfComponents="1" format="ascii">
          0.987614 0.987617 0.984148 0.984152 0.987621 0.984162 0.987626 0.984169 0.987628 0.984174 0.987629 0.984176
          0.960951 0.961012 0.961135 0.961237 0.961303 0.961326 0.85155 0.851752 0.852158 0.852503 0.852733 0.852813
          0.63913 0.63945 0.640122 0.640687 0.641075 0.641222 0.41721 0.417503 0.418168 0.4187 0.419107 0.419285
          0.260671 0.260839 0.261351 0.261746 0.262172 0.262378 0.166599 0.16653 0.166866 0.16718 0.16781 0.168164
          0.11129 0.110701 0.110824 0.111167 0.112399 0.113173 0.0774079 0.0756056 0.0754375 0.0759335 0.0785082 0.0802413
          0.0552474 0.0505833 0.0500691 0.0508009 0.0561273 0.0597859 0.0405625 0.0285734 0.0279549 0.0287506 0.0398965 0.0468695
          0.0502388 0 0 0 0.0318739 0.036944
        </DataArray>
        <DataArray type="Float32" Name="pn" NumberOfComponents="1" format="ascii">
          100004 100003 100003 100003 100003 100003 100002 100002 100002 100002 100002 100002
          100003 100003 100002 100002 100002 100001 100003 100002 100002 100001 100001 100001
          100003 100002 100002 100001 100001 100001 100002 100002 100001 100001 100001 100000
          100002 100002 100001 100001 100000 100000 100002 100002 100001 100000 100000 99999.9
          100002 100002 100000 100000 99999.7 99999.6 100002 100002 99999.6 100000 99999.3 99999.5
          100002 100002 99998.6 100000 99998.8 99999.4 100002 100003 99997.1 100001 99998.1 99999.5
          100002 100005 99994.7 100002 99996.9 100000
        </DataArray>
        <DataArray type="Float32" Name="pw" NumberOfComponents="1" format="ascii">
          99658.5 99658.5 99332.3 99332.3 99658.5 99332.3 99658.5 99332.3 99658.5 99332.3 99658.6 99332.3
          99035.7 99035.7 99035.7 99035.7 99035.7 99035.7 98766 98766 98766 98766.1 98766.1 98766.1
          98520.9 98520.9 98520.9 98520.9 98521 98521 98298 98298 98298 98298 98298.1 98298.2
          98095.2 98095.1 98095 98095.1 98095.4 98095.6 97910 97909.4 97909 97909.4 97910.6 97911.4
          97739.1 97736.3 97735.1 97736.4 97740.7 97743.6 97577.1 97565.8 97562.2 97565.8 97580.5 97590.5
          97415.8 97371.4 97362.2 97371.5 97420.4 97451.5 97255.3 97054.8 97034.7 97056.4 97244 97329.2
          97367.4 95702.2 95692.2 95699.9 97124.2 97199.6
        </DataArray>
        <DataArray type="Float32" Name="pc" NumberOfComponents="1" format="ascii">
          345.214 344.95 671.141 670.866 344.41 670.311 343.948 669.846 343.653 669.55 343.552 669.448
          967.406 967.126 966.564 966.096 965.794 965.69 1236.74 1236.45 1235.89 1235.41 1235.09 1234.98
          1481.61 1481.33 1480.72 1480.22 1479.87 1479.73 1704.31 1704.02 1703.36 1702.82 1702.41 1702.23
          1907.02 1906.79 1906.05 1905.47 1904.83 1904.52 2092.17 2092.37 2091.63 2090.89 2089.36 2088.5
          2263.1 2265.44 2265.08 2263.76 2259 2256.06 2425.26 2436.18 2437.38 2434.28 2418.85 2408.93
          2586.62 2630.96 2636.42 2628.82 2578.47 2547.84 2746.98 2948.37 2962.4 2944.55 2754.05 2670.3
          2634.38 4302.49 4302.49 4302.49 2872.65 2800.45
        </DataArray>
        <DataArray type="Float32" Name="rhoW" NumberOfComponents="1" format="ascii">
          997.048 997.048 997.047 997.047 997.048 997.047 997.048 997.047 997.048 997.047 997.048 997.047
          997.047 997.047 997.047 997.047 997.047 997.047 997.047 997.047 997.047 997.047 997.047 997.047
          997.047 997.047 997.047 997.047 997.047 997.047 997.047 997.047 997.047 997.047 997.047 997.047
          997.047 997.047 997.047 997.047 997.047 997.047 997.047 997.047 997.047 997.047 997.047 997.047
          997.047 997.047 997.047 997.047 997.047 997.047 997.047 997.047 997.047 997.047 997.047 997.047
          997.047 997.047 997.047 997.047 997.047 997.047 997.046 997.046 997.046 997.046 997.046 997.046
          997.047 997.046 997.046 997.046 997.046 997.046
        </DataArray>
        <DataArray type="Float32" Name="rhoN" NumberOfComponents="1" format="ascii">
          1.15428 1.15428 1.15428 1.15427 1.15427 1.15427 1.15427 1.15426 1.15426 1.15426 1.15426 1.15426
          1.15427 1.15427 1.15426 1.15426 1.15426 1.15425 1.15427 1.15427 1.15426 1.15425 1.15425 1.15425
          1.15427 1.15426 1.15426 1.15425 1.15425 1.15425 1.15426 1.15426 1.15425 1.15425 1.15424 1.15424
          1.15426 1.15426 1.15425 1.15424 1.15424 1.15424 1.15426 1.15426 1.15425 1.15424 1.15424 1.15424
          1.15426 1.15426 1.15424 1.15424 1.15423 1.15423 1.15426 1.15426 1.15423 1.15424 1.15423 1.15423
          1.15427 1.15426 1.15422 1.15424 1.15422 1.15423 1.15426 1.15427 1.1542 1.15425 1.15422 1.15423
          1.15426 1.16059 1.15749 1.1547 1.1542 1.15424
        </DataArray>
        <DataArray type="Float32" Name="mobW" NumberOfComponents="1" format="ascii">
          1123.09 1123.09 1120.76 1120.76 1123.09 1120.77 1123.1 1120.78 1123.1 1120.78 1123.1 1120.78
          1063.63 1063.86 1064.32 1064.7 1064.94 1065.02 647.964 648.47 649.485 650.35 650.926 651.126
          263.598 263.999 264.846 265.558 266.048 266.234 73.5889 73.7418 74.0896 74.3689 74.583 74.6765
          18.4373 18.4722 18.5789 18.6615 18.7507 18.794 4.94253 4.93651 4.96594 4.99352 5.04923 5.08071
          1.49365 1.47015 1.47503 1.48871 1.53852 1.57038 0.500281 0.465635 0.462485 0.471818 0.522232 0.558061
          0.176882 0.134079 0.129822 0.135906 0.185835 0.22621 0.0661962 0.0205768 0.0190798 0.0210193 0.0627331 0.105296
          0.131217 0 0 0 0.0298588 0.0487949
        </DataArray>
        <DataArray type="Float32" Name="mobN" NumberOfComponents="1" format="ascii">
          0.321915 0.321323 2.01535 2.01243 0.320115 2.00658 0.319084 2.00169 0.318428 1.99858 0.318203 1.99751
          52.7464 52.5384 52.1244 51.7814 51.5616 51.4859 1264.47 1261.04 1254.22 1248.44 1244.6 1243.28
          8166.44 8153 8124.79 8101.19 8084.9 8078.71 21230.7 21211.8 21169 21134.7 21108.2 21096.4
          33360 33347.8 33309.1 33278.8 33245.1 33228.6 41420.6 41428 41401.9 41376 41322.1 41291.8
          46263 46315.3 46307.3 46277.7 46170.6 46103.8 49568 49761.5 49782.4 49728.4 49452.1 49269.1
          51887 52336.8 52387.4 52316.7 51796.4 51432.4 53220.2 54072.5 54110.7 54061.7 53262.6 52679.8
          52368.6 54828.6 54828.6 54828.6 53826.3 53514.1
        </DataArray>
        <DataArray type="Float32" Name="X_liquid^H2O" NumberOfComponents="1" format="ascii">
          0.999978 0.999978 0.999978 0.999978 0.999978 0.999978 0.999978 0.999978 0.999978 0.999978 0.999978 0.999978
          0.999978 0.999978 0.999978 0.999978 0.999978 0.999978 0.999978 0.999978 0.999978 0.999978 0.999978 0.999978
          0.999978 0.999978 0.999978 0.999978 0.999978 0.999978 0.999978 0.999978 0.999978 0.999978 0.999978 0.999978
          0.999978 0.999978 0.999978 0.999978 0.999978 0.999978 0.999978 0.999978 0.999978 0.999978 0.999978 0.999978
          0.999978 0.999978 0.999978 0.999978 0.999978 0.999978 0.999978 0.999978 0.999978 0.999978 0.999978 0.999978
          0.999978 0.999978 0.999978 0.999978 0.999978 0.999978 0.999978 0.999978 0.999978 0.999978 0.999978 0.999978
          0.999978 0.549679 0.763399 0.96893 0.999978 0.999978
        </DataArray>
        <DataArray type="Float32" Name="X_liquid^Air" NumberOfComponents="1" format="ascii">
          2.15477e-05 2.15476e-05 2.15476e-05 2.15475e-05 2.15475e-05 2.15474e-05 2.15474e-05 2.15473e-05 2.15473e-05 2.15473e-05 2.15473e-05 2.15472e-05
          2.15475e-05 2.15475e-05 2.15474e-05 2.15472e-05 2.15472e-05 2.15472e-05 2.15475e-05 2.15474e-05 2.15473e-05 2.15472e-05 2.15471e-05 2.15471e-05
          2.15474e-05 2.15473e-05 2.15472e-05 2.15471e-05 2.1547e-05 2.1547e-05 2.15474e-05 2.15473e-05 2.15471e-05 2.1547e-05 2.1547e-05 2.15469e-05
          2.15473e-05 2.15473e-05 2.15471e-05 2.1547e-05 2.15469e-05 2.15469e-05 2.15473e-05 2.15472e-05 2.1547e-05 2.15469e-05 2.15468e-05 2.15468e-05
          2.15474e-05 2.15472e-05 2.15469e-05 2.15469e-05 2.15468e-05 2.15468e-05 2.15474e-05 2.15473e-05 2.15468e-05 2.15469e-05 2.15467e-05 2.15467e-05
          2.15474e-05 2.15474e-05 2.15465e-05 2.15469e-05 2.15466e-05 2.15467e-05 2.15474e-05 2.15476e-05 2.15462e-05 2.15471e-05 2.15464e-05 2.15467e-05
          2.15473e-05 2.18654e-05 2.17125e-05 2.15693e-05 2.15462e-05 2.15469e-05
        </DataArray>
        <DataArray type="Float32" Name="X_gas^H2O" NumberOfComponents="1" format="ascii">
          0.0199561 0.0199562 0.0199562 0.0199563 0.0199563 0.0199564 0.0199564 0.0199565 0.0199564 0.0199565 0.0199565 0.0199565
          0.0199563 0.0199563 0.0199564 0.0199565 0.0199566 0.0199566 0.0199563 0.0199564 0.0199565 0.0199566 0.0199566 0.0199567
          0.0199564 0.0199564 0.0199566 0.0199567 0.0199567 0.0199567 0.0199564 0.0199565 0.0199566 0.0199567 0.0199568 0.0199568
          0.0199564 0.0199565 0.0199567 0.0199568 0.0199568 0.0199569 0.0199564 0.0199565 0.0199567 0.0199568 0.0199569 0.0199569
          0.0199564 0.0199565 0.0199568 0.0199569 0.019957 0.019957 0.0199564 0.0199565 0.019957 0.0199569 0.019957 0.019957
          0.0199564 0.0199564 0.0199572 0.0199568 0.0199571 0.019957 0.0199564 0.0199562 0.0199575 0.0199567 0.0199573 0.019957
          0.0199565 0.0109101 0.0151927 0.0193295 0.0199575 0.0199569
        </DataArray>
        <DataArray type="Float32" Name="X_gas^Air" NumberOfComponents="1" format="ascii">
          0.980044 0.980044 0.980044 0.980044 0.980044 0.980044 0.980044 0.980044 0.980044 0.980043 0.980044 0.980043
          0.980044 0.980044 0.980044 0.980043 0.980043 0.980043 0.980044 0.980044 0.980044 0.980043 0.980043 0.980043
          0.980044 0.980044 0.980043 0.980043 0.980043 0.980043 0.980044 0.980044 0.980043 0.980043 0.980043 0.980043
          0.980044 0.980043 0.980043 0.980043 0.980043 0.980043 0.980044 0.980043 0.980043 0.980043 0.980043 0.980043
          0.980044 0.980043 0.980043 0.980043 0.980043 0.980043 0.980044 0.980044 0.980043 0.980043 0.980043 0.980043
          0.980044 0.980044 0.980043 0.980043 0.980043 0.980043 0.980044 0.980044 0.980043 0.980043 0.980043 0.980043
          0.980043 0.98909 0.984807 0.980671 0.980042 0.980043
        </DataArray>
        <DataArray type="Float32" Name="x_liquid^H2O" NumberOfComponents="1" format="ascii">
          0.999987 0.999987 0.999987 0.999987 0.999987 0.999987 0.999987 0.999987 0.999987 0.999987 0.999987 0.999987
          0.999987 0.999987 0.999987 0.999987 0.999987 0.999987 0.999987 0.999987 0.999987 0.999987 0.999987 0.999987
          0.999987 0.999987 0.999987 0.999987 0.999987 0.999987 0.999987 0.999987 0.999987 0.999987 0.999987 0.999987
          0.999987 0.999987 0.999987 0.999987 0.999987 0.999987 0.999987 0.999987 0.999987 0.999987 0.999987 0.999987
          0.999987 0.999987 0.999987 0.999987 0.999987 0.999987 0.999987 0.999987 0.999987 0.999987 0.999987 0.999987
          0.999987 0.999987 0.999987 0.999987 0.999987 0.999987 0.999987 0.999987 0.999987 0.999987 0.999987 0.999987
          0.999987 0.549687 0.763407 0.968938 0.999987 0.999987
        </DataArray>
        <DataArray type="Float32" Name="x_liquid^Air" NumberOfComponents="1" format="ascii">
          1.34043e-05 1.34043e-05 1.34043e-05 1.34042e-05 1.34042e-05 1.34041e-05 1.34041e-05 1.34041e-05 1.34041e-05 1.3404e-05 1.34041e-05 1.3404e-05
          1.34042e-05 1.34042e-05 1.34041e-05 1.3404e-05 1.3404e-05 1.3404e-05 1.34042e-05 1.34041e-05 1.34041e-05 1.3404e-05 1.34039e-05 1.34039e-05
          1.34041e-05 1.34041e-05 1.3404e-05 1.34039e-05 1.34039e-05 1.34039e-05 1.34041e-05 1.34041e-05 1.3404e-05 1.34039e-05 1.34039e-05 1.34038e-05
          1.34041e-05 1.3404e-05 1.34039e-05 1.34039e-05 1.34038e-05 1.34038e-05 1.34041e-05 1.3404e-05 1.34039e-05 1.34038e-05 1.34038e-05 1.34038e-05
          1.34041e-05 1.3404e-05 1.34038e-05 1.34038e-05 1.34037e-05 1.34037e-05 1.34041e-05 1.3404e-05 1.34037e-05 1.34038e-05 1.34037e-05 1.34037e-05
          1.34041e-05 1.34041e-05 1.34036e-05 1.34038e-05 1.34036e-05 1.34037e-05 1.34041e-05 1.34042e-05 1.34034e-05 1.34039e-05 1.34035e-05 1.34037e-05
          1.3404e-05 1.3602e-05 1.35068e-05 1.34177e-05 1.34034e-05 1.34038e-05
        </DataArray>
        <DataArray type="Float32" Name="x_gas^H2O" NumberOfComponents="1" format="ascii">
          0.0316959 0.0316959 0.031696 0.0316961 0.0316961 0.0316962 0.0316963 0.0316964 0.0316963 0.0316965 0.0316964 0.0316965
          0.0316961 0.0316962 0.0316963 0.0316965 0.0316966 0.0316966 0.0316962 0.0316963 0.0316964 0.0316966 0.0316967 0.0316967
          0.0316962 0.0316963 0.0316965 0.0316967 0.0316968 0.0316968 0.0316963 0.0316964 0.0316966 0.0316968 0.0316969 0.0316969
          0.0316963 0.0316965 0.0316967 0.0316969 0.031697 0.031697 0.0316963 0.0316965 0.0316968 0.0316969 0.0316971 0.0316971
          0.0316963 0.0316965 0.031697 0.031697 0.0316971 0.0316972 0.0316963 0.0316964 0.0316972 0.031697 0.0316973 0.0316972
          0.0316963 0.0316963 0.0316975 0.0316969 0.0316974 0.0316972 0.0316963 0.031696 0.031698 0.0316967 0.0316976 0.0316972
          0.0316965 0.0174229 0.0241994 0.0307122 0.031698 0.031697
        </DataArray>
        <DataArray type="Float32" Name="x_gas^Air" NumberOfComponents="1" format="ascii">
          0.968304 0.968304 0.968304 0.968304 0.968304 0.968304 0.968304 0.968304 0.968304 0.968304 0.968304 0.968304
          0.968304 0.968304 0.968304 0.968304 0.968303 0.968303 0.968304 0.968304 0.968304 0.968303 0.968303 0.968303
          0.968304 0.968304 0.968303 0.968303 0.968303 0.968303 0.968304 0.968304 0.968303 0.968303 0.968303 0.968303
          0.968304 0.968304 0.968303 0.968303 0.968303 0.968303 0.968304 0.968304 0.968303 0.968303 0.968303 0.968303
          0.968304 0.968304 0.968303 0.968303 0.968303 0.968303 0.968304 0.968304 0.968303 0.968303 0.968303 0.968303
          0.968304 0.968304 0.968303 0.968303 0.968303 0.968303 0.968304 0.968304 0.968302 0.968303 0.968302 0.968303
          0.968304 0.982577 0.975801 0.969288 0.968302 0.968303
        </DataArray>
        <DataArray type="Float32" Name="porosity" NumberOfComponents="1" format="ascii">
          0.41 0.41 0.41 0.41 0.41 0.41 0.41 0.41 0.41 0.41 0.41 0.41
          0.41 0.41 0.41 0.41 0.41 0.41 0.41 0.41 0.41 0.41 0.41 0.41
          0.41 0.41 0.41 0.41 0.41 0.41 0.41 0.41 0.41 0.41 0.41 0.41
          0.41 0.41 0.41 0.41 0.41 0.41 0.41 0.41 0.41 0.41 0.41 0.41
          0.41 0.41 0.41 0.41 0.41 0.41 0.41 0.41 0.41 0.41 0.41 0.41
          0.41 0.41 0.41 0.41 0.41 0.41 0.41 0.41 0.41 0.41 0.41 0.41
          0.41 0.41 0.41 0.41 0.41 0.41
        </DataArray>
        <DataArray type="Float32" Name="temperature" NumberOfComponents="1" format="ascii">
          298.15 298.15 298.15 298.15 298.15 298.15 298.15 298.15 298.15 298.15 298.15 298.15
          298.15 298.15 298.15 298.15 298.15 298.15 298.15 298.15 298.15 298.15 298.15 298.15
          298.15 298.15 298.15 298.15 298.15 298.15 298.15 298.15 298.15 298.15 298.15 298.15
          298.15 298.15 298.15 298.15 298.15 298.15 298.15 298.15 298.15 298.15 298.15 298.15
          298.15 298.15 298.15 298.15 298.15 298.15 298.15 298.15 298.15 298.15 298.15 298.15
          298.15 298.15 298.15 298.15 298.15 298.15 298.15 298.15 298.15 298.15 298.15 298.15
          298.15 298.15 298.15 298.15 298.15 298.15
        </DataArray>
        <DataArray type="Float32" Name="phase presence" NumberOfComponents="1" format="ascii">
          3 3 3 3 3 3 3 3 3 3 3 3
          3 3 3 3 3 3 3 3 3 3 3 3
          3 3 3 3 3 3 3 3 3 3 3 3
          3 3 3 3 3 3 3 3 3 3 3 3
          3 3 3 3 3 3 3 3 3 3 3 3
          3 3 3 3 3 3 3 3 3 3 3 3
          3 2 2 2 3 3
        </DataArray>
        <DataArray type="Float32" Name="velocityW" NumberOfComponents="3" format="ascii">
          -1.30732e-08 9.25e-09 0 -2.76715e-08 1.02675e-08 0 -1.16934e-08 1.76487e-08 0 -2.69584e-08 2.09073e-08 0
          -5.468e-08 8.80799e-09 0 -5.78856e-08 1.96572e-08 0 -6.57344e-08 -3.75216e-10 0 -7.33385e-08 3.99453e-10 0
          -4.54643e-08 -1.20885e-08 0 -5.16533e-08 -2.47966e-08 0 -2.65499e-08 -1.71823e-08 0 -3.01772e-08 -3.54168e-08 0
          -5.70422e-09 4.05673e-08 0 -2.17915e-08 5.1989e-08 0 -6.29716e-08 5.60496e-08 0 -9.36149e-08 1.53931e-08 0
          -6.97367e-08 -4.33569e-08 0 -4.03081e-08 -6.57824e-08 0 6.12228e-09 8.53975e-08 0 -5.2015e-09 1.11794e-07 0
          -4.42252e-08 1.29445e-07 0 -8.88734e-08 7.1775e-08 0 -7.6402e-08 -3.12882e-08 0 -4.69825e-08 -6.90193e-08 0
          1.48249e-08 1.56263e-07 0 8.55022e-09 2.01681e-07 0 -2.08957e-08 2.35854e-07 0 -6.23947e-08 1.70228e-07 0
          -6.58023e-08 2.71827e-08 0 -5.0882e-08 -3.65409e-08 0 1.7249e-08 2.28441e-07 0 1.32712e-08 2.92935e-07 0
          -7.01839e-09 3.40533e-07 0 -3.7279e-08 2.71716e-07 0 -4.36245e-08 1.03761e-07 0 -3.6021e-08 1.09273e-08 0
          1.89648e-08 2.77176e-07 0 1.47417e-08 3.59802e-07 0 -2.2444e-09 4.1623e-07 0 -2.74893e-08 3.46493e-07 0
          -3.32992e-08 1.62012e-07 0 -2.66271e-08 4.92883e-08 0 2.25984e-08 3.00537e-07 0 1.66836e-08 4.02254e-07 0
          -7.98463e-10 4.6424e-07 0 -2.55019e-08 3.9525e-07 0 -3.24524e-08 1.96719e-07 0 -2.62668e-08 6.90945e-08 0
          2.86971e-08 3.0586e-07 0 1.97102e-08 4.29721e-07 0 -2.8436e-10 4.94629e-07 0 -2.66125e-08 4.28124e-07 0
          -3.57906e-08 2.16274e-07 0 -2.96482e-08 7.3702e-08 0 3.82424e-08 2.98702e-07 0 2.40288e-08 4.49868e-07 0
          -8.45755e-11 5.14509e-07 0 -2.91761e-08 4.53166e-07 0 -4.18177e-08 2.27778e-07 0 -3.52677e-08 6.83556e-08 0
          5.61098e-08 2.80548e-07 0 3.15696e-08 4.68082e-07 0 -9.76324e-11 5.27266e-07 0 -3.38361e-08 4.75781e-07 0
          -5.17156e-08 2.35528e-07 0 -4.29838e-08 5.62569e-08 0 1.27756e-07 2.39026e-07 0 6.48367e-08 4.84221e-07 0
          -5.76806e-11 5.32163e-07 0 -5.4557e-08 5.0224e-07 0 -7.59459e-08 2.38347e-07 0 -4.48105e-08 4.04185e-08 0
          9.02879e-07 2.09426e-07 0 4.51439e-07 4.9114e-07 0 0 5.32231e-07 0 -8.75259e-08 5.17429e-07 0
          -9.8865e-08 2.37849e-07 0 -2.26782e-08 3.20543e-08 0
        </DataArray>
        <DataArray type="Float32" Name="velocityN" NumberOfComponents="3" format="ascii">
          4.96319e-10 -8.59868e-10 0 7.51212e-10 -6.98918e-10 0 3.19656e-09 -3.82372e-09 0 4.80473e-09 -2.65153e-09 0
          9.24418e-10 -4.74547e-10 0 5.84891e-09 -1.04352e-09 0 6.879e-10 -4.25959e-10 0 4.31602e-09 -7.36024e-10 0
          3.57717e-10 -4.12334e-10 0 2.24635e-09 -6.3787e-10 0 1.82367e-10 -4.07666e-10 0 1.14556e-09 -6.04485e-10 0
          8.60491e-08 -6.77448e-08 0 1.28416e-07 -4.02709e-08 0 1.54657e-07 -3.39306e-09 0 1.12972e-07 2.6535e-09 0
          5.86092e-08 4.72811e-09 0 2.98063e-08 5.37703e-09 0 2.09934e-06 -1.26658e-06 0 3.13458e-06 -6.53784e-07 0
          3.78594e-06 1.63219e-07 0 2.77527e-06 3.02676e-07 0 1.43989e-06 3.49782e-07 0 7.313e-07 3.62986e-07 0
          1.41258e-05 -9.20461e-06 0 2.15233e-05 -4.81294e-06 0 2.57937e-05 1.7734e-06 0 1.84247e-05 2.58023e-06 0
          9.50421e-06 2.87941e-06 0 4.82561e-06 2.97502e-06 0 4.03529e-05 -3.35686e-05 0 6.27105e-05 -1.81356e-05 0
          7.20955e-05 8.77982e-06 0 4.84561e-05 9.16877e-06 0 2.52595e-05 1.04768e-05 0 1.27296e-05 1.07326e-05 0
          7.31165e-05 -8.00136e-05 0 0.000117512 -4.53921e-05 0 0.000124182 2.91171e-05 0 7.46101e-05 1.84789e-05 0
          4.11967e-05 2.437e-05 0 1.96303e-05 2.39725e-05 0 0.000105281 -0.000146696 0 0.000184698 -9.13153e-05 0
          0.000172062 7.66893e-05 0 8.51044e-05 2.14743e-05 0 5.54102e-05 4.52868e-05 0 2.06208e-05 3.91452e-05 0
          0.000126076 -0.000225717 0 0.000273365 -0.000167531 0 0.000216708 0.000175579 0 7.52892e-05 -3.39053e-07 0
          7.26305e-05 7.88445e-05 0 7.44449e-06 4.91037e-05 0 0.00010942 -0.000299658 0 0.000399281 -0.000300789 0
          0.000262425 0.000367432 0 3.93951e-05 -8.02638e-05 0 0.000101675 0.000141589 0 -3.97312e-05 4.00916e-05 0
          -2.91474e-06 -0.000332225 0 0.000577056 -0.000541644 0 0.000308569 0.000720624 0 -3.43582e-05 -0.000275313 0
          0.000154241 0.000268011 0 -0.000162692 -1.48099e-05 0 -0.000316225 -0.000255105 0 0.00081818 -0.000962068 0
          0.000351119 0.00134 0 -0.000161272 -0.000674777 0 0.000246588 0.000518649 0 -0.000434628 -0.000163767 0
          -0.00075521 -0.000178141 0 0.00104383 -0.00122709 0 0.000376912 0.00173196 0 -0.000298465 -0.000939011 0
          0.00034881 0.000684483 0 -0.000794489 -0.000269363 0
        </DataArray>
      </PointData>
      <CellData Scalars="process rank">
        <DataArray type="Float32" Name="process rank" NumberOfComponents="1" format="ascii">
          0 0 0 0 0 0 0 0 0 0 0 0
          0 0 0 0 0 0 0 0 0 0 0 0
          0 0 0 0 0 0 0 0 0 0 0 0
          0 0 0 0 0 0 0 0 0 0 0 0
          0 0 0 0 0 0 0 0 0 0 0 0
        </DataArray>
      </CellData>
      <Points>
        <DataArray type="Float32" Name="Coordinates" NumberOfComponents="3" format="ascii">
          0.25 0 0 0.3 0 0 0.25 0.0333553 0 0.3 0.0333553 0
          0.35 0 0 0.35 0.0333553 0 0.4 0 0 0.4 0.0333553 0
          0.45 0 0 0.45 0.0333553 0 0.5 0 0 0.5 0.0333553 0
          0.25 0.0636783 0 0.3 0.0636783 0 0.35 0.0636783 0 0.4 0.0636783 0
          0.45 0.0636783 0 0.5 0.0636783 0 0.25 0.0912447 0 0.3 0.0912447 0
          0.35 0.0912447 0 0.4 0.0912447 0 0.45 0.0912447 0 0.5 0.0912447 0
          0.25 0.116305 0 0.3 0.116305 0 0.35 0.116305 0 0.4 0.116305 0
          0.45 0.116305 0 0.5 0.116305 0 0.25 0.139087 0 0.3 0.139087 0
          0.35 0.139087 0 0.4 0.139087 0 0.45 0.139087 0 0.5 0.139087 0
          0.25 0.159798 0 0.3 0.159798 0 0.35 0.159798 0 0.4 0.159798 0
          0.45 0.159798 0 0.5 0.159798 0 0.25 0.178626 0 0.3 0.178626 0
          0.35 0.178626 0 0.4 0.178626 0 0.45 0.178626 0 0.5 0.178626 0
          0.25 0.195743 0 0.3 0.195743 0 0.35 0.195743 0 0.4 0.195743 0
          0.45 0.195743 0 0.5 0.195743 0 0.25 0.211303 0 0.3 0.211303 0
          0.35 0.211303 0 0.4 0.211303 0 0.45 0.211303 0 0.5 0.211303 0
          0.25 0.225449 0 0.3 0.225449 0 0.35 0.225449 0 0.4 0.225449 0
          0.45 0.225449 0 0.5 0.225449 0 0.25 0.238309 0 0.3 0.238309 0
          0.35 0.238309 0 0.4 0.238309 0 0.45 0.238309 0 0.5 0.238309 0
          0.25 0.25 0 0.3 0.25 0 0.35 0.25 0 0.4 0.25 0
          0.45 0.25 0 0.5 0.25 0
        </DataArray>
      </Points>
      <Cells>
        <DataArray type="Int32" Name="connectivity" NumberOfComponents="1" format="ascii">
          0 1 3 2 1 4 5 3 4 6 7 5
          6 8 9 7 8 10 11 9 2 3 13 12
          3 5 14 13 5 7 15 14 7 9 16 15
          9 11 17 16 12 13 19 18 13 14 20 19
          14 15 21 20 15 16 22 21 16 17 23 22
          18 19 25 24 19 20 26 25 20 21 27 26
          21 22 28 27 22 23 29 28 24 25 31 30
          25 26 32 31 26 27 33 32 27 28 34 33
          28 29 35 34 30 31 37 36 31 32 38 37
          32 33 39 38 33 34 40 39 34 35 41 40
          36 37 43 42 37 38 44 43 38 39 45 44
          39 40 46 45 40 41 47 46 42 43 49 48
          43 44 50 49 44 45 51 50 45 46 52 51
          46 47 53 52 48 49 55 54 49 50 56 55
          50 51 57 56 51 52 58 57 52 53 59 58
          54 55 61 60 55 56 62 61 56 57 63 62
          57 58 64 63 58 59 65 64 60 61 67 66
          61 62 68 67 62 63 69 68 63 64 70 69
          64 65 71 70 66 67 73 72 67 68 74 73
          68 69 75 74 69 70 76 75 70 71 77 76
        </DataArray>
        <DataArray type="Int32" Name="offsets" NumberOfComponents="1" format="ascii">
          4 8 12 16 20 24 28 32 36 40 44 48
          52 56 60 64 68 72 76 80 84 88 92 96
          100 104 108 112 116 120 124 128 132 136 140 144
          148 152 156 160 164 168 172 176 180 184 188 192
          196 200 204 208 212 216 220 224 228 232 236 240
        </DataArray>
        <DataArray type="UInt8" Name="types" NumberOfComponents="1" format="ascii">
          9 9 9 9 9 9 9 9 9 9 9 9
          9 9 9 9 9 9 9 9 9 9 9 9
          9 9 9 9 9 9 9 9 9 9 9 9
          9 9 9 9 9 9 9 9 9 9 9 9
          9 9 9 9 9 9 9 9 9 9 9 9
        </DataArray>
      </Cells>
    </Piece>
  </UnstructuredGrid>
</VTKFile>
