<?xml version="1.0"?>
<VTKFile type="UnstructuredGrid" version="0.1" byte_order="LittleEndian">
  <UnstructuredGrid>
    <Piece NumberOfCells="60" NumberOfPoints="78">
      <PointData Scalars="Sn" Vectors="velocityW">
        <DataArray type="Float32" Name="Sn" NumberOfComponents="1" format="ascii">
          0.0123803 0.0123781 0.015842 0.0158379 0.0123737 0.0158296 0.01237 0.0158226 0.0123676 0.0158182 0.0123668 0.0158166
          0.0389155 0.0388595 0.0387478 0.0386548 0.0385951 0.0385745 0.148013 0.147828 0.147458 0.147145 0.146936 0.146864
          0.360189 0.359897 0.359284 0.35877 0.358415 0.35828 0.582174 0.581907 0.581301 0.580815 0.580438 0.58027
          0.738897 0.73875 0.738285 0.737921 0.737516 0.737318 0.833119 0.833203 0.832905 0.832607 0.831989 0.831642
          0.888524 0.889124 0.889032 0.888693 0.887464 0.886698 0.922466 0.924276 0.924472 0.923967 0.921381 0.919664
          0.944668 0.949337 0.949877 0.949123 0.943752 0.940135 0.959385 0.971378 0.972022 0.971199 0.95991 0.95307
          0.949676 1 1 1 0.967518 0.963144
        </DataArray>
        <DataArray type="Float32" Name="Sw" NumberOfComponents="1" format="ascii">
          0.98762 0.987622 0.984158 0.984162 0.987626 0.98417 0.98763 0.984177 0.987632 0.984182 0.987633 0.984183
          0.961085 0.961141 0.961252 0.961345 0.961405 0.961425 0.851987 0.852172 0.852542 0.852855 0.853064 0.853136
          0.639811 0.640103 0.640716 0.64123 0.641585 0.64172 0.417826 0.418093 0.418699 0.419185 0.419562 0.41973
          0.261103 0.26125 0.261715 0.262079 0.262484 0.262682 0.166881 0.166797 0.167095 0.167393 0.168011 0.168358
          0.111476 0.110876 0.110968 0.111307 0.112536 0.113302 0.0775336 0.0757236 0.0755278 0.0760334 0.0786192 0.0803361
          0.0553322 0.0506627 0.0501228 0.0508766 0.0562484 0.059865 0.0406149 0.0286217 0.0279776 0.0288008 0.0400897 0.0469303
          0.050324 0 0 0 0.0324822 0.0368562
        </DataArray>
        <DataArray type="Float32" Name="pn" NumberOfComponents="1" format="ascii">
          100004 100003 100003 100003 100003 100003 100002 100002 100002 100002 100002 100002
          100003 100003 100002 100002 100002 100001 100003 100002 100002 100001 100001 100001
          100003 100002 100002 100001 100001 100001 100002 100002 100001 100001 100001 100000
          100002 100002 100001 100001 100000 100000 100002 100002 100001 100000 100000 99999.9
          100002 100002 100000 100000 99999.7 99999.6 100002 100002 99999.6 100000 99999.3 99999.5
          100002 100002 99998.6 100000 99998.8 99999.4 100002 100003 99997.1 100001 99998.1 99999.5
          100002 100005 99994.7 100002 99996.9 100000
        </DataArray>
        <DataArray type="Float32" Name="pw" NumberOfComponents="1" format="ascii">
          99658.5 99658.5 99332.3 99332.3 99658.5 99332.3 99658.5 99332.3 99658.5 99332.3 99658.6 99332.3
          99035.7 99035.7 99035.7 99035.7 99035.7 99035.7 98766 98766 98766 98766.1 98766.1 98766.1
          98520.9 98520.9 98520.9 98520.9 98521 98521 98298 98298 98298 98298 98298.1 98298.2
          98095.2 98095.1 98095 98095.1 98095.4 98095.6 97910 97909.4 97909 97909.4 97910.6 97911.4
          97739.1 97736.3 97735.1 97736.4 97740.7 97743.6 97577.1 97565.8 97562.2 97565.8 97580.5 97590.5
          97415.8 97371.4 97362.2 97371.5 97420.4 97451.5 97255.3 97054.8 97034.7 97056.4 97244 97329.2
          97367.4 95702.2 95692.2 95699.9 97124.2 97199.6
        </DataArray>
        <DataArray type="Float32" Name="pc" NumberOfComponents="1" format="ascii">
          345.214 344.95 671.141 670.866 344.41 670.311 343.948 669.846 343.653 669.55 343.552 669.448
          967.406 967.126 966.564 966.096 965.794 965.69 1236.74 1236.45 1235.89 1235.41 1235.09 1234.98
          1481.61 1481.33 1480.72 1480.22 1479.87 1479.73 1704.31 1704.02 1703.36 1702.82 1702.41 1702.23
          1907.02 1906.79 1906.05 1905.47 1904.83 1904.52 2092.17 2092.37 2091.63 2090.89 2089.36 2088.5
          2263.1 2265.44 2265.08 2263.76 2259 2256.06 2425.26 2436.18 2437.38 2434.28 2418.85 2408.93
          2586.62 2630.96 2636.42 2628.82 2578.47 2547.84 2746.98 2948.37 2962.4 2944.55 2754.05 2670.3
          2634.38 4302.49 4302.49 4302.49 2872.65 2800.45
        </DataArray>
        <DataArray type="Float32" Name="rhoW" NumberOfComponents="1" format="ascii">
          997.048 997.048 997.047 997.047 997.048 997.047 997.048 997.047 997.048 997.047 997.048 997.047
          997.047 997.047 997.047 997.047 997.047 997.047 997.047 997.047 997.047 997.047 997.047 997.047
          997.047 997.047 997.047 997.047 997.047 997.047 997.047 997.047 997.047 997.047 997.047 997.047
          997.047 997.047 997.047 997.047 997.047 997.047 997.047 997.047 997.047 997.047 997.047 997.047
          997.047 997.047 997.047 997.047 997.047 997.047 997.047 997.047 997.047 997.047 997.047 997.047
          997.047 997.047 997.047 997.047 997.047 997.047 997.046 997.046 997.046 997.046 997.046 997.046
          997.047 997.046 997.046 997.046 997.046 997.046
        </DataArray>
        <DataArray type="Float32" Name="rhoN" NumberOfComponents="1" format="ascii">
          1.15428 1.15428 1.15428 1.15427 1.15427 1.15427 1.15427 1.15426 1.15426 1.15426 1.15426 1.15426
          1.15427 1.15427 1.15426 1.15426 1.15426 1.15425 1.15427 1.15427 1.15426 1.15425 1.15425 1.15425
          1.15427 1.15426 1.15426 1.15425 1.15425 1.15425 1.15426 1.15426 1.15425 1.15425 1.15424 1.15424
          1.15426 1.15426 1.15425 1.15424 1.15424 1.15424 1.15426 1.15426 1.15425 1.15424 1.15424 1.15424
          1.15426 1.15426 1.15424 1.15424 1.15423 1.15423 1.15426 1.15426 1.15423 1.15424 1.15423 1.15423
          1.15427 1.15426 1.15422 1.15424 1.15422 1.15423 1.15426 1.15427 1.1542 1.15425 1.15422 1.15423
          1.15426 1.16059 1.15749 1.1547 1.1542 1.15424
        </DataArray>
        <DataArray type="Float32" Name="mobW" NumberOfComponents="1" format="ascii">
          1123.09 1123.09 1120.77 1120.77 1123.1 1120.78 1123.1 1120.78 1123.1 1120.79 1123.1 1120.79
          1064.13 1064.34 1064.75 1065.1 1065.32 1065.39 649.057 649.521 650.447 651.232 651.757 651.938
          264.454 264.822 265.595 266.244 266.694 266.865 73.9109 74.0504 74.3685 74.6242 74.8227 74.9111
          18.527 18.5577 18.655 18.7313 18.8164 18.8581 4.96724 4.95987 4.9861 5.01234 5.06711 5.09806
          1.50112 1.47711 1.48076 1.49435 1.54414 1.57573 0.502756 0.467855 0.464177 0.473713 0.524481 0.560066
          0.177732 0.134743 0.130262 0.136546 0.187089 0.22714 0.0664738 0.0206968 0.0191333 0.0211457 0.0637252 0.105731
          0.13192 0 0 0 0.0318195 0.0484146
        </DataArray>
        <DataArray type="Float32" Name="mobN" NumberOfComponents="1" format="ascii">
          0.321915 0.321323 2.01535 2.01243 0.320115 2.00658 0.319084 2.00169 0.318428 1.99858 0.318203 1.99751
          52.7464 52.5384 52.1244 51.7814 51.5616 51.4859 1264.47 1261.04 1254.22 1248.44 1244.6 1243.28
          8166.44 8153 8124.79 8101.19 8084.9 8078.71 21230.7 21211.8 21169 21134.7 21108.2 21096.4
          33360 33347.8 33309.1 33278.8 33245.1 33228.6 41420.6 41428 41401.9 41376 41322.1 41291.8
          46263 46315.3 46307.3 46277.7 46170.6 46103.8 49568 49761.5 49782.4 49728.4 49452.1 49269.1
          51887 52336.8 52387.4 52316.7 51796.4 51432.4 53220.2 54072.5 54110.7 54061.7 53262.6 52679.8
          52368.6 54828.6 54828.6 54828.6 53826.3 53514.1
        </DataArray>
        <DataArray type="Float32" Name="X_liquid^H2O" NumberOfComponents="1" format="ascii">
          0.999978 0.999978 0.999978 0.999978 0.999978 0.999978 0.999978 0.999978 0.999978 0.999978 0.999978 0.999978
          0.999978 0.999978 0.999978 0.999978 0.999978 0.999978 0.999978 0.999978 0.999978 0.999978 0.999978 0.999978
          0.999978 0.999978 0.999978 0.999978 0.999978 0.999978 0.999978 0.999978 0.999978 0.999978 0.999978 0.999978
          0.999978 0.999978 0.999978 0.999978 0.999978 0.999978 0.999978 0.999978 0.999978 0.999978 0.999978 0.999978
          0.999978 0.999978 0.999978 0.999978 0.999978 0.999978 0.999978 0.999978 0.999978 0.999978 0.999978 0.999978
          0.999978 0.999978 0.999978 0.999978 0.999978 0.999978 0.999978 0.999978 0.999978 0.999978 0.999978 0.999978
          0.999978 0.549679 0.763399 0.96893 0.999978 0.999978
        </DataArray>
        <DataArray type="Float32" Name="X_liquid^Air" NumberOfComponents="1" format="ascii">
          2.15477e-05 2.15476e-05 2.15476e-05 2.15475e-05 2.15475e-05 2.15474e-05 2.15474e-05 2.15473e-05 2.15473e-05 2.15473e-05 2.15473e-05 2.15472e-05
          2.15475e-05 2.15475e-05 2.15474e-05 2.15472e-05 2.15472e-05 2.15472e-05 2.15475e-05 2.15474e-05 2.15473e-05 2.15472e-05 2.15471e-05 2.15471e-05
          2.15474e-05 2.15473e-05 2.15472e-05 2.15471e-05 2.1547e-05 2.1547e-05 2.15474e-05 2.15473e-05 2.15471e-05 2.1547e-05 2.1547e-05 2.15469e-05
          2.15473e-05 2.15473e-05 2.15471e-05 2.1547e-05 2.15469e-05 2.15469e-05 2.15473e-05 2.15472e-05 2.1547e-05 2.15469e-05 2.15468e-05 2.15468e-05
          2.15474e-05 2.15472e-05 2.15469e-05 2.15469e-05 2.15468e-05 2.15468e-05 2.15474e-05 2.15473e-05 2.15468e-05 2.15469e-05 2.15467e-05 2.15467e-05
          2.15474e-05 2.15474e-05 2.15465e-05 2.15469e-05 2.15466e-05 2.15467e-05 2.15474e-05 2.15476e-05 2.15462e-05 2.15471e-05 2.15464e-05 2.15467e-05
          2.15473e-05 2.18654e-05 2.17125e-05 2.15693e-05 2.15462e-05 2.15469e-05
        </DataArray>
        <DataArray type="Float32" Name="X_gas^H2O" NumberOfComponents="1" format="ascii">
          0.0199561 0.0199562 0.0199562 0.0199563 0.0199563 0.0199564 0.0199564 0.0199565 0.0199564 0.0199565 0.0199565 0.0199565
          0.0199563 0.0199563 0.0199564 0.0199565 0.0199566 0.0199566 0.0199563 0.0199564 0.0199565 0.0199566 0.0199566 0.0199567
          0.0199564 0.0199564 0.0199566 0.0199567 0.0199567 0.0199567 0.0199564 0.0199565 0.0199566 0.0199567 0.0199568 0.0199568
          0.0199564 0.0199565 0.0199567 0.0199568 0.0199568 0.0199569 0.0199564 0.0199565 0.0199567 0.0199568 0.0199569 0.0199569
          0.0199564 0.0199565 0.0199568 0.0199569 0.019957 0.019957 0.0199564 0.0199565 0.019957 0.0199569 0.019957 0.019957
          0.0199564 0.0199564 0.0199572 0.0199568 0.0199571 0.019957 0.0199564 0.0199562 0.0199575 0.0199567 0.0199573 0.019957
          0.0199565 0.0109101 0.0151927 0.0193295 0.0199575 0.0199569
        </DataArray>
        <DataArray type="Float32" Name="X_gas^Air" NumberOfComponents="1" format="ascii">
          0.980044 0.980044 0.980044 0.980044 0.980044 0.980044 0.980044 0.980044 0.980044 0.980043 0.980044 0.980043
          0.980044 0.980044 0.980044 0.980043 0.980043 0.980043 0.980044 0.980044 0.980044 0.980043 0.980043 0.980043
          0.980044 0.980044 0.980043 0.980043 0.980043 0.980043 0.980044 0.980044 0.980043 0.980043 0.980043 0.980043
          0.980044 0.980043 0.980043 0.980043 0.980043 0.980043 0.980044 0.980043 0.980043 0.980043 0.980043 0.980043
          0.980044 0.980043 0.980043 0.980043 0.980043 0.980043 0.980044 0.980044 0.980043 0.980043 0.980043 0.980043
          0.980044 0.980044 0.980043 0.980043 0.980043 0.980043 0.980044 0.980044 0.980043 0.980043 0.980043 0.980043
          0.980043 0.98909 0.984807 0.980671 0.980042 0.980043
        </DataArray>
        <DataArray type="Float32" Name="x_liquid^H2O" NumberOfComponents="1" format="ascii">
          0.999987 0.999987 0.999987 0.999987 0.999987 0.999987 0.999987 0.999987 0.999987 0.999987 0.999987 0.999987
          0.999987 0.999987 0.999987 0.999987 0.999987 0.999987 0.999987 0.999987 0.999987 0.999987 0.999987 0.999987
          0.999987 0.999987 0.999987 0.999987 0.999987 0.999987 0.999987 0.999987 0.999987 0.999987 0.999987 0.999987
          0.999987 0.999987 0.999987 0.999987 0.999987 0.999987 0.999987 0.999987 0.999987 0.999987 0.999987 0.999987
          0.999987 0.999987 0.999987 0.999987 0.999987 0.999987 0.999987 0.999987 0.999987 0.999987 0.999987 0.999987
          0.999987 0.999987 0.999987 0.999987 0.999987 0.999987 0.999987 0.999987 0.999987 0.999987 0.999987 0.999987
          0.999987 0.549687 0.763407 0.968938 0.999987 0.999987
        </DataArray>
        <DataArray type="Float32" Name="x_liquid^Air" NumberOfComponents="1" format="ascii">
          1.34043e-05 1.34043e-05 1.34043e-05 1.34042e-05 1.34042e-05 1.34041e-05 1.34041e-05 1.34041e-05 1.34041e-05 1.3404e-05 1.34041e-05 1.3404e-05
          1.34042e-05 1.34042e-05 1.34041e-05 1.3404e-05 1.3404e-05 1.3404e-05 1.34042e-05 1.34041e-05 1.34041e-05 1.3404e-05 1.34039e-05 1.34039e-05
          1.34041e-05 1.34041e-05 1.3404e-05 1.34039e-05 1.34039e-05 1.34039e-05 1.34041e-05 1.34041e-05 1.3404e-05 1.34039e-05 1.34039e-05 1.34038e-05
          1.34041e-05 1.3404e-05 1.34039e-05 1.34039e-05 1.34038e-05 1.34038e-05 1.34041e-05 1.3404e-05 1.34039e-05 1.34038e-05 1.34038e-05 1.34038e-05
          1.34041e-05 1.3404e-05 1.34038e-05 1.34038e-05 1.34037e-05 1.34037e-05 1.34041e-05 1.3404e-05 1.34037e-05 1.34038e-05 1.34037e-05 1.34037e-05
          1.34041e-05 1.34041e-05 1.34036e-05 1.34038e-05 1.34036e-05 1.34037e-05 1.34041e-05 1.34042e-05 1.34034e-05 1.34039e-05 1.34035e-05 1.34037e-05
          1.3404e-05 1.3602e-05 1.35068e-05 1.34177e-05 1.34034e-05 1.34038e-05
        </DataArray>
        <DataArray type="Float32" Name="x_gas^H2O" NumberOfComponents="1" format="ascii">
          0.0316959 0.0316959 0.031696 0.0316961 0.0316961 0.0316962 0.0316963 0.0316964 0.0316963 0.0316965 0.0316964 0.0316965
          0.0316961 0.0316962 0.0316963 0.0316965 0.0316966 0.0316966 0.0316962 0.0316963 0.0316964 0.0316966 0.0316967 0.0316967
          0.0316962 0.0316963 0.0316965 0.0316967 0.0316968 0.0316968 0.0316963 0.0316964 0.0316966 0.0316968 0.0316969 0.0316969
          0.0316963 0.0316965 0.0316967 0.0316969 0.031697 0.031697 0.0316963 0.0316965 0.0316968 0.0316969 0.0316971 0.0316971
          0.0316963 0.0316965 0.031697 0.031697 0.0316971 0.0316972 0.0316963 0.0316964 0.0316972 0.031697 0.0316973 0.0316972
          0.0316963 0.0316963 0.0316975 0.0316969 0.0316974 0.0316972 0.0316963 0.031696 0.031698 0.0316967 0.0316976 0.0316972
          0.0316965 0.0174229 0.0241994 0.0307122 0.031698 0.031697
        </DataArray>
        <DataArray type="Float32" Name="x_gas^Air" NumberOfComponents="1" format="ascii">
          0.968304 0.968304 0.968304 0.968304 0.968304 0.968304 0.968304 0.968304 0.968304 0.968304 0.968304 0.968304
          0.968304 0.968304 0.968304 0.968304 0.968303 0.968303 0.968304 0.968304 0.968304 0.968303 0.968303 0.968303
          0.968304 0.968304 0.968303 0.968303 0.968303 0.968303 0.968304 0.968304 0.968303 0.968303 0.968303 0.968303
          0.968304 0.968304 0.968303 0.968303 0.968303 0.968303 0.968304 0.968304 0.968303 0.968303 0.968303 0.968303
          0.968304 0.968304 0.968303 0.968303 0.968303 0.968303 0.968304 0.968304 0.968303 0.968303 0.968303 0.968303
          0.968304 0.968304 0.968303 0.968303 0.968303 0.968303 0.968304 0.968304 0.968302 0.968303 0.968302 0.968303
          0.968304 0.982577 0.975801 0.969288 0.968302 0.968303
        </DataArray>
        <DataArray type="Float32" Name="porosity" NumberOfComponents="1" format="ascii">
          0.41 0.41 0.41 0.41 0.41 0.41 0.41 0.41 0.41 0.41 0.41 0.41
          0.41 0.41 0.41 0.41 0.41 0.41 0.41 0.41 0.41 0.41 0.41 0.41
          0.41 0.41 0.41 0.41 0.41 0.41 0.41 0.41 0.41 0.41 0.41 0.41
          0.41 0.41 0.41 0.41 0.41 0.41 0.41 0.41 0.41 0.41 0.41 0.41
          0.41 0.41 0.41 0.41 0.41 0.41 0.41 0.41 0.41 0.41 0.41 0.41
          0.41 0.41 0.41 0.41 0.41 0.41 0.41 0.41 0.41 0.41 0.41 0.41
          0.41 0.41 0.41 0.41 0.41 0.41
        </DataArray>
        <DataArray type="Float32" Name="temperature" NumberOfComponents="1" format="ascii">
          298.15 298.15 298.15 298.15 298.15 298.15 298.15 298.15 298.15 298.15 298.15 298.15
          298.15 298.15 298.15 298.15 298.15 298.15 298.15 298.15 298.15 298.15 298.15 298.15
          298.15 298.15 298.15 298.15 298.15 298.15 298.15 298.15 298.15 298.15 298.15 298.15
          298.15 298.15 298.15 298.15 298.15 298.15 298.15 298.15 298.15 298.15 298.15 298.15
          298.15 298.15 298.15 298.15 298.15 298.15 298.15 298.15 298.15 298.15 298.15 298.15
          298.15 298.15 298.15 298.15 298.15 298.15 298.15 298.15 298.15 298.15 298.15 298.15
          298.15 298.15 298.15 298.15 298.15 298.15
        </DataArray>
        <DataArray type="Float32" Name="phase presence" NumberOfComponents="1" format="ascii">
          3 3 3 3 3 3 3 3 3 3 3 3
          3 3 3 3 3 3 3 3 3 3 3 3
          3 3 3 3 3 3 3 3 3 3 3 3
          3 3 3 3 3 3 3 3 3 3 3 3
          3 3 3 3 3 3 3 3 3 3 3 3
          3 3 3 3 3 3 3 3 3 3 3 3
          3 2 2 2 3 3
        </DataArray>
        <DataArray type="Float32" Name="velocityW" NumberOfComponents="3" format="ascii">
          -1.33926e-08 9.46302e-09 0 -2.82555e-08 1.0444e-08 0 -1.20347e-08 1.80772e-08 0 -2.75886e-08 2.12658e-08 0
          -5.56285e-08 8.87458e-09 0 -5.8923e-08 1.97974e-08 0 -6.66631e-08 -4.55131e-10 0 -7.43491e-08 2.26234e-10 0
          -4.60163e-08 -1.226e-08 0 -5.22395e-08 -2.51467e-08 0 -2.6845e-08 -1.73792e-08 0 -3.04844e-08 -3.58103e-08 0
          -6.0865e-09 4.13938e-08 0 -2.25194e-08 5.26921e-08 0 -6.423e-08 5.63357e-08 0 -9.48689e-08 1.49852e-08 0
          -7.04167e-08 -4.41364e-08 0 -4.06033e-08 -6.65735e-08 0 5.85259e-09 8.64961e-08 0 -5.76298e-09 1.12762e-07 0
          -4.5284e-08 1.29865e-07 0 -9.01227e-08 7.11737e-08 0 -7.70688e-08 -3.26554e-08 0 -4.70815e-08 -7.01039e-08 0
          1.47258e-08 1.57514e-07 0 8.26302e-09 2.02855e-07 0 -2.15366e-08 2.36426e-07 0 -6.33077e-08 1.69639e-07 0
          -6.64819e-08 2.53262e-08 0 -5.12219e-08 -3.78634e-08 0 1.72582e-08 2.29816e-07 0 1.31746e-08 2.94321e-07 0
          -7.33337e-09 3.41306e-07 0 -3.77508e-08 2.71267e-07 0 -4.41669e-08 1.01815e-07 0 -3.659e-08 9.25544e-09 0
          1.9018e-08 2.7865e-07 0 1.47163e-08 3.61384e-07 0 -2.42294e-09 4.17195e-07 0 -2.78048e-08 3.46198e-07 0
          -3.3547e-08 1.6012e-07 0 -2.6745e-08 4.73989e-08 0 2.26805e-08 3.02055e-07 0 1.66879e-08 4.03986e-07 0
          -9.32722e-10 4.65351e-07 0 -2.57824e-08 3.95109e-07 0 -3.26179e-08 1.94767e-07 0 -2.62317e-08 6.72129e-08 0
          2.88125e-08 3.07371e-07 0 1.97386e-08 4.31568e-07 0 -4.00844e-10 4.95857e-07 0 -2.69156e-08 4.28162e-07 0
          -3.59431e-08 2.14178e-07 0 -2.95214e-08 7.1861e-08 0 3.83995e-08 3.00164e-07 0 2.40887e-08 4.51806e-07 0
          -1.83282e-10 5.15852e-07 0 -2.95482e-08 4.53475e-07 0 -4.19855e-08 2.25426e-07 0 -3.50191e-08 6.65428e-08 0
          5.63209e-08 2.81927e-07 0 3.16761e-08 4.70096e-07 0 -1.61565e-10 5.28744e-07 0 -3.43751e-08 4.766e-07 0
          -5.19321e-08 2.32699e-07 0 -4.24685e-08 5.44669e-08 0 1.28271e-07 2.40243e-07 0 6.50952e-08 4.86886e-07 0
          -7.34205e-11 5.33805e-07 0 -5.58924e-08 5.0434e-07 0 -7.64869e-08 2.34332e-07 0 -4.32555e-08 3.88595e-08 0
          9.08253e-07 2.10528e-07 0 4.54126e-07 4.94424e-07 0 0 5.33961e-07 0 -9.40328e-08 5.20468e-07 0
          -1.04016e-07 2.32963e-07 0 -1.99658e-08 3.07125e-08 0
        </DataArray>
        <DataArray type="Float32" Name="velocityN" NumberOfComponents="3" format="ascii">
          4.51984e-10 -8.30227e-10 0 6.82785e-10 -6.8278e-10 0 2.91512e-09 -3.61333e-09 0 4.37192e-09 -2.53747e-09 0
          8.39621e-10 -4.79636e-10 0 5.31818e-09 -1.08119e-09 0 6.23034e-10 -4.34058e-10 0 3.91285e-09 -7.9001e-10 0
          3.22061e-10 -4.23635e-10 0 2.02356e-09 -7.15634e-10 0 1.63708e-10 -4.20078e-10 0 1.02908e-09 -6.89877e-10 0
          7.80394e-08 -6.26795e-08 0 1.16185e-07 -3.75785e-08 0 1.39797e-07 -4.35256e-09 0 1.01822e-07 1.36007e-09 0
          5.25102e-08 2.91738e-09 0 2.66389e-08 3.41499e-09 0 1.91031e-06 -1.15733e-06 0 2.84393e-06 -5.9512e-07 0
          3.42151e-06 1.46742e-07 0 2.49579e-06 2.70225e-07 0 1.28962e-06 3.08417e-07 0 6.53135e-07 3.18149e-07 0
          1.28935e-05 -8.40676e-06 0 1.95817e-05 -4.36193e-06 0 2.33501e-05 1.64359e-06 0 1.65717e-05 2.33447e-06 0
          8.5075e-06 2.57393e-06 0 4.30187e-06 2.63869e-06 0 3.69309e-05 -3.06954e-05 0 5.72152e-05 -1.64458e-05 0
          6.53694e-05 8.18748e-06 0 4.35587e-05 8.31039e-06 0 2.25871e-05 9.40634e-06 0 1.12962e-05 9.52287e-06 0
          6.7079e-05 -7.32708e-05 0 0.000107488 -4.12316e-05 0 0.000112677 2.71788e-05 0 6.69056e-05 1.66768e-05 0
          3.67807e-05 2.19731e-05 0 1.72076e-05 2.11828e-05 0 9.6815e-05 -0.000134531 0 0.000169356 -8.31247e-05 0
          0.000156107 7.15372e-05 0 7.58939e-05 1.8976e-05 0 4.94142e-05 4.11223e-05 0 1.73567e-05 3.42261e-05 0
          0.000116221 -0.00020729 0 0.000251267 -0.000152905 0 0.000196427 0.000163639 0 6.62459e-05 -2.11688e-06 0
          6.4816e-05 7.2383e-05 0 3.68086e-06 4.17819e-05 0 0.00010121 -0.000275552 0 0.000367857 -0.000275343 0
          0.000237375 0.000342214 0 3.26453e-05 -7.78287e-05 0 9.10193e-05 0.000131634 0 -4.30039e-05 3.05611e-05 0
          -2.02696e-06 -0.000305852 0 0.000532868 -0.00049727 0 0.000278127 0.000670917 0 -3.56143e-05 -0.000261643 0
          0.000138763 0.000251754 0 -0.000162754 -2.53537e-05 0 -0.000290957 -0.000235025 0 0.000757192 -0.000885355 0
          0.000314587 0.00124752 0 -0.00015236 -0.000637425 0 0.000223065 0.000490269 0 -0.000425314 -0.000172101 0
          -0.000696332 -0.000164165 0 0.00096752 -0.00113012 0 0.000335396 0.00161246 0 -0.000278122 -0.0008859 0
          0.00031638 0.000648106 0 -0.000771576 -0.000275452 0
        </DataArray>
      </PointData>
      <CellData Scalars="process rank">
        <DataArray type="Float32" Name="process rank" NumberOfComponents="1" format="ascii">
          0 0 0 0 0 0 0 0 0 0 0 0
          0 0 0 0 0 0 0 0 0 0 0 0
          0 0 0 0 0 0 0 0 0 0 0 0
          0 0 0 0 0 0 0 0 0 0 0 0
          0 0 0 0 0 0 0 0 0 0 0 0
        </DataArray>
      </CellData>
      <Points>
        <DataArray type="Float32" Name="Coordinates" NumberOfComponents="3" format="ascii">
          0.25 0 0 0.3 0 0 0.25 0.0333553 0 0.3 0.0333553 0
          0.35 0 0 0.35 0.0333553 0 0.4 0 0 0.4 0.0333553 0
          0.45 0 0 0.45 0.0333553 0 0.5 0 0 0.5 0.0333553 0
          0.25 0.0636783 0 0.3 0.0636783 0 0.35 0.0636783 0 0.4 0.0636783 0
          0.45 0.0636783 0 0.5 0.0636783 0 0.25 0.0912447 0 0.3 0.0912447 0
          0.35 0.0912447 0 0.4 0.0912447 0 0.45 0.0912447 0 0.5 0.0912447 0
          0.25 0.116305 0 0.3 0.116305 0 0.35 0.116305 0 0.4 0.116305 0
          0.45 0.116305 0 0.5 0.116305 0 0.25 0.139087 0 0.3 0.139087 0
          0.35 0.139087 0 0.4 0.139087 0 0.45 0.139087 0 0.5 0.139087 0
          0.25 0.159798 0 0.3 0.159798 0 0.35 0.159798 0 0.4 0.159798 0
          0.45 0.159798 0 0.5 0.159798 0 0.25 0.178626 0 0.3 0.178626 0
          0.35 0.178626 0 0.4 0.178626 0 0.45 0.178626 0 0.5 0.178626 0
          0.25 0.195743 0 0.3 0.195743 0 0.35 0.195743 0 0.4 0.195743 0
          0.45 0.195743 0 0.5 0.195743 0 0.25 0.211303 0 0.3 0.211303 0
          0.35 0.211303 0 0.4 0.211303 0 0.45 0.211303 0 0.5 0.211303 0
          0.25 0.225449 0 0.3 0.225449 0 0.35 0.225449 0 0.4 0.225449 0
          0.45 0.225449 0 0.5 0.225449 0 0.25 0.238309 0 0.3 0.238309 0
          0.35 0.238309 0 0.4 0.238309 0 0.45 0.238309 0 0.5 0.238309 0
          0.25 0.25 0 0.3 0.25 0 0.35 0.25 0 0.4 0.25 0
          0.45 0.25 0 0.5 0.25 0
        </DataArray>
      </Points>
      <Cells>
        <DataArray type="Int32" Name="connectivity" NumberOfComponents="1" format="ascii">
          0 1 3 2 1 4 5 3 4 6 7 5
          6 8 9 7 8 10 11 9 2 3 13 12
          3 5 14 13 5 7 15 14 7 9 16 15
          9 11 17 16 12 13 19 18 13 14 20 19
          14 15 21 20 15 16 22 21 16 17 23 22
          18 19 25 24 19 20 26 25 20 21 27 26
          21 22 28 27 22 23 29 28 24 25 31 30
          25 26 32 31 26 27 33 32 27 28 34 33
          28 29 35 34 30 31 37 36 31 32 38 37
          32 33 39 38 33 34 40 39 34 35 41 40
          36 37 43 42 37 38 44 43 38 39 45 44
          39 40 46 45 40 41 47 46 42 43 49 48
          43 44 50 49 44 45 51 50 45 46 52 51
          46 47 53 52 48 49 55 54 49 50 56 55
          50 51 57 56 51 52 58 57 52 53 59 58
          54 55 61 60 55 56 62 61 56 57 63 62
          57 58 64 63 58 59 65 64 60 61 67 66
          61 62 68 67 62 63 69 68 63 64 70 69
          64 65 71 70 66 67 73 72 67 68 74 73
          68 69 75 74 69 70 76 75 70 71 77 76
        </DataArray>
        <DataArray type="Int32" Name="offsets" NumberOfComponents="1" format="ascii">
          4 8 12 16 20 24 28 32 36 40 44 48
          52 56 60 64 68 72 76 80 84 88 92 96
          100 104 108 112 116 120 124 128 132 136 140 144
          148 152 156 160 164 168 172 176 180 184 188 192
          196 200 204 208 212 216 220 224 228 232 236 240
        </DataArray>
        <DataArray type="UInt8" Name="types" NumberOfComponents="1" format="ascii">
          9 9 9 9 9 9 9 9 9 9 9 9
          9 9 9 9 9 9 9 9 9 9 9 9
          9 9 9 9 9 9 9 9 9 9 9 9
          9 9 9 9 9 9 9 9 9 9 9 9
          9 9 9 9 9 9 9 9 9 9 9 9
        </DataArray>
      </Cells>
    </Piece>
  </UnstructuredGrid>
</VTKFile>
