<?xml version="1.0"?>
<VTKFile type="UnstructuredGrid" version="0.1" byte_order="LittleEndian">
  <UnstructuredGrid>
    <Piece NumberOfCells="60" NumberOfPoints="78">
      <PointData Scalars="Sn" Vectors="velocityW">
        <DataArray type="Float32" Name="Sn" NumberOfComponents="1" format="ascii">
          0.0120081 0.0120059 0.0151841 0.0151801 0.0120013 0.0151721 0.0119974 0.0151654 0.0119949 0.0151612 0.011994 0.0151597
          0.0306868 0.0306388 0.0305445 0.0304659 0.0304161 0.0303991 0.119477 0.119298 0.118944 0.118646 0.118455 0.11839
          0.313143 0.312823 0.312153 0.31159 0.31122 0.311095 0.537992 0.537671 0.536927 0.536316 0.535881 0.535723
          0.707777 0.707577 0.706931 0.706368 0.705953 0.705767 0.81308 0.813127 0.81258 0.811889 0.811391 0.811196
          0.875659 0.876263 0.875772 0.874486 0.873703 0.87339 0.914059 0.915981 0.915527 0.912696 0.911361 0.910721
          0.93916 0.944227 0.943829 0.937512 0.935424 0.934031 0.95587 0.969004 0.96871 0.954477 0.952257 0.949093
          0.94459 1 1 0.956768 0.967435 0.957849
        </DataArray>
        <DataArray type="Float32" Name="Sw" NumberOfComponents="1" format="ascii">
          0.987992 0.987994 0.984816 0.98482 0.987999 0.984828 0.988003 0.984835 0.988005 0.984839 0.988006 0.98484
          0.969313 0.969361 0.969456 0.969534 0.969584 0.969601 0.880523 0.880702 0.881056 0.881353 0.881545 0.88161
          0.686857 0.687177 0.687847 0.68841 0.68878 0.688905 0.462008 0.462329 0.463073 0.463684 0.464119 0.464277
          0.292223 0.292423 0.293069 0.293632 0.294047 0.294233 0.18692 0.186873 0.18742 0.188111 0.188609 0.188804
          0.124341 0.123737 0.124228 0.125514 0.126297 0.12661 0.0859413 0.0840194 0.0844734 0.0873042 0.0886388 0.089279
          0.0608404 0.0557735 0.0561705 0.0624882 0.0645757 0.0659692 0.0441303 0.0309961 0.0312902 0.045523 0.047743 0.0509072
          0.0554096 0 0 0.0432324 0.0325651 0.0421514
        </DataArray>
        <DataArray type="Float32" Name="pn" NumberOfComponents="1" format="ascii">
          100004 100004 100003 100003 100003 100003 100002 100002 100002 100002 100002 100002
          100003 100003 100002 100002 100001 100001 100003 100003 100002 100001 100001 100001
          100003 100002 100002 100001 100001 100001 100002 100002 100001 100001 100001 100000
          100002 100002 100001 100001 100000 100000 100002 100002 100001 100000 99999.9 99999.8
          100002 100002 100000 100000 99999.6 99999.6 100002 100002 99999.6 100000 99999.3 99999.4
          100002 100002 99998.6 100000 99998.8 99999.3 100002 100003 99997 100001 99998 99999.5
          100002 100005 99994.6 100002 99996.8 100000
        </DataArray>
        <DataArray type="Float32" Name="pw" NumberOfComponents="1" format="ascii">
          99705.7 99705.7 99379.4 99379.4 99705.7 99379.5 99705.7 99379.5 99705.8 99379.5 99705.8 99379.5
          99082.8 99082.8 99082.9 99082.9 99082.9 99082.9 98813.2 98813.2 98813.2 98813.3 98813.3 98813.3
          98568.1 98568.1 98568.1 98568.1 98568.2 98568.2 98345.1 98345.1 98345.2 98345.3 98345.4 98345.5
          98142.3 98142.2 98142.2 98142.6 98142.8 98143 97957.1 97956.5 97956.6 97957.8 97958.5 97958.8
          97786.2 97783.7 97783.8 97788.1 97790.2 97791.3 97624.2 97613.5 97613.5 97629 97635 97638.4
          97462.5 97419.7 97419.4 97473.3 97487.6 97498.3 97299.8 97103 97102.4 97314.8 97336.6 97371
          97416 95702.3 95692.1 97288.9 97125.7 97273.1
        </DataArray>
        <DataArray type="Float32" Name="pc" NumberOfComponents="1" format="ascii">
          298.116 297.822 624.053 623.746 297.226 623.136 296.715 622.621 296.391 622.294 296.28 622.183
          920.334 920.017 919.392 918.87 918.538 918.425 1189.67 1189.35 1188.72 1188.18 1187.84 1187.72
          1434.56 1434.23 1433.55 1432.97 1432.59 1432.47 1657.27 1656.94 1656.16 1655.53 1655.08 1654.92
          1860 1859.71 1858.78 1857.97 1857.38 1857.12 2045.15 2045.25 2044.04 2042.52 2041.43 2041
          2216.08 2218.16 2216.46 2212.06 2209.41 2208.35 2378.24 2388.49 2386.04 2371.13 2364.3 2361.06
          2539.97 2582.67 2579.16 2527.02 2511.21 2501 2702.54 2900.25 2894.65 2686.19 2661.41 2628.52
          2585.92 4302.49 4302.49 2713.45 2871.16 2726.97
        </DataArray>
        <DataArray type="Float32" Name="rhoW" NumberOfComponents="1" format="ascii">
          997.048 997.048 997.047 997.047 997.048 997.047 997.048 997.047 997.048 997.047 997.048 997.047
          997.047 997.047 997.047 997.047 997.047 997.047 997.047 997.047 997.047 997.047 997.047 997.047
          997.047 997.047 997.047 997.047 997.047 997.047 997.047 997.047 997.047 997.047 997.047 997.047
          997.047 997.047 997.047 997.047 997.047 997.047 997.047 997.047 997.047 997.047 997.047 997.047
          997.047 997.047 997.047 997.047 997.047 997.047 997.047 997.047 997.047 997.047 997.047 997.047
          997.047 997.047 997.047 997.047 997.047 997.047 997.046 997.046 997.046 997.046 997.046 997.047
          997.047 997.046 997.046 997.046 997.046 997.046
        </DataArray>
        <DataArray type="Float32" Name="rhoN" NumberOfComponents="1" format="ascii">
          1.15428 1.15428 1.15428 1.15427 1.15427 1.15427 1.15427 1.15426 1.15426 1.15426 1.15426 1.15426
          1.15427 1.15427 1.15426 1.15426 1.15425 1.15425 1.15427 1.15427 1.15426 1.15425 1.15425 1.15425
          1.15427 1.15426 1.15426 1.15425 1.15425 1.15425 1.15427 1.15426 1.15425 1.15425 1.15424 1.15424
          1.15426 1.15426 1.15425 1.15424 1.15424 1.15424 1.15426 1.15426 1.15425 1.15424 1.15424 1.15424
          1.15426 1.15426 1.15424 1.15424 1.15423 1.15423 1.15427 1.15426 1.15423 1.15424 1.15423 1.15423
          1.15427 1.15427 1.15422 1.15424 1.15422 1.15423 1.15427 1.15428 1.1542 1.15425 1.15421 1.15423
          1.15426 1.15891 1.15424 1.15427 1.1542 1.15424
        </DataArray>
        <DataArray type="Float32" Name="mobW" NumberOfComponents="1" format="ascii">
          1123.23 1123.23 1121.35 1121.36 1123.23 1121.36 1123.23 1121.37 1123.23 1121.37 1123.23 1121.37
          1091.47 1091.61 1091.88 1092.11 1092.25 1092.3 724.037 724.532 725.509 726.333 726.862 727.042
          328.6 329.071 330.059 330.892 331.44 331.624 99.5503 99.7561 100.234 100.626 100.907 101.009
          25.788 25.84 26.0081 26.1551 26.2637 26.3127 6.93797 6.93282 6.9928 7.06891 7.12412 7.14583
          2.07852 2.04867 2.07294 2.13738 2.17727 2.19335 0.687075 0.64162 0.652174 0.720546 0.754332 0.770896
          0.238819 0.1822 0.186282 0.25942 0.28713 0.306657 0.0868697 0.0271702 0.0280526 0.0959507 0.111663 0.136805
          0.17851 0 0 0.0813219 0.0320931 0.0749539
        </DataArray>
        <DataArray type="Float32" Name="mobN" NumberOfComponents="1" format="ascii">
          0.227456 0.226931 1.5789 1.57641 0.225874 1.57147 0.224968 1.56731 0.224395 1.56468 0.224199 1.56379
          26.6398 26.5138 26.2671 26.0626 25.9333 25.8893 791.274 788.651 783.488 779.154 776.38 775.436
          6135.45 6122.6 6095.71 6073.15 6058.32 6053.36 18205.4 18184.1 18134.8 18094.5 18065.7 18055.3
          30800.8 30784.5 30732.1 30686.4 30652.8 30637.7 39677.4 39681.5 39634 39574.1 39531 39514.1
          45140.1 45192.8 45149.9 45037.5 44969 44941.6 48677.8 48879.2 48831.5 48535.9 48398 48332.2
          51332.7 51843.5 51804.2 51162.9 50945.6 50799.5 52926.1 53924.5 53905.4 52804.9 52606.5 52313.8
          51879.4 54828.6 54828.6 53002.9 53820.7 53093.8
        </DataArray>
        <DataArray type="Float32" Name="X_liquid^H2O" NumberOfComponents="1" format="ascii">
          0.999978 0.999978 0.999978 0.999978 0.999978 0.999978 0.999978 0.999978 0.999978 0.999978 0.999978 0.999978
          0.999978 0.999978 0.999978 0.999978 0.999978 0.999978 0.999978 0.999978 0.999978 0.999978 0.999978 0.999978
          0.999978 0.999978 0.999978 0.999978 0.999978 0.999978 0.999978 0.999978 0.999978 0.999978 0.999978 0.999978
          0.999978 0.999978 0.999978 0.999978 0.999978 0.999978 0.999978 0.999978 0.999978 0.999978 0.999978 0.999978
          0.999978 0.999978 0.999978 0.999978 0.999978 0.999978 0.999978 0.999978 0.999978 0.999978 0.999978 0.999978
          0.999978 0.999978 0.999978 0.999978 0.999978 0.999978 0.999978 0.999978 0.999978 0.999978 0.999978 0.999978
          0.999978 0.669905 0.995429 0.999978 0.999978 0.999978
        </DataArray>
        <DataArray type="Float32" Name="X_liquid^Air" NumberOfComponents="1" format="ascii">
          2.15477e-05 2.15476e-05 2.15476e-05 2.15476e-05 2.15475e-05 2.15474e-05 2.15474e-05 2.15473e-05 2.15473e-05 2.15472e-05 2.15473e-05 2.15472e-05
          2.15476e-05 2.15475e-05 2.15474e-05 2.15472e-05 2.15472e-05 2.15472e-05 2.15475e-05 2.15474e-05 2.15473e-05 2.15472e-05 2.15471e-05 2.15471e-05
          2.15474e-05 2.15474e-05 2.15472e-05 2.15471e-05 2.1547e-05 2.1547e-05 2.15474e-05 2.15473e-05 2.15471e-05 2.1547e-05 2.1547e-05 2.15469e-05
          2.15474e-05 2.15473e-05 2.15471e-05 2.1547e-05 2.15469e-05 2.15469e-05 2.15474e-05 2.15473e-05 2.1547e-05 2.15469e-05 2.15468e-05 2.15468e-05
          2.15474e-05 2.15473e-05 2.15469e-05 2.15469e-05 2.15468e-05 2.15468e-05 2.15474e-05 2.15473e-05 2.15468e-05 2.15469e-05 2.15467e-05 2.15467e-05
          2.15474e-05 2.15474e-05 2.15465e-05 2.15469e-05 2.15466e-05 2.15467e-05 2.15474e-05 2.15476e-05 2.15462e-05 2.15471e-05 2.15464e-05 2.15467e-05
          2.15473e-05 2.17806e-05 2.15488e-05 2.15474e-05 2.15461e-05 2.15469e-05
        </DataArray>
        <DataArray type="Float32" Name="X_gas^H2O" NumberOfComponents="1" format="ascii">
          0.0199561 0.0199562 0.0199562 0.0199562 0.0199563 0.0199564 0.0199564 0.0199565 0.0199565 0.0199565 0.0199565 0.0199565
          0.0199562 0.0199563 0.0199564 0.0199565 0.0199566 0.0199566 0.0199563 0.0199564 0.0199565 0.0199566 0.0199567 0.0199567
          0.0199564 0.0199564 0.0199566 0.0199567 0.0199567 0.0199567 0.0199564 0.0199565 0.0199566 0.0199567 0.0199568 0.0199568
          0.0199564 0.0199565 0.0199567 0.0199568 0.0199568 0.0199569 0.0199564 0.0199565 0.0199567 0.0199568 0.0199569 0.0199569
          0.0199564 0.0199565 0.0199568 0.0199569 0.019957 0.019957 0.0199564 0.0199565 0.019957 0.0199569 0.019957 0.019957
          0.0199564 0.0199564 0.0199572 0.0199568 0.0199571 0.019957 0.0199564 0.0199562 0.0199575 0.0199567 0.0199573 0.019957
          0.0199565 0.0133156 0.0198661 0.0199564 0.0199575 0.0199569
        </DataArray>
        <DataArray type="Float32" Name="X_gas^Air" NumberOfComponents="1" format="ascii">
          0.980044 0.980044 0.980044 0.980044 0.980044 0.980044 0.980044 0.980044 0.980044 0.980043 0.980044 0.980043
          0.980044 0.980044 0.980044 0.980043 0.980043 0.980043 0.980044 0.980044 0.980044 0.980043 0.980043 0.980043
          0.980044 0.980044 0.980043 0.980043 0.980043 0.980043 0.980044 0.980044 0.980043 0.980043 0.980043 0.980043
          0.980044 0.980043 0.980043 0.980043 0.980043 0.980043 0.980044 0.980043 0.980043 0.980043 0.980043 0.980043
          0.980044 0.980043 0.980043 0.980043 0.980043 0.980043 0.980044 0.980044 0.980043 0.980043 0.980043 0.980043
          0.980044 0.980044 0.980043 0.980043 0.980043 0.980043 0.980044 0.980044 0.980043 0.980043 0.980043 0.980043
          0.980043 0.986684 0.980134 0.980044 0.980042 0.980043
        </DataArray>
        <DataArray type="Float32" Name="x_liquid^H2O" NumberOfComponents="1" format="ascii">
          0.999987 0.999987 0.999987 0.999987 0.999987 0.999987 0.999987 0.999987 0.999987 0.999987 0.999987 0.999987
          0.999987 0.999987 0.999987 0.999987 0.999987 0.999987 0.999987 0.999987 0.999987 0.999987 0.999987 0.999987
          0.999987 0.999987 0.999987 0.999987 0.999987 0.999987 0.999987 0.999987 0.999987 0.999987 0.999987 0.999987
          0.999987 0.999987 0.999987 0.999987 0.999987 0.999987 0.999987 0.999987 0.999987 0.999987 0.999987 0.999987
          0.999987 0.999987 0.999987 0.999987 0.999987 0.999987 0.999987 0.999987 0.999987 0.999987 0.999987 0.999987
          0.999987 0.999987 0.999987 0.999987 0.999987 0.999987 0.999987 0.999987 0.999987 0.999987 0.999987 0.999987
          0.999987 0.669913 0.995437 0.999987 0.999987 0.999987
        </DataArray>
        <DataArray type="Float32" Name="x_liquid^Air" NumberOfComponents="1" format="ascii">
          1.34043e-05 1.34043e-05 1.34043e-05 1.34042e-05 1.34042e-05 1.34041e-05 1.34041e-05 1.34041e-05 1.34041e-05 1.3404e-05 1.34041e-05 1.3404e-05
          1.34042e-05 1.34042e-05 1.34041e-05 1.3404e-05 1.3404e-05 1.3404e-05 1.34042e-05 1.34041e-05 1.34041e-05 1.3404e-05 1.34039e-05 1.34039e-05
          1.34041e-05 1.34041e-05 1.3404e-05 1.34039e-05 1.34039e-05 1.34039e-05 1.34041e-05 1.34041e-05 1.3404e-05 1.34039e-05 1.34039e-05 1.34038e-05
          1.34041e-05 1.3404e-05 1.34039e-05 1.34039e-05 1.34038e-05 1.34038e-05 1.34041e-05 1.3404e-05 1.34039e-05 1.34038e-05 1.34038e-05 1.34038e-05
          1.34041e-05 1.3404e-05 1.34038e-05 1.34038e-05 1.34037e-05 1.34037e-05 1.34041e-05 1.34041e-05 1.34037e-05 1.34038e-05 1.34037e-05 1.34037e-05
          1.34041e-05 1.34041e-05 1.34036e-05 1.34038e-05 1.34036e-05 1.34037e-05 1.34041e-05 1.34042e-05 1.34034e-05 1.34039e-05 1.34035e-05 1.34037e-05
          1.3404e-05 1.35493e-05 1.3405e-05 1.34041e-05 1.34033e-05 1.34038e-05
        </DataArray>
        <DataArray type="Float32" Name="x_gas^H2O" NumberOfComponents="1" format="ascii">
          0.0316958 0.0316959 0.0316959 0.031696 0.0316961 0.0316962 0.0316963 0.0316964 0.0316964 0.0316965 0.0316964 0.0316965
          0.031696 0.0316961 0.0316963 0.0316965 0.0316966 0.0316966 0.0316961 0.0316962 0.0316964 0.0316966 0.0316967 0.0316967
          0.0316962 0.0316963 0.0316965 0.0316967 0.0316968 0.0316968 0.0316963 0.0316964 0.0316966 0.0316968 0.0316969 0.0316969
          0.0316963 0.0316964 0.0316967 0.0316969 0.031697 0.031697 0.0316963 0.0316965 0.0316968 0.0316969 0.0316971 0.0316971
          0.0316963 0.0316965 0.031697 0.031697 0.0316972 0.0316972 0.0316963 0.0316964 0.0316972 0.031697 0.0316973 0.0316972
          0.0316963 0.0316963 0.0316975 0.0316969 0.0316974 0.0316973 0.0316963 0.031696 0.031698 0.0316967 0.0316977 0.0316972
          0.0316964 0.0212335 0.0315545 0.0316963 0.0316981 0.031697
        </DataArray>
        <DataArray type="Float32" Name="x_gas^Air" NumberOfComponents="1" format="ascii">
          0.968304 0.968304 0.968304 0.968304 0.968304 0.968304 0.968304 0.968304 0.968304 0.968304 0.968304 0.968304
          0.968304 0.968304 0.968304 0.968304 0.968303 0.968303 0.968304 0.968304 0.968304 0.968303 0.968303 0.968303
          0.968304 0.968304 0.968304 0.968303 0.968303 0.968303 0.968304 0.968304 0.968303 0.968303 0.968303 0.968303
          0.968304 0.968304 0.968303 0.968303 0.968303 0.968303 0.968304 0.968304 0.968303 0.968303 0.968303 0.968303
          0.968304 0.968304 0.968303 0.968303 0.968303 0.968303 0.968304 0.968304 0.968303 0.968303 0.968303 0.968303
          0.968304 0.968304 0.968302 0.968303 0.968303 0.968303 0.968304 0.968304 0.968302 0.968303 0.968302 0.968303
          0.968304 0.978767 0.968445 0.968304 0.968302 0.968303
        </DataArray>
        <DataArray type="Float32" Name="porosity" NumberOfComponents="1" format="ascii">
          0.41 0.41 0.41 0.41 0.41 0.41 0.41 0.41 0.41 0.41 0.41 0.41
          0.41 0.41 0.41 0.41 0.41 0.41 0.41 0.41 0.41 0.41 0.41 0.41
          0.41 0.41 0.41 0.41 0.41 0.41 0.41 0.41 0.41 0.41 0.41 0.41
          0.41 0.41 0.41 0.41 0.41 0.41 0.41 0.41 0.41 0.41 0.41 0.41
          0.41 0.41 0.41 0.41 0.41 0.41 0.41 0.41 0.41 0.41 0.41 0.41
          0.41 0.41 0.41 0.41 0.41 0.41 0.41 0.41 0.41 0.41 0.41 0.41
          0.41 0.41 0.41 0.41 0.41 0.41
        </DataArray>
        <DataArray type="Float32" Name="temperature" NumberOfComponents="1" format="ascii">
          298.15 298.15 298.15 298.15 298.15 298.15 298.15 298.15 298.15 298.15 298.15 298.15
          298.15 298.15 298.15 298.15 298.15 298.15 298.15 298.15 298.15 298.15 298.15 298.15
          298.15 298.15 298.15 298.15 298.15 298.15 298.15 298.15 298.15 298.15 298.15 298.15
          298.15 298.15 298.15 298.15 298.15 298.15 298.15 298.15 298.15 298.15 298.15 298.15
          298.15 298.15 298.15 298.15 298.15 298.15 298.15 298.15 298.15 298.15 298.15 298.15
          298.15 298.15 298.15 298.15 298.15 298.15 298.15 298.15 298.15 298.15 298.15 298.15
          298.15 298.15 298.15 298.15 298.15 298.15
        </DataArray>
        <DataArray type="Float32" Name="phase presence" NumberOfComponents="1" format="ascii">
          3 3 3 3 3 3 3 3 3 3 3 3
          3 3 3 3 3 3 3 3 3 3 3 3
          3 3 3 3 3 3 3 3 3 3 3 3
          3 3 3 3 3 3 3 3 3 3 3 3
          3 3 3 3 3 3 3 3 3 3 3 3
          3 3 3 3 3 3 3 3 3 3 3 3
          3 2 2 3 3 3
        </DataArray>
        <DataArray type="Float32" Name="velocityW" NumberOfComponents="3" format="ascii">
          -3.5913e-08 2.44686e-08 0 -6.77674e-08 2.17612e-08 0 -3.69549e-08 4.88097e-08 0 -7.16659e-08 4.46415e-08 0
          -1.15065e-07 1.08134e-08 0 -1.24846e-07 2.33445e-08 0 -1.19129e-07 -7.08012e-09 0 -1.30403e-07 -1.44575e-08 0
          -7.45308e-08 -2.16499e-08 0 -8.11918e-08 -4.38996e-08 0 -4.13113e-08 -2.7048e-08 0 -4.48928e-08 -5.47622e-08 0
          -3.67978e-08 1.02996e-07 0 -7.88985e-08 1.00339e-07 0 -1.50145e-07 6.11185e-08 0 -1.6215e-07 -2.32516e-08 0
          -9.98745e-08 -8.37106e-08 0 -5.47379e-08 -1.05596e-07 0 -1.98267e-08 1.72256e-07 0 -5.76799e-08 1.81886e-07 0
          -1.33757e-07 1.35164e-07 0 -1.59947e-07 -2.21087e-09 0 -1.004e-07 -9.73004e-08 0 -5.28862e-08 -1.2761e-07 0
          2.11693e-09 2.57408e-07 0 -2.51167e-08 2.90192e-07 0 -8.9154e-08 2.48068e-07 0 -1.26047e-07 6.69156e-08 0
          -8.54025e-08 -6.60295e-08 0 -4.4669e-08 -1.01002e-07 0 1.55227e-08 3.38608e-07 0 -2.27268e-09 3.99521e-07 0
          -4.82577e-08 3.66476e-07 0 -7.64041e-08 1.55881e-07 0 -5.61383e-08 -5.20133e-09 0 -3.59158e-08 -4.86538e-08 0
          2.20259e-08 3.93247e-07 0 7.45906e-09 4.82714e-07 0 -3.19745e-08 4.58383e-07 0 -4.96635e-08 2.23396e-07 0
          -3.33175e-08 5.27279e-08 0 -2.41491e-08 -3.29629e-09 0 2.82613e-08 4.18876e-07 0 1.27571e-08 5.3813e-07 0
          -2.8555e-08 5.21841e-07 0 -4.30768e-08 2.6141e-07 0 -2.35671e-08 9.08821e-08 0 -1.53434e-08 2.64066e-08 0
          3.69266e-08 4.23104e-07 0 1.79941e-08 5.75941e-07 0 -3.05825e-08 5.67429e-07 0 -4.42886e-08 2.79301e-07 0
          -2.13596e-08 1.12295e-07 0 -1.43685e-08 4.28221e-08 0 4.98578e-08 4.12059e-07 0 2.4936e-08 6.0497e-07 0
          -3.60067e-08 6.04511e-07 0 -4.91357e-08 2.845e-07 0 -2.13038e-08 1.24633e-07 0 -1.63637e-08 4.92925e-08 0
          7.34482e-08 3.87164e-07 0 3.68772e-08 6.31456e-07 0 -4.72095e-08 6.39922e-07 0 -5.81662e-08 2.80205e-07 0
          -2.11932e-08 1.33159e-07 0 -2.07795e-08 4.88948e-08 0 1.6905e-07 3.31986e-07 0 8.4655e-08 6.6047e-07 0
          -9.28474e-08 6.85617e-07 0 -9.28244e-08 2.58516e-07 0 -1.635e-08 1.43621e-07 0 -3.30066e-08 4.19636e-08 0
          1.26251e-06 2.92879e-07 0 6.31254e-07 6.76192e-07 0 -2.69542e-07 7.13251e-07 0 -2.44328e-07 2.41226e-07 0
          1.54974e-09 1.50233e-07 0 -4.73283e-08 3.66757e-08 0
        </DataArray>
        <DataArray type="Float32" Name="velocityN" NumberOfComponents="3" format="ascii">
          3.51457e-10 -7.45254e-10 0 5.26045e-10 -6.27357e-10 0 2.51317e-09 -3.1656e-09 0 3.73259e-09 -2.22424e-09 0
          6.43716e-10 -4.73015e-10 0 4.52093e-09 -1.01866e-09 0 4.76397e-10 -4.3736e-10 0 3.32128e-09 -7.67123e-10 0
          2.44834e-10 -4.30168e-10 0 1.70781e-09 -7.10891e-10 0 1.23674e-10 -4.28482e-10 0 8.62919e-10 -6.97563e-10 0
          4.37383e-08 -3.9431e-08 0 6.42716e-08 -2.42282e-08 0 7.66337e-08 -5.33417e-09 0 5.54849e-08 -2.05847e-09 0
          2.84094e-08 -1.29008e-09 0 1.43116e-08 -1.13617e-09 0 1.32499e-06 -7.99293e-07 0 1.9467e-06 -4.00491e-07 0
          2.30964e-06 9.80001e-08 0 1.66219e-06 1.72626e-07 0 8.51242e-07 1.91834e-07 0 4.28958e-07 1.95647e-07 0
          1.0653e-05 -6.66508e-06 0 1.60092e-05 -3.36154e-06 0 1.88484e-05 1.35767e-06 0 1.31797e-05 1.80906e-06 0
          6.69815e-06 1.93141e-06 0 3.36829e-06 1.95733e-06 0 3.43731e-05 -2.67772e-05 0 5.29388e-05 -1.40656e-05 0
          5.9953e-05 7.46024e-06 0 3.93807e-05 7.15731e-06 0 2.01996e-05 7.85188e-06 0 1.00393e-05 7.84688e-06 0
          6.62663e-05 -6.7934e-05 0 0.000105889 -3.78038e-05 0 0.000110562 2.60964e-05 0 6.48384e-05 1.53157e-05 0
          3.52085e-05 1.96393e-05 0 1.63519e-05 1.86165e-05 0 9.80569e-05 -0.000129333 0 0.000171127 -7.95868e-05 0
          0.000157829 7.05604e-05 0 7.59661e-05 1.80784e-05 0 4.86983e-05 3.84008e-05 0 1.69254e-05 3.1162e-05 0
          0.000119049 -0.000203471 0 0.000256155 -0.000150238 0 0.000201112 0.000163612 0 6.72593e-05 -2.17684e-06 0
          6.44428e-05 6.95527e-05 0 3.33025e-06 3.84459e-05 0 0.000104577 -0.000273663 0 0.000374897 -0.000274441 0
          0.000244114 0.000344106 0 3.33096e-05 -7.68134e-05 0 8.99573e-05 0.00012869 0 -4.36933e-05 2.69059e-05 0
          1.3825e-06 -0.000305889 0 0.000544965 -0.000499799 0 0.000290152 0.000676348 0 -3.55383e-05 -0.000259156 0
          0.000136184 0.000248561 0 -0.000164799 -2.97617e-05 0 -0.000290912 -0.000236201 0 0.000776459 -0.000897789 0
          0.000337754 0.00125785 0 -0.000152246 -0.000632988 0 0.000216449 0.000486672 0 -0.000430932 -0.000178427 0
          -0.000703687 -0.000165555 0 0.000991931 -0.00115012 0 0.000379991 0.00162534 0 -0.000274228 -0.000880368 0
          0.000299723 0.000644245 0 -0.000779667 -0.000283148 0
        </DataArray>
      </PointData>
      <CellData Scalars="process rank">
        <DataArray type="Float32" Name="process rank" NumberOfComponents="1" format="ascii">
          0 0 0 0 0 0 0 0 0 0 0 0
          0 0 0 0 0 0 0 0 0 0 0 0
          0 0 0 0 0 0 0 0 0 0 0 0
          0 0 0 0 0 0 0 0 0 0 0 0
          0 0 0 0 0 0 0 0 0 0 0 0
        </DataArray>
      </CellData>
      <Points>
        <DataArray type="Float32" Name="Coordinates" NumberOfComponents="3" format="ascii">
          0.25 0 0 0.3 0 0 0.25 0.0333553 0 0.3 0.0333553 0
          0.35 0 0 0.35 0.0333553 0 0.4 0 0 0.4 0.0333553 0
          0.45 0 0 0.45 0.0333553 0 0.5 0 0 0.5 0.0333553 0
          0.25 0.0636783 0 0.3 0.0636783 0 0.35 0.0636783 0 0.4 0.0636783 0
          0.45 0.0636783 0 0.5 0.0636783 0 0.25 0.0912447 0 0.3 0.0912447 0
          0.35 0.0912447 0 0.4 0.0912447 0 0.45 0.0912447 0 0.5 0.0912447 0
          0.25 0.116305 0 0.3 0.116305 0 0.35 0.116305 0 0.4 0.116305 0
          0.45 0.116305 0 0.5 0.116305 0 0.25 0.139087 0 0.3 0.139087 0
          0.35 0.139087 0 0.4 0.139087 0 0.45 0.139087 0 0.5 0.139087 0
          0.25 0.159798 0 0.3 0.159798 0 0.35 0.159798 0 0.4 0.159798 0
          0.45 0.159798 0 0.5 0.159798 0 0.25 0.178626 0 0.3 0.178626 0
          0.35 0.178626 0 0.4 0.178626 0 0.45 0.178626 0 0.5 0.178626 0
          0.25 0.195743 0 0.3 0.195743 0 0.35 0.195743 0 0.4 0.195743 0
          0.45 0.195743 0 0.5 0.195743 0 0.25 0.211303 0 0.3 0.211303 0
          0.35 0.211303 0 0.4 0.211303 0 0.45 0.211303 0 0.5 0.211303 0
          0.25 0.225449 0 0.3 0.225449 0 0.35 0.225449 0 0.4 0.225449 0
          0.45 0.225449 0 0.5 0.225449 0 0.25 0.238309 0 0.3 0.238309 0
          0.35 0.238309 0 0.4 0.238309 0 0.45 0.238309 0 0.5 0.238309 0
          0.25 0.25 0 0.3 0.25 0 0.35 0.25 0 0.4 0.25 0
          0.45 0.25 0 0.5 0.25 0
        </DataArray>
      </Points>
      <Cells>
        <DataArray type="Int32" Name="connectivity" NumberOfComponents="1" format="ascii">
          0 1 3 2 1 4 5 3 4 6 7 5
          6 8 9 7 8 10 11 9 2 3 13 12
          3 5 14 13 5 7 15 14 7 9 16 15
          9 11 17 16 12 13 19 18 13 14 20 19
          14 15 21 20 15 16 22 21 16 17 23 22
          18 19 25 24 19 20 26 25 20 21 27 26
          21 22 28 27 22 23 29 28 24 25 31 30
          25 26 32 31 26 27 33 32 27 28 34 33
          28 29 35 34 30 31 37 36 31 32 38 37
          32 33 39 38 33 34 40 39 34 35 41 40
          36 37 43 42 37 38 44 43 38 39 45 44
          39 40 46 45 40 41 47 46 42 43 49 48
          43 44 50 49 44 45 51 50 45 46 52 51
          46 47 53 52 48 49 55 54 49 50 56 55
          50 51 57 56 51 52 58 57 52 53 59 58
          54 55 61 60 55 56 62 61 56 57 63 62
          57 58 64 63 58 59 65 64 60 61 67 66
          61 62 68 67 62 63 69 68 63 64 70 69
          64 65 71 70 66 67 73 72 67 68 74 73
          68 69 75 74 69 70 76 75 70 71 77 76
        </DataArray>
        <DataArray type="Int32" Name="offsets" NumberOfComponents="1" format="ascii">
          4 8 12 16 20 24 28 32 36 40 44 48
          52 56 60 64 68 72 76 80 84 88 92 96
          100 104 108 112 116 120 124 128 132 136 140 144
          148 152 156 160 164 168 172 176 180 184 188 192
          196 200 204 208 212 216 220 224 228 232 236 240
        </DataArray>
        <DataArray type="UInt8" Name="types" NumberOfComponents="1" format="ascii">
          9 9 9 9 9 9 9 9 9 9 9 9
          9 9 9 9 9 9 9 9 9 9 9 9
          9 9 9 9 9 9 9 9 9 9 9 9
          9 9 9 9 9 9 9 9 9 9 9 9
          9 9 9 9 9 9 9 9 9 9 9 9
        </DataArray>
      </Cells>
    </Piece>
  </UnstructuredGrid>
</VTKFile>
