<?xml version="1.0"?>
<VTKFile type="UnstructuredGrid" version="0.1" byte_order="LittleEndian">
  <UnstructuredGrid>
    <Piece NumberOfCells="60" NumberOfPoints="78">
      <PointData Scalars="Sn" Vectors="velocityW">
        <DataArray type="Float32" Name="Sn" NumberOfComponents="1" format="ascii">
          0.0123959 0.0123935 0.015871 0.0158665 0.0123887 0.0158574 0.0123847 0.0158498 0.0123821 0.0158449 0.0123811 0.0158432
          0.0393022 0.0392408 0.0391178 0.039016 0.03895 0.0389272 0.149278 0.149076 0.14867 0.148326 0.148096 0.148017
          0.362152 0.361834 0.361165 0.360604 0.360218 0.360071 0.583941 0.58365 0.582989 0.582462 0.582058 0.581885
          0.74012 0.739954 0.739446 0.739057 0.738637 0.738433 0.833907 0.833976 0.833644 0.833338 0.83272 0.832365
          0.889034 0.889623 0.889503 0.889173 0.887969 0.887185 0.922804 0.924603 0.924774 0.924301 0.921795 0.920028
          0.944892 0.949546 0.950061 0.949366 0.944208 0.94044 0.959526 0.97149 0.972104 0.971348 0.960634 0.953295
          0.949891 1 1 1 0.96969 0.962787
        </DataArray>
        <DataArray type="Float32" Name="Sw" NumberOfComponents="1" format="ascii">
          0.987604 0.987606 0.984129 0.984134 0.987611 0.984143 0.987615 0.98415 0.987618 0.984155 0.987619 0.984157
          0.960698 0.960759 0.960882 0.960984 0.96105 0.961073 0.850722 0.850924 0.85133 0.851674 0.851904 0.851983
          0.637848 0.638166 0.638835 0.639396 0.639782 0.639929 0.416059 0.41635 0.417011 0.417538 0.417942 0.418115
          0.25988 0.260046 0.260554 0.260943 0.261363 0.261567 0.166093 0.166024 0.166356 0.166662 0.16728 0.167635
          0.110966 0.110377 0.110497 0.110827 0.112031 0.112815 0.077196 0.0753968 0.0752259 0.0756987 0.0782046 0.0799721
          0.0551082 0.0504535 0.0499388 0.0506344 0.0557918 0.0595602 0.0404739 0.0285099 0.027896 0.0286518 0.0393664 0.0467054
          0.0501091 0 0 0 0.0303099 0.0372127
        </DataArray>
        <DataArray type="Float32" Name="pn" NumberOfComponents="1" format="ascii">
          100004 100004 100004 100003 100003 100003 100002 100002 100002 100002 100002 100002
          100003 100003 100002 100002 100001 100001 100003 100003 100002 100001 100001 100001
          100003 100002 100002 100001 100001 100001 100002 100002 100001 100001 100001 100000
          100002 100002 100001 100001 100000 100000 100002 100002 100001 100000 99999.9 99999.8
          100002 100002 100000 100000 99999.6 99999.6 100003 100002 99999.6 100000 99999.2 99999.4
          100003 100003 99998.5 100000 99998.8 99999.3 100003 100003 99996.9 100001 99998 99999.4
          100002 100005 99994.3 100003 99996.7 100000
        </DataArray>
        <DataArray type="Float32" Name="pw" NumberOfComponents="1" format="ascii">
          99656.7 99656.7 99330.5 99330.5 99656.7 99330.5 99656.7 99330.5 99656.8 99330.5 99656.8 99330.5
          99033.9 99033.9 99033.9 99033.9 99033.9 99033.9 98764.2 98764.2 98764.2 98764.3 98764.3 98764.3
          98519.1 98519.1 98519.1 98519.1 98519.2 98519.2 98296.2 98296.2 98296.2 98296.2 98296.3 98296.4
          98093.4 98093.2 98093.2 98093.3 98093.6 98093.8 97908.2 97907.6 97907.2 97907.6 97908.8 97909.5
          97737.3 97734.5 97733.3 97734.5 97738.7 97741.6 97575.3 97563.9 97560.3 97563.8 97578 97588.4
          97414 97369.5 97360.2 97369.1 97416.2 97449 97253.7 97052.7 97032.7 97053.3 97234 97326.6
          97365.4 95702.7 95691.8 95700 97083.1 97204.9
        </DataArray>
        <DataArray type="Float32" Name="pc" NumberOfComponents="1" format="ascii">
          347.135 346.848 673.065 672.766 346.26 672.162 345.757 671.657 345.435 671.333 345.324 671.22
          969.332 969.028 968.416 967.909 967.579 967.465 1238.67 1238.36 1237.74 1237.22 1236.87 1236.74
          1483.55 1483.23 1482.57 1482.02 1481.64 1481.5 1706.25 1705.93 1705.21 1704.63 1704.19 1704
          1908.97 1908.71 1907.9 1907.28 1906.61 1906.29 2094.13 2094.31 2093.48 2092.71 2091.17 2090.29
          2265.09 2267.4 2266.93 2265.64 2260.95 2257.93 2427.27 2438.18 2439.23 2436.33 2421.28 2411.02
          2588.64 2633.07 2638.3 2631.25 2582.51 2550.33 2748.87 2950.78 2964.21 2947.73 2763.99 2672.8
          2636.56 4302.49 4302.49 4302.49 2913.62 2795.07
        </DataArray>
        <DataArray type="Float32" Name="rhoW" NumberOfComponents="1" format="ascii">
          997.054 997.054 997.054 997.054 997.054 997.054 997.054 997.054 997.054 997.054 997.054 997.054
          997.054 997.054 997.054 997.054 997.054 997.054 997.054 997.054 997.054 997.054 997.054 997.054
          997.054 997.054 997.054 997.054 997.054 997.054 997.054 997.054 997.054 997.054 997.054 997.054
          997.054 997.054 997.054 997.054 997.054 997.054 997.054 997.054 997.054 997.054 997.054 997.054
          997.054 997.054 997.054 997.054 997.054 997.054 997.053 997.053 997.053 997.053 997.053 997.053
          997.053 997.053 997.053 997.053 997.053 997.053 997.053 997.053 997.053 997.053 997.053 997.053
          997.053 997.06 997.055 997.053 997.053 997.053
        </DataArray>
        <DataArray type="Float32" Name="rhoN" NumberOfComponents="1" format="ascii">
          1.15431 1.15431 1.15431 1.15431 1.1543 1.1543 1.1543 1.15429 1.15429 1.15429 1.15429 1.15429
          1.15431 1.1543 1.1543 1.15429 1.15429 1.15429 1.1543 1.1543 1.15429 1.15429 1.15428 1.15428
          1.1543 1.1543 1.15429 1.15428 1.15428 1.15428 1.1543 1.15429 1.15429 1.15428 1.15428 1.15427
          1.1543 1.15429 1.15428 1.15428 1.15427 1.15427 1.1543 1.15429 1.15428 1.15427 1.15427 1.15427
          1.1543 1.15429 1.15427 1.15427 1.15426 1.15426 1.1543 1.15429 1.15426 1.15427 1.15426 1.15426
          1.1543 1.1543 1.15425 1.15427 1.15425 1.15426 1.1543 1.15431 1.15423 1.15428 1.15425 1.15426
          1.15429 1.16067 1.15759 1.15493 1.15423 1.15427
        </DataArray>
        <DataArray type="Float32" Name="mobW" NumberOfComponents="1" format="ascii">
          1122.96 1122.97 1120.62 1120.62 1122.97 1120.63 1122.97 1120.64 1122.97 1120.64 1122.97 1120.64
          1062.57 1062.8 1063.26 1063.64 1063.89 1063.97 645.828 646.332 647.343 648.204 648.777 648.976
          261.962 262.36 263.198 263.904 264.388 264.573 72.9827 73.1337 73.4771 73.7524 73.9632 74.054
          18.2714 18.3057 18.4109 18.4918 18.5793 18.6219 4.89789 4.89183 4.92073 4.9475 5.00184 5.03322
          1.48054 1.4572 1.46191 1.47499 1.52337 1.55541 0.496068 0.461675 0.458492 0.467335 0.516057 0.552333
          0.175472 0.132981 0.128744 0.134492 0.182367 0.223545 0.0657214 0.0204175 0.018939 0.0207695 0.0600557 0.104115
          0.130135 0 0 0 0.0251786 0.049965
        </DataArray>
        <DataArray type="Float32" Name="mobN" NumberOfComponents="1" format="ascii">
          0.331476 0.330816 2.06851 2.06525 0.329468 2.0587 0.328321 2.05325 0.327585 2.04975 0.327331 2.04854
          55.0646 54.8295 54.3603 53.9735 53.7235 53.6372 1308.67 1304.83 1297.16 1290.66 1286.33 1284.84
          8389.68 8374.73 8343.29 8316.95 8298.88 8292 21698.4 21677.4 21630 21592.1 21563.1 21550.7
          33998.9 33984.8 33941.8 33908.9 33873.4 33856.2 42155.2 42161.4 42131.9 42104.8 42050 42018.5
          47050.6 47102.7 47092.2 47063 46956.3 46886.9 50400.1 50595.6 50614.2 50562.8 50290.7 50099.2
          52742.1 53196.7 53245.6 53179.5 52673.7 52289.4 54085.9 54947 54984 54938.4 54176 53545.8
          53229.4 55305.2 55492.6 55668 54834.5 54345.6
        </DataArray>
        <DataArray type="Float32" Name="X_liquid^H2O" NumberOfComponents="1" format="ascii">
          0.999978 0.999978 0.999978 0.999978 0.999978 0.999978 0.999978 0.999978 0.999978 0.999978 0.999978 0.999978
          0.999978 0.999978 0.999978 0.999978 0.999978 0.999978 0.999978 0.999978 0.999978 0.999978 0.999978 0.999978
          0.999978 0.999978 0.999978 0.999978 0.999978 0.999978 0.999978 0.999978 0.999978 0.999978 0.999978 0.999978
          0.999978 0.999978 0.999978 0.999978 0.999978 0.999978 0.999978 0.999978 0.999978 0.999978 0.999978 0.999978
          0.999978 0.999978 0.999978 0.999978 0.999978 0.999978 0.999978 0.999978 0.999978 0.999978 0.999978 0.999978
          0.999978 0.999978 0.999978 0.999978 0.999978 0.999978 0.999978 0.999978 0.999978 0.999978 0.999978 0.999978
          0.999978 0.545097 0.757041 0.954514 0.999978 0.999978
        </DataArray>
        <DataArray type="Float32" Name="X_liquid^Air" NumberOfComponents="1" format="ascii">
          2.15474e-05 2.15474e-05 2.15474e-05 2.15473e-05 2.15472e-05 2.15472e-05 2.15471e-05 2.1547e-05 2.15471e-05 2.1547e-05 2.1547e-05 2.15469e-05
          2.15473e-05 2.15472e-05 2.15471e-05 2.1547e-05 2.15469e-05 2.15469e-05 2.15472e-05 2.15471e-05 2.1547e-05 2.15469e-05 2.15468e-05 2.15468e-05
          2.15472e-05 2.15471e-05 2.15469e-05 2.15468e-05 2.15467e-05 2.15467e-05 2.15471e-05 2.1547e-05 2.15469e-05 2.15468e-05 2.15467e-05 2.15467e-05
          2.15471e-05 2.1547e-05 2.15468e-05 2.15467e-05 2.15466e-05 2.15466e-05 2.15471e-05 2.1547e-05 2.15467e-05 2.15466e-05 2.15465e-05 2.15465e-05
          2.15471e-05 2.1547e-05 2.15466e-05 2.15466e-05 2.15465e-05 2.15465e-05 2.15471e-05 2.1547e-05 2.15465e-05 2.15466e-05 2.15464e-05 2.15464e-05
          2.15472e-05 2.15471e-05 2.15462e-05 2.15466e-05 2.15463e-05 2.15464e-05 2.15471e-05 2.15473e-05 2.15459e-05 2.15468e-05 2.15461e-05 2.15464e-05
          2.1547e-05 2.18685e-05 2.17167e-05 2.15792e-05 2.15458e-05 2.15466e-05
        </DataArray>
        <DataArray type="Float32" Name="X_gas^H2O" NumberOfComponents="1" format="ascii">
          0.0199643 0.0199643 0.0199643 0.0199644 0.0199644 0.0199645 0.0199645 0.0199646 0.0199646 0.0199647 0.0199646 0.0199647
          0.0199644 0.0199644 0.0199646 0.0199647 0.0199647 0.0199648 0.0199644 0.0199645 0.0199646 0.0199647 0.0199648 0.0199648
          0.0199645 0.0199646 0.0199647 0.0199648 0.0199649 0.0199649 0.0199645 0.0199646 0.0199648 0.0199649 0.0199649 0.019965
          0.0199646 0.0199646 0.0199648 0.0199649 0.019965 0.019965 0.0199646 0.0199647 0.0199649 0.019965 0.019965 0.0199651
          0.0199645 0.0199646 0.019965 0.019965 0.0199651 0.0199651 0.0199645 0.0199646 0.0199651 0.019965 0.0199652 0.0199652
          0.0199645 0.0199645 0.0199653 0.019965 0.0199653 0.0199652 0.0199645 0.0199643 0.0199657 0.0199648 0.0199654 0.0199652
          0.0199646 0.0108229 0.0150712 0.0190463 0.0199657 0.019965
        </DataArray>
        <DataArray type="Float32" Name="X_gas^Air" NumberOfComponents="1" format="ascii">
          0.980036 0.980036 0.980036 0.980036 0.980036 0.980035 0.980035 0.980035 0.980035 0.980035 0.980035 0.980035
          0.980036 0.980036 0.980035 0.980035 0.980035 0.980035 0.980036 0.980035 0.980035 0.980035 0.980035 0.980035
          0.980035 0.980035 0.980035 0.980035 0.980035 0.980035 0.980035 0.980035 0.980035 0.980035 0.980035 0.980035
          0.980035 0.980035 0.980035 0.980035 0.980035 0.980035 0.980035 0.980035 0.980035 0.980035 0.980035 0.980035
          0.980035 0.980035 0.980035 0.980035 0.980035 0.980035 0.980035 0.980035 0.980035 0.980035 0.980035 0.980035
          0.980035 0.980035 0.980035 0.980035 0.980035 0.980035 0.980035 0.980036 0.980034 0.980035 0.980035 0.980035
          0.980035 0.989177 0.984929 0.980954 0.980034 0.980035
        </DataArray>
        <DataArray type="Float32" Name="x_liquid^H2O" NumberOfComponents="1" format="ascii">
          0.999987 0.999987 0.999987 0.999987 0.999987 0.999987 0.999987 0.999987 0.999987 0.999987 0.999987 0.999987
          0.999987 0.999987 0.999987 0.999987 0.999987 0.999987 0.999987 0.999987 0.999987 0.999987 0.999987 0.999987
          0.999987 0.999987 0.999987 0.999987 0.999987 0.999987 0.999987 0.999987 0.999987 0.999987 0.999987 0.999987
          0.999987 0.999987 0.999987 0.999987 0.999987 0.999987 0.999987 0.999987 0.999987 0.999987 0.999987 0.999987
          0.999987 0.999987 0.999987 0.999987 0.999987 0.999987 0.999987 0.999987 0.999987 0.999987 0.999987 0.999987
          0.999987 0.999987 0.999987 0.999987 0.999987 0.999987 0.999987 0.999987 0.999987 0.999987 0.999987 0.999987
          0.999987 0.545105 0.757049 0.954522 0.999987 0.999987
        </DataArray>
        <DataArray type="Float32" Name="x_liquid^Air" NumberOfComponents="1" format="ascii">
          1.34041e-05 1.34041e-05 1.34041e-05 1.34041e-05 1.3404e-05 1.3404e-05 1.3404e-05 1.34039e-05 1.34039e-05 1.34039e-05 1.34039e-05 1.34038e-05
          1.3404e-05 1.3404e-05 1.34039e-05 1.34039e-05 1.34038e-05 1.34038e-05 1.3404e-05 1.3404e-05 1.34039e-05 1.34038e-05 1.34038e-05 1.34038e-05
          1.3404e-05 1.34039e-05 1.34038e-05 1.34038e-05 1.34037e-05 1.34037e-05 1.34039e-05 1.34039e-05 1.34038e-05 1.34037e-05 1.34037e-05 1.34037e-05
          1.34039e-05 1.34039e-05 1.34038e-05 1.34037e-05 1.34036e-05 1.34036e-05 1.34039e-05 1.34039e-05 1.34037e-05 1.34036e-05 1.34036e-05 1.34036e-05
          1.34039e-05 1.34039e-05 1.34036e-05 1.34036e-05 1.34036e-05 1.34035e-05 1.3404e-05 1.34039e-05 1.34035e-05 1.34036e-05 1.34035e-05 1.34035e-05
          1.3404e-05 1.3404e-05 1.34034e-05 1.34037e-05 1.34034e-05 1.34035e-05 1.3404e-05 1.34041e-05 1.34032e-05 1.34038e-05 1.34033e-05 1.34035e-05
          1.34039e-05 1.3604e-05 1.35095e-05 1.34239e-05 1.34031e-05 1.34036e-05
        </DataArray>
        <DataArray type="Float32" Name="x_gas^H2O" NumberOfComponents="1" format="ascii">
          0.0317086 0.0317087 0.0317087 0.0317088 0.0317089 0.031709 0.031709 0.0317092 0.0317091 0.0317093 0.0317092 0.0317093
          0.0317088 0.0317089 0.0317091 0.0317093 0.0317094 0.0317094 0.0317089 0.031709 0.0317092 0.0317094 0.0317095 0.0317095
          0.031709 0.0317091 0.0317093 0.0317095 0.0317096 0.0317096 0.031709 0.0317092 0.0317094 0.0317096 0.0317097 0.0317097
          0.0317091 0.0317092 0.0317095 0.0317097 0.0317098 0.0317098 0.0317091 0.0317092 0.0317096 0.0317097 0.0317099 0.0317099
          0.0317091 0.0317092 0.0317098 0.0317098 0.03171 0.03171 0.031709 0.0317092 0.03171 0.0317098 0.0317101 0.03171
          0.031709 0.031709 0.0317103 0.0317097 0.0317102 0.0317101 0.031709 0.0317087 0.0317108 0.0317095 0.0317105 0.03171
          0.0317092 0.0172845 0.0240076 0.0302674 0.0317109 0.0317098
        </DataArray>
        <DataArray type="Float32" Name="x_gas^Air" NumberOfComponents="1" format="ascii">
          0.968291 0.968291 0.968291 0.968291 0.968291 0.968291 0.968291 0.968291 0.968291 0.968291 0.968291 0.968291
          0.968291 0.968291 0.968291 0.968291 0.968291 0.968291 0.968291 0.968291 0.968291 0.968291 0.968291 0.968291
          0.968291 0.968291 0.968291 0.968291 0.96829 0.96829 0.968291 0.968291 0.968291 0.96829 0.96829 0.96829
          0.968291 0.968291 0.968291 0.96829 0.96829 0.96829 0.968291 0.968291 0.96829 0.96829 0.96829 0.96829
          0.968291 0.968291 0.96829 0.96829 0.96829 0.96829 0.968291 0.968291 0.96829 0.96829 0.96829 0.96829
          0.968291 0.968291 0.96829 0.96829 0.96829 0.96829 0.968291 0.968291 0.968289 0.968291 0.96829 0.96829
          0.968291 0.982715 0.975992 0.969733 0.968289 0.96829
        </DataArray>
        <DataArray type="Float32" Name="porosity" NumberOfComponents="1" format="ascii">
          0.41 0.41 0.41 0.41 0.41 0.41 0.41 0.41 0.41 0.41 0.41 0.41
          0.41 0.41 0.41 0.41 0.41 0.41 0.41 0.41 0.41 0.41 0.41 0.41
          0.41 0.41 0.41 0.41 0.41 0.41 0.41 0.41 0.41 0.41 0.41 0.41
          0.41 0.41 0.41 0.41 0.41 0.41 0.41 0.41 0.41 0.41 0.41 0.41
          0.41 0.41 0.41 0.41 0.41 0.41 0.41 0.41 0.41 0.41 0.41 0.41
          0.41 0.41 0.41 0.41 0.41 0.41 0.41 0.41 0.41 0.41 0.41 0.41
          0.41 0.41 0.41 0.41 0.41 0.41
        </DataArray>
        <DataArray type="Float32" Name="temperature" NumberOfComponents="1" format="ascii">
          298.15 298.15 298.15 298.15 298.15 298.15 298.15 298.15 298.15 298.15 298.15 298.15
          298.15 298.15 298.15 298.15 298.15 298.15 298.15 298.15 298.15 298.15 298.15 298.15
          298.15 298.15 298.15 298.15 298.15 298.15 298.15 298.15 298.15 298.15 298.15 298.15
          298.15 298.15 298.15 298.15 298.15 298.15 298.15 298.15 298.15 298.15 298.15 298.15
          298.15 298.15 298.15 298.15 298.15 298.15 298.15 298.15 298.15 298.15 298.15 298.15
          298.15 298.15 298.15 298.15 298.15 298.15 298.15 298.15 298.15 298.15 298.15 298.15
          298.15 298.15 298.15 298.15 298.15 298.15
        </DataArray>
        <DataArray type="Float32" Name="phase presence" NumberOfComponents="1" format="ascii">
          3 3 3 3 3 3 3 3 3 3 3 3
          3 3 3 3 3 3 3 3 3 3 3 3
          3 3 3 3 3 3 3 3 3 3 3 3
          3 3 3 3 3 3 3 3 3 3 3 3
          3 3 3 3 3 3 3 3 3 3 3 3
          3 3 3 3 3 3 3 3 3 3 3 3
          3 2 2 2 3 3
        </DataArray>
        <DataArray type="Float32" Name="velocityW" NumberOfComponents="3" format="ascii">
          -1.24014e-08 8.8018e-09 0 -2.6412e-08 9.87543e-09 0 -1.09943e-08 1.6757e-08 0 -2.56235e-08 2.01123e-08 0
          -5.25555e-08 8.62288e-09 0 -5.55747e-08 1.92577e-08 0 -6.35632e-08 -2.21344e-10 0 -7.09601e-08 7.27609e-10 0
          -4.41313e-08 -1.16833e-08 0 -5.02168e-08 -2.39649e-08 0 -2.58245e-08 -1.66984e-08 0 -2.94099e-08 -3.44435e-08 0
          -4.97928e-09 3.88455e-08 0 -2.03275e-08 5.03972e-08 0 -6.02091e-08 5.51471e-08 0 -9.06119e-08 1.61143e-08 0
          -6.80058e-08 -4.15181e-08 0 -3.95303e-08 -6.38344e-08 0 6.56432e-09 8.30963e-08 0 -4.16966e-09 1.09539e-07 0
          -4.19505e-08 1.27953e-07 0 -8.58131e-08 7.26906e-08 0 -7.46327e-08 -2.80844e-08 0 -4.66364e-08 -6.63601e-08 0
          1.49223e-08 1.53695e-07 0 8.98811e-09 1.98967e-07 0 -1.95549e-08 2.33766e-07 0 -6.00817e-08 1.70898e-07 0
          -6.39565e-08 3.15707e-08 0 -4.99133e-08 -3.3231e-08 0 1.71678e-08 2.25762e-07 0 1.33475e-08 2.89892e-07 0
          -6.37172e-09 3.379e-07 0 -3.60086e-08 2.71999e-07 0 -4.21145e-08 1.08466e-07 0 -3.44824e-08 1.52681e-08 0
          1.88282e-08 2.74453e-07 0 1.46981e-08 3.56522e-07 0 -1.88163e-09 4.13158e-07 0 -2.65792e-08 3.46452e-07 0
          -3.25397e-08 1.66727e-07 0 -2.62524e-08 5.43377e-08 0 2.24296e-08 2.97827e-07 0 1.65942e-08 3.98808e-07 0
          -5.25776e-10 4.6083e-07 0 -2.46573e-08 3.94889e-07 0 -3.18972e-08 2.01706e-07 0 -2.629e-08 7.42252e-08 0
          2.84867e-08 3.03215e-07 0 1.95862e-08 4.26153e-07 0 -4.74747e-11 4.90936e-07 0 -2.56917e-08 4.27401e-07 0
          -3.52589e-08 2.21707e-07 0 -2.9915e-08 7.87509e-08 0 3.7969e-08 2.96168e-07 0 2.38652e-08 4.46199e-07 0
          1.18324e-10 5.10557e-07 0 -2.80668e-08 4.51929e-07 0 -4.12383e-08 2.33888e-07 0 -3.58678e-08 7.32437e-08 0
          5.57212e-08 2.78174e-07 0 3.13467e-08 4.64314e-07 0 4.47771e-11 5.23074e-07 0 -3.22952e-08 4.73675e-07 0
          -5.10163e-08 2.42762e-07 0 -4.43247e-08 6.08193e-08 0 1.26832e-07 2.36956e-07 0 6.4364e-08 4.80138e-07 0
          -2.02168e-11 5.27742e-07 0 -5.09841e-08 4.98087e-07 0 -7.45122e-08 2.48092e-07 0 -4.8993e-08 4.38742e-08 0
          8.94779e-07 2.07564e-07 0 4.47389e-07 4.86794e-07 0 0 5.27695e-07 0 -7.22251e-08 5.11786e-07 0
          -8.73862e-08 2.4939e-07 0 -3.03222e-08 3.46284e-08 0
        </DataArray>
        <DataArray type="Float32" Name="velocityN" NumberOfComponents="3" format="ascii">
          5.06256e-10 -8.66428e-10 0 7.66202e-10 -7.02222e-10 0 3.25377e-09 -3.86798e-09 0 4.89049e-09 -2.67429e-09 0
          9.42414e-10 -4.73117e-10 0 5.95009e-09 -1.03502e-09 0 7.01289e-10 -4.24201e-10 0 4.39053e-09 -7.26934e-10 0
          3.65034e-10 -4.09945e-10 0 2.28751e-09 -6.24189e-10 0 1.86169e-10 -4.05087e-10 0 1.16693e-09 -5.89615e-10 0
          8.85527e-08 -6.93086e-08 0 1.32158e-07 -4.10623e-08 0 1.59104e-07 -3.102e-09 0 1.16231e-07 3.01522e-09 0
          6.03617e-08 5.21279e-09 0 3.07062e-08 5.89126e-09 0 2.1483e-06 -1.29542e-06 0 3.2081e-06 -6.68278e-07 0
          3.87571e-06 1.6812e-07 0 2.84213e-06 3.11013e-07 0 1.47502e-06 3.59695e-07 0 7.49293e-07 3.7341e-07 0
          1.43884e-05 -9.3847e-06 0 2.19273e-05 -4.90792e-06 0 2.62841e-05 1.80883e-06 0 1.87813e-05 2.63394e-06 0
          9.69107e-06 2.94178e-06 0 4.92159e-06 3.04079e-06 0 4.09796e-05 -3.41462e-05 0 6.36897e-05 -1.8451e-05 0
          7.32272e-05 8.92786e-06 0 4.92295e-05 9.3293e-06 0 2.56732e-05 1.06702e-05 0 1.29421e-05 1.09368e-05 0
          7.41459e-05 -8.12692e-05 0 0.000119168 -4.61074e-05 0 0.000125918 2.95661e-05 0 7.56639e-05 1.8763e-05 0
          4.18047e-05 2.47734e-05 0 1.99282e-05 2.4387e-05 0 0.000106702 -0.000148868 0 0.000187199 -9.26634e-05 0
          0.000174337 7.78182e-05 0 8.62235e-05 2.17609e-05 0 5.61982e-05 4.59848e-05 0 2.09271e-05 3.97881e-05 0
          0.000127741 -0.000228943 0 0.000277028 -0.000169912 0 0.000219497 0.000178104 0 7.62193e-05 -4.30073e-07 0
          7.36665e-05 8.00085e-05 0 7.57436e-06 4.9901e-05 0 0.000110822 -0.000303848 0 0.000404666 -0.000304993 0
          0.000265767 0.000372663 0 3.97958e-05 -8.1587e-05 0 0.000103161 0.000143635 0 -4.02451e-05 4.07836e-05 0
          -3.1351e-06 -0.000336783 0 0.000584826 -0.000549162 0 0.000312411 0.000730825 0 -3.50184e-05 -0.000279526 0
          0.000156515 0.000271845 0 -0.0001649 -1.48552e-05 0 -0.000321397 -0.000258364 0 0.000829165 -0.000975471 0
          0.000355579 0.00135896 0 -0.000163772 -0.0006846 0 0.000250228 0.000526021 0 -0.000440569 -0.000165844 0
          -0.000763659 -0.000180151 0 0.00105006 -0.00124424 0 0.000372898 0.00175647 0 -0.000302876 -0.000952459 0
          0.000353655 0.000694193 0 -0.000804926 -0.000272884 0
        </DataArray>
      </PointData>
      <CellData Scalars="process rank">
        <DataArray type="Float32" Name="process rank" NumberOfComponents="1" format="ascii">
          0 0 0 0 0 0 0 0 0 0 0 0
          0 0 0 0 0 0 0 0 0 0 0 0
          0 0 0 0 0 0 0 0 0 0 0 0
          0 0 0 0 0 0 0 0 0 0 0 0
          0 0 0 0 0 0 0 0 0 0 0 0
        </DataArray>
      </CellData>
      <Points>
        <DataArray type="Float32" Name="Coordinates" NumberOfComponents="3" format="ascii">
          0.25 0 0 0.3 0 0 0.25 0.0333553 0 0.3 0.0333553 0
          0.35 0 0 0.35 0.0333553 0 0.4 0 0 0.4 0.0333553 0
          0.45 0 0 0.45 0.0333553 0 0.5 0 0 0.5 0.0333553 0
          0.25 0.0636783 0 0.3 0.0636783 0 0.35 0.0636783 0 0.4 0.0636783 0
          0.45 0.0636783 0 0.5 0.0636783 0 0.25 0.0912447 0 0.3 0.0912447 0
          0.35 0.0912447 0 0.4 0.0912447 0 0.45 0.0912447 0 0.5 0.0912447 0
          0.25 0.116305 0 0.3 0.116305 0 0.35 0.116305 0 0.4 0.116305 0
          0.45 0.116305 0 0.5 0.116305 0 0.25 0.139087 0 0.3 0.139087 0
          0.35 0.139087 0 0.4 0.139087 0 0.45 0.139087 0 0.5 0.139087 0
          0.25 0.159798 0 0.3 0.159798 0 0.35 0.159798 0 0.4 0.159798 0
          0.45 0.159798 0 0.5 0.159798 0 0.25 0.178626 0 0.3 0.178626 0
          0.35 0.178626 0 0.4 0.178626 0 0.45 0.178626 0 0.5 0.178626 0
          0.25 0.195743 0 0.3 0.195743 0 0.35 0.195743 0 0.4 0.195743 0
          0.45 0.195743 0 0.5 0.195743 0 0.25 0.211303 0 0.3 0.211303 0
          0.35 0.211303 0 0.4 0.211303 0 0.45 0.211303 0 0.5 0.211303 0
          0.25 0.225449 0 0.3 0.225449 0 0.35 0.225449 0 0.4 0.225449 0
          0.45 0.225449 0 0.5 0.225449 0 0.25 0.238309 0 0.3 0.238309 0
          0.35 0.238309 0 0.4 0.238309 0 0.45 0.238309 0 0.5 0.238309 0
          0.25 0.25 0 0.3 0.25 0 0.35 0.25 0 0.4 0.25 0
          0.45 0.25 0 0.5 0.25 0
        </DataArray>
      </Points>
      <Cells>
        <DataArray type="Int32" Name="connectivity" NumberOfComponents="1" format="ascii">
          0 1 3 2 1 4 5 3 4 6 7 5
          6 8 9 7 8 10 11 9 2 3 13 12
          3 5 14 13 5 7 15 14 7 9 16 15
          9 11 17 16 12 13 19 18 13 14 20 19
          14 15 21 20 15 16 22 21 16 17 23 22
          18 19 25 24 19 20 26 25 20 21 27 26
          21 22 28 27 22 23 29 28 24 25 31 30
          25 26 32 31 26 27 33 32 27 28 34 33
          28 29 35 34 30 31 37 36 31 32 38 37
          32 33 39 38 33 34 40 39 34 35 41 40
          36 37 43 42 37 38 44 43 38 39 45 44
          39 40 46 45 40 41 47 46 42 43 49 48
          43 44 50 49 44 45 51 50 45 46 52 51
          46 47 53 52 48 49 55 54 49 50 56 55
          50 51 57 56 51 52 58 57 52 53 59 58
          54 55 61 60 55 56 62 61 56 57 63 62
          57 58 64 63 58 59 65 64 60 61 67 66
          61 62 68 67 62 63 69 68 63 64 70 69
          64 65 71 70 66 67 73 72 67 68 74 73
          68 69 75 74 69 70 76 75 70 71 77 76
        </DataArray>
        <DataArray type="Int32" Name="offsets" NumberOfComponents="1" format="ascii">
          4 8 12 16 20 24 28 32 36 40 44 48
          52 56 60 64 68 72 76 80 84 88 92 96
          100 104 108 112 116 120 124 128 132 136 140 144
          148 152 156 160 164 168 172 176 180 184 188 192
          196 200 204 208 212 216 220 224 228 232 236 240
        </DataArray>
        <DataArray type="UInt8" Name="types" NumberOfComponents="1" format="ascii">
          9 9 9 9 9 9 9 9 9 9 9 9
          9 9 9 9 9 9 9 9 9 9 9 9
          9 9 9 9 9 9 9 9 9 9 9 9
          9 9 9 9 9 9 9 9 9 9 9 9
          9 9 9 9 9 9 9 9 9 9 9 9
        </DataArray>
      </Cells>
    </Piece>
  </UnstructuredGrid>
</VTKFile>
