<?xml version="1.0"?>
<VTKFile type="UnstructuredGrid" version="0.1" byte_order="LittleEndian">
  <UnstructuredGrid>
    <Piece NumberOfCells="60" NumberOfPoints="78">
      <PointData Scalars="Sn" Vectors="velocityW">
        <DataArray type="Float32" Name="Sn" NumberOfComponents="1" format="ascii">
          0.0124138 0.0124115 0.0159045 0.0159 0.0124067 0.0158908 0.0124027 0.0158832 0.0124001 0.0158783 0.0123992 0.0158766
          0.0397503 0.0396884 0.0395646 0.0394623 0.0393959 0.0393729 0.150734 0.150531 0.150126 0.149781 0.149552 0.149472
          0.364395 0.364079 0.363412 0.362854 0.362473 0.362326 0.585943 0.585654 0.585 0.584479 0.584082 0.583917
          0.741495 0.741331 0.740829 0.740448 0.740039 0.73984 0.834782 0.834852 0.834526 0.834234 0.833638 0.833281
          0.889592 0.890177 0.890065 0.889762 0.888611 0.887811 0.923164 0.924951 0.925131 0.924709 0.922332 0.920506
          0.945121 0.949742 0.950268 0.949656 0.944815 0.940854 0.959671 0.971538 0.972169 0.971519 0.961611 0.953617
          0.950132 1 1 1 0.972537 0.962247
        </DataArray>
        <DataArray type="Float32" Name="Sw" NumberOfComponents="1" format="ascii">
          0.987586 0.987589 0.984096 0.9841 0.987593 0.984109 0.987597 0.984117 0.9876 0.984122 0.987601 0.984123
          0.96025 0.960312 0.960435 0.960538 0.960604 0.960627 0.849266 0.849469 0.849874 0.850219 0.850448 0.850528
          0.635605 0.635921 0.636588 0.637146 0.637527 0.637674 0.414057 0.414346 0.415 0.415521 0.415918 0.416083
          0.258505 0.258669 0.259171 0.259552 0.259961 0.26016 0.165218 0.165148 0.165474 0.165766 0.166362 0.166719
          0.110408 0.109823 0.109935 0.110238 0.111389 0.112189 0.0768362 0.0750486 0.074869 0.0752908 0.0776676 0.0794941
          0.0548793 0.0502583 0.0497323 0.0503439 0.0551854 0.0591457 0.0403294 0.0284622 0.0278306 0.0284814 0.0383894 0.0463831
          0.0498684 0 0 0 0.0274626 0.0377534
        </DataArray>
        <DataArray type="Float32" Name="pn" NumberOfComponents="1" format="ascii">
          100004 100004 100004 100003 100003 100003 100002 100002 100002 100002 100002 100002
          100003 100003 100002 100002 100001 100001 100003 100003 100002 100001 100001 100001
          100003 100002 100002 100001 100001 100001 100002 100002 100001 100001 100001 100000
          100002 100002 100001 100001 100000 100000 100002 100002 100001 100000 99999.9 99999.8
          100002 100002 100000 100000 99999.6 99999.6 100003 100002 99999.6 100000 99999.2 99999.4
          100003 100003 99998.5 100000 99998.8 99999.3 100003 100003 99996.9 100001 99998 99999.4
          100002 100005 99994.3 100003 99996.7 100000
        </DataArray>
        <DataArray type="Float32" Name="pw" NumberOfComponents="1" format="ascii">
          99654.5 99654.5 99328.3 99328.3 99654.5 99328.3 99654.5 99328.3 99654.5 99328.3 99654.5 99328.3
          99031.7 99031.7 99031.7 99031.7 99031.7 99031.7 98762 98762 98762 98762 98762.1 98762.1
          98516.9 98516.9 98516.9 98516.9 98517 98517 98294 98294 98294 98294 98294.1 98294.2
          98091.2 98091 98090.9 98091.1 98091.4 98091.6 97906 97905.4 97905 97905.4 97906.5 97907.2
          97735.1 97732.3 97731.1 97732.2 97736.2 97739.2 97573.1 97561.8 97558.1 97561.3 97574.8 97585.6
          97411.9 97367.5 97358.1 97366.2 97410.8 97445.5 97251.7 97051.7 97031.2 97049.7 97220.2 97323
          97363 95702.7 95691.8 95700 97022.8 97212.9
        </DataArray>
        <DataArray type="Float32" Name="pc" NumberOfComponents="1" format="ascii">
          349.342 349.056 675.272 674.974 348.471 674.373 347.972 673.872 347.652 673.549 347.541 673.438
          971.538 971.235 970.628 970.124 969.796 969.682 1240.87 1240.57 1239.95 1239.43 1239.08 1238.96
          1485.75 1485.44 1484.78 1484.24 1483.86 1483.72 1708.46 1708.14 1707.42 1706.84 1706.41 1706.23
          1911.18 1910.91 1910.11 1909.5 1908.85 1908.53 2096.33 2096.51 2095.69 2094.95 2093.46 2092.57
          2267.28 2269.59 2269.15 2267.95 2263.44 2260.34 2429.43 2440.33 2441.44 2438.83 2424.46 2413.77
          2590.71 2635.05 2640.42 2634.18 2587.94 2553.75 2750.81 2951.8 2965.66 2951.39 2777.8 2676.41
          2639.02 4302.49 4302.49 4302.49 2973.94 2787.05
        </DataArray>
        <DataArray type="Float32" Name="rhoW" NumberOfComponents="1" format="ascii">
          997.054 997.054 997.054 997.054 997.054 997.054 997.054 997.054 997.054 997.054 997.054 997.054
          997.054 997.054 997.054 997.054 997.054 997.054 997.054 997.054 997.054 997.054 997.054 997.054
          997.054 997.054 997.054 997.054 997.054 997.054 997.054 997.054 997.054 997.054 997.054 997.054
          997.054 997.054 997.054 997.054 997.054 997.054 997.054 997.054 997.054 997.054 997.054 997.054
          997.054 997.054 997.054 997.054 997.054 997.054 997.053 997.053 997.053 997.053 997.053 997.053
          997.053 997.053 997.053 997.053 997.053 997.053 997.053 997.053 997.053 997.053 997.053 997.053
          997.053 997.06 997.055 997.053 997.053 997.053
        </DataArray>
        <DataArray type="Float32" Name="rhoN" NumberOfComponents="1" format="ascii">
          1.15431 1.15431 1.15431 1.15431 1.1543 1.1543 1.1543 1.15429 1.15429 1.15429 1.15429 1.15429
          1.15431 1.1543 1.1543 1.15429 1.15429 1.15429 1.1543 1.1543 1.15429 1.15429 1.15428 1.15428
          1.1543 1.1543 1.15429 1.15428 1.15428 1.15428 1.1543 1.15429 1.15429 1.15428 1.15428 1.15427
          1.1543 1.15429 1.15428 1.15428 1.15427 1.15427 1.1543 1.15429 1.15428 1.15427 1.15427 1.15427
          1.1543 1.15429 1.15427 1.15427 1.15426 1.15426 1.1543 1.15429 1.15426 1.15427 1.15426 1.15426
          1.1543 1.1543 1.15425 1.15427 1.15425 1.15426 1.1543 1.15431 1.15423 1.15428 1.15425 1.15426
          1.15429 1.16073 1.1577 1.15516 1.15423 1.15427
        </DataArray>
        <DataArray type="Float32" Name="mobW" NumberOfComponents="1" format="ascii">
          1122.96 1122.96 1120.58 1120.59 1122.96 1120.6 1122.96 1120.6 1122.96 1120.61 1122.96 1120.61
          1060.87 1061.1 1061.57 1061.96 1062.21 1062.29 642.172 642.674 643.684 644.543 645.115 645.314
          259.139 259.532 260.362 261.059 261.537 261.721 71.9377 72.0863 72.4242 72.6941 72.9004 72.9866
          17.9858 18.0194 18.1226 18.2012 18.2859 18.3272 4.82111 4.81507 4.84326 4.86872 4.92082 4.952
          1.458 1.43495 1.43942 1.45148 1.49748 1.52976 0.488822 0.454878 0.451643 0.45962 0.505515 0.542445
          0.173046 0.131106 0.126891 0.132031 0.176476 0.218844 0.0648993 0.0201522 0.0186956 0.0203274 0.0555957 0.101882
          0.128288 0 0 0 0.0183426 0.0521292
        </DataArray>
        <DataArray type="Float32" Name="mobN" NumberOfComponents="1" format="ascii">
          0.336575 0.335912 2.09269 2.0894 0.334558 2.0828 0.333405 2.07731 0.332666 2.07378 0.332411 2.07256
          56.7952 56.5547 56.0748 55.6797 55.4242 55.3359 1336.46 1332.57 1324.82 1318.24 1313.87 1312.36
          8495.56 8480.59 8449.1 8422.77 8404.79 8397.88 21842.6 21821.8 21774.7 21737.1 21708.6 21696.7
          34115.3 34101.4 34058.9 34026.7 33992 33975.1 42232.8 42239 42210.1 42184.2 42131.4 42099.8
          47100 47151.8 47141.9 47115.1 47013.1 46942.3 50439.2 50633.5 50653 50607.2 50349 50150.9
          52765 53215.3 53265.2 53207.1 52734.5 52332.2 54097.8 54949.9 54987.9 54948.8 54253.9 53575
          53252.3 55301 55485.5 55653.1 55009.5 54303.7
        </DataArray>
        <DataArray type="Float32" Name="X_liquid^H2O" NumberOfComponents="1" format="ascii">
          0.999978 0.999978 0.999978 0.999978 0.999978 0.999978 0.999978 0.999978 0.999978 0.999978 0.999978 0.999978
          0.999978 0.999978 0.999978 0.999978 0.999978 0.999978 0.999978 0.999978 0.999978 0.999978 0.999978 0.999978
          0.999978 0.999978 0.999978 0.999978 0.999978 0.999978 0.999978 0.999978 0.999978 0.999978 0.999978 0.999978
          0.999978 0.999978 0.999978 0.999978 0.999978 0.999978 0.999978 0.999978 0.999978 0.999978 0.999978 0.999978
          0.999978 0.999978 0.999978 0.999978 0.999978 0.999978 0.999978 0.999978 0.999978 0.999978 0.999978 0.999978
          0.999978 0.999978 0.999978 0.999978 0.999978 0.999978 0.999978 0.999978 0.999978 0.999978 0.999978 0.999978
          0.999978 0.540315 0.749105 0.937775 0.999978 0.999978
        </DataArray>
        <DataArray type="Float32" Name="X_liquid^Air" NumberOfComponents="1" format="ascii">
          2.15474e-05 2.15474e-05 2.15474e-05 2.15473e-05 2.15472e-05 2.15472e-05 2.15471e-05 2.1547e-05 2.15471e-05 2.1547e-05 2.1547e-05 2.15469e-05
          2.15473e-05 2.15472e-05 2.15471e-05 2.1547e-05 2.15469e-05 2.15469e-05 2.15472e-05 2.15471e-05 2.1547e-05 2.15469e-05 2.15468e-05 2.15468e-05
          2.15472e-05 2.15471e-05 2.15469e-05 2.15468e-05 2.15467e-05 2.15467e-05 2.15471e-05 2.1547e-05 2.15469e-05 2.15468e-05 2.15467e-05 2.15467e-05
          2.15471e-05 2.1547e-05 2.15468e-05 2.15467e-05 2.15466e-05 2.15466e-05 2.15471e-05 2.1547e-05 2.15467e-05 2.15466e-05 2.15465e-05 2.15465e-05
          2.15471e-05 2.1547e-05 2.15466e-05 2.15466e-05 2.15465e-05 2.15465e-05 2.15471e-05 2.1547e-05 2.15465e-05 2.15466e-05 2.15464e-05 2.15464e-05
          2.15472e-05 2.15471e-05 2.15462e-05 2.15466e-05 2.15463e-05 2.15464e-05 2.15471e-05 2.15473e-05 2.15459e-05 2.15468e-05 2.15461e-05 2.15464e-05
          2.1547e-05 2.18719e-05 2.17223e-05 2.1591e-05 2.15458e-05 2.15466e-05
        </DataArray>
        <DataArray type="Float32" Name="X_gas^H2O" NumberOfComponents="1" format="ascii">
          0.0199643 0.0199643 0.0199643 0.0199644 0.0199644 0.0199645 0.0199645 0.0199646 0.0199646 0.0199647 0.0199646 0.0199647
          0.0199644 0.0199644 0.0199646 0.0199647 0.0199647 0.0199648 0.0199644 0.0199645 0.0199646 0.0199647 0.0199648 0.0199648
          0.0199645 0.0199646 0.0199647 0.0199648 0.0199649 0.0199649 0.0199645 0.0199646 0.0199648 0.0199649 0.0199649 0.019965
          0.0199646 0.0199646 0.0199648 0.0199649 0.019965 0.019965 0.0199646 0.0199647 0.0199649 0.019965 0.019965 0.0199651
          0.0199645 0.0199647 0.019965 0.019965 0.0199651 0.0199651 0.0199645 0.0199646 0.0199651 0.019965 0.0199652 0.0199652
          0.0199645 0.0199645 0.0199653 0.019965 0.0199653 0.0199652 0.0199645 0.0199643 0.0199657 0.0199648 0.0199654 0.0199652
          0.0199646 0.0107273 0.0149118 0.0187085 0.0199657 0.019965
        </DataArray>
        <DataArray type="Float32" Name="X_gas^Air" NumberOfComponents="1" format="ascii">
          0.980036 0.980036 0.980036 0.980036 0.980036 0.980035 0.980035 0.980035 0.980035 0.980035 0.980035 0.980035
          0.980036 0.980036 0.980035 0.980035 0.980035 0.980035 0.980036 0.980035 0.980035 0.980035 0.980035 0.980035
          0.980035 0.980035 0.980035 0.980035 0.980035 0.980035 0.980035 0.980035 0.980035 0.980035 0.980035 0.980035
          0.980035 0.980035 0.980035 0.980035 0.980035 0.980035 0.980035 0.980035 0.980035 0.980035 0.980035 0.980035
          0.980035 0.980035 0.980035 0.980035 0.980035 0.980035 0.980035 0.980035 0.980035 0.980035 0.980035 0.980035
          0.980035 0.980035 0.980035 0.980035 0.980035 0.980035 0.980035 0.980036 0.980034 0.980035 0.980035 0.980035
          0.980035 0.989273 0.985088 0.981291 0.980034 0.980035
        </DataArray>
        <DataArray type="Float32" Name="x_liquid^H2O" NumberOfComponents="1" format="ascii">
          0.999987 0.999987 0.999987 0.999987 0.999987 0.999987 0.999987 0.999987 0.999987 0.999987 0.999987 0.999987
          0.999987 0.999987 0.999987 0.999987 0.999987 0.999987 0.999987 0.999987 0.999987 0.999987 0.999987 0.999987
          0.999987 0.999987 0.999987 0.999987 0.999987 0.999987 0.999987 0.999987 0.999987 0.999987 0.999987 0.999987
          0.999987 0.999987 0.999987 0.999987 0.999987 0.999987 0.999987 0.999987 0.999987 0.999987 0.999987 0.999987
          0.999987 0.999987 0.999987 0.999987 0.999987 0.999987 0.999987 0.999987 0.999987 0.999987 0.999987 0.999987
          0.999987 0.999987 0.999987 0.999987 0.999987 0.999987 0.999987 0.999987 0.999987 0.999987 0.999987 0.999987
          0.999987 0.540323 0.749114 0.937783 0.999987 0.999987
        </DataArray>
        <DataArray type="Float32" Name="x_liquid^Air" NumberOfComponents="1" format="ascii">
          1.34041e-05 1.34041e-05 1.34041e-05 1.34041e-05 1.3404e-05 1.3404e-05 1.3404e-05 1.34039e-05 1.34039e-05 1.34039e-05 1.34039e-05 1.34038e-05
          1.3404e-05 1.3404e-05 1.34039e-05 1.34039e-05 1.34038e-05 1.34038e-05 1.3404e-05 1.3404e-05 1.34039e-05 1.34038e-05 1.34038e-05 1.34038e-05
          1.3404e-05 1.34039e-05 1.34038e-05 1.34038e-05 1.34037e-05 1.34037e-05 1.34039e-05 1.34039e-05 1.34038e-05 1.34037e-05 1.34037e-05 1.34037e-05
          1.34039e-05 1.34039e-05 1.34038e-05 1.34037e-05 1.34036e-05 1.34036e-05 1.34039e-05 1.34039e-05 1.34037e-05 1.34036e-05 1.34036e-05 1.34036e-05
          1.34039e-05 1.34039e-05 1.34036e-05 1.34036e-05 1.34036e-05 1.34035e-05 1.3404e-05 1.34039e-05 1.34035e-05 1.34036e-05 1.34035e-05 1.34035e-05
          1.3404e-05 1.3404e-05 1.34034e-05 1.34037e-05 1.34034e-05 1.34035e-05 1.3404e-05 1.34041e-05 1.34032e-05 1.34038e-05 1.34033e-05 1.34035e-05
          1.34039e-05 1.36061e-05 1.35129e-05 1.34313e-05 1.34031e-05 1.34036e-05
        </DataArray>
        <DataArray type="Float32" Name="x_gas^H2O" NumberOfComponents="1" format="ascii">
          0.0317086 0.0317087 0.0317087 0.0317088 0.0317089 0.031709 0.031709 0.0317092 0.0317091 0.0317093 0.0317092 0.0317093
          0.0317088 0.0317089 0.0317091 0.0317093 0.0317094 0.0317094 0.0317089 0.031709 0.0317092 0.0317094 0.0317095 0.0317095
          0.031709 0.0317091 0.0317093 0.0317095 0.0317096 0.0317096 0.0317091 0.0317092 0.0317094 0.0317096 0.0317097 0.0317097
          0.0317091 0.0317092 0.0317095 0.0317097 0.0317098 0.0317098 0.0317091 0.0317092 0.0317096 0.0317097 0.0317099 0.0317099
          0.0317091 0.0317092 0.0317098 0.0317098 0.03171 0.03171 0.031709 0.0317092 0.03171 0.0317098 0.0317101 0.03171
          0.031709 0.031709 0.0317103 0.0317097 0.0317102 0.0317101 0.031709 0.0317087 0.0317108 0.0317095 0.0317105 0.03171
          0.0317092 0.0171329 0.0237559 0.0297366 0.0317109 0.0317098
        </DataArray>
        <DataArray type="Float32" Name="x_gas^Air" NumberOfComponents="1" format="ascii">
          0.968291 0.968291 0.968291 0.968291 0.968291 0.968291 0.968291 0.968291 0.968291 0.968291 0.968291 0.968291
          0.968291 0.968291 0.968291 0.968291 0.968291 0.968291 0.968291 0.968291 0.968291 0.968291 0.968291 0.968291
          0.968291 0.968291 0.968291 0.968291 0.96829 0.96829 0.968291 0.968291 0.968291 0.96829 0.96829 0.96829
          0.968291 0.968291 0.968291 0.96829 0.96829 0.96829 0.968291 0.968291 0.96829 0.96829 0.96829 0.96829
          0.968291 0.968291 0.96829 0.96829 0.96829 0.96829 0.968291 0.968291 0.96829 0.96829 0.96829 0.96829
          0.968291 0.968291 0.96829 0.96829 0.96829 0.96829 0.968291 0.968291 0.968289 0.968291 0.96829 0.96829
          0.968291 0.982867 0.976244 0.970263 0.968289 0.96829
        </DataArray>
        <DataArray type="Float32" Name="porosity" NumberOfComponents="1" format="ascii">
          0.41 0.41 0.41 0.41 0.41 0.41 0.41 0.41 0.41 0.41 0.41 0.41
          0.41 0.41 0.41 0.41 0.41 0.41 0.41 0.41 0.41 0.41 0.41 0.41
          0.41 0.41 0.41 0.41 0.41 0.41 0.41 0.41 0.41 0.41 0.41 0.41
          0.41 0.41 0.41 0.41 0.41 0.41 0.41 0.41 0.41 0.41 0.41 0.41
          0.41 0.41 0.41 0.41 0.41 0.41 0.41 0.41 0.41 0.41 0.41 0.41
          0.41 0.41 0.41 0.41 0.41 0.41 0.41 0.41 0.41 0.41 0.41 0.41
          0.41 0.41 0.41 0.41 0.41 0.41
        </DataArray>
        <DataArray type="Float32" Name="temperature" NumberOfComponents="1" format="ascii">
          298.15 298.15 298.15 298.15 298.15 298.15 298.15 298.15 298.15 298.15 298.15 298.15
          298.15 298.15 298.15 298.15 298.15 298.15 298.15 298.15 298.15 298.15 298.15 298.15
          298.15 298.15 298.15 298.15 298.15 298.15 298.15 298.15 298.15 298.15 298.15 298.15
          298.15 298.15 298.15 298.15 298.15 298.15 298.15 298.15 298.15 298.15 298.15 298.15
          298.15 298.15 298.15 298.15 298.15 298.15 298.15 298.15 298.15 298.15 298.15 298.15
          298.15 298.15 298.15 298.15 298.15 298.15 298.15 298.15 298.15 298.15 298.15 298.15
          298.15 298.15 298.15 298.15 298.15 298.15
        </DataArray>
        <DataArray type="Float32" Name="phase presence" NumberOfComponents="1" format="ascii">
          3 3 3 3 3 3 3 3 3 3 3 3
          3 3 3 3 3 3 3 3 3 3 3 3
          3 3 3 3 3 3 3 3 3 3 3 3
          3 3 3 3 3 3 3 3 3 3 3 3
          3 3 3 3 3 3 3 3 3 3 3 3
          3 3 3 3 3 3 3 3 3 3 3 3
          3 2 2 2 3 3
        </DataArray>
        <DataArray type="Float32" Name="velocityW" NumberOfComponents="3" format="ascii">
          -1.12205e-08 8.01494e-09 0 -2.42027e-08 9.19025e-09 0 -9.76292e-09 1.51942e-08 0 -2.32781e-08 1.87264e-08 0
          -4.88434e-08 8.30739e-09 0 -5.1532e-08 1.85802e-08 0 -5.97933e-08 5.73679e-11 0 -6.68325e-08 1.32956e-09 0
          -4.18314e-08 -1.09796e-08 0 -4.77458e-08 -2.25177e-08 0 -2.45781e-08 -1.5866e-08 0 -2.80974e-08 -3.27688e-08 0
          -3.698e-09 3.59276e-08 0 -1.77496e-08 4.77236e-08 0 -5.53703e-08 5.37148e-08 0 -8.54039e-08 1.75475e-08 0
          -6.50525e-08 -3.82135e-08 0 -3.82366e-08 -6.04036e-08 0 7.34933e-09 7.94276e-08 0 -2.35103e-09 1.05979e-07 0
          -3.79779e-08 1.25785e-07 0 -8.04911e-08 7.47619e-08 0 -7.16149e-08 -2.20988e-08 0 -4.6152e-08 -6.15118e-08 0
          1.51025e-08 1.49763e-07 0 9.76712e-09 1.94817e-07 0 -1.72217e-08 2.30798e-07 0 -5.60663e-08 1.72751e-07 0
          -6.07251e-08 3.98567e-08 0 -4.81928e-08 -2.70805e-08 0 1.70338e-08 2.21591e-07 0 1.34956e-08 2.85125e-07 0
          -5.24009e-09 3.33963e-07 0 -3.38302e-08 2.73146e-07 0 -3.94311e-08 1.17213e-07 0 -3.16394e-08 2.327e-08 0
          1.85949e-08 2.70036e-07 0 1.46371e-08 3.51169e-07 0 -1.23887e-09 4.08303e-07 0 -2.50225e-08 3.46889e-07 0
          -3.12124e-08 1.75259e-07 0 -2.55368e-08 6.35176e-08 0 2.21378e-08 2.93292e-07 0 1.64529e-08 3.93019e-07 0
          -3.53824e-11 4.55254e-07 0 -2.32158e-08 3.94648e-07 0 -3.0934e-08 2.10535e-07 0 -2.62753e-08 8.3469e-08 0
          2.81193e-08 2.98708e-07 0 1.93842e-08 4.20058e-07 0 3.84888e-10 4.84782e-07 0 -2.41234e-08 4.26458e-07 0
          -3.43338e-08 2.31193e-07 0 -3.03003e-08 8.78466e-08 0 3.74878e-08 2.91806e-07 0 2.35925e-08 4.3987e-07 0
          4.95211e-10 5.03898e-07 0 -2.61834e-08 4.50048e-07 0 -4.02227e-08 2.44471e-07 0 -3.67855e-08 8.21501e-08 0
          5.50309e-08 2.74072e-07 0 3.0966e-08 4.57776e-07 0 3.16414e-10 5.15947e-07 0 -2.96989e-08 4.70215e-07 0
          -4.9791e-08 2.55259e-07 0 -4.64525e-08 6.93871e-08 0 1.25207e-07 2.33371e-07 0 6.3539e-08 4.73194e-07 0
          5.34128e-11 5.20144e-07 0 -4.5092e-08 4.90921e-07 0 -7.23024e-08 2.65019e-07 0 -5.6185e-08 5.08753e-08 0
          8.80937e-07 2.04335e-07 0 4.40468e-07 4.79549e-07 0 0 5.19851e-07 0 -5.04514e-08 5.0193e-07 0
          -7.31757e-08 2.69515e-07 0 -4.54487e-08 4.0299e-08 0
        </DataArray>
        <DataArray type="Float32" Name="velocityN" NumberOfComponents="3" format="ascii">
          5.12576e-10 -8.71556e-10 0 7.76183e-10 -7.05577e-10 0 3.2822e-09 -3.89867e-09 0 4.93608e-09 -2.69601e-09 0
          9.54967e-10 -4.73305e-10 0 6.00714e-09 -1.039e-09 0 7.10951e-10 -4.23907e-10 0 4.43446e-09 -7.29302e-10 0
          3.70352e-10 -4.09164e-10 0 2.31226e-09 -6.23294e-10 0 1.88946e-10 -4.04151e-10 0 1.17991e-09 -5.87793e-10 0
          9.10607e-08 -7.09784e-08 0 1.35998e-07 -4.20353e-08 0 1.63802e-07 -2.9971e-09 0 1.19732e-07 3.267e-09 0
          6.22299e-08 5.57751e-09 0 3.16659e-08 6.28722e-09 0 2.18722e-06 -1.31941e-06 0 3.26867e-06 -6.81812e-07 0
          3.95201e-06 1.71213e-07 0 2.90029e-06 3.17694e-07 0 1.50594e-06 3.68084e-07 0 7.65186e-07 3.82314e-07 0
          1.45296e-05 -9.49689e-06 0 2.21559e-05 -4.9748e-06 0 2.65785e-05 1.82504e-06 0 1.90079e-05 2.6689e-06 0
          9.81262e-06 2.98595e-06 0 4.98433e-06 3.08781e-06 0 4.11594e-05 -3.44036e-05 0 6.39936e-05 -1.86132e-05 0
          7.36235e-05 8.96809e-06 0 4.954e-05 9.4101e-06 0 2.58461e-05 1.0779e-05 0 1.30313e-05 1.10527e-05 0
          7.42747e-05 -8.16549e-05 0 0.000119405 -4.63654e-05 0 0.000126232 2.96322e-05 0 7.59209e-05 1.88779e-05 0
          4.19587e-05 2.49495e-05 0 2.00047e-05 2.45724e-05 0 0.000106766 -0.000149327 0 0.000187355 -9.29962e-05 0
          0.000174556 7.79063e-05 0 8.64193e-05 2.18846e-05 0 5.63259e-05 4.62179e-05 0 2.09817e-05 4.00236e-05 0
          0.000127744 -0.000229425 0 0.000277131 -0.00017031 0 0.000219673 0.000178211 0 7.63934e-05 -3.16298e-07 0
          7.37834e-05 8.0295e-05 0 7.60715e-06 5.0167e-05 0 0.000110765 -0.000304314 0 0.000404791 -0.000305476 0
          0.000265974 0.000372807 0 3.99886e-05 -8.15062e-05 0 0.000103298 0.000143991 0 -4.02489e-05 4.10593e-05 0
          -3.34092e-06 -0.000337178 0 0.000584859 -0.000549762 0 0.000312597 0.000731021 0 -3.48116e-05 -0.000279498 0
          0.000156641 0.000272292 0 -0.000164961 -1.4597e-05 0 -0.000321707 -0.000258203 0 0.000829077 -0.000974679 0
          0.000355741 0.00136019 0 -0.000163584 -0.00068398 0 0.00025028 0.00052659 0 -0.000440649 -0.000165622 0
          -0.000763564 -0.000179489 0 0.00104995 -0.00124199 0 0.000373152 0.0017587 0 -0.000302779 -0.000951221 0
          0.000353762 0.000694835 0 -0.00080408 -0.000272682 0
        </DataArray>
      </PointData>
      <CellData Scalars="process rank">
        <DataArray type="Float32" Name="process rank" NumberOfComponents="1" format="ascii">
          0 0 0 0 0 0 0 0 0 0 0 0
          0 0 0 0 0 0 0 0 0 0 0 0
          0 0 0 0 0 0 0 0 0 0 0 0
          0 0 0 0 0 0 0 0 0 0 0 0
          0 0 0 0 0 0 0 0 0 0 0 0
        </DataArray>
      </CellData>
      <Points>
        <DataArray type="Float32" Name="Coordinates" NumberOfComponents="3" format="ascii">
          0.25 0 0 0.3 0 0 0.25 0.0333553 0 0.3 0.0333553 0
          0.35 0 0 0.35 0.0333553 0 0.4 0 0 0.4 0.0333553 0
          0.45 0 0 0.45 0.0333553 0 0.5 0 0 0.5 0.0333553 0
          0.25 0.0636783 0 0.3 0.0636783 0 0.35 0.0636783 0 0.4 0.0636783 0
          0.45 0.0636783 0 0.5 0.0636783 0 0.25 0.0912447 0 0.3 0.0912447 0
          0.35 0.0912447 0 0.4 0.0912447 0 0.45 0.0912447 0 0.5 0.0912447 0
          0.25 0.116305 0 0.3 0.116305 0 0.35 0.116305 0 0.4 0.116305 0
          0.45 0.116305 0 0.5 0.116305 0 0.25 0.139087 0 0.3 0.139087 0
          0.35 0.139087 0 0.4 0.139087 0 0.45 0.139087 0 0.5 0.139087 0
          0.25 0.159798 0 0.3 0.159798 0 0.35 0.159798 0 0.4 0.159798 0
          0.45 0.159798 0 0.5 0.159798 0 0.25 0.178626 0 0.3 0.178626 0
          0.35 0.178626 0 0.4 0.178626 0 0.45 0.178626 0 0.5 0.178626 0
          0.25 0.195743 0 0.3 0.195743 0 0.35 0.195743 0 0.4 0.195743 0
          0.45 0.195743 0 0.5 0.195743 0 0.25 0.211303 0 0.3 0.211303 0
          0.35 0.211303 0 0.4 0.211303 0 0.45 0.211303 0 0.5 0.211303 0
          0.25 0.225449 0 0.3 0.225449 0 0.35 0.225449 0 0.4 0.225449 0
          0.45 0.225449 0 0.5 0.225449 0 0.25 0.238309 0 0.3 0.238309 0
          0.35 0.238309 0 0.4 0.238309 0 0.45 0.238309 0 0.5 0.238309 0
          0.25 0.25 0 0.3 0.25 0 0.35 0.25 0 0.4 0.25 0
          0.45 0.25 0 0.5 0.25 0
        </DataArray>
      </Points>
      <Cells>
        <DataArray type="Int32" Name="connectivity" NumberOfComponents="1" format="ascii">
          0 1 3 2 1 4 5 3 4 6 7 5
          6 8 9 7 8 10 11 9 2 3 13 12
          3 5 14 13 5 7 15 14 7 9 16 15
          9 11 17 16 12 13 19 18 13 14 20 19
          14 15 21 20 15 16 22 21 16 17 23 22
          18 19 25 24 19 20 26 25 20 21 27 26
          21 22 28 27 22 23 29 28 24 25 31 30
          25 26 32 31 26 27 33 32 27 28 34 33
          28 29 35 34 30 31 37 36 31 32 38 37
          32 33 39 38 33 34 40 39 34 35 41 40
          36 37 43 42 37 38 44 43 38 39 45 44
          39 40 46 45 40 41 47 46 42 43 49 48
          43 44 50 49 44 45 51 50 45 46 52 51
          46 47 53 52 48 49 55 54 49 50 56 55
          50 51 57 56 51 52 58 57 52 53 59 58
          54 55 61 60 55 56 62 61 56 57 63 62
          57 58 64 63 58 59 65 64 60 61 67 66
          61 62 68 67 62 63 69 68 63 64 70 69
          64 65 71 70 66 67 73 72 67 68 74 73
          68 69 75 74 69 70 76 75 70 71 77 76
        </DataArray>
        <DataArray type="Int32" Name="offsets" NumberOfComponents="1" format="ascii">
          4 8 12 16 20 24 28 32 36 40 44 48
          52 56 60 64 68 72 76 80 84 88 92 96
          100 104 108 112 116 120 124 128 132 136 140 144
          148 152 156 160 164 168 172 176 180 184 188 192
          196 200 204 208 212 216 220 224 228 232 236 240
        </DataArray>
        <DataArray type="UInt8" Name="types" NumberOfComponents="1" format="ascii">
          9 9 9 9 9 9 9 9 9 9 9 9
          9 9 9 9 9 9 9 9 9 9 9 9
          9 9 9 9 9 9 9 9 9 9 9 9
          9 9 9 9 9 9 9 9 9 9 9 9
          9 9 9 9 9 9 9 9 9 9 9 9
        </DataArray>
      </Cells>
    </Piece>
  </UnstructuredGrid>
</VTKFile>
