<?xml version="1.0"?>
<VTKFile type="UnstructuredGrid" version="0.1" byte_order="LittleEndian">
  <UnstructuredGrid>
    <Piece NumberOfCells="140" NumberOfPoints="165">
      <PointData Scalars="P" Vectors="v">
        <DataArray type="Float32" Name="P" NumberOfComponents="1" format="ascii">
          100012 99986.8 100012 99986.8 100011 100011 99988.9 99988.9 100008 100008 99991.6 99991.3
          100004 100006 99995.1 99993.8 100002 100003 99997.2 99996.5 100000 100000 100016 99985.5
          100012 99988.6 100008 99991.4 100004 99994.7 100002 99997 100000 100016 99985.5 100012
          99988.4 100009 99991.1 100006 99993.5 100003 99996.3 100000 100015 99985.2 100012 99988.3
          100009 99991.1 100005 99994.2 100003 99996.7 100000 100015 99985.2 100012 99988.1 100009
          99990.9 100006 99993.4 100003 99996.1 100000 100015 99985.1 100012 99988.1 100009 99990.9
          100006 99993.8 100003 99996.4 100000 100015 99985.1 100012 99988 100009 99990.7 100006
          99993.4 100003 99996 100000 100015 99985 100012 99987.9 100009 99990.8 100006 99993.6
          100003 99996.2 100000 100015 99985.1 100012 99988 100009 99990.7 100006 99993.4 100003
          99996 100000 100015 99985 100012 99987.9 100009 99990.7 100006 99993.5 100003 99996.1
          100000 100015 99985.3 100012 99988.2 100009 99990.9 100006 99993.5 100003 99996.1 100000
          100016 99985.1 100012 99988.2 100009 99991 100006 99993.6 100003 99996.2 100000 100012
          99987.2 100010 99989.2 100008 99991.5 100005 99993.9 100003 99996.3 100000 100012 99987.2
          100010 99989.2 100008 99991.5 100005 99993.9 100003 99996.3 100000
        </DataArray>
        <DataArray type="Float32" Name="delP" NumberOfComponents="1" format="ascii">
          12.0349 -13.1681 12.0412 -13.1617 10.9073 10.9098 -11.1111 -11.1165 8.28912 8.3453 -8.37977 -8.68324
          3.89873 5.71854 -4.88425 -6.24955 1.97537 2.86707 -2.74958 -3.52368 0 0 16.4663 -14.4651
          11.5312 -11.3914 8.36027 -8.55825 4.48056 -5.32232 2.29061 -2.96146 0 15.6992 -14.5038 11.7152
          -11.5945 8.64018 -8.92717 5.94847 -6.44936 3.00684 -3.74248 0 15.4005 -14.7474 11.8725 -11.7293
          8.58489 -8.85202 5.11774 -5.84245 2.57262 -3.34293 0 15.2731 -14.7625 11.9469 -11.8694 8.86964
          -9.13729 6.07481 -6.58385 3.06027 -3.90954 0 15.0739 -14.8986 11.9555 -11.9355 8.76475 -9.08419
          5.52912 -6.20645 2.76298 -3.6218 0 15.0816 -14.863 11.9873 -12.0007 8.97326 -9.25714 6.09758
          -6.64531 3.06916 -3.99105 0 14.9449 -14.9737 11.9737 -12.0532 8.87368 -9.2298 5.7634 -6.43041
          2.87999 -3.79982 0 15.0637 -14.8718 11.9554 -12.0124 8.95409 -9.2689 6.03155 -6.62854 3.03115
          -3.99143 0 14.9506 -14.9993 12.0021 -12.0781 8.89728 -9.2606 5.84146 -6.51069 2.91639 -3.8726
          0 15.2253 -14.7092 11.8011 -11.8275 8.75309 -9.10746 5.83836 -6.49066 2.92188 -3.89976 0
          15.9598 -14.9404 11.9088 -11.8385 8.66529 -9.03779 5.687 -6.38452 2.83167 -3.82189 0 12.2525
          -12.8222 10.3092 -10.784 7.92823 -8.50987 5.35183 -6.1316 2.67814 -3.6911 0 12.2467 -12.828
          10.3084 -10.7882 7.92661 -8.51342 5.34936 -6.13493 2.67548 -3.69443 0
        </DataArray>
        <DataArray type="Float32" Name="x_gas^H2O" NumberOfComponents="1" format="ascii">
          0.0127981 0.0105814 0.0141423 0.0138691 0.0100028 0.0136808 0.00905438 0.0134445 0.00801763 0.0131864 0.00761935 0.0129488
          0.0105508 0.0128917 0.0126255 0.0128592 0.0143585 0.0128543 0.016196 0.0129884 0.031697 0.0147984 0.012153 0.0123115
          0.0123839 0.0124483 0.0124827 0.0124984 0.0124944 0.0124974 0.0125006 0.0125367 0.0132921 0.012049 0.0120794 0.0121066
          0.0121399 0.0121687 0.0121968 0.0122146 0.0122341 0.0122514 0.0122848 0.0128599 0.0120976 0.0120993 0.0121032 0.0121099
          0.0121178 0.0121276 0.0121363 0.0121466 0.0121572 0.0121831 0.0126613 0.0121367 0.0121354 0.0121348 0.0121345 0.0121351
          0.0121364 0.0121383 0.0121409 0.0121446 0.0121647 0.0126624 0.0121625 0.0121612 0.0121599 0.0121586 0.0121577 0.0121568
          0.0121564 0.0121561 0.012157 0.0121781 0.0126796 0.0121758 0.012175 0.0121742 0.0121732 0.0121723 0.0121713 0.0121705
          0.0121697 0.0121702 0.0121952 0.012714 0.0121837 0.0121824 0.0121813 0.0121802 0.0121792 0.0121782 0.0121773 0.0121766
          0.0121777 0.012208 0.0127274 0.0121795 0.0121791 0.0121785 0.0121779 0.0121774 0.012177 0.0121767 0.0121768 0.0121791
          0.0122145 0.0127381 0.0121736 0.0121716 0.0121705 0.0121702 0.0121706 0.0121717 0.0121734 0.0121758 0.0121804 0.0122154
          0.0127343 0.0121289 0.0121367 0.0121452 0.012156 0.0121667 0.0121789 0.0121907 0.0122035 0.0122171 0.012255 0.0127662
          0.0121616 0.012235 0.0122809 0.0123325 0.0123701 0.0124094 0.0124401 0.0124705 0.0124961 0.0125392 0.0130704 0.0141558
          0.0140831 0.014025 0.0139574 0.0138987 0.0138329 0.0137723 0.0137067 0.0136449 0.0135969 0.01429 0.0127981 0.0121524
          0.0119493 0.0115476 0.0113193 0.0109876 0.0107244 0.010426 0.0101621 0.00990616 0.0127981
        </DataArray>
        <DataArray type="Float32" Name="X_gas^H2O" NumberOfComponents="1" format="ascii">
          0.008 0.00660883 0.00884482 0.00867302 0.00624607 0.00855466 0.00565181 0.00840613 0.0050027 0.00824396 0.00475347 0.00809469
          0.0065896 0.00805881 0.00789164 0.00803839 0.00898076 0.00803532 0.0101371 0.00811957 0.0199569 0.00925742 0.0075949 0.00769442
          0.00773986 0.00778035 0.00780193 0.00781181 0.00780929 0.00781114 0.00781319 0.00783587 0.00831037 0.00752961 0.00754871 0.00756581
          0.00758666 0.00760475 0.00762241 0.00763362 0.00764585 0.00765668 0.00767767 0.00803884 0.00756015 0.0075612 0.00756367 0.00756783
          0.00757282 0.00757896 0.00758444 0.00759089 0.00759752 0.0076138 0.00791413 0.00758467 0.00758389 0.00758346 0.00758331 0.00758367
          0.0075845 0.0075857 0.00758734 0.00758965 0.00760229 0.00791481 0.00760089 0.00760003 0.00759925 0.00759846 0.00759784 0.00759732
          0.00759703 0.00759687 0.00759743 0.00761067 0.00792561 0.0076092 0.00760874 0.00760823 0.00760762 0.00760704 0.00760643 0.00760588
          0.00760538 0.00760573 0.00762138 0.00794719 0.00761419 0.00761338 0.00761266 0.00761196 0.00761133 0.00761072 0.00761018 0.00760972
          0.00761042 0.00762942 0.0079556 0.00761155 0.00761128 0.00761094 0.00761057 0.00761025 0.00760998 0.00760982 0.00760983 0.00761127
          0.00763352 0.00796235 0.00760783 0.0076066 0.00760592 0.0076057 0.00760596 0.00760666 0.0076077 0.00760923 0.00761212 0.00763406
          0.00795993 0.0075798 0.00758466 0.00759002 0.0075968 0.0076035 0.00761118 0.00761858 0.00762665 0.00763514 0.00765897 0.00797998
          0.00760033 0.00764641 0.00767519 0.00770762 0.00773125 0.00775589 0.0077752 0.00779425 0.00781034 0.0078374 0.00817106 0.00885327
          0.00880755 0.00877101 0.00872856 0.00869166 0.00865028 0.00861219 0.00857095 0.00853208 0.0085019 0.00893768 0.008 0.00759457
          0.00746704 0.00721489 0.00707165 0.00686359 0.00669851 0.00651136 0.00634593 0.00618549 0.008
        </DataArray>
        <DataArray type="Float32" Name="x_gas^Air" NumberOfComponents="1" format="ascii">
          0.987202 0.989419 0.985858 0.986131 0.989997 0.986319 0.990946 0.986556 0.991982 0.986814 0.992381 0.987051
          0.989449 0.987108 0.987374 0.987141 0.985641 0.987146 0.983804 0.987012 0.968303 0.985202 0.987847 0.987689
          0.987616 0.987552 0.987517 0.987502 0.987506 0.987503 0.987499 0.987463 0.986708 0.987951 0.987921 0.987893
          0.98786 0.987831 0.987803 0.987785 0.987766 0.987749 0.987715 0.98714 0.987902 0.987901 0.987897 0.98789
          0.987882 0.987872 0.987864 0.987853 0.987843 0.987817 0.987339 0.987863 0.987865 0.987865 0.987866 0.987865
          0.987864 0.987862 0.987859 0.987855 0.987835 0.987338 0.987837 0.987839 0.98784 0.987841 0.987842 0.987843
          0.987844 0.987844 0.987843 0.987822 0.98732 0.987824 0.987825 0.987826 0.987827 0.987828 0.987829 0.98783
          0.98783 0.98783 0.987805 0.987286 0.987816 0.987818 0.987819 0.98782 0.987821 0.987822 0.987823 0.987823
          0.987822 0.987792 0.987273 0.987821 0.987821 0.987821 0.987822 0.987823 0.987823 0.987823 0.987823 0.987821
          0.987786 0.987262 0.987826 0.987828 0.987829 0.98783 0.987829 0.987828 0.987827 0.987824 0.98782 0.987785
          0.987266 0.987871 0.987863 0.987855 0.987844 0.987833 0.987821 0.987809 0.987796 0.987783 0.987745 0.987234
          0.987838 0.987765 0.987719 0.987668 0.98763 0.987591 0.98756 0.98753 0.987504 0.987461 0.98693 0.985844
          0.985917 0.985975 0.986043 0.986101 0.986167 0.986228 0.986293 0.986355 0.986403 0.98571 0.987202 0.987848
          0.988051 0.988452 0.988681 0.989012 0.989276 0.989574 0.989838 0.990094 0.987202
        </DataArray>
        <DataArray type="Float32" Name="X_gas^Air" NumberOfComponents="1" format="ascii">
          0.992 0.993391 0.991155 0.991327 0.993754 0.991445 0.994348 0.991594 0.994997 0.991756 0.995247 0.991905
          0.99341 0.991941 0.992108 0.991962 0.991019 0.991965 0.989863 0.99188 0.980043 0.990743 0.992405 0.992306
          0.99226 0.99222 0.992198 0.992188 0.992191 0.992189 0.992187 0.992164 0.99169 0.99247 0.992451 0.992434
          0.992413 0.992395 0.992378 0.992366 0.992354 0.992343 0.992322 0.991961 0.99244 0.992439 0.992436 0.992432
          0.992427 0.992421 0.992416 0.992409 0.992402 0.992386 0.992086 0.992415 0.992416 0.992417 0.992417 0.992416
          0.992415 0.992414 0.992413 0.99241 0.992398 0.992085 0.992399 0.9924 0.992401 0.992402 0.992402 0.992403
          0.992403 0.992403 0.992403 0.992389 0.992074 0.992391 0.992391 0.992392 0.992392 0.992393 0.992394 0.992394
          0.992395 0.992394 0.992379 0.992053 0.992386 0.992387 0.992387 0.992388 0.992389 0.992389 0.99239 0.99239
          0.99239 0.992371 0.992044 0.992388 0.992389 0.992389 0.992389 0.99239 0.99239 0.99239 0.99239 0.992389
          0.992366 0.992038 0.992392 0.992393 0.992394 0.992394 0.992394 0.992393 0.992392 0.992391 0.992388 0.992366
          0.99204 0.99242 0.992415 0.99241 0.992403 0.992396 0.992389 0.992381 0.992373 0.992365 0.992341 0.99202
          0.9924 0.992354 0.992325 0.992292 0.992269 0.992244 0.992225 0.992206 0.99219 0.992163 0.991829 0.991147
          0.991192 0.991229 0.991271 0.991308 0.99135 0.991388 0.991429 0.991468 0.991498 0.991062 0.992 0.992405
          0.992533 0.992785 0.992928 0.993136 0.993302 0.993489 0.993654 0.993815 0.992
        </DataArray>
        <DataArray type="Float32" Name="rho" NumberOfComponents="1" format="ascii">
          1.16272 1.16341 1.16213 1.16196 1.16394 1.16232 1.1641 1.16217 1.16479 1.16251 1.16477 1.16241
          1.16362 1.16261 1.1626 1.16248 1.16192 1.16259 1.16105 1.16246 1.15424 1.1617 1.16306 1.16263
          1.1629 1.1626 1.16282 1.16261 1.16277 1.16265 1.16274 1.16266 1.16236 1.16309 1.16273 1.16302
          1.16274 1.16296 1.16274 1.16291 1.16276 1.16286 1.16276 1.16255 1.16307 1.16272 1.16303 1.16275
          1.16298 1.16277 1.16293 1.1628 1.16289 1.16281 1.16264 1.16305 1.1627 1.16301 1.16274 1.16298
          1.16277 1.16294 1.1628 1.16291 1.16282 1.16264 1.16304 1.16269 1.163 1.16272 1.16297 1.16276
          1.16293 1.16279 1.1629 1.16281 1.16263 1.16303 1.16268 1.163 1.16272 1.16296 1.16275 1.16293
          1.16278 1.16289 1.1628 1.16262 1.16303 1.16268 1.16299 1.16271 1.16296 1.16275 1.16292 1.16278
          1.16289 1.1628 1.16261 1.16303 1.16268 1.16299 1.16272 1.16296 1.16275 1.16293 1.16278 1.16289
          1.16279 1.16261 1.16303 1.16268 1.163 1.16272 1.16296 1.16275 1.16293 1.16278 1.16289 1.16279
          1.16261 1.16305 1.1627 1.16301 1.16273 1.16296 1.16275 1.16292 1.16277 1.16287 1.16278 1.1626
          1.16305 1.16266 1.16295 1.16265 1.16287 1.16265 1.16281 1.16265 1.16275 1.16265 1.16246 1.16212
          1.16187 1.16216 1.16194 1.16219 1.16203 1.16221 1.16211 1.16224 1.16219 1.16192 1.16272 1.16272
          1.16308 1.16301 1.16333 1.16328 1.16356 1.16356 1.16378 1.16382 1.16258
        </DataArray>
        <DataArray type="Float32" Name="mu" NumberOfComponents="1" format="ascii">
          1.82387e-05 1.82387e-05 1.82387e-05 1.82387e-05 1.82387e-05 1.82387e-05 1.82387e-05 1.82387e-05 1.82387e-05 1.82387e-05 1.82387e-05 1.82387e-05
          1.82387e-05 1.82387e-05 1.82387e-05 1.82387e-05 1.82387e-05 1.82387e-05 1.82387e-05 1.82387e-05 1.82387e-05 1.82387e-05 1.82387e-05 1.82387e-05
          1.82387e-05 1.82387e-05 1.82387e-05 1.82387e-05 1.82387e-05 1.82387e-05 1.82387e-05 1.82387e-05 1.82387e-05 1.82387e-05 1.82387e-05 1.82387e-05
          1.82387e-05 1.82387e-05 1.82387e-05 1.82387e-05 1.82387e-05 1.82387e-05 1.82387e-05 1.82387e-05 1.82387e-05 1.82387e-05 1.82387e-05 1.82387e-05
          1.82387e-05 1.82387e-05 1.82387e-05 1.82387e-05 1.82387e-05 1.82387e-05 1.82387e-05 1.82387e-05 1.82387e-05 1.82387e-05 1.82387e-05 1.82387e-05
          1.82387e-05 1.82387e-05 1.82387e-05 1.82387e-05 1.82387e-05 1.82387e-05 1.82387e-05 1.82387e-05 1.82387e-05 1.82387e-05 1.82387e-05 1.82387e-05
          1.82387e-05 1.82387e-05 1.82387e-05 1.82387e-05 1.82387e-05 1.82387e-05 1.82387e-05 1.82387e-05 1.82387e-05 1.82387e-05 1.82387e-05 1.82387e-05
          1.82387e-05 1.82387e-05 1.82387e-05 1.82387e-05 1.82387e-05 1.82387e-05 1.82387e-05 1.82387e-05 1.82387e-05 1.82387e-05 1.82387e-05 1.82387e-05
          1.82387e-05 1.82387e-05 1.82387e-05 1.82387e-05 1.82387e-05 1.82387e-05 1.82387e-05 1.82387e-05 1.82387e-05 1.82387e-05 1.82387e-05 1.82387e-05
          1.82387e-05 1.82387e-05 1.82387e-05 1.82387e-05 1.82387e-05 1.82387e-05 1.82387e-05 1.82387e-05 1.82387e-05 1.82387e-05 1.82387e-05 1.82387e-05
          1.82387e-05 1.82387e-05 1.82387e-05 1.82387e-05 1.82387e-05 1.82387e-05 1.82387e-05 1.82387e-05 1.82387e-05 1.82387e-05 1.82387e-05 1.82387e-05
          1.82387e-05 1.82387e-05 1.82387e-05 1.82387e-05 1.82387e-05 1.82387e-05 1.82387e-05 1.82387e-05 1.82387e-05 1.82387e-05 1.82387e-05 1.82387e-05
          1.82387e-05 1.82387e-05 1.82387e-05 1.82387e-05 1.82387e-05 1.82387e-05 1.82387e-05 1.82387e-05 1.82387e-05 1.82387e-05 1.82387e-05 1.82387e-05
          1.82387e-05 1.82387e-05 1.82387e-05 1.82387e-05 1.82387e-05 1.82387e-05 1.82387e-05 1.82387e-05 1.82387e-05
        </DataArray>
        <DataArray type="Float32" Name="D" NumberOfComponents="1" format="ascii">
          2.49338e-05 2.494e-05 2.49338e-05 2.494e-05 2.4934e-05 2.4934e-05 2.49395e-05 2.49395e-05 2.49347e-05 2.49347e-05 2.49389e-05 2.49389e-05
          2.49358e-05 2.49353e-05 2.4938e-05 2.49383e-05 2.49363e-05 2.4936e-05 2.49374e-05 2.49376e-05 2.49368e-05 2.49368e-05 2.49327e-05 2.49404e-05
          2.49339e-05 2.49396e-05 2.49347e-05 2.49389e-05 2.49356e-05 2.49381e-05 2.49362e-05 2.49375e-05 2.49368e-05 2.49328e-05 2.49404e-05 2.49338e-05
          2.49397e-05 2.49346e-05 2.4939e-05 2.49353e-05 2.49384e-05 2.4936e-05 2.49377e-05 2.49368e-05 2.49329e-05 2.49404e-05 2.49338e-05 2.49397e-05
          2.49346e-05 2.4939e-05 2.49355e-05 2.49382e-05 2.49361e-05 2.49376e-05 2.49368e-05 2.4933e-05 2.49404e-05 2.49338e-05 2.49397e-05 2.49346e-05
          2.4939e-05 2.49352e-05 2.49384e-05 2.4936e-05 2.49377e-05 2.49368e-05 2.4933e-05 2.49405e-05 2.49338e-05 2.49397e-05 2.49346e-05 2.4939e-05
          2.49354e-05 2.49383e-05 2.49361e-05 2.49377e-05 2.49368e-05 2.4933e-05 2.49405e-05 2.49338e-05 2.49398e-05 2.49345e-05 2.49391e-05 2.49352e-05
          2.49384e-05 2.4936e-05 2.49378e-05 2.49368e-05 2.4933e-05 2.49405e-05 2.49338e-05 2.49398e-05 2.49346e-05 2.49391e-05 2.49353e-05 2.49384e-05
          2.4936e-05 2.49377e-05 2.49368e-05 2.4933e-05 2.49405e-05 2.49338e-05 2.49398e-05 2.49345e-05 2.49391e-05 2.49353e-05 2.49384e-05 2.4936e-05
          2.49378e-05 2.49368e-05 2.4933e-05 2.49405e-05 2.49338e-05 2.49398e-05 2.49345e-05 2.49391e-05 2.49353e-05 2.49384e-05 2.4936e-05 2.49377e-05
          2.49368e-05 2.4933e-05 2.49404e-05 2.49338e-05 2.49397e-05 2.49346e-05 2.4939e-05 2.49353e-05 2.49384e-05 2.4936e-05 2.49377e-05 2.49368e-05
          2.49328e-05 2.49405e-05 2.49338e-05 2.49397e-05 2.49346e-05 2.4939e-05 2.49353e-05 2.49384e-05 2.49361e-05 2.49377e-05 2.49368e-05 2.49337e-05
          2.494e-05 2.49342e-05 2.49395e-05 2.49348e-05 2.49389e-05 2.49354e-05 2.49383e-05 2.49361e-05 2.49377e-05 2.49368e-05 2.49337e-05 2.494e-05
          2.49342e-05 2.49395e-05 2.49348e-05 2.49389e-05 2.49354e-05 2.49383e-05 2.49361e-05 2.49377e-05 2.49368e-05
        </DataArray>
        <DataArray type="Float32" Name="v" NumberOfComponents="3" format="ascii">
          0 0 0 0 0 0 3.5 0 0 3.53404 0.118701 0
          0 0 0 3.13506 0.0153384 0 0 0 0 3.38605 0.0611465 0
          0 0 0 2.89037 0.0591554 0 0 0 0 3.18578 0.0763042 0
          -0.104984 -0.00188946 0 2.66297 -0.0690366 0 0.349991 0.00320055 0 2.98558 0.0276965 0
          -0.111047 -0.00199827 0 2.47899 -0.00755949 0 0.378099 0.00171254 0 2.78912 0.051971 0
          -0.436006 -0.00106813 0 2.19748 0.153669 0 3.5 0 0 3.97495 0.125727 0
          3.62701 0.0212362 0 3.95623 0.0822526 0 3.60913 0.0463749 0 3.97676 0.078399 0
          3.59647 0.0381856 0 3.8332 0.0638654 0 3.49383 0.0524918 0 3.7098 0.0935697 0
          3.39904 0.181822 0 3.5 0 0 3.96545 0.0789225 0 3.6318 0.0340509 0
          3.98283 0.0796555 0 3.67503 0.0570794 0 4.00278 0.0847379 0 3.70337 -0.00491033 0
          4.00751 0.0635862 0 3.70266 0.0421746 0 3.99504 0.104159 0 3.73681 0.122861 0
          3.5 0 0 3.91357 0.051447 0 3.57192 0.0270119 0 3.94299 0.0616169 0
          3.62266 0.0368509 0 3.99418 0.0631446 0 3.67086 0.0496282 0 3.97066 0.0668539 0
          3.68737 0.0651708 0 3.98517 0.0924067 0 3.73898 0.101579 0 3.5 0 0
          3.88708 0.0308135 0 3.55019 0.027124 0 3.91012 0.0528859 0 3.59397 0.0361944 0
          3.93042 0.0571927 0 3.63022 0.00971725 0 3.96183 0.0509991 0 3.6652 0.0390349 0
          3.99621 0.0775438 0 3.71943 0.088436 0 3.5 0 0 3.8665 0.0183132 0
          3.52484 0.0181535 0 3.89061 0.0339215 0 3.56567 0.02526 0 3.92564 0.039664 0
          3.60579 0.0402606 0 3.9291 0.0482474 0 3.63424 0.0500919 0 3.9561 0.0617898 0
          3.6871 0.0667082 0 3.5 0 0 3.85988 0.0123552 0 3.52424 0.0142093 0
          3.87817 0.0269278 0 3.55835 0.0185111 0 3.89856 0.0301295 0 3.59265 0.0081541 0
          3.9329 0.029761 0 3.63247 0.0237716 0 3.97235 0.0443679 0 3.6831 0.0503896 0
          3.5 0 0 3.85115 0.00208237 0 3.51216 0.00634822 0 3.87025 0.00887014 0
          3.5455 0.0116542 0 3.89847 0.0148423 0 3.58186 0.0224232 0 3.91605 0.0225491 0
          3.61587 0.0266401 0 3.94786 0.0276332 0 3.66455 0.028982 0 3.5 0 0
          3.85871 0.00212868 0 3.52376 -4.45735e-05 0 3.87544 0.00166666 0 3.55573 0.000136967 0
          3.89739 0.00163286 0 3.59041 -0.00464952 0 3.93067 0.00195001 0 3.6307 0.00091801 0
          3.9699 0.00806727 0 3.67743 0.00980241 0 3.5 0 0 3.85371 -0.0162271 0
          3.51555 -0.0067587 0 3.87375 -0.0192136 0 3.55119 -0.00524931 0 3.89915 -0.0147103 0
          3.58797 -0.000905234 0 3.92296 -0.00950821 0 3.62437 -0.00279676 0 3.95602 -0.00997117 0
          3.66856 -0.0119962 0 3.5 0 0 3.89969 -0.0197906 0 3.56512 -0.01595 0
          3.91811 -0.0327039 0 3.60589 -0.019104 0 3.93994 -0.0331866 0 3.64188 -0.0247927 0
          3.96964 -0.0324221 0 3.67897 -0.0276926 0 4.00368 -0.0310201 0 3.71822 -0.0331585 0
          3.5 0 0 3.91983 -0.0927506 0 3.58556 -0.0123058 0 3.93381 -0.0651015 0
          3.62443 -0.0212124 0 3.94915 -0.0515872 0 3.65233 -0.0257876 0 3.96614 -0.0448527 0
          3.67646 -0.0332858 0 3.98604 -0.046804 0 3.70008 -0.049991 0 3.5 0 0
          3.72819 -0.102769 0 3.40788 -0.0103883 0 3.6911 -0.0664855 0 3.34329 -0.0249399 0
          3.65246 -0.0543633 0 3.28962 -0.0357251 0 3.61296 -0.0498694 0 3.24015 -0.0412582 0
          3.56774 -0.049634 0 3.18533 -0.0331022 0 0 0 0 0 0 0
          0 0 0 0 0 0 0 0 0 0 0 0
          0 0 0 0 0 0 0 0 0 0 0 0
          0 0 0
        </DataArray>
      </PointData>
      <CellData Scalars="mu_t">
        <DataArray type="Float32" Name="mu_t" NumberOfComponents="1" format="ascii">
          0.00037694 0.00037829 0.000378361 0.000378659 0.000368235 0.000753508 0.000696578 0.000669272 0.000860983 0.000895254 0.00028062 0.000298737
          0.000308102 0.000320384 0.000315304 0.000809906 0.000751639 0.000787207 0.00133437 0.00144065 4.24e-05 4.5681e-05 4.74037e-05 4.96459e-05
          4.89585e-05 0.0005242 0.000498406 0.000535232 0.00124494 0.00134425 4.4278e-06 4.77156e-06 4.95209e-06 5.187e-06 5.11538e-06 0.000252992
          0.000242116 0.000261712 0.000803164 0.000867209 7.03135e-07 7.57605e-07 7.86208e-07 8.23428e-07 8.12041e-07 6.75428e-05 6.46868e-05 6.99732e-05
          0.000294766 0.000318254 1.51912e-07 1.63662e-07 1.69831e-07 1.77859e-07 1.75397e-07 1.65216e-05 1.5825e-05 1.71204e-05 8.17726e-05 8.82865e-05
          4.02712e-08 4.33828e-08 4.50165e-08 4.71425e-08 4.64892e-08 4.54319e-06 4.35179e-06 4.70819e-06 2.30696e-05 2.49071e-05 1.23236e-08 1.32752e-08
          1.37747e-08 1.44249e-08 1.42248e-08 1.41151e-06 1.35206e-06 1.46281e-06 7.18084e-06 7.75279e-06 4.19179e-09 4.5153e-09 4.68513e-09 4.90616e-09
          4.83809e-09 4.8407e-07 4.63687e-07 5.01672e-07 2.4562e-06 2.65183e-06 1.50295e-05 1.48368e-05 1.54849e-05 1.54135e-05 1.58197e-05 1.58703e-05
          1.61605e-05 1.63036e-05 1.65964e-05 1.67661e-05 5.17892e-05 5.11256e-05 5.33576e-05 5.31114e-05 5.45104e-05 5.46843e-05 5.56839e-05 5.61764e-05
          5.71851e-05 5.77694e-05 0.000250306 0.000247189 0.000257755 0.000256596 0.000263223 0.000264051 0.000268789 0.000271129 0.000275916 0.000278693
          0.000997929 0.000990654 0.00102084 0.00101806 0.00103723 0.00103998 0.00105389 0.00106109 0.00107546 0.00108399 0.00156473 0.00157122
          0.00156427 0.00156484 0.00156129 0.0015604 0.00155861 0.00155779 0.00155749 0.00155629
        </DataArray>
        <DataArray type="Float32" Name="nu_t" NumberOfComponents="1" format="ascii">
          0.000324259 0.000325338 0.000325344 0.000325543 0.000316526 0.000647756 0.000599053 0.000575762 0.000740875 0.000771545 0.000241415 0.000256997
          0.000265041 0.000275598 0.000271212 0.000696635 0.000646502 0.000677101 0.00114773 0.00123949 3.64616e-05 3.92851e-05 4.07669e-05 4.26965e-05
          4.21052e-05 0.000450825 0.000428637 0.000460315 0.00107068 0.00115626 3.80754e-06 4.10324e-06 4.25846e-06 4.46058e-06 4.39896e-06 0.000217563
          0.000208209 0.000225065 0.000690696 0.000745864 6.04646e-07 6.51498e-07 6.76086e-07 7.08105e-07 6.98304e-07 5.80835e-05 5.56269e-05 6.01739e-05
          0.000253485 0.000273714 1.30635e-07 1.40742e-07 1.46045e-07 1.52951e-07 1.50831e-07 1.42078e-05 1.36086e-05 1.47228e-05 7.03204e-05 7.59307e-05
          3.46311e-08 3.73075e-08 3.87118e-08 4.05407e-08 3.99783e-08 3.90697e-06 3.74232e-06 4.04886e-06 1.98388e-05 2.14215e-05 1.05977e-08 1.14162e-08
          1.18456e-08 1.24049e-08 1.22327e-08 1.21384e-06 1.16271e-06 1.25797e-06 6.17523e-06 6.66788e-06 3.60475e-09 3.883e-09 4.02899e-09 4.21913e-09
          4.16054e-09 4.16284e-07 3.98749e-07 4.31421e-07 2.11224e-06 2.28075e-06 1.29247e-05 1.27591e-05 1.33163e-05 1.3255e-05 1.36042e-05 1.36479e-05
          1.38973e-05 1.40205e-05 1.42723e-05 1.44199e-05 4.45357e-05 4.39658e-05 4.58847e-05 4.56738e-05 4.68764e-05 4.70267e-05 4.78858e-05 4.83103e-05
          4.91775e-05 4.96859e-05 0.00021525 0.000212576 0.000221662 0.000220672 0.00022637 0.000227088 0.000231161 0.000233179 0.000237296 0.000239713
          0.000858511 0.000852262 0.000878213 0.000875835 0.000892308 0.00089468 0.00090663 0.000912827 0.000925177 0.000932632 0.00134619 0.00135167
          0.00134559 0.001346 0.00134285 0.00134202 0.00134038 0.00133961 0.00133927 0.00133865
        </DataArray>
        <DataArray type="Float32" Name="l_mix" NumberOfComponents="1" format="ascii">
          0.00265146 0.00261872 0.00260577 0.00258152 0.00256249 0.00254872 0.00248784 0.00246637 0.00243793 0.00244175 0.011084 0.0110563
          0.0110451 0.0110228 0.0110051 0.0109915 0.0109287 0.010905 0.0108721 0.0108766 0.0197922 0.0197867 0.0197843 0.0197794
          0.0197754 0.0197722 0.0197562 0.0197497 0.0197402 0.0197415 0.0291303 0.0291297 0.0291294 0.0291289 0.0291284 0.029128
          0.0291257 0.0291248 0.0291232 0.0291235 0.0393735 0.0393734 0.0393734 0.0393734 0.0393733 0.0393733 0.0393731 0.039373
          0.0393729 0.0393729 0.0506389 0.0506389 0.0506389 0.0506389 0.0506389 0.0506389 0.0506389 0.0506389 0.0506389 0.0506389
          0.0630308 0.0630308 0.0630308 0.0630308 0.0630308 0.0630308 0.0630308 0.0630308 0.0630308 0.0630308 0.0766618 0.0766618
          0.0766618 0.0766618 0.0766618 0.0766618 0.0766618 0.0766618 0.0766618 0.0766618 0.091656 0.091656 0.091656 0.091656
          0.091656 0.091656 0.091656 0.091656 0.091656 0.091656 0.0968504 0.0968504 0.0968504 0.0968504 0.0968504 0.0968504
          0.0968504 0.0968504 0.0968504 0.0968504 0.0787074 0.0787074 0.0787074 0.0787074 0.0787074 0.0787074 0.0787074 0.0787074
          0.0787074 0.0787074 0.0587486 0.0587485 0.0587485 0.0587484 0.0587483 0.0587482 0.0587482 0.0587481 0.058748 0.0587479
          0.0367414 0.0367389 0.0367382 0.0367363 0.0367355 0.0367338 0.0367329 0.0367313 0.0367302 0.0367281 0.0113561 0.0113388
          0.0113332 0.0113203 0.0113144 0.0113032 0.0112971 0.0112864 0.0112791 0.0112662
        </DataArray>
        <DataArray type="Float32" Name="u^+" NumberOfComponents="1" format="ascii">
          31.6558 30.84 30.4865 29.9298 29.4356 28.1137 30.2732 29.769 29.5397 26.15 65.2952 65.9957
          65.938 66.012 66.1851 65.7078 67.1692 66.7683 66.5433 64.1347 67.2362 70.2898 71.0496 72.6066
          73.945 74.8083 77.7604 78.4906 79.505 78.6826 66.9601 69.7512 70.7297 72.6087 74.0949 75.2591
          78.8489 80.2186 82.0077 81.9435 66.6075 69.0112 70.008 71.8749 73.3515 74.5465 78.2389 79.7846
          81.8145 81.8578 66.3957 68.5757 69.5431 71.3531 72.7434 73.8923 77.6914 79.2902 81.3762 81.4291
          66.2733 68.3299 69.2724 71.0306 72.4164 73.5522 77.35 78.9684 81.0745 81.1102 66.2042 68.2003
          69.118 70.8372 72.1871 73.3021 77.1602 78.8044 80.9326 80.9472 66.199 68.1927 69.103 70.8117
          72.1688 73.2853 77.1372 78.7835 80.9101 80.9042 121.319 122.484 123.063 124.258 124.944 126.098
          126.883 128.065 129.041 130.38 121.656 123.168 123.763 125.034 125.722 126.891 127.647 128.804
          129.739 131.017 122.2 124.298 124.845 126.15 126.755 127.854 128.555 129.612 130.438 131.542
          120.789 121.568 121.649 122.053 122.144 122.465 122.57 122.866 123.001 123.267 59.6058 59.2509
          59.0758 58.8351 58.6497 58.4547 58.2632 58.0855 57.8677 57.6487
        </DataArray>
        <DataArray type="Float32" Name="y^+" NumberOfComponents="1" format="ascii">
          31.6573 30.8215 30.4982 29.9062 29.4499 29.1259 27.7428 27.2746 26.6691 26.7504 98.1376 95.5467
          94.5444 92.7091 91.2947 90.2903 86.0027 84.5514 82.6743 82.9261 171.266 166.744 164.995 161.792
          159.324 157.571 150.089 147.556 144.28 144.719 251.707 245.062 242.491 237.784 234.156 231.58
          220.583 216.861 212.046 212.692 340.193 331.211 327.737 321.375 316.472 312.99 298.127 293.096
          286.589 287.462 437.526 425.975 421.507 413.324 407.019 402.541 383.425 376.955 368.586 369.709
          544.594 530.216 524.654 514.469 506.62 501.047 477.253 469.2 458.783 460.181 662.368 644.881
          638.115 625.728 616.182 609.403 580.464 570.669 558 559.699 791.919 771.012 762.923 748.114
          736.7 728.595 693.996 682.285 667.138 669.17 456.528 453.464 452.507 450.261 449.263 447.337
          446.314 444.502 443.29 441.15 371.007 368.517 367.739 365.914 365.103 363.538 362.706 361.234
          360.248 358.509 276.934 275.075 274.494 273.132 272.526 271.359 270.738 269.639 268.903 267.605
          173.453 172.289 171.925 171.072 170.693 169.961 169.572 168.884 168.423 167.61 59.6246 59.2243
          59.0993 58.806 58.6756 58.4242 58.2905 58.0539 57.8955 57.616
        </DataArray>
        <DataArray type="Float32" Name="D_t" NumberOfComponents="1" format="ascii">
          0.000271517 0.000257364 0.000251623 0.000242127 0.000234353 0.000222303 0.000225243 0.000217916 0.000211147 0.000190221 0.00154717 0.00152415
          0.00150701 0.00148012 0.00146202 0.00143747 0.00140113 0.00137099 0.00133728 0.00129809 0.00277655 0.00282467 0.00282461 0.00282964
          0.00283716 0.00284029 0.00281525 0.00279658 0.0027719 0.0027613 0.00406367 0.00411897 0.00413182 0.00415753 0.00417714 0.00419816
          0.00419286 0.00419728 0.00419799 0.00422151 0.00546351 0.00550845 0.00552778 0.00556263 0.00558883 0.00561992 0.00562318 0.00564231
          0.00566048 0.00569957 0.00700443 0.00703987 0.00706226 0.00710242 0.00712879 0.00716507 0.00718143 0.0072115 0.00724059 0.00729143
          0.00870253 0.00873153 0.00875655 0.00880078 0.00883342 0.00887736 0.00889992 0.00894035 0.00897972 0.00904086 0.0105735 0.0105996
          0.0106264 0.0106749 0.0107099 0.0107607 0.0107979 0.0108509 0.0109021 0.0109734 0.0126407 0.0126717 0.0127024 0.0127586
          0.0128016 0.0128626 0.0129065 0.0129704 0.0130315 0.0131135 0.0133594 0.0133952 0.0134285 0.0134899 0.0135328 0.0135977
          0.0136497 0.0137193 0.013785 0.0138676 0.0108865 0.0109455 0.0109739 0.0110302 0.0110651 0.0111188 0.0111582 0.0112124
          0.0112619 0.0113236 0.00816263 0.00824538 0.00826329 0.00830718 0.00832773 0.00836302 0.0083889 0.00842278 0.00845266 0.00848748
          0.00505611 0.00505624 0.00504896 0.00504148 0.00503417 0.00502638 0.00501938 0.00501163 0.00500377 0.00499406 0.000964362 0.000952072
          0.000947124 0.000938507 0.000933352 0.000926192 0.000920922 0.000914322 0.000908289 0.000900974
        </DataArray>
      </CellData>
      <Points>
        <DataArray type="Float32" Name="Coordinates" NumberOfComponents="3" format="ascii">
          0 0.25 0 0.05 0.25 0 0 0.267873 0 0.05 0.267873 0