<?xml version="1.0"?>
<VTKFile type="UnstructuredGrid" version="0.1" byte_order="LittleEndian">
  <UnstructuredGrid>
    <Piece NumberOfCells="55" NumberOfPoints="72">
      <PointData Scalars="Sn" Vectors="velocityW">
        <DataArray type="Float32" Name="Sn" NumberOfComponents="1" format="ascii">
          0.014036 0.0140344 0.0238613 0.023845 0.0140313 0.0238128 0.0140287 0.0237855 0.014027 0.0237677 0.0140264 0.0237616
          0.113233 0.113152 0.112993 0.112858 0.112769 0.112738 0.339188 0.339035 0.338719 0.338449 0.338275 0.338214
          0.594283 0.594139 0.593828 0.593577 0.59341 0.593347 0.765419 0.765334 0.765113 0.764954 0.764825 0.764758
          0.859555 0.859583 0.859459 0.859378 0.859241 0.85911 0.9105 0.910807 0.910807 0.910784 0.910556 0.910191
          0.939602 0.940652 0.940832 0.94086 0.940435 0.939396 0.957554 0.960521 0.960897 0.960989 0.960273 0.957467
          0.968907 0.977057 0.977356 0.977587 0.976654 0.969105 0.965202 1 1 1 1 0.966209
        </DataArray>
        <DataArray type="Float32" Name="Sw" NumberOfComponents="1" format="ascii">
          0.985964 0.985966 0.976139 0.976155 0.985969 0.976187 0.985971 0.976215 0.985973 0.976232 0.985974 0.976238
          0.886767 0.886848 0.887007 0.887142 0.887231 0.887262 0.660812 0.660965 0.661282 0.661551 0.661725 0.661786
          0.405717 0.405861 0.406172 0.406423 0.40659 0.406653 0.234581 0.234666 0.234887 0.235046 0.235175 0.235242
          0.140444 0.140417 0.140541 0.140622 0.140759 0.14089 0.0895005 0.0891933 0.0891929 0.0892158 0.0894437 0.0898091
          0.0603975 0.0593479 0.059168 0.0591404 0.0595651 0.0606041 0.0424458 0.039479 0.0391034 0.0390112 0.0397269 0.0425327
          0.0310931 0.022943 0.0226439 0.0224126 0.0233463 0.0308953 0.0347981 0 0 0 0 0.0337906
        </DataArray>
        <DataArray type="Float32" Name="pn" NumberOfComponents="1" format="ascii">
          100003 100003 100003 100003 100003 100002 100002 100002 100002 100002 100002 100002
          100002 100002 100002 100002 100002 100001 100002 100002 100002 100001 100001 100001
          100002 100002 100001 100001 100001 100001 100002 100001 100001 100001 100001 100000
          100002 100001 100001 100000 100000 100000 100001 100001 100000 100000 99999.9 99999.9
          100002 100001 99999.8 100000 99999.6 99999.7 100002 100001 99999 100000 99999.2 99999.5
          100001 100002 99997.7 100001 99998.6 99999.6 100001 100003 99995.5 100002 99997.5 100000
        </DataArray>
        <DataArray type="Float32" Name="pw" NumberOfComponents="1" format="ascii">
          99477.5 99477.5 99135.3 99135.3 99477.5 99135.2 99477.5 99135.2 99477.5 99135.3 99477.5 99135.3
          98824.1 98824.1 98824.1 98824.1 98824.1 98824.1 98541.3 98541.3 98541.2 98541.2 98541.3 98541.3
          98284.1 98284.1 98284.1 98284.1 98284.1 98284.1 98050.2 98050.2 98050.1 98050.1 98050.2 98050.2
          97837.1 97836.8 97836.6 97836.6 97836.8 97837.1 97641.5 97639.7 97638.8 97638.8 97639.7 97641.5
          97458 97449.1 97446.2 97446.3 97449.3 97457.8 97278.3 97239 97231.3 97231.2 97240.2 97277.4
          97103.1 96911.4 96898.1 96894.1 96919.7 97097.4 97168.1 95700.8 95693 95699.3 95695 97150.3
        </DataArray>
        <DataArray type="Float32" Name="pc" NumberOfComponents="1" format="ascii">
          525.617 525.471 867.485 867.336 525.177 867.038 524.925 866.786 524.762 866.621 524.706 866.565
          1178.27 1178.12 1177.82 1177.57 1177.4 1177.34 1460.81 1460.66 1460.34 1460.07 1459.9 1459.84
          1717.71 1717.55 1717.2 1716.92 1716.73 1716.66 1951.39 1951.24 1950.85 1950.57 1950.35 1950.23
          2164.37 2164.45 2164.08 2163.83 2163.42 2163.03 2359.95 2361.49 2361.49 2361.38 2360.23 2358.4
          2543.52 2552.08 2553.56 2553.79 2550.29 2541.86 2723.24 2762.43 2767.67 2768.96 2759.01 2722.15
          2898.4 3090.62 3099.52 3106.52 3078.89 2902.19 2832.9 4302.49 4302.49 4302.49 4302.49 2849.74
        </DataArray>
        <DataArray type="Float32" Name="rhoW" NumberOfComponents="1" format="ascii">
          997.047 997.047 997.047 997.047 997.047 997.047 997.047 997.047 997.047 997.047 997.047 997.047
          997.047 997.047 997.047 997.047 997.047 997.047 997.047 997.047 997.047 997.047 997.047 997.047
          997.047 997.047 997.047 997.047 997.047 997.047 997.047 997.047 997.047 997.047 997.047 997.047
          997.047 997.047 997.047 997.047 997.047 997.047 997.047 997.047 997.047 997.047 997.047 997.047
          997.047 997.047 997.047 997.047 997.047 997.047 997.046 997.046 997.046 997.046 997.046 997.046
          997.046 997.046 997.046 997.046 997.046 997.046 997.046 997.046 997.046 997.046 997.046 997.046
        </DataArray>
        <DataArray type="Float32" Name="rhoN" NumberOfComponents="1" format="ascii">
          1.15427 1.15427 1.15427 1.15427 1.15427 1.15426 1.15427 1.15426 1.15426 1.15426 1.15426 1.15426
          1.15427 1.15426 1.15426 1.15426 1.15426 1.15425 1.15426 1.15426 1.15426 1.15425 1.15425 1.15425
          1.15426 1.15426 1.15425 1.15425 1.15425 1.15425 1.15426 1.15425 1.15425 1.15425 1.15424 1.15424
          1.15426 1.15425 1.15425 1.15424 1.15424 1.15424 1.15425 1.15425 1.15424 1.15424 1.15424 1.15424
          1.15426 1.15425 1.15423 1.15424 1.15423 1.15423 1.15426 1.15425 1.15423 1.15424 1.15423 1.15423
          1.15425 1.15426 1.15421 1.15424 1.15422 1.15423 1.15425 1.16361 1.1626 1.16191 1.16105 1.15424
        </DataArray>
        <DataArray type="Float32" Name="mobW" NumberOfComponents="1" format="ascii">
          1122.22 1122.22 1108.53 1108.57 1122.22 1108.63 1122.22 1108.69 1122.22 1108.73 1122.22 1108.74
          741.462 741.689 742.14 742.522 742.772 742.859 291.851 292.057 292.485 292.85 293.086 293.168
          67.7573 67.8283 67.9822 68.1065 68.1889 68.2203 13.5272 13.5415 13.5791 13.6061 13.628 13.6394
          2.98352 2.98179 2.98959 2.99467 3.00336 3.01165 0.776682 0.768664 0.768655 0.769252 0.775196 0.784792
          0.233469 0.221103 0.219027 0.21871 0.223626 0.235954 0.0766549 0.060623 0.0587646 0.0583145 0.0618703 0.0771619
          0.0274593 0.00947678 0.00903488 0.00870247 0.0100944 0.0268718 0.0400448 0 0 0 0 0.0363157
        </DataArray>
        <DataArray type="Float32" Name="mobN" NumberOfComponents="1" format="ascii">
          0.946785 0.946047 11.766 11.7379 0.944568 11.6821 0.9433 11.635 0.942478 11.6045 0.942195 11.594
          702.483 701.372 699.173 697.314 696.098 695.676 7225.8 7219.15 7205.4 7193.72 7186.17 7183.52
          22093.1 22082.8 22060.5 22042.4 22030.5 22026 35587.8 35580.6 35561.8 35548.4 35537.5 35531.8
          43731.4 43733.8 43722.9 43715.9 43703.9 43692.4 48309.5 48341 48341.1 48338.7 48315.4 48277.9
          51378.1 51485.1 51503.3 51506.1 51463 51356.9 53069.2 53311.3 53341.1 53348.3 53291.6 53061.9
          53918.2 54379 54393.2 54404.1 54359.6 53931 53665.2 54828.6 54828.6 54828.6 54828.6 53736.4
        </DataArray>
        <DataArray type="Float32" Name="X_liquid^H2O" NumberOfComponents="1" format="ascii">
          0.999978 0.999978 0.999978 0.999978 0.999978 0.999978 0.999978 0.999978 0.999978 0.999978 0.999978 0.999978
          0.999978 0.999978 0.999978 0.999978 0.999978 0.999978 0.999978 0.999978 0.999978 0.999978 0.999978 0.999978
          0.999978 0.999978 0.999978 0.999978 0.999978 0.999978 0.999978 0.999978 0.999978 0.999978 0.999978 0.999978
          0.999978 0.999978 0.999978 0.999978 0.999978 0.999978 0.999978 0.999978 0.999978 0.999978 0.999978 0.999978
          0.999978 0.999978 0.999978 0.999978 0.999978 0.999978 0.999978 0.999978 0.999978 0.999978 0.999978 0.999978
          0.999978 0.999978 0.999978 0.999978 0.999978 0.999978 0.999978 0.332861 0.398288 0.452986 0.510935 0.999978
        </DataArray>
        <DataArray type="Float32" Name="X_liquid^Air" NumberOfComponents="1" format="ascii">
          2.15475e-05 2.15475e-05 2.15475e-05 2.15474e-05 2.15474e-05 2.15474e-05 2.15474e-05 2.15473e-05 2.15474e-05 2.15473e-05 2.15473e-05 2.15473e-05
          2.15474e-05 2.15473e-05 2.15473e-05 2.15472e-05 2.15472e-05 2.15472e-05 2.15473e-05 2.15473e-05 2.15472e-05 2.15471e-05 2.15471e-05 2.15471e-05
          2.15473e-05 2.15472e-05 2.15471e-05 2.15471e-05 2.1547e-05 2.1547e-05 2.15472e-05 2.15472e-05 2.15471e-05 2.1547e-05 2.1547e-05 2.1547e-05
          2.15472e-05 2.15471e-05 2.1547e-05 2.15469e-05 2.15469e-05 2.15469e-05 2.15472e-05 2.15471e-05 2.15469e-05 2.15469e-05 2.15468e-05 2.15468e-05
          2.15472e-05 2.15471e-05 2.15468e-05 2.15469e-05 2.15468e-05 2.15468e-05 2.15472e-05 2.15472e-05 2.15466e-05 2.15469e-05 2.15467e-05 2.15467e-05
          2.15472e-05 2.15473e-05 2.15463e-05 2.1547e-05 2.15465e-05 2.15468e-05 2.15471e-05 2.20178e-05 2.197e-05 2.19328e-05 2.18911e-05 2.15469e-05
        </DataArray>
        <DataArray type="Float32" Name="X_gas^H2O" NumberOfComponents="1" format="ascii">
          0.0199563 0.0199563 0.0199563 0.0199564 0.0199563 0.0199564 0.0199564 0.0199565 0.0199564 0.0199565 0.0199564 0.0199565
          0.0199564 0.0199564 0.0199565 0.0199565 0.0199566 0.0199566 0.0199565 0.0199565 0.0199566 0.0199566 0.0199567 0.0199567
          0.0199565 0.0199566 0.0199566 0.0199567 0.0199567 0.0199567 0.0199566 0.0199566 0.0199567 0.0199567 0.0199568 0.0199568
          0.0199566 0.0199566 0.0199568 0.0199568 0.0199568 0.0199568 0.0199566 0.0199567 0.0199568 0.0199568 0.0199569 0.0199569
          0.0199566 0.0199566 0.0199569 0.0199569 0.019957 0.019957 0.0199566 0.0199566 0.0199571 0.0199569 0.019957 0.019957
          0.0199566 0.0199565 0.0199574 0.0199568 0.0199572 0.019957 0.0199567 0.0065896 0.00789164 0.00898076 0.0101371 0.0199569
        </DataArray>
        <DataArray type="Float32" Name="X_gas^Air" NumberOfComponents="1" format="ascii">
          0.980044 0.980044 0.980044 0.980044 0.980044 0.980044 0.980044 0.980044 0.980044 0.980043 0.980044 0.980043
          0.980044 0.980044 0.980044 0.980043 0.980043 0.980043 0.980044 0.980044 0.980043 0.980043 0.980043 0.980043
          0.980043 0.980043 0.980043 0.980043 0.980043 0.980043 0.980043 0.980043 0.980043 0.980043 0.980043 0.980043
          0.980043 0.980043 0.980043 0.980043 0.980043 0.980043 0.980043 0.980043 0.980043 0.980043 0.980043 0.980043
          0.980043 0.980043 0.980043 0.980043 0.980043 0.980043 0.980043 0.980043 0.980043 0.980043 0.980043 0.980043
          0.980043 0.980044 0.980043 0.980043 0.980043 0.980043 0.980043 0.99341 0.992108 0.991019 0.989863 0.980043
        </DataArray>
        <DataArray type="Float32" Name="x_liquid^H2O" NumberOfComponents="1" format="ascii">
          0.999987 0.999987 0.999987 0.999987 0.999987 0.999987 0.999987 0.999987 0.999987 0.999987 0.999987 0.999987
          0.999987 0.999987 0.999987 0.999987 0.999987 0.999987 0.999987 0.999987 0.999987 0.999987 0.999987 0.999987
          0.999987 0.999987 0.999987 0.999987 0.999987 0.999987 0.999987 0.999987 0.999987 0.999987 0.999987 0.999987
          0.999987 0.999987 0.999987 0.999987 0.999987 0.999987 0.999987 0.999987 0.999987 0.999987 0.999987 0.999987
          0.999987 0.999987 0.999987 0.999987 0.999987 0.999987 0.999987 0.999987 0.999987 0.999987 0.999987 0.999987
          0.999987 0.999987 0.999987 0.999987 0.999987 0.999987 0.999987 0.332869 0.398296 0.452995 0.510943 0.999987
        </DataArray>
        <DataArray type="Float32" Name="x_liquid^Air" NumberOfComponents="1" format="ascii">
          1.34042e-05 1.34042e-05 1.34042e-05 1.34041e-05 1.34042e-05 1.34041e-05 1.34041e-05 1.34041e-05 1.34041e-05 1.3404e-05 1.34041e-05 1.3404e-05
          1.34041e-05 1.34041e-05 1.34041e-05 1.3404e-05 1.3404e-05 1.3404e-05 1.34041e-05 1.3404e-05 1.3404e-05 1.3404e-05 1.34039e-05 1.34039e-05
          1.3404e-05 1.3404e-05 1.3404e-05 1.34039e-05 1.34039e-05 1.34039e-05 1.3404e-05 1.3404e-05 1.34039e-05 1.34039e-05 1.34039e-05 1.34038e-05
          1.3404e-05 1.3404e-05 1.34039e-05 1.34038e-05 1.34038e-05 1.34038e-05 1.3404e-05 1.34039e-05 1.34038e-05 1.34038e-05 1.34038e-05 1.34038e-05
          1.3404e-05 1.34039e-05 1.34037e-05 1.34038e-05 1.34037e-05 1.34037e-05 1.3404e-05 1.3404e-05 1.34036e-05 1.34038e-05 1.34037e-05 1.34037e-05
          1.3404e-05 1.34041e-05 1.34035e-05 1.34039e-05 1.34036e-05 1.34037e-05 1.34039e-05 1.3697e-05 1.36672e-05 1.3644e-05 1.3618e-05 1.34038e-05
        </DataArray>
        <DataArray type="Float32" Name="x_gas^H2O" NumberOfComponents="1" format="ascii">
          0.0316961 0.0316961 0.0316962 0.0316962 0.0316962 0.0316963 0.0316963 0.0316964 0.0316963 0.0316964 0.0316963 0.0316965
          0.0316963 0.0316963 0.0316964 0.0316965 0.0316966 0.0316966 0.0316964 0.0316964 0.0316965 0.0316966 0.0316967 0.0316967
          0.0316965 0.0316965 0.0316966 0.0316967 0.0316968 0.0316968 0.0316965 0.0316966 0.0316967 0.0316968 0.0316969 0.0316969
          0.0316966 0.0316967 0.0316968 0.0316969 0.031697 0.031697 0.0316966 0.0316967 0.031697 0.031697 0.0316971 0.0316971
          0.0316966 0.0316967 0.0316971 0.031697 0.0316972 0.0316971 0.0316965 0.0316966 0.0316974 0.031697 0.0316973 0.0316972
          0.0316966 0.0316964 0.0316978 0.0316969 0.0316975 0.0316972 0.0316967 0.0105508 0.0126255 0.0143585 0.016196 0.031697
        </DataArray>
        <DataArray type="Float32" Name="x_gas^Air" NumberOfComponents="1" format="ascii">
          0.968304 0.968304 0.968304 0.968304 0.968304 0.968304 0.968304 0.968304 0.968304 0.968304 0.968304 0.968304
          0.968304 0.968304 0.968304 0.968304 0.968303 0.968303 0.968304 0.968304 0.968303 0.968303 0.968303 0.968303
          0.968304 0.968304 0.968303 0.968303 0.968303 0.968303 0.968303 0.968303 0.968303 0.968303 0.968303 0.968303
          0.968303 0.968303 0.968303 0.968303 0.968303 0.968303 0.968303 0.968303 0.968303 0.968303 0.968303 0.968303
          0.968303 0.968303 0.968303 0.968303 0.968303 0.968303 0.968303 0.968303 0.968303 0.968303 0.968303 0.968303
          0.968303 0.968304 0.968302 0.968303 0.968302 0.968303 0.968303 0.989449 0.987374 0.985641 0.983804 0.968303
        </DataArray>
        <DataArray type="Float32" Name="porosity" NumberOfComponents="1" format="ascii">
          0.41 0.41 0.41 0.41 0.41 0.41 0.41 0.41 0.41 0.41 0.41 0.41
          0.41 0.41 0.41 0.41 0.41 0.41 0.41 0.41 0.41 0.41 0.41 0.41
          0.41 0.41 0.41 0.41 0.41 0.41 0.41 0.41 0.41 0.41 0.41 0.41
          0.41 0.41 0.41 0.41 0.41 0.41 0.41 0.41 0.41 0.41 0.41 0.41
          0.41 0.41 0.41 0.41 0.41 0.41 0.41 0.41 0.41 0.41 0.41 0.41
          0.41 0.41 0.41 0.41 0.41 0.41 0.41 0.41 0.41 0.41 0.41 0.41
        </DataArray>
        <DataArray type="Float32" Name="temperature" NumberOfComponents="1" format="ascii">
          298.15 298.15 298.15 298.15 298.15 298.15 298.15 298.15 298.15 298.15 298.15 298.15
          298.15 298.15 298.15 298.15 298.15 298.15 298.15 298.15 298.15 298.15 298.15 298.15
          298.15 298.15 298.15 298.15 298.15 298.15 298.15 298.15 298.15 298.15 298.15 298.15
          298.15 298.15 298.15 298.15 298.15 298.15 298.15 298.15 298.15 298.15 298.15 298.15
          298.15 298.15 298.15 298.15 298.15 298.15 298.15 298.15 298.15 298.15 298.15 298.15
          298.15 298.15 298.15 298.15 298.15 298.15 298.15 298.15 298.15 298.15 298.15 298.15
        </DataArray>
        <DataArray type="Float32" Name="phase presence" NumberOfComponents="1" format="ascii">
          3 3 3 3 3 3 3 3 3 3 3 3
          3 3 3 3 3 3 3 3 3 3 3 3
          3 3 3 3 3 3 3 3 3 3 3 3
          3 3 3 3 3 3 3 3 3 3 3 3
          3 3 3 3 3 3 3 3 3 3 3 3
          3 3 3 3 3 3 3 2 2 2 2 3
        </DataArray>
        <DataArray type="Float32" Name="velocityW" NumberOfComponents="3" format="ascii">
          3.2273e-09 -1.94016e-09 0 4.28843e-09 -4.24216e-10 0 4.67443e-09 -1.92945e-09 0 6.07395e-09 1.74923e-09 0
          2.78912e-09 2.11022e-09 0 3.85299e-09 7.61017e-09 0 -2.36187e-09 2.13123e-09 0 -3.39948e-09 7.63484e-09 0
          -4.01378e-09 -3.38662e-10 0 -5.7594e-09 1.90805e-09 0 -3.07513e-09 -1.83386e-09 0 -4.48734e-09 -1.71442e-09 0
          7.20256e-09 7.7781e-09 0 8.62578e-09 1.70822e-08 0 5.09806e-09 3.00969e-08 0 -4.76242e-09 3.00913e-08 0
          -8.30396e-09 1.73224e-08 0 -6.93598e-09 8.23001e-09 0 7.60517e-09 3.7309e-08 0 8.42242e-09 5.37674e-08 0
          4.62396e-09 7.35821e-08 0 -4.51532e-09 7.3494e-08 0 -8.20821e-09 5.40137e-08 0 -7.37755e-09 3.80211e-08 0
          6.55714e-09 7.3463e-08 0 6.43188e-09 9.69059e-08 0 3.11601e-09 1.2123e-07 0 -3.16169e-09 1.21054e-07 0
          -6.30993e-09 9.71558e-08 0 -6.37108e-09 7.44467e-08 0 6.62875e-09 9.81129e-08 0 5.74539e-09 1.28204e-07 0
          2.3775e-09 1.54801e-07 0 -2.48831e-09 1.54551e-07 0 -5.65204e-09 1.28445e-07 0 -6.43449e-09 9.93634e-08 0
          8.00236e-09 1.09222e-07 0 6.22937e-09 1.46634e-07 0 2.1672e-09 1.74194e-07 0 -2.32048e-09 1.73875e-07 0
          -6.13764e-09 1.46819e-07 0 -7.75631e-09 1.10725e-07 0 1.0553e-08 1.1139e-07 0 7.4164e-09 1.57819e-07 0
          2.08387e-09 1.85267e-07 0 -2.27776e-09 1.84905e-07 0 -7.32256e-09 1.57876e-07 0 -1.02017e-08 1.13164e-07 0
          1.463e-08 1.0773e-07 0 9.21775e-09 1.65921e-07 0 1.88449e-09 1.91861e-07 0 -2.11606e-09 1.91543e-07 0
          -9.12421e-09 1.65737e-07 0 -1.40528e-08 1.09853e-07 0 2.21737e-08 9.89955e-08 0 1.23369e-08 1.73604e-07 0
          1.34513e-09 1.95714e-07 0 -1.60486e-09 1.95647e-07 0 -1.2161e-08 1.72935e-07 0 -2.09222e-08 1.01714e-07 0
          4.83308e-08 7.95314e-08 0 2.44641e-08 1.74303e-07 0 3.53416e-10 1.93716e-07 0 -4.75314e-10 1.89875e-07 0
          -2.33049e-08 1.80446e-07 0 -4.55498e-08 8.37206e-08 0 2.43735e-07 6.57516e-08 0 1.21867e-07 1.70981e-07 0
          0 1.90356e-07 0 0 1.82543e-07 0 -1.09313e-07 1.84266e-07 0 -2.18626e-07 7.10208e-08 0
        </DataArray>
        <DataArray type="Float32" Name="velocityN" NumberOfComponents="3" format="ascii">
          7.41006e-10 -8.36974e-10 0 1.11141e-09 -5.77603e-10 0 9.36707e-09 -1.01993e-08 0 1.39667e-08 -6.75418e-09 0
          1.37235e-09 -2.41717e-10 0 1.71011e-08 -2.36283e-09 0 1.03868e-09 -1.61369e-10 0 1.28489e-08 -1.39442e-09 0
          5.46634e-10 -1.30776e-10 0 6.74847e-09 -1.00946e-09 0 2.78788e-10 -1.23101e-10 0 3.43516e-09 -9.19343e-10 0
          5.67229e-07 -3.77979e-07 0 8.46375e-07 -1.96365e-07 0 1.03461e-06 3.66752e-08 0 7.74856e-07 8.5841e-08 0
          4.06346e-07 1.05346e-07 0 2.06681e-07 1.09793e-07 0 6.05449e-06 -4.10021e-06 0 9.21446e-06 -2.14588e-06 0
          1.13056e-05 6.41817e-07 0 8.32642e-06 1.20382e-06 0 4.29363e-06 1.35995e-06 0 2.17124e-06 1.39578e-06 0
          2.06466e-05 -1.7827e-05 0 3.17689e-05 -9.50226e-06 0 3.77272e-05 3.75868e-06 0 2.63109e-05 5.35139e-06 0
          1.34031e-05 5.82697e-06 0 6.74777e-06 5.93697e-06 0 4.02978e-05 -4.6539e-05 0 6.25964e-05 -2.52433e-05 0
          6.81829e-05 1.38551e-05 0 4.24169e-05 1.26055e-05 0 2.2104e-05 1.42665e-05 0 1.08447e-05 1.42423e-05 0
          6.25422e-05 -9.07664e-05 0 0.000101912 -5.16397e-05 0 9.64723e-05 3.98001e-05 0 4.86456e-05 1.80627e-05 0
          2.88103e-05 2.63268e-05 0 1.19927e-05 2.41649e-05 0 8.34316e-05 -0.000148066 0 0.000158309 -9.59071e-05 0
          0.000124383 9.88378e-05 0 4.19384e-05 9.66252e-06 0 3.70832e-05 4.49322e-05 0 5.87006e-06 3.14229e-05 0
          8.64448e-05 -0.000209223 0 0.000244982 -0.000177792 0 0.000153991 0.000224231 0 1.64699e-05 -3.79285e-05 0
          5.35065e-05 8.20148e-05 0 -2.1465e-05 2.65322e-05 0 2.51891e-05 -0.000247271 0 0.000373582 -0.000339222 0
          0.000182279 0.000475718 0 -3.91417e-05 -0.000173881 0 8.72911e-05 0.00016656 0 -0.000104551 -1.27268e-05 0
          -0.000193898 -0.000200914 0 0.00056059 -0.000646259 0 0.000206613 0.000957252 0 -0.00014027 -0.000476531 0
          0.000153331 0.000359297 0 -0.000314649 -0.000132227 0 -0.000535197 -0.000146244 0 0.000747095 -0.000845729 0
          0.000219979 0.00127206 0 -0.000254782 -0.000681098 0 0.000235201 0.000492906 0 -0.000609466 -0.000219634 0
        </DataArray>
      </PointData>
      <CellData Scalars="process rank">
        <DataArray type="Float32" Name="process rank" NumberOfComponents="1" format="ascii">
          0 0 0 0 0 0 0 0 0 0 0 0
          0 0 0 0 0 0 0 0 0 0 0 0
          0 0 0 0 0 0 0 0 0 0 0 0
          0 0 0 0 0 0 0 0 0 0 0 0
          0 0 0 0 0 0 0
        </DataArray>
      </CellData>
      <Points>
        <DataArray type="Float32" Name="Coordinates" NumberOfComponents="3" format="ascii">
          0.25 0 0 0.3 0 0 0.25 0.0349916 0 0.3 0.0349916 0
          0.35 0 0 0.35 0.0349916 0 0.4 0 0 0.4 0.0349916 0
          0.45 0 0 0.45 0.0349916 0 0.5 0 0 0.5 0.0349916 0
          0.25 0.0668022 0 0.3 0.0668022 0 0.35 0.0668022 0 0.4 0.0668022 0
          0.45 0.0668022 0 0.5 0.0668022 0 0.25 0.0957209 0 0.3 0.0957209 0
          0.35 0.0957209 0 0.4 0.0957209 0 0.45 0.0957209 0 0.5 0.0957209 0
          0.25 0.122011 0 0.3 0.122011 0 0.35 0.122011 0 0.4 0.122011 0
          0.45 0.122011 0 0.5 0.122011 0 0.25 0.14591 0 0.3 0.14591 0
          0.35 0.14591 0 0.4 0.14591 0 0.45 0.14591 0 0.5 0.14591 0
          0.25 0.167637 0 0.3 0.167637 0 0.35 0.167637 0 0.4 0.167637 0
          0.45 0.167637 0 0.5 0.167637 0 0.25 0.187389 0 0.3 0.187389 0
          0.35 0.187389 0 0.4 0.187389 0 0.45 0.187389 0 0.5 0.187389 0
          0.25 0.205345 0 0.3 0.205345 0 0.35 0.205345 0 0.4 0.205345 0
          0.45 0.205345 0 0.5 0.205345 0 0.25 0.221669 0 0.3 0.221669 0
          0.35 0.221669 0 0.4 0.221669 0 0.45 0.221669 0 0.5 0.221669 0
          0.25 0.236509 0 0.3 0.236509 0 0.35 0.236509 0 0.4 0.236509 0
          0.45 0.236509 0 0.5 0.236509 0 0.25 0.25 0 0.3 0.25 0
          0.35 0.25 0 0.4 0.25 0 0.45 0.25 0 0.5 0.25 0
        </DataArray>
      </Points>
      <Cells>
        <DataArray type="Int32" Name="connectivity" NumberOfComponents="1" format="ascii">
          0 1 3 2 1 4 5 3 4 6 7 5
          6 8 9 7 8 10 11 9 2 3 13 12
          3 5 14 13 5 7 15 14 7 9 16 15
          9 11 17 16 12 13 19 18 13 14 20 19
          14 15 21 20 15 16 22 21 16 17 23 22
          18 19 25 24 19 20 26 25 20 21 27 26
          21 22 28 27 22 23 29 28 24 25 31 30
          25 26 32 31 26 27 33 32 27 28 34 33
          28 29 35 34 30 31 37 36 31 32 38 37
          32 33 39 38 33 34 40 39 34 35 41 40
          36 37 43 42 37 38 44 43 38 39 45 44
          39 40 46 45 40 41 47 46 42 43 49 48
          43 44 50 49 44 45 51 50 45 46 52 51
          46 47 53 52 48 49 55 54 49 50 56 55
          50 51 57 56 51 52 58 57 52 53 59 58
          54 55 61 60 55 56 62 61 56 57 63 62
          57 58 64 63 58 59 65 64 60 61 67 66
          61 62 68 67 62 63 69 68 63 64 70 69
          64 65 71 70
        </DataArray>
        <DataArray type="Int32" Name="offsets" NumberOfComponents="1" format="ascii">
          4 8 12 16 20 24 28 32 36 40 44 48
          52 56 60 64 68 72 76 80 84 88 92 96
          100 104 108 112 116 120 124 128 132 136 140 144
          148 152 156 160 164 168 172 176 180 184 188 192
          196 200 204 208 212 216 220
        </DataArray>
        <DataArray type="UInt8" Name="types" NumberOfComponents="1" format="ascii">
          9 9 9 9 9 9 9 9 9 9 9 9
          9 9 9 9 9 9 9 9 9 9 9 9
          9 9 9 9 9 9 9 9 9 9 9 9
          9 9 9 9 9 9 9 9 9 9 9 9
          9 9 9 9 9 9 9
        </DataArray>
      </Cells>
    </Piece>
  </UnstructuredGrid>
</VTKFile>
