<?xml version="1.0"?>
<VTKFile type="UnstructuredGrid" version="0.1" byte_order="LittleEndian">
  <UnstructuredGrid>
    <Piece NumberOfCells="140" NumberOfPoints="165">
      <PointData Scalars="P" Vectors="v">
        <DataArray type="Float32" Name="P" NumberOfComponents="1" format="ascii">
          100012 99986.8 100012 99986.8 100011 100011 99988.9 99988.9 100008 100008 99991.6 99991.3
          100004 100006 99995.1 99993.8 100002 100003 99997.2 99996.5 100000 100000 100016 99985.5
          100012 99988.6 100008 99991.4 100004 99994.7 100002 99997 100000 100016 99985.5 100012
          99988.4 100009 99991.1 100006 99993.6 100003 99996.3 100000 100015 99985.2 100012 99988.3
          100009 99991.1 100005 99994.2 100003 99996.7 100000 100015 99985.2 100012 99988.1 100009
          99990.9 100006 99993.4 100003 99996.1 100000 100015 99985.1 100012 99988.1 100009 99990.9
          100006 99993.8 100003 99996.4 100000 100015 99985.1 100012 99988 100009 99990.7 100006
          99993.4 100003 99996 100000 100015 99985 100012 99987.9 100009 99990.8 100006 99993.6
          100003 99996.2 100000 100015 99985.1 100012 99988 100009 99990.7 100006 99993.4 100003
          99996 100000 100015 99985 100012 99987.9 100009 99990.7 100006 99993.5 100003 99996.1
          100000 100015 99985.3 100012 99988.2 100009 99990.9 100006 99993.5 100003 99996.1 100000
          100016 99985.1 100012 99988.2 100009 99991 100006 99993.6 100003 99996.2 100000 100012
          99987.2 100010 99989.2 100008 99991.5 100005 99993.9 100003 99996.3 100000 100012 99987.2
          100010 99989.2 100008 99991.5 100005 99993.9 100003 99996.3 100000
        </DataArray>
        <DataArray type="Float32" Name="delP" NumberOfComponents="1" format="ascii">
          12.0347 -13.1681 12.041 -13.1618 10.9075 10.91 -11.1115 -11.1168 8.28989 8.34596 -8.38106 -8.6839
          3.90335 5.71943 -4.88746 -6.24973 1.97495 2.86754 -2.74861 -3.52356 0 0 16.4661 -14.4651
          11.5315 -11.3918 8.36108 -8.55911 4.48356 -5.32451 2.2906 -2.96107 0 15.699 -14.5038 11.7153
          -11.5947 8.6406 -8.92744 5.94869 -6.4492 3.00729 -3.74256 0 15.4004 -14.7474 11.8727 -11.7295
          8.58554 -8.85253 5.11936 -5.84364 2.57279 -3.34296 0 15.2731 -14.7625 11.9469 -11.8695 8.86983
          -9.13735 6.07477 -6.5836 3.06056 -3.9096 0 15.0739 -14.8986 11.9556 -11.9357 8.76521 -9.08447
          5.52997 -6.20709 2.76316 -3.62194 0 15.0816 -14.863 11.9874 -12.0007 8.97331 -9.25711 6.09749
          -6.6451 3.06929 -3.99105 0 14.9449 -14.9736 11.9738 -12.0533 8.87396 -9.22995 5.76383 -6.43072
          2.88012 -3.79994 0 15.0637 -14.8718 11.9554 -12.0124 8.95407 -9.26884 6.03148 -6.62839 3.0312
          -3.9914 0 14.9506 -14.9992 12.0021 -12.0781 8.89744 -9.26066 5.84167 -6.51083 2.91647 -3.87267
          0 15.2253 -14.7091 11.8011 -11.8275 8.75307 -9.10741 5.83832 -6.49057 2.92189 -3.89972 0
          15.9598 -14.9404 11.9089 -11.8385 8.66536 -9.03781 5.68708 -6.38456 2.8317 -3.82191 0 12.2525
          -12.8222 10.3092 -10.7839 7.92822 -8.50985 5.35183 -6.13156 2.67816 -3.69107 0 12.2467 -12.828
          10.3084 -10.7882 7.9266 -8.5134 5.34937 -6.13489 2.6755 -3.6944 0
        </DataArray>
        <DataArray type="Float32" Name="x_gas^H2O" NumberOfComponents="1" format="ascii">
          0.0127981 0.0105815 0.0141424 0.0138692 0.0100031 0.0136809 0.00905497 0.0134446 0.00801911 0.0131867 0.00761828 0.0129491
          0.0105496 0.012892 0.0126277 0.0128595 0.014364 0.0128546 0.0162049 0.0129891 0.031697 0.0147984 0.012153 0.0123116
          0.0123839 0.0124484 0.0124828 0.0124985 0.0124945 0.0124975 0.0125008 0.0125369 0.0132923 0.012049 0.0120795 0.0121067
          0.0121399 0.0121687 0.0121968 0.0122147 0.0122342 0.0122515 0.0122849 0.0128601 0.0120977 0.0120993 0.0121033 0.0121099
          0.0121179 0.0121276 0.0121364 0.0121466 0.0121572 0.0121831 0.0126615 0.0121367 0.0121355 0.0121348 0.0121346 0.0121351
          0.0121365 0.0121384 0.012141 0.0121447 0.0121648 0.0126625 0.0121626 0.0121612 0.0121599 0.0121587 0.0121577 0.0121569
          0.0121564 0.0121561 0.012157 0.0121781 0.0126797 0.0121758 0.012175 0.0121742 0.0121733 0.0121723 0.0121714 0.0121705
          0.0121697 0.0121702 0.0121952 0.012714 0.0121837 0.0121824 0.0121813 0.0121802 0.0121792 0.0121782 0.0121773 0.0121766
          0.0121777 0.012208 0.0127274 0.0121795 0.0121791 0.0121785 0.012178 0.0121774 0.012177 0.0121767 0.0121768 0.0121791
          0.0122145 0.0127381 0.0121736 0.0121716 0.0121705 0.0121702 0.0121706 0.0121717 0.0121734 0.0121758 0.0121804 0.0122154
          0.0127343 0.0121289 0.0121367 0.0121452 0.012156 0.0121667 0.0121789 0.0121907 0.0122035 0.0122171 0.012255 0.0127662
          0.0121616 0.012235 0.0122809 0.0123325 0.0123701 0.0124094 0.0124401 0.0124705 0.0124961 0.0125392 0.0130703 0.0141558
          0.0140831 0.014025 0.0139574 0.0138988 0.0138329 0.0137723 0.0137067 0.0136449 0.0135969 0.0142901 0.0127981 0.0121525
          0.0119494 0.0115477 0.0113195 0.0109879 0.0107249 0.0104265 0.0101626 0.00990668 0.0127981
        </DataArray>
        <DataArray type="Float32" Name="X_gas^H2O" NumberOfComponents="1" format="ascii">
          0.008 0.00660888 0.00884488 0.00867308 0.00624627 0.00855473 0.00565218 0.00840623 0.00500362 0.00824414 0.00475279 0.0080949
          0.00658885 0.00805901 0.00789298 0.0080386 0.00898419 0.00803553 0.0101427 0.00812002 0.0199569 0.00925745 0.00759494 0.00769446
          0.0077399 0.00778039 0.00780197 0.00781186 0.00780935 0.00781122 0.00781327 0.00783598 0.0083105 0.00752965 0.00754874 0.00756584
          0.00758669 0.00760478 0.00762244 0.00763366 0.0076459 0.00765673 0.00767773 0.00803894 0.00756018 0.00756123 0.0075637 0.00756786
          0.00757285 0.00757899 0.00758447 0.00759092 0.00759755 0.00761384 0.0079142 0.00758469 0.00758392 0.00758348 0.00758333 0.00758369
          0.00758453 0.00758572 0.00758737 0.00758968 0.00760232 0.00791485 0.00760091 0.00760005 0.00759927 0.00759847 0.00759786 0.00759733
          0.00759704 0.00759689 0.00759745 0.00761069 0.00792564 0.00760921 0.00760875 0.00760824 0.00760764 0.00760705 0.00760644 0.00760589
          0.00760539 0.00760574 0.00762139 0.00794721 0.0076142 0.00761338 0.00761267 0.00761197 0.00761134 0.00761073 0.00761019 0.00760973
          0.00761043 0.00762943 0.00795562 0.00761155 0.00761128 0.00761095 0.00761058 0.00761026 0.00760998 0.00760982 0.00760984 0.00761128
          0.00763353 0.00796236 0.00760784 0.0076066 0.00760593 0.0076057 0.00760596 0.00760666 0.00760771 0.00760923 0.00761212 0.00763407
          0.00795993 0.0075798 0.00758466 0.00759002 0.0075968 0.0076035 0.00761118 0.00761858 0.00762665 0.00763514 0.00765897 0.00797998
          0.00760033 0.00764641 0.00767519 0.00770762 0.00773125 0.00775589 0.0077752 0.00779424 0.00781034 0.00783739 0.00817105 0.00885327
          0.00880755 0.00877102 0.00872857 0.00869167 0.00865029 0.0086122 0.00857097 0.00853211 0.00850193 0.0089377 0.008 0.00759458
          0.00746709 0.00721497 0.00707179 0.00686379 0.00669877 0.00651167 0.00634626 0.00618582 0.008
        </DataArray>
        <DataArray type="Float32" Name="x_gas^Air" NumberOfComponents="1" format="ascii">
          0.987202 0.989419 0.985858 0.986131 0.989997 0.986319 0.990945 0.986555 0.991981 0.986813 0.992382 0.987051
          0.98945 0.987108 0.987372 0.98714 0.985636 0.987145 0.983795 0.987011 0.968303 0.985202 0.987847 0.987688
          0.987616 0.987552 0.987517 0.987502 0.987505 0.987503 0.987499 0.987463 0.986708 0.987951 0.987921 0.987893
          0.98786 0.987831 0.987803 0.987785 0.987766 0.987749 0.987715 0.98714 0.987902 0.987901 0.987897 0.98789
          0.987882 0.987872 0.987864 0.987853 0.987843 0.987817 0.987339 0.987863 0.987864 0.987865 0.987865 0.987865
          0.987864 0.987862 0.987859 0.987855 0.987835 0.987337 0.987837 0.987839 0.98784 0.987841 0.987842 0.987843
          0.987844 0.987844 0.987843 0.987822 0.98732 0.987824 0.987825 0.987826 0.987827 0.987828 0.987829 0.98783
          0.98783 0.98783 0.987805 0.987286 0.987816 0.987818 0.987819 0.98782 0.987821 0.987822 0.987823 0.987823
          0.987822 0.987792 0.987273 0.987821 0.987821 0.987821 0.987822 0.987823 0.987823 0.987823 0.987823 0.987821
          0.987786 0.987262 0.987826 0.987828 0.987829 0.98783 0.987829 0.987828 0.987827 0.987824 0.98782 0.987785
          0.987266 0.987871 0.987863 0.987855 0.987844 0.987833 0.987821 0.987809 0.987796 0.987783 0.987745 0.987234
          0.987838 0.987765 0.987719 0.987668 0.98763 0.987591 0.98756 0.98753 0.987504 0.987461 0.98693 0.985844
          0.985917 0.985975 0.986043 0.986101 0.986167 0.986228 0.986293 0.986355 0.986403 0.98571 0.987202 0.987848
          0.988051 0.988452 0.98868 0.989012 0.989275 0.989574 0.989837 0.990093 0.987202
        </DataArray>
        <DataArray type="Float32" Name="X_gas^Air" NumberOfComponents="1" format="ascii">
          0.992 0.993391 0.991155 0.991327 0.993754 0.991445 0.994348 0.991594 0.994996 0.991756 0.995247 0.991905
          0.993411 0.991941 0.992107 0.991961 0.991016 0.991964 0.989857 0.99188 0.980043 0.990743 0.992405 0.992306
          0.99226 0.99222 0.992198 0.992188 0.992191 0.992189 0.992187 0.992164 0.99169 0.99247 0.992451 0.992434
          0.992413 0.992395 0.992378 0.992366 0.992354 0.992343 0.992322 0.991961 0.99244 0.992439 0.992436 0.992432
          0.992427 0.992421 0.992416 0.992409 0.992402 0.992386 0.992086 0.992415 0.992416 0.992417 0.992417 0.992416
          0.992415 0.992414 0.992413 0.99241 0.992398 0.992085 0.992399 0.9924 0.992401 0.992402 0.992402 0.992403
          0.992403 0.992403 0.992403 0.992389 0.992074 0.992391 0.992391 0.992392 0.992392 0.992393 0.992394 0.992394
          0.992395 0.992394 0.992379 0.992053 0.992386 0.992387 0.992387 0.992388 0.992389 0.992389 0.99239 0.99239
          0.99239 0.992371 0.992044 0.992388 0.992389 0.992389 0.992389 0.99239 0.99239 0.99239 0.99239 0.992389
          0.992366 0.992038 0.992392 0.992393 0.992394 0.992394 0.992394 0.992393 0.992392 0.992391 0.992388 0.992366
          0.99204 0.99242 0.992415 0.99241 0.992403 0.992396 0.992389 0.992381 0.992373 0.992365 0.992341 0.99202
          0.9924 0.992354 0.992325 0.992292 0.992269 0.992244 0.992225 0.992206 0.99219 0.992163 0.991829 0.991147
          0.991192 0.991229 0.991271 0.991308 0.99135 0.991388 0.991429 0.991468 0.991498 0.991062 0.992 0.992405
          0.992533 0.992785 0.992928 0.993136 0.993301 0.993488 0.993654 0.993814 0.992
        </DataArray>
        <DataArray type="Float32" Name="rho" NumberOfComponents="1" format="ascii">
          1.16272 1.16341 1.16213 1.16196 1.16394 1.16232 1.1641 1.16217 1.16479 1.16251 1.16477 1.16241
          1.16362 1.16261 1.1626 1.16248 1.16191 1.16259 1.16105 1.16246 1.15424 1.1617 1.16306 1.16263
          1.1629 1.1626 1.16282 1.16261 1.16277 1.16265 1.16274 1.16266 1.16236 1.16309 1.16273 1.16302
          1.16274 1.16296 1.16274 1.16291 1.16276 1.16286 1.16276 1.16255 1.16307 1.16272 1.16303 1.16275
          1.16298 1.16277 1.16293 1.1628 1.16289 1.16281 1.16264 1.16305 1.1627 1.16301 1.16274 1.16298
          1.16277 1.16294 1.1628 1.16291 1.16282 1.16264 1.16304 1.16269 1.163 1.16272 1.16297 1.16276
          1.16293 1.16279 1.1629 1.16281 1.16263 1.16303 1.16268 1.163 1.16272 1.16296 1.16275 1.16293
          1.16278 1.16289 1.1628 1.16262 1.16303 1.16268 1.16299 1.16271 1.16296 1.16275 1.16292 1.16278
          1.16289 1.1628 1.16261 1.16303 1.16268 1.16299 1.16272 1.16296 1.16275 1.16293 1.16278 1.16289
          1.16279 1.16261 1.16303 1.16268 1.163 1.16272 1.16296 1.16275 1.16293 1.16278 1.16289 1.16279
          1.16261 1.16305 1.1627 1.16301 1.16273 1.16296 1.16275 1.16292 1.16277 1.16287 1.16278 1.1626
          1.16305 1.16266 1.16295 1.16265 1.16287 1.16265 1.16281 1.16265 1.16275 1.16265 1.16246 1.16212
          1.16187 1.16216 1.16194 1.16219 1.16203 1.16221 1.16211 1.16224 1.16219 1.16192 1.16272 1.16272
          1.16308 1.16301 1.16333 1.16328 1.16356 1.16356 1.16378 1.16382 1.16258
        </DataArray>
        <DataArray type="Float32" Name="mu" NumberOfComponents="1" format="ascii">
          1.82387e-05 1.82387e-05 1.82387e-05 1.82387e-05 1.82387e-05 1.82387e-05 1.82387e-05 1.82387e-05 1.82387e-05 1.82387e-05 1.82387e-05 1.82387e-05
          1.82387e-05 1.82387e-05 1.82387e-05 1.82387e-05 1.82387e-05 1.82387e-05 1.82387e-05 1.82387e-05 1.82387e-05 1.82387e-05 1.82387e-05 1.82387e-05
          1.82387e-05 1.82387e-05 1.82387e-05 1.82387e-05 1.82387e-05 1.82387e-05 1.82387e-05 1.82387e-05 1.82387e-05 1.82387e-05 1.82387e-05 1.82387e-05
          1.82387e-05 1.82387e-05 1.82387e-05 1.82387e-05 1.82387e-05 1.82387e-05 1.82387e-05 1.82387e-05 1.82387e-05 1.82387e-05 1.82387e-05 1.82387e-05
          1.82387e-05 1.82387e-05 1.82387e-05 1.82387e-05 1.82387e-05 1.82387e-05 1.82387e-05 1.82387e-05 1.82387e-05 1.82387e-05 1.82387e-05 1.82387e-05
          1.82387e-05 1.82387e-05 1.82387e-05 1.82387e-05 1.82387e-05 1.82387e-05 1.82387e-05 1.82387e-05 1.82387e-05 1.82387e-05 1.82387e-05 1.82387e-05
          1.82387e-05 1.82387e-05 1.82387e-05 1.82387e-05 1.82387e-05 1.82387e-05 1.82387e-05 1.82387e-05 1.82387e-05 1.82387e-05 1.82387e-05 1.82387e-05
          1.82387e-05 1.82387e-05 1.82387e-05 1.82387e-05 1.82387e-05 1.82387e-05 1.82387e-05 1.82387e-05 1.82387e-05 1.82387e-05 1.82387e-05 1.82387e-05
          1.82387e-05 1.82387e-05 1.82387e-05 1.82387e-05 1.82387e-05 1.82387e-05 1.82387e-05 1.82387e-05 1.82387e-05 1.82387e-05 1.82387e-05 1.82387e-05
          1.82387e-05 1.82387e-05 1.82387e-05 1.82387e-05 1.82387e-05 1.82387e-05 1.82387e-05 1.82387e-05 1.82387e-05 1.82387e-05 1.82387e-05 1.82387e-05
          1.82387e-05 1.82387e-05 1.82387e-05 1.82387e-05 1.82387e-05 1.82387e-05 1.82387e-05 1.82387e-05 1.82387e-05 1.82387e-05 1.82387e-05 1.82387e-05
          1.82387e-05 1.82387e-05 1.82387e-05 1.82387e-05 1.82387e-05 1.82387e-05 1.82387e-05 1.82387e-05 1.82387e-05 1.82387e-05 1.82387e-05 1.82387e-05
          1.82387e-05 1.82387e-05 1.82387e-05 1.82387e-05 1.82387e-05 1.82387e-05 1.82387e-05 1.82387e-05 1.82387e-05 1.82387e-05 1.82387e-05 1.82387e-05
          1.82387e-05 1.82387e-05 1.82387e-05 1.82387e-05 1.82387e-05 1.82387e-05 1.82387e-05 1.82387e-05 1.82387e-05
        </DataArray>
        <DataArray type="Float32" Name="D" NumberOfComponents="1" format="ascii">
          2.49338e-05 2.494e-05 2.49338e-05 2.494e-05 2.4934e-05 2.4934e-05 2.49395e-05 2.49395e-05 2.49347e-05 2.49347e-05 2.49389e-05 2.49389e-05
          2.49358e-05 2.49353e-05 2.4938e-05 2.49383e-05 2.49363e-05 2.4936e-05 2.49374e-05 2.49376e-05 2.49368e-05 2.49368e-05 2.49327e-05 2.49404e-05
          2.49339e-05 2.49396e-05 2.49347e-05 2.49389e-05 2.49356e-05 2.49381e-05 2.49362e-05 2.49375e-05 2.49368e-05 2.49328e-05 2.49404e-05 2.49338e-05
          2.49397e-05 2.49346e-05 2.4939e-05 2.49353e-05 2.49384e-05 2.4936e-05 2.49377e-05 2.49368e-05 2.49329e-05 2.49404e-05 2.49338e-05 2.49397e-05
          2.49346e-05 2.4939e-05 2.49355e-05 2.49382e-05 2.49361e-05 2.49376e-05 2.49368e-05 2.4933e-05 2.49404e-05 2.49338e-05 2.49397e-05 2.49346e-05
          2.4939e-05 2.49352e-05 2.49384e-05 2.4936e-05 2.49377e-05 2.49368e-05 2.4933e-05 2.49405e-05 2.49338e-05 2.49397e-05 2.49346e-05 2.4939e-05
          2.49354e-05 2.49383e-05 2.49361e-05 2.49377e-05 2.49368e-05 2.4933e-05 2.49405e-05 2.49338e-05 2.49398e-05 2.49345e-05 2.49391e-05 2.49352e-05
          2.49384e-05 2.4936e-05 2.49378e-05 2.49368e-05 2.4933e-05 2.49405e-05 2.49338e-05 2.49398e-05 2.49346e-05 2.49391e-05 2.49353e-05 2.49384e-05
          2.4936e-05 2.49377e-05 2.49368e-05 2.4933e-05 2.49405e-05 2.49338e-05 2.49398e-05 2.49345e-05 2.49391e-05 2.49353e-05 2.49384e-05 2.4936e-05
          2.49378e-05 2.49368e-05 2.4933e-05 2.49405e-05 2.49338e-05 2.49398e-05 2.49345e-05 2.49391e-05 2.49353e-05 2.49384e-05 2.4936e-05 2.49377e-05
          2.49368e-05 2.4933e-05 2.49404e-05 2.49338e-05 2.49397e-05 2.49346e-05 2.4939e-05 2.49353e-05 2.49384e-05 2.4936e-05 2.49377e-05 2.49368e-05
          2.49328e-05 2.49405e-05 2.49338e-05 2.49397e-05 2.49346e-05 2.4939e-05 2.49353e-05 2.49384e-05 2.49361e-05 2.49377e-05 2.49368e-05 2.49337e-05
          2.494e-05 2.49342e-05 2.49395e-05 2.49348e-05 2.49389e-05 2.49354e-05 2.49383e-05 2.49361e-05 2.49377e-05 2.49368e-05 2.49337e-05 2.494e-05
          2.49342e-05 2.49395e-05 2.49348e-05 2.49389e-05 2.49354e-05 2.49383e-05 2.49361e-05 2.49377e-05 2.49368e-05
        </DataArray>
        <DataArray type="Float32" Name="v" NumberOfComponents="3" format="ascii">
          0 0 0 0 0 0 3.5 0 0 3.53399 0.118697 0
          0 0 0 3.13508 0.0153281 0 0 0 0 3.38602 0.0611334 0
          0 0 0 2.89046 0.0591144 0 0 0 0 3.1858 0.0762066 0
          -0.103922 -0.00189099 0 2.66301 -0.068726 0 0.348304 0.00320492 0 2.98562 0.0277303 0
          -0.110307 -0.00199695 0 2.47897 -0.00767896 0 0.377068 0.00173011 0 2.78903 0.0520322 0
          -0.435416 -0.00111021 0 2.19731 0.153704 0 3.5 0 0 3.97491 0.12572 0
          3.62701 0.0212339 0 3.95618 0.0822258 0 3.60914 0.0463757 0 3.97661 0.0783496 0
          3.59637 0.0382628 0 3.83334 0.0638935 0 3.49376 0.0525097 0 3.70972 0.0936313 0
          3.39894 0.181901 0 3.5 0 0 3.96542 0.0789168 0 3.63179 0.0340447 0
          3.98279 0.0796306 0 3.675 0.0570675 0 4.00273 0.0847072 0 3.70329 -0.00473291 0
          4.00748 0.0636175 0 3.7026 0.0421576 0 3.99501 0.104216 0 3.73678 0.122935 0
          3.5 0 0 3.91354 0.0514427 0 3.57191 0.0270128 0 3.94295 0.0615995 0
          3.62263 0.0368615 0 3.99409 0.063133 0 3.67081 0.0496537 0 3.97072 0.0668761 0
          3.68734 0.065215 0 3.98516 0.0924547 0 3.73897 0.10163 0 3.5 0 0
          3.88706 0.0308101 0 3.55018 0.0271234 0 3.9101 0.0528721 0 3.59395 0.0362024 0
          3.9304 0.0571904 0 3.63018 0.00981174 0 3.9618 0.0510264 0 3.66517 0.0390523 0
          3.99622 0.077579 0 3.71943 0.0884761 0 3.5 0 0 3.86648 0.0183118 0
          3.52484 0.0181564 0 3.89058 0.0339163 0 3.56565 0.0252708 0 3.92559 0.0396656 0
          3.60576 0.0402685 0 3.92912 0.0482652 0 3.63423 0.0501291 0 3.95611 0.0618217 0
          3.68711 0.0667403 0 3.5 0 0 3.85987 0.0123543 0 3.52424 0.0142123 0
          3.87816 0.0269244 0 3.55834 0.0185251 0 3.89856 0.0301382 0 3.59264 0.00820676 0
          3.93288 0.0297834 0 3.63246 0.0237943 0 3.97236 0.0443902 0 3.6831 0.0504127 0
          3.5 0 0 3.85114 0.00208313 0 3.51216 0.00635173 0 3.87023 0.0088722 0
          3.54549 0.0116623 0 3.89845 0.0148483 0 3.58185 0.0224281 0 3.91606 0.0225632 0
          3.61587 0.0266648 0 3.94787 0.0276552 0 3.66456 0.0290043 0 3.5 0 0
          3.8587 0.00212969 0 3.52376 -3.95748e-05 0 3.87543 0.00166976 0 3.55573 0.000151348 0
          3.89739 0.00164487 0 3.59041 -0.00461791 0 3.93067 0.00196797 0 3.6307 0.0009375 0
          3.96991 0.00808266 0 3.67744 0.00981772 0 3.5 0 0 3.85371 -0.0162253 0
          3.51555 -0.00675509 0 3.87374 -0.0192086 0 3.55119 -0.00524301 0 3.89914 -0.0147031 0
          3.58797 -0.000899845 0 3.92297 -0.00949684 0 3.62437 -0.0027812 0 3.95603 -0.00995543 0
          3.66857 -0.0119798 0 3.5 0 0 3.89969 -0.0197883 0 3.56512 -0.0159439 0
          3.91811 -0.0326973 0 3.60589 -0.0190902 0 3.93994 -0.0331737 0 3.64188 -0.0247712 0
          3.96964 -0.0324073 0 3.67897 -0.0276772 0 4.00368 -0.0310087 0 3.71823 -0.0331474 0
          3.5 0 0 3.91982 -0.0927482 0 3.58556 -0.0123019 0 3.93381 -0.0650953 0
          3.62443 -0.0212062 0 3.94914 -0.0515792 0 3.65233 -0.0257814 0 3.96615 -0.0448435 0
          3.67647 -0.0332762 0 3.98605 -0.0467935 0 3.70009 -0.0499801 0 3.5 0 0
          3.72819 -0.102766 0 3.40788 -0.0103824 0 3.69111 -0.0664789 0 3.3433 -0.0249278 0
          3.65248 -0.0543523 0 3.28964 -0.0357092 0 3.61298 -0.0498598 0 3.24018 -0.0412493 0
          3.56777 -0.0496293 0 3.18537 -0.0330983 0 0 0 0 0 0 0
          0 0 0 0 0 0 0 0 0 0 0 0
          0 0 0 0 0 0 0 0 0 0 0 0
          0 0 0
        </DataArray>
      </PointData>
      <CellData Scalars="mu_t">
        <DataArray type="Float32" Name="mu_t" NumberOfComponents="1" format="ascii">
          0.000376938 0.000378287 0.000378358 0.000378655 0.000368245 0.000753298 0.000696726 0.000669462 0.000860981 0.000895299 0.000280619 0.000298735
          0.000308099 0.000320375 0.000315312 0.000809685 0.000751718 0.000787304 0.0013343 0.00144072 4.23999e-05 4.56807e-05 4.74032e-05 4.96443e-05
          4.89599e-05 0.000524049 0.000498443 0.000535279 0.00124488 0.00134432 4.42779e-06 4.77153e-06 4.95204e-06 5.18684e-06 5.11552e-06 0.000252918
          0.000242133 0.000261732 0.000803124 0.000867249 7.03133e-07 7.576e-07 7.862e-07 8.23403e-07 8.12063e-07 6.7523e-05 6.46911e-05 6.99785e-05
          0.000294752 0.000318269 1.51912e-07 1.63661e-07 1.69829e-07 1.77854e-07 1.75401e-07 1.65167e-05 1.5826e-05 1.71217e-05 8.17687e-05 8.82906e-05
          4.02711e-08 4.33826e-08 4.5016e-08 4.7141e-08 4.64904e-08 4.54186e-06 4.35208e-06 4.70855e-06 2.30685e-05 2.49083e-05 1.23236e-08 1.32751e-08
          1.37746e-08 1.44244e-08 1.42252e-08 1.41109e-06 1.35215e-06 1.46292e-06 7.1805e-06 7.75314e-06 4.19178e-09 4.51527e-09 4.68508e-09 4.906e-09
          4.83823e-09 4.83929e-07 4.63717e-07 5.0171e-07 2.45608e-06 2.65195e-06 1.50295e-05 1.48368e-05 1.54849e-05 1.54134e-05 1.58197e-05 1.58702e-05
          1.61605e-05 1.63034e-05 1.65964e-05 1.6766e-05 5.17892e-05 5.11255e-05 5.33575e-05 5.31112e-05 5.45102e-05 5.4684e-05 5.56837e-05 5.61761e-05
          5.71848e-05 5.77691e-05 0.000250306 0.000247188 0.000257755 0.000256595 0.000263222 0.000264049 0.000268788 0.000271127 0.000275915 0.000278691
          0.000997928 0.000990653 0.00102083 0.00101806 0.00103723 0.00103997 0.00105389 0.00106108 0.00107546 0.00108398 0.00156473 0.00157122
          0.00156427 0.00156484 0.00156129 0.0015604 0.00155861 0.00155779 0.00155749 0.0015563
        </DataArray>
        <DataArray type="Float32" Name="nu_t" NumberOfComponents="1" format="ascii">
          0.000324257 0.000325336 0.000325342 0.00032554 0.000316535 0.000647576 0.00059918 0.000575925 0.000740874 0.000771584 0.000241414 0.000256995
          0.000265039 0.000275591 0.000271219 0.000696444 0.00064657 0.000677185 0.00114768 0.00123955 3.64615e-05 3.92849e-05 4.07665e-05 4.26952e-05
          4.21064e-05 0.000450695 0.000428669 0.000460355 0.00107063 0.00115632 3.80752e-06 4.10322e-06 4.25842e-06 4.46044e-06 4.39908e-06 0.0002175
          0.000208223 0.000225082 0.000690662 0.000745899 6.04644e-07 6.51494e-07 6.76079e-07 7.08083e-07 6.98323e-07 5.80665e-05 5.56306e-05 6.01785e-05
          0.000253472 0.000273726 1.30635e-07 1.40741e-07 1.46043e-07 1.52946e-07 1.50835e-07 1.42036e-05 1.36095e-05 1.47239e-05 7.0317e-05 7.59342e-05
          3.4631e-08 3.73073e-08 3.87114e-08 4.05395e-08 3.99794e-08 3.90582e-06 3.74257e-06 4.04917e-06 1.98378e-05 2.14225e-05 1.05977e-08 1.14161e-08
          1.18455e-08 1.24045e-08 1.2233e-08 1.21349e-06 1.16278e-06 1.25806e-06 6.17494e-06 6.66818e-06 3.60473e-09 3.88298e-09 4.02895e-09 4.219e-09
          4.16065e-09 4.16162e-07 3.98776e-07 4.31454e-07 2.11214e-06 2.28085e-06 1.29246e-05 1.27591e-05 1.33163e-05 1.3255e-05 1.36042e-05 1.36478e-05
          1.38973e-05 1.40204e-05 1.42722e-05 1.44198e-05 4.45357e-05 4.39657e-05 4.58846e-05 4.56736e-05 4.68762e-05 4.70265e-05 4.78857e-05 4.831e-05
          4.91772e-05 4.96856e-05 0.00021525 0.000212576 0.000221662 0.000220671 0.000226369 0.000227087 0.000231161 0.000233177 0.000237295 0.000239712
          0.00085851 0.000852261 0.000878212 0.000875832 0.000892306 0.000894677 0.000906628 0.000912823 0.000925174 0.000932628 0.00134619 0.00135167
          0.00134559 0.001346 0.00134285 0.00134202 0.00134039 0.00133962 0.00133927 0.00133866
        </DataArray>
        <DataArray type="Float32" Name="l_mix" NumberOfComponents="1" format="ascii">
          0.00265145 0.00261872 0.00260577 0.00258153 0.0025625 0.00254861 0.00248792 0.00246649 0.00243796 0.00244177 0.011084 0.0110563
          0.0110451 0.0110228 0.0110051 0.0109914 0.0109288 0.0109051 0.0108722 0.0108767 0.0197922 0.0197867 0.0197843 0.0197794
          0.0197754 0.0197721 0.0197562 0.0197497 0.0197402 0.0197415 0.0291303 0.0291297 0.0291294 0.0291289 0.0291284 0.029128
          0.0291257 0.0291248 0.0291232 0.0291235 0.0393735 0.0393734 0.0393734 0.0393734 0.0393733 0.0393733 0.0393731 0.039373
          0.0393729 0.0393729 0.0506389 0.0506389 0.0506389 0.0506389 0.0506389 0.0506389 0.0506389 0.0506389 0.0506389 0.0506389
          0.0630308 0.0630308 0.0630308 0.0630308 0.0630308 0.0630308 0.0630308 0.0630308 0.0630308 0.0630308 0.0766618 0.0766618
          0.0766618 0.0766618 0.0766618 0.0766618 0.0766618 0.0766618 0.0766618 0.0766618 0.091656 0.091656 0.091656 0.091656
          0.091656 0.091656 0.091656 0.091656 0.091656 0.091656 0.0968504 0.0968504 0.0968504 0.0968504 0.0968504 0.0968504
          0.0968504 0.0968504 0.0968504 0.0968504 0.0787074 0.0787074 0.0787074 0.0787074 0.0787074 0.0787074 0.0787074 0.0787074
          0.0787074 0.0787074 0.0587486 0.0587485 0.0587485 0.0587484 0.0587483 0.0587482 0.0587482 0.0587481 0.058748 0.0587479
          0.0367414 0.0367389 0.0367382 0.0367363 0.0367355 0.0367338 0.0367329 0.0367313 0.0367302 0.0367281 0.0113561 0.0113388
          0.0113332 0.0113203 0.0113144 0.0113032 0.0112971 0.0112864 0.0112791 0.0112663
        </DataArray>
        <DataArray type="Float32" Name="u^+" NumberOfComponents="1" format="ascii">
          31.6557 30.8399 30.4864 29.93 29.4359 28.1216 30.2681 29.7613 29.5368 26.1456 65.2951 65.9955
          65.9378 66.0118 66.1844 65.7126 67.1652 66.7626 66.5404 64.1311 67.2361 70.2896 71.0492 72.6057
          73.9433 74.8129 77.7547 78.4833 79.502 78.6799 66.96 69.751 70.7292 72.6076 74.0933 75.2642
          78.8429 80.2109 82.0052 81.9416 66.6075 69.011 70.0077 71.874 73.35 74.5519 78.2331 79.7772
          81.8124 81.8563 66.3957 68.5756 69.5428 71.3522 72.7422 73.898 77.6857 79.2828 81.3743 81.4277
          66.2734 68.3299 69.2723 71.0299 72.4153 73.5581 77.3444 78.9611 81.0727 81.1089 66.2044 68.2003
          69.1179 70.8366 72.1862 73.3082 77.1546 78.7971 80.9309 80.9459 66.1991 68.1927 69.103 70.8112
          72.1679 73.2915 77.1318 78.7764 80.9084 80.9029 121.319 122.484 123.063 124.257 124.944 126.098
          126.882 128.064 129.041 130.379 121.656 123.167 123.763 125.034 125.721 126.89 127.646 128.804
          129.739 131.016 122.2 124.298 124.845 126.15 126.755 127.854 128.555 129.612 130.437 131.542
          120.789 121.568 121.649 122.053 122.144 122.465 122.57 122.866 123.001 123.267 59.6058 59.251
          59.0758 58.8352 58.6498 58.4549 58.2634 58.0857 57.8679 57.649
        </DataArray>
        <DataArray type="Float32" Name="y^+" NumberOfComponents="1" format="ascii">
          31.6572 30.8215 30.4982 29.9063 29.4502 29.1234 27.7447 27.2771 26.6696 26.7508 98.1373 95.5465
          94.5443 92.7096 91.2956 90.2826 86.0085 84.5589 82.6758 82.9273 171.265 166.744 164.995 161.793
          159.326 157.558 150.099 147.569 144.283 144.722 251.706 245.061 242.491 237.785 234.158 231.56
          220.598 216.88 212.05 212.695 340.191 331.21 327.736 321.376 316.475 312.963 298.147 293.122
          286.594 287.466 437.525 425.974 421.506 413.327 407.022 402.506 383.451 376.989 368.593 369.714
          544.592 530.215 524.653 514.472 506.625 501.004 477.286 469.242 458.791 460.187 662.365 644.879
          638.115 625.732 616.188 609.351 580.504 570.72 558.01 559.708 791.916 771.01 762.923 748.117
          736.707 728.533 694.044 682.346 667.15 669.18 456.528 453.464 452.507 450.262 449.263 447.338
          446.315 444.504 443.291 441.152 371.007 368.517 367.739 365.914 365.103 363.539 362.707 361.235
          360.25 358.511 276.934 275.075 274.495 273.132 272.527 271.359 270.739 269.64 268.904 267.606
          173.453 172.289 171.925 171.072 170.693 169.962 169.573 168.885 168.424 167.611 59.6246 59.2243
          59.0994 58.8061 58.6757 58.4243 58.2907 58.0541 57.8957 57.6163
        </DataArray>
        <DataArray type="Float32" Name="D_t" NumberOfComponents="1" format="ascii">
          0.000271516 0.000257363 0.000251622 0.000242129 0.000234357 0.000222338 0.000225227 0.000217887 0.000211134 0.000190197 0.00154716 0.00152415
          0.00150701 0.00148012 0.00146202 0.00143745 0.00140115 0.001371 0.00133725 0.00129804 0.00277654 0.00282466 0.00282459 0.00282962
          0.00283712 0.00284022 0.00281524 0.00279657 0.00277186 0.00276126 0.00406365 0.00411895 0.00413179 0.00415749 0.00417708 0.00419808
          0.00419283 0.00419726 0.00419795 0.00422149 0.00546349 0.00550843 0.00552775 0.00556259 0.00558877 0.00561985 0.00562316 0.00564229
          0.00566046 0.00569956 0.00700441 0.00703985 0.00706223 0.00710237 0.00712874 0.00716501 0.0071814 0.00721148 0.00724058 0.00729144
          0.00870252 0.00873151 0.00875652 0.00880074 0.00883337 0.0088773 0.0088999 0.00894035 0.00897972 0.00904088 0.0105735 0.0105995
          0.0106264 0.0106749 0.0107099 0.0107607 0.0107979 0.0108509 0.0109021 0.0109735 0.0126407 0.0126717 0.0127024 0.0127585
          0.0128016 0.0128626 0.0129065 0.0129704 0.0130315 0.0131135 0.0133594 0.0133952 0.0134285 0.0134899 0.0135328 0.0135977
          0.0136496 0.0137193 0.013785 0.0138676 0.0108865 0.0109455 0.0109738 0.0110302 0.0110651 0.0111188 0.0111582 0.0112124
          0.0112619 0.0113236 0.00816263 0.00824538 0.00826329 0.00830717 0.00832772 0.00836302 0.0083889 0.00842278 0.00845267 0.0084875
          0.00505611 0.00505624 0.00504896 0.00504149 0.00503418 0.00502639 0.00501939 0.00501165 0.00500379 0.00499409 0.000964362 0.000952072
          0.000947125 0.000938509 0.000933355 0.000926196 0.000920927 0.000914328 0.000908296 0.000900983
        </DataArray>
      </CellData>
      <Points>
        <DataArray type="Float32" Name="Coordinates" NumberOfComponents="3" format="ascii">
          0 0.25 0 0.05 0.25 0 0 0.267873 0 0.05 0.267873 0