<?xml version="1.0"?>
<VTKFile type="UnstructuredGrid" version="0.1" byte_order="LittleEndian">
  <UnstructuredGrid>
    <Piece NumberOfCells="60" NumberOfPoints="78">
      <PointData Scalars="Sn" Vectors="velocityW">
        <DataArray type="Float32" Name="Sn" NumberOfComponents="1" format="ascii">
          0.0124117 0.0124094 0.0159006 0.015896 0.0124046 0.0158869 0.0124005 0.0158792 0.0123979 0.0158743 0.012397 0.0158726
          0.0396975 0.0396356 0.0395115 0.0394089 0.0393423 0.0393192 0.150563 0.15036 0.149953 0.149608 0.149377 0.149298
          0.364133 0.363815 0.363147 0.362587 0.362203 0.362056 0.58571 0.58542 0.584763 0.58424 0.583841 0.583673
          0.741336 0.741171 0.740667 0.740284 0.739871 0.739671 0.834682 0.834752 0.834424 0.834128 0.833526 0.83317
          0.889531 0.890118 0.890003 0.889693 0.888529 0.887732 0.923129 0.924923 0.925098 0.924663 0.922256 0.920441
          0.945106 0.949744 0.950261 0.949626 0.944715 0.940793 0.959663 0.971583 0.972195 0.971507 0.961432 0.953572
          0.950088 1 1 1 0.972016 0.96238
        </DataArray>
        <DataArray type="Float32" Name="Sw" NumberOfComponents="1" format="ascii">
          0.987588 0.987591 0.984099 0.984104 0.987595 0.984113 0.987599 0.984121 0.987602 0.984126 0.987603 0.984127
          0.960302 0.960364 0.960488 0.960591 0.960658 0.960681 0.849437 0.84964 0.850047 0.850392 0.850623 0.850702
          0.635867 0.636185 0.636853 0.637413 0.637797 0.637944 0.41429 0.41458 0.415237 0.41576 0.416159 0.416327
          0.258664 0.258829 0.259333 0.259716 0.260129 0.260329 0.165318 0.165248 0.165576 0.165872 0.166474 0.16683
          0.110469 0.109882 0.109997 0.110307 0.111471 0.112268 0.0768707 0.0750772 0.0749021 0.0753374 0.0777441 0.079559
          0.0548943 0.0502562 0.0497388 0.0503742 0.0552854 0.0592066 0.0403366 0.0284169 0.0278047 0.0284931 0.0385685 0.0464277
          0.0499122 0 0 0 0.0279844 0.0376198
        </DataArray>
        <DataArray type="Float32" Name="pn" NumberOfComponents="1" format="ascii">
          100004 100004 100004 100003 100003 100003 100002 100002 100002 100002 100002 100002
          100003 100003 100002 100002 100001 100001 100003 100003 100002 100001 100001 100001
          100003 100002 100002 100001 100001 100001 100002 100002 100001 100001 100001 100000
          100002 100002 100001 100001 100000 100000 100002 100002 100001 100000 99999.9 99999.8
          100002 100002 100000 100000 99999.6 99999.6 100003 100002 99999.6 100000 99999.2 99999.4
          100003 100003 99998.5 100000 99998.8 99999.3 100003 100004 99996.9 100001 99998 99999.4
          100002 100005 99994.3 100003 99996.7 100000
        </DataArray>
        <DataArray type="Float32" Name="pw" NumberOfComponents="1" format="ascii">
          99654.8 99654.8 99328.5 99328.5 99654.8 99328.5 99654.8 99328.5 99654.8 99328.5 99654.8 99328.6
          99031.9 99031.9 99031.9 99031.9 99032 99032 98762.3 98762.3 98762.3 98762.3 98762.3 98762.4
          98517.2 98517.1 98517.1 98517.2 98517.2 98517.3 98294.3 98294.2 98294.2 98294.3 98294.4 98294.4
          98091.4 98091.3 98091.2 98091.3 98091.6 98091.8 97906.3 97905.6 97905.3 97905.6 97906.7 97907.5
          97735.4 97732.6 97731.3 97732.5 97736.5 97739.5 97573.3 97562 97558.3 97561.6 97575.2 97586
          97412.1 97367.5 97358.2 97366.5 97411.7 97446 97251.8 97050.7 97030.7 97049.9 97222.7 97323.5
          97363.4 95702.7 95691.8 95700 97034.5 97210.9
        </DataArray>
        <DataArray type="Float32" Name="pc" NumberOfComponents="1" format="ascii">
          349.083 348.797 675.014 674.715 348.21 674.112 347.708 673.608 347.386 673.284 347.275 673.172
          971.28 970.977 970.366 969.86 969.531 969.417 1240.61 1240.31 1239.69 1239.17 1238.82 1238.7
          1485.49 1485.18 1484.52 1483.97 1483.6 1483.45 1708.2 1707.88 1707.16 1706.58 1706.14 1705.96
          1910.92 1910.66 1909.85 1909.24 1908.58 1908.26 2096.08 2096.26 2095.43 2094.69 2093.18 2092.29
          2267.04 2269.36 2268.9 2267.68 2263.12 2260.03 2429.22 2440.15 2441.24 2438.55 2424 2413.39
          2590.57 2635.07 2640.35 2633.87 2587.04 2553.24 2750.71 2952.78 2966.24 2951.14 2775.24 2675.91
          2638.57 4302.49 4302.49 4302.49 2962.25 2789.02
        </DataArray>
        <DataArray type="Float32" Name="rhoW" NumberOfComponents="1" format="ascii">
          997.054 997.054 997.054 997.054 997.054 997.054 997.054 997.054 997.054 997.054 997.054 997.054
          997.054 997.054 997.054 997.054 997.054 997.054 997.054 997.054 997.054 997.054 997.054 997.054
          997.054 997.054 997.054 997.054 997.054 997.054 997.054 997.054 997.054 997.054 997.054 997.054
          997.054 997.054 997.054 997.054 997.054 997.054 997.054 997.054 997.054 997.054 997.054 997.054
          997.054 997.054 997.054 997.054 997.054 997.054 997.053 997.053 997.053 997.053 997.053 997.053
          997.053 997.053 997.053 997.053 997.053 997.053 997.053 997.053 997.053 997.053 997.053 997.053
          997.053 997.06 997.055 997.053 997.053 997.053
        </DataArray>
        <DataArray type="Float32" Name="rhoN" NumberOfComponents="1" format="ascii">
          1.15431 1.15431 1.15431 1.15431 1.1543 1.1543 1.1543 1.15429 1.15429 1.15429 1.15429 1.15429
          1.15431 1.1543 1.1543 1.15429 1.15429 1.15429 1.1543 1.1543 1.15429 1.15429 1.15428 1.15428
          1.1543 1.1543 1.15429 1.15428 1.15428 1.15428 1.1543 1.15429 1.15429 1.15428 1.15428 1.15427
          1.1543 1.15429 1.15428 1.15428 1.15427 1.15427 1.1543 1.15429 1.15428 1.15427 1.15427 1.15427
          1.1543 1.15429 1.15427 1.15427 1.15426 1.15426 1.1543 1.15429 1.15426 1.15427 1.15426 1.15426
          1.1543 1.1543 1.15425 1.15427 1.15425 1.15426 1.1543 1.15431 1.15423 1.15428 1.15425 1.15426
          1.15429 1.16071 1.15767 1.15512 1.15423 1.15427
        </DataArray>
        <DataArray type="Float32" Name="mobW" NumberOfComponents="1" format="ascii">
          1122.96 1122.96 1120.59 1120.59 1122.96 1120.6 1122.96 1120.61 1122.96 1120.61 1122.96 1120.62
          1061.08 1061.32 1061.79 1062.17 1062.42 1062.51 642.634 643.137 644.147 645.007 645.58 645.779
          259.494 259.888 260.72 261.419 261.898 262.082 72.0689 72.2179 72.5567 72.8275 73.0345 73.1213
          18.0216 18.0553 18.1588 18.2377 18.3229 18.3644 4.83073 4.82469 4.85299 4.87861 4.93105 4.96226
          1.46082 1.43774 1.44224 1.45442 1.50076 1.53302 0.48973 0.455734 0.452498 0.460568 0.506866 0.54371
          0.17335 0.131346 0.127121 0.132322 0.177243 0.219448 0.065001 0.0201889 0.0187252 0.020376 0.0561765 0.102156
          0.128527 0 0 0 0.0191474 0.0517805
        </DataArray>
        <DataArray type="Float32" Name="mobN" NumberOfComponents="1" format="ascii">
          0.33279 0.332132 2.07003 2.06678 0.330788 2.06022 0.329642 2.05477 0.328908 2.05126 0.328654 2.05006
          56.0538 55.8157 55.3403 54.9484 54.695 54.6075 1320.55 1316.7 1309 1302.47 1298.14 1296.64
          8402.74 8387.88 8356.62 8330.45 8312.56 8305.69 21618.9 21598.3 21551.4 21514 21485.6 21473.7
          33778.6 33764.8 33722.5 33690.3 33655.8 33638.9 41823.7 41829.9 41801.1 41775.1 41722.2 41691
          46648.2 46699.7 46689.6 46662.5 46560.4 46490.5 49957.4 50150.5 50169.4 50122.5 49863.5 49668.7
          52263.4 52711.1 52759.7 52700 52224.7 51830 53584.4 54431.8 54468.2 54427.3 53725.7 53063.2
          52743.4 54771.1 54957.6 55127.2 54457.6 53799.3
        </DataArray>
        <DataArray type="Float32" Name="X_liquid^H2O" NumberOfComponents="1" format="ascii">
          0.999978 0.999978 0.999978 0.999978 0.999978 0.999978 0.999978 0.999978 0.999978 0.999978 0.999978 0.999978
          0.999978 0.999978 0.999978 0.999978 0.999978 0.999978 0.999978 0.999978 0.999978 0.999978 0.999978 0.999978
          0.999978 0.999978 0.999978 0.999978 0.999978 0.999978 0.999978 0.999978 0.999978 0.999978 0.999978 0.999978
          0.999978 0.999978 0.999978 0.999978 0.999978 0.999978 0.999978 0.999978 0.999978 0.999978 0.999978 0.999978
          0.999978 0.999978 0.999978 0.999978 0.999978 0.999978 0.999978 0.999978 0.999978 0.999978 0.999978 0.999978
          0.999978 0.999978 0.999978 0.999978 0.999978 0.999978 0.999978 0.999978 0.999978 0.999978 0.999978 0.999978
          0.999978 0.541812 0.751175 0.940669 0.999978 0.999978
        </DataArray>
        <DataArray type="Float32" Name="X_liquid^Air" NumberOfComponents="1" format="ascii">
          2.15474e-05 2.15474e-05 2.15474e-05 2.15473e-05 2.15472e-05 2.15472e-05 2.15471e-05 2.1547e-05 2.15471e-05 2.1547e-05 2.1547e-05 2.15469e-05
          2.15473e-05 2.15472e-05 2.15471e-05 2.1547e-05 2.15469e-05 2.15469e-05 2.15472e-05 2.15471e-05 2.1547e-05 2.15469e-05 2.15468e-05 2.15468e-05
          2.15472e-05 2.15471e-05 2.15469e-05 2.15468e-05 2.15467e-05 2.15467e-05 2.15471e-05 2.1547e-05 2.15469e-05 2.15468e-05 2.15467e-05 2.15467e-05
          2.15471e-05 2.1547e-05 2.15468e-05 2.15467e-05 2.15466e-05 2.15466e-05 2.15471e-05 2.1547e-05 2.15467e-05 2.15466e-05 2.15465e-05 2.15465e-05
          2.15471e-05 2.1547e-05 2.15466e-05 2.15466e-05 2.15465e-05 2.15465e-05 2.15471e-05 2.1547e-05 2.15465e-05 2.15466e-05 2.15464e-05 2.15464e-05
          2.15472e-05 2.15471e-05 2.15462e-05 2.15466e-05 2.15463e-05 2.15464e-05 2.15471e-05 2.15473e-05 2.15459e-05 2.15468e-05 2.15461e-05 2.15464e-05
          2.1547e-05 2.18709e-05 2.17208e-05 2.1589e-05 2.15458e-05 2.15466e-05
        </DataArray>
        <DataArray type="Float32" Name="X_gas^H2O" NumberOfComponents="1" format="ascii">
          0.0199643 0.0199643 0.0199643 0.0199644 0.0199644 0.0199645 0.0199645 0.0199646 0.0199646 0.0199647 0.0199646 0.0199647
          0.0199644 0.0199644 0.0199646 0.0199647 0.0199647 0.0199648 0.0199644 0.0199645 0.0199646 0.0199647 0.0199648 0.0199648
          0.0199645 0.0199646 0.0199647 0.0199648 0.0199649 0.0199649 0.0199645 0.0199646 0.0199648 0.0199649 0.0199649 0.019965
          0.0199646 0.0199646 0.0199648 0.0199649 0.019965 0.019965 0.0199646 0.0199647 0.0199649 0.019965 0.019965 0.0199651
          0.0199645 0.0199646 0.019965 0.019965 0.0199651 0.0199651 0.0199645 0.0199646 0.0199651 0.019965 0.0199652 0.0199652
          0.0199645 0.0199645 0.0199653 0.019965 0.0199653 0.0199652 0.0199645 0.0199643 0.0199657 0.0199648 0.0199654 0.0199652
          0.0199646 0.0107573 0.0149533 0.0187669 0.0199657 0.019965
        </DataArray>
        <DataArray type="Float32" Name="X_gas^Air" NumberOfComponents="1" format="ascii">
          0.980036 0.980036 0.980036 0.980036 0.980036 0.980035 0.980035 0.980035 0.980035 0.980035 0.980035 0.980035
          0.980036 0.980036 0.980035 0.980035 0.980035 0.980035 0.980036 0.980035 0.980035 0.980035 0.980035 0.980035
          0.980035 0.980035 0.980035 0.980035 0.980035 0.980035 0.980035 0.980035 0.980035 0.980035 0.980035 0.980035
          0.980035 0.980035 0.980035 0.980035 0.980035 0.980035 0.980035 0.980035 0.980035 0.980035 0.980035 0.980035
          0.980035 0.980035 0.980035 0.980035 0.980035 0.980035 0.980035 0.980035 0.980035 0.980035 0.980035 0.980035
          0.980035 0.980035 0.980035 0.980035 0.980035 0.980035 0.980035 0.980036 0.980034 0.980035 0.980035 0.980035
          0.980035 0.989243 0.985047 0.981233 0.980034 0.980035
        </DataArray>
        <DataArray type="Float32" Name="x_liquid^H2O" NumberOfComponents="1" format="ascii">
          0.999987 0.999987 0.999987 0.999987 0.999987 0.999987 0.999987 0.999987 0.999987 0.999987 0.999987 0.999987
          0.999987 0.999987 0.999987 0.999987 0.999987 0.999987 0.999987 0.999987 0.999987 0.999987 0.999987 0.999987
          0.999987 0.999987 0.999987 0.999987 0.999987 0.999987 0.999987 0.999987 0.999987 0.999987 0.999987 0.999987
          0.999987 0.999987 0.999987 0.999987 0.999987 0.999987 0.999987 0.999987 0.999987 0.999987 0.999987 0.999987
          0.999987 0.999987 0.999987 0.999987 0.999987 0.999987 0.999987 0.999987 0.999987 0.999987 0.999987 0.999987
          0.999987 0.999987 0.999987 0.999987 0.999987 0.999987 0.999987 0.999987 0.999987 0.999987 0.999987 0.999987
          0.999987 0.54182 0.751184 0.940677 0.999987 0.999987
        </DataArray>
        <DataArray type="Float32" Name="x_liquid^Air" NumberOfComponents="1" format="ascii">
          1.34041e-05 1.34041e-05 1.34041e-05 1.34041e-05 1.3404e-05 1.3404e-05 1.3404e-05 1.34039e-05 1.34039e-05 1.34039e-05 1.34039e-05 1.34038e-05
          1.3404e-05 1.3404e-05 1.34039e-05 1.34039e-05 1.34038e-05 1.34038e-05 1.3404e-05 1.3404e-05 1.34039e-05 1.34038e-05 1.34038e-05 1.34038e-05
          1.3404e-05 1.34039e-05 1.34038e-05 1.34038e-05 1.34037e-05 1.34037e-05 1.34039e-05 1.34039e-05 1.34038e-05 1.34037e-05 1.34037e-05 1.34037e-05
          1.34039e-05 1.34039e-05 1.34038e-05 1.34037e-05 1.34036e-05 1.34036e-05 1.34039e-05 1.34039e-05 1.34037e-05 1.34036e-05 1.34036e-05 1.34036e-05
          1.34039e-05 1.34039e-05 1.34036e-05 1.34036e-05 1.34036e-05 1.34035e-05 1.3404e-05 1.34039e-05 1.34035e-05 1.34036e-05 1.34035e-05 1.34035e-05
          1.3404e-05 1.3404e-05 1.34034e-05 1.34037e-05 1.34034e-05 1.34035e-05 1.3404e-05 1.34041e-05 1.34032e-05 1.34038e-05 1.34033e-05 1.34035e-05
          1.34039e-05 1.36054e-05 1.3512e-05 1.343e-05 1.34031e-05 1.34036e-05
        </DataArray>
        <DataArray type="Float32" Name="x_gas^H2O" NumberOfComponents="1" format="ascii">
          0.0317086 0.0317087 0.0317087 0.0317088 0.0317089 0.031709 0.031709 0.0317092 0.0317091 0.0317093 0.0317092 0.0317093
          0.0317088 0.0317089 0.0317091 0.0317093 0.0317094 0.0317094 0.0317089 0.031709 0.0317092 0.0317094 0.0317095 0.0317095
          0.031709 0.0317091 0.0317093 0.0317095 0.0317096 0.0317096 0.031709 0.0317092 0.0317094 0.0317096 0.0317097 0.0317097
          0.0317091 0.0317092 0.0317095 0.0317097 0.0317098 0.0317098 0.0317091 0.0317092 0.0317096 0.0317097 0.0317099 0.0317099
          0.0317091 0.0317092 0.0317098 0.0317098 0.03171 0.03171 0.031709 0.0317092 0.03171 0.0317098 0.0317101 0.03171
          0.031709 0.031709 0.0317103 0.0317097 0.0317102 0.0317101 0.031709 0.0317087 0.0317108 0.0317095 0.0317105 0.03171
          0.0317092 0.0171804 0.0238216 0.0298284 0.0317109 0.0317098
        </DataArray>
        <DataArray type="Float32" Name="x_gas^Air" NumberOfComponents="1" format="ascii">
          0.968291 0.968291 0.968291 0.968291 0.968291 0.968291 0.968291 0.968291 0.968291 0.968291 0.968291 0.968291
          0.968291 0.968291 0.968291 0.968291 0.968291 0.968291 0.968291 0.968291 0.968291 0.968291 0.968291 0.968291
          0.968291 0.968291 0.968291 0.968291 0.96829 0.96829 0.968291 0.968291 0.968291 0.96829 0.96829 0.96829
          0.968291 0.968291 0.968291 0.96829 0.96829 0.96829 0.968291 0.968291 0.96829 0.96829 0.96829 0.96829
          0.968291 0.968291 0.96829 0.96829 0.96829 0.96829 0.968291 0.968291 0.96829 0.96829 0.96829 0.96829
          0.968291 0.968291 0.96829 0.96829 0.96829 0.96829 0.968291 0.968291 0.968289 0.968291 0.96829 0.96829
          0.968291 0.98282 0.976178 0.970172 0.968289 0.96829
        </DataArray>
        <DataArray type="Float32" Name="porosity" NumberOfComponents="1" format="ascii">
          0.41 0.41 0.41 0.41 0.41 0.41 0.41 0.41 0.41 0.41 0.41 0.41
          0.41 0.41 0.41 0.41 0.41 0.41 0.41 0.41 0.41 0.41 0.41 0.41
          0.41 0.41 0.41 0.41 0.41 0.41 0.41 0.41 0.41 0.41 0.41 0.41
          0.41 0.41 0.41 0.41 0.41 0.41 0.41 0.41 0.41 0.41 0.41 0.41
          0.41 0.41 0.41 0.41 0.41 0.41 0.41 0.41 0.41 0.41 0.41 0.41
          0.41 0.41 0.41 0.41 0.41 0.41 0.41 0.41 0.41 0.41 0.41 0.41
          0.41 0.41 0.41 0.41 0.41 0.41
        </DataArray>
        <DataArray type="Float32" Name="temperature" NumberOfComponents="1" format="ascii">
          298.15 298.15 298.15 298.15 298.15 298.15 298.15 298.15 298.15 298.15 298.15 298.15
          298.15 298.15 298.15 298.15 298.15 298.15 298.15 298.15 298.15 298.15 298.15 298.15
          298.15 298.15 298.15 298.15 298.15 298.15 298.15 298.15 298.15 298.15 298.15 298.15
          298.15 298.15 298.15 298.15 298.15 298.15 298.15 298.15 298.15 298.15 298.15 298.15
          298.15 298.15 298.15 298.15 298.15 298.15 298.15 298.15 298.15 298.15 298.15 298.15
          298.15 298.15 298.15 298.15 298.15 298.15 298.15 298.15 298.15 298.15 298.15 298.15
          298.15 298.15 298.15 298.15 298.15 298.15
        </DataArray>
        <DataArray type="Float32" Name="phase presence" NumberOfComponents="1" format="ascii">
          3 3 3 3 3 3 3 3 3 3 3 3
          3 3 3 3 3 3 3 3 3 3 3 3
          3 3 3 3 3 3 3 3 3 3 3 3
          3 3 3 3 3 3 3 3 3 3 3 3
          3 3 3 3 3 3 3 3 3 3 3 3
          3 3 3 3 3 3 3 3 3 3 3 3
          3 2 2 2 3 3
        </DataArray>
        <DataArray type="Float32" Name="velocityW" NumberOfComponents="3" format="ascii">
          -1.13711e-08 8.11531e-09 0 -2.44864e-08 9.27898e-09 0 -9.91883e-09 1.5393e-08 0 -2.35777e-08 1.89057e-08 0
          -4.93255e-08 8.35084e-09 0 -5.2056e-08 1.8674e-08 0 -6.02896e-08 2.32362e-11 0 -6.7377e-08 1.25653e-09 0
          -4.21375e-08 -1.10725e-08 0 -4.80764e-08 -2.2709e-08 0 -2.47451e-08 -1.59775e-08 0 -2.82743e-08 -3.29936e-08 0
          -3.85683e-09 3.63005e-08 0 -1.80735e-08 4.80727e-08 0 -5.59928e-08 5.39195e-08 0 -8.60928e-08 1.73802e-08 0
          -6.54524e-08 -3.86467e-08 0 -3.84146e-08 -6.08612e-08 0 7.25602e-09 7.99015e-08 0 -2.57266e-09 1.0645e-07 0
          -3.84815e-08 1.26106e-07 0 -8.11947e-08 7.45386e-08 0 -7.20275e-08 -2.28759e-08 0 -4.62271e-08 -6.21531e-08 0
          1.5085e-08 1.50272e-07 0 9.67881e-09 1.95367e-07 0 -1.75103e-08 2.31238e-07 0 -5.65969e-08 1.72581e-07 0
          -6.11671e-08 3.87827e-08 0 -4.84337e-08 -2.78967e-08 0 1.70534e-08 2.22122e-07 0 1.34848e-08 2.85744e-07 0
          -5.37495e-09 3.34527e-07 0 -3.41192e-08 2.73078e-07 0 -3.97999e-08 1.16072e-07 0 -3.20276e-08 2.2194e-08 0
          1.86253e-08 2.70586e-07 0 1.46512e-08 3.51848e-07 0 -1.31118e-09 4.08975e-07 0 -2.52308e-08 3.46913e-07 0
          -3.14006e-08 1.74132e-07 0 -2.56389e-08 6.22692e-08 0 2.21742e-08 2.9385e-07 0 1.64763e-08 3.9374e-07 0
          -8.71658e-11 4.56009e-07 0 -2.34097e-08 3.94759e-07 0 -3.10746e-08 2.09356e-07 0 -2.62826e-08 8.22028e-08 0
          2.81637e-08 2.99258e-07 0 1.94147e-08 4.20808e-07 0 3.42174e-10 4.85601e-07 0 -2.43346e-08 4.26658e-07 0
          -3.44701e-08 2.29918e-07 0 -3.02523e-08 8.66011e-08 0 3.75445e-08 2.92338e-07 0 2.36308e-08 4.40642e-07 0
          4.60953e-10 5.04768e-07 0 -2.64369e-08 4.50355e-07 0 -4.03706e-08 2.43048e-07 0 -3.66626e-08 8.09464e-08 0
          5.51098e-08 2.74573e-07 0 3.10154e-08 4.58567e-07 0 2.94884e-10 5.16857e-07 0 -3.00466e-08 4.70675e-07 0
          -4.99608e-08 2.53595e-07 0 -4.61596e-08 6.82718e-08 0 1.25399e-07 2.3381e-07 0 6.36387e-08 4.74094e-07 0
          4.85726e-11 5.21084e-07 0 -4.58597e-08 4.91706e-07 0 -7.25635e-08 2.62844e-07 0 -5.51889e-08 5.00528e-08 0
          8.82721e-07 2.04732e-07 0 4.4136e-07 4.80548e-07 0 0 5.20805e-07 0 -5.29744e-08 5.0295e-07 0
          -7.45934e-08 2.66978e-07 0 -4.32381e-08 3.97077e-08 0
        </DataArray>
        <DataArray type="Float32" Name="velocityN" NumberOfComponents="3" format="ascii">
          5.0728e-10 -8.67936e-10 0 7.68204e-10 -7.03699e-10 0 3.24976e-09 -3.87365e-09 0 4.88752e-09 -2.68312e-09 0
          9.45357e-10 -4.73921e-10 0 5.94948e-09 -1.04333e-09 0 7.0381e-10 -4.24767e-10 0 4.39202e-09 -7.34637e-10 0
          3.66492e-10 -4.10323e-10 0 2.28917e-09 -6.30821e-10 0 1.86949e-10 -4.05398e-10 0 1.16799e-09 -5.95889e-10 0
          8.99421e-08 -7.02684e-08 0 1.3433e-07 -4.16772e-08 0 1.61824e-07 -3.12721e-09 0 1.18284e-07 3.10436e-09 0
          6.14531e-08 5.36082e-09 0 3.12676e-08 6.05802e-09 0 2.16309e-06 -1.30532e-06 0 3.23254e-06 -6.74784e-07 0
          3.908e-06 1.68811e-07 0 2.86764e-06 3.13612e-07 0 1.48886e-06 3.6329e-07 0 7.56467e-07 3.77308e-07 0
          1.43845e-05 -9.40071e-06 0 2.1933e-05 -4.92432e-06 0 2.63084e-05 1.80595e-06 0 1.88126e-05 2.63991e-06 0
          9.71119e-06 2.95302e-06 0 4.93257e-06 3.05348e-06 0 4.07759e-05 -3.40716e-05 0 6.33939e-05 -1.84318e-05 0
          7.29274e-05 8.88273e-06 0 4.90663e-05 9.31523e-06 0 2.55974e-05 1.06692e-05 0 1.29049e-05 1.09387e-05 0
          7.36071e-05 -8.08929e-05 0 0.000118327 -4.59287e-05 0 0.000125084 2.93619e-05 0 7.52228e-05 1.86942e-05 0
          4.15706e-05 2.47076e-05 0 1.98162e-05 2.43287e-05 0 0.000105822 -0.000147962 0 0.000185691 -9.21409e-05 0
          0.000172994 7.72103e-05 0 8.56379e-05 2.16703e-05 0 5.58141e-05 4.57862e-05 0 2.07804e-05 3.96327e-05 0
          0.000126624 -0.000227356 0 0.000274688 -0.000168768 0 0.000217718 0.000176635 0 7.57055e-05 -3.42033e-07 0
          7.31179e-05 7.95682e-05 0 7.50916e-06 4.96706e-05 0 0.000109801 -0.000301591 0 0.000401227 -0.000302738 0
          0.000263603 0.000369526 0 3.9624e-05 -8.08323e-05 0 0.000102368 0.000142721 0 -3.99594e-05 4.06138e-05 0
          -3.28772e-06 -0.000334175 0 0.000579732 -0.00054487 0 0.000309807 0.000724607 0 -3.45096e-05 -0.000277116 0
          0.000155236 0.000269935 0 -0.000163645 -1.46083e-05 0 -0.000318851 -0.000255899 0 0.000821836 -0.000966043 0
          0.000352551 0.0013483 0 -0.000162133 -0.000678148 0 0.000248051 0.000522085 0 -0.000437054 -0.000164409 0
          -0.000756775 -0.000177877 0 0.00104067 -0.001231 0 0.000369603 0.00174335 0 -0.000300085 -0.000943123 0
          0.000350575 0.00068891 0 -0.000797598 -0.000270596 0
        </DataArray>
      </PointData>
      <CellData Scalars="process rank">
        <DataArray type="Float32" Name="process rank" NumberOfComponents="1" format="ascii">
          0 0 0 0 0 0 0 0 0 0 0 0
          0 0 0 0 0 0 0 0 0 0 0 0
          0 0 0 0 0 0 0 0 0 0 0 0
          0 0 0 0 0 0 0 0 0 0 0 0
          0 0 0 0 0 0 0 0 0 0 0 0
        </DataArray>
      </CellData>
      <Points>
        <DataArray type="Float32" Name="Coordinates" NumberOfComponents="3" format="ascii">
          0.25 0 0 0.3 0 0 0.25 0.0333553 0 0.3 0.0333553 0
          0.35 0 0 0.35 0.0333553 0 0.4 0 0 0.4 0.0333553 0
          0.45 0 0 0.45 0.0333553 0 0.5 0 0 0.5 0.0333553 0
          0.25 0.0636783 0 0.3 0.0636783 0 0.35 0.0636783 0 0.4 0.0636783 0
          0.45 0.0636783 0 0.5 0.0636783 0 0.25 0.0912447 0 0.3 0.0912447 0
          0.35 0.0912447 0 0.4 0.0912447 0 0.45 0.0912447 0 0.5 0.0912447 0
          0.25 0.116305 0 0.3 0.116305 0 0.35 0.116305 0 0.4 0.116305 0
          0.45 0.116305 0 0.5 0.116305 0 0.25 0.139087 0 0.3 0.139087 0
          0.35 0.139087 0 0.4 0.139087 0 0.45 0.139087 0 0.5 0.139087 0
          0.25 0.159798 0 0.3 0.159798 0 0.35 0.159798 0 0.4 0.159798 0
          0.45 0.159798 0 0.5 0.159798 0 0.25 0.178626 0 0.3 0.178626 0
          0.35 0.178626 0 0.4 0.178626 0 0.45 0.178626 0 0.5 0.178626 0
          0.25 0.195743 0 0.3 0.195743 0 0.35 0.195743 0 0.4 0.195743 0
          0.45 0.195743 0 0.5 0.195743 0 0.25 0.211303 0 0.3 0.211303 0
          0.35 0.211303 0 0.4 0.211303 0 0.45 0.211303 0 0.5 0.211303 0
          0.25 0.225449 0 0.3 0.225449 0 0.35 0.225449 0 0.4 0.225449 0
          0.45 0.225449 0 0.5 0.225449 0 0.25 0.238309 0 0.3 0.238309 0
          0.35 0.238309 0 0.4 0.238309 0 0.45 0.238309 0 0.5 0.238309 0
          0.25 0.25 0 0.3 0.25 0 0.35 0.25 0 0.4 0.25 0
          0.45 0.25 0 0.5 0.25 0
        </DataArray>
      </Points>
      <Cells>
        <DataArray type="Int32" Name="connectivity" NumberOfComponents="1" format="ascii">
          0 1 3 2 1 4 5 3 4 6 7 5
          6 8 9 7 8 10 11 9 2 3 13 12
          3 5 14 13 5 7 15 14 7 9 16 15
          9 11 17 16 12 13 19 18 13 14 20 19
          14 15 21 20 15 16 22 21 16 17 23 22
          18 19 25 24 19 20 26 25 20 21 27 26
          21 22 28 27 22 23 29 28 24 25 31 30
          25 26 32 31 26 27 33 32 27 28 34 33
          28 29 35 34 30 31 37 36 31 32 38 37
          32 33 39 38 33 34 40 39 34 35 41 40
          36 37 43 42 37 38 44 43 38 39 45 44
          39 40 46 45 40 41 47 46 42 43 49 48
          43 44 50 49 44 45 51 50 45 46 52 51
          46 47 53 52 48 49 55 54 49 50 56 55
          50 51 57 56 51 52 58 57 52 53 59 58
          54 55 61 60 55 56 62 61 56 57 63 62
          57 58 64 63 58 59 65 64 60 61 67 66
          61 62 68 67 62 63 69 68 63 64 70 69
          64 65 71 70 66 67 73 72 67 68 74 73
          68 69 75 74 69 70 76 75 70 71 77 76
        </DataArray>
        <DataArray type="Int32" Name="offsets" NumberOfComponents="1" format="ascii">
          4 8 12 16 20 24 28 32 36 40 44 48
          52 56 60 64 68 72 76 80 84 88 92 96
          100 104 108 112 116 120 124 128 132 136 140 144
          148 152 156 160 164 168 172 176 180 184 188 192
          196 200 204 208 212 216 220 224 228 232 236 240
        </DataArray>
        <DataArray type="UInt8" Name="types" NumberOfComponents="1" format="ascii">
          9 9 9 9 9 9 9 9 9 9 9 9
          9 9 9 9 9 9 9 9 9 9 9 9
          9 9 9 9 9 9 9 9 9 9 9 9
          9 9 9 9 9 9 9 9 9 9 9 9
          9 9 9 9 9 9 9 9 9 9 9 9
        </DataArray>
      </Cells>
    </Piece>
  </UnstructuredGrid>
</VTKFile>
