<?xml version="1.0"?>
<VTKFile type="UnstructuredGrid" version="0.1" byte_order="LittleEndian">
  <UnstructuredGrid>
    <Piece NumberOfCells="120" NumberOfPoints="143">
      <PointData Scalars="P" Vectors="v">
        <DataArray type="Float32" Name="P" NumberOfComponents="1" format="ascii">
          100012 99987 100012 99987 100011 100011 99989 99989 100009 100009 99991.4 99991.2
          100005 100006 99994.5 99993.9 100002 100003 99996.8 99996.5 100000 100000 100017 99985.9
          100012 99988.8 100009 99991.4 100005 99994.3 100003 99996.7 100000 100016 99985.8 100012
          99988.7 100009 99991.2 100006 99993.8 100003 99996.4 100000 100016 99985.6 100012 99988.6
          100009 99991.3 100005 99994.1 100003 99996.6 100000 100016 99985.6 100012 99988.5 100009
          99991.1 100006 99993.7 100003 99996.3 100000 100016 99985.5 100012 99988.4 100009 99991.2
          100006 99993.9 100003 99996.4 100000 100016 99985.6 100012 99988.5 100009 99991.1 100006
          99993.7 100003 99996.2 100000 100016 99985.5 100012 99988.4 100009 99991.2 100006 99993.8
          100003 99996.3 100000 100016 99985.7 100012 99988.6 100009 99991.2 100006 99993.7 100003
          99996.2 100000 100017 99985.6 100012 99988.6 100009 99991.3 100006 99993.8 100003 99996.3
          100000 100012 99987.3 100011 99989.2 100008 99991.5 100006 99993.8 100003 99996.2 100000
          100012 99987.3 100011 99989.2 100008 99991.4 100006 99993.8 100003 99996.2 100000
        </DataArray>
        <DataArray type="Float32" Name="delP" NumberOfComponents="1" format="ascii">
          12.0127 -13.0297 12.0182 -13.0241 11.3498 11.3504 -11.0201 -11.0175 8.54362 8.57073 -8.63888 -8.75388
          4.95345 5.6607 -5.52434 -6.15073 2.4474 2.81448 -3.20297 -3.50704 0 0 16.6804 -14.1454
          11.7712 -11.1976 8.6016 -8.63487 5.13151 -5.66923 2.53806 -3.27118 0 16.1139 -14.1601 11.891
          -11.3031 8.71984 -8.80104 5.77265 -6.23719 2.87723 -3.60629 0 15.8869 -14.365 12.0692 -11.4313
          8.74846 -8.7383 5.40693 -5.89365 2.67523 -3.44108 0 15.8108 -14.3589 12.0914 -11.4803 8.84656
          -8.86754 5.86909 -6.31026 2.92781 -3.70696 0 15.5915 -14.4989 12.1952 -11.5665 8.85466 -8.82386
          5.61114 -6.07056 2.77952 -3.58181 0 15.6989 -14.4126 12.1159 -11.5362 8.8853 -8.88619 5.89858
          -6.33653 2.94315 -3.76755 0 15.6025 -14.526 12.1902 -11.5858 8.86588 -8.84398 5.7187 -6.17782
          2.8378 -3.68168 0 15.8702 -14.2696 11.9179 -11.4132 8.76777 -8.80283 5.82871 -6.29695 2.90766
          -3.77895 0 16.647 -14.402 11.8957 -11.3715 8.67943 -8.72876 5.69763 -6.19902 2.83625 -3.74028
          0 12.2134 -12.7221 10.7909 -10.8109 8.35193 -8.54882 5.63791 -6.18646 2.81545 -3.74776 0
          12.2068 -12.7287 10.791 -10.814 8.35102 -8.55095 5.63607 -6.18829 2.81399 -3.74898 0
        </DataArray>
        <DataArray type="Float32" Name="x_gas^H2O" NumberOfComponents="1" format="ascii">
          0.0127981 0.0100572 0.0142556 0.0138325 0.00956584 0.0135636 0.00868267 0.0132498 0.00811487 0.0129814 0.00778938 0.012802
          0.0316955 0.0130375 0.0316987 0.0135111 0.0316963 0.0137309 0.031698 0.0143904 0.031697 0.0162241 0.0122163 0.0124123
          0.0124833 0.0125304 0.0125389 0.0125329 0.012534 0.0125777 0.0126282 0.0127698 0.0136817 0.012035 0.0120913 0.012134
          0.0121804 0.0122144 0.0122416 0.0122581 0.0122799 0.0123031 0.0123531 0.0129766 0.0120576 0.0120658 0.0120771 0.0120929
          0.0121087 0.0121249 0.0121377 0.012152 0.0121663 0.0121955 0.012664 0.0120858 0.0120859 0.0120872 0.01209 0.012094
          0.0120992 0.0121045 0.0121109 0.0121179 0.0121369 0.0126016 0.0121102 0.0121064 0.0121038 0.012102 0.0121014 0.0121017
          0.0121029 0.0121051 0.0121083 0.012125 0.0125904 0.0121083 0.0121067 0.0121055 0.0121048 0.0121049 0.0121059 0.0121077
          0.0121105 0.0121144 0.0121337 0.0126066 0.0121001 0.0120988 0.0121 0.0121036 0.0121084 0.0121148 0.012122 0.01213
          0.0121386 0.0121626 0.0126352 0.0120571 0.0120811 0.0121022 0.012127 0.0121486 0.0121717 0.0121924 0.0122125 0.0122304
          0.0122596 0.0127344 0.0121442 0.0122793 0.0123424 0.0124079 0.0124501 0.0124898 0.0125181 0.0125411 0.0125567 0.012579
          0.0130799 0.0142517 0.0140946 0.0139892 0.0138703 0.0137722 0.0136671 0.0135699 0.0134745 0.0133889 0.0133192 0.014054
          0.0127981 0.0115446 0.0113819 0.0109449 0.0107578 0.0104604 0.0101728 0.00995143 0.00977062 0.00969088 0.0127981
        </DataArray>
        <DataArray type="Float32" Name="X_gas^H2O" NumberOfComponents="1" format="ascii">
          0.008 0.00628014 0.00891601 0.00865004 0.00597223 0.00848099 0.00541902 0.00828379 0.00506356 0.00811517 0.00485986 0.00800245
          0.0199559 0.00815043 0.019958 0.00844799 0.0199564 0.00858613 0.0199575 0.00900079 0.0199569 0.0101548 0.00763469 0.0077577
          0.00780229 0.00783188 0.00783725 0.00783348 0.00783416 0.00786156 0.00789332 0.00798224 0.0085552 0.00752084 0.00755615 0.00758299
          0.00761212 0.00763346 0.00765057 0.00766087 0.00767459 0.00768918 0.00772055 0.00811214 0.00753501 0.00754017 0.00754723 0.00755721
          0.00756711 0.00757725 0.00758528 0.00759431 0.00760329 0.00762158 0.00791581 0.00755272 0.00755277 0.00755358 0.00755536 0.00755786
          0.00756113 0.00756445 0.00756845 0.0075729 0.00758481 0.00787659 0.00756805 0.00756567 0.00756403 0.00756292 0.00756251 0.00756272
          0.00756347 0.00756481 0.00756685 0.00757732 0.0078696 0.00756683 0.00756586 0.00756508 0.00756465 0.0075647 0.00756533 0.00756649
          0.00756825 0.00757069 0.00758281 0.00787975 0.00756171 0.00756086 0.00756166 0.00756389 0.00756691 0.00757096 0.00757543 0.0075805
          0.00758584 0.00760095 0.00789773 0.00753468 0.00754979 0.00756304 0.00757857 0.00759217 0.00760666 0.00761966 0.0076323 0.0076435
          0.00766184 0.00795999 0.00758936 0.00767424 0.00771383 0.00775497 0.00778143 0.00780642 0.00782414 0.00783861 0.00784843 0.00786244
          0.00817702 0.00891357 0.0088148 0.00874851 0.00867375 0.00861209 0.00854604 0.00848498 0.00842499 0.00837118 0.00832741 0.00878928
          0.008 0.00721306 0.00711096 0.00683682 0.00671943 0.00653296 0.0063526 0.00621387 0.00610055 0.00605058 0.008
        </DataArray>
        <DataArray type="Float32" Name="x_gas^Air" NumberOfComponents="1" format="ascii">
          0.987202 0.989943 0.985744 0.986167 0.990434 0.986436 0.991317 0.98675 0.991885 0.987019 0.992211 0.987198
          0.968304 0.986962 0.968301 0.986489 0.968304 0.986269 0.968302 0.98561 0.968303 0.983776 0.987784 0.987588
          0.987517 0.98747 0.987461 0.987467 0.987466 0.987422 0.987372 0.98723 0.986318 0.987965 0.987909 0.987866
          0.98782 0.987786 0.987758 0.987742 0.98772 0.987697 0.987647 0.987023 0.987942 0.987934 0.987923 0.987907
          0.987891 0.987875 0.987862 0.987848 0.987834 0.987805 0.987336 0.987914 0.987914 0.987913 0.98791 0.987906
          0.987901 0.987895 0.987889 0.987882 0.987863 0.987398 0.98789 0.987894 0.987896 0.987898 0.987899 0.987898
          0.987897 0.987895 0.987892 0.987875 0.98741 0.987892 0.987893 0.987895 0.987895 0.987895 0.987894 0.987892
          0.987889 0.987886 0.987866 0.987393 0.9879 0.987901 0.9879 0.987896 0.987892 0.987885 0.987878 0.98787
          0.987861 0.987837 0.987365 0.987943 0.987919 0.987898 0.987873 0.987851 0.987828 0.987808 0.987787 0.98777
          0.98774 0.987266 0.987856 0.987721 0.987658 0.987592 0.98755 0.98751 0.987482 0.987459 0.987443 0.987421
          0.98692 0.985748 0.985905 0.986011 0.98613 0.986228 0.986333 0.98643 0.986526 0.986611 0.986681 0.985946
          0.987202 0.988455 0.988618 0.989055 0.989242 0.98954 0.989827 0.990049 0.990229 0.990309 0.987202
        </DataArray>
        <DataArray type="Float32" Name="X_gas^Air" NumberOfComponents="1" format="ascii">
          0.992 0.99372 0.991084 0.99135 0.994028 0.991519 0.994581 0.991716 0.994936 0.991885 0.99514 0.991998
          0.980044 0.99185 0.980042 0.991552 0.980044 0.991414 0.980043 0.990999 0.980043 0.989845 0.992365 0.992242
          0.992198 0.992168 0.992163 0.992167 0.992166 0.992138 0.992107 0.992018 0.991445 0.992479 0.992444 0.992417
          0.992388 0.992367 0.992349 0.992339 0.992325 0.992311 0.992279 0.991888 0.992465 0.99246 0.992453 0.992443
          0.992433 0.992423 0.992415 0.992406 0.992397 0.992378 0.992084 0.992447 0.992447 0.992446 0.992445 0.992442
          0.992439 0.992436 0.992432 0.992427 0.992415 0.992123 0.992432 0.992434 0.992436 0.992437 0.992437 0.992437
          0.992437 0.992435 0.992433 0.992423 0.99213 0.992433 0.992434 0.992435 0.992435 0.992435 0.992435 0.992433
          0.992432 0.992429 0.992417 0.99212 0.992438 0.992439 0.992438 0.992436 0.992433 0.992429 0.992425 0.992419
          0.992414 0.992399 0.992102 0.992465 0.99245 0.992437 0.992421 0.992408 0.992393 0.99238 0.992368 0.992356
          0.992338 0.99204 0.992411 0.992326 0.992286 0.992245 0.992219 0.992194 0.992176 0.992161 0.992152 0.992138
          0.991823 0.991086 0.991185 0.991251 0.991326 0.991388 0.991454 0.991515 0.991575 0.991629 0.991673 0.991211
          0.992 0.992787 0.992889 0.993163 0.993281 0.993467 0.993647 0.993786 0.993899 0.993949 0.992
        </DataArray>
        <DataArray type="Float32" Name="rho" NumberOfComponents="1" format="ascii">
          1.16272 1.16364 1.16208 1.16197 1.16414 1.16238 1.16427 1.16225 1.16475 1.1626 1.16469 1.16248
          1.1543 1.16254 1.15417 1.1622 1.15427 1.1622 1.1542 1.16184 1.15424 1.16107 1.16303 1.16259
          1.16286 1.16257 1.1628 1.1626 1.16276 1.16261 1.16269 1.16256 1.16219 1.16311 1.16273 1.16301
          1.16272 1.16294 1.16272 1.16289 1.16274 1.16283 1.16274 1.1625 1.16309 1.16274 1.16304 1.16276
          1.16299 1.16278 1.16294 1.1628 1.16289 1.16281 1.16264 1.16308 1.16273 1.16304 1.16276 1.163
          1.16279 1.16296 1.16281 1.16292 1.16283 1.16267 1.16307 1.16272 1.16303 1.16275 1.16299 1.16279
          1.16295 1.16282 1.16292 1.16284 1.16267 1.16307 1.16272 1.16303 1.16275 1.16299 1.16278 1.16295
          1.16281 1.16292 1.16283 1.16267 1.16307 1.16272 1.16303 1.16275 1.16299 1.16278 1.16295 1.1628
          1.16291 1.16282 1.16265 1.16309 1.16273 1.16303 1.16274 1.16297 1.16276 1.16292 1.16277 1.16287
          1.16278 1.16261 1.16306 1.16264 1.16292 1.16262 1.16284 1.16262 1.16277 1.16262 1.16272 1.16263
          1.16246 1.16208 1.16186 1.16218 1.16198 1.16225 1.1621 1.16231 1.16221 1.16235 1.16231 1.16203
          1.16272 1.16299 1.16333 1.16327 1.16358 1.16351 1.16381 1.16377 1.16395 1.16391 1.16258
        </DataArray>
        <DataArray type="Float32" Name="mu" NumberOfComponents="1" format="ascii">
          1.82387e-05 1.82387e-05 1.82387e-05 1.82387e-05 1.82387e-05 1.82387e-05 1.82387e-05 1.82387e-05 1.82387e-05 1.82387e-05 1.82387e-05 1.82387e-05
          1.82387e-05 1.82387e-05 1.82387e-05 1.82387e-05 1.82387e-05 1.82387e-05 1.82387e-05 1.82387e-05 1.82387e-05 1.82387e-05 1.82387e-05 1.82387e-05
          1.82387e-05 1.82387e-05 1.82387e-05 1.82387e-05 1.82387e-05 1.82387e-05 1.82387e-05 1.82387e-05 1.82387e-05 1.82387e-05 1.82387e-05 1.82387e-05
          1.82387e-05 1.82387e-05 1.82387e-05 1.82387e-05 1.82387e-05 1.82387e-05 1.82387e-05 1.82387e-05 1.82387e-05 1.82387e-05 1.82387e-05 1.82387e-05
          1.82387e-05 1.82387e-05 1.82387e-05 1.82387e-05 1.82387e-05 1.82387e-05 1.82387e-05 1.82387e-05 1.82387e-05 1.82387e-05 1.82387e-05 1.82387e-05
          1.82387e-05 1.82387e-05 1.82387e-05 1.82387e-05 1.82387e-05 1.82387e-05 1.82387e-05 1.82387e-05 1.82387e-05 1.82387e-05 1.82387e-05 1.82387e-05
          1.82387e-05 1.82387e-05 1.82387e-05 1.82387e-05 1.82387e-05 1.82387e-05 1.82387e-05 1.82387e-05 1.82387e-05 1.82387e-05 1.82387e-05 1.82387e-05
          1.82387e-05 1.82387e-05 1.82387e-05 1.82387e-05 1.82387e-05 1.82387e-05 1.82387e-05 1.82387e-05 1.82387e-05 1.82387e-05 1.82387e-05 1.82387e-05
          1.82387e-05 1.82387e-05 1.82387e-05 1.82387e-05 1.82387e-05 1.82387e-05 1.82387e-05 1.82387e-05 1.82387e-05 1.82387e-05 1.82387e-05 1.82387e-05
          1.82387e-05 1.82387e-05 1.82387e-05 1.82387e-05 1.82387e-05 1.82387e-05 1.82387e-05 1.82387e-05 1.82387e-05 1.82387e-05 1.82387e-05 1.82387e-05
          1.82387e-05 1.82387e-05 1.82387e-05 1.82387e-05 1.82387e-05 1.82387e-05 1.82387e-05 1.82387e-05 1.82387e-05 1.82387e-05 1.82387e-05 1.82387e-05
          1.82387e-05 1.82387e-05 1.82387e-05 1.82387e-05 1.82387e-05 1.82387e-05 1.82387e-05 1.82387e-05 1.82387e-05 1.82387e-05 1.82387e-05
        </DataArray>
        <DataArray type="Float32" Name="D" NumberOfComponents="1" format="ascii">
          2.49338e-05 2.494e-05 2.49338e-05 2.494e-05 2.49339e-05 2.49339e-05 2.49395e-05 2.49395e-05 2.49346e-05 2.49346e-05 2.49389e-05 2.49389e-05
          2.49355e-05 2.49354e-05 2.49381e-05 2.49383e-05 2.49362e-05 2.49361e-05 2.49376e-05 2.49376e-05 2.49368e-05 2.49368e-05 2.49326e-05 2.49403e-05
          2.49338e-05 2.49396e-05 2.49346e-05 2.49389e-05 2.49355e-05 2.49382e-05 2.49361e-05 2.49376e-05 2.49368e-05 2.49327e-05 2.49403e-05 2.49338e-05
          2.49396e-05 2.49346e-05 2.4939e-05 2.49353e-05 2.49383e-05 2.4936e-05 2.49377e-05 2.49368e-05 2.49328e-05 2.49403e-05 2.49338e-05 2.49396e-05
          2.49346e-05 2.49389e-05 2.49354e-05 2.49382e-05 2.49361e-05 2.49376e-05 2.49368e-05 2.49328e-05 2.49403e-05 2.49337e-05 2.49396e-05 2.49346e-05
          2.4939e-05 2.49353e-05 2.49383e-05 2.4936e-05 2.49377e-05 2.49368e-05 2.49329e-05 2.49404e-05 2.49337e-05 2.49396e-05 2.49346e-05 2.4939e-05
          2.49354e-05 2.49383e-05 2.49361e-05 2.49377e-05 2.49368e-05 2.49328e-05 2.49404e-05 2.49337e-05 2.49396e-05 2.49345e-05 2.4939e-05 2.49353e-05
          2.49383e-05 2.4936e-05 2.49377e-05 2.49368e-05 2.49329e-05 2.49404e-05 2.49337e-05 2.49397e-05 2.49346e-05 2.4939e-05 2.49353e-05 2.49383e-05
          2.49361e-05 2.49377e-05 2.49368e-05 2.49328e-05 2.49403e-05 2.49338e-05 2.49396e-05 2.49346e-05 2.4939e-05 2.49353e-05 2.49383e-05 2.4936e-05
          2.49377e-05 2.49368e-05 2.49326e-05 2.49404e-05 2.49338e-05 2.49396e-05 2.49346e-05 2.49389e-05 2.49353e-05 2.49383e-05 2.49361e-05 2.49377e-05
          2.49368e-05 2.49337e-05 2.49399e-05 2.49341e-05 2.49395e-05 2.49347e-05 2.49389e-05 2.49354e-05 2.49383e-05 2.49361e-05 2.49377e-05 2.49368e-05
          2.49337e-05 2.49399e-05 2.49341e-05 2.49395e-05 2.49347e-05 2.49389e-05 2.49354e-05 2.49383e-05 2.49361e-05 2.49377e-05 2.49368e-05
        </DataArray>
        <DataArray type="Float32" Name="v" NumberOfComponents="3" format="ascii">
          0 0 0 0 0 0 3.5 0 0 3.42039 0.105694 0
          0 0 0 2.99394 0.0104172 0 0 0 0 3.2174 0.0501311 0
          0 0 0 2.66775 0.0312068 0 0 0 0 2.97349 0.0379736 0
          -0.0778993 -0.00213882 0 2.45267 -0.0365384 0 0.285169 0.00489784 0 2.82853 0.019334 0
          -0.106003 -0.00258125 0 2.3356 -0.00756547 0 0.313825 0.00204516 0 2.70303 0.0267041 0
          -0.368652 -0.00123518 0 2.10091 0.0949792 0 3.5 0 0 3.95305 0.116859 0
          3.60541 0.0192007 0 3.91713 0.0725793 0 3.55308 0.0410185 0 3.87405 0.0490243 0
          3.49344 0.0145675 0 3.75538 0.0324845 0 3.40399 0.0194468 0 3.64383 0.0490879 0
          3.30628 0.127951 0 3.5 0 0 3.98614 0.0896706 0 3.65979 0.0261062 0
          4.01154 0.0712917 0 3.71633 0.0449598 0 4.04235 0.054935 0 3.74097 -0.00446027 0
          4.03557 0.039261 0 3.73336 0.0197891 0 4.01288 0.0610609 0 3.7618 0.0733636 0
          3.5 0 0 3.94652 0.0587003 0 3.61639 0.0228976 0 3.98952 0.0555555 0
          3.69291 0.0340863 0 4.05176 0.0420414 0 3.74798 0.0225404 0 4.05122 0.0348655 0
          3.77776 0.0291012 0 4.07167 0.0528427 0 3.82493 0.0594296 0 3.5 0 0
          3.9275 0.0397351 0 3.59733 0.0204223 0 3.96919 0.0436929 0 3.67272 0.0275765 0
          4.01498 0.0355879 0 3.72552 -0.00107864 0 4.04595 0.02809 0 3.76392 0.0166541 0
          4.07858 0.0451745 0 3.82037 0.0525882 0 3.5 0 0 3.90188 0.0154175 0
          3.56676 0.0141412 0 3.94609 0.0243901 0 3.63931 0.0188961 0 3.99698 0.0206932 0
          3.69559 0.0158513 0 4.01442 0.0199269 0 3.7367 0.0196915 0 4.0481 0.0321555 0
          3.79217 0.0358303 0 3.5 0 0 3.91043 0.00512064 0 3.57823 0.0076822 0
          3.95009 0.0113996 0 3.64743 0.0105701 0 3.98948 0.0107203 0 3.70005 -0.00579933 0
          4.02612 0.00957704 0 3.74387 0.00518218 0 4.06409 0.0224609 0 3.79829 0.026684 0
          3.5 0 0 3.90673 -0.0254079 0 3.57207 0.00219952 0 3.94762 -0.0104941 0
          3.64113 0.00423981 0 3.98986 -0.0049971 0 3.69642 0.00354378 0 4.01842 -0.000327825 0
          3.74141 0.00497932 0 4.05598 0.00807717 0 3.79243 0.00880618 0 3.5 0 0
          3.95975 -0.0429599 0 3.63298 -0.0044774 0 3.99114 -0.0264068 0 3.69716 -0.00546839 0
          4.02728 -0.0184413 0 3.74768 -0.017555 0 4.06734 -0.0137185 0 3.7928 -0.0114123 0
          4.10716 -0.00232805 0 3.8404 -0.000854799 0 3.5 0 0 3.97015 -0.112645 0
          3.64252 0.000698404 0 3.98525 -0.0503169 0 3.68892 -0.010439 0 4.01128 -0.0330184 0
          3.72421 -0.0143777 0 4.03608 -0.0238292 0 3.75539 -0.0141282 0 4.06405 -0.0166079 0
          3.78839 -0.0154671 0 3.5 0 0 3.63059 -0.117071 0 3.30242 0.00320767 0
          3.58444 -0.0486806 0 3.21496 -0.0143718 0 3.54031 -0.0329471 0 3.15212 -0.0275022 0
          3.49758 -0.0266736 0 3.103 -0.0227527 0 3.45948 -0.0204422 0 3.06429 0.00432058 0
          0 0 0 0 0 0 0 0 0 0 0 0
          0 0 0 0 0 0 0 0 0 0 0 0
          0 0 0 0 0 0 0 0 0
        </DataArray>
      </PointData>
      <CellData Scalars="mu_t">
        <DataArray type="Float32" Name="mu_t" NumberOfComponents="1" format="ascii">
          0.00023633 0.00023013 0.000219511 0.000404588 0.000395904 0.000538195 0.000497183 0.0004975 0.000482822 0.000499527 0.000197348 0.000202104
          0.000192937 0.00046139 0.000486087 0.000884048 0.000871151 0.000893271 0.000885636 0.000936661 3.04283e-05 3.14522e-05 3.00245e-05 0.000296138
          0.000324613 0.00082485 0.000812951 0.000833612 0.000826574 0.000874335 3.1788e-06 3.28638e-06 3.13723e-06 0.000142595 0.000157988 0.000532329
          0.000524952 0.000538177 0.000533728 0.000564548 5.04659e-07 5.21679e-07 4.98007e-07 3.80599e-05 4.22193e-05 0.000195442 0.000192856 0.000197667
          0.000196069 0.000207375 1.09011e-07 1.12678e-07 1.07565e-07 9.3094e-06 1.0329e-05 5.42252e-05 5.35188e-05 5.48497e-05 5.44095e-05 5.75451e-05
          2.88948e-08 2.98652e-08 2.85101e-08 2.55993e-06 2.84045e-06 1.52983e-05 1.50996e-05 1.54749e-05 1.53509e-05 1.62355e-05 5.13857e-06 5.32021e-06
          5.51954e-06 6.40081e-06 6.62159e-06 9.22995e-06 9.28519e-06 9.47967e-06 9.54999e-06 9.83407e-06 2.97078e-05 3.06839e-05 3.17386e-05 3.22452e-05
          3.29562e-05 3.35514e-05 3.4093e-05 3.46875e-05 3.52152e-05 3.5693e-05 0.000143322 0.000147965 0.000152967 0.000155376 0.000158753 0.000161583
          0.000164159 0.000166987 0.000169498 0.000171773 0.000557242 0.000571913 0.00058675 0.000594292 0.000604615 0.000613432 0.000621453 0.000630288
          0.000638175 0.000645403 0.000768689 0.000770615 0.000770676 0.000771478 0.000772949 0.000774349 0.000775995 0.000777891 0.000779896 0.000781928
        </DataArray>
        <DataArray type="Float32" Name="nu_t" NumberOfComponents="1" format="ascii">
          0.000203298 0.000197906 0.00018874 0.000347781 0.00034027 0.000463406 0.000428862 0.000429167 0.000416535 0.000431073 0.00016978 0.000173865
          0.000165969 0.000396877 0.000418098 0.00076041 0.00074936 0.000768455 0.000761955 0.00080614 2.6167e-05 2.70492e-05 2.58215e-05 0.000254686
          0.000279174 0.000709401 0.000699163 0.000716952 0.000710907 0.000752121 2.73347e-06 2.82608e-06 2.69781e-06 0.000122625 0.000135862 0.000457787
          0.00045144 0.000462823 0.000458996 0.000485562 4.33962e-07 4.48607e-07 4.28246e-07 3.2729e-05 3.63056e-05 0.000168069 0.000165844 0.000169984
          0.000168609 0.000178351 9.37406e-08 9.68956e-08 9.24977e-08 8.00548e-06 8.88215e-06 4.66304e-05 4.60225e-05 4.71677e-05 4.67888e-05 4.94905e-05
          2.48474e-08 2.56822e-08 2.45165e-08 2.20138e-06 2.44259e-06 1.31557e-05 1.29846e-05 1.33076e-05 1.32008e-05 1.3963e-05 4.41877e-06 4.57505e-06
          4.74639e-06 5.50431e-06 5.6941e-06 7.93725e-06 7.98466e-06 8.15204e-06 8.21245e-06 8.45766e-06 2.55462e-05 2.63862e-05 2.72929e-05 2.77292e-05
          2.83404e-05 2.88528e-05 2.93184e-05 2.98302e-05 3.02838e-05 3.06981e-05 0.000123247 0.000127247 0.000131548 0.000133624 0.000136529 0.000138966
          0.000141181 0.000143616 0.000145775 0.000147748 0.000479396 0.000492021 0.000504773 0.000511263 0.00052013 0.000527715 0.0005346 0.0005422
          0.000548971 0.00055526 0.000661315 0.000662881 0.000662881 0.000663531 0.000664749 0.000665919 0.000667286 0.000668892 0.000670585 0.000672553
        </DataArray>
        <DataArray type="Float32" Name="l_mix" NumberOfComponents="1" format="ascii">
          0.00155392 0.00152209 0.00150922 0.001486 0.00146907 0.0014562 0.00142066 0.00141316 0.00140015 0.00140258 0.00706117 0.00701832
          0.00700034 0.00696608 0.00694048 0.00692006 0.00686174 0.00684883 0.00682603 0.00683033 0.0128963 0.0128815 0.012875 0.0128618
          0.0128517 0.0128431 0.0128177 0.0128117 0.012801 0.012803 0.0190468 0.0190439 0.0190426 0.0190397 0.0190374 0.0190353
          0.0190288 0.0190273 0.0190243 0.0190249 0.0257535 0.0257532 0.025753 0.0257525 0.0257522 0.0257519 0.0257507 0.0257504
          0.0257499 0.02575 0.0331229 0.0331229 0.0331229 0.0331228 0.0331228 0.0331228 0.0331226 0.0331226 0.0331225 0.0331225
          0.0412285 0.0412285 0.0412285 0.0412285 0.0412285 0.0412285 0.0412285 0.0412285 0.0412285 0.0412285 0.0495297 0.0495297
          0.0495297 0.0495296 0.0495296 0.0495296 0.0495296 0.0495296 0.0495296 0.0495296 0.0425463 0.0425461 0.042546 0.0425459
          0.0425459 0.0425458 0.0425457 0.0425456 0.0425456 0.0425455 0.0317447 0.031743 0.0317427 0.0317418 0.0317415 0.0317408
          0.0317403 0.0317398 0.0317394 0.0317389 0.0197263 0.0197149 0.0197126 0.0197069 0.0197047 0.0197002 0.0196975 0.0196942
          0.0196917 0.0196887 0.00561925 0.00559187 0.00558634 0.00557316 0.00556787 0.00555787 0.00555183 0.00554449 0.00553897 0.00553245
        </DataArray>
        <DataArray type="Float32" Name="u^+" NumberOfComponents="1" format="ascii">
          25.3977 24.464 24.0659 23.441 22.9373 21.976 23.4317 23.0125 22.9566 20.7236 52.7518 53.2941
          53.2117 53.2031 53.1371 52.5793 53.4946 53.0815 52.8823 51.2809 54.8297 57.9944 58.8678 60.5528
          61.7479 62.2743 64.1481 64.3033 64.7284 64.239 54.8057 58.0116 59.1903 61.4001 63.0387 64.0528
          66.4978 67.1882 68.2357 68.3676 54.5903 57.5496 58.784 61.0575 62.7498 63.877 66.4762 67.3647
          68.657 68.9098 54.4264 57.1899 58.4234 60.6705 62.3091 63.4365 66.0954 67.0293 68.3743 68.6641
          54.3637 57.0518 58.2754 60.4935 62.1025 63.227 65.902 66.8575 68.2232 68.5045 63.3983 65.9949
          67.0936 69.1309 70.503 71.6447 73.8685 74.8307 76.0629 76.4952 90.7585 93.3575 94.0814 95.573
          96.3293 97.5086 98.2548 99.2033 99.9807 100.884 91.1453 94.187 94.7534 96.1077 96.764 97.8191
          98.5425 99.404 100.121 100.91 89.138 90.0999 90.1737 90.5443 90.6834 90.9886 91.1683 91.4006
          91.6004 91.8123 43.5336 42.9447 42.7856 42.5347 42.3774 42.2036 42.0701 41.9168 41.7962 41.6612
        </DataArray>
        <DataArray type="Float32" Name="y^+" NumberOfComponents="1" format="ascii">
          25.3948 24.4477 24.0745 23.4191 22.9497 22.6012 21.6618 21.4689 21.1378 21.1994 78.7239 75.788
          74.6311 72.5991 71.1441 70.0639 67.1517 66.5535 65.5273 65.718 137.386 132.262 130.243 126.697
          124.158 122.273 117.19 116.147 114.356 114.688 201.914 194.384 191.417 186.205 182.473 179.702
          172.233 170.699 168.067 168.556 272.895 262.718 258.707 251.664 246.62 242.875 232.78 230.707
          227.149 227.81 350.974 337.885 332.727 323.668 317.181 312.365 299.382 296.715 292.14 292.99
          436.861 420.569 414.149 402.873 394.799 388.804 372.644 369.324 363.63 364.688 471.961 456.205
          450.19 439.564 432.062 426.321 411.53 408.271 402.924 403.617 270.933 267.092 266.338 264.524
          263.815 262.455 261.64 260.667 259.931 259.075 202.235 199.368 198.805 197.451 196.922 195.906
          195.298 194.572 194.022 193.384 126.666 124.871 124.518 123.67 123.339 122.703 122.322 121.867
          121.523 121.123 43.5416 42.9244 42.8031 42.5116 42.3978 42.1791 42.0482 41.8917 41.7735 41.636
        </DataArray>
        <DataArray type="Float32" Name="D_t" NumberOfComponents="1" format="ascii">
          0.000174118 0.000161232 0.000156062 0.00014775 0.000141534 0.000134463 0.000136536 0.000132979 0.000130359 0.00011903 0.00100285 0.000976827
          0.000960702 0.000935182 0.000915813 0.000897156 0.000878874 0.000864574 0.000848105 0.000825375 0.00181614 0.00184857 0.0018475 0.00184838
          0.00184714 0.00184317 0.0018283 0.00181678 0.00180076 0.00179277 0.00266768 0.00271686 0.00272914 0.00275299 0.00276973 0.00278409
          0.0027828 0.0027869 0.00278666 0.00280024 0.00359144 0.00364297 0.00366341 0.00370008 0.0037261 0.00375214 0.00375962 0.00377612
          0.00378898 0.00381404 0.00460512 0.00465594 0.00468263 0.00472856 0.0047586 0.0047925 0.00480747 0.00483217 0.00485277 0.00488752
          0.00572563 0.00578173 0.00581413 0.0058689 0.00590374 0.00594582 0.00596682 0.00599966 0.00602738 0.00606985 0.00688065 0.00695043
          0.00698785 0.00705205 0.00708996 0.00714008 0.00717034 0.00721158 0.00724665 0.0072956 0.00593007 0.0060115 0.0060404 0.00609358
          0.00612488 0.00616711 0.00619442 0.00623037 0.00626122 0.00630058 0.00444549 0.00452746 0.00454141 0.00457445 0.00459303 0.00461868
          0.00463809 0.00466091 0.00468117 0.00470527 0.00272549 0.0027177 0.00271235 0.00270567 0.00270281 0.00269839 0.00269553 0.00269277
          0.00269136 0.00269082 0.000514256 0.000500003 0.000496673 0.000490363 0.00048718 0.000482646 0.000479563 0.00047602 0.00047327 0.000470477
        </DataArray>
      </CellData>
      <Points>
        <DataArray type="Float32" Name="Coordinates" NumberOfComponents="3" format="ascii">
          0 0.25 0 0.05 0.25 0 0 0.261691 0 0.05 0.261691 0
          0.1 0.25 0 0.1 0.261691 0 0.15 0.25 0 0.15 0.261691 0
          0.2 0.25 0 0.2 0.261691 0 0.25 0.25 0 0.25 0.261691 0
          0.3 0.25 0 0.3 0.261691 0 0.35 0.25 0 0.35 0.261691 0
          0.4 0.25 0 0.4 0.261691 0 0.45 0.25 0 0.45 0.261691 0
          0.5 0.25 0 0.5 0.261691 0 0 0.274551 0 0.05 0.274551 0
          0.1 0.274551 0 0.15 0.274551 0 0.2 0.274551 0 0.25 0.274551 0
          0.3 0.274551 0 0.35 0.274551 0 0.4 0.274551 0 0.45 0.274551 0
          0.5 0.274551 0 0 0.288697 0 0.05 0.288697 0 0.1 0.288697 0
          0.15 0.288697 0 0.2 0.288697 0 0.25 0.288697 0 0.3 0.288697 0
          0.35 0.288697 0 0.4 0.288697 0 0.45 0.288697 0 0.5 0.288697 0
          0 0.304257 0 0.05 0.304257 0 0.1 0.304257 0 0.15 0.304257 0
          0.2 0.304257 0 0.25 0.304257 0 0.3 0.304257 0 0.35 0.304257 0
          0.4 0.304257 0 0.45 0.304257 0 0.5 0.304257 0 0 0.321374 0
          0.05 0.321374 0 0.1 0.321374 0 0.15 0.321374 0 0.2 0.321374 0
          0.25 0.321374 0 0.3 0.321374 0 0.35 0.321374 0 0.4 0.321374 0
          0.45 0.321374 0 0.5 0.321374 0 0 0.340202 0 0.05 0.340202 0
          0.1 0.340202 0 0.15 0.340202 0 0.2 0.340202 0 0.25 0.340202 0
          0.3 0.340202 0 0.35 0.340202 0 0.4 0.340202 0 0.45 0.340202 0
          0.5 0.340202 0 0 0.360913 0 0.05 0.360913 0 0.1 0.360913 0
          0.15 0.360913 0 0.2 0.360913 0 0.25 0.360913 0 0.3 0.360913 0
          0.35 0.360913 0 0.4 0.360913 0 0.45 0.360913 0 0.5 0.360913 0
          0 0.383695 0 0.05 0.383695 0 0.1 0.383695 0 0.15 0.383695 0
          0.2 0.383695 0 0.25 0.383695 0 0.3 0.383695 0 0.35 0.383695 0
          0.4 0.383695 0 0.45 0.383695 0 0.5 0.383695 0 0 0.408755 0
          0.05 0.408755 0 0.1 0.408755 0 0.15 0.408755 0 0.2 0.408755 0
          0.25 0.408755 0 0.3 0.408755 0 0.35 0.408755 0 0.4 0.408755 0
          0.45 0.408755 0 0.5 0.408755 0 0 0.436322 0 0.05 0.436322 0
          0.1 0.436322 0 0.15 0.436322 0 0.2 0.436322 0 0.25 0.436322 0
          0.3 0.436322 0 0.35 0.436322 0 0.4 0.436322 0 0.45 0.436322 0
          0.5 0.436322 0 0 0.466645 0 0.05 0.466645 0 0.1 0.466645 0
          0.15 0.466645 0 0.2 0.466645 0 0.25 0.466645 0 0.3 0.466645 0
          0.35 0.466645 0 0.4 0.466645 0 0.45 0.466645 0 0.5 0.466645 0
          0 0.5 0 0.05 0.5 0 0.1 0.5 0 0.15 0.5 0
          0.2 0.5 0 0.25 0.5 0 0.3 0.5 0 0.35 0.5 0
          0.4 0.5 0 0.45 0.5 0 0.5 0.5 0
        </DataArray>
      </Points>
      <Cells>
        <DataArray type="Int32" Name="connectivity" NumberOfComponents="1" format="ascii">
          0 1 3 2 1 4 5 3 4 6 7 5
          6 8 9 7 8 10 11 9 10 12 13 11
          12 14 15 13 14 16 17 15 16 18 19 17
          18 20 21 19 2 3 23 22 3 5 24 23
          5 7 25 24 7 9 26 25 9 11 27 26
          11 13 28 27 13 15 29 28 15 17 30 29
          17 19 31 30 19 21 32 31 22 23 34 33
          23 24 35 34 24 25 36 35 25 26 37 36
          26 27 38 37 27 28 39 38 28 29 40 39
          29 30 41 40 30 31 42 41 31 32 43 42
          33 34 45 44 34 35 46 45 35 36 47 46
          36 37 48 47 37 38 49 48 38 39 50 49
          39 40 51 50 40 41 52 51 41 42 53 52
          42 43 54 53 44 45 56 55 45 46 57 56
          46 47 58 57 47 48 59 58 48 49 60 59
          49 50 61 60 50 51 62 61 51 52 63 62
          52 53 64 63 53 54 65 64 55 56 67 66
          56 57 68 67 57 58 69 68 58 59 70 69
          59 60 71 70 60 61 72 71 61 62 73 72
          62 63 74 73 63 64 75 74 64 65 76 75
          66 67 78 77 67 68 79 78 68 69 80 79
          69 70 81 80 70 71 82 81 71 72 83 82
          72 73 84 83 73 74 85 84 74 75 86 85
          75 76 87 86 77 78 89 88 78 79 90 89
          79 80 91 90 80 81 92 91 81 82 93 92
          82 83 94 93 83 84 95 94 84 85 96 95
          85 86 97 96 86 87 98 97 88 89 100 99