<?xml version="1.0"?>
<VTKFile type="UnstructuredGrid" version="0.1" byte_order="LittleEndian">
  <UnstructuredGrid>
    <Piece NumberOfCells="60" NumberOfPoints="78">
      <PointData Scalars="Sn" Vectors="velocityW">
        <DataArray type="Float32" Name="Sn" NumberOfComponents="1" format="ascii">
          0.0123799 0.0123771 0.0158415 0.0158361 0.0123712 0.0158248 0.0123661 0.0158154 0.0123628 0.0158093 0.0123617 0.0158073
          0.0389118 0.0388374 0.0386853 0.0385584 0.038477 0.0384492 0.148014 0.147766 0.147253 0.14681 0.146528 0.146432
          0.360235 0.359836 0.358962 0.358205 0.35772 0.357559 0.582315 0.58194 0.581014 0.580241 0.579714 0.579536
          0.739208 0.738985 0.738107 0.73738 0.736924 0.736718 0.833779 0.833881 0.832852 0.831913 0.831426 0.831215
          0.889881 0.89082 0.889139 0.887411 0.886738 0.886385 0.925017 0.928232 0.924804 0.921238 0.920247 0.919475
          0.948618 0.95826 0.950357 0.943217 0.941973 0.940185 0.956586 0.989089 0.97014 0.958844 0.957607 0.95355
          0.9573 1 0.99749 0.963804 0.972103 0.960956
        </DataArray>
        <DataArray type="Float32" Name="Sw" NumberOfComponents="1" format="ascii">
          0.98762 0.987623 0.984158 0.984164 0.987629 0.984175 0.987634 0.984185 0.987637 0.984191 0.987638 0.984193
          0.961088 0.961163 0.961315 0.961442 0.961523 0.961551 0.851986 0.852234 0.852746 0.85319 0.853472 0.853568
          0.639765 0.640164 0.641038 0.641795 0.64228 0.642441 0.417685 0.41806 0.418986 0.419759 0.420286 0.420464
          0.260792 0.261015 0.261893 0.26262 0.263076 0.263282 0.166221 0.166119 0.167148 0.168087 0.168574 0.168785
          0.110119 0.10918 0.110861 0.112589 0.113262 0.113615 0.0749825 0.0717676 0.0751959 0.0787624 0.079753 0.0805248
          0.0513817 0.0417403 0.0496434 0.0567834 0.0580272 0.0598148 0.0434136 0.0109112 0.0298602 0.0411555 0.0423934 0.04645
          0.0426995 0 0.00250968 0.0361962 0.0278972 0.0390437
        </DataArray>
        <DataArray type="Float32" Name="pn" NumberOfComponents="1" format="ascii">
          100004 100004 100004 100004 100003 100003 100003 100002 100002 100002 100002 100002
          100004 100003 100003 100002 100002 100002 100003 100003 100002 100002 100001 100001
          100003 100003 100002 100001 100001 100001 100003 100003 100002 100001 100001 100001
          100003 100002 100001 100001 100000 100000 100003 100002 100001 100001 100000 100000
          100003 100002 100001 100000 99999.8 99999.7 100003 100003 99999.9 100000 99999.4 99999.5
          100003 100003 99998.8 100000 99998.9 99999.4 100003 100004 99997.2 100001 99998.1 99999.5
          100003 100005 99994.6 100002 99996.9 100000
        </DataArray>
        <DataArray type="Float32" Name="pw" NumberOfComponents="1" format="ascii">
          99659.2 99659.2 99333 99333 99659.3 99333 99659.3 99333.1 99659.3 99333.1 99659.3 99333.1
          99036.4 99036.4 99036.4 99036.5 99036.5 99036.5 98766.7 98766.7 98766.8 98766.9 98766.9 98766.9
          98521.6 98521.6 98521.6 98521.7 98521.8 98521.9 98298.6 98298.6 98298.7 98298.9 98299.1 98299.1
          98095.5 98095.3 98095.7 98096.2 98096.5 98096.7 97909.2 97908.4 97909.6 97911.4 97912.1 97912.5
          97734.7 97730.4 97735.1 97741.5 97743.5 97744.8 97562.6 97541.6 97560.5 97582.2 97587.1 97591.6
          97379.6 97271 97357.5 97426.6 97435.8 97451.2 97292.2 96347.5 97074.5 97261.2 97274.2 97323.9
          97283.2 95702.2 95840.7 97191.8 97032.7 97231.5
        </DataArray>
        <DataArray type="Float32" Name="pc" NumberOfComponents="1" format="ascii">
          345.168 344.819 671.109 670.745 344.092 669.996 343.466 669.365 343.062 668.959 342.924 668.819
          967.388 967.015 966.25 965.609 965.197 965.055 1236.74 1236.36 1235.57 1234.89 1234.46 1234.31
          1481.66 1481.27 1480.41 1479.66 1479.18 1479.02 1704.47 1704.06 1703.04 1702.2 1701.62 1701.43
          1907.52 1907.16 1905.77 1904.62 1903.89 1903.57 2093.81 2094.07 2091.5 2089.17 2087.97 2087.45
          2268.42 2272.14 2265.5 2258.8 2256.21 2254.87 2440.74 2461.18 2439.42 2418.01 2412.27 2407.86
          2623.81 2732.23 2641.33 2573.79 2563.11 2548.25 2711.22 3656.73 2922.61 2739.83 2723.9 2675.66
          2720.06 4302.49 4153.96 2810.58 2964.18 2768.5
        </DataArray>
        <DataArray type="Float32" Name="rhoW" NumberOfComponents="1" format="ascii">
          997.048 997.048 997.047 997.047 997.048 997.047 997.048 997.047 997.048 997.047 997.048 997.047
          997.047 997.047 997.047 997.047 997.047 997.047 997.047 997.047 997.047 997.047 997.047 997.047
          997.047 997.047 997.047 997.047 997.047 997.047 997.047 997.047 997.047 997.047 997.047 997.047
          997.047 997.047 997.047 997.047 997.047 997.047 997.047 997.047 997.047 997.047 997.047 997.047
          997.047 997.047 997.047 997.047 997.047 997.047 997.047 997.047 997.047 997.047 997.047 997.047
          997.047 997.046 997.047 997.047 997.047 997.047 997.046 997.046 997.046 997.046 997.046 997.046
          997.046 997.046 997.046 997.046 997.046 997.046
        </DataArray>
        <DataArray type="Float32" Name="rhoN" NumberOfComponents="1" format="ascii">
          1.15429 1.15428 1.15429 1.15428 1.15428 1.15427 1.15427 1.15427 1.15427 1.15426 1.15426 1.15426
          1.15428 1.15428 1.15427 1.15426 1.15426 1.15426 1.15428 1.15427 1.15427 1.15426 1.15425 1.15425
          1.15428 1.15427 1.15426 1.15425 1.15425 1.15425 1.15427 1.15427 1.15426 1.15425 1.15425 1.15424
          1.15427 1.15427 1.15425 1.15425 1.15424 1.15424 1.15427 1.15427 1.15425 1.15424 1.15424 1.15424
          1.15427 1.15427 1.15424 1.15424 1.15423 1.15423 1.15428 1.15427 1.15424 1.15424 1.15423 1.15423
          1.15428 1.15428 1.15422 1.15424 1.15422 1.15423 1.15428 1.15429 1.1542 1.15425 1.15422 1.15423
          1.15428 1.95481 1.15417 1.15427 1.1542 1.15424
        </DataArray>
        <DataArray type="Float32" Name="mobW" NumberOfComponents="1" format="ascii">
          1123.09 1123.09 1120.77 1120.77 1123.1 1120.78 1123.1 1120.79 1123.1 1120.8 1123.1 1120.8
          1064.14 1064.42 1064.98 1065.45 1065.75 1065.85 649.053 649.676 650.96 652.072 652.782 653.023
          264.396 264.899 266.001 266.96 267.576 267.779 73.837 74.0334 74.5193 74.9265 75.2052 75.2997
          18.4623 18.5088 18.6921 18.845 18.9412 18.9848 4.90951 4.90061 4.99077 5.07393 5.11737 5.13625
          1.44721 1.41062 1.4765 1.5463 1.57406 1.58873 0.454032 0.397143 0.457985 0.527391 0.547809 0.564069
          0.140865 0.0726202 0.126365 0.192698 0.206158 0.22655 0.0824222 0.000404791 0.0239308 0.0693826 0.0763501 0.102324
          0.0781406 0 0 0.045618 0.0189438 0.0584728
        </DataArray>
        <DataArray type="Float32" Name="mobN" NumberOfComponents="1" format="ascii">
          0.321812 0.32103 2.01501 2.01115 0.319407 2.00326 0.318011 1.99664 0.317116 1.99239 0.316808 1.99093
          52.7329 52.4565 51.8939 51.4269 51.1284 51.0264 1264.49 1259.89 1250.44 1242.3 1237.12 1235.36
          8168.59 8150.19 8110.02 8075.27 8053.04 8045.7 21240.7 21214.1 21148.8 21094.3 21057.2 21044.6
          33385.9 33367.3 33294.3 33233.8 33195.9 33178.8 41478.2 41487.1 41397.3 41315.4 41273 41254.6
          46381.2 46463 46316.6 46166 46107.3 46076.6 49840.8 50184.4 49817.9 49436.8 49331.2 49249.1
          52268.9 53128 52432 51743.2 51618.6 51437.6 52987.5 54776.8 53996.6 53176.1 53073.6 52722.8
          53047.9 54828.6 54828.6 53563.3 54115.4 53345.8
        </DataArray>
        <DataArray type="Float32" Name="X_liquid^H2O" NumberOfComponents="1" format="ascii">
          0.999978 0.999978 0.999978 0.999978 0.999978 0.999978 0.999978 0.999978 0.999978 0.999978 0.999978 0.999978
          0.999978 0.999978 0.999978 0.999978 0.999978 0.999978 0.999978 0.999978 0.999978 0.999978 0.999978 0.999978
          0.999978 0.999978 0.999978 0.999978 0.999978 0.999978 0.999978 0.999978 0.999978 0.999978 0.999978 0.999978
          0.999978 0.999978 0.999978 0.999978 0.999978 0.999978 0.999978 0.999978 0.999978 0.999978 0.999978 0.999978
          0.999978 0.999978 0.999978 0.999978 0.999978 0.999978 0.999978 0.999978 0.999978 0.999978 0.999978 0.999978
          0.999978 0.999978 0.999978 0.999978 0.999978 0.999978 0.999978 0.999978 0.999978 0.999978 0.999978 0.999978
          0.999978 -56.2016 0.999978 0.999978 0.999978 0.999978
        </DataArray>
        <DataArray type="Float32" Name="X_liquid^Air" NumberOfComponents="1" format="ascii">
          2.15478e-05 2.15478e-05 2.15478e-05 2.15477e-05 2.15476e-05 2.15475e-05 2.15475e-05 2.15474e-05 2.15474e-05 2.15473e-05 2.15474e-05 2.15473e-05
          2.15477e-05 2.15476e-05 2.15474e-05 2.15473e-05 2.15472e-05 2.15472e-05 2.15476e-05 2.15475e-05 2.15474e-05 2.15472e-05 2.15472e-05 2.15471e-05
          2.15476e-05 2.15475e-05 2.15473e-05 2.15472e-05 2.15471e-05 2.1547e-05 2.15475e-05 2.15474e-05 2.15472e-05 2.15471e-05 2.1547e-05 2.1547e-05
          2.15475e-05 2.15474e-05 2.15472e-05 2.1547e-05 2.15469e-05 2.15469e-05 2.15475e-05 2.15474e-05 2.15471e-05 2.1547e-05 2.15469e-05 2.15468e-05
          2.15475e-05 2.15474e-05 2.1547e-05 2.15469e-05 2.15468e-05 2.15468e-05 2.15476e-05 2.15475e-05 2.15468e-05 2.15469e-05 2.15467e-05 2.15467e-05
          2.15476e-05 2.15476e-05 2.15466e-05 2.15469e-05 2.15466e-05 2.15467e-05 2.15476e-05 2.15478e-05 2.15462e-05 2.15471e-05 2.15464e-05 2.15467e-05
          2.15476e-05 6.18949e-05 2.15457e-05 2.15474e-05 2.15462e-05 2.15469e-05
        </DataArray>
        <DataArray type="Float32" Name="X_gas^H2O" NumberOfComponents="1" format="ascii">
          0.019956 0.0199561 0.0199561 0.0199561 0.0199562 0.0199563 0.0199563 0.0199564 0.0199564 0.0199565 0.0199564 0.0199565
          0.0199561 0.0199562 0.0199563 0.0199565 0.0199565 0.0199566 0.0199562 0.0199563 0.0199564 0.0199565 0.0199566 0.0199566
          0.0199562 0.0199563 0.0199565 0.0199566 0.0199567 0.0199567 0.0199563 0.0199564 0.0199565 0.0199567 0.0199567 0.0199568
          0.0199563 0.0199564 0.0199566 0.0199567 0.0199568 0.0199568 0.0199563 0.0199564 0.0199567 0.0199568 0.0199569 0.0199569
          0.0199563 0.0199564 0.0199568 0.0199568 0.0199569 0.0199569 0.0199562 0.0199563 0.0199569 0.0199568 0.019957 0.019957
          0.0199562 0.0199562 0.0199571 0.0199568 0.0199571 0.019957 0.0199562 0.019956 0.0199575 0.0199567 0.0199573 0.019957
          0.0199562 -0.662273 0.019958 0.0199564 0.0199575 0.0199569
        </DataArray>
        <DataArray type="Float32" Name="X_gas^Air" NumberOfComponents="1" format="ascii">
          0.980044 0.980044 0.980044 0.980044 0.980044 0.980044 0.980044 0.980044 0.980044 0.980044 0.980044 0.980044
          0.980044 0.980044 0.980044 0.980044 0.980043 0.980043 0.980044 0.980044 0.980044 0.980043 0.980043 0.980043
          0.980044 0.980044 0.980044 0.980043 0.980043 0.980043 0.980044 0.980044 0.980043 0.980043 0.980043 0.980043
          0.980044 0.980044 0.980043 0.980043 0.980043 0.980043 0.980044 0.980044 0.980043 0.980043 0.980043 0.980043
          0.980044 0.980044 0.980043 0.980043 0.980043 0.980043 0.980044 0.980044 0.980043 0.980043 0.980043 0.980043
          0.980044 0.980044 0.980043 0.980043 0.980043 0.980043 0.980044 0.980044 0.980043 0.980043 0.980043 0.980043
          0.980044 1.66227 0.980042 0.980044 0.980043 0.980043
        </DataArray>
        <DataArray type="Float32" Name="x_liquid^H2O" NumberOfComponents="1" format="ascii">
          0.999987 0.999987 0.999987 0.999987 0.999987 0.999987 0.999987 0.999987 0.999987 0.999987 0.999987 0.999987
          0.999987 0.999987 0.999987 0.999987 0.999987 0.999987 0.999987 0.999987 0.999987 0.999987 0.999987 0.999987
          0.999987 0.999987 0.999987 0.999987 0.999987 0.999987 0.999987 0.999987 0.999987 0.999987 0.999987 0.999987
          0.999987 0.999987 0.999987 0.999987 0.999987 0.999987 0.999987 0.999987 0.999987 0.999987 0.999987 0.999987
          0.999987 0.999987 0.999987 0.999987 0.999987 0.999987 0.999987 0.999987 0.999987 0.999987 0.999987 0.999987
          0.999987 0.999987 0.999987 0.999987 0.999987 0.999987 0.999987 0.999987 0.999987 0.999987 0.999987 0.999987
          0.999987 -56.2016 0.999987 0.999987 0.999987 0.999987
        </DataArray>
        <DataArray type="Float32" Name="x_liquid^Air" NumberOfComponents="1" format="ascii">
          1.34044e-05 1.34043e-05 1.34043e-05 1.34043e-05 1.34042e-05 1.34042e-05 1.34042e-05 1.34041e-05 1.34041e-05 1.34041e-05 1.34041e-05 1.3404e-05
          1.34043e-05 1.34043e-05 1.34042e-05 1.34041e-05 1.3404e-05 1.3404e-05 1.34043e-05 1.34042e-05 1.34041e-05 1.3404e-05 1.3404e-05 1.3404e-05
          1.34042e-05 1.34042e-05 1.34041e-05 1.3404e-05 1.34039e-05 1.34039e-05 1.34042e-05 1.34041e-05 1.3404e-05 1.34039e-05 1.34039e-05 1.34039e-05
          1.34042e-05 1.34041e-05 1.3404e-05 1.34039e-05 1.34038e-05 1.34038e-05 1.34042e-05 1.34041e-05 1.34039e-05 1.34039e-05 1.34038e-05 1.34038e-05
          1.34042e-05 1.34041e-05 1.34039e-05 1.34038e-05 1.34037e-05 1.34037e-05 1.34042e-05 1.34042e-05 1.34038e-05 1.34038e-05 1.34037e-05 1.34037e-05
          1.34043e-05 1.34042e-05 1.34036e-05 1.34038e-05 1.34036e-05 1.34037e-05 1.34043e-05 1.34044e-05 1.34034e-05 1.34039e-05 1.34035e-05 1.34037e-05
          1.34042e-05 3.8503e-05 1.3403e-05 1.34041e-05 1.34034e-05 1.34038e-05
        </DataArray>
        <DataArray type="Float32" Name="x_gas^H2O" NumberOfComponents="1" format="ascii">
          0.0316956 0.0316958 0.0316957 0.0316959 0.031696 0.0316961 0.0316962 0.0316963 0.0316963 0.0316964 0.0316963 0.0316964
          0.0316959 0.031696 0.0316962 0.0316964 0.0316965 0.0316965 0.0316959 0.0316961 0.0316963 0.0316965 0.0316966 0.0316967
          0.031696 0.0316961 0.0316964 0.0316966 0.0316967 0.0316968 0.0316961 0.0316962 0.0316965 0.0316967 0.0316968 0.0316969
          0.0316961 0.0316963 0.0316966 0.0316968 0.0316969 0.031697 0.0316961 0.0316963 0.0316967 0.0316969 0.031697 0.0316971
          0.0316961 0.0316963 0.0316969 0.0316969 0.0316971 0.0316971 0.031696 0.0316962 0.0316971 0.031697 0.0316972 0.0316972
          0.031696 0.031696 0.0316974 0.0316969 0.0316974 0.0316972 0.031696 0.0316957 0.0316979 0.0316967 0.0316976 0.0316972
          0.031696 -1.78136 0.0316987 0.0316963 0.031698 0.031697
        </DataArray>
        <DataArray type="Float32" Name="x_gas^Air" NumberOfComponents="1" format="ascii">
          0.968304 0.968304 0.968304 0.968304 0.968304 0.968304 0.968304 0.968304 0.968304 0.968304 0.968304 0.968304
          0.968304 0.968304 0.968304 0.968304 0.968304 0.968303 0.968304 0.968304 0.968304 0.968304 0.968303 0.968303
          0.968304 0.968304 0.968304 0.968303 0.968303 0.968303 0.968304 0.968304 0.968304 0.968303 0.968303 0.968303
          0.968304 0.968304 0.968303 0.968303 0.968303 0.968303 0.968304 0.968304 0.968303 0.968303 0.968303 0.968303
          0.968304 0.968304 0.968303 0.968303 0.968303 0.968303 0.968304 0.968304 0.968303 0.968303 0.968303 0.968303
          0.968304 0.968304 0.968303 0.968303 0.968303 0.968303 0.968304 0.968304 0.968302 0.968303 0.968302 0.968303
          0.968304 2.78136 0.968301 0.968304 0.968302 0.968303
        </DataArray>
        <DataArray type="Float32" Name="porosity" NumberOfComponents="1" format="ascii">
          0.41 0.41 0.41 0.41 0.41 0.41 0.41 0.41 0.41 0.41 0.41 0.41
          0.41 0.41 0.41 0.41 0.41 0.41 0.41 0.41 0.41 0.41 0.41 0.41
          0.41 0.41 0.41 0.41 0.41 0.41 0.41 0.41 0.41 0.41 0.41 0.41
          0.41 0.41 0.41 0.41 0.41 0.41 0.41 0.41 0.41 0.41 0.41 0.41
          0.41 0.41 0.41 0.41 0.41 0.41 0.41 0.41 0.41 0.41 0.41 0.41
          0.41 0.41 0.41 0.41 0.41 0.41 0.41 0.41 0.41 0.41 0.41 0.41
          0.41 0.41 0.41 0.41 0.41 0.41
        </DataArray>
        <DataArray type="Float32" Name="temperature" NumberOfComponents="1" format="ascii">
          298.15 298.15 298.15 298.15 298.15 298.15 298.15 298.15 298.15 298.15 298.15 298.15
          298.15 298.15 298.15 298.15 298.15 298.15 298.15 298.15 298.15 298.15 298.15 298.15
          298.15 298.15 298.15 298.15 298.15 298.15 298.15 298.15 298.15 298.15 298.15 298.15
          298.15 298.15 298.15 298.15 298.15 298.15 298.15 298.15 298.15 298.15 298.15 298.15
          298.15 298.15 298.15 298.15 298.15 298.15 298.15 298.15 298.15 298.15 298.15 298.15
          298.15 298.15 298.15 298.15 298.15 298.15 298.15 298.15 298.15 298.15 298.15 298.15
          298.15 298.15 298.15 298.15 298.15 298.15
        </DataArray>
        <DataArray type="Float32" Name="phase presence" NumberOfComponents="1" format="ascii">
          3 3 3 3 3 3 3 3 3 3 3 3
          3 3 3 3 3 3 3 3 3 3 3 3
          3 3 3 3 3 3 3 3 3 3 3 3
          3 3 3 3 3 3 3 3 3 3 3 3
          3 3 3 3 3 3 3 3 3 3 3 3
          3 3 3 3 3 3 3 3 3 3 3 3
          3 2 3 3 3 3
        </DataArray>
        <DataArray type="Float32" Name="velocityW" NumberOfComponents="3" format="ascii">
          -5.94015e-08 4.02152e-08 0 -1.08083e-07 3.3064e-08 0 -6.35191e-08 8.16336e-08 0 -1.17245e-07 6.8225e-08 0
          -1.73922e-07 1.20334e-08 0 -1.89908e-07 2.50882e-08 0 -1.70127e-07 -1.33888e-08 0 -1.84508e-07 -2.78071e-08 0
          -1.02365e-07 -3.06399e-08 0 -1.09704e-07 -6.16978e-08 0 -5.55537e-08 -3.64723e-08 0 -5.92378e-08 -7.31148e-08 0
          -6.96039e-08 1.75568e-07 0 -1.35698e-07 1.53774e-07 0 -2.27794e-07 6.53077e-08 0 -2.19675e-07 -4.96805e-08 0
          -1.26605e-07 -1.14603e-07 0 -6.76565e-08 -1.3665e-07 0 -4.67458e-08 2.89715e-07 0 -1.05186e-07 2.71755e-07 0
          -1.96101e-07 1.46358e-07 0 -1.97027e-07 -3.68177e-08 0 -1.11707e-07 -1.27721e-07 0 -5.79375e-08 -1.57063e-07 0
          -1.47515e-08 4.11437e-07 0 -5.77538e-08 4.12695e-07 0 -1.27073e-07 2.6572e-07 0 -1.40277e-07 3.01784e-08 0
          -8.46489e-08 -8.62144e-08 0 -4.21341e-08 -1.17602e-07 0 7.20122e-09 5.12191e-07 0 -2.45212e-08 5.43336e-07 0
          -7.13055e-08 3.81453e-07 0 -7.94177e-08 1.17749e-07 0 -5.14899e-08 -1.86924e-08 0 -3.05116e-08 -5.38805e-08 0
          1.92905e-08 5.72954e-07 0 -1.0836e-08 6.39909e-07 0 -5.20188e-08 4.63677e-07 0 -4.91297e-08 1.80922e-07 0
          -2.81322e-08 4.09753e-08 0 -2.10801e-08 -3.70509e-09 0 3.05322e-08 5.98513e-07 0 -4.99186e-09 7.07974e-07 0
          -4.99311e-08 5.15273e-07 0 -4.13235e-08 2.1308e-07 0 -1.84098e-08 8.03538e-08 0 -1.35189e-08 2.7113e-08 0
          4.59327e-08 5.99075e-07 0 -7.52656e-10 7.61648e-07 0 -5.55343e-08 5.47408e-07 0 -4.10852e-08 2.2543e-07 0
          -1.59756e-08 1.03563e-07 0 -1.34113e-08 4.37292e-08 0 7.18734e-08 5.79728e-07 0 4.88157e-09 8.12767e-07 0
          -6.70412e-08 5.6797e-07 0 -4.33318e-08 2.25741e-07 0 -1.5548e-08 1.18514e-07 0 -1.64044e-08 5.00332e-08 0
          1.50931e-07 5.3035e-07 0 2.25264e-08 8.78269e-07 0 -9.27118e-08 5.7777e-07 0 -4.47448e-08 2.18706e-07 0
          -1.59674e-08 1.30265e-07 0 -2.19909e-08 4.90545e-08 0 4.01755e-07 2.97913e-07 0 1.64516e-07 4.61179e-07 0
          -9.47404e-08 5.33962e-07 0 -5.68406e-08 2.0321e-07 0 -1.58208e-08 1.43191e-07 0 -3.47191e-08 4.12199e-08 0
          5.88857e-07 1.00406e-07 0 2.94428e-07 4.81696e-09 0 -1.28139e-07 4.8841e-07 0 -1.1411e-07 1.92588e-07 0
          -1.10013e-08 1.50563e-07 0 -5.00607e-08 3.54359e-08 0
        </DataArray>
        <DataArray type="Float32" Name="velocityN" NumberOfComponents="3" format="ascii">
          5.85336e-10 -9.78552e-10 0 8.93098e-10 -7.93413e-10 0 3.77027e-09 -4.40711e-09 0 5.71836e-09 -3.06156e-09 0
          1.1047e-09 -5.239e-10 0 7.00069e-09 -1.12646e-09 0 8.23624e-10 -4.64674e-10 0 5.17656e-09 -7.51599e-10 0
          4.28193e-10 -4.47476e-10 0 2.69375e-09 -6.27565e-10 0 2.17676e-10 -4.42646e-10 0 1.36931e-09 -5.93746e-10 0
          1.008e-07 -7.84636e-08 0 1.51842e-07 -4.7143e-08 0 1.83897e-07 -2.96038e-09 0 1.34446e-07 4.40499e-09 0
          6.96024e-08 6.929e-09 0 3.52228e-08 7.49139e-09 0 2.46476e-06 -1.48283e-06 0 3.71806e-06 -7.85075e-07 0
          4.53315e-06 1.89305e-07 0 3.32976e-06 3.75344e-07 0 1.71259e-06 4.26075e-07 0 8.60595e-07 4.31778e-07 0
          1.65982e-05 -1.08043e-05 0 2.55523e-05 -5.81181e-06 0 3.10514e-05 1.97602e-06 0 2.22609e-05 3.23861e-06 0
          1.12693e-05 3.48995e-06 0 5.61321e-06 3.4805e-06 0 4.73421e-05 -3.9397e-05 0 7.42668e-05 -2.18718e-05 0
          8.72351e-05 9.55584e-06 0 5.90134e-05 1.18996e-05 0 2.96301e-05 1.26711e-05 0 1.4512e-05 1.23829e-05 0
          8.5531e-05 -9.37869e-05 0 0.000138343 -5.44404e-05 0 0.000151174 3.11998e-05 0 9.19215e-05 2.5688e-05 0
          4.7207e-05 2.92178e-05 0 2.17639e-05 2.72401e-05 0 0.000123147 -0.000171787 0 0.000215543 -0.000108342 0
          0.000211307 8.12919e-05 0 0.00010714 3.61258e-05 0 6.08922e-05 5.30816e-05 0 2.21788e-05 4.38207e-05 0
          0.000149231 -0.000264776 0 0.000315749 -0.000195475 0 0.000269754 0.000184601 0 9.97446e-05 2.53465e-05 0
          7.5127e-05 8.87004e-05 0 8.00364e-06 5.45281e-05 0 0.000137593 -0.000354636 0 0.000457392 -0.000343857 0
          0.000334408 0.000383987 0 6.39838e-05 -3.88006e-05 0 9.8406e-05 0.000151087 0 -3.9531e-05 4.57587e-05 0
          2.81369e-05 -0.000403953 0 0.00065704 -0.000606727 0 0.000409364 0.000749487 0 -1.19971e-05 -0.000211064 0
          0.000141459 0.000272456 0 -0.000160302 -8.45465e-06 0 -0.000232451 -0.00026944 0 0.000921887 -0.000504908 0
          0.000465567 0.00142461 0 -0.000142031 -0.000576948 0 0.000218406 0.000509634 0 -0.000424217 -0.000154263 0
          -0.000389042 -0.000126694 0 0.00116339 -0.000234529 0 0.000398223 0.00186475 0 -0.000273337 -0.000821123 0
          0.00030233 0.000666056 0 -0.000768045 -0.000257343 0
        </DataArray>
      </PointData>
      <CellData Scalars="process rank">
        <DataArray type="Float32" Name="process rank" NumberOfComponents="1" format="ascii">
          0 0 0 0 0 0 0 0 0 0 0 0
          0 0 0 0 0 0 0 0 0 0 0 0
          0 0 0 0 0 0 0 0 0 0 0 0
          0 0 0 0 0 0 0 0 0 0 0 0
          0 0 0 0 0 0 0 0 0 0 0 0
        </DataArray>
      </CellData>
      <Points>
        <DataArray type="Float32" Name="Coordinates" NumberOfComponents="3" format="ascii">
          0.25 0 0 0.3 0 0 0.25 0.0333553 0 0.3 0.0333553 0
          0.35 0 0 0.35 0.0333553 0 0.4 0 0 0.4 0.0333553 0
          0.45 0 0 0.45 0.0333553 0 0.5 0 0 0.5 0.0333553 0
          0.25 0.0636783 0 0.3 0.0636783 0 0.35 0.0636783 0 0.4 0.0636783 0
          0.45 0.0636783 0 0.5 0.0636783 0 0.25 0.0912447 0 0.3 0.0912447 0
          0.35 0.0912447 0 0.4 0.0912447 0 0.45 0.0912447 0 0.5 0.0912447 0
          0.25 0.116305 0 0.3 0.116305 0 0.35 0.116305 0 0.4 0.116305 0
          0.45 0.116305 0 0.5 0.116305 0 0.25 0.139087 0 0.3 0.139087 0
          0.35 0.139087 0 0.4 0.139087 0 0.45 0.139087 0 0.5 0.139087 0
          0.25 0.159798 0 0.3 0.159798 0 0.35 0.159798 0 0.4 0.159798 0
          0.45 0.159798 0 0.5 0.159798 0 0.25 0.178626 0 0.3 0.178626 0
          0.35 0.178626 0 0.4 0.178626 0 0.45 0.178626 0 0.5 0.178626 0
          0.25 0.195743 0 0.3 0.195743 0 0.35 0.195743 0 0.4 0.195743 0
          0.45 0.195743 0 0.5 0.195743 0 0.25 0.211303 0 0.3 0.211303 0
          0.35 0.211303 0 0.4 0.211303 0 0.45 0.211303 0 0.5 0.211303 0
          0.25 0.225449 0 0.3 0.225449 0 0.35 0.225449 0 0.4 0.225449 0
          0.45 0.225449 0 0.5 0.225449 0 0.25 0.238309 0 0.3 0.238309 0
          0.35 0.238309 0 0.4 0.238309 0 0.45 0.238309 0 0.5 0.238309 0
          0.25 0.25 0 0.3 0.25 0 0.35 0.25 0 0.4 0.25 0
          0.45 0.25 0 0.5 0.25 0
        </DataArray>
      </Points>
      <Cells>
        <DataArray type="Int32" Name="connectivity" NumberOfComponents="1" format="ascii">
          0 1 3 2 1 4 5 3 4 6 7 5
          6 8 9 7 8 10 11 9 2 3 13 12
          3 5 14 13 5 7 15 14 7 9 16 15
          9 11 17 16 12 13 19 18 13 14 20 19
          14 15 21 20 15 16 22 21 16 17 23 22
          18 19 25 24 19 20 26 25 20 21 27 26
          21 22 28 27 22 23 29 28 24 25 31 30
          25 26 32 31 26 27 33 32 27 28 34 33
          28 29 35 34 30 31 37 36 31 32 38 37
          32 33 39 38 33 34 40 39 34 35 41 40
          36 37 43 42 37 38 44 43 38 39 45 44
          39 40 46 45 40 41 47 46 42 43 49 48
          43 44 50 49 44 45 51 50 45 46 52 51
          46 47 53 52 48 49 55 54 49 50 56 55
          50 51 57 56 51 52 58 57 52 53 59 58
          54 55 61 60 55 56 62 61 56 57 63 62
          57 58 64 63 58 59 65 64 60 61 67 66
          61 62 68 67 62 63 69 68 63 64 70 69
          64 65 71 70 66 67 73 72 67 68 74 73
          68 69 75 74 69 70 76 75 70 71 77 76
        </DataArray>
        <DataArray type="Int32" Name="offsets" NumberOfComponents="1" format="ascii">
          4 8 12 16 20 24 28 32 36 40 44 48
          52 56 60 64 68 72 76 80 84 88 92 96
          100 104 108 112 116 120 124 128 132 136 140 144
          148 152 156 160 164 168 172 176 180 184 188 192
          196 200 204 208 212 216 220 224 228 232 236 240
        </DataArray>
        <DataArray type="UInt8" Name="types" NumberOfComponents="1" format="ascii">
          9 9 9 9 9 9 9 9 9 9 9 9
          9 9 9 9 9 9 9 9 9 9 9 9
          9 9 9 9 9 9 9 9 9 9 9 9
          9 9 9 9 9 9 9 9 9 9 9 9
          9 9 9 9 9 9 9 9 9 9 9 9
        </DataArray>
      </Cells>
    </Piece>
  </UnstructuredGrid>
</VTKFile>
