<?xml version="1.0"?>
<VTKFile type="UnstructuredGrid" version="0.1" byte_order="LittleEndian">
  <UnstructuredGrid>
    <Piece NumberOfCells="140" NumberOfPoints="165">
      <PointData Scalars="P" Vectors="v">
        <DataArray type="Float32" Name="P" NumberOfComponents="1" format="ascii">
          100013 99987.5 100013 99987.5 100012 100012 99989.5 99989.5 100009 100009 99991.8 99991.4
          100004 100006 99995.2 99993.9 100002 100003 99997.4 99996.6 100000 100000 100017 99986.2
          100012 99989.1 100009 99991.6 100004 99994.8 100002 99997.1 100000 100016 99986.1 100012
          99988.9 100009 99991.3 100006 99993.7 100003 99996.4 100000 100016 99985.8 100012 99988.7
          100009 99991.4 100005 99994.3 100003 99996.8 100000 100016 99985.9 100013 99988.6 100009
          99991.2 100006 99993.6 100003 99996.2 100000 100016 99985.6 100012 99988.5 100009 99991.2
          100006 99994 100003 99996.5 100000 100016 99985.8 100013 99988.5 100010 99991.1 100007
          99993.6 100003 99996.1 100000 100015 99985.6 100013 99988.4 100009 99991.1 100006 99993.8
          100003 99996.3 100000 100016 99985.9 100013 99988.6 100010 99991.2 100006 99993.7 100003
          99996.2 100000 100016 99985.6 100013 99988.5 100009 99991.1 100006 99993.7 100003 99996.3
          100000 100016 99986.2 100013 99988.9 100009 99991.5 100006 99993.9 100003 99996.4 100000
          100017 99985.9 100013 99988.9 100009 99991.5 100006 99994 100003 99996.4 100000 100014
          99988.8 100011 99990.3 100008 99992.3 100005 99994.4 100003 99996.8 100000 100014 99988.8
          100011 99990.2 100008 99992.2 100005 99994.4 100003 99996.7 100000
        </DataArray>
        <DataArray type="Float32" Name="delP" NumberOfComponents="1" format="ascii">
          12.7076 -12.4944 12.7147 -12.4873 11.5107 11.5158 -10.5337 -10.5425 8.73664 8.82837 -8.1863 -8.55834
          3.71338 6.01529 -4.74736 -6.10369 2.06491 3.03845 -2.64569 -3.44184 0 0 17.0911 -13.8382
          12.1097 -10.8541 8.76434 -8.37622 4.47049 -5.18672 2.29653 -2.85172 0 16.3375 -13.869 12.3292
          -11.0759 9.14513 -8.69817 6.3276 -6.28461 3.16632 -3.6495 0 15.9682 -14.1798 12.4226 -11.2616
          8.97968 -8.61862 5.23923 -5.70377 2.62091 -3.25261 0 15.8914 -14.1375 12.5677 -11.3627 9.39899
          -8.82092 6.47911 -6.38516 3.25645 -3.81505 0 15.6063 -14.3605 12.4864 -11.4896 9.17214 -8.80718
          5.73398 -6.04669 2.86099 -3.53875 0 15.7284 -14.2093 12.6345 -11.4624 9.52614 -8.87621 6.51491
          -6.40333 3.28669 -3.87779 0 15.4858 -14.4277 12.5174 -11.5889 9.30708 -8.90985 6.02325 -6.23515
          3.01125 -3.7002 0 15.8087 -14.1284 12.6719 -11.3985 9.53786 -8.81662 6.44795 -6.32764 3.24642
          -3.82551 0 15.5736 -14.3811 12.6134 -11.5458 9.36209 -8.87883 6.12034 -6.26007 3.04598 -3.72436
          0 16.2371 -13.7486 12.6556 -11.0583 9.35488 -8.53976 6.20463 -6.09136 3.08709 -3.63626 0
          16.825 -14.0623 12.6586 -11.126 9.10154 -8.52945 5.87794 -6.01488 2.89389 -3.61815 0 14.0212
          -11.1778 11.2851 -9.69385 8.39841 -7.73741 5.49221 -5.58784 2.66227 -3.24051 0 13.9477 -11.2514
          11.2436 -9.77021 8.35553 -7.79898 5.45532 -5.63381 2.63356 -3.28067 0
        </DataArray>
        <DataArray type="Float32" Name="x_gas^H2O" NumberOfComponents="1" format="ascii">
          0.0127981 0.0102663 0.0141522 0.0138445 0.00913757 0.0135929 0.00766004 0.0132375 0.00626842 0.0128278 0.00570891 0.0124788
          0.00901065 0.0124365 0.011238 0.0124141 0.0130469 0.01242 0.0149163 0.0125371 0.031697 0.0143012 0.0121553 0.0123204
          0.0123984 0.0124568 0.0124696 0.0124521 0.0124336 0.0124164 0.0124033 0.0124128 0.0131154 0.0120484 0.0120811 0.0121118
          0.0121489 0.0121786 0.0122018 0.0122135 0.0122245 0.0122328 0.0122538 0.0127947 0.0120979 0.0120998 0.0121043 0.0121121
          0.0121212 0.0121311 0.0121389 0.0121472 0.0121551 0.0121765 0.0126232 0.0121389 0.0121375 0.0121366 0.0121364 0.0121371
          0.0121387 0.0121406 0.0121431 0.0121462 0.0121646 0.0126356 0.0121649 0.0121635 0.0121623 0.012161 0.01216 0.0121593
          0.012159 0.0121588 0.0121597 0.0121798 0.0126548 0.0121784 0.0121775 0.0121766 0.0121756 0.0121746 0.0121737 0.0121729
          0.0121722 0.0121728 0.0121968 0.0126888 0.0121854 0.0121839 0.0121826 0.0121813 0.0121802 0.0121792 0.0121784 0.0121778
          0.0121792 0.0122084 0.0126996 0.0121789 0.0121782 0.0121775 0.0121767 0.0121763 0.0121763 0.0121767 0.0121778 0.0121813
          0.0122165 0.0127097 0.0121691 0.0121669 0.012166 0.0121667 0.012169 0.012173 0.0121781 0.0121847 0.0121936 0.0122313
          0.0127204 0.0121149 0.012127 0.0121423 0.0121631 0.0121842 0.0122079 0.01223 0.0122526 0.0122742 0.0123179 0.0128053
          0.0121618 0.0122622 0.012339 0.0124181 0.0124759 0.0125272 0.0125629 0.0125915 0.0126111 0.0126442 0.0131372 0.0142436
          0.014145 0.0140488 0.0139228 0.0138049 0.0136694 0.0135471 0.0134186 0.013303 0.0132063 0.0139505 0.0127981 0.011735
          0.010997 0.0100829 0.00942506 0.00874768 0.00825228 0.00779673 0.00744966 0.00714776 0.0127981
        </DataArray>
        <DataArray type="Float32" Name="X_gas^H2O" NumberOfComponents="1" format="ascii">
          0.008 0.00641127 0.008851 0.00865753 0.00570391 0.00849942 0.00477892 0.00827608 0.00390867 0.0080187 0.00355903 0.00779951
          0.00562442 0.00777293 0.00702063 0.00775889 0.00815631 0.00776257 0.00933162 0.00783609 0.0199569 0.00894472 0.00759637 0.00770003
          0.00774898 0.00778565 0.00779373 0.00778274 0.00777112 0.00776032 0.0077521 0.00775804 0.00819937 0.00752922 0.00754977 0.00756903
          0.00759235 0.00761099 0.00762557 0.0076329 0.00763982 0.00764504 0.00765818 0.00799789 0.0075603 0.00756152 0.00756436 0.00756926
          0.00757493 0.00758115 0.00758607 0.0075913 0.00759622 0.00760968 0.00789016 0.00758607 0.00758517 0.00758465 0.0075845 0.00758495
          0.00758591 0.00758715 0.00758868 0.00759066 0.00760221 0.00789796 0.00760242 0.00760154 0.00760073 0.00759991 0.00759931 0.00759884
          0.00759865 0.00759857 0.00759915 0.00761175 0.00790999 0.00761084 0.00761031 0.00760974 0.00760909 0.0076085 0.0076079 0.00760739
          0.00760696 0.00760737 0.0076224 0.00793134 0.00761526 0.00761433 0.0076135 0.0076127 0.007612 0.00761135 0.00761084 0.0076105
          0.00761135 0.00762972 0.00793818 0.00761116 0.00761075 0.00761028 0.00760982 0.00760955 0.00760951 0.00760978 0.00761047 0.00761271
          0.00763478 0.0079445 0.00760503 0.00760362 0.00760306 0.00760349 0.00760494 0.00760745 0.00761067 0.00761481 0.0076204 0.00764408
          0.00795124 0.00757101 0.00757858 0.00758822 0.00760123 0.00761452 0.00762938 0.00764325 0.00765744 0.00767101 0.00769845 0.00800455
          0.00760041 0.00766349 0.00771167 0.00776135 0.00779765 0.0078299 0.0078523 0.00787025 0.00788257 0.00790337 0.00821305 0.00890851
          0.0088465 0.00878598 0.00870676 0.00863267 0.00854747 0.00847062 0.0083899 0.00831723 0.00825644 0.0087242 0.008 0.00733255
          0.00686945 0.00629628 0.00588402 0.00545973 0.00514956 0.00486445 0.0046473 0.00445846 0.008
        </DataArray>
        <DataArray type="Float32" Name="x_gas^Air" NumberOfComponents="1" format="ascii">
          0.987202 0.989734 0.985848 0.986156 0.990862 0.986407 0.99234 0.986762 0.993732 0.987172 0.994291 0.987521
          0.990989 0.987563 0.988762 0.987586 0.986953 0.98758 0.985084 0.987463 0.968303 0.985699 0.987845 0.98768
          0.987602 0.987543 0.98753 0.987548 0.987566 0.987584 0.987597 0.987587 0.986885 0.987952 0.987919 0.987888
          0.987851 0.987821 0.987798 0.987787 0.987776 0.987767 0.987746 0.987205 0.987902 0.9879 0.987896 0.987888
          0.987879 0.987869 0.987861 0.987853 0.987845 0.987823 0.987377 0.987861 0.987863 0.987863 0.987864 0.987863
          0.987861 0.987859 0.987857 0.987854 0.987835 0.987364 0.987835 0.987836 0.987838 0.987839 0.98784 0.987841
          0.987841 0.987841 0.98784 0.98782 0.987345 0.987822 0.987822 0.987823 0.987824 0.987825 0.987826 0.987827
          0.987828 0.987827 0.987803 0.987311 0.987815 0.987816 0.987817 0.987819 0.98782 0.987821 0.987822 0.987822
          0.987821 0.987792 0.9873 0.987821 0.987822 0.987823 0.987823 0.987824 0.987824 0.987823 0.987822 0.987819
          0.987783 0.98729 0.987831 0.987833 0.987834 0.987833 0.987831 0.987827 0.987822 0.987815 0.987806 0.987769
          0.98728 0.987885 0.987873 0.987858 0.987837 0.987816 0.987792 0.98777 0.987747 0.987726 0.987682 0.987195
          0.987838 0.987738 0.987661 0.987582 0.987524 0.987473 0.987437 0.987409 0.987389 0.987356 0.986863 0.985756
          0.985855 0.985951 0.986077 0.986195 0.986331 0.986453 0.986581 0.986697 0.986794 0.986049 0.987202 0.988265
          0.989003 0.989917 0.990575 0.991252 0.991748 0.992203 0.99255 0.992852 0.987202
        </DataArray>
        <DataArray type="Float32" Name="X_gas^Air" NumberOfComponents="1" format="ascii">
          0.992 0.993589 0.991149 0.991342 0.994296 0.991501 0.995221 0.991724 0.996091 0.991981 0.996441 0.9922
          0.994376 0.992227 0.992979 0.992241 0.991844 0.992237 0.990668 0.992164 0.980043 0.991055 0.992404 0.9923
          0.992251 0.992214 0.992206 0.992217 0.992229 0.99224 0.992248 0.992242 0.991801 0.992471 0.99245 0.992431
          0.992408 0.992389 0.992374 0.992367 0.99236 0.992355 0.992342 0.992002 0.99244 0.992438 0.992436 0.992431
          0.992425 0.992419 0.992414 0.992409 0.992404 0.99239 0.99211 0.992414 0.992415 0.992415 0.992415 0.992415
          0.992414 0.992413 0.992411 0.992409 0.992398 0.992102 0.992398 0.992398 0.992399 0.9924 0.992401 0.992401
          0.992401 0.992401 0.992401 0.992388 0.99209 0.992389 0.99239 0.99239 0.992391 0.992392 0.992392 0.992393
          0.992393 0.992393 0.992378 0.992069 0.992385 0.992386 0.992387 0.992387 0.992388 0.992389 0.992389 0.99239
          0.992389 0.99237 0.992062 0.992389 0.992389 0.99239 0.99239 0.99239 0.992391 0.99239 0.99239 0.992387
          0.992365 0.992055 0.992395 0.992396 0.992397 0.992397 0.992395 0.992393 0.992389 0.992385 0.99238 0.992356
          0.992049 0.992429 0.992421 0.992412 0.992399 0.992386 0.992371 0.992357 0.992343 0.992329 0.992302 0.991995
          0.9924 0.992337 0.992288 0.992239 0.992202 0.99217 0.992148 0.99213 0.992117 0.992097 0.991787 0.991091
          0.991153 0.991214 0.991293 0.991367 0.991453 0.991529 0.99161 0.991683 0.991744 0.991276 0.992 0.992667
          0.993131 0.993704 0.994116 0.99454 0.99485 0.995136 0.995353 0.995542 0.992
        </DataArray>
        <DataArray type="Float32" Name="rho" NumberOfComponents="1" format="ascii">
          1.16273 1.16355 1.16213 1.16197 1.16433 1.16236 1.16473 1.16226 1.16557 1.16267 1.16562 1.16262
          1.1643 1.16281 1.16322 1.16268 1.1625 1.16278 1.16162 1.16266 1.15424 1.16192 1.16306 1.16263
          1.1629 1.16261 1.16283 1.16264 1.16279 1.16269 1.16278 1.16272 1.16244 1.1631 1.16274 1.16303
          1.16274 1.16296 1.16274 1.16291 1.16276 1.16287 1.16278 1.16258 1.16308 1.16272 1.16303 1.16275
          1.16298 1.16278 1.16293 1.1628 1.1629 1.16282 1.16266 1.16306 1.16271 1.16302 1.16274 1.16298
          1.16277 1.16295 1.1628 1.16291 1.16282 1.16265 1.16304 1.16269 1.16301 1.16273 1.16297 1.16276
          1.16293 1.16279 1.1629 1.16281 1.16264 1.16304 1.16269 1.163 1.16272 1.16297 1.16275 1.16293
          1.16278 1.1629 1.1628 1.16263 1.16303 1.16268 1.163 1.16272 1.16296 1.16275 1.16293 1.16278
          1.16289 1.1628 1.16262 1.16304 1.16269 1.163 1.16272 1.16297 1.16275 1.16293 1.16278 1.16289
          1.16279 1.16262 1.16304 1.16269 1.16301 1.16273 1.16297 1.16275 1.16293 1.16278 1.16288 1.16279
          1.16262 1.16307 1.16272 1.16302 1.16273 1.16296 1.16274 1.1629 1.16275 1.16285 1.16275 1.16258
          1.16306 1.16265 1.16293 1.16262 1.16283 1.1626 1.16275 1.1626 1.1627 1.16261 1.16243 1.16211
          1.16186 1.16216 1.16197 1.16223 1.16211 1.16231 1.16224 1.16239 1.16236 1.16207 1.16274 1.16292
          1.16351 1.16367 1.16417 1.16428 1.16465 1.16472 1.16497 1.16504 1.16258
        </DataArray>
        <DataArray type="Float32" Name="mu" NumberOfComponents="1" format="ascii">
          1.82387e-05 1.82387e-05 1.82387e-05 1.82387e-05 1.82387e-05 1.82387e-05 1.82387e-05 1.82387e-05 1.82387e-05 1.82387e-05 1.82387e-05 1.82387e-05
          1.82387e-05 1.82387e-05 1.82387e-05 1.82387e-05 1.82387e-05 1.82387e-05 1.82387e-05 1.82387e-05 1.82387e-05 1.82387e-05 1.82387e-05 1.82387e-05
          1.82387e-05 1.82387e-05 1.82387e-05 1.82387e-05 1.82387e-05 1.82387e-05 1.82387e-05 1.82387e-05 1.82387e-05 1.82387e-05 1.82387e-05 1.82387e-05
          1.82387e-05 1.82387e-05 1.82387e-05 1.82387e-05 1.82387e-05 1.82387e-05 1.82387e-05 1.82387e-05 1.82387e-05 1.82387e-05 1.82387e-05 1.82387e-05
          1.82387e-05 1.82387e-05 1.82387e-05 1.82387e-05 1.82387e-05 1.82387e-05 1.82387e-05 1.82387e-05 1.82387e-05 1.82387e-05 1.82387e-05 1.82387e-05
          1.82387e-05 1.82387e-05 1.82387e-05 1.82387e-05 1.82387e-05 1.82387e-05 1.82387e-05 1.82387e-05 1.82387e-05 1.82387e-05 1.82387e-05 1.82387e-05
          1.82387e-05 1.82387e-05 1.82387e-05 1.82387e-05 1.82387e-05 1.82387e-05 1.82387e-05 1.82387e-05 1.82387e-05 1.82387e-05 1.82387e-05 1.82387e-05
          1.82387e-05 1.82387e-05 1.82387e-05 1.82387e-05 1.82387e-05 1.82387e-05 1.82387e-05 1.82387e-05 1.82387e-05 1.82387e-05 1.82387e-05 1.82387e-05
          1.82387e-05 1.82387e-05 1.82387e-05 1.82387e-05 1.82387e-05 1.82387e-05 1.82387e-05 1.82387e-05 1.82387e-05 1.82387e-05 1.82387e-05 1.82387e-05
          1.82387e-05 1.82387e-05 1.82387e-05 1.82387e-05 1.82387e-05 1.82387e-05 1.82387e-05 1.82387e-05 1.82387e-05 1.82387e-05 1.82387e-05 1.82387e-05
          1.82387e-05 1.82387e-05 1.82387e-05 1.82387e-05 1.82387e-05 1.82387e-05 1.82387e-05 1.82387e-05 1.82387e-05 1.82387e-05 1.82387e-05 1.82387e-05
          1.82387e-05 1.82387e-05 1.82387e-05 1.82387e-05 1.82387e-05 1.82387e-05 1.82387e-05 1.82387e-05 1.82387e-05 1.82387e-05 1.82387e-05 1.82387e-05
          1.82387e-05 1.82387e-05 1.82387e-05 1.82387e-05 1.82387e-05 1.82387e-05 1.82387e-05 1.82387e-05 1.82387e-05 1.82387e-05 1.82387e-05 1.82387e-05
          1.82387e-05 1.82387e-05 1.82387e-05 1.82387e-05 1.82387e-05 1.82387e-05 1.82387e-05 1.82387e-05 1.82387e-05
        </DataArray>
        <DataArray type="Float32" Name="v" NumberOfComponents="3" format="ascii">
          0 0 0 0 0 0 3.5 0 0 3.5226 0.133438 0
          0 0 0 3.10316 0.039719 0 0 0 0 3.32715 0.096961 0
          0 0 0 2.78188 0.0977591 0 0 0 0 3.06058 0.102405 0
          -0.11585 -0.00175433 0 2.5538 -0.0717313 0 0.329198 0.00309016 0 2.90737 0.0240212 0
          -0.112085 -0.00199565 0 2.42867 -0.0148857 0 0.383762 0.00166675 0 2.78052 0.0462393 0
          -0.416815 -0.00102905 0 2.21882 0.147859 0 3.5 0 0 3.97609 0.135405 0
          3.63169 0.0331424 0 3.96463 0.105193 0 3.62015 0.0667963 0 3.99835 0.0771965 0
          3.62134 0.0251744 0 3.85316 0.0462399 0 3.5309 0.0299398 0 3.75456 0.0705104 0
          3.46603 0.162229 0 3.5 0 0 3.96827 0.0929367 0 3.64746 0.0569294 0
          4.0091 0.115684 0 3.73122 0.092696 0 4.07029 0.103997 0 3.78527 -0.00884432 0
          4.09312 0.0518353 0 3.80517 0.0221447 0 4.10274 0.0843089 0 3.86435 0.101275 0
          3.5 0 0 3.91554 0.0540102 0 3.58705 0.029717 0 3.97234 0.0668106 0
          3.68264 0.0384963 0 4.07347 0.0504208 0 3.76907 0.0303745 0 4.06878 0.0404587 0
          3.80093 0.0328165 0 4.09857 0.0586474 0 3.8703 0.0664373 0 3.5 0 0
          3.8872 0.0369149 0 3.56405 0.0374383 0 3.93426 0.0664146 0 3.64351 0.0470763 0
          3.99244 0.0581828 0 3.71146 -0.0031627 0 4.05399 0.0303095 0 3.7758 0.0104711 0
          4.11531 0.047378 0 3.85956 0.056677 0 3.5 0 0 3.86659 0.0129529 0
          3.53694 0.00779553 0 3.9143 0.0182653 0 3.61177 0.00450547 0 3.98751 0.00912037 0
          3.68696 0.0057465 0 4.01701 0.00688683 0 3.73891 0.00458341 0 4.06505 0.0128956 0
          3.81561 0.0152176 0 3.5 0 0 3.85981 0.0108028 0 3.53731 0.0102978 0
          3.90102 0.0195089 0 3.60194 0.00621133 0 3.95428 0.00999994 0 3.66873 -0.0207275 0
          4.0215 -0.00651749 0 3.74163 -0.018216 0 4.09276 -0.00166805 0 3.82757 0.00149796 0
          3.5 0 0 3.85133 -0.0120283 0 3.52373 -0.0193824 0 3.89305 -0.0279481 0
          3.58844 -0.0318127 0 3.95589 -0.037786 0 3.65992 -0.0330068 0 4.0035 -0.0399367 0
          3.72311 -0.0381835 0 4.06269 -0.0436588 0 3.8033 -0.0466215 0 3.5 0 0
          3.86121 -0.00871048 0 3.54081 -0.0211809 0 3.90559 -0.0295653 0 3.60758 -0.0375599 0
          3.96354 -0.0447584 0 3.6795 -0.0557033 0 4.03222 -0.056942 0 3.75518 -0.0612835 0
          4.1044 -0.0617452 0 3.83627 -0.065316 0 3.5 0 0 3.85781 -0.0444216 0
          3.53417 -0.0548395 0 3.90938 -0.0852568 0 3.61127 -0.0779024 0 3.97607 -0.0981896 0
          3.69005 -0.0838742 0 4.03606 -0.100415 0 3.7624 -0.0928283 0 4.10026 -0.10796 0
          3.83349 -0.11476 0 3.5 0 0 3.9148 -0.0504801 0 3.60302 -0.0663425 0
          3.97994 -0.102641 0 3.69544 -0.0925474 0 4.04625 -0.117329 0 3.77283 -0.106087 0
          4.10657 -0.122526 0 3.83405 -0.115244 0 4.15444 -0.123514 0 3.88892 -0.132939 0
          3.5 0 0 3.93781 -0.16003 0 3.62329 -0.102892 0 3.99176 -0.179883 0
          3.69481 -0.132121 0 4.02412 -0.172305 0 3.72759 -0.132419 0 4.02716 -0.15478 0
          3.72264 -0.129944 0 4.00363 -0.151494 0 3.69497 -0.169719 0 3.5 0 0
          3.66154 -0.162265 0 3.33194 -0.083821 0 3.51553 -0.151729 0 3.13616 -0.0987868 0
          3.34683 -0.129778 0 2.94836 -0.0922458 0 3.18654 -0.10351 0 2.78133 -0.0786423 0
          3.03593 -0.0965944 0 2.61509 -0.0181258 0 0 0 0 0 0 0
          0 0 0 0 0 0 0 0 0 0 0 0
          0 0 0 0 0 0 0 0 0 0 0 0
          0 0 0
        </DataArray>
      </PointData>
      <Points>
        <DataArray type="Float32" Name="Coordinates" NumberOfComponents="3" format="ascii">
          0 0.25 0 0.05 0.25 0 0 0.267873 0 0.05 0.267873 0
          0.1 0.25 0 0.1 0.267873 0 0.15 0.25 0 0.15 0.267873 0
          0.2 0.25 0 0.2 0.267873 0 0.25 0.25 0 0.25 0.267873 0
          0.3 0.25 0 0.3 0.267873 0 0.35 0.25 0 0.35 0.267873 0
          0.4 0.25 0 0.4 0.267873 0 0.45 0.25 0 0.45 0.267873 0
          0.5 0.25 0 0.5 0.267873 0 0 0.287534 0 0.05 0.287534 0
          0.1 0.287534 0 0.15 0.287534 0 0.2 0.287534 0 0.25 0.287534 0
          0.3 0.287534 0 0.35 0.287534 0 0.4 0.287534 0 0.45 0.287534 0
          0.5 0.287534 0 0 0.30916 0 0.05 0.30916 0 0.1 0.30916 0
          0.15 0.30916 0 0.2 0.30916 0 0.25 0.30916 0 0.3 0.30916 0
          0.35 0.30916 0 0.4 0.30916 0 0.45 0.30916 0 0.5 0.30916 0
          0 0.332949 0 0.05 0.332949 0 0.1 0.332949 0 0.15 0.332949 0
          0.2 0.332949 0 0.25 0.332949 0 0.3 0.332949 0 0.35 0.332949 0
          0.4 0.332949 0 0.45 0.332949 0 0.5 0.332949 0 0 0.359117 0
          0.05 0.359117 0 0.1 0.359117 0 0.15 0.359117 0 0.2 0.359117 0
          0.25 0.359117 0 0.3 0.359117 0 0.35 0.359117 0 0.4 0.359117 0
          0.45 0.359117 0 0.5 0.359117 0 0 0.387902 0 0.05 0.387902 0
          0.1 0.387902 0 0.15 0.387902 0 0.2 0.387902 0 0.25 0.387902 0
          0.3 0.387902 0 0.35 0.387902 0 0.4 0.387902 0 0.45 0.387902 0
          0.5 0.387902 0 0 0.419565 0 0.05 0.419565 0 0.1 0.419565 0
          0.15 0.419565 0 0.2 0.419565 0 0.25 0.419565 0 0.3 0.419565 0
          0.35 0.419565 0 0.4 0.419565 0 0.45 0.419565 0 0.5 0.419565 0
          0 0.454395 0 0.05 0.454395 0 0.1 0.454395 0 0.15 0.454395 0
          0.2 0.454395 0 0.25 0.454395 0 0.3 0.454395 0 0.35 0.454395 0
          0.4 0.454395 0 0.45 0.454395 0 0.5 0.454395 0 0 0.492708 0
          0.05 0.492708 0 0.1 0.492708 0 0.15 0.492708 0 0.2 0.492708 0
          0.25 0.492708 0 0.3 0.492708 0 0.35 0.492708 0 0.4 0.492708 0
          0.45 0.492708 0 0.5 0.492708 0 0 0.534851 0 0.05 0.534851 0
          0.1 0.534851 0 0.15 0.534851 0 0.2 0.534851 0 0.25 0.534851 0
          0.3 0.534851 0 0.35 0.534851 0 0.4 0.534851 0 0.45 0.534851 0
          0.5 0.534851 0 0 0.58121 0 0.05 0.58121 0 0.1 0.58121 0
          0.15 0.58121 0 0.2 0.58121 0 0.25 0.58121 0 0.3 0.58121 0
          0.35 0.58121 0 0.4 0.58121 0 0.45 0.58121 0 0.5 0.58121 0
          0 0.632204 0 0.05 0.632204 0 0.1 0.632204 0 0.15 0.632204 0
          0.2 0.632204 0 0.25 0.632204 0 0.3 0.632204 0 0.35 0.632204 0
          0.4 0.632204 0 0.45 0.632204 0 0.5 0.632204 0 0 0.688297 0
          0.05 0.688297 0 0.1 0.688297 0 0.15 0.688297 0 0.2 0.688297 0
          0.25 0.688297 0 0.3 0.688297 0 0.35 0.688297 0 0.4 0.688297 0
          0.45 0.688297 0 0.5 0.688297 0 0 0.75 0 0.05 0.75 0
          0.1 0.75 0 0.15 0.75 0 0.2 0.75 0 0.25 0.75 0
          0.3 0.75 0 0.35 0.75 0 0.4 0.75 0 0.45 0.75 0
          0.5 0.75 0
        </DataArray>
      </Points>
      <Cells>
        <DataArray type="Int32" Name="connectivity" NumberOfComponents="1" format="ascii">
          0 1 3 2 1 4 5 3 4 6 7 5
          6 8 9 7 8 10 11 9 10 12 13 11
          12 14 15 13 14 16 17 15 16 18 19 17
          18 20 21 19 2 3 23 22 3 5 24 23
          5 7 25 24 7 9 26 25 9 11 27 26
          11 13 28 27 13 15 29 28 15 17 30 29
          17 19 31 30 19 21 32 31 22 23 34 33
          23 24 35 34 24 25 36 35 25 26 37 36
          26 27 38 37 27 28 39 38 28 29 40 39
          29 30 41 40 30 31 42 41 31 32 43 42
          33 34 45 44 34 35 46 45 35 36 47 46
          36 37 48 47 37 38 49 48 38 39 50 49
          39 40 51 50 40 41 52 51 41 42 53 52
          42 43 54 53 44 45 56 55 45 46 57 56
          46 47 58 57 47 48 59 58 48 49 60 59
          49 50 61 60 50 51 62 61 51 52 63 62
          52 53 64 63 53 54 65 64 55 56 67 66
          56 57 68 67 57 58 69 68 58 59 70 69
          59 60 71 70 60 61 72 71 61 62 73 72
          62 63 74 73 63 64 75 74 64 65 76 75
          66 67 78 77 67 68 79 78 68 69 80 79
          69 70 81 80 70 71 82 81 71 72 83 82
          72 73 84 83 73 74 85 84 74 75 86 85
          75 76 87 86 77 78 89 88 78 79 90 89
          79 80 91 90 80 81 92 91 81 82 93 92
          82 83 94 93 83 84 95 94 84 85 96 95
          85 86 97 96 86 87 98 97 88 89 100 99
          89 90 101 100 90 91 102 101 91 92 103 102
          92 93 104 103 93 94 105 104 94 95 106 105
          95 96 107 106 96 97 108 107 97 98 109 108
          99 100 111 110 100 101 112 111 101 102 113 112
          102 103 114 113 103 104 115 114 104 105 116 115
          105 106 117 116 106 107 118 117 107 108 119 118
          108 109 120 119 110 111 122 121 111 112 123 122
          112 113 124 123 113 114 125 124 114 115 126 125
          115 116 127 126 116 117 128 127 117 118 129 128
          118 119 130 129 119 120 131 130 121 122 133 132
          122 123 134 133 123 124 135 134 124 125 136 135
          125 126 137 136 126 127 138 137 127 128 139 138
          128 129 140 139 129 130 141 140 130 131 142 141
          132 133 144 143 133 134 145 144 134 135 146 145
          135 136 147 146 136 137 148 147 137 138 149 148
          138 139 150 149 139 140 151 150 140 141 152 151
          141 142 153 152 143 144 155 154 144 145 156 155
          145 146 157 156 146 147 158 157 147 148 159 158
          148 149 160 159 149 150 161 160 150 151 162 161
          151 152 163 162 152 153 164 163
        </DataArray>
        <DataArray type="Int32" Name="offsets" NumberOfComponents="1" format="ascii">
          4 8 12 16 20 24 28 32 36 40 44 48
          52 56 60 64 68 72 76 80 84 88 92 96
          100 104 108 112 116 120 124 128 132 136 140 144
          148 152 156 160 164 168 172 176 180 184 188 192
          196 200 204 208 212 216 220 224 228 232 236 240
          244 248 252 256 260 264 268 272 276 280 284 288
          292 296 300 304 308 312 316 320 324 328 332 336
          340 344 348 352 356 360 364 368 372 376 380 384
          388 392 396 400 404 408 412 416 420 424 428 432
          436 440 444 448 452 456 460 464 468 472 476 480
          484 488 492 496 500 504 508 512 516 520 524 528
          532 536 540 544 548 552 556 560
        </DataArray>
        <DataArray type="UInt8" Name="types" NumberOfComponents="1" format="ascii">
          9 9 9 9 9 9 9 9 9 9 9 9
          9 9 9 9 9 9 9 9 9 9 9 9
          9 9 9 9 9 9 9 9 9 9 9 9
          9 9 9 9 9 9 9 9 9 9 9 9
          9 9 9 9 9 9 9 9 9 9 9 9
          9 9 9 9 9 9 9 9 9 9 9 9
          9 9 9 9 9 9 9 9 9 9 9 9
          9 9 9 9 9 9 9 9 9 9 9 9
          9 9 9 9 9 9 9 9 9 9 9 9
          9 9 9 9 9 9 9 9 9 9 9 9
          9 9 9 9 9 9 9 9 9 9 9 9
          9 9 9 9 9 9 9 9
        </DataArray>
      </Cells>
    </Piece>
  </UnstructuredGrid>
</VTKFile>
