<?xml version="1.0"?>
<VTKFile type="UnstructuredGrid" version="0.1" byte_order="LittleEndian">
  <UnstructuredGrid>
    <Piece NumberOfCells="60" NumberOfPoints="78">
      <PointData Scalars="Sn" Vectors="velocityW">
        <DataArray type="Float32" Name="Sn" NumberOfComponents="1" format="ascii">
          0.0123255 0.0123233 0.0157413 0.0157372 0.0123189 0.015729 0.0123151 0.0157221 0.0123127 0.0157177 0.0123119 0.0157162
          0.0375876 0.037533 0.0374242 0.0373334 0.0372753 0.0372553 0.143627 0.143444 0.143077 0.142767 0.14256 0.142489
          0.353319 0.353024 0.352405 0.351886 0.351524 0.351391 0.575965 0.575693 0.575072 0.574571 0.574184 0.574005
          0.734608 0.734456 0.733973 0.733587 0.733168 0.732968 0.830377 0.830458 0.830138 0.829802 0.829163 0.828829
          0.886766 0.887369 0.887246 0.886824 0.88555 0.884837 0.921316 0.923144 0.923293 0.922607 0.919913 0.918351
          0.943912 0.948638 0.949114 0.947986 0.942345 0.939146 0.9589 0.971051 0.971628 0.97008 0.958081 0.952383
          0.948976 1 1 0.997243 0.963719 0.963211
        </DataArray>
        <DataArray type="Float32" Name="Sw" NumberOfComponents="1" format="ascii">
          0.987675 0.987677 0.984259 0.984263 0.987681 0.984271 0.987685 0.984278 0.987687 0.984282 0.987688 0.984284
          0.962412 0.962467 0.962576 0.962667 0.962725 0.962745 0.856373 0.856556 0.856923 0.857233 0.85744 0.857511
          0.646681 0.646976 0.647595 0.648114 0.648476 0.648609 0.424035 0.424307 0.424928 0.425429 0.425816 0.425995
          0.265392 0.265544 0.266027 0.266413 0.266832 0.267032 0.169623 0.169542 0.169862 0.170198 0.170837 0.171171
          0.113234 0.112631 0.112754 0.113176 0.11445 0.115163 0.0786844 0.0768562 0.0767066 0.0773932 0.0800868 0.0816487
          0.0560883 0.0513619 0.0508864 0.0520137 0.0576547 0.0608541 0.0411 0.0289489 0.0283723 0.0299203 0.0419193 0.0476165
          0.0510243 0 0 0.00275744 0.0362815 0.0367887
        </DataArray>
        <DataArray type="Float32" Name="pn" NumberOfComponents="1" format="ascii">
          100004 100003 100003 100003 100003 100003 100002 100002 100002 100002 100002 100002
          100003 100003 100002 100002 100002 100001 100003 100002 100002 100001 100001 100001
          100003 100002 100002 100001 100001 100001 100002 100002 100001 100001 100001 100000
          100002 100002 100001 100001 100000 100000 100002 100002 100001 100000 100000 99999.9
          100002 100002 100000 100000 99999.7 99999.6 100002 100002 99999.6 100000 99999.3 99999.5
          100002 100002 99998.6 100000 99998.8 99999.4 100002 100003 99997.1 100001 99998.1 99999.5
          100002 100005 99994.7 100002 99996.9 100000
        </DataArray>
        <DataArray type="Float32" Name="pw" NumberOfComponents="1" format="ascii">
          99665.3 99665.3 99339.1 99339.1 99665.3 99339.1 99665.3 99339.1 99665.3 99339.1 99665.3 99339.1
          99042.5 99042.5 99042.5 99042.5 99042.5 99042.5 98772.8 98772.8 98772.8 98772.9 98772.9 98772.9
          98527.7 98527.7 98527.7 98527.7 98527.8 98527.8 98304.8 98304.8 98304.8 98304.8 98304.9 98305
          98102 98101.8 98101.8 98101.9 98102.3 98102.5 97916.8 97916.2 97915.9 97916.3 97917.5 97918.3
          97745.9 97743.1 97742.1 97743.6 97748 97750.6 97583.9 97572.6 97569.4 97574 97589 97597.9
          97422.5 97378.3 97369.9 97382.7 97432.6 97459.5 97261.8 97061.8 97043.3 97079.6 97268.2 97336.7
          97374.5 95702.2 95692.2 95863.1 97187.6 97198.6
        </DataArray>
        <DataArray type="Float32" Name="pc" NumberOfComponents="1" format="ascii">
          338.432 338.165 664.361 664.082 337.619 663.521 337.15 663.05 336.852 662.75 336.75 662.647
          960.628 960.343 959.775 959.3 958.995 958.89 1229.96 1229.67 1229.1 1228.61 1228.29 1228.18
          1474.84 1474.55 1473.93 1473.42 1473.06 1472.93 1697.54 1697.24 1696.57 1696.02 1695.6 1695.41
          1900.25 1900.01 1899.25 1898.65 1898 1897.69 2085.39 2085.59 2084.81 2083.98 2082.43 2081.62
          2256.32 2258.63 2258.16 2256.54 2251.7 2249.02 2418.47 2429.31 2430.21 2426.09 2410.36 2401.52
          2579.88 2624 2628.72 2617.62 2566.28 2539.86 2740.56 2941.42 2953.75 2921.4 2729.93 2662.78
          2627.35 4302.49 4302.49 4139.29 2809.26 2801.47
        </DataArray>
        <DataArray type="Float32" Name="rhoW" NumberOfComponents="1" format="ascii">
          997.048 997.048 997.047 997.047 997.048 997.047 997.048 997.047 997.048 997.047 997.048 997.047
          997.047 997.047 997.047 997.047 997.047 997.047 997.047 997.047 997.047 997.047 997.047 997.047
          997.047 997.047 997.047 997.047 997.047 997.047 997.047 997.047 997.047 997.047 997.047 997.047
          997.047 997.047 997.047 997.047 997.047 997.047 997.047 997.047 997.047 997.047 997.047 997.047
          997.047 997.047 997.047 997.047 997.047 997.047 997.047 997.047 997.047 997.047 997.047 997.047
          997.047 997.047 997.047 997.047 997.047 997.047 997.046 997.046 997.046 997.046 997.046 997.046
          997.047 997.046 997.046 997.046 997.046 997.046
        </DataArray>
        <DataArray type="Float32" Name="rhoN" NumberOfComponents="1" format="ascii">
          1.15428 1.15428 1.15428 1.15427 1.15427 1.15427 1.15427 1.15426 1.15426 1.15426 1.15426 1.15426
          1.15427 1.15427 1.15426 1.15426 1.15425 1.15425 1.15427 1.15427 1.15426 1.15425 1.15425 1.15425
          1.15427 1.15426 1.15426 1.15425 1.15425 1.15425 1.15426 1.15426 1.15425 1.15425 1.15424 1.15424
          1.15426 1.15426 1.15425 1.15424 1.15424 1.15424 1.15426 1.15426 1.15425 1.15424 1.15424 1.15424
          1.15426 1.15426 1.15424 1.15424 1.15423 1.15423 1.15426 1.15426 1.15423 1.15424 1.15423 1.15423
          1.15427 1.15426 1.15422 1.15424 1.15422 1.15423 1.15426 1.15427 1.1542 1.15425 1.15422 1.15423
          1.15426 1.16043 1.15722 1.15427 1.1542 1.15424
        </DataArray>
        <DataArray type="Float32" Name="mobW" NumberOfComponents="1" format="ascii">
          1123.11 1123.12 1120.86 1120.86 1123.12 1120.87 1123.12 1120.88 1123.12 1120.88 1123.12 1120.88
          1068.98 1069.18 1069.57 1069.89 1070.1 1070.17 660.112 660.579 661.51 662.301 662.827 663.008
          273.204 273.584 274.383 275.055 275.523 275.696 77.207 77.3538 77.6893 77.9608 78.1708 78.2676
          19.435 19.4678 19.572 19.6554 19.7462 19.7899 5.21186 5.20451 5.23352 5.26412 5.32263 5.35336
          1.57292 1.54804 1.55306 1.57051 1.62383 1.65419 0.525804 0.489503 0.486607 0.499991 0.554803 0.588303
          0.185432 0.140694 0.136629 0.146393 0.202065 0.238986 0.0690801 0.0215218 0.0200819 0.0240957 0.0736305 0.110726
          0.1378 0 0 0 0.0459732 0.0481239
        </DataArray>
        <DataArray type="Float32" Name="mobN" NumberOfComponents="1" format="ascii">
          0.306953 0.306373 1.94502 1.94218 0.30519 1.9365 0.304178 1.93174 0.303536 1.92872 0.303316 1.92768
          47.9247 47.7315 47.3474 47.0284 46.8248 46.7547 1184.56 1181.27 1174.72 1169.18 1165.51 1164.24
          7852.74 7839.42 7811.47 7788.05 7771.77 7765.78 20793.9 20774.8 20731.4 20696.3 20669.3 20656.8
          33003.6 32991 32950.9 32918.9 32884.2 32867.6 41181.5 41188.6 41160.7 41131.4 41075.7 41046.6
          46109.7 46162.3 46151.6 46114.8 46003.7 45941.5 49445.1 49640.4 49656.4 49583 49295.7 49129.7
          51812.3 52270.8 52315.7 52208.8 51656.1 51331.3 53180.7 54052.7 54087.4 53992.9 53113.1 52618
          52302.7 54828.6 54828.6 54828.6 53557 53519.1
        </DataArray>
        <DataArray type="Float32" Name="X_liquid^H2O" NumberOfComponents="1" format="ascii">
          0.999978 0.999978 0.999978 0.999978 0.999978 0.999978 0.999978 0.999978 0.999978 0.999978 0.999978 0.999978
          0.999978 0.999978 0.999978 0.999978 0.999978 0.999978 0.999978 0.999978 0.999978 0.999978 0.999978 0.999978
          0.999978 0.999978 0.999978 0.999978 0.999978 0.999978 0.999978 0.999978 0.999978 0.999978 0.999978 0.999978
          0.999978 0.999978 0.999978 0.999978 0.999978 0.999978 0.999978 0.999978 0.999978 0.999978 0.999978 0.999978
          0.999978 0.999978 0.999978 0.999978 0.999978 0.999978 0.999978 0.999978 0.999978 0.999978 0.999978 0.999978
          0.999978 0.999978 0.999978 0.999978 0.999978 0.999978 0.999978 0.999978 0.999978 0.999978 0.999978 0.999978
          0.999978 0.561578 0.782463 0.999978 0.999978 0.999978
        </DataArray>
        <DataArray type="Float32" Name="X_liquid^Air" NumberOfComponents="1" format="ascii">
          2.15477e-05 2.15476e-05 2.15476e-05 2.15475e-05 2.15475e-05 2.15474e-05 2.15474e-05 2.15473e-05 2.15473e-05 2.15473e-05 2.15473e-05 2.15472e-05
          2.15475e-05 2.15475e-05 2.15474e-05 2.15472e-05 2.15472e-05 2.15472e-05 2.15475e-05 2.15474e-05 2.15473e-05 2.15472e-05 2.15471e-05 2.15471e-05
          2.15474e-05 2.15473e-05 2.15472e-05 2.15471e-05 2.1547e-05 2.1547e-05 2.15474e-05 2.15473e-05 2.15471e-05 2.1547e-05 2.1547e-05 2.15469e-05
          2.15473e-05 2.15473e-05 2.15471e-05 2.1547e-05 2.15469e-05 2.15469e-05 2.15473e-05 2.15472e-05 2.1547e-05 2.15469e-05 2.15468e-05 2.15468e-05
          2.15474e-05 2.15472e-05 2.15469e-05 2.15469e-05 2.15468e-05 2.15468e-05 2.15474e-05 2.15473e-05 2.15468e-05 2.15469e-05 2.15467e-05 2.15467e-05
          2.15474e-05 2.15474e-05 2.15465e-05 2.15469e-05 2.15466e-05 2.15467e-05 2.15474e-05 2.15476e-05 2.15462e-05 2.15471e-05 2.15464e-05 2.15467e-05
          2.15473e-05 2.1857e-05 2.1699e-05 2.15474e-05 2.15462e-05 2.15469e-05
        </DataArray>
        <DataArray type="Float32" Name="X_gas^H2O" NumberOfComponents="1" format="ascii">
          0.0199561 0.0199562 0.0199562 0.0199562 0.0199563 0.0199564 0.0199564 0.0199565 0.0199564 0.0199565 0.0199565 0.0199565
          0.0199563 0.0199563 0.0199564 0.0199565 0.0199566 0.0199566 0.0199563 0.0199564 0.0199565 0.0199566 0.0199566 0.0199567
          0.0199564 0.0199564 0.0199566 0.0199567 0.0199567 0.0199567 0.0199564 0.0199565 0.0199566 0.0199567 0.0199568 0.0199568
          0.0199564 0.0199565 0.0199567 0.0199568 0.0199568 0.0199569 0.0199564 0.0199565 0.0199567 0.0199568 0.0199569 0.0199569
          0.0199564 0.0199565 0.0199568 0.0199569 0.019957 0.019957 0.0199564 0.0199565 0.019957 0.0199569 0.019957 0.019957
          0.0199564 0.0199564 0.0199572 0.0199568 0.0199571 0.019957 0.0199564 0.0199562 0.0199575 0.0199567 0.0199573 0.019957
          0.0199565 0.0111479 0.0155757 0.0199564 0.0199575 0.0199569
        </DataArray>
        <DataArray type="Float32" Name="X_gas^Air" NumberOfComponents="1" format="ascii">
          0.980044 0.980044 0.980044 0.980044 0.980044 0.980044 0.980044 0.980044 0.980044 0.980043 0.980044 0.980043
          0.980044 0.980044 0.980044 0.980043 0.980043 0.980043 0.980044 0.980044 0.980044 0.980043 0.980043 0.980043
          0.980044 0.980044 0.980043 0.980043 0.980043 0.980043 0.980044 0.980044 0.980043 0.980043 0.980043 0.980043
          0.980044 0.980043 0.980043 0.980043 0.980043 0.980043 0.980044 0.980043 0.980043 0.980043 0.980043 0.980043
          0.980044 0.980043 0.980043 0.980043 0.980043 0.980043 0.980044 0.980044 0.980043 0.980043 0.980043 0.980043
          0.980044 0.980044 0.980043 0.980043 0.980043 0.980043 0.980044 0.980044 0.980043 0.980043 0.980043 0.980043
          0.980043 0.988852 0.984424 0.980044 0.980042 0.980043
        </DataArray>
        <DataArray type="Float32" Name="x_liquid^H2O" NumberOfComponents="1" format="ascii">
          0.999987 0.999987 0.999987 0.999987 0.999987 0.999987 0.999987 0.999987 0.999987 0.999987 0.999987 0.999987
          0.999987 0.999987 0.999987 0.999987 0.999987 0.999987 0.999987 0.999987 0.999987 0.999987 0.999987 0.999987
          0.999987 0.999987 0.999987 0.999987 0.999987 0.999987 0.999987 0.999987 0.999987 0.999987 0.999987 0.999987
          0.999987 0.999987 0.999987 0.999987 0.999987 0.999987 0.999987 0.999987 0.999987 0.999987 0.999987 0.999987
          0.999987 0.999987 0.999987 0.999987 0.999987 0.999987 0.999987 0.999987 0.999987 0.999987 0.999987 0.999987
          0.999987 0.999987 0.999987 0.999987 0.999987 0.999987 0.999987 0.999987 0.999987 0.999987 0.999987 0.999987
          0.999987 0.561587 0.782471 0.999987 0.999987 0.999987
        </DataArray>
        <DataArray type="Float32" Name="x_liquid^Air" NumberOfComponents="1" format="ascii">
          1.34043e-05 1.34043e-05 1.34043e-05 1.34042e-05 1.34042e-05 1.34041e-05 1.34041e-05 1.34041e-05 1.34041e-05 1.3404e-05 1.34041e-05 1.3404e-05
          1.34042e-05 1.34042e-05 1.34041e-05 1.3404e-05 1.3404e-05 1.3404e-05 1.34042e-05 1.34041e-05 1.34041e-05 1.3404e-05 1.34039e-05 1.34039e-05
          1.34041e-05 1.34041e-05 1.3404e-05 1.34039e-05 1.34039e-05 1.34039e-05 1.34041e-05 1.34041e-05 1.3404e-05 1.34039e-05 1.34039e-05 1.34038e-05
          1.34041e-05 1.3404e-05 1.34039e-05 1.34039e-05 1.34038e-05 1.34038e-05 1.34041e-05 1.3404e-05 1.34039e-05 1.34038e-05 1.34038e-05 1.34038e-05
          1.34041e-05 1.3404e-05 1.34038e-05 1.34038e-05 1.34037e-05 1.34037e-05 1.34041e-05 1.3404e-05 1.34037e-05 1.34038e-05 1.34037e-05 1.34037e-05
          1.34041e-05 1.34041e-05 1.34036e-05 1.34038e-05 1.34036e-05 1.34037e-05 1.34041e-05 1.34042e-05 1.34034e-05 1.34039e-05 1.34035e-05 1.34037e-05
          1.3404e-05 1.35968e-05 1.34985e-05 1.34041e-05 1.34034e-05 1.34038e-05
        </DataArray>
        <DataArray type="Float32" Name="x_gas^H2O" NumberOfComponents="1" format="ascii">
          0.0316959 0.0316959 0.031696 0.031696 0.0316961 0.0316962 0.0316963 0.0316964 0.0316963 0.0316965 0.0316964 0.0316965
          0.0316961 0.0316962 0.0316963 0.0316965 0.0316966 0.0316966 0.0316962 0.0316963 0.0316964 0.0316966 0.0316967 0.0316967
          0.0316962 0.0316963 0.0316965 0.0316967 0.0316968 0.0316968 0.0316963 0.0316964 0.0316966 0.0316968 0.0316969 0.0316969
          0.0316963 0.0316965 0.0316967 0.0316969 0.031697 0.031697 0.0316963 0.0316965 0.0316968 0.0316969 0.0316971 0.0316971
          0.0316963 0.0316965 0.031697 0.031697 0.0316971 0.0316972 0.0316963 0.0316964 0.0316972 0.031697 0.0316973 0.0316972
          0.0316963 0.0316963 0.0316975 0.0316969 0.0316974 0.0316972 0.0316963 0.031696 0.031698 0.0316967 0.0316976 0.0316972
          0.0316965 0.0178 0.0248037 0.0316963 0.031698 0.031697
        </DataArray>
        <DataArray type="Float32" Name="x_gas^Air" NumberOfComponents="1" format="ascii">
          0.968304 0.968304 0.968304 0.968304 0.968304 0.968304 0.968304 0.968304 0.968304 0.968304 0.968304 0.968304
          0.968304 0.968304 0.968304 0.968304 0.968303 0.968303 0.968304 0.968304 0.968304 0.968303 0.968303 0.968303
          0.968304 0.968304 0.968303 0.968303 0.968303 0.968303 0.968304 0.968304 0.968303 0.968303 0.968303 0.968303
          0.968304 0.968304 0.968303 0.968303 0.968303 0.968303 0.968304 0.968304 0.968303 0.968303 0.968303 0.968303
          0.968304 0.968304 0.968303 0.968303 0.968303 0.968303 0.968304 0.968304 0.968303 0.968303 0.968303 0.968303
          0.968304 0.968304 0.968302 0.968303 0.968303 0.968303 0.968304 0.968304 0.968302 0.968303 0.968302 0.968303
          0.968304 0.9822 0.975196 0.968304 0.968302 0.968303
        </DataArray>
        <DataArray type="Float32" Name="porosity" NumberOfComponents="1" format="ascii">
          0.41 0.41 0.41 0.41 0.41 0.41 0.41 0.41 0.41 0.41 0.41 0.41
          0.41 0.41 0.41 0.41 0.41 0.41 0.41 0.41 0.41 0.41 0.41 0.41
          0.41 0.41 0.41 0.41 0.41 0.41 0.41 0.41 0.41 0.41 0.41 0.41
          0.41 0.41 0.41 0.41 0.41 0.41 0.41 0.41 0.41 0.41 0.41 0.41
          0.41 0.41 0.41 0.41 0.41 0.41 0.41 0.41 0.41 0.41 0.41 0.41
          0.41 0.41 0.41 0.41 0.41 0.41 0.41 0.41 0.41 0.41 0.41 0.41
          0.41 0.41 0.41 0.41 0.41 0.41
        </DataArray>
        <DataArray type="Float32" Name="temperature" NumberOfComponents="1" format="ascii">
          298.15 298.15 298.15 298.15 298.15 298.15 298.15 298.15 298.15 298.15 298.15 298.15
          298.15 298.15 298.15 298.15 298.15 298.15 298.15 298.15 298.15 298.15 298.15 298.15
          298.15 298.15 298.15 298.15 298.15 298.15 298.15 298.15 298.15 298.15 298.15 298.15
          298.15 298.15 298.15 298.15 298.15 298.15 298.15 298.15 298.15 298.15 298.15 298.15
          298.15 298.15 298.15 298.15 298.15 298.15 298.15 298.15 298.15 298.15 298.15 298.15
          298.15 298.15 298.15 298.15 298.15 298.15 298.15 298.15 298.15 298.15 298.15 298.15
          298.15 298.15 298.15 298.15 298.15 298.15
        </DataArray>
        <DataArray type="Float32" Name="phase presence" NumberOfComponents="1" format="ascii">
          3 3 3 3 3 3 3 3 3 3 3 3
          3 3 3 3 3 3 3 3 3 3 3 3
          3 3 3 3 3 3 3 3 3 3 3 3
          3 3 3 3 3 3 3 3 3 3 3 3
          3 3 3 3 3 3 3 3 3 3 3 3
          3 3 3 3 3 3 3 3 3 3 3 3
          3 2 2 3 3 3
        </DataArray>
        <DataArray type="Float32" Name="velocityW" NumberOfComponents="3" format="ascii">
          -1.62901e-08 1.13968e-08 0 -3.35457e-08 1.2041e-08 0 -1.51249e-08 2.19625e-08 0 -3.33136e-08 2.45235e-08 0
          -6.41532e-08 9.43692e-09 0 -6.82798e-08 2.09783e-08 0 -7.48882e-08 -1.21565e-09 0 -8.32702e-08 -1.45493e-09 0
          -5.08524e-08 -1.37587e-08 0 -5.73488e-08 -2.81722e-08 0 -2.94334e-08 -1.91051e-08 0 -3.32145e-08 -3.9286e-08 0
          -9.52071e-09 4.88472e-08 0 -2.92004e-08 5.91159e-08 0 -7.58748e-08 5.87528e-08 0 -1.05927e-07 1.06884e-08 0
          -7.63518e-08 -5.06836e-08 0 -4.37188e-08 -7.39701e-08 0 3.50167e-09 9.63362e-08 0 -1.09564e-08 1.21714e-07 0
          -5.57017e-08 1.33677e-07 0 -1.01746e-07 6.40765e-08 0 -8.30972e-08 -4.39595e-08 0 -4.86908e-08 -8.10204e-08 0
          1.40069e-08 1.68752e-07 0 5.64185e-09 2.14017e-07 0 -2.81863e-08 2.42308e-07 0 -7.32385e-08 1.62271e-07 0
          -7.27473e-08 9.2e-09 0 -5.26669e-08 -5.05153e-08 0 1.75236e-08 2.42373e-07 0 1.23681e-08 3.07937e-07 0
          -1.09282e-08 3.50035e-07 0 -4.29743e-08 2.6552e-07 0 -4.89856e-08 8.43002e-08 0 -4.10916e-08 -4.98508e-09 0
          1.96425e-08 2.92337e-07 0 1.45724e-08 3.77253e-07 0 -4.74593e-09 4.2874e-07 0 -3.12903e-08 3.41873e-07 0
          -3.55373e-08 1.43467e-07 0 -2.74882e-08 3.22795e-08 0 2.35251e-08 3.16315e-07 0 1.68054e-08 4.21536e-07 0
          -2.94196e-09 4.79142e-07 0 -2.88842e-08 3.91863e-07 0 -3.37107e-08 1.78094e-07 0 -2.56224e-08 5.29569e-08 0
          2.99252e-08 3.2166e-07 0 2.00519e-08 4.50332e-07 0 -2.42609e-09 5.1149e-07 0 -3.02187e-08 4.25811e-07 0
          -3.67445e-08 1.96711e-07 0 -2.80824e-08 5.86485e-08 0 3.99024e-08 3.14057e-07 0 2.46431e-08 4.71518e-07 0
          -2.3084e-09 5.33178e-07 0 -3.34161e-08 4.52379e-07 0 -4.26749e-08 2.0629e-07 0 -3.25182e-08 5.43014e-08 0
          5.85231e-08 2.95028e-07 0 3.26353e-08 4.90644e-07 0 -2.34139e-09 5.47765e-07 0 -3.93529e-08 4.78104e-07 0
          -5.25787e-08 2.10398e-07 0 -3.78817e-08 4.3298e-08 0 1.33467e-07 2.51676e-07 0 6.76541e-08 5.08736e-07 0
          -2.28216e-09 5.54669e-07 0 -6.43205e-08 5.12568e-07 0 -7.75974e-08 2.04998e-07 0 -3.29595e-08 3.00315e-08 0
          9.5249e-07 2.20794e-07 0 4.76245e-07 5.17168e-07 0 0 5.5581e-07 0 -1.2677e-07 5.33624e-07 0
          -1.30003e-07 1.98674e-07 0 -6.4661e-09 2.36206e-08 0
        </DataArray>
        <DataArray type="Float32" Name="velocityN" NumberOfComponents="3" format="ascii">
          4.35627e-10 -8.2016e-10 0 6.57368e-10 -6.77579e-10 0 2.84375e-09 -3.54429e-09 0 4.2598e-09 -2.49283e-09 0
          8.08416e-10 -4.82653e-10 0 5.18285e-09 -1.0819e-09 0 5.99445e-10 -4.37781e-10 0 3.81103e-09 -7.90496e-10 0
          3.09041e-10 -4.28598e-10 0 1.96538e-09 -7.24777e-10 0 1.56915e-10 -4.25409e-10 0 9.98548e-10 -7.01214e-10 0
          7.17384e-08 -5.85362e-08 0 1.06631e-07 -3.52433e-08 0 1.28243e-07 -4.70879e-09 0 9.33039e-08 7.00721e-10 0
          4.79839e-08 1.99475e-09 0 2.43223e-08 2.42667e-09 0 1.81028e-06 -1.09609e-06 0 2.69017e-06 -5.61816e-07 0
          3.23031e-06 1.37922e-07 0 2.352e-06 2.5302e-07 0 1.21396e-06 2.87597e-07 0 6.14476e-07 2.96331e-07 0
          1.25271e-05 -8.11768e-06 0 1.89966e-05 -4.19571e-06 0 2.2611e-05 1.59561e-06 0 1.60166e-05 2.24411e-06 0
          8.21465e-06 2.46544e-06 0 4.15211e-06 2.52513e-06 0 3.64778e-05 -3.0036e-05 0 5.64633e-05 -1.60466e-05 0
          6.44267e-05 8.06124e-06 0 4.2856e-05 8.10452e-06 0 2.22043e-05 9.1467e-06 0 1.11013e-05 9.25193e-06 0
          6.67903e-05 -7.23031e-05 0 0.000106974 -4.06155e-05 0 0.000112059 2.69576e-05 0 6.64478e-05 1.63961e-05 0
          3.65057e-05 2.15738e-05 0 1.7076e-05 2.07737e-05 0 9.67207e-05 -0.000133418 0 0.000169116 -8.23691e-05 0
          0.000155847 7.12232e-05 0 7.56999e-05 1.87e-05 0 4.92614e-05 4.06288e-05 0 1.73067e-05 3.37459e-05 0
          0.000116289 -0.000206167 0 0.000251212 -0.000152059 0 0.000196386 0.000163236 0 6.62016e-05 -2.32683e-06 0
          6.47329e-05 7.18194e-05 0 3.70042e-06 4.12893e-05 0 0.000101404 -0.000274509 0 0.000367777 -0.000274378 0
          0.000237374 0.000341665 0 3.26443e-05 -7.78916e-05 0 9.08979e-05 0.00013097 0 -4.28949e-05 3.01068e-05 0
          -1.52655e-06 -0.000305 0 0.000533071 -0.000496148 0 0.000278403 0.000670167 0 -3.55447e-05 -0.000261451 0
          0.000138611 0.000250928 0 -0.000162551 -2.57209e-05 0 -0.00029011 -0.000234533 0 0.000757826 -0.000884401 0
          0.000315255 0.00124649 0 -0.000152179 -0.000637517 0 0.000222882 0.000489237 0 -0.000425128 -0.000172367 0
          -0.000695349 -0.000163898 0 0.000968409 -0.00112941 0 0.000335485 0.00161125 0 -0.000277996 -0.000886429 0
          0.000316476 0.000646963 0 -0.000772252 -0.000275673 0
        </DataArray>
      </PointData>
      <CellData Scalars="process rank">
        <DataArray type="Float32" Name="process rank" NumberOfComponents="1" format="ascii">
          0 0 0 0 0 0 0 0 0 0 0 0
          0 0 0 0 0 0 0 0 0 0 0 0
          0 0 0 0 0 0 0 0 0 0 0 0
          0 0 0 0 0 0 0 0 0 0 0 0
          0 0 0 0 0 0 0 0 0 0 0 0
        </DataArray>
      </CellData>
      <Points>
        <DataArray type="Float32" Name="Coordinates" NumberOfComponents="3" format="ascii">
          0.25 0 0 0.3 0 0 0.25 0.0333553 0 0.3 0.0333553 0
          0.35 0 0 0.35 0.0333553 0 0.4 0 0 0.4 0.0333553 0
          0.45 0 0 0.45 0.0333553 0 0.5 0 0 0.5 0.0333553 0
          0.25 0.0636783 0 0.3 0.0636783 0 0.35 0.0636783 0 0.4 0.0636783 0
          0.45 0.0636783 0 0.5 0.0636783 0 0.25 0.0912447 0 0.3 0.0912447 0
          0.35 0.0912447 0 0.4 0.0912447 0 0.45 0.0912447 0 0.5 0.0912447 0
          0.25 0.116305 0 0.3 0.116305 0 0.35 0.116305 0 0.4 0.116305 0
          0.45 0.116305 0 0.5 0.116305 0 0.25 0.139087 0 0.3 0.139087 0
          0.35 0.139087 0 0.4 0.139087 0 0.45 0.139087 0 0.5 0.139087 0
          0.25 0.159798 0 0.3 0.159798 0 0.35 0.159798 0 0.4 0.159798 0
          0.45 0.159798 0 0.5 0.159798 0 0.25 0.178626 0 0.3 0.178626 0
          0.35 0.178626 0 0.4 0.178626 0 0.45 0.178626 0 0.5 0.178626 0
          0.25 0.195743 0 0.3 0.195743 0 0.35 0.195743 0 0.4 0.195743 0
          0.45 0.195743 0 0.5 0.195743 0 0.25 0.211303 0 0.3 0.211303 0
          0.35 0.211303 0 0.4 0.211303 0 0.45 0.211303 0 0.5 0.211303 0
          0.25 0.225449 0 0.3 0.225449 0 0.35 0.225449 0 0.4 0.225449 0
          0.45 0.225449 0 0.5 0.225449 0 0.25 0.238309 0 0.3 0.238309 0
          0.35 0.238309 0 0.4 0.238309 0 0.45 0.238309 0 0.5 0.238309 0
          0.25 0.25 0 0.3 0.25 0 0.35 0.25 0 0.4 0.25 0
          0.45 0.25 0 0.5 0.25 0
        </DataArray>
      </Points>
      <Cells>
        <DataArray type="Int32" Name="connectivity" NumberOfComponents="1" format="ascii">
          0 1 3 2 1 4 5 3 4 6 7 5
          6 8 9 7 8 10 11 9 2 3 13 12
          3 5 14 13 5 7 15 14 7 9 16 15
          9 11 17 16 12 13 19 18 13 14 20 19
          14 15 21 20 15 16 22 21 16 17 23 22
          18 19 25 24 19 20 26 25 20 21 27 26
          21 22 28 27 22 23 29 28 24 25 31 30
          25 26 32 31 26 27 33 32 27 28 34 33
          28 29 35 34 30 31 37 36 31 32 38 37
          32 33 39 38 33 34 40 39 34 35 41 40
          36 37 43 42 37 38 44 43 38 39 45 44
          39 40 46 45 40 41 47 46 42 43 49 48
          43 44 50 49 44 45 51 50 45 46 52 51
          46 47 53 52 48 49 55 54 49 50 56 55
          50 51 57 56 51 52 58 57 52 53 59 58
          54 55 61 60 55 56 62 61 56 57 63 62
          57 58 64 63 58 59 65 64 60 61 67 66
          61 62 68 67 62 63 69 68 63 64 70 69
          64 65 71 70 66 67 73 72 67 68 74 73
          68 69 75 74 69 70 76 75 70 71 77 76
        </DataArray>
        <DataArray type="Int32" Name="offsets" NumberOfComponents="1" format="ascii">
          4 8 12 16 20 24 28 32 36 40 44 48
          52 56 60 64 68 72 76 80 84 88 92 96
          100 104 108 112 116 120 124 128 132 136 140 144
          148 152 156 160 164 168 172 176 180 184 188 192
          196 200 204 208 212 216 220 224 228 232 236 240
        </DataArray>
        <DataArray type="UInt8" Name="types" NumberOfComponents="1" format="ascii">
          9 9 9 9 9 9 9 9 9 9 9 9
          9 9 9 9 9 9 9 9 9 9 9 9
          9 9 9 9 9 9 9 9 9 9 9 9
          9 9 9 9 9 9 9 9 9 9 9 9
          9 9 9 9 9 9 9 9 9 9 9 9
        </DataArray>
      </Cells>
    </Piece>
  </UnstructuredGrid>
</VTKFile>
