<?xml version="1.0"?>
<VTKFile type="UnstructuredGrid" version="0.1" byte_order="LittleEndian">
  <UnstructuredGrid>
    <Piece NumberOfCells="120" NumberOfPoints="143">
      <PointData Scalars="P" Vectors="v">
        <DataArray type="Float32" Name="P" NumberOfComponents="1" format="ascii">
          100012 99987 100012 99987 100011 100011 99989 99989 100009 100009 99991.4 99991.2
          100005 100006 99994.5 99993.8 100002 100003 99996.8 99996.5 100000 100000 100017 99985.9
          100012 99988.8 100009 99991.4 100005 99994.3 100003 99996.7 100000 100016 99985.8 100012
          99988.7 100009 99991.2 100006 99993.8 100003 99996.4 100000 100016 99985.6 100012 99988.6
          100009 99991.3 100005 99994.1 100003 99996.6 100000 100016 99985.6 100012 99988.5 100009
          99991.1 100006 99993.7 100003 99996.3 100000 100016 99985.5 100012 99988.4 100009 99991.2
          100006 99993.9 100003 99996.4 100000 100016 99985.6 100012 99988.5 100009 99991.1 100006
          99993.7 100003 99996.2 100000 100016 99985.5 100012 99988.4 100009 99991.2 100006 99993.8
          100003 99996.3 100000 100016 99985.7 100012 99988.6 100009 99991.2 100006 99993.7 100003
          99996.2 100000 100017 99985.6 100012 99988.6 100009 99991.3 100006 99993.8 100003 99996.3
          100000 100012 99987.3 100011 99989.2 100008 99991.4 100006 99993.8 100003 99996.2 100000
          100012 99987.3 100011 99989.2 100008 99991.4 100006 99993.8 100003 99996.2 100000
        </DataArray>
        <DataArray type="Float32" Name="delP" NumberOfComponents="1" format="ascii">
          12.011 -13.031 12.0166 -13.0254 11.3489 11.3495 -11.0221 -11.0197 8.54305 8.57091 -8.64004 -8.75917
          4.93816 5.66907 -5.50592 -6.16504 2.44671 2.82385 -3.20667 -3.51331 0 0 16.6789 -14.1466
          11.7701 -11.1991 8.59999 -8.6354 5.11952 -5.65443 2.53644 -3.27337 0 16.1123 -14.1614 11.8902
          -11.3054 8.72018 -8.80584 5.77949 -6.24897 2.88386 -3.61109 0 15.8856 -14.3662 12.0678 -11.4325
          8.74624 -8.73835 5.39853 -5.88375 2.67299 -3.44165 0 15.8092 -14.3602 12.0905 -11.4826 8.84696
          -8.87175 5.87414 -6.31951 2.93202 -3.71057 0 15.5902 -14.5002 12.1938 -11.5675 8.85235 -8.8239
          5.60535 -6.0646 2.77731 -3.58169 0 15.6973 -14.4139 12.1151 -11.5385 8.88561 -8.88983 5.90183
          -6.34346 2.94554 -3.77038 0 15.6013 -14.5272 12.1888 -11.5869 8.8639 -8.8445 5.71497 -6.17516
          2.83604 -3.68172 0 15.8686 -14.2709 11.9171 -11.4153 8.76782 -8.80596 5.83029 -6.30199 2.9087
          -3.78129 0 16.6456 -14.4033 11.8945 -11.3729 8.67819 -8.73026 5.6958 -6.19966 2.8353 -3.74116
          0 12.2119 -12.7234 10.79 -10.8128 8.35168 -8.55151 5.63808 -6.19045 2.8156 -3.74987 0
          12.2053 -12.73 10.7901 -10.8159 8.35075 -8.55364 5.63621 -6.19225 2.81415 -3.75105 0
        </DataArray>
        <DataArray type="Float32" Name="x^H2O_gas" NumberOfComponents="1" format="ascii">
          0.0127981 0.0100472 0.0142557 0.0138304 0.00954724 0.0135596 0.00866338 0.0132442 0.00808517 0.0129745 0.00798839 0.0127688
          0.0171329 0.0128098 0.0237559 0.0130856 0.0297366 0.0133075 0.0317109 0.0140283 0.0317098 0.0158764 0.0122162 0.0124125
          0.0124835 0.0125301 0.012538 0.0125278 0.012516 0.0125315 0.0125609 0.0126803 0.013574 0.0120347 0.0120912 0.0121341
          0.0121806 0.0122145 0.012241 0.0122556 0.012273 0.0122907 0.0123324 0.01295 0.0120572 0.0120655 0.0120769 0.0120929
          0.0121087 0.0121248 0.0121373 0.0121509 0.012164 0.012191 0.0126574 0.0120856 0.0120856 0.012087 0.0120898 0.0120938
          0.0120991 0.0121043 0.0121106 0.0121174 0.012136 0.0126 0.01211 0.0121062 0.0121036 0.0121018 0.0121012 0.0121016
          0.0121028 0.0121049 0.0121082 0.0121248 0.0125898 0.0121082 0.0121066 0.0121054 0.0121047 0.0121048 0.0121058 0.0121077
          0.0121105 0.0121144 0.0121338 0.0126065 0.0121 0.0120987 0.0121 0.0121036 0.0121084 0.0121149 0.0121221 0.0121302
          0.0121388 0.0121629 0.0126353 0.012057 0.0120812 0.0121024 0.0121273 0.0121491 0.0121722 0.012193 0.0122131 0.0122309
          0.0122601 0.0127346 0.0121441 0.0122797 0.0123431 0.0124088 0.012451 0.0124907 0.0125188 0.0125416 0.012557 0.012579
          0.0130795 0.0142516 0.0140938 0.0139876 0.0138679 0.0137691 0.0136634 0.0135656 0.0134699 0.0133844 0.0133151 0.01405
          0.0127981 0.0115402 0.011372 0.0109309 0.010739 0.0104392 0.0101481 0.00993143 0.00975593 0.00968505 0.0127981
        </DataArray>
        <DataArray type="Float32" Name="X^H2O_gas" NumberOfComponents="1" format="ascii">
          0.008 0.00627391 0.0089161 0.00864869 0.00596057 0.00847847 0.00540694 0.00828029 0.00504496 0.00811086 0.0049844 0.00798162
          0.0107273 0.00800734 0.0149118 0.00818061 0.0187085 0.00832007 0.0199657 0.0087731 0.019965 0.00993585 0.0076346 0.00775784
          0.00780242 0.00783172 0.00783665 0.00783026 0.00782285 0.00783256 0.00785103 0.00792601 0.00848756 0.00752062 0.0075561 0.00758305
          0.00761223 0.00763351 0.00765019 0.00765934 0.00767027 0.00768138 0.00770755 0.00809543 0.00753479 0.00754 0.00754713 0.00755716
          0.00756709 0.00757719 0.00758504 0.0075936 0.0076018 0.00761875 0.00791167 0.00755257 0.00755263 0.00755345 0.00755525 0.00755777
          0.00756105 0.00756436 0.00756829 0.00757258 0.00758422 0.00787563 0.00756793 0.00756554 0.0075639 0.0075628 0.00756239 0.00756262
          0.00756338 0.00756473 0.00756676 0.00757721 0.00786918 0.00756676 0.00756578 0.007565 0.00756457 0.00756463 0.00756527 0.00756646
          0.00756823 0.0075707 0.00758285 0.0078797 0.00756164 0.00756079 0.00756162 0.00756387 0.00756693 0.00757101 0.00757552 0.00758061
          0.00758597 0.00760113 0.00789774 0.00753463 0.00754981 0.00756314 0.00757876 0.00759244 0.00760699 0.00762002 0.00763266 0.00764384
          0.00766214 0.00796016 0.00758935 0.00767447 0.00771425 0.0077555 0.00778201 0.00780696 0.0078246 0.00783891 0.00784857 0.00786243
          0.00817682 0.00891355 0.00881428 0.00874754 0.0086723 0.00861018 0.00854371 0.00848222 0.00842213 0.00836835 0.00832485 0.00878678
          0.008 0.00721025 0.00710475 0.00682803 0.00670764 0.00651967 0.00633716 0.00620133 0.00609134 0.00604692 0.008
        </DataArray>
        <DataArray type="Float32" Name="x^Air_gas" NumberOfComponents="1" format="ascii">
          0.987202 0.989943 0.985744 0.986167 0.990435 0.986436 0.991317 0.98675 0.991895 0.987019 0.992001 0.987224
          0.982577 0.987179 0.975801 0.986896 0.969288 0.986662 0.968302 0.985955 0.968303 0.984117 0.987784 0.987588
          0.987517 0.987469 0.987461 0.987471 0.987482 0.987466 0.987435 0.987315 0.986424 0.987965 0.987909 0.987866
          0.987819 0.987786 0.987759 0.987744 0.987727 0.987709 0.987667 0.98705 0.987942 0.987934 0.987923 0.987907
          0.987891 0.987875 0.987863 0.987849 0.987836 0.987809 0.987342 0.987914 0.987914 0.987913 0.98791 0.987906
          0.987901 0.987896 0.987889 0.987882 0.987864 0.987399 0.98789 0.987894 0.987896 0.987898 0.987899 0.987898
          0.987897 0.987895 0.987892 0.987875 0.98741 0.987892 0.987893 0.987894 0.987895 0.987895 0.987894 0.987892
          0.987889 0.987886 0.987866 0.987393 0.9879 0.987901 0.9879 0.987896 0.987892 0.987885 0.987878 0.98787
          0.987861 0.987837 0.987365 0.987943 0.987919 0.987898 0.987873 0.987851 0.987828 0.987808 0.987787 0.98777
          0.98774 0.987266 0.987856 0.987721 0.987657 0.987592 0.98755 0.98751 0.987482 0.987459 0.987443 0.987421
          0.98692 0.985748 0.985905 0.986011 0.98613 0.986228 0.986333 0.98643 0.986526 0.986611 0.98668 0.985945
          0.987202 0.988455 0.988618 0.989056 0.989244 0.989542 0.989831 0.990049 0.990226 0.990301 0.987202
        </DataArray>
        <DataArray type="Float32" Name="X^Air_gas" NumberOfComponents="1" format="ascii">
          0.992 0.99372 0.991084 0.99135 0.994028 0.991519 0.994581 0.991716 0.994943 0.991885 0.995009 0.992014
          0.98909 0.991986 0.984807 0.991808 0.980671 0.991661 0.980042 0.991216 0.980043 0.99006 0.992365 0.992242
          0.992198 0.992168 0.992163 0.992169 0.992176 0.992166 0.992146 0.992071 0.991511 0.992479 0.992444 0.992417
          0.992388 0.992366 0.99235 0.992341 0.992329 0.992318 0.992292 0.991904 0.992465 0.99246 0.992453 0.992443
          0.992433 0.992423 0.992415 0.992406 0.992398 0.992381 0.992088 0.992447 0.992447 0.992446 0.992445 0.992442
          0.992439 0.992436 0.992432 0.992427 0.992416 0.992124 0.992432 0.992434 0.992436 0.992437 0.992437 0.992437
          0.992437 0.992435 0.992433 0.992423 0.992131 0.992433 0.992434 0.992435 0.992435 0.992435 0.992435 0.992433
          0.992432 0.992429 0.992417 0.99212 0.992438 0.992439 0.992438 0.992436 0.992433 0.992429 0.992425 0.992419
          0.992414 0.992399 0.992102 0.992465 0.99245 0.992437 0.992421 0.992408 0.992393 0.99238 0.992368 0.992356
          0.992338 0.99204 0.992411 0.992326 0.992286 0.992245 0.992218 0.992194 0.992176 0.992161 0.992152 0.992138
          0.991823 0.991086 0.991185 0.991251 0.991326 0.991388 0.991454 0.991515 0.991575 0.991629 0.991672 0.99121
          0.992 0.992787 0.992889 0.993163 0.993282 0.993468 0.99365 0.993786 0.993897 0.993944 0.992
        </DataArray>
        <DataArray type="Float32" Name="rho" NumberOfComponents="1" format="ascii">
          1.16272 1.16364 1.16208 1.16197 1.16414 1.16238 1.16427 1.16225 1.16475 1.1626 1.1646 1.16249
          1.1606 1.16264 1.15748 1.16237 1.1547 1.16238 1.1542 1.16199 1.15424 1.16122 1.16303 1.16259
          1.16286 1.16257 1.1628 1.1626 1.16276 1.16263 1.16271 1.16259 1.16224 1.16311 1.16273 1.16301
          1.16272 1.16294 1.16272 1.16289 1.16274 1.16284 1.16274 1.16251 1.16309 1.16274 1.16304 1.16276
          1.16299 1.16278 1.16294 1.1628 1.16289 1.16281 1.16264 1.16308 1.16273 1.16304 1.16276 1.163
          1.16279 1.16296 1.16281 1.16292 1.16283 1.16267 1.16307 1.16272 1.16303 1.16275 1.16299 1.16279
          1.16295 1.16282 1.16292 1.16284 1.16267 1.16307 1.16272 1.16303 1.16275 1.16299 1.16278 1.16295
          1.16281 1.16292 1.16283 1.16267 1.16307 1.16272 1.16303 1.16275 1.16299 1.16278 1.16295 1.1628
          1.16291 1.16282 1.16265 1.16309 1.16273 1.16303 1.16274 1.16297 1.16276 1.16292 1.16277 1.16287
          1.16278 1.16261 1.16306 1.16264 1.16292 1.16262 1.16284 1.16262 1.16277 1.16262 1.16272 1.16263
          1.16246 1.16208 1.16186 1.16218 1.16198 1.16225 1.1621 1.16231 1.16221 1.16235 1.16231 1.16203
          1.16272 1.16299 1.16333 1.16327 1.16358 1.16351 1.16381 1.16377 1.16395 1.16391 1.16258
        </DataArray>
        <DataArray type="Float32" Name="mu" NumberOfComponents="1" format="ascii">
          1.81222e-05 1.81472e-05 1.8109e-05 1.81128e-05 1.81516e-05 1.81153e-05 1.81597e-05 1.81181e-05 1.8165e-05 1.81206e-05 1.81659e-05 1.81225e-05
          1.80815e-05 1.81221e-05 1.80204e-05 1.81195e-05 1.79636e-05 1.81175e-05 1.79506e-05 1.81109e-05 1.79506e-05 1.80942e-05 1.81275e-05 1.81257e-05
          1.81251e-05 1.81247e-05 1.81246e-05 1.81247e-05 1.81248e-05 1.81246e-05 1.81244e-05 1.81233e-05 1.81152e-05 1.81292e-05 1.81287e-05 1.81283e-05
          1.81279e-05 1.81275e-05 1.81273e-05 1.81272e-05 1.8127e-05 1.81268e-05 1.81265e-05 1.81208e-05 1.8129e-05 1.81289e-05 1.81288e-05 1.81286e-05
          1.81285e-05 1.81284e-05 1.81282e-05 1.81281e-05 1.8128e-05 1.81278e-05 1.81235e-05 1.81287e-05 1.81287e-05 1.81287e-05 1.81287e-05 1.81286e-05
          1.81286e-05 1.81285e-05 1.81285e-05 1.81284e-05 1.81283e-05 1.8124e-05 1.81285e-05 1.81285e-05 1.81285e-05 1.81286e-05 1.81286e-05 1.81286e-05
          1.81286e-05 1.81285e-05 1.81285e-05 1.81284e-05 1.81241e-05 1.81285e-05 1.81285e-05 1.81285e-05 1.81285e-05 1.81285e-05 1.81285e-05 1.81285e-05
          1.81285e-05 1.81285e-05 1.81283e-05 1.8124e-05 1.81286e-05 1.81286e-05 1.81286e-05 1.81285e-05 1.81285e-05 1.81284e-05 1.81284e-05 1.81283e-05
          1.81282e-05 1.8128e-05 1.81237e-05 1.8129e-05 1.81288e-05 1.81286e-05 1.81283e-05 1.81281e-05 1.81279e-05 1.81277e-05 1.81276e-05 1.81274e-05
          1.81271e-05 1.81228e-05 1.81282e-05 1.81269e-05 1.81264e-05 1.81258e-05 1.81254e-05 1.8125e-05 1.81248e-05 1.81246e-05 1.81244e-05 1.81242e-05
          1.81197e-05 1.8109e-05 1.81105e-05 1.81114e-05 1.81125e-05 1.81134e-05 1.81143e-05 1.81152e-05 1.81161e-05 1.81169e-05 1.81175e-05 1.81108e-05
          1.81222e-05 1.81336e-05 1.81351e-05 1.81391e-05 1.81408e-05 1.81435e-05 1.81462e-05 1.81482e-05 1.81498e-05 1.81504e-05 1.81222e-05
        </DataArray>
        <DataArray type="Float32" Name="D" NumberOfComponents="1" format="ascii">
          2.49338e-05 2.494e-05 2.49338e-05 2.494e-05 2.49339e-05 2.49339e-05 2.49395e-05 2.49395e-05 2.49346e-05 2.49346e-05 2.49389e-05 2.49389e-05
          2.49355e-05 2.49354e-05 2.49381e-05 2.49383e-05 2.49362e-05 2.49361e-05 2.49376e-05 2.49376e-05 2.49368e-05 2.49368e-05 2.49326e-05 2.49403e-05
          2.49338e-05 2.49396e-05 2.49346e-05 2.49389e-05 2.49355e-05 2.49382e-05 2.49361e-05 2.49376e-05 2.49368e-05 2.49327e-05 2.49403e-05 2.49338e-05
          2.49396e-05 2.49346e-05 2.4939e-05 2.49353e-05 2.49383e-05 2.4936e-05 2.49377e-05 2.49368e-05 2.49328e-05 2.49403e-05 2.49338e-05 2.49396e-05
          2.49346e-05 2.49389e-05 2.49354e-05 2.49382e-05 2.49361e-05 2.49376e-05 2.49368e-05 2.49328e-05 2.49403e-05 2.49337e-05 2.49396e-05 2.49346e-05
          2.4939e-05 2.49353e-05 2.49383e-05 2.4936e-05 2.49377e-05 2.49368e-05 2.49329e-05 2.49404e-05 2.49337e-05 2.49396e-05 2.49346e-05 2.4939e-05
          2.49354e-05 2.49383e-05 2.49361e-05 2.49377e-05 2.49368e-05 2.49328e-05 2.49404e-05 2.49337e-05 2.49396e-05 2.49345e-05 2.4939e-05 2.49353e-05
          2.49383e-05 2.4936e-05 2.49377e-05 2.49368e-05 2.49329e-05 2.49404e-05 2.49337e-05 2.49397e-05 2.49346e-05 2.4939e-05 2.49353e-05 2.49383e-05
          2.49361e-05 2.49377e-05 2.49368e-05 2.49328e-05 2.49403e-05 2.49338e-05 2.49396e-05 2.49346e-05 2.4939e-05 2.49353e-05 2.49383e-05 2.4936e-05
          2.49377e-05 2.49368e-05 2.49326e-05 2.49404e-05 2.49338e-05 2.49396e-05 2.49346e-05 2.49389e-05 2.49353e-05 2.49383e-05 2.49361e-05 2.49377e-05
          2.49368e-05 2.49337e-05 2.49399e-05 2.49341e-05 2.49395e-05 2.49347e-05 2.49389e-05 2.49354e-05 2.49383e-05 2.49361e-05 2.49377e-05 2.49368e-05
          2.49337e-05 2.49399e-05 2.49341e-05 2.49395e-05 2.49347e-05 2.49389e-05 2.49354e-05 2.49383e-05 2.49361e-05 2.49377e-05 2.49368e-05
        </DataArray>
        <DataArray type="Float32" Name="v" NumberOfComponents="3" format="ascii">
          0 0 0 0 0 0 3.5 0 0 3.42001 0.105994 0
          0 0 0 2.99333 0.0106316 0 0 0 0 3.21675 0.0500975 0
          0 0 0 2.6674 0.031417 0 0 0 0 2.97382 0.0377727 0
          -0.0763844 -0.00227617 0 2.45307 -0.0381137 0 0.285704 0.00446127 0 2.82799 0.0200012 0
          -0.105908 -0.0023232 0 2.33439 -0.00691392 0 0.314922 0.00222625 0 2.70144 0.0272006 0
          -0.369524 -0.00130366 0 2.09805 0.0957614 0 3.5 0 0 3.95322 0.117145 0
          3.60565 0.0193394 0 3.9175 0.0726443 0 3.55322 0.0408675 0 3.87508 0.0488462 0
          3.49334 0.0145433 0 3.75448 0.032295 0 3.40386 0.0197298 0 3.64288 0.0495086 0
          3.3051 0.128718 0 3.5 0 0 3.98639 0.089846 0 3.66025 0.0262434 0
          4.01209 0.0713046 0 3.71699 0.0449571 0 4.04275 0.0547276 0 3.74157 -0.0054731 0
          4.03594 0.0399138 0 3.73341 0.020433 0 4.01301 0.0618352 0 3.76191 0.0742138 0
          3.5 0 0 3.94671 0.0588065 0 3.61666 0.0229282 0 3.99001 0.0555492 0
          3.69331 0.033914 0 4.05257 0.0418755 0 3.74798 0.0226429 0 4.05086 0.0347818 0
          3.77816 0.0293913 0 4.07182 0.0532999 0 3.82538 0.0599331 0 3.5 0 0
          3.92761 0.0397925 0 3.59758 0.0204485 0 3.9695 0.0436669 0 3.67313 0.0274618 0
          4.01516 0.0354575 0 3.72588 -0.00171971 0 4.04627 0.0285992 0 3.76409 0.0171564 0
          4.07898 0.04591 0 3.82085 0.0533946 0 3.5 0 0 3.90198 0.0154242 0
          3.56689 0.0140958 0 3.94639 0.0243159 0 3.63954 0.0187401 0 3.99745 0.020566 0
          3.6956 0.0159934 0 4.01421 0.019874 0 3.73696 0.019911 0 4.04821 0.0324974 0
          3.79253 0.0362046 0 3.5 0 0 3.91048 0.00511953 0 3.5784 0.0076256 0
          3.9503 0.0113374 0 3.64775 0.0103962 0 3.98966 0.0106445 0 3.70042 -0.00618823 0
          4.0265 0.00998329 0 3.74411 0.00557898 0 4.06448 0.0231243 0 3.79871 0.0274234 0
          3.5 0 0 3.90679 -0.0254773 0 3.57218 0.00208275 0 3.94788 -0.0106441 0
          3.64141 0.00408471 0 3.99029 -0.00512461 0 3.69668 0.00366153 0 4.01857 -0.000347343 0
          3.7418 0.00516052 0 4.05627 0.00832381 0 3.79287 0.00907068 0 3.5 0 0
          3.95983 -0.0430277 0 3.63323 -0.00463522 0 3.99146 -0.0265595 0 3.69766 -0.00572303 0
          4.02774 -0.0185437 0 3.74836 -0.0178363 0 4.06804 -0.0133833 0 3.79346 -0.0110804 0
          4.10788 -0.00172995 0 3.84111 -0.000182777 0 3.5 0 0 3.97025 -0.112887 0
          3.64273 0.000433342 0 3.98557 -0.0506325 0 3.68932 -0.0106896 0 4.01174 -0.0332512 0
          3.72469 -0.0143763 0 4.03652 -0.0238611 0 3.75596 -0.0139982 0 4.06463 -0.0164404 0
          3.78906 -0.0152874 0 3.5 0 0 3.63049 -0.117378 0 3.30226 0.0028818 0
          3.58403 -0.0489722 0 3.21442 -0.0147188 0 3.5396 -0.0331226 0 3.15137 -0.0278279 0
          3.49702 -0.0264102 0 3.10244 -0.0225245 0 3.45932 -0.0199606 0 3.06422 0.00490322 0
          0 0 0 0 0 0 0 0 0 0 0 0
          0 0 0 0 0 0 0 0 0 0 0 0
          0 0 0 0 0 0 0 0 0
        </DataArray>
      </PointData>
      <CellData Scalars="mu_t">
        <DataArray type="Float32" Name="mu_t" NumberOfComponents="1" format="ascii">
          0.000236328 0.000230125 0.000219507 0.000404574 0.000395878 0.000539233 0.000498459 0.000497975 0.000482975 0.000499553 0.000197347 0.000202099
          0.000192934 0.000461379 0.000486242 0.000884484 0.000870985 0.000893317 0.000886096 0.000936811 3.04282e-05 3.14515e-05 3.0024e-05 0.000296136
          0.000324755 0.000825237 0.00081275 0.000833593 0.000826948 0.000874422 3.17879e-06 3.28631e-06 3.13718e-06 0.000142595 0.000158062 0.000532571
          0.00052482 0.000538158 0.000533961 0.000564594 5.04658e-07 5.21667e-07 4.97999e-07 3.80598e-05 4.22392e-05 0.000195528 0.000192808 0.000197659
          0.000196154 0.000207391 1.09011e-07 1.12675e-07 1.07563e-07 9.30938e-06 1.03338e-05 5.42488e-05 5.35055e-05 5.48473e-05 5.4433e-05 5.75495e-05
          2.88947e-08 2.98645e-08 2.85096e-08 2.55992e-06 2.8418e-06 1.5305e-05 1.50959e-05 1.54743e-05 1.53575e-05 1.62367e-05 5.13858e-06 5.32026e-06
          5.51957e-06 6.401e-06 6.62203e-06 9.23178e-06 9.28395e-06 9.47924e-06 9.55052e-06 9.83302e-06 2.97078e-05 3.06842e-05 3.17387e-05 3.22462e-05
          3.29563e-05 3.3553e-05 3.40909e-05 3.4686e-05 3.52102e-05 3.5686e-05 0.000143322 0.000147966 0.000152967 0.00015538 0.000158753 0.000161591
          0.000164149 0.000166979 0.000169474 0.000171739 0.000557241 0.000571914 0.000586751 0.000594305 0.000604615 0.000613454 0.000621422 0.000630265
          0.000638103 0.000645301 0.000768683 0.000770608 0.000770669 0.000771469 0.000772938 0.000774341 0.000775995 0.000777888 0.00077989 0.000781922
        </DataArray>
        <DataArray type="Float32" Name="nu_t" NumberOfComponents="1" format="ascii">
          0.000203296 0.000197901 0.000188736 0.000347769 0.000340252 0.00046382 0.000429262 0.000429277 0.000416601 0.00043106 0.000169779 0.000173861
          0.000165966 0.000396868 0.000418231 0.000760766 0.000749169 0.000768429 0.000762287 0.000806201 2.61669e-05 2.70486e-05 2.58211e-05 0.000254684
          0.000279296 0.000709732 0.000698985 0.000716927 0.000711217 0.000752178 2.73346e-06 2.82601e-06 2.69776e-06 0.000122624 0.000135926 0.000457995
          0.000451326 0.000462805 0.000459195 0.000485599 4.33961e-07 4.48597e-07 4.28239e-07 3.27289e-05 3.63228e-05 0.000168143 0.000165803 0.000169977
          0.000168682 0.000178364 9.37403e-08 9.68934e-08 9.24962e-08 8.00546e-06 8.88635e-06 4.66507e-05 4.6011e-05 4.71657e-05 4.68089e-05 4.94942e-05
          2.48473e-08 2.56816e-08 2.45161e-08 2.20137e-06 2.44374e-06 1.31614e-05 1.29814e-05 1.3307e-05 1.32065e-05 1.3964e-05 4.41878e-06 4.57509e-06
          4.74642e-06 5.50447e-06 5.69448e-06 7.93882e-06 7.98359e-06 8.15167e-06 8.21291e-06 8.45676e-06 2.55462e-05 2.63864e-05 2.7293e-05 2.773e-05
          2.83405e-05 2.88542e-05 2.93165e-05 2.98289e-05 3.02796e-05 3.0692e-05 0.000123248 0.000127248 0.000131549 0.000133628 0.000136529 0.000138973
          0.000141172 0.00014361 0.000145755 0.000147719 0.000479396 0.000492022 0.000504774 0.000511274 0.00052013 0.000527734 0.000534574 0.000542181
          0.00054891 0.000555173 0.000661309 0.000662875 0.000662875 0.000663524 0.00066474 0.000665911 0.000667285 0.00066889 0.00067058 0.000672549
        </DataArray>
        <DataArray type="Float32" Name="l_mix" NumberOfComponents="1" format="ascii">
          0.00155391 0.00152208 0.00150922 0.00148599 0.00146904 0.00145724 0.00142229 0.00141374 0.00140015 0.00140254 0.00706117 0.00701832
          0.00700033 0.00696606 0.00694043 0.00692174 0.00686451 0.00684983 0.00682602 0.00683026 0.0128963 0.0128815 0.012875 0.0128618
          0.0128516 0.0128438 0.0128189 0.0128122 0.012801 0.012803 0.0190468 0.0190439 0.0190426 0.0190397 0.0190373 0.0190355
          0.0190292 0.0190274 0.0190243 0.0190249 0.0257535 0.0257532 0.025753 0.0257525 0.0257522 0.0257519 0.0257508 0.0257505
          0.0257499 0.02575 0.0331229 0.0331229 0.0331229 0.0331228 0.0331228 0.0331228 0.0331226 0.0331226 0.0331225 0.0331225
          0.0412285 0.0412285 0.0412285 0.0412285 0.0412285 0.0412285 0.0412285 0.0412285 0.0412285 0.0412285 0.0495297 0.0495297
          0.0495297 0.0495296 0.0495296 0.0495296 0.0495296 0.0495296 0.0495296 0.0495296 0.0425463 0.0425461 0.042546 0.0425459
          0.0425459 0.0425458 0.0425457 0.0425456 0.0425456 0.0425455 0.0317447 0.031743 0.0317427 0.0317418 0.0317415 0.0317408
          0.0317403 0.0317398 0.0317394 0.0317389 0.0197263 0.0197149 0.0197126 0.0197069 0.0197047 0.0197001 0.0196975 0.0196942
          0.0196917 0.0196887 0.00561924 0.00559186 0.00558633 0.00557314 0.00556784 0.00555784 0.00555183 0.00554452 0.00553904 0.00553256
        </DataArray>
        <DataArray type="Float32" Name="u^+" NumberOfComponents="1" format="ascii">
          25.3976 24.4638 24.0657 23.4406 22.9364 22.0131 23.4886 23.0273 22.9554 20.7183 52.7516 53.294
          53.2117 53.2029 53.1384 52.6578 53.6079 53.1194 52.8856 51.2755 54.8296 57.9944 58.8681 60.5536
          61.7498 62.3669 64.2862 64.355 64.7372 64.2373 54.8057 58.0118 59.1908 61.4015 63.0398 64.1465
          66.6417 67.2442 68.2464 68.3679 54.5903 57.5498 58.7845 61.0587 62.7505 63.9697 66.6196 67.4215
          68.6681 68.9101 54.4264 57.1901 58.4239 60.6718 62.3092 63.5283 66.2396 67.087 68.3849 68.6642
          54.3637 57.0521 58.2759 60.4946 62.1027 63.3186 66.046 66.9156 68.2338 68.5042 63.3983 65.9951
          67.0942 69.132 70.5033 71.7135 73.9767 74.8738 76.0689 76.492 90.7586 93.3578 94.082 95.5742
          96.3309 97.5097 98.2528 99.1988 99.9734 100.873 91.1452 94.1871 94.7537 96.1085 96.7651 97.8203
          98.5424 99.4014 100.116 100.901 89.1378 90.0997 90.1736 90.5443 90.6836 90.9887 91.1679 91.4
          91.5997 91.8109 43.5334 42.9444 42.7852 42.5342 42.3768 42.203 42.0702 41.9174 41.7976 41.6636
        </DataArray>
        <DataArray type="Float32" Name="y^+" NumberOfComponents="1" format="ascii">
          25.3947 24.4475 24.0743 23.4187 22.9489 22.6292 21.7039 21.4837 21.1377 21.1983 78.7234 75.7874
          74.6304 72.598 71.1415 70.1506 67.2819 66.5995 65.5268 65.7147 137.385 132.261 130.242 126.695
          124.153 122.424 117.418 116.227 114.355 114.683 201.913 194.382 191.415 186.202 182.467 179.925
          172.567 170.817 168.066 168.548 272.894 262.716 258.705 251.66 246.611 243.176 233.232 230.866
          227.147 227.799 350.972 337.882 332.724 323.663 317.17 312.752 299.963 296.92 292.138 292.975
          436.859 420.566 414.145 402.867 394.784 389.286 373.367 369.579 363.627 364.669 471.958 456.202
          450.186 439.558 432.048 426.749 412.178 408.502 402.924 403.605 270.931 267.09 266.335 264.521
          263.812 262.451 261.641 260.67 259.939 259.09 202.233 199.366 198.803 197.448 196.919 195.903
          195.299 194.574 194.029 193.395 126.666 124.87 124.517 123.669 123.337 122.701 122.322 121.869
          121.527 121.13 43.5414 42.9241 42.8027 42.5111 42.3972 42.1785 42.0483 41.8923 41.7749 41.6384
        </DataArray>
        <DataArray type="Float32" Name="D_t" NumberOfComponents="1" format="ascii">
          0.000174116 0.00016123 0.000156059 0.000147745 0.000141529 0.000134494 0.000136565 0.000132944 0.000130328 0.000118995 0.00100284 0.000976816
          0.000960692 0.000935162 0.000915839 0.000897191 0.000878776 0.000864394 0.000847993 0.000825248 0.00181613 0.00184855 0.00184749 0.00184837
          0.00184719 0.00184322 0.00182816 0.00181656 0.00180065 0.00179263 0.00266767 0.00271685 0.00272914 0.002753 0.00276979 0.00278409
          0.00278261 0.00278665 0.00278655 0.00280011 0.00359142 0.00364295 0.00366341 0.00370009 0.00372615 0.0037521 0.00375935 0.00377582
          0.00378884 0.00381387 0.0046051 0.00465593 0.00468263 0.00472857 0.00475862 0.00479243 0.00480724 0.00483187 0.00485257 0.00488728
          0.0057256 0.00578171 0.00581413 0.00586891 0.00590377 0.00594576 0.00596657 0.00599935 0.00602713 0.00606952 0.00688062 0.00695041
          0.00698783 0.00705205 0.00708995 0.00714001 0.00717018 0.0072113 0.00724635 0.00729519 0.00593004 0.00601148 0.00604039 0.00609357
          0.00612489 0.00616709 0.00619431 0.00623018 0.00626099 0.00630023 0.00444546 0.00452743 0.00454138 0.00457443 0.00459301 0.00461867
          0.0046381 0.00466085 0.00468108 0.00470513 0.00272547 0.00271768 0.00271233 0.00270564 0.00270277 0.00269835 0.00269553 0.00269279
          0.00269144 0.00269094 0.000514251 0.000499996 0.000496664 0.000490351 0.000487166 0.000482632 0.000479565 0.000476033 0.000473304 0.000470532
        </DataArray>
      </CellData>
      <Points>
        <DataArray type="Float32" Name="Coordinates" NumberOfComponents="3" format="ascii">
          0 0.25 0 0.05 0.25 0 0 0.261691 0 0.05 0.261691 0
          0.1 0.25 0 0.1 0.261691 0 0.15 0.25 0 0.15 0.261691 0
          0.2 0.25 0 0.2 0.261691 0 0.25 0.25 0 0.25 0.261691 0
          0.3 0.25 0 0.3 0.261691 0 0.35 0.25 0 0.35 0.261691 0
          0.4 0.25 0 0.4 0.261691 0 0.45 0.25 0 0.45 0.261691 0
          0.5 0.25 0 0.5 0.261691 0 0 0.274551 0 0.05 0.274551 0
          0.1 0.274551 0 0.15 0.274551 0 0.2 0.274551 0 0.25 0.274551 0
          0.3 0.274551 0 0.35 0.274551 0 0.4 0.274551 0 0.45 0.274551 0
          0.5 0.274551 0 0 0.288697 0 0.05 0.288697 0 0.1 0.288697 0
          0.15 0.288697 0 0.2 0.288697 0 0.25 0.288697 0 0.3 0.288697 0
          0.35 0.288697 0 0.4 0.288697 0 0.45 0.288697 0 0.5 0.288697 0
          0 0.304257 0 0.05 0.304257 0 0.1 0.304257 0 0.15 0.304257 0
          0.2 0.304257 0 0.25 0.304257 0 0.3 0.304257 0 0.35 0.304257 0
          0.4 0.304257 0 0.45 0.304257 0 0.5 0.304257 0 0 0.321374 0
          0.05 0.321374 0 0.1 0.321374 0 0.15 0.321374 0 0.2 0.321374 0
          0.25 0.321374 0 0.3 0.321374 0 0.35 0.321374 0 0.4 0.321374 0
          0.45 0.321374 0 0.5 0.321374 0 0 0.340202 0 0.05 0.340202 0
          0.1 0.340202 0 0.15 0.340202 0 0.2 0.340202 0 0.25 0.340202 0
          0.3 0.340202 0 0.35 0.340202 0 0.4 0.340202 0 0.45 0.340202 0
          0.5 0.340202 0 0 0.360913 0 0.05 0.360913 0 0.1 0.360913 0
          0.15 0.360913 0 0.2 0.360913 0 0.25 0.360913 0 0.3 0.360913 0
          0.35 0.360913 0 0.4 0.360913 0 0.45 0.360913 0 0.5 0.360913 0
          0 0.383695 0 0.05 0.383695 0 0.1 0.383695 0 0.15 0.383695 0
          0.2 0.383695 0 0.25 0.383695 0 0.3 0.383695 0 0.35 0.383695 0
          0.4 0.383695 0 0.45 0.383695 0 0.5 0.383695 0 0 0.408755 0
          0.05 0.408755 0 0.1 0.408755 0 0.15 0.408755 0 0.2 0.408755 0
          0.25 0.408755 0 0.3 0.408755 0 0.35 0.408755 0 0.4 0.408755 0
          0.45 0.408755 0 0.5 0.408755 0 0 0.436322 0 0.05 0.436322 0
          0.1 0.436322 0 0.15 0.436322 0 0.2 0.436322 0 0.25 0.436322 0
          0.3 0.436322 0 0.35 0.436322 0 0.4 0.436322 0 0.45 0.436322 0
          0.5 0.436322 0 0 0.466645 0 0.05 0.466645 0 0.1 0.466645 0
          0.15 0.466645 0 0.2 0.466645 0 0.25 0.466645 0 0.3 0.466645 0
          0.35 0.466645 0 0.4 0.466645 0 0.45 0.466645 0 0.5 0.466645 0
          0 0.5 0 0.05 0.5 0 0.1 0.5 0 0.15 0.5 0
          0.2 0.5 0 0.25 0.5 0 0.3 0.5 0 0.35 0.5 0
          0.4 0.5 0 0.45 0.5 0 0.5 0.5 0
        </DataArray>
      </Points>
      <Cells>
        <DataArray type="Int32" Name="connectivity" NumberOfComponents="1" format="ascii">
          0 1 3 2 1 4 5 3 4 6 7 5
          6 8 9 7 8 10 11 9 10 12 13 11
          12 14 15 13 14 16 17 15 16 18 19 17
          18 20 21 19 2 3 23 22 3 5 24 23
          5 7 25 24 7 9 26 25 9 11 27 26
          11 13 28 27 13 15 29 28 15 17 30 29
          17 19 31 30 19 21 32 31 22 23 34 33
          23 24 35 34 24 25 36 35 25 26 37 36
          26 27 38 37 27 28 39 38 28 29 40 39
          29 30 41 40 30 31 42 41 31 32 43 42
          33 34 45 44 34 35 46 45 35 36 47 46
          36 37 48 47 37 38 49 48 38 39 50 49
          39 40 51 50 40 41 52 51 41 42 53 52
          42 43 54 53 44 45 56 55 45 46 57 56
          46 47 58 57 47 48 59 58 48 49 60 59
          49 50 61 60 50 51 62 61 51 52 63 62
          52 53 64 63 53 54 65 64 55 56 67 66
          56 57 68 67 57 58 69 68 58 59 70 69
          59 60 71 70 60 61 72 71 61 62 73 72
          62 63 74 73 63 64 75 74 64 65 76 75
          66 67 78 77 67 68 79 78 68 69 80 79
          69 70 81 80 70 71 82 81 71 72 83 82
          72 73 84 83 73 74 85 84 74 75 86 85
          75 76 87 86 77 78 89 88 78 79 90 89
          79 80 91 90 80 81 92 91 81 82 93 92
          82 83 94 93 83 84 95 94 84 85 96 95
          85 86 97 96 86 87 98 97 88 89 100 99