<?xml version="1.0"?>
<VTKFile type="UnstructuredGrid" version="0.1" byte_order="LittleEndian">
  <UnstructuredGrid>
    <Piece NumberOfCells="60" NumberOfPoints="78">
      <PointData Scalars="Sn" Vectors="velocityW">
        <DataArray type="Float32" Name="Sn" NumberOfComponents="1" format="ascii">
          0.0124414 0.0124385 0.0159564 0.0159508 0.0124327 0.0159394 0.0124276 0.0159298 0.0124243 0.0159236 0.0124232 0.0159214
          0.0404505 0.0403737 0.0402162 0.0400847 0.0400001 0.039971 0.153005 0.152754 0.152233 0.151781 0.151492 0.151394
          0.367914 0.367517 0.366646 0.365887 0.365398 0.365237 0.58917 0.588802 0.587889 0.587122 0.586597 0.586417
          0.74393 0.743714 0.742849 0.742123 0.741669 0.741463 0.83683 0.836941 0.835917 0.834965 0.834471 0.834257
          0.89192 0.892878 0.891188 0.88942 0.888721 0.888359 0.926515 0.929777 0.92631 0.922651 0.921605 0.920812
          0.949861 0.959672 0.951644 0.944314 0.94297 0.941139 0.956589 0.99098 0.971242 0.959852 0.958404 0.954266
          0.959148 1 1 0.96402 0.972949 0.961403
        </DataArray>
        <DataArray type="Float32" Name="Sw" NumberOfComponents="1" format="ascii">
          0.987559 0.987561 0.984044 0.984049 0.987567 0.984061 0.987572 0.98407 0.987576 0.984076 0.987577 0.984079
          0.95955 0.959626 0.959784 0.959915 0.96 0.960029 0.846995 0.847246 0.847767 0.848219 0.848508 0.848606
          0.632086 0.632483 0.633354 0.634113 0.634602 0.634763 0.41083 0.411198 0.412111 0.412878 0.413403 0.413583
          0.25607 0.256286 0.257151 0.257877 0.258331 0.258537 0.16317 0.163059 0.164083 0.165035 0.165529 0.165743
          0.10808 0.107122 0.108812 0.11058 0.111279 0.111641 0.0734852 0.0702227 0.0736903 0.0773492 0.078395 0.0791882
          0.0501388 0.0403284 0.0483555 0.0556858 0.0570297 0.0588612 0.0434112 0.00902024 0.0287585 0.0401477 0.0415963 0.0457336
          0.0408517 0 0 0.0359804 0.0270507 0.0385969
        </DataArray>
        <DataArray type="Float32" Name="pn" NumberOfComponents="1" format="ascii">
          100004 100004 100004 100004 100003 100003 100003 100002 100002 100002 100002 100002
          100004 100003 100003 100002 100002 100002 100003 100003 100002 100002 100001 100001
          100003 100003 100002 100001 100001 100001 100003 100003 100002 100001 100001 100001
          100003 100002 100001 100001 100000 100000 100003 100002 100001 100001 100000 100000
          100003 100002 100001 100000 99999.8 99999.7 100003 100003 99999.9 100000 99999.4 99999.5
          100003 100003 99998.8 100000 99998.9 99999.4 100003 100004 99997.2 100001 99998.1 99999.5
          100003 100005 99994.6 100002 99996.9 100000
        </DataArray>
        <DataArray type="Float32" Name="pw" NumberOfComponents="1" format="ascii">
          99651.7 99651.7 99325.4 99325.4 99651.7 99325.5 99651.8 99325.5 99651.8 99325.5 99651.8 99325.5
          99028.8 99028.8 99028.9 99028.9 99029 99029 98759.2 98759.2 98759.2 98759.3 98759.4 98759.4
          98514 98514 98514.1 98514.2 98514.3 98514.3 98291 98291 98291.1 98291.3 98291.5 98291.6
          98087.9 98087.7 98088.1 98088.6 98088.9 98089.1 97901.5 97900.6 97901.9 97903.7 97904.5 97905
          97726.6 97722.1 97727 97733.7 97735.9 97737.2 97553.2 97531.3 97551.1 97573.9 97579.2 97584
          97367.2 97252.4 97344 97417 97427.2 97443.3 97292.2 96235.6 97051.7 97247.8 97264 97315.8
          97259.4 95702.2 95692.2 97188.4 97013.5 97225.2
        </DataArray>
        <DataArray type="Float32" Name="pc" NumberOfComponents="1" format="ascii">
          352.715 352.369 678.655 678.294 351.648 677.55 351.025 676.923 350.623 676.518 350.485 676.379
          974.932 974.563 973.804 973.167 972.756 972.615 1244.28 1243.91 1243.13 1242.45 1242.01 1241.87
          1489.21 1488.82 1487.96 1487.22 1486.74 1486.58 1712.02 1711.61 1710.6 1709.76 1709.18 1708.98
          1915.11 1914.76 1913.36 1912.19 1911.46 1911.13 2101.52 2101.81 2099.2 2096.79 2095.55 2095.01
          2276.55 2280.43 2273.61 2266.6 2263.87 2262.46 2450.12 2471.39 2448.82 2426.35 2420.16 2415.54
          2636.26 2750.83 2654.83 2583.45 2571.65 2556.11 2711.25 3768.65 2945.45 2753.27 2734.09 2683.77
          2743.83 4302.49 4302.49 2813.95 2983.4 2774.83
        </DataArray>
        <DataArray type="Float32" Name="rhoW" NumberOfComponents="1" format="ascii">
          997.047 997.047 997.047 997.047 997.047 997.047 997.047 997.047 997.047 997.047 997.047 997.047
          997.047 997.047 997.047 997.047 997.047 997.047 997.047 997.047 997.047 997.047 997.047 997.047
          997.047 997.047 997.047 997.047 997.047 997.047 997.047 997.047 997.047 997.047 997.047 997.047
          997.047 997.047 997.047 997.047 997.047 997.047 997.047 997.047 997.047 997.047 997.047 997.047
          997.047 997.047 997.047 997.047 997.047 997.047 997.047 997.047 997.047 997.047 997.047 997.047
          997.047 997.046 997.046 997.047 997.047 997.047 997.046 997.046 997.046 997.046 997.046 997.046
          997.046 997.046 997.046 997.046 997.046 997.046
        </DataArray>
        <DataArray type="Float32" Name="rhoN" NumberOfComponents="1" format="ascii">
          1.15429 1.15428 1.15429 1.15428 1.15428 1.15427 1.15427 1.15427 1.15427 1.15426 1.15426 1.15426
          1.15428 1.15428 1.15427 1.15426 1.15426 1.15426 1.15428 1.15427 1.15427 1.15426 1.15425 1.15425
          1.15427 1.15427 1.15426 1.15425 1.15425 1.15425 1.15427 1.15427 1.15426 1.15425 1.15425 1.15424
          1.15427 1.15427 1.15425 1.15425 1.15424 1.15424 1.15427 1.15427 1.15425 1.15424 1.15424 1.15424
          1.15427 1.15427 1.15424 1.15424 1.15423 1.15423 1.15428 1.15427 1.15424 1.15424 1.15423 1.15423
          1.15428 1.15428 1.15422 1.15424 1.15422 1.15423 1.15428 1.15429 1.1542 1.15425 1.15422 1.15423
          1.15428 1.95988 1.18047 1.15427 1.1542 1.15424
        </DataArray>
        <DataArray type="Float32" Name="mobW" NumberOfComponents="1" format="ascii">
          1123.07 1123.07 1120.66 1120.66 1123.07 1120.67 1123.07 1120.68 1123.08 1120.69 1123.08 1120.69
          1058.33 1058.62 1059.23 1059.73 1060.05 1060.16 636.668 637.288 638.571 639.687 640.401 640.644
          254.856 255.343 256.414 257.35 257.954 258.154 70.3119 70.4982 70.9618 71.3528 71.6213 71.7135
          17.498 17.5413 17.7158 17.863 17.9556 17.9975 4.64838 4.63901 4.72557 4.80686 4.84949 4.86797
          1.36855 1.33262 1.39647 1.46537 1.4932 1.50776 0.42692 0.371541 0.43057 0.499125 0.519944 0.536105
          0.130393 0.0649651 0.116273 0.181306 0.195317 0.215517 0.0824073 0.000135473 0.021039 0.0640252 0.0718144 0.097375
          0.0677381 0 0 0.0447271 0.0170211 0.0563181
        </DataArray>
        <DataArray type="Float32" Name="mobN" NumberOfComponents="1" format="ascii">
          0.33903 0.338227 2.09675 2.09276 0.336558 2.08455 0.335122 2.07766 0.334197 2.07322 0.333879 2.0717
          58.6134 58.3126 57.6978 57.187 56.8592 56.747 1358.6 1353.77 1343.82 1335.21 1329.71 1327.85
          8526.09 8507.45 8466.56 8431.03 8408.17 8400.64 21727.2 21701 21636 21581.4 21544.1 21531.3
          33779.6 33761.6 33689.4 33628.8 33590.9 33573.8 41744.4 41754.2 41664.7 41581.7 41538.6 41519.9
          46558.8 46642.1 46495 46341 46280.2 46248.6 50000.9 50349.1 49979 49587.7 49476 49391.4
          52385.9 53243.4 52550.7 51852.1 51718.6 51534.4 52987.7 54804.4 54064.2 53257.9 53139.9 52786.3
          53200.9 54828.6 54828.6 53579.2 54164.1 53380.8
        </DataArray>
        <DataArray type="Float32" Name="X_liquid^H2O" NumberOfComponents="1" format="ascii">
          0.999978 0.999978 0.999978 0.999978 0.999978 0.999978 0.999978 0.999978 0.999978 0.999978 0.999978 0.999978
          0.999978 0.999978 0.999978 0.999978 0.999978 0.999978 0.999978 0.999978 0.999978 0.999978 0.999978 0.999978
          0.999978 0.999978 0.999978 0.999978 0.999978 0.999978 0.999978 0.999978 0.999978 0.999978 0.999978 0.999978
          0.999978 0.999978 0.999978 0.999978 0.999978 0.999978 0.999978 0.999978 0.999978 0.999978 0.999978 0.999978
          0.999978 0.999978 0.999978 0.999978 0.999978 0.999978 0.999978 0.999978 0.999978 0.999978 0.999978 0.999978
          0.999978 0.999978 0.999978 0.999978 0.999978 0.999978 0.999978 0.999978 0.999978 0.999978 0.999978 0.999978
          0.999978 -56.5641 -0.879216 0.999978 0.999978 0.999978
        </DataArray>
        <DataArray type="Float32" Name="X_liquid^Air" NumberOfComponents="1" format="ascii">
          2.15478e-05 2.15478e-05 2.15478e-05 2.15477e-05 2.15476e-05 2.15475e-05 2.15475e-05 2.15474e-05 2.15474e-05 2.15473e-05 2.15474e-05 2.15473e-05
          2.15477e-05 2.15476e-05 2.15474e-05 2.15473e-05 2.15472e-05 2.15472e-05 2.15476e-05 2.15475e-05 2.15474e-05 2.15472e-05 2.15472e-05 2.15471e-05
          2.15476e-05 2.15475e-05 2.15473e-05 2.15472e-05 2.15471e-05 2.1547e-05 2.15475e-05 2.15474e-05 2.15472e-05 2.15471e-05 2.1547e-05 2.1547e-05
          2.15475e-05 2.15474e-05 2.15472e-05 2.1547e-05 2.15469e-05 2.15469e-05 2.15475e-05 2.15474e-05 2.15471e-05 2.1547e-05 2.15469e-05 2.15468e-05
          2.15475e-05 2.15474e-05 2.1547e-05 2.15469e-05 2.15468e-05 2.15468e-05 2.15476e-05 2.15475e-05 2.15468e-05 2.15469e-05 2.15467e-05 2.15467e-05
          2.15476e-05 2.15476e-05 2.15466e-05 2.15469e-05 2.15466e-05 2.15467e-05 2.15476e-05 2.15478e-05 2.15462e-05 2.15471e-05 2.15464e-05 2.15467e-05
          2.15476e-05 6.21505e-05 2.28715e-05 2.15474e-05 2.15462e-05 2.15469e-05
        </DataArray>
        <DataArray type="Float32" Name="X_gas^H2O" NumberOfComponents="1" format="ascii">
          0.019956 0.0199561 0.0199561 0.0199561 0.0199562 0.0199563 0.0199563 0.0199564 0.0199564 0.0199565 0.0199564 0.0199565
          0.0199561 0.0199562 0.0199563 0.0199565 0.0199565 0.0199566 0.0199562 0.0199563 0.0199564 0.0199565 0.0199566 0.0199566
          0.0199562 0.0199563 0.0199565 0.0199566 0.0199567 0.0199567 0.0199563 0.0199564 0.0199565 0.0199567 0.0199567 0.0199568
          0.0199563 0.0199564 0.0199566 0.0199567 0.0199568 0.0199568 0.0199563 0.0199564 0.0199567 0.0199568 0.0199569 0.0199569
          0.0199563 0.0199564 0.0199568 0.0199568 0.0199569 0.0199569 0.0199562 0.0199563 0.0199569 0.0199568 0.019957 0.019957
          0.0199562 0.0199562 0.0199571 0.0199568 0.0199571 0.019957 0.0199562 0.019956 0.0199575 0.0199567 0.0199573 0.019957
          0.0199562 -0.664819 -0.0171565 0.0199564 0.0199575 0.0199569
        </DataArray>
        <DataArray type="Float32" Name="X_gas^Air" NumberOfComponents="1" format="ascii">
          0.980044 0.980044 0.980044 0.980044 0.980044 0.980044 0.980044 0.980044 0.980044 0.980044 0.980044 0.980044
          0.980044 0.980044 0.980044 0.980044 0.980043 0.980043 0.980044 0.980044 0.980044 0.980043 0.980043 0.980043
          0.980044 0.980044 0.980044 0.980043 0.980043 0.980043 0.980044 0.980044 0.980043 0.980043 0.980043 0.980043
          0.980044 0.980044 0.980043 0.980043 0.980043 0.980043 0.980044 0.980044 0.980043 0.980043 0.980043 0.980043
          0.980044 0.980044 0.980043 0.980043 0.980043 0.980043 0.980044 0.980044 0.980043 0.980043 0.980043 0.980043
          0.980044 0.980044 0.980043 0.980043 0.980043 0.980043 0.980044 0.980044 0.980043 0.980043 0.980043 0.980043
          0.980044 1.66482 1.01716 0.980044 0.980043 0.980043
        </DataArray>
        <DataArray type="Float32" Name="x_liquid^H2O" NumberOfComponents="1" format="ascii">
          0.999987 0.999987 0.999987 0.999987 0.999987 0.999987 0.999987 0.999987 0.999987 0.999987 0.999987 0.999987
          0.999987 0.999987 0.999987 0.999987 0.999987 0.999987 0.999987 0.999987 0.999987 0.999987 0.999987 0.999987
          0.999987 0.999987 0.999987 0.999987 0.999987 0.999987 0.999987 0.999987 0.999987 0.999987 0.999987 0.999987
          0.999987 0.999987 0.999987 0.999987 0.999987 0.999987 0.999987 0.999987 0.999987 0.999987 0.999987 0.999987
          0.999987 0.999987 0.999987 0.999987 0.999987 0.999987 0.999987 0.999987 0.999987 0.999987 0.999987 0.999987
          0.999987 0.999987 0.999987 0.999987 0.999987 0.999987 0.999987 0.999987 0.999987 0.999987 0.999987 0.999987
          0.999987 -56.564 -0.879207 0.999987 0.999987 0.999987
        </DataArray>
        <DataArray type="Float32" Name="x_liquid^Air" NumberOfComponents="1" format="ascii">
          1.34044e-05 1.34043e-05 1.34043e-05 1.34043e-05 1.34042e-05 1.34042e-05 1.34042e-05 1.34041e-05 1.34041e-05 1.34041e-05 1.34041e-05 1.3404e-05
          1.34043e-05 1.34043e-05 1.34042e-05 1.34041e-05 1.3404e-05 1.3404e-05 1.34043e-05 1.34042e-05 1.34041e-05 1.3404e-05 1.3404e-05 1.3404e-05
          1.34042e-05 1.34042e-05 1.34041e-05 1.3404e-05 1.34039e-05 1.34039e-05 1.34042e-05 1.34041e-05 1.3404e-05 1.34039e-05 1.34039e-05 1.34039e-05
          1.34042e-05 1.34041e-05 1.3404e-05 1.34039e-05 1.34038e-05 1.34038e-05 1.34042e-05 1.34041e-05 1.34039e-05 1.34039e-05 1.34038e-05 1.34038e-05
          1.34042e-05 1.34041e-05 1.34039e-05 1.34038e-05 1.34037e-05 1.34037e-05 1.34042e-05 1.34042e-05 1.34038e-05 1.34038e-05 1.34037e-05 1.34037e-05
          1.34043e-05 1.34042e-05 1.34036e-05 1.34038e-05 1.34036e-05 1.34037e-05 1.34043e-05 1.34044e-05 1.34034e-05 1.34039e-05 1.34035e-05 1.34037e-05
          1.34042e-05 3.8662e-05 1.42276e-05 1.34041e-05 1.34034e-05 1.34038e-05
        </DataArray>
        <DataArray type="Float32" Name="x_gas^H2O" NumberOfComponents="1" format="ascii">
          0.0316956 0.0316958 0.0316957 0.0316959 0.031696 0.0316961 0.0316962 0.0316963 0.0316963 0.0316964 0.0316963 0.0316964
          0.0316959 0.031696 0.0316962 0.0316964 0.0316965 0.0316965 0.0316959 0.0316961 0.0316963 0.0316965 0.0316966 0.0316967
          0.031696 0.0316961 0.0316964 0.0316966 0.0316967 0.0316968 0.0316961 0.0316962 0.0316965 0.0316967 0.0316968 0.0316969
          0.0316961 0.0316963 0.0316966 0.0316968 0.0316969 0.031697 0.0316961 0.0316963 0.0316967 0.0316969 0.031697 0.0316971
          0.0316961 0.0316963 0.0316969 0.0316969 0.0316971 0.0316971 0.031696 0.0316962 0.0316971 0.031697 0.0316972 0.0316972
          0.031696 0.031696 0.0316974 0.0316969 0.0316974 0.0316972 0.031696 0.0316957 0.0316979 0.0316967 0.0316976 0.0316972
          0.031696 -1.79285 -0.0278701 0.0316963 0.031698 0.031697
        </DataArray>
        <DataArray type="Float32" Name="x_gas^Air" NumberOfComponents="1" format="ascii">
          0.968304 0.968304 0.968304 0.968304 0.968304 0.968304 0.968304 0.968304 0.968304 0.968304 0.968304 0.968304
          0.968304 0.968304 0.968304 0.968304 0.968304 0.968303 0.968304 0.968304 0.968304 0.968304 0.968303 0.968303
          0.968304 0.968304 0.968304 0.968303 0.968303 0.968303 0.968304 0.968304 0.968304 0.968303 0.968303 0.968303
          0.968304 0.968304 0.968303 0.968303 0.968303 0.968303 0.968304 0.968304 0.968303 0.968303 0.968303 0.968303
          0.968304 0.968304 0.968303 0.968303 0.968303 0.968303 0.968304 0.968304 0.968303 0.968303 0.968303 0.968303
          0.968304 0.968304 0.968303 0.968303 0.968303 0.968303 0.968304 0.968304 0.968302 0.968303 0.968302 0.968303
          0.968304 2.79285 1.02787 0.968304 0.968302 0.968303
        </DataArray>
        <DataArray type="Float32" Name="porosity" NumberOfComponents="1" format="ascii">
          0.41 0.41 0.41 0.41 0.41 0.41 0.41 0.41 0.41 0.41 0.41 0.41
          0.41 0.41 0.41 0.41 0.41 0.41 0.41 0.41 0.41 0.41 0.41 0.41
          0.41 0.41 0.41 0.41 0.41 0.41 0.41 0.41 0.41 0.41 0.41 0.41
          0.41 0.41 0.41 0.41 0.41 0.41 0.41 0.41 0.41 0.41 0.41 0.41
          0.41 0.41 0.41 0.41 0.41 0.41 0.41 0.41 0.41 0.41 0.41 0.41
          0.41 0.41 0.41 0.41 0.41 0.41 0.41 0.41 0.41 0.41 0.41 0.41
          0.41 0.41 0.41 0.41 0.41 0.41
        </DataArray>
        <DataArray type="Float32" Name="temperature" NumberOfComponents="1" format="ascii">
          298.15 298.15 298.15 298.15 298.15 298.15 298.15 298.15 298.15 298.15 298.15 298.15
          298.15 298.15 298.15 298.15 298.15 298.15 298.15 298.15 298.15 298.15 298.15 298.15
          298.15 298.15 298.15 298.15 298.15 298.15 298.15 298.15 298.15 298.15 298.15 298.15
          298.15 298.15 298.15 298.15 298.15 298.15 298.15 298.15 298.15 298.15 298.15 298.15
          298.15 298.15 298.15 298.15 298.15 298.15 298.15 298.15 298.15 298.15 298.15 298.15
          298.15 298.15 298.15 298.15 298.15 298.15 298.15 298.15 298.15 298.15 298.15 298.15
          298.15 298.15 298.15 298.15 298.15 298.15
        </DataArray>
        <DataArray type="Float32" Name="phase presence" NumberOfComponents="1" format="ascii">
          3 3 3 3 3 3 3 3 3 3 3 3
          3 3 3 3 3 3 3 3 3 3 3 3
          3 3 3 3 3 3 3 3 3 3 3 3
          3 3 3 3 3 3 3 3 3 3 3 3
          3 3 3 3 3 3 3 3 3 3 3 3
          3 3 3 3 3 3 3 3 3 3 3 3
          3 2 2 3 3 3
        </DataArray>
        <DataArray type="Float32" Name="velocityW" NumberOfComponents="3" format="ascii">
          -5.9686e-08 4.04102e-08 0 -1.08635e-07 3.32472e-08 0 -6.37959e-08 8.20339e-08 0 -1.1781e-07 6.86206e-08 0
          -1.74873e-07 1.21272e-08 0 -1.90939e-07 2.53228e-08 0 -1.71109e-07 -1.34515e-08 0 -1.85594e-07 -2.79188e-08 0
          -1.02974e-07 -3.08157e-08 0 -1.10373e-07 -6.20324e-08 0 -5.5892e-08 -3.6693e-08 0 -5.96119e-08 -7.35446e-08 0
          -6.94736e-08 1.76692e-07 0 -1.3555e-07 1.54965e-07 0 -2.27898e-07 6.64301e-08 0 -2.20112e-07 -4.92155e-08 0
          -1.2695e-07 -1.14595e-07 0 -6.7846e-08 -1.36809e-07 0 -4.59766e-08 2.91906e-07 0 -1.03626e-07 2.7407e-07 0
          -1.93687e-07 1.49152e-07 0 -1.95508e-07 -3.42745e-08 0 -1.11248e-07 -1.26201e-07 0 -5.75794e-08 -1.55599e-07 0
          -1.41761e-08 4.14073e-07 0 -5.60843e-08 4.15208e-07 0 -1.23776e-07 2.69366e-07 0 -1.37498e-07 3.48621e-08 0
          -8.36106e-08 -8.31834e-08 0 -4.17859e-08 -1.14648e-07 0 7.12923e-09 5.14212e-07 0 -2.37294e-08 5.44595e-07 0
          -6.93984e-08 3.8438e-07 0 -7.7346e-08 1.22618e-07 0 -5.03974e-08 -1.53148e-08 0 -3.03116e-08 -5.10406e-08 0
          1.88501e-08 5.74091e-07 0 -1.05907e-08 6.39446e-07 0 -5.1012e-08 4.65383e-07 0 -4.82912e-08 1.8483e-07 0
          -2.75667e-08 4.36577e-08 0 -2.05435e-08 -1.6702e-09 0 2.98637e-08 5.99172e-07 0 -4.9673e-09 7.06104e-07 0
          -4.92417e-08 5.16057e-07 0 -4.10532e-08 2.16303e-07 0 -1.83929e-08 8.2081e-08 0 -1.33645e-08 2.84961e-08 0
          4.50265e-08 5.99749e-07 0 -8.36264e-10 7.5872e-07 0 -5.49156e-08 5.4768e-07 0 -4.105e-08 2.28354e-07 0
          -1.61548e-08 1.04576e-07 0 -1.33417e-08 4.4605e-08 0 7.07727e-08 5.80821e-07 0 4.73185e-09 8.09008e-07 0
          -6.64427e-08 5.68034e-07 0 -4.34434e-08 2.28603e-07 0 -1.5812e-08 1.18997e-07 0 -1.63136e-08 5.06104e-08 0
          1.52632e-07 5.31455e-07 0 2.29604e-08 8.74433e-07 0 -9.27795e-08 5.77575e-07 0 -4.48112e-08 2.21672e-07 0
          -1.63026e-08 1.30318e-07 0 -2.18308e-08 4.94955e-08 0 4.37368e-07 2.88819e-07 0 1.83991e-07 4.57704e-07 0
          -9.29187e-08 5.23091e-07 0 -5.69575e-08 2.04596e-07 0 -1.60893e-08 1.42954e-07 0 -3.47156e-08 4.1579e-08 0
          5.14105e-07 8.13986e-08 0 2.57053e-07 1.41174e-09 0 -1.38819e-07 4.6708e-07 0 -1.23751e-07 1.92301e-07 0
          -1.05601e-08 1.50235e-07 0 -5.12557e-08 3.57475e-08 0
        </DataArray>
        <DataArray type="Float32" Name="velocityN" NumberOfComponents="3" format="ascii">
          6.1007e-10 -1.00023e-09 0 9.32608e-10 -8.08468e-10 0 3.88093e-09 -4.52825e-09 0 5.89831e-09 -3.1497e-09 0
          1.15493e-09 -5.2639e-10 0 7.22886e-09 -1.14438e-09 0 8.62574e-10 -4.64979e-10 0 5.35387e-09 -7.61483e-10 0
          4.49648e-10 -4.45705e-10 0 2.79368e-09 -6.23895e-10 0 2.28864e-10 -4.40239e-10 0 1.42167e-09 -5.86328e-10 0
          1.10725e-07 -8.50228e-08 0 1.67207e-07 -5.1047e-08 0 2.02859e-07 -2.51821e-09 0 1.48628e-07 5.49313e-09 0
          7.71592e-08 8.48068e-09 0 3.909e-08 9.15372e-09 0 2.6176e-06 -1.57708e-06 0 3.95892e-06 -8.39968e-07 0
          4.84029e-06 2.00723e-07 0 3.56533e-06 4.0276e-07 0 1.83727e-06 4.6035e-07 0 9.24187e-07 4.67595e-07 0
          1.71453e-05 -1.12415e-05 0 2.64495e-05 -6.08135e-06 0 3.22298e-05 2.03041e-06 0 2.31798e-05 3.3823e-06 0
          1.17578e-05 3.66973e-06 0 5.86223e-06 3.66775e-06 0 4.80155e-05 -4.03872e-05 0 7.54243e-05 -2.25183e-05 0
          8.88046e-05 9.67391e-06 0 6.02811e-05 1.22347e-05 0 3.03263e-05 1.31142e-05 0 1.48664e-05 1.28437e-05 0
          8.5969e-05 -9.52402e-05 0 0.000139175 -5.5451e-05 0 0.000152388 3.13535e-05 0 9.29965e-05 2.61741e-05 0
          4.78363e-05 2.99365e-05 0 2.20736e-05 2.79787e-05 0 0.000123302 -0.000173466 0 0.000215984 -0.000109608 0
          0.000212126 8.1416e-05 0 0.000108015 3.66763e-05 0 6.14255e-05 5.40362e-05 0 2.24081e-05 4.47653e-05 0
          0.000149152 -0.000266484 0 0.000315902 -0.000196917 0 0.000270401 0.000184604 0 0.000100616 2.59244e-05 0
          7.56169e-05 8.98753e-05 0 8.15166e-06 5.56045e-05 0 0.000137395 -0.000356259 0 0.000457609 -0.000345495 0
          0.000335308 0.000383823 0 6.50976e-05 -3.81926e-05 0 9.89497e-05 0.000152525 0 -3.9502e-05 4.68934e-05 0
          2.76009e-05 -0.000405374 0 0.00065683 -0.000608574 0 0.000410305 0.000749019 0 -1.05239e-05 -0.00021036 0
          0.000141985 0.000274222 0 -0.000160431 -7.34432e-06 0 -0.000232934 -0.000269771 0 0.000920664 -0.000502527 0
          0.000465532 0.00143274 0 -0.000140404 -0.000574653 0 0.000218907 0.000511785 0 -0.000424573 -0.000153273 0
          -0.00038843 -0.000126078 0 0.00116324 -0.000227834 0 0.000398046 0.00188169 0 -0.000272855 -0.000817317 0
          0.000302301 0.000668416 0 -0.000768498 -0.000256438 0
        </DataArray>
      </PointData>
      <CellData Scalars="process rank">
        <DataArray type="Float32" Name="process rank" NumberOfComponents="1" format="ascii">
          0 0 0 0 0 0 0 0 0 0 0 0
          0 0 0 0 0 0 0 0 0 0 0 0
          0 0 0 0 0 0 0 0 0 0 0 0
          0 0 0 0 0 0 0 0 0 0 0 0
          0 0 0 0 0 0 0 0 0 0 0 0
        </DataArray>
      </CellData>
      <Points>
        <DataArray type="Float32" Name="Coordinates" NumberOfComponents="3" format="ascii">
          0.25 0 0 0.3 0 0 0.25 0.0333553 0 0.3 0.0333553 0
          0.35 0 0 0.35 0.0333553 0 0.4 0 0 0.4 0.0333553 0
          0.45 0 0 0.45 0.0333553 0 0.5 0 0 0.5 0.0333553 0
          0.25 0.0636783 0 0.3 0.0636783 0 0.35 0.0636783 0 0.4 0.0636783 0
          0.45 0.0636783 0 0.5 0.0636783 0 0.25 0.0912447 0 0.3 0.0912447 0
          0.35 0.0912447 0 0.4 0.0912447 0 0.45 0.0912447 0 0.5 0.0912447 0
          0.25 0.116305 0 0.3 0.116305 0 0.35 0.116305 0 0.4 0.116305 0
          0.45 0.116305 0 0.5 0.116305 0 0.25 0.139087 0 0.3 0.139087 0
          0.35 0.139087 0 0.4 0.139087 0 0.45 0.139087 0 0.5 0.139087 0
          0.25 0.159798 0 0.3 0.159798 0 0.35 0.159798 0 0.4 0.159798 0
          0.45 0.159798 0 0.5 0.159798 0 0.25 0.178626 0 0.3 0.178626 0
          0.35 0.178626 0 0.4 0.178626 0 0.45 0.178626 0 0.5 0.178626 0
          0.25 0.195743 0 0.3 0.195743 0 0.35 0.195743 0 0.4 0.195743 0
          0.45 0.195743 0 0.5 0.195743 0 0.25 0.211303 0 0.3 0.211303 0
          0.35 0.211303 0 0.4 0.211303 0 0.45 0.211303 0 0.5 0.211303 0
          0.25 0.225449 0 0.3 0.225449 0 0.35 0.225449 0 0.4 0.225449 0
          0.45 0.225449 0 0.5 0.225449 0 0.25 0.238309 0 0.3 0.238309 0
          0.35 0.238309 0 0.4 0.238309 0 0.45 0.238309 0 0.5 0.238309 0
          0.25 0.25 0 0.3 0.25 0 0.35 0.25 0 0.4 0.25 0
          0.45 0.25 0 0.5 0.25 0
        </DataArray>
      </Points>
      <Cells>
        <DataArray type="Int32" Name="connectivity" NumberOfComponents="1" format="ascii">
          0 1 3 2 1 4 5 3 4 6 7 5
          6 8 9 7 8 10 11 9 2 3 13 12
          3 5 14 13 5 7 15 14 7 9 16 15
          9 11 17 16 12 13 19 18 13 14 20 19
          14 15 21 20 15 16 22 21 16 17 23 22
          18 19 25 24 19 20 26 25 20 21 27 26
          21 22 28 27 22 23 29 28 24 25 31 30
          25 26 32 31 26 27 33 32 27 28 34 33
          28 29 35 34 30 31 37 36 31 32 38 37
          32 33 39 38 33 34 40 39 34 35 41 40
          36 37 43 42 37 38 44 43 38 39 45 44
          39 40 46 45 40 41 47 46 42 43 49 48
          43 44 50 49 44 45 51 50 45 46 52 51
          46 47 53 52 48 49 55 54 49 50 56 55
          50 51 57 56 51 52 58 57 52 53 59 58
          54 55 61 60 55 56 62 61 56 57 63 62
          57 58 64 63 58 59 65 64 60 61 67 66
          61 62 68 67 62 63 69 68 63 64 70 69
          64 65 71 70 66 67 73 72 67 68 74 73
          68 69 75 74 69 70 76 75 70 71 77 76
        </DataArray>
        <DataArray type="Int32" Name="offsets" NumberOfComponents="1" format="ascii">
          4 8 12 16 20 24 28 32 36 40 44 48
          52 56 60 64 68 72 76 80 84 88 92 96
          100 104 108 112 116 120 124 128 132 136 140 144
          148 152 156 160 164 168 172 176 180 184 188 192
          196 200 204 208 212 216 220 224 228 232 236 240
        </DataArray>
        <DataArray type="UInt8" Name="types" NumberOfComponents="1" format="ascii">
          9 9 9 9 9 9 9 9 9 9 9 9
          9 9 9 9 9 9 9 9 9 9 9 9
          9 9 9 9 9 9 9 9 9 9 9 9
          9 9 9 9 9 9 9 9 9 9 9 9
          9 9 9 9 9 9 9 9 9 9 9 9
        </DataArray>
      </Cells>
    </Piece>
  </UnstructuredGrid>
</VTKFile>
