<?xml version="1.0"?>
<VTKFile type="UnstructuredGrid" version="0.1" byte_order="LittleEndian">
  <UnstructuredGrid>
    <Piece NumberOfCells="120" NumberOfPoints="143">
      <PointData Scalars="P" Vectors="v">
        <DataArray type="Float32" Name="P" NumberOfComponents="1" format="ascii">
          100012 99987 100012 99987 100011 100011 99989 99989 100009 100009 99991.4 99991.2
          100005 100006 99994.5 99993.8 100002 100003 99996.8 99996.5 100000 100000 100017 99985.9
          100012 99988.8 100009 99991.4 100005 99994.3 100003 99996.7 100000 100016 99985.8 100012
          99988.7 100009 99991.2 100006 99993.8 100003 99996.4 100000 100016 99985.6 100012 99988.6
          100009 99991.3 100005 99994.1 100003 99996.6 100000 100016 99985.6 100012 99988.5 100009
          99991.1 100006 99993.7 100003 99996.3 100000 100016 99985.5 100012 99988.4 100009 99991.2
          100006 99993.9 100003 99996.4 100000 100016 99985.6 100012 99988.5 100009 99991.1 100006
          99993.7 100003 99996.2 100000 100016 99985.5 100012 99988.4 100009 99991.2 100006 99993.8
          100003 99996.3 100000 100016 99985.7 100012 99988.6 100009 99991.2 100006 99993.7 100003
          99996.2 100000 100017 99985.6 100012 99988.6 100009 99991.3 100006 99993.8 100003 99996.3
          100000 100012 99987.3 100011 99989.2 100008 99991.4 100006 99993.8 100003 99996.2 100000
          100012 99987.3 100011 99989.2 100008 99991.4 100006 99993.8 100003 99996.2 100000
        </DataArray>
        <DataArray type="Float32" Name="delP" NumberOfComponents="1" format="ascii">
          12.0108 -13.0312 12.0164 -13.0256 11.3487 11.3494 -11.0224 -11.0199 8.54304 8.57088 -8.64047 -8.75945
          4.93883 5.66893 -5.50717 -6.16547 2.44718 2.82332 -3.20889 -3.51408 0 0 16.6787 -14.1468
          11.7699 -11.1994 8.60001 -8.63584 5.12004 -5.65555 2.53673 -3.27521 0 16.1121 -14.1616 11.89
          -11.3057 8.72011 -8.80612 5.7793 -6.24935 2.88339 -3.6116 0 15.8854 -14.3664 12.0677 -11.4328
          8.74625 -8.73877 5.39886 -5.88465 2.67316 -3.44293 0 15.809 -14.3604 12.0904 -11.4829 8.84686
          -8.87201 5.87392 -6.31981 2.93166 -3.71085 0 15.59 -14.5004 12.1937 -11.5678 8.85233 -8.82428
          5.60553 -6.06528 2.7774 -3.58252 0 15.6971 -14.4141 12.1149 -11.5387 8.88547 -8.89006 5.90161
          -6.34367 2.94527 -3.77052 0 15.6011 -14.5274 12.1887 -11.5871 8.86383 -8.84482 5.71501 -6.17562
          2.83606 -3.6822 0 15.8684 -14.2711 11.9169 -11.4155 8.76766 -8.80615 5.83009 -6.30214 2.90852
          -3.78135 0 16.6455 -14.4034 11.8944 -11.3731 8.67807 -8.73049 5.69573 -6.19991 2.83526 -3.74137
          0 12.2117 -12.7236 10.7898 -10.813 8.3515 -8.55169 5.63791 -6.19054 2.8155 -3.74988 0
          12.2051 -12.7301 10.7899 -10.816 8.35058 -8.55381 5.63605 -6.19234 2.81405 -3.75106 0
        </DataArray>
        <DataArray type="Float32" Name="x_gas^H2O" NumberOfComponents="1" format="ascii">
          0.0127981 0.0100572 0.0142557 0.0138327 0.00956491 0.0135636 0.00868287 0.0132499 0.00810545 0.0129813 0.00799388 0.0127768
          0.0178 0.0128274 0.0248037 0.0131276 0.0316963 0.0133731 0.031698 0.0140766 0.031697 0.0159141 0.0122164 0.0124124
          0.0124834 0.0125305 0.0125389 0.0125294 0.0125186 0.0125367 0.0125695 0.0126909 0.0135844 0.0120351 0.0120914 0.0121341
          0.0121805 0.0122144 0.0122412 0.012256 0.0122738 0.0122921 0.0123345 0.0129521 0.0120576 0.0120659 0.0120771 0.012093
          0.0121088 0.0121248 0.0121373 0.012151 0.0121642 0.0121913 0.0126584 0.0120859 0.012086 0.0120872 0.0120901 0.0120941
          0.0120992 0.0121045 0.0121107 0.0121175 0.012136 0.0126006 0.0121103 0.0121065 0.0121039 0.0121021 0.0121014 0.0121018
          0.012103 0.0121051 0.0121083 0.0121249 0.0125903 0.0121083 0.0121068 0.0121056 0.0121049 0.0121049 0.0121059 0.0121078
          0.0121106 0.0121145 0.0121338 0.0126068 0.0121002 0.0120988 0.0121001 0.0121037 0.0121085 0.0121149 0.012122 0.0121301
          0.0121386 0.0121627 0.0126354 0.0120571 0.0120812 0.0121023 0.0121271 0.0121487 0.0121718 0.0121925 0.0122126 0.0122304
          0.0122596 0.0127345 0.0121442 0.0122794 0.0123425 0.012408 0.0124502 0.01249 0.0125182 0.0125411 0.0125567 0.012579
          0.0130799 0.0142518 0.0140947 0.0139893 0.0138703 0.0137722 0.013667 0.0135698 0.0134745 0.0133891 0.0133198 0.014055
          0.0127981 0.0115446 0.0113815 0.0109445 0.0107561 0.0104584 0.0101689 0.00995117 0.00977385 0.009699 0.0127981
        </DataArray>
        <DataArray type="Float32" Name="X_gas^H2O" NumberOfComponents="1" format="ascii">
          0.008 0.00628019 0.00891611 0.00865013 0.00597164 0.00848102 0.00541915 0.00828385 0.00505766 0.0081151 0.00498783 0.00798663
          0.0111479 0.00801845 0.0155757 0.00820703 0.0199564 0.00836128 0.0199575 0.00880346 0.0199569 0.00995957 0.00763475 0.00775777
          0.00780237 0.00783195 0.00783723 0.00783126 0.00782448 0.00783586 0.00785643 0.00793272 0.00849405 0.0075209 0.00755622 0.00758306
          0.00761219 0.00763349 0.00765026 0.00765956 0.00767076 0.00768227 0.00770889 0.00809677 0.00753505 0.00754021 0.00754728 0.00755726
          0.00756715 0.00757723 0.00758509 0.00759367 0.00760193 0.00761894 0.00791226 0.00755277 0.00755282 0.00755363 0.00755541 0.00755791
          0.00756117 0.00756446 0.00756837 0.00757266 0.00758426 0.00787599 0.00756808 0.00756571 0.00756407 0.00756296 0.00756255 0.00756276
          0.0075635 0.00756483 0.00756684 0.00757724 0.00786952 0.00756688 0.00756591 0.00756513 0.00756469 0.00756475 0.00756537 0.00756653
          0.00756829 0.00757073 0.00758283 0.00787989 0.00756174 0.00756089 0.0075617 0.00756393 0.00756695 0.007571 0.00757548 0.00758054
          0.00758588 0.00760098 0.00789781 0.00753473 0.00754984 0.00756309 0.00757862 0.00759223 0.00760672 0.00761972 0.00763234 0.00764353
          0.00766185 0.00796009 0.00758941 0.00767429 0.00771389 0.00775504 0.00778151 0.00780649 0.0078242 0.00783864 0.00784843 0.00786242
          0.00817706 0.00891366 0.00881488 0.00874858 0.0086738 0.0086121 0.00854602 0.00848488 0.00842501 0.00837136 0.00832781 0.00878988
          0.008 0.00721303 0.00711071 0.00683652 0.00671837 0.0065317 0.0063502 0.0062137 0.00610257 0.00605567 0.008
        </DataArray>
        <DataArray type="Float32" Name="x_gas^Air" NumberOfComponents="1" format="ascii">
          0.987202 0.989943 0.985744 0.986167 0.990435 0.986436 0.991317 0.98675 0.991895 0.987019 0.992006 0.987223
          0.9822 0.987173 0.975196 0.986872 0.968304 0.986627 0.968302 0.985923 0.968303 0.984086 0.987784 0.987588
          0.987517 0.987469 0.987461 0.987471 0.987481 0.987463 0.987431 0.987309 0.986416 0.987965 0.987909 0.987866
          0.987819 0.987786 0.987759 0.987744 0.987726 0.987708 0.987665 0.987048 0.987942 0.987934 0.987923 0.987907
          0.987891 0.987875 0.987863 0.987849 0.987836 0.987809 0.987342 0.987914 0.987914 0.987913 0.98791 0.987906
          0.987901 0.987895 0.987889 0.987882 0.987864 0.987399 0.98789 0.987894 0.987896 0.987898 0.987899 0.987898
          0.987897 0.987895 0.987892 0.987875 0.98741 0.987892 0.987893 0.987894 0.987895 0.987895 0.987894 0.987892
          0.987889 0.987886 0.987866 0.987393 0.9879 0.987901 0.9879 0.987896 0.987892 0.987885 0.987878 0.98787
          0.987861 0.987837 0.987365 0.987943 0.987919 0.987898 0.987873 0.987851 0.987828 0.987808 0.987787 0.98777
          0.98774 0.987265 0.987856 0.987721 0.987657 0.987592 0.98755 0.98751 0.987482 0.987459 0.987443 0.987421
          0.98692 0.985748 0.985905 0.986011 0.98613 0.986228 0.986333 0.98643 0.986525 0.986611 0.98668 0.985945
          0.987202 0.988455 0.988618 0.989056 0.989244 0.989542 0.989831 0.990049 0.990226 0.990301 0.987202
        </DataArray>
        <DataArray type="Float32" Name="X_gas^Air" NumberOfComponents="1" format="ascii">
          0.992 0.99372 0.991084 0.99135 0.994028 0.991519 0.994581 0.991716 0.994942 0.991885 0.995012 0.992013
          0.988852 0.991982 0.984424 0.991793 0.980044 0.991639 0.980042 0.991197 0.980043 0.99004 0.992365 0.992242
          0.992198 0.992168 0.992163 0.992169 0.992176 0.992164 0.992144 0.992067 0.991506 0.992479 0.992444 0.992417
          0.992388 0.992366 0.99235 0.99234 0.992329 0.992318 0.992291 0.991903 0.992465 0.99246 0.992453 0.992443
          0.992433 0.992423 0.992415 0.992406 0.992398 0.992381 0.992088 0.992447 0.992447 0.992446 0.992445 0.992442
          0.992439 0.992436 0.992432 0.992427 0.992416 0.992124 0.992432 0.992434 0.992436 0.992437 0.992437 0.992437
          0.992436 0.992435 0.992433 0.992423 0.99213 0.992433 0.992434 0.992435 0.992435 0.992435 0.992435 0.992433
          0.992432 0.992429 0.992417 0.99212 0.992438 0.992439 0.992438 0.992436 0.992433 0.992429 0.992425 0.992419
          0.992414 0.992399 0.992102 0.992465 0.99245 0.992437 0.992421 0.992408 0.992393 0.99238 0.992368 0.992356
          0.992338 0.99204 0.992411 0.992326 0.992286 0.992245 0.992218 0.992194 0.992176 0.992161 0.992152 0.992138
          0.991823 0.991086 0.991185 0.991251 0.991326 0.991388 0.991454 0.991515 0.991575 0.991629 0.991672 0.99121
          0.992 0.992787 0.992889 0.993163 0.993282 0.993468 0.99365 0.993786 0.993897 0.993944 0.992
        </DataArray>
        <DataArray type="Float32" Name="rho" NumberOfComponents="1" format="ascii">
          1.16272 1.16364 1.16208 1.16197 1.16414 1.16238 1.16427 1.16225 1.16475 1.1626 1.1646 1.16249
          1.16043 1.16263 1.15722 1.16236 1.15427 1.16236 1.1542 1.16198 1.15424 1.16121 1.16303 1.16259
          1.16286 1.16257 1.1628 1.1626 1.16276 1.16263 1.16271 1.16259 1.16223 1.16311 1.16273 1.16301
          1.16272 1.16294 1.16272 1.16289 1.16274 1.16284 1.16274 1.16251 1.16309 1.16274 1.16304 1.16276
          1.16299 1.16278 1.16294 1.1628 1.16289 1.16281 1.16264 1.16308 1.16273 1.16304 1.16276 1.163
          1.16279 1.16296 1.16281 1.16292 1.16283 1.16267 1.16307 1.16272 1.16303 1.16275 1.16299 1.16279
          1.16295 1.16282 1.16292 1.16284 1.16267 1.16307 1.16272 1.16303 1.16275 1.16299 1.16278 1.16295
          1.16281 1.16292 1.16283 1.16267 1.16307 1.16272 1.16303 1.16275 1.16299 1.16278 1.16295 1.1628
          1.16291 1.16282 1.16265 1.16309 1.16273 1.16303 1.16274 1.16297 1.16276 1.16292 1.16277 1.16287
          1.16278 1.16261 1.16306 1.16264 1.16292 1.16262 1.16284 1.16262 1.16277 1.16262 1.16272 1.16263
          1.16246 1.16208 1.16186 1.16218 1.16198 1.16225 1.1621 1.16231 1.16221 1.16235 1.16231 1.16203
          1.16272 1.16299 1.16333 1.16327 1.16358 1.16351 1.16381 1.16377 1.16395 1.16391 1.16258
        </DataArray>
        <DataArray type="Float32" Name="mu" NumberOfComponents="1" format="ascii">
          1.82387e-05 1.82387e-05 1.82387e-05 1.82387e-05 1.82387e-05 1.82387e-05 1.82387e-05 1.82387e-05 1.82387e-05 1.82387e-05 1.82387e-05 1.82387e-05
          1.82387e-05 1.82387e-05 1.82387e-05 1.82387e-05 1.82387e-05 1.82387e-05 1.82387e-05 1.82387e-05 1.82387e-05 1.82387e-05 1.82387e-05 1.82387e-05
          1.82387e-05 1.82387e-05 1.82387e-05 1.82387e-05 1.82387e-05 1.82387e-05 1.82387e-05 1.82387e-05 1.82387e-05 1.82387e-05 1.82387e-05 1.82387e-05
          1.82387e-05 1.82387e-05 1.82387e-05 1.82387e-05 1.82387e-05 1.82387e-05 1.82387e-05 1.82387e-05 1.82387e-05 1.82387e-05 1.82387e-05 1.82387e-05
          1.82387e-05 1.82387e-05 1.82387e-05 1.82387e-05 1.82387e-05 1.82387e-05 1.82387e-05 1.82387e-05 1.82387e-05 1.82387e-05 1.82387e-05 1.82387e-05
          1.82387e-05 1.82387e-05 1.82387e-05 1.82387e-05 1.82387e-05 1.82387e-05 1.82387e-05 1.82387e-05 1.82387e-05 1.82387e-05 1.82387e-05 1.82387e-05
          1.82387e-05 1.82387e-05 1.82387e-05 1.82387e-05 1.82387e-05 1.82387e-05 1.82387e-05 1.82387e-05 1.82387e-05 1.82387e-05 1.82387e-05 1.82387e-05
          1.82387e-05 1.82387e-05 1.82387e-05 1.82387e-05 1.82387e-05 1.82387e-05 1.82387e-05 1.82387e-05 1.82387e-05 1.82387e-05 1.82387e-05 1.82387e-05
          1.82387e-05 1.82387e-05 1.82387e-05 1.82387e-05 1.82387e-05 1.82387e-05 1.82387e-05 1.82387e-05 1.82387e-05 1.82387e-05 1.82387e-05 1.82387e-05
          1.82387e-05 1.82387e-05 1.82387e-05 1.82387e-05 1.82387e-05 1.82387e-05 1.82387e-05 1.82387e-05 1.82387e-05 1.82387e-05 1.82387e-05 1.82387e-05
          1.82387e-05 1.82387e-05 1.82387e-05 1.82387e-05 1.82387e-05 1.82387e-05 1.82387e-05 1.82387e-05 1.82387e-05 1.82387e-05 1.82387e-05 1.82387e-05
          1.82387e-05 1.82387e-05 1.82387e-05 1.82387e-05 1.82387e-05 1.82387e-05 1.82387e-05 1.82387e-05 1.82387e-05 1.82387e-05 1.82387e-05
        </DataArray>
        <DataArray type="Float32" Name="D" NumberOfComponents="1" format="ascii">
          2.49338e-05 2.494e-05 2.49338e-05 2.494e-05 2.49339e-05 2.49339e-05 2.49395e-05 2.49395e-05 2.49346e-05 2.49346e-05 2.49389e-05 2.49389e-05
          2.49355e-05 2.49354e-05 2.49381e-05 2.49383e-05 2.49362e-05 2.49361e-05 2.49376e-05 2.49376e-05 2.49368e-05 2.49368e-05 2.49326e-05 2.49403e-05
          2.49338e-05 2.49396e-05 2.49346e-05 2.49389e-05 2.49355e-05 2.49382e-05 2.49361e-05 2.49376e-05 2.49368e-05 2.49327e-05 2.49403e-05 2.49338e-05
          2.49396e-05 2.49346e-05 2.4939e-05 2.49353e-05 2.49383e-05 2.4936e-05 2.49377e-05 2.49368e-05 2.49328e-05 2.49403e-05 2.49338e-05 2.49396e-05
          2.49346e-05 2.49389e-05 2.49354e-05 2.49382e-05 2.49361e-05 2.49376e-05 2.49368e-05 2.49328e-05 2.49403e-05 2.49337e-05 2.49396e-05 2.49346e-05
          2.4939e-05 2.49353e-05 2.49383e-05 2.4936e-05 2.49377e-05 2.49368e-05 2.49329e-05 2.49404e-05 2.49337e-05 2.49396e-05 2.49346e-05 2.4939e-05
          2.49354e-05 2.49383e-05 2.49361e-05 2.49377e-05 2.49368e-05 2.49329e-05 2.49404e-05 2.49337e-05 2.49396e-05 2.49345e-05 2.4939e-05 2.49353e-05
          2.49383e-05 2.4936e-05 2.49377e-05 2.49368e-05 2.49329e-05 2.49404e-05 2.49337e-05 2.49397e-05 2.49346e-05 2.4939e-05 2.49353e-05 2.49383e-05
          2.49361e-05 2.49377e-05 2.49368e-05 2.49328e-05 2.49403e-05 2.49338e-05 2.49396e-05 2.49346e-05 2.4939e-05 2.49353e-05 2.49383e-05 2.4936e-05
          2.49377e-05 2.49368e-05 2.49326e-05 2.49404e-05 2.49338e-05 2.49396e-05 2.49346e-05 2.49389e-05 2.49353e-05 2.49383e-05 2.49361e-05 2.49377e-05
          2.49368e-05 2.49337e-05 2.49399e-05 2.49341e-05 2.49395e-05 2.49347e-05 2.49389e-05 2.49354e-05 2.49383e-05 2.49361e-05 2.49377e-05 2.49368e-05
          2.49337e-05 2.49399e-05 2.49341e-05 2.49395e-05 2.49347e-05 2.49389e-05 2.49354e-05 2.49383e-05 2.49361e-05 2.49377e-05 2.49368e-05
        </DataArray>
        <DataArray type="Float32" Name="v" NumberOfComponents="3" format="ascii">
          0 0 0 0 0 0 3.5 0 0 3.4203 0.105684 0
          0 0 0 2.99391 0.0104642 0 0 0 0 3.21729 0.0500529 0
          0 0 0 2.66766 0.0314721 0 0 0 0 2.97336 0.0378438 0
          -0.0767852 -0.00200007 0 2.45281 -0.0377855 0 0.285231 0.00417326 0 2.82821 0.0196096 0
          -0.106363 -0.00205389 0 2.33464 -0.00667437 0 0.314121 0.00193934 0 2.70321 0.0266134 0
          -0.369522 -0.00122509 0 2.10048 0.0947713 0 3.5 0 0 3.95299 0.116865 0
          3.6054 0.0191989 0 3.91711 0.0726012 0 3.55299 0.0410127 0 3.87464 0.0489158 0
          3.49323 0.0146683 0 3.75441 0.0320611 0 3.40383 0.0197666 0 3.6438 0.0489758 0
          3.30588 0.127752 0 3.5 0 0 3.98607 0.0896666 0 3.65981 0.0261359 0
          4.01147 0.071266 0 3.71643 0.0450598 0 4.04219 0.0547782 0 3.74112 -0.00529332 0
          4.0355 0.0395596 0 3.733 0.0203666 0 4.01299 0.0610414 0 3.76153 0.0732297 0
          3.5 0 0 3.94649 0.0587032 0 3.61639 0.0228963 0 3.98954 0.0555582 0
          3.69291 0.0340629 0 4.05207 0.0419293 0 3.74768 0.0227173 0 4.05051 0.0345875 0
          3.77773 0.0292582 0 4.07161 0.0527468 0 3.8246 0.0592714 0 3.5 0 0
          3.92743 0.0397324 0 3.59735 0.0204337 0 3.96912 0.0436778 0 3.67278 0.0275805 0
          4.0148 0.0354903 0 3.72554 -0.00159096 0 4.04592 0.0283305 0 3.76365 0.0169988 0
          4.07857 0.0452551 0 3.82007 0.052624 0 3.5 0 0 3.90186 0.0154156 0
          3.56677 0.0141382 0 3.94612 0.0243732 0 3.63931 0.0188835 0 3.99715 0.0206197 0
          3.69539 0.0160479 0 4.01398 0.0197469 0 3.73661 0.0197628 0 4.04792 0.032101 0
          3.79183 0.0357434 0 3.5 0 0 3.91036 0.00511843 0 3.57824 0.00767456 0
          3.95002 0.0113921 0 3.64746 0.0105218 0 3.98934 0.0106796 0 3.70006 -0.00609774 0
          4.02613 0.00979269 0 3.74364 0.00541479 0 4.06399 0.0226419 0 3.79796 0.0268639 0
          3.5 0 0 3.90671 -0.0254143 0 3.57208 0.00219412 0 3.94764 -0.0105213 0
          3.64114 0.00423992 0 3.98994 -0.00503818 0 3.69632 0.00371795 0 4.01819 -0.000406661 0
          3.74129 0.00504773 0 4.05577 0.00808587 0 3.79208 0.00879991 0 3.5 0 0
          3.95968 -0.0429626 0 3.63299 -0.00450143 0 3.99107 -0.0264102 0 3.69718 -0.0055483 0
          4.0272 -0.0184443 0 3.7477 -0.0177321 0 4.06737 -0.0134787 0 3.79264 -0.0111938 0
          4.10704 -0.0020398 0 3.84008 -0.000540313 0 3.5 0 0 3.97012 -0.112655 0
          3.64251 0.000690569 0 3.98522 -0.0503482 0 3.68891 -0.0104418 0 4.01129 -0.0330461 0
          3.72419 -0.0142467 0 4.03602 -0.0238038 0 3.75533 -0.0140151 0 4.06399 -0.0165127 0
          3.78823 -0.0153772 0 3.5 0 0 3.63051 -0.117071 0 3.3024 0.00317795 0
          3.58434 -0.0486734 0 3.21489 -0.0144725 0 3.54019 -0.0329375 0 3.15204 -0.0276798 0
          3.49767 -0.0264031 0 3.10304 -0.0225488 0 3.45978 -0.0201071 0 3.06455 0.0046933 0
          0 0 0 0 0 0 0 0 0 0 0 0
          0 0 0 0 0 0 0 0 0 0 0 0
          0 0 0 0 0 0 0 0 0
        </DataArray>
      </PointData>
      <CellData Scalars="mu_t">
        <DataArray type="Float32" Name="mu_t" NumberOfComponents="1" format="ascii">
          0.000236327 0.000230125 0.000219507 0.000404574 0.000395874 0.000539207 0.000498404 0.000497885 0.000482937 0.000499574 0.000197347 0.000202099
          0.000192934 0.000461378 0.000486237 0.000884468 0.000870982 0.000893321 0.000886099 0.000936684 3.04282e-05 3.14514e-05 3.00239e-05 0.000296135
          0.000324752 0.000825223 0.000812749 0.000833601 0.000826955 0.000874308 3.17879e-06 3.2863e-06 3.13717e-06 0.000142594 0.000158061 0.000532562
          0.00052482 0.000538164 0.000533966 0.000564521 5.04657e-07 5.21667e-07 4.97998e-07 3.80597e-05 4.22387e-05 0.000195524 0.000192808 0.000197661
          0.000196155 0.000207364 1.0901e-07 1.12675e-07 1.07563e-07 9.30935e-06 1.03337e-05 5.42479e-05 5.35055e-05 5.4848e-05 5.44335e-05 5.75422e-05
          2.88947e-08 2.98644e-08 2.85095e-08 2.55991e-06 2.84176e-06 1.53047e-05 1.50959e-05 1.54744e-05 1.53577e-05 1.62346e-05 5.13857e-06 5.32025e-06
          5.51957e-06 6.40098e-06 6.62202e-06 9.23171e-06 9.28396e-06 9.4793e-06 9.55063e-06 9.83264e-06 2.97078e-05 3.06841e-05 3.17387e-05 3.22462e-05
          3.29563e-05 3.3553e-05 3.4091e-05 3.4686e-05 3.52106e-05 3.56863e-05 0.000143322 0.000147966 0.000152967 0.00015538 0.000158753 0.000161591
          0.000164149 0.00016698 0.000169476 0.000171741 0.000557241 0.000571914 0.00058675 0.000594304 0.000604615 0.000613452 0.000621424 0.000630266
          0.000638107 0.000645305 0.000768683 0.000770607 0.000770669 0.000771469 0.000772938 0.000774341 0.000775994 0.000777884 0.000779883 0.00078191
        </DataArray>
        <DataArray type="Float32" Name="nu_t" NumberOfComponents="1" format="ascii">
          0.000203296 0.000197901 0.000188736 0.000347769 0.000340249 0.00046381 0.000429246 0.00042925 0.000416601 0.000431082 0.000169779 0.000173861
          0.000165966 0.000396867 0.000418226 0.000760753 0.000749168 0.000768437 0.000762295 0.000806098 2.61669e-05 2.70485e-05 2.5821e-05 0.000254683
          0.000279293 0.00070972 0.000698985 0.000716934 0.000711224 0.000752082 2.73346e-06 2.82601e-06 2.69776e-06 0.000122624 0.000135924 0.000457987
          0.000451326 0.000462811 0.0004592 0.000485537 4.3396e-07 4.48596e-07 4.28238e-07 3.27288e-05 3.63223e-05 0.00016814 0.000165803 0.000169979
          0.000168683 0.000178341 9.37402e-08 9.68932e-08 9.24959e-08 8.00544e-06 8.88624e-06 4.665e-05 4.6011e-05 4.71662e-05 4.68094e-05 4.94879e-05
          2.48473e-08 2.56816e-08 2.45161e-08 2.20137e-06 2.44371e-06 1.31612e-05 1.29814e-05 1.33072e-05 1.32066e-05 1.39622e-05 4.41878e-06 4.57508e-06
          4.74641e-06 5.50446e-06 5.69447e-06 7.93875e-06 7.9836e-06 8.15172e-06 8.213e-06 8.45643e-06 2.55462e-05 2.63864e-05 2.7293e-05 2.773e-05
          2.83404e-05 2.88541e-05 2.93166e-05 2.98289e-05 3.02799e-05 3.06923e-05 0.000123247 0.000127247 0.000131549 0.000133628 0.000136529 0.000138973
          0.000141172 0.00014361 0.000145756 0.000147721 0.000479395 0.000492022 0.000504774 0.000511273 0.00052013 0.000527732 0.000534575 0.000542181
          0.000548913 0.000555176 0.000661309 0.000662875 0.000662875 0.000663524 0.00066474 0.000665911 0.000667284 0.000668887 0.000670574 0.000672538
        </DataArray>
        <DataArray type="Float32" Name="l_mix" NumberOfComponents="1" format="ascii">
          0.00155391 0.00152208 0.00150921 0.00148599 0.00146903 0.00145722 0.00142222 0.00141363 0.00140009 0.00140261 0.00706117 0.00701831
          0.00700033 0.00696606 0.00694043 0.0069217 0.0068644 0.00684963 0.00682592 0.00683038 0.0128963 0.0128815 0.012875 0.0128618
          0.0128516 0.0128438 0.0128189 0.0128121 0.0128009 0.012803 0.0190468 0.0190439 0.0190426 0.0190397 0.0190373 0.0190355
          0.0190292 0.0190274 0.0190243 0.0190249 0.0257535 0.0257532 0.025753 0.0257525 0.0257522 0.0257519 0.0257508 0.0257505
          0.0257499 0.02575 0.0331229 0.0331229 0.0331229 0.0331228 0.0331228 0.0331228 0.0331226 0.0331226 0.0331225 0.0331225
          0.0412285 0.0412285 0.0412285 0.0412285 0.0412285 0.0412285 0.0412285 0.0412285 0.0412285 0.0412285 0.0495297 0.0495297
          0.0495297 0.0495296 0.0495296 0.0495296 0.0495296 0.0495296 0.0495296 0.0495296 0.0425463 0.0425461 0.042546 0.0425459
          0.0425459 0.0425458 0.0425457 0.0425456 0.0425456 0.0425455 0.0317447 0.031743 0.0317427 0.0317418 0.0317415 0.0317408
          0.0317403 0.0317398 0.0317394 0.0317389 0.0197263 0.0197149 0.0197126 0.0197069 0.0197047 0.0197001 0.0196975 0.0196942
          0.0196917 0.0196887 0.00561924 0.00559186 0.00558633 0.00557314 0.00556784 0.00555784 0.00555183 0.00554451 0.00553902 0.00553253
        </DataArray>
        <DataArray type="Float32" Name="u^+" NumberOfComponents="1" format="ascii">
          25.3976 24.4638 24.0656 23.4406 22.9364 22.0115 23.4855 23.0233 22.9546 20.7194 52.7516 53.2939
          53.2116 53.2028 53.1382 52.6552 53.6023 53.1113 52.882 51.2762 54.8296 57.9944 58.8681 60.5535
          61.7497 62.3641 64.2796 64.3451 64.7313 64.2344 54.8057 58.0118 59.1908 61.4014 63.0398 64.1437
          66.6351 67.2338 68.2393 68.3631 54.5903 57.5497 58.7845 61.0586 62.7506 63.967 66.613 67.4109
          68.6605 68.9046 54.4264 57.1901 58.4239 60.6717 62.3093 63.5257 66.233 67.0762 68.377 68.6583
          54.3637 57.0521 58.2759 60.4945 62.1028 63.316 66.0393 66.9046 68.2257 68.4983 63.3983 65.9951
          67.0941 69.1319 70.5034 71.7115 73.9717 74.8656 76.0629 76.4878 90.7586 93.3577 94.082 95.5741
          96.3309 97.5096 98.253 99.1992 99.9742 100.874 91.1452 94.187 94.7537 96.1084 96.765 97.8202
          98.5424 99.4015 100.116 100.901 89.1378 90.0997 90.1736 90.5442 90.6835 90.9887 91.1678 91.3998
          91.5993 91.8103 43.5334 42.9444 42.7852 42.5342 42.3768 42.203 42.0701 41.9172 41.7972 41.663
        </DataArray>
        <DataArray type="Float32" Name="y^+" NumberOfComponents="1" format="ascii">
          25.3946 24.4475 24.0743 23.4187 22.9488 22.6286 21.7021 21.4808 21.1363 21.2 78.7234 75.7873
          74.6303 72.5979 71.1414 70.1486 67.2765 66.5904 65.5224 65.7201 137.385 132.261 130.242 126.695
          124.153 122.421 117.408 116.211 114.347 114.692 201.913 194.382 191.415 186.202 182.466 179.92
          172.553 170.794 168.054 168.562 272.893 262.715 258.705 251.66 246.61 243.169 233.213 230.835
          227.132 227.818 350.972 337.882 332.724 323.663 317.169 312.743 299.938 296.88 292.118 293
          436.858 420.565 414.145 402.866 394.784 389.275 373.336 369.529 363.603 364.7 471.958 456.201
          450.186 439.557 432.047 426.739 412.151 408.456 402.901 403.631 270.931 267.09 266.335 264.521
          263.812 262.451 261.641 260.669 259.937 259.086 202.233 199.366 198.803 197.448 196.919 195.903
          195.298 194.573 194.027 193.392 126.666 124.87 124.517 123.669 123.337 122.701 122.322 121.868
          121.526 121.128 43.5414 42.9241 42.8028 42.5111 42.3972 42.1785 42.0483 41.8921 41.7745 41.6377
        </DataArray>
        <DataArray type="Float32" Name="D_t" NumberOfComponents="1" format="ascii">
          0.000174116 0.000161229 0.000156059 0.000147745 0.000141529 0.00013449 0.000136562 0.000132943 0.000130338 0.000119012 0.00100284 0.000976815
          0.000960691 0.00093516 0.000915833 0.000897185 0.000878777 0.000864407 0.00084804 0.000825326 0.00181613 0.00184855 0.00184748 0.00184837
          0.00184719 0.00184321 0.00182817 0.00181659 0.00180071 0.0017927 0.00266766 0.00271684 0.00272914 0.002753 0.00276978 0.00278409
          0.00278263 0.00278669 0.0027866 0.00280014 0.00359141 0.00364295 0.0036634 0.00370009 0.00372615 0.0037521 0.00375938 0.00377586
          0.00378889 0.00381388 0.00460509 0.00465592 0.00468262 0.00472856 0.00475862 0.00479244 0.00480726 0.00483191 0.0048526 0.00488727
          0.0057256 0.00578171 0.00581412 0.0058689 0.00590377 0.00594576 0.00596659 0.00599938 0.00602715 0.00606949 0.00688062 0.0069504
          0.00698783 0.00705204 0.00708995 0.00714001 0.00717019 0.00721132 0.00724635 0.00729515 0.00593004 0.00601148 0.00604038 0.00609357
          0.00612489 0.00616709 0.00619431 0.00623017 0.00626098 0.00630019 0.00444546 0.00452743 0.00454138 0.00457443 0.00459301 0.00461866
          0.00463809 0.00466083 0.00468105 0.00470507 0.00272547 0.00271768 0.00271233 0.00270563 0.00270277 0.00269835 0.00269552 0.00269277
          0.0026914 0.00269088 0.000514251 0.000499996 0.000496664 0.000490351 0.000487166 0.000482632 0.000479564 0.000476029 0.000473295 0.000470517
        </DataArray>
      </CellData>
      <Points>
        <DataArray type="Float32" Name="Coordinates" NumberOfComponents="3" format="ascii">
          0 0.25 0 0.05 0.25 0 0 0.261691 0 0.05 0.261691 0
          0.1 0.25 0 0.1 0.261691 0 0.15 0.25 0 0.15 0.261691 0
          0.2 0.25 0 0.2 0.261691 0 0.25 0.25 0 0.25 0.261691 0
          0.3 0.25 0 0.3 0.261691 0 0.35 0.25 0 0.35 0.261691 0
          0.4 0.25 0 0.4 0.261691 0 0.45 0.25 0 0.45 0.261691 0
          0.5 0.25 0 0.5 0.261691 0 0 0.274551 0 0.05 0.274551 0
          0.1 0.274551 0 0.15 0.274551 0 0.2 0.274551 0 0.25 0.274551 0
          0.3 0.274551 0 0.35 0.274551 0 0.4 0.274551 0 0.45 0.274551 0
          0.5 0.274551 0 0 0.288697 0 0.05 0.288697 0 0.1 0.288697 0
          0.15 0.288697 0 0.2 0.288697 0 0.25 0.288697 0 0.3 0.288697 0
          0.35 0.288697 0 0.4 0.288697 0 0.45 0.288697 0 0.5 0.288697 0
          0 0.304257 0 0.05 0.304257 0 0.1 0.304257 0 0.15 0.304257 0
          0.2 0.304257 0 0.25 0.304257 0 0.3 0.304257 0 0.35 0.304257 0
          0.4 0.304257 0 0.45 0.304257 0 0.5 0.304257 0 0 0.321374 0
          0.05 0.321374 0 0.1 0.321374 0 0.15 0.321374 0 0.2 0.321374 0
          0.25 0.321374 0 0.3 0.321374 0 0.35 0.321374 0 0.4 0.321374 0
          0.45 0.321374 0 0.5 0.321374 0 0 0.340202 0 0.05 0.340202 0
          0.1 0.340202 0 0.15 0.340202 0 0.2 0.340202 0 0.25 0.340202 0
          0.3 0.340202 0 0.35 0.340202 0 0.4 0.340202 0 0.45 0.340202 0
          0.5 0.340202 0 0 0.360913 0 0.05 0.360913 0 0.1 0.360913 0
          0.15 0.360913 0 0.2 0.360913 0 0.25 0.360913 0 0.3 0.360913 0
          0.35 0.360913 0 0.4 0.360913 0 0.45 0.360913 0 0.5 0.360913 0
          0 0.383695 0 0.05 0.383695 0 0.1 0.383695 0 0.15 0.383695 0
          0.2 0.383695 0 0.25 0.383695 0 0.3 0.383695 0 0.35 0.383695 0
          0.4 0.383695 0 0.45 0.383695 0 0.5 0.383695 0 0 0.408755 0
          0.05 0.408755 0 0.1 0.408755 0 0.15 0.408755 0 0.2 0.408755 0
          0.25 0.408755 0 0.3 0.408755 0 0.35 0.408755 0 0.4 0.408755 0
          0.45 0.408755 0 0.5 0.408755 0 0 0.436322 0 0.05 0.436322 0
          0.1 0.436322 0 0.15 0.436322 0 0.2 0.436322 0 0.25 0.436322 0
          0.3 0.436322 0 0.35 0.436322 0 0.4 0.436322 0 0.45 0.436322 0
          0.5 0.436322 0 0 0.466645 0 0.05 0.466645 0 0.1 0.466645 0
          0.15 0.466645 0 0.2 0.466645 0 0.25 0.466645 0 0.3 0.466645 0
          0.35 0.466645 0 0.4 0.466645 0 0.45 0.466645 0 0.5 0.466645 0
          0 0.5 0 0.05 0.5 0 0.1 0.5 0 0.15 0.5 0
          0.2 0.5 0 0.25 0.5 0 0.3 0.5 0 0.35 0.5 0
          0.4 0.5 0 0.45 0.5 0 0.5 0.5 0
        </DataArray>
      </Points>
      <Cells>
        <DataArray type="Int32" Name="connectivity" NumberOfComponents="1" format="ascii">
          0 1 3 2 1 4 5 3 4 6 7 5
          6 8 9 7 8 10 11 9 10 12 13 11
          12 14 15 13 14 16 17 15 16 18 19 17
          18 20 21 19 2 3 23 22 3 5 24 23
          5 7 25 24 7 9 26 25 9 11 27 26
          11 13 28 27 13 15 29 28 15 17 30 29
          17 19 31 30 19 21 32 31 22 23 34 33
          23 24 35 34 24 25 36 35 25 26 37 36
          26 27 38 37 27 28 39 38 28 29 40 39
          29 30 41 40 30 31 42 41 31 32 43 42
          33 34 45 44 34 35 46 45 35 36 47 46
          36 37 48 47 37 38 49 48 38 39 50 49
          39 40 51 50 40 41 52 51 41 42 53 52
          42 43 54 53 44 45 56 55 45 46 57 56
          46 47 58 57 47 48 59 58 48 49 60 59
          49 50 61 60 50 51 62 61 51 52 63 62
          52 53 64 63 53 54 65 64 55 56 67 66
          56 57 68 67 57 58 69 68 58 59 70 69
          59 60 71 70 60 61 72 71 61 62 73 72
          62 63 74 73 63 64 75 74 64 65 76 75
          66 67 78 77 67 68 79 78 68 69 80 79
          69 70 81 80 70 71 82 81 71 72 83 82
          72 73 84 83 73 74 85 84 74 75 86 85
          75 76 87 86 77 78 89 88 78 79 90 89
          79 80 91 90 80 81 92 91 81 82 93 92
          82 83 94 93 83 84 95 94 84 85 96 95
          85 86 97 96 86 87 98 97 88 89 100 99