<?xml version="1.0"?>
<VTKFile type="UnstructuredGrid" version="0.1" byte_order="LittleEndian">
  <UnstructuredGrid>
    <Piece NumberOfCells="55" NumberOfPoints="72">
      <PointData Scalars="Sn" Vectors="velocityW">
        <DataArray type="Float32" Name="Sn" NumberOfComponents="1" format="ascii">
          0.0140336 0.0140321 0.0238373 0.0238211 0.014029 0.0237892 0.0140264 0.0237622 0.0140247 0.0237448 0.0140242 0.0237389
          0.113115 0.113034 0.112876 0.112743 0.112656 0.112626 0.338966 0.338814 0.3385 0.338234 0.338063 0.338004
          0.594085 0.593942 0.593632 0.593383 0.593221 0.59316 0.765293 0.765209 0.764988 0.764831 0.764705 0.76464
          0.859482 0.859509 0.859385 0.859306 0.859171 0.859042 0.910455 0.910762 0.910763 0.910741 0.910515 0.910151
          0.939575 0.940625 0.940805 0.940832 0.940409 0.939371 0.957537 0.960504 0.96088 0.960972 0.960257 0.957452
          0.968896 0.977049 0.977349 0.977579 0.976646 0.969096 0.965187 1 1 1 1 0.966198
        </DataArray>
        <DataArray type="Float32" Name="Sw" NumberOfComponents="1" format="ascii">
          0.985966 0.985968 0.976163 0.976179 0.985971 0.976211 0.985974 0.976238 0.985975 0.976255 0.985976 0.976261
          0.886885 0.886966 0.887124 0.887257 0.887344 0.887374 0.661034 0.661186 0.6615 0.661766 0.661937 0.661996
          0.405915 0.406058 0.406368 0.406617 0.406779 0.40684 0.234707 0.234791 0.235012 0.235169 0.235295 0.23536
          0.140518 0.140491 0.140615 0.140694 0.140829 0.140958 0.0895448 0.0892375 0.0892372 0.0892594 0.0894855 0.0898493
          0.0604252 0.0593753 0.0591954 0.0591675 0.0595908 0.0606285 0.0424635 0.0394955 0.0391199 0.039028 0.0397425 0.0425478
          0.0311043 0.0229509 0.0226515 0.0224214 0.0233536 0.0309045 0.0348128 0 0 0 0 0.0338022
        </DataArray>
        <DataArray type="Float32" Name="pn" NumberOfComponents="1" format="ascii">
          100003 100003 100003 100003 100003 100002 100002 100002 100002 100002 100002 100002
          100002 100002 100002 100002 100002 100001 100002 100002 100002 100001 100001 100001
          100002 100002 100001 100001 100001 100001 100002 100001 100001 100001 100001 100000
          100002 100001 100001 100000 100000 100000 100001 100001 100000 100000 99999.9 99999.9
          100002 100001 99999.8 100000 99999.6 99999.7 100002 100001 99999 100000 99999.2 99999.6
          100001 100002 99997.7 100001 99998.6 99999.6 100001 100003 99995.5 100002 99997.5 100000
        </DataArray>
        <DataArray type="Float32" Name="pw" NumberOfComponents="1" format="ascii">
          99477.7 99477.7 99135.5 99135.5 99477.7 99135.5 99477.7 99135.5 99477.7 99135.5 99477.7 99135.5
          98824.3 98824.3 98824.3 98824.3 98824.3 98824.3 98541.5 98541.5 98541.5 98541.5 98541.5 98541.5
          98284.3 98284.3 98284.3 98284.3 98284.3 98284.3 98050.5 98050.4 98050.3 98050.3 98050.4 98050.5
          97837.4 97837 97836.8 97836.8 97837 97837.4 97641.8 97639.9 97639 97639 97639.9 97641.7
          97458.2 97449.3 97446.4 97446.5 97449.5 97458 97278.5 97239.2 97231.5 97231.4 97240.4 97277.6
          97103.3 96911.6 96898.4 96894.3 96919.9 97097.6 97168.4 95700.8 95693 95699.3 95695 97150.6
        </DataArray>
        <DataArray type="Float32" Name="pc" NumberOfComponents="1" format="ascii">
          525.397 525.251 867.265 867.115 524.959 866.82 524.71 866.57 524.55 866.409 524.495 866.354
          1178.05 1177.9 1177.6 1177.35 1177.19 1177.13 1460.59 1460.44 1460.12 1459.86 1459.69 1459.63
          1717.49 1717.33 1716.98 1716.7 1716.52 1716.46 1951.17 1951.02 1950.63 1950.36 1950.14 1950.02
          2164.14 2164.23 2163.85 2163.62 2163.21 2162.83 2359.73 2361.27 2361.27 2361.16 2360.02 2358.2
          2543.3 2551.85 2553.33 2553.56 2550.08 2541.67 2723.02 2762.2 2767.43 2768.73 2758.79 2721.96
          2898.18 3090.39 3099.29 3106.26 3078.68 2902.01 2832.66 4302.49 4302.49 4302.49 4302.49 2849.54
        </DataArray>
        <DataArray type="Float32" Name="rhoW" NumberOfComponents="1" format="ascii">
          997.047 997.047 997.047 997.047 997.047 997.047 997.047 997.047 997.047 997.047 997.047 997.047
          997.047 997.047 997.047 997.047 997.047 997.047 997.047 997.047 997.047 997.047 997.047 997.047
          997.047 997.047 997.047 997.047 997.047 997.047 997.047 997.047 997.047 997.047 997.047 997.047
          997.047 997.047 997.047 997.047 997.047 997.047 997.047 997.047 997.047 997.047 997.047 997.047
          997.047 997.047 997.047 997.047 997.047 997.047 997.046 997.046 997.046 997.046 997.046 997.046
          997.046 997.046 997.046 997.046 997.046 997.046 997.046 997.046 997.046 997.046 997.046 997.046
        </DataArray>
        <DataArray type="Float32" Name="rhoN" NumberOfComponents="1" format="ascii">
          1.15427 1.15427 1.15427 1.15427 1.15427 1.15426 1.15427 1.15426 1.15426 1.15426 1.15426 1.15426
          1.15427 1.15426 1.15426 1.15426 1.15426 1.15425 1.15426 1.15426 1.15426 1.15425 1.15425 1.15425
          1.15426 1.15426 1.15425 1.15425 1.15425 1.15425 1.15426 1.15425 1.15425 1.15425 1.15424 1.15424
          1.15426 1.15425 1.15425 1.15424 1.15424 1.15424 1.15425 1.15425 1.15424 1.15424 1.15424 1.15424
          1.15426 1.15425 1.15423 1.15424 1.15423 1.15423 1.15426 1.15425 1.15423 1.15424 1.15423 1.15423
          1.15425 1.15426 1.15421 1.15424 1.15422 1.15423 1.15425 1.16361 1.1626 1.16191 1.16105 1.15424
        </DataArray>
        <DataArray type="Float32" Name="mobW" NumberOfComponents="1" format="ascii">
          1122.22 1122.22 1108.58 1108.62 1122.22 1108.68 1122.22 1108.74 1122.22 1108.77 1122.22 1108.79
          741.796 742.022 742.47 742.847 743.092 743.177 292.15 292.356 292.782 293.142 293.373 293.453
          67.8549 67.9259 68.0793 68.2022 68.2826 68.313 13.5485 13.5628 13.6003 13.627 13.6483 13.6595
          2.98816 2.98644 2.99423 2.99924 3.00779 3.01597 0.777842 0.769815 0.769807 0.770387 0.776289 0.785853
          0.233801 0.22142 0.219343 0.219022 0.223927 0.236249 0.0767579 0.0607058 0.0588456 0.0583962 0.0619495 0.0772501
          0.0274929 0.00948864 0.00904594 0.00871493 0.0101059 0.0268989 0.0401007 0 0 0 0 0.0363574
        </DataArray>
        <DataArray type="Float32" Name="mobN" NumberOfComponents="1" format="ascii">
          0.945672 0.944937 11.7246 11.6966 0.943471 11.6414 0.942218 11.595 0.941412 11.5651 0.941136 11.5549
          700.852 699.746 697.568 695.734 694.542 694.131 7216.17 7209.55 7195.9 7184.36 7176.98 7174.41
          22078.9 22068.6 22046.4 22028.6 22017 22012.6 35577.1 35570 35551.3 35538 35527.4 35521.8
          43724.9 43727.3 43716.5 43709.6 43697.7 43686.4 48305 48336.5 48336.5 48334.2 48311.1 48273.8
          51375.2 51482.3 51500.5 51503.4 51460.4 51354.4 53067.7 53310 53339.8 53347 53290.4 53060.7
          53917.4 54378.7 54392.9 54403.6 54359.2 53930.4 53664.1 54828.6 54828.6 54828.6 54828.6 53735.6
        </DataArray>
        <DataArray type="Float32" Name="X_liquid^H2O" NumberOfComponents="1" format="ascii">
          0.999978 0.999978 0.999978 0.999978 0.999978 0.999978 0.999978 0.999978 0.999978 0.999978 0.999978 0.999978
          0.999978 0.999978 0.999978 0.999978 0.999978 0.999978 0.999978 0.999978 0.999978 0.999978 0.999978 0.999978
          0.999978 0.999978 0.999978 0.999978 0.999978 0.999978 0.999978 0.999978 0.999978 0.999978 0.999978 0.999978
          0.999978 0.999978 0.999978 0.999978 0.999978 0.999978 0.999978 0.999978 0.999978 0.999978 0.999978 0.999978
          0.999978 0.999978 0.999978 0.999978 0.999978 0.999978 0.999978 0.999978 0.999978 0.999978 0.999978 0.999978
          0.999978 0.999978 0.999978 0.999978 0.999978 0.999978 0.999978 0.332823 0.398355 0.453159 0.511216 0.999978
        </DataArray>
        <DataArray type="Float32" Name="X_liquid^Air" NumberOfComponents="1" format="ascii">
          2.15475e-05 2.15475e-05 2.15475e-05 2.15474e-05 2.15474e-05 2.15474e-05 2.15474e-05 2.15473e-05 2.15474e-05 2.15473e-05 2.15473e-05 2.15473e-05
          2.15474e-05 2.15473e-05 2.15473e-05 2.15472e-05 2.15472e-05 2.15472e-05 2.15473e-05 2.15473e-05 2.15472e-05 2.15471e-05 2.15471e-05 2.15471e-05
          2.15473e-05 2.15472e-05 2.15471e-05 2.15471e-05 2.1547e-05 2.1547e-05 2.15472e-05 2.15472e-05 2.15471e-05 2.1547e-05 2.1547e-05 2.1547e-05
          2.15472e-05 2.15471e-05 2.1547e-05 2.15469e-05 2.15469e-05 2.15469e-05 2.15472e-05 2.15471e-05 2.15469e-05 2.15469e-05 2.15468e-05 2.15468e-05
          2.15472e-05 2.15471e-05 2.15468e-05 2.15469e-05 2.15468e-05 2.15468e-05 2.15472e-05 2.15472e-05 2.15466e-05 2.15469e-05 2.15467e-05 2.15468e-05
          2.15472e-05 2.15473e-05 2.15463e-05 2.1547e-05 2.15465e-05 2.15468e-05 2.15471e-05 2.20178e-05 2.19699e-05 2.19327e-05 2.18909e-05 2.15469e-05
        </DataArray>
        <DataArray type="Float32" Name="X_gas^H2O" NumberOfComponents="1" format="ascii">
          0.0199563 0.0199563 0.0199563 0.0199564 0.0199563 0.0199564 0.0199564 0.0199565 0.0199564 0.0199565 0.0199564 0.0199565
          0.0199564 0.0199564 0.0199565 0.0199565 0.0199566 0.0199566 0.0199565 0.0199565 0.0199566 0.0199566 0.0199566 0.0199567
          0.0199565 0.0199566 0.0199566 0.0199567 0.0199567 0.0199567 0.0199566 0.0199566 0.0199567 0.0199567 0.0199568 0.0199568
          0.0199566 0.0199566 0.0199568 0.0199568 0.0199568 0.0199568 0.0199566 0.0199567 0.0199568 0.0199568 0.0199569 0.0199569
          0.0199566 0.0199566 0.0199569 0.0199569 0.019957 0.0199569 0.0199566 0.0199566 0.0199571 0.0199569 0.019957 0.019957
          0.0199566 0.0199565 0.0199574 0.0199568 0.0199572 0.019957 0.0199567 0.00658885 0.00789298 0.00898419 0.0101427 0.0199569
        </DataArray>
        <DataArray type="Float32" Name="X_gas^Air" NumberOfComponents="1" format="ascii">
          0.980044 0.980044 0.980044 0.980044 0.980044 0.980044 0.980044 0.980044 0.980044 0.980043 0.980044 0.980043
          0.980044 0.980044 0.980044 0.980043 0.980043 0.980043 0.980044 0.980044 0.980043 0.980043 0.980043 0.980043
          0.980043 0.980043 0.980043 0.980043 0.980043 0.980043 0.980043 0.980043 0.980043 0.980043 0.980043 0.980043
          0.980043 0.980043 0.980043 0.980043 0.980043 0.980043 0.980043 0.980043 0.980043 0.980043 0.980043 0.980043
          0.980043 0.980043 0.980043 0.980043 0.980043 0.980043 0.980043 0.980043 0.980043 0.980043 0.980043 0.980043
          0.980043 0.980044 0.980043 0.980043 0.980043 0.980043 0.980043 0.993411 0.992107 0.991016 0.989857 0.980043
        </DataArray>
        <DataArray type="Float32" Name="x_liquid^H2O" NumberOfComponents="1" format="ascii">
          0.999987 0.999987 0.999987 0.999987 0.999987 0.999987 0.999987 0.999987 0.999987 0.999987 0.999987 0.999987
          0.999987 0.999987 0.999987 0.999987 0.999987 0.999987 0.999987 0.999987 0.999987 0.999987 0.999987 0.999987
          0.999987 0.999987 0.999987 0.999987 0.999987 0.999987 0.999987 0.999987 0.999987 0.999987 0.999987 0.999987
          0.999987 0.999987 0.999987 0.999987 0.999987 0.999987 0.999987 0.999987 0.999987 0.999987 0.999987 0.999987
          0.999987 0.999987 0.999987 0.999987 0.999987 0.999987 0.999987 0.999987 0.999987 0.999987 0.999987 0.999987
          0.999987 0.999987 0.999987 0.999987 0.999987 0.999987 0.999987 0.332832 0.398363 0.453167 0.511224 0.999987
        </DataArray>
        <DataArray type="Float32" Name="x_liquid^Air" NumberOfComponents="1" format="ascii">
          1.34042e-05 1.34042e-05 1.34042e-05 1.34041e-05 1.34042e-05 1.34041e-05 1.34041e-05 1.34041e-05 1.34041e-05 1.3404e-05 1.34041e-05 1.3404e-05
          1.34041e-05 1.34041e-05 1.34041e-05 1.3404e-05 1.3404e-05 1.3404e-05 1.34041e-05 1.3404e-05 1.3404e-05 1.3404e-05 1.34039e-05 1.34039e-05
          1.3404e-05 1.3404e-05 1.3404e-05 1.34039e-05 1.34039e-05 1.34039e-05 1.3404e-05 1.3404e-05 1.34039e-05 1.34039e-05 1.34039e-05 1.34038e-05
          1.3404e-05 1.3404e-05 1.34039e-05 1.34038e-05 1.34038e-05 1.34038e-05 1.3404e-05 1.34039e-05 1.34038e-05 1.34038e-05 1.34038e-05 1.34038e-05
          1.3404e-05 1.34039e-05 1.34037e-05 1.34038e-05 1.34037e-05 1.34037e-05 1.3404e-05 1.3404e-05 1.34036e-05 1.34038e-05 1.34037e-05 1.34037e-05
          1.3404e-05 1.34041e-05 1.34035e-05 1.34039e-05 1.34036e-05 1.34037e-05 1.34039e-05 1.3697e-05 1.36671e-05 1.3644e-05 1.36179e-05 1.34038e-05
        </DataArray>
        <DataArray type="Float32" Name="x_gas^H2O" NumberOfComponents="1" format="ascii">
          0.0316961 0.0316961 0.0316962 0.0316962 0.0316962 0.0316963 0.0316963 0.0316964 0.0316963 0.0316964 0.0316963 0.0316965
          0.0316963 0.0316963 0.0316964 0.0316965 0.0316966 0.0316966 0.0316964 0.0316964 0.0316965 0.0316966 0.0316967 0.0316967
          0.0316965 0.0316965 0.0316966 0.0316967 0.0316968 0.0316968 0.0316965 0.0316966 0.0316967 0.0316968 0.0316969 0.0316969
          0.0316966 0.0316966 0.0316968 0.0316969 0.031697 0.031697 0.0316966 0.0316967 0.031697 0.031697 0.0316971 0.0316971
          0.0316966 0.0316967 0.0316971 0.031697 0.0316972 0.0316971 0.0316965 0.0316966 0.0316974 0.031697 0.0316973 0.0316972
          0.0316966 0.0316964 0.0316978 0.0316969 0.0316975 0.0316972 0.0316967 0.0105496 0.0126277 0.014364 0.0162049 0.031697
        </DataArray>
        <DataArray type="Float32" Name="x_gas^Air" NumberOfComponents="1" format="ascii">
          0.968304 0.968304 0.968304 0.968304 0.968304 0.968304 0.968304 0.968304 0.968304 0.968304 0.968304 0.968304
          0.968304 0.968304 0.968304 0.968304 0.968303 0.968303 0.968304 0.968304 0.968303 0.968303 0.968303 0.968303
          0.968304 0.968304 0.968303 0.968303 0.968303 0.968303 0.968303 0.968303 0.968303 0.968303 0.968303 0.968303
          0.968303 0.968303 0.968303 0.968303 0.968303 0.968303 0.968303 0.968303 0.968303 0.968303 0.968303 0.968303
          0.968303 0.968303 0.968303 0.968303 0.968303 0.968303 0.968303 0.968303 0.968303 0.968303 0.968303 0.968303
          0.968303 0.968304 0.968302 0.968303 0.968302 0.968303 0.968303 0.98945 0.987372 0.985636 0.983795 0.968303
        </DataArray>
        <DataArray type="Float32" Name="porosity" NumberOfComponents="1" format="ascii">
          0.41 0.41 0.41 0.41 0.41 0.41 0.41 0.41 0.41 0.41 0.41 0.41
          0.41 0.41 0.41 0.41 0.41 0.41 0.41 0.41 0.41 0.41 0.41 0.41
          0.41 0.41 0.41 0.41 0.41 0.41 0.41 0.41 0.41 0.41 0.41 0.41
          0.41 0.41 0.41 0.41 0.41 0.41 0.41 0.41 0.41 0.41 0.41 0.41
          0.41 0.41 0.41 0.41 0.41 0.41 0.41 0.41 0.41 0.41 0.41 0.41
          0.41 0.41 0.41 0.41 0.41 0.41 0.41 0.41 0.41 0.41 0.41 0.41
        </DataArray>
        <DataArray type="Float32" Name="temperature" NumberOfComponents="1" format="ascii">
          298.15 298.15 298.15 298.15 298.15 298.15 298.15 298.15 298.15 298.15 298.15 298.15
          298.15 298.15 298.15 298.15 298.15 298.15 298.15 298.15 298.15 298.15 298.15 298.15
          298.15 298.15 298.15 298.15 298.15 298.15 298.15 298.15 298.15 298.15 298.15 298.15
          298.15 298.15 298.15 298.15 298.15 298.15 298.15 298.15 298.15 298.15 298.15 298.15
          298.15 298.15 298.15 298.15 298.15 298.15 298.15 298.15 298.15 298.15 298.15 298.15
          298.15 298.15 298.15 298.15 298.15 298.15 298.15 298.15 298.15 298.15 298.15 298.15
        </DataArray>
        <DataArray type="Float32" Name="phase presence" NumberOfComponents="1" format="ascii">
          3 3 3 3 3 3 3 3 3 3 3 3
          3 3 3 3 3 3 3 3 3 3 3 3
          3 3 3 3 3 3 3 3 3 3 3 3
          3 3 3 3 3 3 3 3 3 3 3 3
          3 3 3 3 3 3 3 3 3 3 3 3
          3 3 3 3 3 3 3 2 2 2 2 3
        </DataArray>
        <DataArray type="Float32" Name="velocityW" NumberOfComponents="3" format="ascii">
          3.22782e-09 -1.94023e-09 0 4.28777e-09 -4.23092e-10 0 4.67626e-09 -1.93112e-09 0 6.07488e-09 1.75057e-09 0
          2.78388e-09 2.11291e-09 0 3.84833e-09 7.61561e-09 0 -2.37223e-09 2.13273e-09 0 -3.41174e-09 7.63798e-09 0
          -4.02245e-09 -3.40738e-10 0 -5.77049e-09 1.903e-09 0 -3.08041e-09 -1.83725e-09 0 -4.49434e-09 -1.72267e-09 0
          7.20972e-09 7.77768e-09 0 8.63324e-09 1.70908e-08 0 5.09805e-09 3.0117e-08 0 -4.7764e-09 3.01072e-08 0
          -8.32055e-09 1.73197e-08 0 -6.94897e-09 8.21665e-09 0 7.61665e-09 3.73333e-08 0 8.43478e-09 5.38107e-08 0
          4.62841e-09 7.36472e-08 0 -4.52732e-09 7.35534e-08 0 -8.22533e-09 5.40431e-08 0 -7.39211e-09 3.80277e-08 0
          6.56776e-09 7.35363e-08 0 6.44244e-09 9.70093e-08 0 3.12031e-09 1.21363e-07 0 -3.16887e-09 1.21181e-07 0
          -6.32219e-09 9.72438e-08 0 -6.38313e-09 7.44994e-08 0 6.63853e-09 9.823e-08 0 5.75405e-09 1.28361e-07 0
          2.38072e-09 1.54993e-07 0 -2.49279e-09 1.54734e-07 0 -5.66138e-09 1.28587e-07 0 -6.44533e-09 9.94578e-08 0
          8.01323e-09 1.09363e-07 0 6.23801e-09 1.46826e-07 0 2.16985e-09 1.74422e-07 0 -2.32394e-09 1.74093e-07 0
          -6.14653e-09 1.46994e-07 0 -7.76827e-09 1.10842e-07 0 1.05666e-08 1.11539e-07 0 7.4262e-09 1.5803e-07 0
          2.08614e-09 1.85515e-07 0 -2.28073e-09 1.85143e-07 0 -7.33218e-09 1.58072e-07 0 -1.02164e-08 1.13288e-07 0
          1.46483e-08 1.07878e-07 0 9.22958e-09 1.66146e-07 0 1.88616e-09 1.92122e-07 0 -2.11852e-09 1.91791e-07 0
          -9.13513e-09 1.65948e-07 0 -1.40718e-08 1.09975e-07 0 2.22007e-08 9.91347e-08 0 1.23524e-08 1.7384e-07 0
          1.34566e-09 1.95983e-07 0 -1.60648e-09 1.95901e-07 0 -1.21742e-08 1.73157e-07 0 -2.09482e-08 1.01827e-07 0
          4.83921e-08 7.96487e-08 0 2.44953e-08 1.74549e-07 0 3.5331e-10 1.93989e-07 0 -4.75674e-10 1.90155e-07 0
          -2.33312e-08 1.80684e-07 0 -4.56029e-08 8.38144e-08 0 2.44112e-07 6.58532e-08 0 1.22056e-07 1.71232e-07 0
          0 1.90631e-07 0 0 1.82849e-07 0 -1.0946e-07 1.84513e-07 0 -2.1892e-07 7.11015e-08 0
        </DataArray>
        <DataArray type="Float32" Name="velocityN" NumberOfComponents="3" format="ascii">
          7.38037e-10 -8.35194e-10 0 1.10353e-09 -5.7446e-10 0 9.30992e-09 -1.0159e-08 0 1.38365e-08 -6.70186e-09 0
          1.3578e-09 -2.40796e-10 0 1.68807e-08 -2.35004e-09 0 1.02267e-09 -1.61866e-10 0 1.26209e-08 -1.40111e-09 0
          5.35358e-10 -1.34197e-10 0 6.5931e-09 -1.05467e-09 0 2.7197e-10 -1.28175e-10 0 3.34271e-09 -9.85946e-10 0
          5.64522e-07 -3.76264e-07 0 8.39637e-07 -1.93821e-07 0 1.02259e-06 3.74528e-08 0 7.61818e-07 8.56685e-08 0
          3.97172e-07 1.03056e-07 0 2.01127e-07 1.06291e-07 0 6.0321e-06 -4.08453e-06 0 9.15825e-06 -2.12221e-06 0
          1.1192e-05 6.56269e-07 0 8.18206e-06 1.20735e-06 0 4.18225e-06 1.3333e-06 0 2.1e-06 1.34968e-06 0
          2.0596e-05 -1.77735e-05 0 3.16365e-05 -9.41879e-06 0 3.74058e-05 3.83964e-06 0 2.58181e-05 5.3906e-06 0
          1.29792e-05 5.71155e-06 0 6.45665e-06 5.70609e-06 0 4.02498e-05 -4.64381e-05 0 6.24449e-05 -2.50713e-05 0
          6.77003e-05 1.4093e-05 0 4.15058e-05 1.27677e-05 0 2.12115e-05 1.39842e-05 0 1.01719e-05 1.35604e-05 0
          6.25345e-05 -9.06401e-05 0 0.000101818 -5.13843e-05 0 9.59427e-05 4.02862e-05 0 4.73367e-05 1.84932e-05 0
          2.72947e-05 2.5851e-05 0 1.07003e-05 2.26446e-05 0 8.3487e-05 -0.000147957 0 0.000158342 -9.56071e-05 0
          0.000123926 9.96447e-05 0 4.02537e-05 1.05551e-05 0 3.4657e-05 4.43548e-05 0 3.46163e-06 2.84675e-05 0
          8.65638e-05 -0.000209175 0 0.000245218 -0.000177522 0 0.000153735 0.000225423 0 1.44609e-05 -3.63596e-05 0
          4.96623e-05 8.16607e-05 0 -2.59987e-05 2.11315e-05 0 2.53215e-05 -0.000247306 0 0.000374092 -0.000339109 0
          0.000182362 0.000477367 0 -4.12652e-05 -0.000171484 0 8.13048e-05 0.000167195 0 -0.000112997 -2.22843e-05 0
          -0.000193899 -0.00020099 0 0.000561445 -0.000646497 0 0.000207141 0.000959484 0 -0.000142061 -0.000473406 0
          0.000144162 0.000362439 0 -0.000330064 -0.000148735 0 -0.000535475 -0.00014632 0 0.000748257 -0.000846201 0
          0.000220847 0.00127462 0 -0.000255846 -0.000677683 0 0.00022286 0.000497798 0 -0.000632882 -0.000240479 0
        </DataArray>
      </PointData>
      <CellData Scalars="process rank">
        <DataArray type="Float32" Name="process rank" NumberOfComponents="1" format="ascii">
          0 0 0 0 0 0 0 0 0 0 0 0
          0 0 0 0 0 0 0 0 0 0 0 0
          0 0 0 0 0 0 0 0 0 0 0 0
          0 0 0 0 0 0 0 0 0 0 0 0
          0 0 0 0 0 0 0
        </DataArray>
      </CellData>
      <Points>
        <DataArray type="Float32" Name="Coordinates" NumberOfComponents="3" format="ascii">
          0.25 0 0 0.3 0 0 0.25 0.0349916 0 0.3 0.0349916 0
          0.35 0 0 0.35 0.0349916 0 0.4 0 0 0.4 0.0349916 0
          0.45 0 0 0.45 0.0349916 0 0.5 0 0 0.5 0.0349916 0
          0.25 0.0668022 0 0.3 0.0668022 0 0.35 0.0668022 0 0.4 0.0668022 0
          0.45 0.0668022 0 0.5 0.0668022 0 0.25 0.0957209 0 0.3 0.0957209 0
          0.35 0.0957209 0 0.4 0.0957209 0 0.45 0.0957209 0 0.5 0.0957209 0
          0.25 0.122011 0 0.3 0.122011 0 0.35 0.122011 0 0.4 0.122011 0
          0.45 0.122011 0 0.5 0.122011 0 0.25 0.14591 0 0.3 0.14591 0
          0.35 0.14591 0 0.4 0.14591 0 0.45 0.14591 0 0.5 0.14591 0
          0.25 0.167637 0 0.3 0.167637 0 0.35 0.167637 0 0.4 0.167637 0
          0.45 0.167637 0 0.5 0.167637 0 0.25 0.187389 0 0.3 0.187389 0
          0.35 0.187389 0 0.4 0.187389 0 0.45 0.187389 0 0.5 0.187389 0
          0.25 0.205345 0 0.3 0.205345 0 0.35 0.205345 0 0.4 0.205345 0
          0.45 0.205345 0 0.5 0.205345 0 0.25 0.221669 0 0.3 0.221669 0
          0.35 0.221669 0 0.4 0.221669 0 0.45 0.221669 0 0.5 0.221669 0
          0.25 0.236509 0 0.3 0.236509 0 0.35 0.236509 0 0.4 0.236509 0
          0.45 0.236509 0 0.5 0.236509 0 0.25 0.25 0 0.3 0.25 0
          0.35 0.25 0 0.4 0.25 0 0.45 0.25 0 0.5 0.25 0
        </DataArray>
      </Points>
      <Cells>
        <DataArray type="Int32" Name="connectivity" NumberOfComponents="1" format="ascii">
          0 1 3 2 1 4 5 3 4 6 7 5
          6 8 9 7 8 10 11 9 2 3 13 12
          3 5 14 13 5 7 15 14 7 9 16 15
          9 11 17 16 12 13 19 18 13 14 20 19
          14 15 21 20 15 16 22 21 16 17 23 22
          18 19 25 24 19 20 26 25 20 21 27 26
          21 22 28 27 22 23 29 28 24 25 31 30
          25 26 32 31 26 27 33 32 27 28 34 33
          28 29 35 34 30 31 37 36 31 32 38 37
          32 33 39 38 33 34 40 39 34 35 41 40
          36 37 43 42 37 38 44 43 38 39 45 44
          39 40 46 45 40 41 47 46 42 43 49 48
          43 44 50 49 44 45 51 50 45 46 52 51
          46 47 53 52 48 49 55 54 49 50 56 55
          50 51 57 56 51 52 58 57 52 53 59 58
          54 55 61 60 55 56 62 61 56 57 63 62
          57 58 64 63 58 59 65 64 60 61 67 66
          61 62 68 67 62 63 69 68 63 64 70 69
          64 65 71 70
        </DataArray>
        <DataArray type="Int32" Name="offsets" NumberOfComponents="1" format="ascii">
          4 8 12 16 20 24 28 32 36 40 44 48
          52 56 60 64 68 72 76 80 84 88 92 96
          100 104 108 112 116 120 124 128 132 136 140 144
          148 152 156 160 164 168 172 176 180 184 188 192
          196 200 204 208 212 216 220
        </DataArray>
        <DataArray type="UInt8" Name="types" NumberOfComponents="1" format="ascii">
          9 9 9 9 9 9 9 9 9 9 9 9
          9 9 9 9 9 9 9 9 9 9 9 9
          9 9 9 9 9 9 9 9 9 9 9 9
          9 9 9 9 9 9 9 9 9 9 9 9
          9 9 9 9 9 9 9
        </DataArray>
      </Cells>
    </Piece>
  </UnstructuredGrid>
</VTKFile>
