<?xml version="1.0"?>
<VTKFile type="UnstructuredGrid" version="0.1" byte_order="LittleEndian">
  <UnstructuredGrid>
    <Piece NumberOfCells="120" NumberOfPoints="143">
      <PointData Scalars="P" Vectors="v">
        <DataArray type="Float32" Name="P" NumberOfComponents="1" format="ascii">
          100012 99986.9 100012 99986.9 100011 100011 99988.9 99988.9 100009 100009 99991.3 99991.2
          100005 100006 99994.4 99993.8 100002 100003 99996.7 99996.5 100000 100000 100017 99985.8
          100012 99988.8 100009 99991.3 100005 99994.3 100003 99996.7 100000 100016 99985.8 100012
          99988.7 100009 99991.2 100006 99993.7 100003 99996.4 100000 100016 99985.6 100012 99988.5
          100009 99991.2 100005 99994.1 100003 99996.5 100000 100016 99985.6 100012 99988.5 100009
          99991.1 100006 99993.7 100003 99996.3 100000 100016 99985.5 100012 99988.4 100009 99991.2
          100006 99993.9 100003 99996.4 100000 100016 99985.6 100012 99988.4 100009 99991.1 100006
          99993.7 100003 99996.2 100000 100016 99985.4 100012 99988.4 100009 99991.1 100006 99993.8
          100003 99996.3 100000 100016 99985.7 100012 99988.6 100009 99991.2 100006 99993.7 100003
          99996.2 100000 100017 99985.6 100012 99988.6 100009 99991.2 100006 99993.8 100003 99996.3
          100000 100012 99987.3 100011 99989.2 100008 99991.4 100006 99993.8 100003 99996.3 100000
          100012 99987.3 100011 99989.2 100008 99991.4 100006 99993.8 100003 99996.3 100000
        </DataArray>
        <DataArray type="Float32" Name="delP" NumberOfComponents="1" format="ascii">
          11.9606 -13.0811 11.9659 -13.0757 11.355 11.3556 -11.0788 -11.076 8.53853 8.56299 -8.67946 -8.78519
          5.0152 5.66354 -5.59106 -6.17891 2.46815 2.81494 -3.2575 -3.52985 0 0 16.624 -14.172
          11.7512 -11.2404 8.59321 -8.67164 5.16841 -5.7189 2.54907 -3.31595 0 16.0863 -14.1861 11.8664
          -11.337 8.70111 -8.82512 5.76122 -6.25467 2.87169 -3.61866 0 15.868 -14.3858 12.04 -11.46
          8.73288 -8.76579 5.41721 -5.92444 2.67622 -3.46865 0 15.7921 -14.3806 12.0631 -11.5045 8.8227
          -8.88603 5.85082 -6.3215 2.9194 -3.71227 0 15.5695 -14.522 12.1703 -11.5922 8.83771 -8.8466
          5.60875 -6.09113 2.77594 -3.59846 0 15.6748 -14.4362 12.0907 -11.5587 8.86216 -8.90293 5.87977
          -6.34548 2.93443 -3.76994 0 15.57 -14.5552 12.1724 -11.6136 8.85112 -8.86549 5.71137 -6.19303
          2.83274 -3.69137 0 15.8365 -14.2959 11.896 -11.4355 8.74538 -8.81807 5.81019 -6.30371 2.89898
          -3.77935 0 16.6132 -14.4395 11.8861 -11.4002 8.66227 -8.7462 5.68387 -6.20727 2.82905 -3.74294
          0 12.1966 -12.7297 10.7442 -10.8139 8.31283 -8.55193 5.61117 -6.18533 2.80367 -3.74345 0
          12.1901 -12.7362 10.7444 -10.817 8.31196 -8.55404 5.60941 -6.18713 2.80224 -3.74472 0
        </DataArray>
        <DataArray type="Float32" Name="x_gas^H2O" NumberOfComponents="1" format="ascii">
          0.0127981 0.00997959 0.0142608 0.0138148 0.00949543 0.013533 0.00864048 0.0132105 0.00813537 0.0129424 0.00799502 0.0127464
          0.0212335 0.0128658 0.0315545 0.0133558 0.0316963 0.0136082 0.0316981 0.0142868 0.031697 0.016116 0.0122271 0.0124245
          0.0124934 0.0125356 0.0125394 0.0125271 0.01252 0.0125553 0.0126019 0.012739 0.0136508 0.0120377 0.0120964 0.0121402
          0.0121867 0.0122198 0.0122455 0.0122602 0.0122796 0.0123005 0.0123472 0.0129728 0.0120572 0.0120662 0.0120782 0.0120948
          0.0121109 0.0121272 0.0121398 0.0121538 0.0121675 0.0121953 0.0126656 0.0120849 0.0120852 0.0120868 0.01209 0.0120942
          0.0120997 0.0121052 0.0121116 0.0121186 0.0121371 0.012603 0.0121098 0.0121061 0.0121036 0.012102 0.0121014 0.0121019
          0.0121031 0.0121053 0.0121086 0.0121248 0.0125916 0.0121086 0.0121071 0.0121059 0.0121052 0.0121053 0.0121062 0.0121081
          0.0121108 0.0121147 0.0121336 0.0126078 0.0121015 0.0120999 0.012101 0.0121044 0.0121091 0.0121154 0.0121225 0.0121306
          0.0121392 0.0121637 0.0126378 0.0120587 0.012082 0.0121027 0.0121269 0.0121482 0.012171 0.0121915 0.0122117 0.0122296
          0.0122596 0.0127357 0.0121437 0.0122764 0.0123389 0.0124044 0.0124467 0.012487 0.0125158 0.01254 0.0125569 0.012581
          0.0130832 0.014255 0.0141042 0.0140022 0.0138872 0.0137925 0.0136912 0.0135982 0.0135061 0.0134234 0.0133555 0.0140866
          0.0127981 0.0115979 0.0114399 0.0110144 0.0108388 0.0105536 0.0102878 0.0100749 0.00989848 0.00980777 0.0127981
        </DataArray>
        <DataArray type="Float32" Name="X_gas^H2O" NumberOfComponents="1" format="ascii">
          0.008 0.00623152 0.00891928 0.00863888 0.0059281 0.00846177 0.0053926 0.00825909 0.00507639 0.00809068 0.00498854 0.00796753
          0.0133156 0.00804253 0.0198661 0.00835041 0.0199564 0.00850901 0.0199575 0.00893565 0.0199569 0.0100867 0.00764141 0.00776539
          0.00780864 0.00783513 0.00783753 0.00782984 0.00782537 0.00784751 0.00787678 0.00796289 0.00853578 0.00752251 0.00755937 0.00758687
          0.00761604 0.00763686 0.007653 0.00766224 0.00767443 0.00768753 0.00771682 0.00810979 0.00753475 0.00754044 0.00754797 0.00755838
          0.0075685 0.0075787 0.00758666 0.00759543 0.00760401 0.00762149 0.00791677 0.00755214 0.00755235 0.00755334 0.00755534 0.00755803
          0.00756145 0.00756487 0.00756893 0.00757334 0.00758491 0.00787751 0.0075678 0.00756548 0.0075639 0.00756287 0.00756253 0.0075628
          0.0075636 0.00756498 0.00756702 0.00757722 0.00787035 0.00756702 0.0075661 0.00756534 0.00756491 0.00756495 0.00756556 0.0075667
          0.00756843 0.00757085 0.00758274 0.00788047 0.00756258 0.00756158 0.00756227 0.00756439 0.00756733 0.00757133 0.00757578 0.00758085
          0.00758625 0.00760163 0.00789933 0.00753569 0.00755036 0.00756332 0.00757855 0.00759193 0.00760624 0.00761911 0.00763174 0.00764304
          0.00766187 0.00796081 0.0075891 0.00767237 0.00771167 0.00775275 0.0077793 0.00780462 0.00782275 0.00783791 0.0078485 0.00786364
          0.00817913 0.00891567 0.00882085 0.00875669 0.00868442 0.0086249 0.0085612 0.00850271 0.00844489 0.00839286 0.00835019 0.00880975
          0.008 0.00724649 0.00714735 0.00688041 0.00677024 0.00659139 0.00642475 0.00629123 0.00618068 0.00612383 0.008
        </DataArray>
        <DataArray type="Float32" Name="x_gas^Air" NumberOfComponents="1" format="ascii">
          0.987202 0.99002 0.985739 0.986185 0.990505 0.986467 0.99136 0.98679 0.991865 0.987058 0.992005 0.987254
          0.978767 0.987134 0.968445 0.986644 0.968304 0.986392 0.968302 0.985713 0.968303 0.983884 0.987773 0.987575
          0.987507 0.987464 0.987461 0.987473 0.98748 0.987445 0.987398 0.987261 0.986349 0.987962 0.987904 0.98786
          0.987813 0.98778 0.987754 0.98774 0.98772 0.9877 0.987653 0.987027 0.987943 0.987934 0.987922 0.987905
          0.987889 0.987873 0.98786 0.987846 0.987832 0.987805 0.987334 0.987915 0.987915 0.987913 0.98791 0.987906
          0.9879 0.987895 0.987888 0.987881 0.987863 0.987397 0.98789 0.987894 0.987896 0.987898 0.987899 0.987898
          0.987897 0.987895 0.987891 0.987875 0.987408 0.987891 0.987893 0.987894 0.987895 0.987895 0.987894 0.987892
          0.987889 0.987885 0.987866 0.987392 0.987899 0.9879 0.987899 0.987896 0.987891 0.987885 0.987877 0.987869
          0.987861 0.987836 0.987362 0.987941 0.987918 0.987897 0.987873 0.987852 0.987829 0.987808 0.987788 0.98777
          0.98774 0.987264 0.987856 0.987724 0.987661 0.987596 0.987553 0.987513 0.987484 0.98746 0.987443 0.987419
          0.986917 0.985745 0.985896 0.985998 0.986113 0.986207 0.986309 0.986402 0.986494 0.986577 0.986645 0.985913
          0.987202 0.988402 0.98856 0.988986 0.989161 0.989446 0.989712 0.989925 0.990102 0.990192 0.987202
        </DataArray>
        <DataArray type="Float32" Name="X_gas^Air" NumberOfComponents="1" format="ascii">
          0.992 0.993768 0.991081 0.991361 0.994072 0.991538 0.994607 0.991741 0.994924 0.991909 0.995011 0.992032
          0.986684 0.991957 0.980134 0.99165 0.980044 0.991491 0.980042 0.991064 0.980043 0.989913 0.992359 0.992235
          0.992191 0.992165 0.992162 0.99217 0.992175 0.992153 0.992123 0.992037 0.991464 0.992477 0.992441 0.992413
          0.992384 0.992363 0.992347 0.992338 0.992326 0.992312 0.992283 0.99189 0.992465 0.99246 0.992452 0.992442
          0.992432 0.992421 0.992413 0.992405 0.992396 0.992379 0.992083 0.992448 0.992448 0.992447 0.992445 0.992442
          0.992439 0.992435 0.992431 0.992427 0.992415 0.992122 0.992432 0.992435 0.992436 0.992437 0.992437 0.992437
          0.992436 0.992435 0.992433 0.992423 0.99213 0.992433 0.992434 0.992435 0.992435 0.992435 0.992434 0.992433
          0.992432 0.992429 0.992417 0.99212 0.992437 0.992438 0.992438 0.992436 0.992433 0.992429 0.992424 0.992419
          0.992414 0.992398 0.992101 0.992464 0.99245 0.992437 0.992421 0.992408 0.992394 0.992381 0.992368 0.992357
          0.992338 0.992039 0.992411 0.992328 0.992288 0.992247 0.992221 0.992195 0.992177 0.992162 0.992151 0.992136
          0.991821 0.991084 0.991179 0.991243 0.991316 0.991375 0.991439 0.991497 0.991555 0.991607 0.99165 0.99119
          0.992 0.992754 0.992853 0.99312 0.99323 0.993409 0.993575 0.993709 0.993819 0.993876 0.992
        </DataArray>
        <DataArray type="Float32" Name="rho" NumberOfComponents="1" format="ascii">
          1.16272 1.16367 1.16207 1.16198 1.16417 1.16239 1.16429 1.16227 1.16474 1.16262 1.1646 1.1625
          1.15892 1.16262 1.15424 1.16226 1.15427 1.16226 1.1542 1.16188 1.15424 1.16112 1.16303 1.16258
          1.16285 1.16257 1.1628 1.1626 1.16276 1.16262 1.1627 1.16257 1.1622 1.1631 1.16273 1.16301
          1.16272 1.16294 1.16272 1.16289 1.16274 1.16283 1.16274 1.1625 1.16309 1.16274 1.16304 1.16276
          1.16299 1.16278 1.16294 1.1628 1.16289 1.16281 1.16264 1.16308 1.16273 1.16304 1.16276 1.16299
          1.16279 1.16296 1.16281 1.16292 1.16283 1.16267 1.16307 1.16272 1.16303 1.16275 1.16299 1.16279
          1.16295 1.16282 1.16292 1.16284 1.16267 1.16307 1.16272 1.16303 1.16275 1.16299 1.16278 1.16295
          1.16281 1.16292 1.16283 1.16267 1.16307 1.16272 1.16303 1.16275 1.16299 1.16278 1.16295 1.1628
          1.16291 1.16282 1.16265 1.16309 1.16273 1.16303 1.16274 1.16297 1.16276 1.16292 1.16277 1.16287
          1.16278 1.16261 1.16306 1.16264 1.16292 1.16262 1.16284 1.16262 1.16277 1.16262 1.16272 1.16263
          1.16246 1.16208 1.16186 1.16217 1.16197 1.16224 1.16209 1.16229 1.1622 1.16234 1.16229 1.16201
          1.16272 1.16296 1.16331 1.16324 1.16354 1.16347 1.16376 1.16371 1.16389 1.16386 1.16258
        </DataArray>
        <DataArray type="Float32" Name="mu" NumberOfComponents="1" format="ascii">
          1.82387e-05 1.82387e-05 1.82387e-05 1.82387e-05 1.82387e-05 1.82387e-05 1.82387e-05 1.82387e-05 1.82387e-05 1.82387e-05 1.82387e-05 1.82387e-05
          1.82387e-05 1.82387e-05 1.82387e-05 1.82387e-05 1.82387e-05 1.82387e-05 1.82387e-05 1.82387e-05 1.82387e-05 1.82387e-05 1.82387e-05 1.82387e-05
          1.82387e-05 1.82387e-05 1.82387e-05 1.82387e-05 1.82387e-05 1.82387e-05 1.82387e-05 1.82387e-05 1.82387e-05 1.82387e-05 1.82387e-05 1.82387e-05
          1.82387e-05 1.82387e-05 1.82387e-05 1.82387e-05 1.82387e-05 1.82387e-05 1.82387e-05 1.82387e-05 1.82387e-05 1.82387e-05 1.82387e-05 1.82387e-05
          1.82387e-05 1.82387e-05 1.82387e-05 1.82387e-05 1.82387e-05 1.82387e-05 1.82387e-05 1.82387e-05 1.82387e-05 1.82387e-05 1.82387e-05 1.82387e-05
          1.82387e-05 1.82387e-05 1.82387e-05 1.82387e-05 1.82387e-05 1.82387e-05 1.82387e-05 1.82387e-05 1.82387e-05 1.82387e-05 1.82387e-05 1.82387e-05
          1.82387e-05 1.82387e-05 1.82387e-05 1.82387e-05 1.82387e-05 1.82387e-05 1.82387e-05 1.82387e-05 1.82387e-05 1.82387e-05 1.82387e-05 1.82387e-05
          1.82387e-05 1.82387e-05 1.82387e-05 1.82387e-05 1.82387e-05 1.82387e-05 1.82387e-05 1.82387e-05 1.82387e-05 1.82387e-05 1.82387e-05 1.82387e-05
          1.82387e-05 1.82387e-05 1.82387e-05 1.82387e-05 1.82387e-05 1.82387e-05 1.82387e-05 1.82387e-05 1.82387e-05 1.82387e-05 1.82387e-05 1.82387e-05
          1.82387e-05 1.82387e-05 1.82387e-05 1.82387e-05 1.82387e-05 1.82387e-05 1.82387e-05 1.82387e-05 1.82387e-05 1.82387e-05 1.82387e-05 1.82387e-05
          1.82387e-05 1.82387e-05 1.82387e-05 1.82387e-05 1.82387e-05 1.82387e-05 1.82387e-05 1.82387e-05 1.82387e-05 1.82387e-05 1.82387e-05 1.82387e-05
          1.82387e-05 1.82387e-05 1.82387e-05 1.82387e-05 1.82387e-05 1.82387e-05 1.82387e-05 1.82387e-05 1.82387e-05 1.82387e-05 1.82387e-05
        </DataArray>
        <DataArray type="Float32" Name="D" NumberOfComponents="1" format="ascii">
          2.49338e-05 2.494e-05 2.49338e-05 2.494e-05 2.49339e-05 2.49339e-05 2.49395e-05 2.49395e-05 2.49346e-05 2.49346e-05 2.49389e-05 2.4939e-05
          2.49355e-05 2.49354e-05 2.49382e-05 2.49383e-05 2.49361e-05 2.49361e-05 2.49376e-05 2.49376e-05 2.49368e-05 2.49368e-05 2.49326e-05 2.49403e-05
          2.49338e-05 2.49396e-05 2.49346e-05 2.49389e-05 2.49355e-05 2.49382e-05 2.49361e-05 2.49376e-05 2.49368e-05 2.49328e-05 2.49403e-05 2.49338e-05
          2.49396e-05 2.49346e-05 2.4939e-05 2.49353e-05 2.49383e-05 2.4936e-05 2.49377e-05 2.49368e-05 2.49328e-05 2.49404e-05 2.49338e-05 2.49396e-05
          2.49346e-05 2.4939e-05 2.49354e-05 2.49382e-05 2.49361e-05 2.49376e-05 2.49368e-05 2.49328e-05 2.49404e-05 2.49338e-05 2.49396e-05 2.49346e-05
          2.4939e-05 2.49353e-05 2.49383e-05 2.4936e-05 2.49377e-05 2.49368e-05 2.49329e-05 2.49404e-05 2.49337e-05 2.49397e-05 2.49346e-05 2.4939e-05
          2.49354e-05 2.49383e-05 2.49361e-05 2.49377e-05 2.49368e-05 2.49329e-05 2.49404e-05 2.49337e-05 2.49396e-05 2.49346e-05 2.4939e-05 2.49353e-05
          2.49383e-05 2.4936e-05 2.49377e-05 2.49368e-05 2.49329e-05 2.49404e-05 2.49337e-05 2.49397e-05 2.49346e-05 2.4939e-05 2.49353e-05 2.49383e-05
          2.49361e-05 2.49377e-05 2.49368e-05 2.49328e-05 2.49403e-05 2.49338e-05 2.49396e-05 2.49346e-05 2.4939e-05 2.49353e-05 2.49383e-05 2.4936e-05
          2.49377e-05 2.49368e-05 2.49326e-05 2.49404e-05 2.49338e-05 2.49396e-05 2.49346e-05 2.49389e-05 2.49353e-05 2.49383e-05 2.49361e-05 2.49377e-05
          2.49368e-05 2.49337e-05 2.49399e-05 2.49341e-05 2.49395e-05 2.49347e-05 2.49389e-05 2.49354e-05 2.49383e-05 2.49361e-05 2.49377e-05 2.49368e-05
          2.49337e-05 2.49399e-05 2.49341e-05 2.49395e-05 2.49347e-05 2.49389e-05 2.49354e-05 2.49383e-05 2.49361e-05 2.49377e-05 2.49368e-05
        </DataArray>
        <DataArray type="Float32" Name="v" NumberOfComponents="3" format="ascii">
          0 0 0 0 0 0 3.5 0 0 3.40448 0.103129 0
          0 0 0 2.97337 0.0103716 0 0 0 0 3.19385 0.0477335 0
          0 0 0 2.6432 0.0282962 0 0 0 0 2.95325 0.0346764 0
          -0.0731259 -0.0018744 0 2.43256 -0.0338689 0 0.273785 0.00454359 0 2.81331 0.0188761 0
          -0.102489 -0.00258685 0 2.31888 -0.00728441 0 0.301387 0.00202699 0 2.69237 0.0242533 0
          -0.35606 -0.00126493 0 2.08676 0.0872427 0 3.5 0 0 3.94738 0.114676 0
          3.59942 0.0189283 0 3.9091 0.0693321 0 3.54133 0.0380505 0 3.85884 0.0452763 0
          3.47601 0.0132922 0 3.74078 0.0299675 0 3.38658 0.0173845 0 3.62933 0.0453642 0
          3.28689 0.121118 0 3.5 0 0 3.98514 0.0901044 0 3.65943 0.0255624 0
          4.00997 0.0692429 0 3.713 0.0427127 0 4.03736 0.0520168 0 3.73431 -0.00395473 0
          4.02933 0.0378188 0 3.72534 0.0184827 0 4.00534 0.0570504 0 3.75178 0.0685339 0
          3.5 0 0 3.94742 0.0591596 0 3.61815 0.0225475 0 3.98982 0.0539887 0
          3.6927 0.0324515 0 4.04939 0.0397042 0 3.74511 0.0209799 0 4.04924 0.0325716 0
          3.77477 0.026858 0 4.06893 0.0495976 0 3.81953 0.0558383 0 3.5 0 0
          3.92846 0.0410826 0 3.59876 0.0202847 0 3.96983 0.0431684 0 3.67281 0.0266888 0
          4.01408 0.0342726 0 3.72376 -0.000876107 0 4.04381 0.0271605 0 3.76087 0.0156489 0
          4.07522 0.042402 0 3.81571 0.0493868 0 3.5 0 0 3.90228 0.0161382 0
          3.56748 0.0141738 0 3.94601 0.0240143 0 3.63878 0.0181655 0 3.99521 0.0195862 0
          3.69322 0.0146814 0 4.01209 0.0183523 0 3.73361 0.0180093 0 4.04474 0.0299858 0
          3.78708 0.0334756 0 3.5 0 0 3.91035 0.00647979 0 3.57805 0.00790887 0
          3.94962 0.0117401 0 3.64627 0.0104996 0 3.98779 0.0104878 0 3.69741 -0.00533984 0
          4.0229 0.00922773 0 3.7397 0.00468934 0 4.05949 0.0207146 0 3.79273 0.0246441 0
          3.5 0 0 3.90539 -0.0244934 0 3.57036 0.00238666 0 3.94581 -0.0103481 0
          3.63839 0.00408901 0 3.98667 -0.00536686 0 3.69217 0.00296129 0 4.01409 -0.00127025 0
          3.73609 0.00386784 0 4.05046 0.00658883 0 3.7856 0.00718714 0 3.5 0 0
          3.95826 -0.0410307 0 3.63093 -0.00431864 0 3.9893 -0.025877 0 3.6944 -0.00502383 0
          4.02421 -0.0181762 0 3.74354 -0.0166059 0 4.06256 -0.0136988 0 3.78708 -0.011468 0
          4.10097 -0.00357473 0 3.83346 -0.00236992 0 3.5 0 0 3.96877 -0.111975 0
          3.64068 0.000782298 0 3.98413 -0.0505623 0 3.68724 -0.0101795 0 4.00932 -0.0332462 0
          3.72187 -0.014422 0 4.03308 -0.0244466 0 3.75209 -0.0148698 0 4.0599 -0.0178721 0
          3.78375 -0.0169058 0 3.5 0 0 3.63743 -0.116651 0 3.31059 0.00325896 0
          3.59307 -0.0490699 0 3.22597 -0.013715 0 3.55084 -0.0329136 0 3.16519 -0.0262762 0
          3.50943 -0.0265434 0 3.11684 -0.0224983 0 3.47119 -0.0212659 0 3.0772 0.00295954 0
          0 0 0 0 0 0 0 0 0 0 0 0
          0 0 0 0 0 0 0 0 0 0 0 0
          0 0 0 0 0 0 0 0 0
        </DataArray>
      </PointData>
      <CellData Scalars="mu_t">
        <DataArray type="Float32" Name="mu_t" NumberOfComponents="1" format="ascii">
          0.000219926 0.000209336 0.000199385 0.000369106 0.000353003 0.000488862 0.000453241 0.000452579 0.000439538 0.000454286 0.000185657 0.000183429
          0.000174881 0.000428912 0.000450288 0.000822718 0.00081079 0.000828668 0.000820784 0.000867059 2.77665e-05 2.76141e-05 2.63267e-05 0.000276495
          0.000301344 0.000766099 0.000755105 0.00077178 0.00076452 0.000807753 2.79147e-06 2.7765e-06 2.64708e-06 0.000129734 0.000142762 0.00048462
          0.000477926 0.000488385 0.000483873 0.000511217 4.27841e-07 4.25512e-07 4.0568e-07 3.29372e-05 3.62828e-05 0.000170235 0.000167982 0.000171622
          0.000170066 0.000179662 8.91971e-08 8.87063e-08 8.45722e-08 7.72105e-06 8.50683e-06 4.50258e-05 4.44377e-05 4.53978e-05 4.49885e-05 4.75258e-05
          2.28006e-08 2.26742e-08 2.16175e-08 2.04321e-06 2.25126e-06 1.2184e-05 1.20252e-05 1.22849e-05 1.21742e-05 1.28608e-05 6.72212e-09 6.68467e-09
          6.37313e-09 6.11271e-07 6.73527e-07 3.64709e-06 3.59957e-06 3.6773e-06 3.64417e-06 3.84968e-06 3.29625e-05 3.39427e-05 3.51314e-05 3.56401e-05
          3.64223e-05 3.70392e-05 3.7626e-05 3.82537e-05 3.88285e-05 3.93383e-05 0.000153782 0.00015829 0.000163735 0.000166073 0.000169662 0.000172496
          0.000175192 0.000178076 0.000180718 0.000183064 0.000583833 0.000597798 0.000613478 0.000620628 0.000631275 0.000639866 0.000648011 0.000656764
          0.000664811 0.000672046 0.000808373 0.000810434 0.000810344 0.000811085 0.00081246 0.000813738 0.000815265 0.000816994 0.000818858 0.000820728
        </DataArray>
        <DataArray type="Float32" Name="nu_t" NumberOfComponents="1" format="ascii">
          0.000189186 0.000180021 0.000171433 0.000317279 0.000303401 0.000420607 0.000390641 0.000390391 0.000379176 0.000392015 0.000159723 0.0001578
          0.000150435 0.000368937 0.000387303 0.00070764 0.000697413 0.000712857 0.00070614 0.000746217 2.38781e-05 2.37485e-05 2.26414e-05 0.000237793
          0.000259162 0.000658872 0.000649412 0.00066377 0.000657533 0.000694841 2.40041e-06 2.38762e-06 2.27631e-06 0.000111565 0.000122769 0.000416759
          0.000411 0.000420003 0.000416122 0.000439693 3.67905e-07 3.65911e-07 3.48853e-07 2.83239e-05 3.12006e-05 0.000146393 0.000144454 0.000147587
          0.000146248 0.000154517 7.67023e-08 7.62817e-08 7.27255e-08 6.63961e-06 7.31525e-06 3.87195e-05 3.82133e-05 3.90396e-05 3.86873e-05 4.08736e-05
          1.96068e-08 1.94984e-08 1.85894e-08 1.75703e-06 1.93592e-06 1.04775e-05 1.03408e-05 1.05643e-05 1.04691e-05 1.10607e-05 5.78051e-09 5.74841e-09
          5.48042e-09 5.25655e-07 5.79186e-07 3.1363e-06 3.09539e-06 3.16229e-06 3.13378e-06 3.31086e-06 2.83449e-05 2.91886e-05 3.02105e-05 3.06486e-05
          3.1321e-05 3.18521e-05 3.23565e-05 3.2897e-05 3.33911e-05 3.38333e-05 0.000132243 0.000136126 0.000140809 0.000142824 0.00014591 0.000148351
          0.000150669 0.000153154 0.000155425 0.00015746 0.000502273 0.00051429 0.000527769 0.000533921 0.000543066 0.000550458 0.00055745 0.00056498
          0.000571889 0.000578186 0.000695458 0.00069714 0.000697008 0.000697606 0.000698741 0.000699805 0.00070107 0.000702533 0.000704102 0.000705936
        </DataArray>
        <DataArray type="Float32" Name="l_mix" NumberOfComponents="1" format="ascii">
          0.0014261 0.00139494 0.00138234 0.00136017 0.00134442 0.00133307 0.00130091 0.00129345 0.0012817 0.00128345 0.00659458 0.00654999
          0.00653124 0.00649646 0.00647115 0.00645205 0.00639623 0.00638267 0.00636096 0.00636421 0.0121554 0.0121392 0.012132 0.0121178
          0.0121072 0.0120988 0.0120732 0.0120666 0.0120559 0.0120576 0.018062 0.0180587 0.0180572 0.018054 0.0180514 0.0180493
          0.0180426 0.0180408 0.0180378 0.0180382 0.0245614 0.0245609 0.0245607 0.0245602 0.0245598 0.0245595 0.0245583 0.024558
          0.0245574 0.0245575 0.0317739 0.0317738 0.0317738 0.0317738 0.0317737 0.0317737 0.0317735 0.0317735 0.0317734 0.0317734
          0.0397869 0.0397869 0.0397869 0.0397869 0.0397869 0.0397869 0.0397869 0.0397869 0.0397869 0.0397869 0.0486903 0.0486903
          0.0486903 0.0486903 0.0486903 0.0486903 0.0486903 0.0486903 0.0486903 0.0486903 0.0439158 0.0439156 0.0439156 0.0439155
          0.0439155 0.0439154 0.0439153 0.0439153 0.0439152 0.0439151 0.0329119 0.0329104 0.0329101 0.0329093 0.032909 0.0329084
          0.032908 0.0329075 0.0329072 0.0329067 0.0205548 0.0205442 0.0205421 0.0205368 0.0205347 0.0205305 0.020528 0.0205249
          0.0205225 0.0205195 0.00591322 0.00588629 0.00588088 0.0058678 0.00586265 0.00585273 0.00584674 0.00583935 0.00583369 0.00582689
        </DataArray>
        <DataArray type="Float32" Name="u^+" NumberOfComponents="1" format="ascii">
          24.5331 23.591 23.1904 22.5758 22.0926 21.2185 22.5728 22.1421 22.0882 19.9866 50.9969 51.5083
          51.4241 51.3994 51.3068 50.8157 51.653 51.1909 50.9867 49.4704 53.062 56.1967 57.072 58.7034
          59.811 60.3542 62.0887 62.1436 62.5148 62.0655 53.0621 56.2665 57.4455 59.6031 61.1605 62.1925
          64.4824 65.0533 66.0241 66.1775 52.8605 55.8322 57.0662 59.2923 60.9097 62.0576 64.4986 65.2623
          66.471 66.7435 52.7 55.4776 56.7108 58.9138 60.4829 61.6338 64.1296 64.9353 66.194 66.5039
          52.6356 55.334 56.557 58.7328 60.2743 61.4235 63.9337 64.7596 66.0376 66.3402 52.6467 55.3561
          56.5671 58.7306 60.2391 61.3853 63.9376 64.7783 66.0724 66.3582 92.693 95.2663 95.9868 97.4756
          98.2161 99.3829 100.114 101.057 101.832 102.743 93.0879 96.1121 96.6763 98.0323 98.6744 99.7199
          100.429 101.283 101.998 102.792 91.0894 92.057 92.1329 92.5098 92.6451 92.9497 93.1249 93.3542
          93.55 93.7583 44.5127 43.9369 43.7801 43.533 43.3784 43.2075 43.0755 42.9216 42.7981 42.6579
        </DataArray>
        <DataArray type="Float32" Name="y^+" NumberOfComponents="1" format="ascii">
          24.5297 23.575 23.1987 22.5545 22.1048 21.7879 20.9096 20.7112 20.4018 20.4475 76.3145 73.3445
          72.1737 70.1697 68.7706 67.7846 65.0522 64.4348 63.4724 63.6145 133.853 128.644 126.59 123.075
          120.621 118.892 114.099 113.017 111.328 111.578 197.785 190.088 187.053 181.859 178.234 175.678
          168.596 166.996 164.502 164.87 268.821 258.359 254.234 247.175 242.247 238.774 229.149 226.974
          223.584 224.084 347.749 334.215 328.88 319.748 313.373 308.88 296.429 293.616 289.23 289.878
          435.447 418.5 411.82 400.385 392.402 386.776 371.185 367.662 362.17 362.981 532.89 512.15
          503.975 489.981 480.212 473.326 454.246 449.936 443.215 444.208 273.761 270.041 269.314 267.54
          266.862 265.531 264.735 263.768 263.024 262.146 205.243 202.454 201.909 200.579 200.07 199.072
          198.476 197.751 197.193 196.535 129.112 127.357 127.014 126.178 125.858 125.23 124.855 124.399
          124.048 123.634 44.5213 43.9162 43.798 43.5096 43.3992 43.1827 43.0533 42.8961 42.7751 42.6323
        </DataArray>
        <DataArray type="Float32" Name="D_t" NumberOfComponents="1" format="ascii">
          0.000162318 0.000149771 0.000144752 0.00013688 0.000131142 0.000124724 0.000126567 0.000123291 0.000120928 0.000110556 0.000939838 0.000913737
          0.000897967 0.000873378 0.000854919 0.000837303 0.000820499 0.000807292 0.000792127 0.000770821 0.00171237 0.00174225 0.00174091 0.00174075
          0.00173838 0.00173362 0.00171952 0.00170849 0.00169325 0.00168526 0.00252994 0.00257682 0.00258827 0.00261005 0.0026249 0.00263751
          0.00263615 0.00263979 0.00263922 0.00265136 0.00342563 0.0034755 0.00349479 0.00352901 0.00355285 0.00357665 0.00358358 0.00359899
          0.0036108 0.00363378 0.00441796 0.00446734 0.00449271 0.00453599 0.00456386 0.00459527 0.00460909 0.0046322 0.00465128 0.00468354
          0.00552555 0.00557989 0.00561083 0.00566286 0.0056954 0.00573476 0.00575424 0.0057851 0.00581094 0.00585067 0.00676337 0.00683108
          0.00686747 0.00692967 0.00696576 0.00701367 0.00704217 0.00708153 0.00711484 0.00716163 0.00611978 0.00620229 0.00623177 0.00628594
          0.00631718 0.00635959 0.00638661 0.00642262 0.0064534 0.0064929 0.00460783 0.00469161 0.00470603 0.00474011 0.00475874 0.0047847
          0.00480397 0.00482683 0.00484704 0.00487123 0.00283887 0.0028319 0.00282672 0.00282031 0.00281751 0.00281315 0.00281022 0.00280729
          0.00280556 0.00280455 0.000537664 0.000523393 0.000520051 0.000513674 0.000510492 0.000505912 0.000502793 0.000499149 0.000496267 0.00049328
        </DataArray>
      </CellData>
      <Points>
        <DataArray type="Float32" Name="Coordinates" NumberOfComponents="3" format="ascii">
          0 0.25 0 0.05 0.25 0 0 0.260933 0 0.05 0.260933 0
          0.1 0.25 0 0.1 0.260933 0 0.15 0.25 0 0.15 0.260933 0
          0.2 0.25 0 0.2 0.260933 0 0.25 0.25 0 0.25 0.260933 0
          0.3 0.25 0 0.3 0.260933 0 0.35 0.25 0 0.35 0.260933 0
          0.4 0.25 0 0.4 0.260933 0 0.45 0.25 0 0.45 0.260933 0
          0.5 0.25 0 0.5 0.260933 0 0 0.273081 0 0.05 0.273081 0
          0.1 0.273081 0 0.15 0.273081 0 0.2 0.273081 0 0.25 0.273081 0
          0.3 0.273081 0 0.35 0.273081 0 0.4 0.273081 0 0.45 0.273081 0
          0.5 0.273081 0 0 0.286579 0 0.05 0.286579 0 0.1 0.286579 0
          0.15 0.286579 0 0.2 0.286579 0 0.25 0.286579 0 0.3 0.286579 0
          0.35 0.286579 0 0.4 0.286579 0 0.45 0.286579 0 0.5 0.286579 0
          0 0.301576 0 0.05 0.301576 0 0.1 0.301576 0 0.15 0.301576 0
          0.2 0.301576 0 0.25 0.301576 0 0.3 0.301576 0 0.35 0.301576 0
          0.4 0.301576 0 0.45 0.301576 0 0.5 0.301576 0 0 0.31824 0
          0.05 0.31824 0 0.1 0.31824 0 0.15 0.31824 0 0.2 0.31824 0
          0.25 0.31824 0 0.3 0.31824 0 0.35 0.31824 0 0.4 0.31824 0
          0.45 0.31824 0 0.5 0.31824 0 0 0.336755 0 0.05 0.336755 0
          0.1 0.336755 0 0.15 0.336755 0 0.2 0.336755 0 0.25 0.336755 0
          0.3 0.336755 0 0.35 0.336755 0 0.4 0.336755 0 0.45 0.336755 0
          0.5 0.336755 0 0 0.357328 0 0.05 0.357328 0 0.1 0.357328 0
          0.15 0.357328 0 0.2 0.357328 0 0.25 0.357328 0 0.3 0.357328 0
          0.35 0.357328 0 0.4 0.357328 0 0.45 0.357328 0 0.5 0.357328 0
          0 0.380186 0 0.05 0.380186 0 0.1 0.380186 0 0.15 0.380186 0
          0.2 0.380186 0 0.25 0.380186 0 0.3 0.380186 0 0.35 0.380186 0
          0.4 0.380186 0 0.45 0.380186 0 0.5 0.380186 0 0 0.405584 0
          0.05 0.405584 0 0.1 0.405584 0 0.15 0.405584 0 0.2 0.405584 0
          0.25 0.405584 0 0.3 0.405584 0 0.35 0.405584 0 0.4 0.405584 0
          0.45 0.405584 0 0.5 0.405584 0 0 0.433804 0 0.05 0.433804 0
          0.1 0.433804 0 0.15 0.433804 0 0.2 0.433804 0 0.25 0.433804 0
          0.3 0.433804 0 0.35 0.433804 0 0.4 0.433804 0 0.45 0.433804 0
          0.5 0.433804 0 0 0.46516 0 0.05 0.46516 0 0.1 0.46516 0
          0.15 0.46516 0 0.2 0.46516 0 0.25 0.46516 0 0.3 0.46516 0
          0.35 0.46516 0 0.4 0.46516 0 0.45 0.46516 0 0.5 0.46516 0
          0 0.5 0 0.05 0.5 0 0.1 0.5 0 0.15 0.5 0
          0.2 0.5 0 0.25 0.5 0 0.3 0.5 0 0.35 0.5 0
          0.4 0.5 0 0.45 0.5 0 0.5 0.5 0
        </DataArray>
      </Points>
      <Cells>
        <DataArray type="Int32" Name="connectivity" NumberOfComponents="1" format="ascii">
          0 1 3 2 1 4 5 3 4 6 7 5
          6 8 9 7 8 10 11 9 10 12 13 11
          12 14 15 13 14 16 17 15 16 18 19 17
          18 20 21 19 2 3 23 22 3 5 24 23
          5 7 25 24 7 9 26 25 9 11 27 26
          11 13 28 27 13 15 29 28 15 17 30 29
          17 19 31 30 19 21 32 31 22 23 34 33
          23 24 35 34 24 25 36 35 25 26 37 36
          26 27 38 37 27 28 39 38 28 29 40 39
          29 30 41 40 30 31 42 41 31 32 43 42
          33 34 45 44 34 35 46 45 35 36 47 46
          36 37 48 47 37 38 49 48 38 39 50 49
          39 40 51 50 40 41 52 51 41 42 53 52
          42 43 54 53 44 45 56 55 45 46 57 56
          46 47 58 57 47 48 59 58 48 49 60 59
          49 50 61 60 50 51 62 61 51 52 63 62
          52 53 64 63 53 54 65 64 55 56 67 66
          56 57 68 67 57 58 69 68 58 59 70 69
          59 60 71 70 60 61 72 71 61 62 73 72
          62 63 74 73 63 64 75 74 64 65 76 75
          66 67 78 77 67 68 79 78 68 69 80 79
          69 70 81 80 70 71 82 81 71 72 83 82
          72 73 84 83 73 74 85 84 74 75 86 85
          75 76 87 86 77 78 89 88 78 79 90 89
          79 80 91 90 80 81 92 91 81 82 93 92
          82 83 94 93 83 84 95 94 84 85 96 95
          85 86 97 96 86 87 98 97 88 89 100 99