<?xml version="1.0"?>
<VTKFile type="UnstructuredGrid" version="0.1" byte_order="LittleEndian">
  <UnstructuredGrid>
    <Piece NumberOfCells="55" NumberOfPoints="72">
      <PointData Scalars="Sn" Vectors="velocityW">
        <DataArray type="Float32" Name="Sn" NumberOfComponents="1" format="ascii">
          0.0140853 0.0140839 0.0243754 0.0243607 0.0140812 0.024332 0.0140789 0.024308 0.0140775 0.0242924 0.014077 0.0242871
          0.115755 0.115683 0.115543 0.115426 0.115349 0.115323 0.34387 0.343736 0.343462 0.343232 0.343084 0.343031
          0.598441 0.598316 0.598049 0.597839 0.597697 0.597641 0.768045 0.767974 0.767786 0.767656 0.767543 0.76748
          0.861092 0.861128 0.861028 0.860967 0.860838 0.860708 0.911419 0.91173 0.911748 0.911738 0.911514 0.911146
          0.940176 0.941222 0.941415 0.941453 0.941026 0.93998 0.957922 0.960868 0.961251 0.961356 0.96063 0.957807
          0.969141 0.97723 0.977527 0.977785 0.976824 0.969236 0.965501 1 1 1 1 0.965964
        </DataArray>
        <DataArray type="Float32" Name="Sw" NumberOfComponents="1" format="ascii">
          0.985915 0.985916 0.975625 0.975639 0.985919 0.975668 0.985921 0.975692 0.985923 0.975708 0.985923 0.975713
          0.884245 0.884317 0.884457 0.884574 0.884651 0.884677 0.65613 0.656264 0.656538 0.656768 0.656916 0.656969
          0.401559 0.401684 0.401951 0.402161 0.402303 0.402359 0.231955 0.232026 0.232214 0.232344 0.232457 0.23252
          0.138908 0.138872 0.138972 0.139033 0.139162 0.139292 0.088581 0.0882699 0.0882516 0.0882616 0.0884865 0.0888542
          0.0598236 0.0587778 0.0585848 0.0585468 0.0589737 0.0600202 0.0420784 0.0391316 0.0387488 0.038644 0.0393696 0.0421927
          0.0308594 0.0227695 0.0224725 0.0222153 0.0231765 0.0307642 0.0344987 0 0 0 0 0.0340357
        </DataArray>
        <DataArray type="Float32" Name="pn" NumberOfComponents="1" format="ascii">
          100003 100003 100003 100002 100003 100002 100002 100002 100002 100002 100002 100002
          100002 100002 100002 100002 100002 100001 100002 100002 100002 100001 100001 100001
          100002 100002 100001 100001 100001 100001 100001 100001 100001 100001 100001 100000
          100001 100001 100001 100000 100000 100000 100001 100001 100000 100000 100000 99999.9
          100001 100001 99999.7 100000 99999.7 99999.7 100001 100001 99999 100000 99999.3 99999.6
          100001 100002 99997.7 100001 99998.7 99999.6 100001 100003 99995.6 100002 99997.6 100000
        </DataArray>
        <DataArray type="Float32" Name="pw" NumberOfComponents="1" format="ascii">
          99472.7 99472.7 99130.5 99130.5 99472.7 99130.5 99472.7 99130.5 99472.7 99130.5 99472.7 99130.5
          98819.3 98819.3 98819.3 98819.3 98819.3 98819.3 98536.5 98536.5 98536.5 98536.5 98536.5 98536.5
          98279.3 98279.3 98279.3 98279.3 98279.3 98279.3 98045.4 98045.4 98045.3 98045.3 98045.4 98045.4
          97832.4 97832 97831.8 97831.8 97832 97832.4 97636.7 97634.8 97634 97634 97634.9 97636.7
          97453.2 97444.2 97441.3 97441.3 97444.5 97453.1 97273.5 97233.9 97226.3 97226 97235.3 97273.1
          97098.4 96906 96893 96888.1 96914.9 97094.9 97163 95700.5 95693.1 95699.4 95695.1 97154.4
        </DataArray>
        <DataArray type="Float32" Name="pc" NumberOfComponents="1" format="ascii">
          530.282 530.154 872.149 872.018 529.901 871.761 529.685 871.546 529.546 871.406 529.499 871.358
          1182.93 1182.8 1182.54 1182.33 1182.19 1182.14 1465.47 1465.34 1465.07 1464.84 1464.69 1464.64
          1722.37 1722.23 1721.93 1721.69 1721.53 1721.47 1956.04 1955.91 1955.58 1955.35 1955.15 1955.04
          2169.01 2169.12 2168.81 2168.63 2168.24 2167.84 2364.59 2366.17 2366.27 2366.21 2365.07 2363.2
          2548.18 2556.8 2558.41 2558.73 2555.17 2546.58 2727.9 2767.27 2772.67 2774.16 2763.95 2726.44
          2902.88 3095.76 3104.7 3112.58 3083.79 2904.72 2837.83 4302.49 4302.49 4302.49 4302.49 2845.58
        </DataArray>
        <DataArray type="Float32" Name="rhoW" NumberOfComponents="1" format="ascii">
          997.047 997.047 997.047 997.047 997.047 997.047 997.047 997.047 997.047 997.047 997.047 997.047
          997.047 997.047 997.047 997.047 997.047 997.047 997.047 997.047 997.047 997.047 997.047 997.047
          997.047 997.047 997.047 997.047 997.047 997.047 997.047 997.047 997.047 997.047 997.047 997.047
          997.047 997.047 997.047 997.047 997.047 997.047 997.047 997.047 997.047 997.047 997.047 997.047
          997.047 997.047 997.047 997.047 997.047 997.047 997.046 997.046 997.046 997.046 997.046 997.046
          997.046 997.046 997.046 997.046 997.046 997.046 997.046 997.046 997.046 997.046 997.046 997.046
        </DataArray>
        <DataArray type="Float32" Name="rhoN" NumberOfComponents="1" format="ascii">
          1.15427 1.15427 1.15427 1.15427 1.15427 1.15426 1.15427 1.15426 1.15426 1.15426 1.15426 1.15426
          1.15426 1.15426 1.15426 1.15426 1.15426 1.15425 1.15426 1.15426 1.15426 1.15425 1.15425 1.15425
          1.15426 1.15426 1.15425 1.15425 1.15425 1.15425 1.15425 1.15425 1.15425 1.15425 1.15424 1.15424
          1.15425 1.15425 1.15424 1.15424 1.15424 1.15424 1.15425 1.15425 1.15424 1.15424 1.15424 1.15424
          1.15425 1.15425 1.15423 1.15424 1.15423 1.15423 1.15425 1.15425 1.15423 1.15424 1.15423 1.15423
          1.15425 1.15426 1.15421 1.15424 1.15422 1.15423 1.15425 1.16429 1.16322 1.16249 1.16157 1.15424
        </DataArray>
        <DataArray type="Float32" Name="mobW" NumberOfComponents="1" format="ascii">
          1122.18 1122.18 1107.45 1107.48 1122.19 1107.54 1122.19 1107.59 1122.19 1107.63 1122.19 1107.64
          734.377 734.578 734.969 735.298 735.513 735.587 285.574 285.753 286.118 286.423 286.622 286.692
          65.7264 65.7869 65.9163 66.0183 66.0869 66.114 13.0872 13.0989 13.1302 13.1517 13.1705 13.1811
          2.88784 2.88562 2.89178 2.89557 2.90355 2.91159 0.752847 0.744891 0.744426 0.744681 0.750423 0.759879
          0.226654 0.214569 0.212385 0.211958 0.216799 0.228973 0.074536 0.0589032 0.0570449 0.0565427 0.0600782 0.0751911
          0.0267663 0.0092188 0.0087878 0.00842538 0.00983122 0.0264872 0.0389117 0 0 0 0 0.0372013
        </DataArray>
        <DataArray type="Float32" Name="mobN" NumberOfComponents="1" format="ascii">
          0.970566 0.969906 12.6741 12.6477 0.968603 12.5962 0.967496 12.5531 0.966782 12.5253 0.966536 12.5157
          737.705 736.691 734.716 733.06 731.98 731.604 7430.79 7424.87 7412.82 7402.72 7396.18 7393.86
          22392.5 22383.5 22364.2 22349 22338.8 22334.8 35810.4 35804.4 35788.4 35777.5 35767.9 35762.5
          43865.9 43869 43860.3 43854.9 43843.6 43832.2 48404 48436.1 48437.9 48436.9 48413.7 48375.9
          51436.7 51542.9 51562.4 51566.2 51523 51416.6 53099.9 53338.8 53368.9 53377.1 53320 53090.4
          53933.3 54387.3 54401.3 54413.2 54367.8 53939.4 53686.5 54828.6 54828.6 54828.6 54828.6 53719.3
        </DataArray>
        <DataArray type="Float32" Name="X_liquid^H2O" NumberOfComponents="1" format="ascii">
          0.999978 0.999978 0.999978 0.999978 0.999978 0.999978 0.999978 0.999978 0.999978 0.999978 0.999978 0.999978
          0.999978 0.999978 0.999978 0.999978 0.999978 0.999978 0.999978 0.999978 0.999978 0.999978 0.999978 0.999978
          0.999978 0.999978 0.999978 0.999978 0.999978 0.999978 0.999978 0.999978 0.999978 0.999978 0.999978 0.999978
          0.999978 0.999978 0.999978 0.999978 0.999978 0.999978 0.999978 0.999978 0.999978 0.999978 0.999978 0.999978
          0.999978 0.999978 0.999978 0.999978 0.999978 0.999978 0.999978 0.999978 0.999978 0.999978 0.999978 0.999978
          0.999978 0.999978 0.999978 0.999978 0.999978 0.999978 0.999978 0.283916 0.354401 0.411513 0.47416 0.999978
        </DataArray>
        <DataArray type="Float32" Name="X_liquid^Air" NumberOfComponents="1" format="ascii">
          2.15475e-05 2.15475e-05 2.15474e-05 2.15474e-05 2.15474e-05 2.15473e-05 2.15474e-05 2.15473e-05 2.15474e-05 2.15473e-05 2.15473e-05 2.15473e-05
          2.15474e-05 2.15473e-05 2.15473e-05 2.15472e-05 2.15472e-05 2.15472e-05 2.15473e-05 2.15473e-05 2.15472e-05 2.15471e-05 2.15471e-05 2.15471e-05
          2.15472e-05 2.15472e-05 2.15471e-05 2.15471e-05 2.1547e-05 2.1547e-05 2.15472e-05 2.15471e-05 2.15471e-05 2.1547e-05 2.1547e-05 2.1547e-05
          2.15472e-05 2.15471e-05 2.1547e-05 2.15469e-05 2.15469e-05 2.15469e-05 2.15471e-05 2.15471e-05 2.15469e-05 2.15469e-05 2.15468e-05 2.15468e-05
          2.15471e-05 2.15471e-05 2.15468e-05 2.15469e-05 2.15468e-05 2.15468e-05 2.15472e-05 2.15471e-05 2.15466e-05 2.15469e-05 2.15467e-05 2.15468e-05
          2.15471e-05 2.15472e-05 2.15463e-05 2.1547e-05 2.15466e-05 2.15468e-05 2.1547e-05 2.20521e-05 2.20009e-05 2.19621e-05 2.1917e-05 2.15469e-05
        </DataArray>
        <DataArray type="Float32" Name="X_gas^H2O" NumberOfComponents="1" format="ascii">
          0.0199563 0.0199563 0.0199564 0.0199564 0.0199564 0.0199564 0.0199564 0.0199565 0.0199564 0.0199565 0.0199564 0.0199565
          0.0199564 0.0199565 0.0199565 0.0199565 0.0199566 0.0199566 0.0199565 0.0199565 0.0199566 0.0199566 0.0199566 0.0199567
          0.0199565 0.0199566 0.0199566 0.0199567 0.0199567 0.0199567 0.0199566 0.0199566 0.0199567 0.0199567 0.0199568 0.0199568
          0.0199566 0.0199567 0.0199568 0.0199568 0.0199568 0.0199568 0.0199566 0.0199567 0.0199568 0.0199568 0.0199569 0.0199569
          0.0199566 0.0199567 0.0199569 0.0199569 0.019957 0.0199569 0.0199566 0.0199566 0.0199571 0.0199569 0.019957 0.019957
          0.0199566 0.0199565 0.0199574 0.0199568 0.0199572 0.019957 0.0199567 0.00561738 0.00701838 0.00815446 0.00940333 0.0199569
        </DataArray>
        <DataArray type="Float32" Name="X_gas^Air" NumberOfComponents="1" format="ascii">
          0.980044 0.980044 0.980044 0.980044 0.980044 0.980044 0.980044 0.980044 0.980044 0.980043 0.980044 0.980043
          0.980044 0.980044 0.980043 0.980043 0.980043 0.980043 0.980044 0.980043 0.980043 0.980043 0.980043 0.980043
          0.980043 0.980043 0.980043 0.980043 0.980043 0.980043 0.980043 0.980043 0.980043 0.980043 0.980043 0.980043
          0.980043 0.980043 0.980043 0.980043 0.980043 0.980043 0.980043 0.980043 0.980043 0.980043 0.980043 0.980043
          0.980043 0.980043 0.980043 0.980043 0.980043 0.980043 0.980043 0.980043 0.980043 0.980043 0.980043 0.980043
          0.980043 0.980043 0.980043 0.980043 0.980043 0.980043 0.980043 0.994383 0.992982 0.991846 0.990597 0.980043
        </DataArray>
        <DataArray type="Float32" Name="x_liquid^H2O" NumberOfComponents="1" format="ascii">
          0.999987 0.999987 0.999987 0.999987 0.999987 0.999987 0.999987 0.999987 0.999987 0.999987 0.999987 0.999987
          0.999987 0.999987 0.999987 0.999987 0.999987 0.999987 0.999987 0.999987 0.999987 0.999987 0.999987 0.999987
          0.999987 0.999987 0.999987 0.999987 0.999987 0.999987 0.999987 0.999987 0.999987 0.999987 0.999987 0.999987
          0.999987 0.999987 0.999987 0.999987 0.999987 0.999987 0.999987 0.999987 0.999987 0.999987 0.999987 0.999987
          0.999987 0.999987 0.999987 0.999987 0.999987 0.999987 0.999987 0.999987 0.999987 0.999987 0.999987 0.999987
          0.999987 0.999987 0.999987 0.999987 0.999987 0.999987 0.999987 0.283924 0.354409 0.411521 0.474168 0.999987
        </DataArray>
        <DataArray type="Float32" Name="x_liquid^Air" NumberOfComponents="1" format="ascii">
          1.34042e-05 1.34042e-05 1.34041e-05 1.34041e-05 1.34041e-05 1.34041e-05 1.34041e-05 1.34041e-05 1.34041e-05 1.3404e-05 1.34041e-05 1.3404e-05
          1.34041e-05 1.34041e-05 1.3404e-05 1.3404e-05 1.3404e-05 1.3404e-05 1.34041e-05 1.3404e-05 1.3404e-05 1.3404e-05 1.34039e-05 1.34039e-05
          1.3404e-05 1.3404e-05 1.3404e-05 1.34039e-05 1.34039e-05 1.34039e-05 1.3404e-05 1.3404e-05 1.34039e-05 1.34039e-05 1.34039e-05 1.34038e-05
          1.3404e-05 1.34039e-05 1.34039e-05 1.34038e-05 1.34038e-05 1.34038e-05 1.3404e-05 1.34039e-05 1.34038e-05 1.34038e-05 1.34038e-05 1.34038e-05
          1.3404e-05 1.34039e-05 1.34037e-05 1.34038e-05 1.34037e-05 1.34037e-05 1.3404e-05 1.3404e-05 1.34036e-05 1.34038e-05 1.34037e-05 1.34037e-05
          1.3404e-05 1.3404e-05 1.34035e-05 1.34039e-05 1.34036e-05 1.34037e-05 1.34039e-05 1.37184e-05 1.36864e-05 1.36622e-05 1.36342e-05 1.34038e-05
        </DataArray>
        <DataArray type="Float32" Name="x_gas^H2O" NumberOfComponents="1" format="ascii">
          0.0316961 0.0316961 0.0316962 0.0316963 0.0316962 0.0316963 0.0316963 0.0316964 0.0316963 0.0316964 0.0316963 0.0316965
          0.0316963 0.0316964 0.0316964 0.0316965 0.0316966 0.0316966 0.0316964 0.0316965 0.0316966 0.0316966 0.0316967 0.0316967
          0.0316965 0.0316966 0.0316967 0.0316967 0.0316968 0.0316968 0.0316966 0.0316966 0.0316968 0.0316968 0.0316969 0.0316969
          0.0316966 0.0316967 0.0316969 0.0316969 0.031697 0.031697 0.0316966 0.0316967 0.031697 0.031697 0.0316971 0.0316971
          0.0316966 0.0316967 0.0316971 0.031697 0.0316972 0.0316971 0.0316966 0.0316967 0.0316974 0.031697 0.0316973 0.0316972
          0.0316966 0.0316965 0.0316978 0.0316968 0.0316975 0.0316972 0.0316968 0.00899941 0.0112344 0.0130439 0.0150303 0.031697
        </DataArray>
        <DataArray type="Float32" Name="x_gas^Air" NumberOfComponents="1" format="ascii">
          0.968304 0.968304 0.968304 0.968304 0.968304 0.968304 0.968304 0.968304 0.968304 0.968304 0.968304 0.968304
          0.968304 0.968304 0.968304 0.968304 0.968303 0.968303 0.968304 0.968304 0.968303 0.968303 0.968303 0.968303
          0.968304 0.968303 0.968303 0.968303 0.968303 0.968303 0.968303 0.968303 0.968303 0.968303 0.968303 0.968303
          0.968303 0.968303 0.968303 0.968303 0.968303 0.968303 0.968303 0.968303 0.968303 0.968303 0.968303 0.968303
          0.968303 0.968303 0.968303 0.968303 0.968303 0.968303 0.968303 0.968303 0.968303 0.968303 0.968303 0.968303
          0.968303 0.968304 0.968302 0.968303 0.968303 0.968303 0.968303 0.991001 0.988766 0.986956 0.98497 0.968303
        </DataArray>
        <DataArray type="Float32" Name="porosity" NumberOfComponents="1" format="ascii">
          0.41 0.41 0.41 0.41 0.41 0.41 0.41 0.41 0.41 0.41 0.41 0.41
          0.41 0.41 0.41 0.41 0.41 0.41 0.41 0.41 0.41 0.41 0.41 0.41
          0.41 0.41 0.41 0.41 0.41 0.41 0.41 0.41 0.41 0.41 0.41 0.41
          0.41 0.41 0.41 0.41 0.41 0.41 0.41 0.41 0.41 0.41 0.41 0.41
          0.41 0.41 0.41 0.41 0.41 0.41 0.41 0.41 0.41 0.41 0.41 0.41
          0.41 0.41 0.41 0.41 0.41 0.41 0.41 0.41 0.41 0.41 0.41 0.41
        </DataArray>
        <DataArray type="Float32" Name="temperature" NumberOfComponents="1" format="ascii">
          298.15 298.15 298.15 298.15 298.15 298.15 298.15 298.15 298.15 298.15 298.15 298.15
          298.15 298.15 298.15 298.15 298.15 298.15 298.15 298.15 298.15 298.15 298.15 298.15
          298.15 298.15 298.15 298.15 298.15 298.15 298.15 298.15 298.15 298.15 298.15 298.15
          298.15 298.15 298.15 298.15 298.15 298.15 298.15 298.15 298.15 298.15 298.15 298.15
          298.15 298.15 298.15 298.15 298.15 298.15 298.15 298.15 298.15 298.15 298.15 298.15
          298.15 298.15 298.15 298.15 298.15 298.15 298.15 298.15 298.15 298.15 298.15 298.15
        </DataArray>
        <DataArray type="Float32" Name="phase presence" NumberOfComponents="1" format="ascii">
          3 3 3 3 3 3 3 3 3 3 3 3
          3 3 3 3 3 3 3 3 3 3 3 3
          3 3 3 3 3 3 3 3 3 3 3 3
          3 3 3 3 3 3 3 3 3 3 3 3
          3 3 3 3 3 3 3 3 3 3 3 3
          3 3 3 3 3 3 3 2 2 2 2 3
        </DataArray>
        <DataArray type="Float32" Name="velocityW" NumberOfComponents="3" format="ascii">
          3.10381e-09 -1.86032e-09 0 4.06777e-09 -3.62789e-10 0 4.52264e-09 -1.74433e-09 0 5.8113e-09 1.88955e-09 0
          2.46815e-09 2.10586e-09 0 3.49318e-09 7.60247e-09 0 -2.62968e-09 2.08528e-09 0 -3.6771e-09 7.54959e-09 0
          -4.15043e-09 -3.97595e-10 0 -5.8919e-09 1.8046e-09 0 -3.13693e-09 -1.88365e-09 0 -4.54319e-09 -1.79452e-09 0
          6.94243e-09 8.05697e-09 0 8.27558e-09 1.71883e-08 0 4.73953e-09 2.98709e-08 0 -4.93102e-09 2.97373e-08 0
          -8.33281e-09 1.69921e-08 0 -6.93327e-09 7.95837e-09 0 7.32583e-09 3.7112e-08 0 8.08261e-09 5.31766e-08 0
          4.35641e-09 7.24513e-08 0 -4.53139e-09 7.2228e-08 0 -8.10286e-09 5.28827e-08 0 -7.26953e-09 3.70301e-08 0
          6.33295e-09 7.22187e-08 0 6.19503e-09 9.50427e-08 0 2.97302e-09 1.18659e-07 0 -3.12602e-09 1.1837e-07 0
          -6.19717e-09 9.47028e-08 0 -6.25338e-09 7.22544e-08 0 6.43265e-09 9.59252e-08 0 5.56601e-09 1.25196e-07 0
          2.29565e-09 1.50992e-07 0 -2.45353e-09 1.50661e-07 0 -5.56479e-09 1.24827e-07 0 -6.3306e-09 9.61195e-08 0
          7.78875e-09 1.06514e-07 0 6.05569e-09 1.42907e-07 0 2.1079e-09 1.69619e-07 0 -2.28851e-09 1.69259e-07 0
          -6.05839e-09 1.42476e-07 0 -7.64658e-09 1.06866e-07 0 1.02872e-08 1.08487e-07 0 7.22141e-09 1.53668e-07 0
          2.03625e-09 1.80249e-07 0 -2.24648e-09 1.79897e-07 0 -7.23882e-09 1.53115e-07 0 -1.00678e-08 1.0901e-07 0
          1.42747e-08 1.04834e-07 0 8.98346e-09 1.61494e-07 0 1.84977e-09 1.86577e-07 0 -2.08683e-09 1.86327e-07 0
          -9.03024e-09 1.60718e-07 0 -1.38795e-08 1.0559e-07 0 2.16512e-08 9.62593e-08 0 1.20328e-08 1.68955e-07 0
          1.33199e-09 1.90267e-07 0 -1.58444e-09 1.90333e-07 0 -1.20573e-08 1.67734e-07 0 -2.06963e-08 9.74483e-08 0
          4.71047e-08 7.71452e-08 0 2.38369e-08 1.692e-07 0 3.53107e-10 1.87898e-07 0 -4.71711e-10 1.83816e-07 0
          -2.31524e-08 1.74893e-07 0 -4.52241e-08 7.94672e-08 0 2.36137e-07 6.35992e-08 0 1.18069e-07 1.65533e-07 0
          0 1.84231e-07 0 0 1.75768e-07 0 -1.12336e-07 1.7844e-07 0 -2.24672e-07 6.67604e-08 0
        </DataArray>
        <DataArray type="Float32" Name="velocityN" NumberOfComponents="3" format="ascii">
          6.65527e-10 -7.77578e-10 0 9.87679e-10 -5.3726e-10 0 8.84014e-09 -9.79259e-09 0 1.30401e-08 -6.45179e-09 0
          1.20768e-09 -2.40279e-10 0 1.5815e-08 -2.39377e-09 0 9.07379e-10 -1.73045e-10 0 1.18024e-08 -1.54563e-09 0
          4.7598e-10 -1.48442e-10 0 6.18097e-09 -1.22053e-09 0 2.42732e-10 -1.41791e-10 0 3.14712e-09 -1.13734e-09 0
          5.22306e-07 -3.49776e-07 0 7.70695e-07 -1.76963e-07 0 9.32476e-07 3.41563e-08 0 6.93205e-07 7.58981e-08 0
          3.62552e-07 9.19486e-08 0 1.84562e-07 9.61057e-08 0 5.47481e-06 -3.72401e-06 0 8.23758e-06 -1.88796e-06 0
          9.97164e-06 6.15181e-07 0 7.26592e-06 1.0563e-06 0 3.74706e-06 1.17943e-06 0 1.90519e-06 1.2225e-06 0
          1.85232e-05 -1.60647e-05 0 2.81583e-05 -8.27875e-06 0 3.27752e-05 3.63809e-06 0 2.24806e-05 4.58818e-06 0
          1.15512e-05 4.99031e-06 0 5.89821e-06 5.19116e-06 0 3.62742e-05 -4.18775e-05 0 5.55921e-05 -2.19169e-05 0
          5.87063e-05 1.34327e-05 0 3.55434e-05 1.04024e-05 0 1.90989e-05 1.21194e-05 0 9.61364e-06 1.25074e-05 0
          5.68274e-05 -8.19032e-05 0 9.12839e-05 -4.49265e-05 0 8.24469e-05 3.85259e-05 0 3.95387e-05 1.35007e-05 0
          2.54479e-05 2.24009e-05 0 1.0972e-05 2.14403e-05 0 7.6703e-05 -0.000134297 0 0.000143492 -8.41305e-05 0
          0.000105261 9.55282e-05 0 3.14239e-05 1.8791e-06 0 3.42354e-05 3.8966e-05 0 5.86438e-06 2.82625e-05 0
          8.05915e-05 -0.000190896 0 0.000224798 -0.000158102 0 0.000128241 0.000216531 0 5.34087e-06 -4.95329e-05 0
          5.20097e-05 7.3689e-05 0 -1.91851e-05 2.41316e-05 0 2.52377e-05 -0.000226901 0 0.000346918 -0.000306389 0
          0.000147862 0.000459181 0 -4.94446e-05 -0.000189107 0 8.81045e-05 0.000155098 0 -9.77756e-05 -1.22691e-05 0
          -0.000177105 -0.000185125 0 0.000526485 -0.000590764 0 0.000160483 0.000924177 0 -0.000147491 -0.000492576 0
          0.00015734 0.000343024 0 -0.000299449 -0.000125361 0 -0.00049421 -0.000135058 0 0.000707074 -0.000775835 0
          0.000162631 0.0012283 0 -0.000257662 -0.000696346 0 0.000241856 0.000473668 0 -0.000584061 -0.000208449 0
        </DataArray>
      </PointData>
      <CellData Scalars="process rank">
        <DataArray type="Float32" Name="process rank" NumberOfComponents="1" format="ascii">
          0 0 0 0 0 0 0 0 0 0 0 0
          0 0 0 0 0 0 0 0 0 0 0 0
          0 0 0 0 0 0 0 0 0 0 0 0
          0 0 0 0 0 0 0 0 0 0 0 0
          0 0 0 0 0 0 0
        </DataArray>
      </CellData>
      <Points>
        <DataArray type="Float32" Name="Coordinates" NumberOfComponents="3" format="ascii">
          0.25 0 0 0.3 0 0 0.25 0.0349916 0 0.3 0.0349916 0
          0.35 0 0 0.35 0.0349916 0 0.4 0 0 0.4 0.0349916 0
          0.45 0 0 0.45 0.0349916 0 0.5 0 0 0.5 0.0349916 0
          0.25 0.0668022 0 0.3 0.0668022 0 0.35 0.0668022 0 0.4 0.0668022 0
          0.45 0.0668022 0 0.5 0.0668022 0 0.25 0.0957209 0 0.3 0.0957209 0
          0.35 0.0957209 0 0.4 0.0957209 0 0.45 0.0957209 0 0.5 0.0957209 0
          0.25 0.122011 0 0.3 0.122011 0 0.35 0.122011 0 0.4 0.122011 0
          0.45 0.122011 0 0.5 0.122011 0 0.25 0.14591 0 0.3 0.14591 0
          0.35 0.14591 0 0.4 0.14591 0 0.45 0.14591 0 0.5 0.14591 0
          0.25 0.167637 0 0.3 0.167637 0 0.35 0.167637 0 0.4 0.167637 0
          0.45 0.167637 0 0.5 0.167637 0 0.25 0.187389 0 0.3 0.187389 0
          0.35 0.187389 0 0.4 0.187389 0 0.45 0.187389 0 0.5 0.187389 0
          0.25 0.205345 0 0.3 0.205345 0 0.35 0.205345 0 0.4 0.205345 0
          0.45 0.205345 0 0.5 0.205345 0 0.25 0.221669 0 0.3 0.221669 0
          0.35 0.221669 0 0.4 0.221669 0 0.45 0.221669 0 0.5 0.221669 0
          0.25 0.236509 0 0.3 0.236509 0 0.35 0.236509 0 0.4 0.236509 0
          0.45 0.236509 0 0.5 0.236509 0 0.25 0.25 0 0.3 0.25 0
          0.35 0.25 0 0.4 0.25 0 0.45 0.25 0 0.5 0.25 0
        </DataArray>
      </Points>
      <Cells>
        <DataArray type="Int32" Name="connectivity" NumberOfComponents="1" format="ascii">
          0 1 3 2 1 4 5 3 4 6 7 5
          6 8 9 7 8 10 11 9 2 3 13 12
          3 5 14 13 5 7 15 14 7 9 16 15
          9 11 17 16 12 13 19 18 13 14 20 19
          14 15 21 20 15 16 22 21 16 17 23 22
          18 19 25 24 19 20 26 25 20 21 27 26
          21 22 28 27 22 23 29 28 24 25 31 30
          25 26 32 31 26 27 33 32 27 28 34 33
          28 29 35 34 30 31 37 36 31 32 38 37
          32 33 39 38 33 34 40 39 34 35 41 40
          36 37 43 42 37 38 44 43 38 39 45 44
          39 40 46 45 40 41 47 46 42 43 49 48
          43 44 50 49 44 45 51 50 45 46 52 51
          46 47 53 52 48 49 55 54 49 50 56 55
          50 51 57 56 51 52 58 57 52 53 59 58
          54 55 61 60 55 56 62 61 56 57 63 62
          57 58 64 63 58 59 65 64 60 61 67 66
          61 62 68 67 62 63 69 68 63 64 70 69
          64 65 71 70
        </DataArray>
        <DataArray type="Int32" Name="offsets" NumberOfComponents="1" format="ascii">
          4 8 12 16 20 24 28 32 36 40 44 48
          52 56 60 64 68 72 76 80 84 88 92 96
          100 104 108 112 116 120 124 128 132 136 140 144
          148 152 156 160 164 168 172 176 180 184 188 192
          196 200 204 208 212 216 220
        </DataArray>
        <DataArray type="UInt8" Name="types" NumberOfComponents="1" format="ascii">
          9 9 9 9 9 9 9 9 9 9 9 9
          9 9 9 9 9 9 9 9 9 9 9 9
          9 9 9 9 9 9 9 9 9 9 9 9
          9 9 9 9 9 9 9 9 9 9 9 9
          9 9 9 9 9 9 9
        </DataArray>
      </Cells>
    </Piece>
  </UnstructuredGrid>
</VTKFile>
