<?xml version="1.0"?>
<VTKFile type="UnstructuredGrid" version="0.1" byte_order="LittleEndian">
  <UnstructuredGrid>
    <Piece NumberOfCells="400" NumberOfPoints="1600">
      <PointData Scalars="porosity">
        <DataArray type="Float32" Name="porosity" NumberOfComponents="1" format="ascii">
          0.15 0.15 0.15 0.15 0.15 0.15 0.15 0.15 0.15 0.15 0.15 0.15
          0.15 0.15 0.15 0.15 0.15 0.15 0.15 0.15 0.15 0.15 0.15 0.15
          0.15 0.15 0.15 0.15 0.15 0.15 0.15 0.15 0.15 0.15 0.15 0.15
          0.15 0.15 0.15 0.15 0.15 0.15 0.15 0.15 0.15 0.15 0.15 0.15
          0.15 0.15 0.15 0.15 0.15 0.15 0.15 0.15 0.15 0.15 0.15 0.15
          0.15 0.15 0.15 0.15 0.15 0.15 0.15 0.15 0.15 0.15 0.15 0.15
          0.15 0.15 0.15 0.15 0.15 0.15 0.15 0.15 0.15 0.15 0.15 0.15
          0.15 0.15 0.15 0.15 0.15 0.15 0.15 0.15 0.15 0.15 0.15 0.15
          0.15 0.15 0.15 0.15 0.15 0.15 0.15 0.15 0.15 0.15 0.15 0.15
          0.15 0.15 0.15 0.15 0.15 0.15 0.15 0.15 0.15 0.15 0.15 0.15
          0.15 0.15 0.15 0.15 0.15 0.15 0.15 0.15 0.15 0.15 0.15 0.15
          0.15 0.15 0.15 0.15 0.15 0.15 0.15 0.15 0.15 0.15 0.15 0.15
          0.15 0.15 0.15 0.15 0.15 0.15 0.15 0.15 0.15 0.15 0.15 0.15
          0.15 0.15 0.15 0.15 0.15 0.15 0.15 0.15 0.15 0.15 0.15 0.15
          0.15 0.15 0.15 0.15 0.15 0.15 0.15 0.15 0.15 0.15 0.15 0.15
          0.15 0.15 0.15 0.15 0.15 0.15 0.15 0.15 0.15 0.15 0.15 0.15
          0.15 0.15 0.15 0.15 0.15 0.15 0.15 0.15 0.15 0.15 0.15 0.15
          0.15 0.15 0.15 0.15 0.15 0.15 0.15 0.15 0.15 0.15 0.15 0.15
          0.15 0.15 0.15 0.15 0.15 0.15 0.15 0.15 0.15 0.15 0.15 0.15
          0.15 0.15 0.15 0.15 0.15 0.15 0.15 0.15 0.15 0.15 0.15 0.15
          0.15 0.15 0.15 0.15 0.15 0.15 0.15 0.15 0.15 0.15 0.15 0.15
          0.15 0.15 0.15 0.15 0.15 0.15 0.15 0.15 0.15 0.15 0.15 0.15
          0.15 0.15 0.15 0.15 0.15 0.15 0.15 0.15 0.15 0.15 0.15 0.15
          0.15 0.15 0.15 0.15 0.15 0.15 0.15 0.15 0.15 0.15 0.15 0.15
          0.15 0.15 0.15 0.15 0.15 0.15 0.15 0.15 0.15 0.15 0.15 0.15
          0.15 0.15 0.15 0.15 0.15 0.15 0.15 0.15 0.15 0.15 0.15 0.15
          0.15 0.15 0.15 0.15 0.15 0.15 0.15 0.15 0.15 0.15 0.15 0.15
          0.15 0.15 0.15 0.15 0.15 0.15 0.15 0.15 0.15 0.15 0.15 0.15
          0.15 0.15 0.15 0.15 0.15 0.15 0.15 0.15 0.15 0.15 0.15 0.15
          0.15 0.15 0.15 0.15 0.15 0.15 0.15 0.15 0.15 0.15 0.15 0.15
          0.15 0.15 0.15 0.15 0.15 0.15 0.15 0.15 0.15 0.15 0.15 0.15
          0.15 0.15 0.15 0.15 0.15 0.15 0.15 0.15 0.15 0.15 0.15 0.15
          0.15 0.15 0.15 0.15 0.15 0.15 0.15 0.15 0.15 0.15 0.15 0.15
          0.15 0.15 0.15 0.15 0.15 0.15 0.15 0.15 0.15 0.15 0.15 0.15
          0.15 0.15 0.15 0.15 0.15 0.15 0.15 0.15 0.15 0.15 0.15 0.15
          0.15 0.15 0.15 0.15 0.15 0.15 0.15 0.15 0.15 0.15 0.15 0.15
          0.15 0.15 0.15 0.15 0.15 0.15 0.15 0.15 0.15 0.15 0.15 0.15
          0.15 0.15 0.15 0.15 0.15 0.15 0.15 0.15 0.15 0.15 0.15 0.15
          0.15 0.15 0.15 0.15 0.15 0.15 0.15 0.15 0.15 0.15 0.15 0.15
          0.15 0.15 0.15 0.15 0.15 0.15 0.15 0.15 0.15 0.15 0.15 0.15
          0.15 0.15 0.15 0.15 0.15 0.15 0.15 0.15 0.15 0.15 0.15 0.15
          0.15 0.15 0.15 0.15 0.15 0.15 0.15 0.15 0.15 0.15 0.15 0.15
          0.15 0.15 0.15 0.15 0.15 0.15 0.15 0.15 0.15 0.15 0.15 0.15
          0.15 0.15 0.15 0.15 0.15 0.15 0.15 0.15 0.15 0.15 0.15 0.15
          0.15 0.15 0.15 0.15 0.15 0.15 0.15 0.15 0.15 0.15 0.15 0.15
          0.15 0.15 0.15 0.15 0.15 0.15 0.15 0.15 0.15 0.15 0.15 0.15
          0.15 0.15 0.15 0.15 0.15 0.15 0.15 0.15 0.15 0.15 0.15 0.15
          0.15 0.15 0.15 0.15 0.15 0.15 0.15 0.15 0.15 0.15 0.15 0.15
          0.15 0.15 0.15 0.15 0.15 0.15 0.15 0.15 0.15 0.15 0.15 0.15
          0.15 0.15 0.15 0.15 0.15 0.15 0.15 0.15 0.15 0.15 0.15 0.15
          0.15 0.15 0.15 0.15 0.15 0.15 0.15 0.15 0.15 0.15 0.15 0.15
          0.15 0.15 0.15 0.15 0.15 0.15 0.15 0.15 0.15 0.15 0.15 0.15
          0.15 0.15 0.15 0.15 0.15 0.15 0.15 0.15 0.15 0.15 0.15 0.15
          0.15 0.15 0.15 0.15 0.15 0.15 0.15 0.15 0.15 0.15 0.15 0.15
          0.15 0.15 0.15 0.15 0.15 0.15 0.15 0.15 0.15 0.15 0.15 0.15
          0.15 0.15 0.15 0.15 0.15 0.15 0.15 0.15 0.15 0.15 0.15 0.15
          0.15 0.15 0.15 0.15 0.15 0.15 0.15 0.15 0.15 0.15 0.15 0.15
          0.15 0.15 0.15 0.15 0.15 0.15 0.15 0.15 0.15 0.15 0.15 0.15
          0.15 0.15 0.15 0.15 0.15 0.15 0.15 0.15 0.15 0.15 0.15 0.15
          0.15 0.15 0.15 0.15 0.15 0.15 0.15 0.15 0.15 0.15 0.15 0.15
          0.15 0.15 0.15 0.15 0.15 0.15 0.15 0.15 0.15 0.15 0.15 0.15
          0.15 0.15 0.15 0.15 0.15 0.15 0.15 0.15 0.15 0.15 0.15 0.15
          0.15 0.15 0.15 0.15 0.15 0.15 0.15 0.15 0.15 0.15 0.15 0.15
          0.15 0.15 0.15 0.15 0.15 0.15 0.15 0.15 0.15 0.15 0.15 0.15
          0.15 0.15 0.15 0.15 0.15 0.15 0.15 0.15 0.15 0.15 0.15 0.15
          0.15 0.15 0.15 0.15 0.15 0.15 0.15 0.15 0.15 0.15 0.15 0.15
          0.15 0.15 0.15 0.15 0.15 0.15 0.15 0.15 0.15 0.15 0.15 0.15
          0.15 0.15 0.15 0.15 0.15 0.15 0.15 0.15 0.15 0.15 0.15 0.15
          0.15 0.15 0.15 0.15 0.15 0.15 0.15 0.15 0.15 0.15 0.15 0.15
          0.15 0.15 0.15 0.15 0.15 0.15 0.15 0.15 0.15 0.15 0.15 0.15
          0.15 0.15 0.15 0.15 0.15 0.15 0.15 0.15 0.15 0.15 0.15 0.15
          0.15 0.15 0.15 0.15 0.15 0.15 0.15 0.15 0.15 0.15 0.15 0.15
          0.15 0.15 0.15 0.15 0.15 0.15 0.15 0.15 0.15 0.15 0.15 0.15
          0.15 0.15 0.15 0.15 0.15 0.15 0.15 0.15 0.15 0.15 0.15 0.15
          0.15 0.15 0.15 0.15 0.15 0.15 0.15 0.15 0.15 0.15 0.15 0.15
          0.15 0.15 0.15 0.15 0.15 0.15 0.15 0.15 0.15 0.15 0.15 0.15
          0.15 0.15 0.15 0.15 0.15 0.15 0.15 0.15 0.15 0.15 0.15 0.15
          0.15 0.15 0.15 0.15 0.15 0.15 0.15 0.15 0.15 0.15 0.15 0.15
          0.15 0.15 0.15 0.15 0.15 0.15 0.15 0.15 0.15 0.15 0.15 0.15
          0.15 0.15 0.15 0.15 0.15 0.15 0.15 0.15 0.15 0.15 0.15 0.15
          0.15 0.15 0.15 0.15 0.15 0.15 0.15 0.15 0.15 0.15 0.15 0.15
          0.15 0.15 0.15 0.15 0.15 0.15 0.15 0.15 0.15 0.15 0.15 0.15
          0.15 0.15 0.15 0.15 0.15 0.15 0.15 0.15 0.15 0.15 0.15 0.15
          0.15 0.15 0.15 0.15 0.15 0.15 0.15 0.15 0.15 0.15 0.15 0.15
          0.15 0.15 0.15 0.15 0.15 0.15 0.15 0.15 0.15 0.15 0.15 0.15
          0.15 0.15 0.15 0.15 0.15 0.15 0.15 0.15 0.15 0.15 0.15 0.15
          0.15 0.15 0.15 0.15 0.15 0.15 0.15 0.15 0.15 0.15 0.15 0.15
          0.15 0.15 0.15 0.15 0.15 0.15 0.15 0.15 0.15 0.15 0.15 0.15
          0.15 0.15 0.15 0.15 0.15 0.15 0.15 0.15 0.15 0.15 0.15 0.15
          0.15 0.15 0.15 0.15 0.15 0.15 0.15 0.15 0.15 0.15 0.15 0.15
          0.15 0.15 0.15 0.15 0.15 0.15 0.15 0.15 0.15 0.15 0.15 0.15
          0.15 0.15 0.15 0.15 0.15 0.15 0.15 0.15 0.15 0.15 0.15 0.15
          0.15 0.15 0.15 0.15 0.15 0.15 0.15 0.15 0.15 0.15 0.15 0.15
          0.15 0.15 0.15 0.15 0.15 0.15 0.15 0.15 0.15 0.15 0.15 0.15
          0.15 0.15 0.15 0.15 0.15 0.15 0.15 0.15 0.15 0.15 0.15 0.15
          0.15 0.15 0.15 0.15 0.15 0.15 0.15 0.15 0.15 0.15 0.15 0.15
          0.15 0.15 0.15 0.15 0.15 0.15 0.15 0.15 0.15 0.15 0.15 0.15
          0.15 0.15 0.15 0.15 0.15 0.15 0.15 0.15 0.15 0.15 0.15 0.15
          0.15 0.15 0.15 0.15 0.15 0.15 0.15 0.15 0.15 0.15 0.15 0.15
          0.15 0.15 0.15 0.15 0.15 0.15 0.15 0.15 0.15 0.15 0.15 0.15
          0.15 0.15 0.15 0.15 0.15 0.15 0.15 0.15 0.15 0.15 0.15 0.15
          0.15 0.15 0.15 0.15 0.15 0.15 0.15 0.15 0.15 0.15 0.15 0.15
          0.15 0.15 0.15 0.15 0.15 0.15 0.15 0.15 0.15 0.15 0.15 0.15
          0.15 0.15 0.15 0.15 0.15 0.15 0.15 0.15 0.15 0.15 0.15 0.15
          0.15 0.15 0.15 0.15 0.15 0.15 0.15 0.15 0.15 0.15 0.15 0.15
          0.15 0.15 0.15 0.15 0.15 0.15 0.15 0.15 0.15 0.15 0.15 0.15
          0.15 0.15 0.15 0.15 0.15 0.15 0.15 0.15 0.15 0.15 0.15 0.15
          0.15 0.15 0.15 0.15 0.15 0.15 0.15 0.15 0.15 0.15 0.15 0.15
          0.15 0.15 0.15 0.15 0.15 0.15 0.15 0.15 0.15 0.15 0.15 0.15
          0.15 0.15 0.15 0.15 0.15 0.15 0.15 0.15 0.15 0.15 0.15 0.15
          0.15 0.15 0.15 0.15 0.15 0.15 0.15 0.15 0.15 0.15 0.15 0.15
          0.15 0.15 0.15 0.15 0.15 0.15 0.15 0.15 0.15 0.15 0.15 0.15
          0.15 0.15 0.15 0.15 0.15 0.15 0.15 0.15 0.15 0.15 0.15 0.15
          0.15 0.15 0.15 0.15 0.15 0.15 0.15 0.15 0.15 0.15 0.15 0.15
          0.15 0.15 0.15 0.15 0.15 0.15 0.15 0.15 0.15 0.15 0.15 0.15
          0.15 0.15 0.15 0.15 0.15 0.15 0.15 0.15 0.15 0.15 0.15 0.15
          0.15 0.15 0.15 0.15 0.15 0.15 0.15 0.15 0.15 0.15 0.15 0.15
          0.15 0.15 0.15 0.15 0.15 0.15 0.15 0.15 0.15 0.15 0.15 0.15
          0.15 0.15 0.15 0.15 0.15 0.15 0.15 0.15 0.15 0.15 0.15 0.15
          0.15 0.15 0.15 0.15 0.15 0.15 0.15 0.15 0.15 0.15 0.15 0.15
          0.15 0.15 0.15 0.15 0.15 0.15 0.15 0.15 0.15 0.15 0.15 0.15
          0.15 0.15 0.15 0.15 0.15 0.15 0.15 0.15 0.15 0.15 0.15 0.15
          0.15 0.15 0.15 0.15 0.15 0.15 0.15 0.15 0.15 0.15 0.15 0.15
          0.15 0.15 0.15 0.15 0.15 0.15 0.15 0.15 0.15 0.15 0.15 0.15
          0.15 0.15 0.15 0.15 0.15 0.15 0.15 0.15 0.15 0.15 0.15 0.15
          0.15 0.15 0.15 0.15 0.15 0.15 0.15 0.15 0.15 0.15 0.15 0.15
          0.15 0.15 0.15 0.15 0.15 0.15 0.15 0.15 0.15 0.15 0.15 0.15
          0.15 0.15 0.15 0.15 0.15 0.15 0.15 0.15 0.15 0.15 0.15 0.15
          0.15 0.15 0.15 0.15 0.15 0.15 0.15 0.15 0.15 0.15 0.15 0.15
          0.15 0.15 0.15 0.15 0.15 0.15 0.15 0.15 0.15 0.15 0.15 0.15
          0.15 0.15 0.15 0.15 0.15 0.15 0.15 0.15 0.15 0.15 0.15 0.15
          0.15 0.15 0.15 0.15 0.15 0.15 0.15 0.15 0.15 0.15 0.15 0.15
          0.15 0.15 0.15 0.15 0.15 0.15 0.15 0.15 0.15 0.15 0.15 0.15
          0.15 0.15 0.15 0.15
        </DataArray>
        <DataArray type="Float32" Name="pc" NumberOfComponents="1" format="ascii">
          10000 10000 10000 10000 10000 10000 10000 10000 10000 10000 10000 10000
          10000 10000 10000 10000 10000 10000 10000 10000 10000 10000 10000 10000
          10000 10000 10000 10000 10000 10000 10000 10000 10000 10000 10000 10000
          10000 10000 10000 10000 10000 10000 10000 10000 10000 10000 10000 10000
          10000 10000 10000 10000 10000 10000 10000 10000 10000 10000 10000 10000
          10000 10000 10000 10000 10000 10000 10000 10000 10000 10000 10000 10000
          10000 10000 10000 10000 10000 10000 10000 10000 10000 10000 10000 10000
          10000 10000 10000 10000 10000 10000 10000 10000 10000 10000 10000 10000
          10000 10000 10000 10000 10000 10000 10000 10000 10000 10000 10000 10000
          10000 10000 10000 10000 10000 10000 10000 10000 10000 10000 10000 10000
          10000 10000 10000 10000 10000 10000 10000 10000 10000 10000 10000 10000
          10000 10000 10000 10000 10000 10000 10000 10000 10000 10000 10000 10000
          10000 10000 10000 10000 10000 10000 10000 10000 10000 10000 10000 10000
          10000 10000 10000 10000 10000 10000 10000 10000 10000 10000 10000 10000
          10000 10000 10000 10000 10000 10000 10000 10000 10000 10000 10000 10000
          10000 10000 10000 10000 10000 10000 10000 10000 10000 10000 10000 10000
          10000 10000 10000 10000 10000 10000 10000 10000 10000 10000 10000 10000
          10000 10000 10000 10000 10000 10000 10000 10000 10000 10000 10000 10000
          10000 10000 10000 10000 10000 10000 10000 10000 10000 10000 10000 10000
          10000 10000 10000 10000 10000 10000 10000 10000 10000 10000 10000 10000
          10000 10000 10000 10000 10000 10000 10000 10000 10000 10000 10000 10000
          10000 10000 10000 10000 10000 10000 10000 10000 10000 10000 10000 10000
          10000 10000 10000 10000 10000 10000 10000 10000 10000 10000 10000 10000
          10000 10000 10000 10000 10000 10000 10000 10000 10000 10000 10000 10000
          10000 10000 10000 10000 10000 10000 10000 10000 10000 10000 10000 10000
          50000 50000 50000 50000 50000 50000 50000 50000 50000 50000 50000 50000
          50000 50000 50000 50000 50000 50000 50000 50000 50000 50000 50000 50000
          50000 50000 50000 50000 50000 50000 50000 50000 50000 50000 50000 50000
          50000 50000 50000 50000 50000 50000 50000 50000 50000 50000 50000 50000
          50000 50000 50000 50000 50000 50000 50000 50000 50000 50000 50000 50000
          50000 50000 50000 50000 50000 50000 50000 50000 50000 50000 50000 50000
          50000 50000 50000 50000 50000 50000 50000 50000 50000 50000 50000 50000
          50000 50000 50000 50000 50000 50000 50000 50000 50000 50000 50000 50000
          50000 50000 50000 50000 10000 10000 10000 10000 10000 10000 10000 10000
          10000 10000 10000 10000 10000 10000 10000 10000 10000 10000 10000 10000
          10000 10000 10000 10000 10000 10000 10000 10000 10000 10000 10000 10000
          10000 10000 10000 10000 10000 10000 10000 10000 10000 10000 10000 10000
          10000 10000 10000 10000 10000 10000 10000 10000 10000 10000 10000 10000
          10000 10000 10000 10000 10000 10000 10000 10000 10000 10000 10000 10000
          10000 10000 10000 10000 10000 10000 10000 10000 10000 10000 10000 10000
          10000 10000 10000 10000 10000 10000 10000 10000 10000 10000 10000 10000
          10000 10000 10000 10000 10000 10000 10000 10000 10000 10000 10000 10000
          10000 10000 10000 10000 10000 10000 10000 10000 10000 10000 10000 10000
          10000 10000 10000 10000 10000 10000 10000 10000 10000 10000 10000 10000
          10000 10000 10000 10000 10000 10000 10000 10000 10000 10000 10000 10000
          10000 10000 10000 10000 10000 10000 10000 10000 10000 10000 10000 10000
          10000 10000 10000 10000 10000 10000 10000 10000 10000 10000 10000 10000
          10000 10000 10000 10000 10000 10000 10000 10000 10000 10000 10000 10000
          10000 10000 10000 10000 10000 10000 10000 10000 10000 10000 10000 10000
          10000 10000 10000 10000 10000 10000 10000 10000 10000 10000 10000 10000
          50000 50000 50000 50000 50000 50000 50000 50000 50000 50000 50000 50000
          50000 50000 50000 50000 50000 50000 50000 50000 50000 50000 50000 50000
          50000 50000 50000 50000 50000 50000 50000 50000 50000 50000 50000 50000
          50000 50000 50000 50000 50000 50000 50000 50000 50000 50000 50000 50000
          50000 50000 50000 50000 50000 50000 50000 50000 50000 50000 50000 50000
          50000 50000 50000 50000 50000 50000 50000 50000 50000 50000 50000 50000
          50000 50000 50000 50000 50000 50000 50000 50000 50000 50000 50000 50000
          50000 50000 50000 50000 50000 50000 50000 50000 50000 50000 50000 50000
          50000 50000 50000 50000 10000 10000 10000 10000 10000 10000 10000 10000
          10000 10000 10000 10000 10000 10000 10000 10000 10000 10000 10000 10000
          10000 10000 10000 10000 10000 10000 10000 10000 10000 10000 10000 10000
          10000 10000 10000 10000 10000 10000 10000 10000 10000 10000 10000 10000
          10000 10000 10000 10000 10000 10000 10000 10000 10000 10000 10000 10000
          10000 10000 10000 10000 10000 10000 10000 10000 10000 10000 10000 10000
          10000 10000 10000 10000 10000 10000 10000 10000 10000 10000 10000 10000
          10000 10000 10000 10000 10000 10000 10000 10000 10000 10000 10000 10000
          10000 10000 10000 10000 10000 10000 10000 10000 10000 10000 10000 10000
          10000 10000 10000 10000 10000 10000 10000 10000 10000 10000 10000 10000
          10000 10000 10000 10000 10000 10000 10000 10000.1 10000 10000 10000.1 10009.8
          10000 10000 10000 10001.1 10000 10000.1 10001.1 10104.7 10000.1 10009.8 10104.7 10515.1
          10000 10000 10000 10000 10000 10000 10000 10000.9 10000 10000 10000 10002.2
          10000 10002.2 10000.9 10295.2 10000 10000.9 10000.2 10166.8 10000.9 10295.2 10166.8 11215.7
          10000 10001.1 10002.2 10256.1 10001.1 10104.7 10256.1 11022.9 10002.2 10256.1 10295.2 11267.3
          10256.1 11022.9 11267.3 11936.6 10104.7 10515.1 11022.9 11606.6 11022.9 11606.6 11936.6 12376.4
          10295.2 11267.3 11215.7 12023.6 11267.3 11936.6 12023.6 12573.8 11936.6 12376.4 12573.8 12978.4
          10000 10000 10009.8 10080.8 10000 10000.6 10080.8 10199.1 10009.8 10080.8 10515.1 10965.9
          10080.8 10199.1 10965.9 11251.3 10000.6 10001.3 10199.1 10251.9 10001.3 10000.5 10251.9 10192.3
          10000.5 10000 10192.3 10000 10199.1 10251.9 11251.3 11343.5 10251.9 10192.3 11343.5 11289.3
          10192.3 10000 11289.3 10000 10515.1 10965.9 11606.6 11960 11606.6 11960 12376.4 12672.3
          10965.9 11251.3 11960 12167.2 11960 12167.2 12672.3 12848.3 12376.4 12672.3 12978.4 13262.6
          12672.3 12848.3 13262.6 13430.9 11251.3 11343.5 12167.2 12239.2 11343.5 11289.3 12239.2 12172.9
          12167.2 12239.2 12848.3 12905.4 12239.2 12172.9 12905.4 12856.8 11289.3 10000 12172.9 11974.7
          12172.9 11974.7 12856.8 12693.7 12848.3 12905.4 13430.9 13479.7 12905.4 12856.8 13479.7 13421
          12856.8 12693.7 13421 13256.7 10000.2 10166.8 10070.9 10854.5 10166.8 11215.7 10854.5 11868.6
          10070.9 10854.5 10523.5 11456.5 10854.5 11868.6 11456.5 12297.6 11215.7 12023.6 11868.6 12557.1
          12023.6 12573.8 12557.1 13091.9 12573.8 12978.4 13091.9 13510.5 11868.6 12557.1 12297.6 12978.3
          12557.1 13091.9 12978.3 13553.2 13091.9 13510.5 13553.2 14031.2 10523.5 11456.5 11049.3 11804
          11049.3 11804 11331.4 11972 11456.5 12297.6 11804 12595.9 11804 12595.9 11972 12760.7
          11331.4 11972 11304.4 11923.9 11972 12760.7 11923.9 12716.1 12297.6 12978.3 12595.9 13317.7
          12978.3 13553.2 13317.7 13987.6 12595.9 13317.7 12760.7 13554.3 13317.7 13987.6 13554.3 14384.4
          13553.2 14031.2 13987.6 14586.3 13987.6 14586.3 14384.4 15223.9 12760.7 13554.3 12716.1 13561.1
          13554.3 14384.4 13561.1 14560.3 14384.4 15223.9 14560.3 16031.5 12978.4 13262.6 13510.5 13815.7
          13262.6 13430.9 13815.7 13993.7 13510.5 13815.7 14031.2 14389.9 13815.7 13993.7 14389.9 14593.6
          13430.9 13479.7 13993.7 14037.7 13479.7 13421 14037.7 13961.7 13421 13256.7 13961.7 13775.3
          13993.7 14037.7 14593.6 14635.2 14037.7 13961.7 14635.2 14532.3 13961.7 13775.3 14532.3 14299.7
          14031.2 14389.9 14586.3 15043.3 14586.3 15043.3 15223.9 15869.3 14389.9 14593.6 15043.3 15290.6
          15043.3 15290.6 15869.3 16170 15223.9 15869.3 16031.5 17097.7 15869.3 16170 17097.7 17391.4
          14593.6 14635.2 15290.6 15330.1 14635.2 14532.3 15330.1 15186.7 15290.6 15330.1 16170 16206
          15330.1 15186.7 16206 16011.5 14532.3 14299.7 15186.7 14868.3 15186.7 14868.3 16011.5 15522.8
          16170 16206 17391.4 17421.9 16206 16011.5 17421.9 17222.4 16011.5 15522.8 17222.4 16330.2
          10000 10000 10000 10006.2 10000 10000 10006.2 10000 10000 10006.2 10000 10501.1
          10006.2 10000 10501.1 10079.9 10000 10000 10000 10000 10000 10000 10000 10000
          10000 10000 10000 10000 10000 10000 10079.9 10000.5 10000 10000 10000.5 10000
          10000 10000 10000 10000 10000 10501.1 11974.7 11598.9 11974.7 11598.9 12693.7 12396.1
          10501.1 10079.9 11598.9 10978.3 11598.9 10978.3 12396.1 11941.6 12693.7 12396.1 13256.7 12983.6
          12396.1 11941.6 12983.6 12593.7 10079.9 10000.5 10978.3 10219.9 10000.5 10000 10219.9 10001.8
          10978.3 10219.9 11941.6 11252.4 10219.9 10001.8 11252.4 10304.1 10000 10000 10001.8 10000
          10001.8 10000 10304.1 10001.8 11941.6 11252.4 12593.7 12059.3 11252.4 10304.1 12059.3 11276.1
          10304.1 10001.8 11276.1 10239.4 10000 10000 10000 10000 10000 10000 10000 10000
          10000 10000 10000 10000 10000 10000 10000 10000 10000 10000 10000 10000
          10000 10000 10000 10000 10000 10000 10000 10000 10000 10000 10000 10000
          10000 10000 10000 10000 10000 10000 10000 10000 10000 10000 10000 10000
          10000 10000 10001.8 10000 10000 10000 10000 10000 10000 10000 10000 10000
          10001.8 10000 10239.4 10000.6 10000 10000 10000.6 10000 10000 10000 10000 10000
          10000 10000 10000 10000 10000 10000 10000 10000 10000 10000 10000 10000
          10000 10000 10000 10000 10000 10000 10000 10000 10000 10000 10000 10000
          10000 10000 10000 10000 10000 10000 10000 10000 13256.7 12983.6 13775.3 13488
          12983.6 12593.7 13488 13106.1 13775.3 13488 14299.7 13961.5 13488 13106.1 13961.5 13542.4
          12593.7 12059.3 13106.1 12619 12059.3 11276.1 12619 11981.3 11276.1 10239.4 11981.3 11041.9
          13106.1 12619 13542.4 13048.4 12619 11981.3 13048.4 12452.8 11981.3 11041.9 12452.8 11676.1
          14299.7 13961.5 14868.3 14425.6 14868.3 14425.6 15522.8 14862.9 13961.5 13542.4 14425.6 13920
          14425.6 13920 14862.9 14201.4 15522.8 14862.9 16330.2 15074.1 14862.9 14201.4 15074.1 14230.4
          13542.4 13048.4 13920 13375.8 13048.4 12452.8 13375.8 12774.6 13920 13375.8 14201.4 13574
          13375.8 12774.6 13574 12941.9 12452.8 11676.1 12774.6 12053 12774.6 12053 12941.9 12233.9
          14201.4 13574 14230.4 13539 13574 12941.9 13539 12885.4 12941.9 12233.9 12885.4 12179.7
          10239.4 10000.6 11041.9 10094 10000.6 10000 10094 10000 11041.9 10094 11676.1 10547.7
          10094 10000 10547.7 10009.5 10000 10000 10000 10000 10000 10000 10000 10000
          10000 10000 10000 10000 10000 10000 10009.5 10000 10000 10000 10000 10000
          10000 10000 10000 10000 11676.1 10547.7 12053 11058.8 12053 11058.8 12233.9 11324.4
          10547.7 10009.5 11058.8 10098.7 11058.8 10098.7 11324.4 10233.1 12233.9 11324.4 12179.7 11287.6
          11324.4 10233.1 11287.6 10226.1 10009.5 10000 10098.7 10000 10000 10000 10000 10000
          10098.7 10000 10233.1 10000.5 10000 10000 10000.5 10000 10000 10000 10000 10000
          10000 10000 10000 10000 10233.1 10000.5 10226.1 10000.4 10000.5 10000 10000.4 10000
          10000 10000 10000 10000
        </DataArray>
        <DataArray type="Float32" Name="Sw" NumberOfComponents="1" format="ascii">
          1 1 1 1 1 1 1 1 1 1 1 1
          1 1 1 1 1 1 1 1 1 1 1 1
          1 1 1 1 1 1 1 1 1 1 1 1
          1 1 1 1 1 1 1 1 1 1 1 1
          1 1 1 1 1 1 1 1 1 1 1 1
          1 1 1 1 1 1 1 1 1 1 1 1
          1 1 1 1 1 1 1 1 1 1 1 1
          1 1 1 1 1 1 1 1 1 1 1 1
          1 1 1 1 1 1 1 1 1 1 1 1
          1 1 1 1 1 1 1 1 1 1 1 1
          1 1 1 1 1 1 1 1 1 1 1 1
          1 1 1 1 1 1 1 1 1 1 1 1
          1 1 1 1 1 1 1 1 1 1 1 1
          1 1 1 1 1 1 1 1 1 1 1 1
          1 1 1 1 1 1 1 1 1 1 1 1
          1 1 1 1 1 1 1 1 1 1 1 1
          1 1 1 1 1 1 1 1 1 1 1 1
          1 1 1 1 1 1 1 1 1 1 1 1
          1 1 1 1 1 1 1 1 1 1 1 1
          1 1 1 1 1 1 1 1 1 1 1 1
          1 1 1 1 1 1 1 1 1 1 1 1
          1 1 1 1 1 1 1 1 1 1 1 1
          1 1 1 1 1 1 1 1 1 1 1 1
          1 1 1 1 1 1 1 1 1 1 1 1
          1 1 1 1 1 1 1 1 1 1 1 1
          1 1 1 1 1 1 1 1 1 1 1 1
          1 1 1 1 1 1 1 1 1 1 1 1
          1 1 1 1 1 1 1 1 1 1 1 1
          1 1 1 1 1 1 1 1 1 1 1 1
          1 1 1 1 1 1 1 1 1 1 1 1
          1 1 1 1 1 1 1 1 1 1 1 1
          1 1 1 1 1 1 1 1 1 1 1 1
          1 1 1 1 1 1 1 1 1 1 1 1
          1 1 1 1 1 1 1 1 1 1 1 1
          1 1 1 1 1 1 1 1 1 1 1 1
          1 1 1 1 1 1 1 1 1 1 1 1
          1 1 1 1 1 1 1 1 1 1 1 1
          1 1 1 1 1 1 1 1 1 1 1 1
          1 1 1 1 1 1 1 1 1 1 1 1
          1 1 1 1 1 1 1 1 1 1 1 1
          1 1 1 1 1 1 1 1 1 1 1 1
          1 1 1 1 1 1 1 1 1 1 1 1
          1 1 1 1 1 1 1 1 1 1 1 1
          1 1 1 1 1 1 1 1 1 1 1 1
          1 1 1 1 1 1 1 1 1 1 1 1
          1 1 1 1 1 1 1 1 1 1 1 1
          1 1 1 1 1 1 1 1 1 1 1 1
          1 1 1 1 1 1 1 1 1 1 1 1
          1 1 1 1 1 1 1 1 1 1 1 1
          1 1 1 1 1 1 1 1 1 1 1 1
          1 1 1 1 1 1 1 1 1 1 1 1
          1 1 1 1 1 1 1 1 1 1 1 1
          1 1 1 1 1 1 1 1 1 1 1 1
          1 1 1 1 1 1 1 1 1 1 1 1
          1 1 1 1 1 1 1 1 1 1 1 1
          1 1 1 1 1 1 1 1 1 1 1 1
          1 1 1 1 1 1 1 1 1 1 1 1
          1 1 1 1 1 1 1 1 1 1 1 1
          1 1 1 1 1 1 1 1 1 1 1 1
          1 1 1 1 1 1 1 1 1 1 1 1
          1 1 1 1 1 1 1 1 1 1 1 1
          1 1 1 1 1 1 1 1 1 1 1 1
          1 1 1 1 1 1 1 1 1 1 1 1
          1 1 1 1 1 1 1 1 1 1 1 1
          1 1 1 1 1 1 1 1 1 1 1 1
          1 1 1 1 1 1 1 1 1 1 1 1
          1 1 1 1 1 1 1 1 1 1 1 1
          1 1 1 1 1 1 1 1 1 1 1 1
          1 1 1 1 1 1 1 0.99999 1 1 0.99999 0.998395
          1 1 1 0.999815 1 0.99999 0.999815 0.983096 0.99999 0.998395 0.983096 0.921623
          1 1 1 1 1 1 1 0.999854 1 1 1 0.999647
          1 0.999647 0.999854 0.953642 1 0.999854 0.999975 0.97331 0.999854 0.953642 0.97331 0.831874
          1 0.999815 0.999647 0.959563 0.999815 0.983096 0.959563 0.854871 0.999647 0.959563 0.953642 0.825914
          0.959563 0.854871 0.825914 0.755505 0.983096 0.921623 0.854871 0.788701 0.854871 0.788701 0.755505 0.715334
          0.953642 0.825914 0.831874 0.747207 0.825914 0.755505 0.747207 0.698662 0.755505 0.715334 0.698662 0.666823
          1 0.999994 0.998395 0.986906 0.999994 0.999899 0.986906 0.968302 0.998395 0.986906 0.921623 0.861909
          0.986906 0.968302 0.861909 0.82775 0.999899 0.999788 0.968302 0.960199 0.999788 0.999923 0.960199 0.969357
          0.999923 1 0.969357 1 0.968302 0.960199 0.82775 0.817266 0.960199 0.969357 0.817266 0.823404
          0.969357 1 0.823404 1 0.921623 0.861909 0.788701 0.753261 0.788701 0.753261 0.715334 0.690627
          0.861909 0.82775 0.753261 0.733905 0.753261 0.733905 0.690627 0.676733 0.715334 0.690627 0.666823 0.64618
          0.690627 0.676733 0.64618 0.63457 0.82775 0.817266 0.733905 0.727402 0.817266 0.823404 0.727402 0.73338
          0.733905 0.727402 0.676733 0.672345 0.727402 0.73338 0.672345 0.676073 0.823404 1 0.73338 0.751854
          0.73338 0.751854 0.676073 0.688905 0.676733 0.672345 0.63457 0.631288 0.672345 0.676073 0.631288 0.635241
          0.676073 0.688905 0.635241 0.646601 0.999975 0.97331 0.988503 0.875971 0.97331 0.831874 0.875971 0.762126
          0.988503 0.875971 0.920442 0.804753 0.875971 0.762126 0.804753 0.722221 0.831874 0.747207 0.762126 0.700037
          0.747207 0.698662 0.700037 0.658419 0.698662 0.666823 0.658419 0.629234 0.762126 0.700037 0.722221 0.666829
          0.700037 0.658419 0.666829 0.626408 0.658419 0.629234 0.626408 0.596506 0.920442 0.804753 0.851658 0.768511
          0.851658 0.768511 0.818623 0.752115 0.804753 0.722221 0.768511 0.69684 0.768511 0.69684 0.752115 0.683578
          0.818623 0.752115 0.821679 0.756734 0.752115 0.683578 0.756734 0.687117 0.722221 0.666829 0.69684 0.642337
          0.666829 0.626408 0.642337 0.599112 0.69684 0.642337 0.683578 0.626333 0.642337 0.599112 0.626333 0.576308
          0.626408 0.596506 0.599112 0.565412 0.599112 0.565412 0.576308 0.533802 0.683578 0.626333 0.687117 0.625884
          0.626333 0.576308 0.625884 0.566788 0.576308 0.533802 0.566788 0.499054 0.666823 0.64618 0.629234 0.609603
          0.64618 0.63457 0.609603 0.598747 0.629234 0.609603 0.596506 0.576001 0.609603 0.598747 0.576001 0.565024
          0.63457 0.631288 0.598747 0.596124 0.631288 0.635241 0.596124 0.600667 0.635241 0.646601 0.600667 0.612128
          0.598747 0.596124 0.565024 0.562838 0.596124 0.600667 0.562838 0.568279 0.600667 0.612128 0.568279 0.581012
          0.596506 0.576001 0.565412 0.542349 0.565412 0.542349 0.533802 0.505612 0.576001 0.565024 0.542349 0.530724
          0.542349 0.530724 0.505612 0.493611 0.533802 0.505612 0.499054 0.460504 0.505612 0.493611 0.460504 0.451109
          0.565024 0.562838 0.530724 0.528916 0.562838 0.568279 0.528916 0.535538 0.530724 0.528916 0.493611 0.492219
          0.528916 0.535538 0.492219 0.499853 0.568279 0.581012 0.535538 0.55093 0.535538 0.55093 0.499853 0.52031
          0.493611 0.492219 0.451109 0.450161 0.492219 0.499853 0.450161 0.456457 0.499853 0.52031 0.456457 0.487489
          1 1 1 0.998977 1 1 0.998977 0.999997 1 0.998977 1 0.923611
          0.998977 0.999997 0.923611 0.987045 1 1 0.999997 1 1 1 1 1
          1 1 1 1 0.999997 1 0.987045 0.999915 1 1 0.999915 1
          1 1 1 1 1 0.923611 0.751854 0.78951 0.751854 0.78951 0.688905 0.713633
          0.923611 0.987045 0.78951 0.860369 0.78951 0.860369 0.713633 0.755024 0.688905 0.713633 0.646601 0.666437
          0.713633 0.755024 0.666437 0.697019 0.987045 0.999915 0.860369 0.965092 0.999915 1 0.965092 0.999704
          0.860369 0.965092 0.755024 0.827622 0.965092 0.999704 0.827622 0.952309 1 1 0.999704 1
          0.999704 1 0.952309 0.999699 0.755024 0.827622 0.697019 0.743858 0.827622 0.952309 0.743858 0.8249
          0.952309 0.999699 0.8249 0.962104 1 1 1 1 1 1 1 1
          1 1 1 1 1 1 1 1 1 1 1 1
          1 1 1 1 1 1 1 1 1 1 1 1
          1 1 1 1 1 1 1 1 1 1 1 1
          1 1 0.999699 1 1 1 1 1 1 1 1 1
          0.999699 1 0.962104 0.999902 1 1 0.999902 1 1 1 1 1
          1 1 1 1 1 1 1 1 1 1 1 1
          1 1 1 1 1 1 1 1 1 1 1 1
          1 1 1 1 1 1 1 1 0.646601 0.666437 0.612128 0.630731
          0.666437 0.697019 0.630731 0.657383 0.612128 0.630731 0.581012 0.600676 0.630731 0.657383 0.600676 0.62712
          0.697019 0.743858 0.657383 0.694952 0.743858 0.8249 0.694952 0.751225 0.8249 0.962104 0.751225 0.852551
          0.657383 0.694952 0.62712 0.661613 0.694952 0.751225 0.661613 0.708785 0.751225 0.852551 0.708785 0.781476
          0.581012 0.600676 0.55093 0.574048 0.55093 0.574048 0.52031 0.551198 0.600676 0.62712 0.574048 0.60319
          0.574048 0.60319 0.551198 0.586585 0.52031 0.551198 0.487489 0.540872 0.551198 0.586585 0.540872 0.584932
          0.62712 0.661613 0.60319 0.638326 0.661613 0.708785 0.638326 0.682477 0.60319 0.638326 0.586585 0.625037
          0.638326 0.682477 0.625037 0.669573 0.708785 0.781476 0.682477 0.744448 0.682477 0.744448 0.669573 0.727876
          0.586585 0.625037 0.584932 0.627343 0.625037 0.669573 0.627343 0.673875 0.669573 0.727876 0.673875 0.732763
          0.962104 0.999902 0.852551 0.984805 0.999902 1 0.984805 0.999996 0.852551 0.984805 0.781476 0.917048
          0.984805 0.999996 0.917048 0.998439 1 1 0.999996 1 1 1 1 1
          1 1 1 1 0.999996 1 0.998439 1 1 1 1 1