<?xml version="1.0"?>
<VTKFile type="UnstructuredGrid" version="0.1" byte_order="LittleEndian">
  <UnstructuredGrid>
    <Piece NumberOfCells="76" NumberOfPoints="228">
      <PointData Scalars="porosity">
        <DataArray type="Float32" Name="porosity" NumberOfComponents="1" format="ascii">
          0.15 0.15 0.15 0.15 0.15 0.15 0.15 0.15 0.15 0.15 0.15 0.15
          0.15 0.15 0.15 0.15 0.15 0.15 0.15 0.15 0.15 0.15 0.15 0.15
          0.15 0.15 0.15 0.15 0.15 0.15 0.15 0.15 0.15 0.15 0.15 0.15
          0.15 0.15 0.15 0.15 0.15 0.15 0.15 0.15 0.15 0.15 0.15 0.15
          0.15 0.15 0.15 0.15 0.15 0.15 0.15 0.15 0.15 0.15 0.15 0.15
          0.15 0.15 0.15 0.15 0.15 0.15 0.15 0.15 0.15 0.15 0.15 0.15
          0.15 0.15 0.15 0.15 0.15 0.15 0.15 0.15 0.15 0.15 0.15 0.15
          0.15 0.15 0.15 0.15 0.15 0.15 0.15 0.15 0.15 0.15 0.15 0.15
          0.15 0.15 0.15 0.15 0.15 0.15 0.15 0.15 0.15 0.15 0.15 0.15
          0.15 0.15 0.15 0.15 0.15 0.15 0.15 0.15 0.15 0.15 0.15 0.15
          0.15 0.15 0.15 0.15 0.15 0.15 0.15 0.15 0.15 0.15 0.15 0.15
          0.15 0.15 0.15 0.15 0.15 0.15 0.15 0.15 0.15 0.15 0.15 0.15
          0.15 0.15 0.15 0.15 0.15 0.15 0.15 0.15 0.15 0.15 0.15 0.15
          0.15 0.15 0.15 0.15 0.15 0.15 0.15 0.15 0.15 0.15 0.15 0.15
          0.15 0.15 0.15 0.15 0.15 0.15 0.15 0.15 0.15 0.15 0.15 0.15
          0.15 0.15 0.15 0.15 0.15 0.15 0.15 0.15 0.15 0.15 0.15 0.15
          0.15 0.15 0.15 0.15 0.15 0.15 0.15 0.15 0.15 0.15 0.15 0.15
          0.15 0.15 0.15 0.15 0.15 0.15 0.15 0.15 0.15 0.15 0.15 0.15
          0.15 0.15 0.15 0.15 0.15 0.15 0.15 0.15 0.15 0.15 0.15 0.15
        </DataArray>
        <DataArray type="Float32" Name="pc" NumberOfComponents="1" format="ascii">
          10000 10000 10000 10000 10000 10000 10000 11897.6 12226.4 10006.4 10873.2 10261.8
          10117.3 10672.3 11883.8 10873.2 11897.6 10261.8 10000 10000 10000 10000 10672.3 10000
          10000 10000 10261.8 10000 10000 10000 11883.8 10672.3 12226.4 10000 12226.4 10672.3
          10000 10000 10000 10000 10000 10000 50000 50000 50000 50000 50000 50000
          10000 10261.8 11897.6 10000 10000 10000 10000 10000 10000 13177.3 11897.6 12764
          10013.5 10873.2 10006.4 10117.3 11883.8 10788.1 12098.6 14985.2 12764 14985.2 15068.6 13525.5
          10000 10000 10013.5 10000 12098.6 10664.4 12352 12778.4 15068.6 10000 10664.4 10000
          12352 11171.8 12778.4 10117.3 10788.1 10028.7 10006.4 10000 10013.5 11171.8 10028.7 10788.1
          13177.3 12226.4 11897.6 10873.2 12764 11897.6 13177.3 13525.5 12226.4 10028.7 10000 10000
          10000 10000 10000 10000 10000 10000 10117.3 10028.7 10000 10006.4 10000 10000
          10000 10000 10000 10000 10000 10006.4 10000 10000 10000 10000 10000 10000
          10000 10117.3 10000 10000 10000 10000 10000 10000 10000 10000 10000 10000
          10000 10000 10000 10000 10000 10000 10000 10000 10000 11883.8 13525.5 12778.4
          10000 10000 10000 10000 10000 10000 14985.2 13177.3 12764 10873.2 10664.4 12764
          15068.6 12778.4 13525.5 11883.8 12226.4 13525.5 12098.6 12764 10664.4 14985.2 13525.5 13177.3
          10873.2 10013.5 10664.4 11883.8 12778.4 10788.1 11171.8 10788.1 12778.4 10000 10664.4 10013.5
          10000 10000 10000 10117.3 10000 10672.3 10000 10000 10000 10000 10006.4 10261.8
          10000 10000 10000 10000 10000 10000 50000 50000 50000 50000 50000 50000
          50000 50000 50000 50000 50000 50000 50000 50000 50000 50000 50000 50000
        </DataArray>
        <DataArray type="Float32" Name="Sw" NumberOfComponents="1" format="ascii">
          1 1 1 1 1 1 1 0.759288 0.728553 0.998953 0.873586 0.958697
          0.981094 0.899945 0.760632 0.873586 0.759288 0.958697 1 1 1 1 0.899945 1
          1 1 0.958697 1 1 1 0.760632 0.899945 0.728553 1 0.728553 0.899945
          0.999999 1 1 1 1 1 1 1 1 1 1 1
          1 0.958697 0.759288 1 1 1 1 1 1 0.652239 0.759288 0.683318
          0.997799 0.873586 0.998953 0.981094 0.760632 0.88457 0.740203 0.545166 0.683318 0.545166 0.541132 0.628236
          1 1 0.997799 1 0.740203 0.901005 0.717456 0.682181 0.541132 1 0.901005 1
          0.717456 0.836999 0.682181 0.981094 0.88457 0.995318 0.998953 1 0.997799 0.836999 0.995318 0.88457
          0.652239 0.728553 0.759288 0.873586 0.683318 0.759288 0.652239 0.628236 0.728553 0.995318 1 0.999997
          1 1 1 1 1 1 0.981094 0.995318 0.999997 0.998953 1 1
          0.999999 1 1 1 1 0.998953 0.999999 1 1 1 1 1
          0.999999 0.981094 0.999997 0.999999 0.999997 1 1 1 1 1 1 1
          1 1 1 1 1 1 1 1 1 0.760632 0.628236 0.682181
          1 1 1 1 1 1 0.545166 0.652239 0.683318 0.873586 0.901005 0.683318
          0.541132 0.682181 0.628236 0.760632 0.728553 0.628236 0.740203 0.683318 0.901005 0.545166 0.628236 0.652239
          0.873586 0.997799 0.901005 0.760632 0.682181 0.88457 0.836999 0.88457 0.682181 1 0.901005 0.997799
          0.999999 1 1 0.981094 1 0.899945 1 1 1 1 0.998953 0.958697
          1 1 1 1 1 1 1 1 1 1 1 1
          1 1 1 1 1 1 1 1 1 1 1 1
        </DataArray>
        <DataArray type="Float32" Name="pw" NumberOfComponents="1" format="ascii">
          109810 109510 109032 109810 108713 109410 105489 106060 107354 105657 104812 105567
          107841 106922 108318 104812 106060 105567 109431 108900 109032 105489 106922 106468
          105489 106468 105567 109431 108713 108900 108318 106922 107354 105489 107354 106922
          108500 109810 109032 107658 108713 109810 108500 107927 107841 107658 105657 107171
          105489 105567 106060 109431 109810 109410 109431 109510 109810 107303 106060 105578
          104125 104812 105657 107841 108318 108237 103011 107767 105578 107767 109276 108899
          104905 102452 104125 100000 103011 102707 108837 109433 109276 100000 102707 102452
          108837 108868 109433 107841 108237 107790 105657 104905 104125 108868 107790 108237
          107303 107354 106060 104812 105578 106060 107303 108899 107354 107790 108694 108190
          109810 109204 108694 109810 108659 109810 107841 107790 108190 105657 106394 104905
          108500 109204 109810 107658 106394 105657 108500 108694 109204 107658 109810 108659
          108500 107841 108190 108500 108190 108694 109810 109810 109204 109810 107358 108659
          107358 104905 106394 107358 106394 108659 107658 108659 106394 108318 108899 109433
          109431 109410 108713 109431 109032 109510 107767 107303 105578 104812 102707 105578
          109276 109433 108899 108318 107354 108899 103011 105578 102707 107767 108899 107303
          104812 104125 102707 108318 109433 108237 108868 108237 109433 102452 102707 104125
          108500 109032 108900 107841 106468 106922 108900 108713 107658 106468 105657 105567
          109810 109810 109510 109810 109810 109410 108500 108900 107927 107841 107927 106468
          108900 106468 107927 108900 107171 106468 108900 107658 107171 106468 107171 105657
        </DataArray>
        <DataArray type="Float32" Name="rhoW" NumberOfComponents="1" format="ascii">
          1000 1000 1000 1000 1000 1000 1000 1000 1000 1000 1000 1000
          1000 1000 1000 1000 1000 1000 1000 1000 1000 1000 1000 1000
          1000 1000 1000 1000 1000 1000 1000 1000 1000 1000 1000 1000
          1000 1000 1000 1000 1000 1000 1000 1000 1000 1000 1000 1000
          1000 1000 1000 1000 1000 1000 1000 1000 1000 1000 1000 1000
          1000 1000 1000 1000 1000 1000 1000 1000 1000 1000 1000 1000
          1000 1000 1000 1000 1000 1000 1000 1000 1000 1000 1000 1000
          1000 1000 1000 1000 1000 1000 1000 1000 1000 1000 1000 1000
          1000 1000 1000 1000 1000 1000 1000 1000 1000 1000 1000 1000
          1000 1000 1000 1000 1000 1000 1000 1000 1000 1000 1000 1000
          1000 1000 1000 1000 1000 1000 1000 1000 1000 1000 1000 1000
          1000 1000 1000 1000 1000 1000 1000 1000 1000 1000 1000 1000
          1000 1000 1000 1000 1000 1000 1000 1000 1000 1000 1000 1000
          1000 1000 1000 1000 1000 1000 1000 1000 1000 1000 1000 1000
          1000 1000 1000 1000 1000 1000 1000 1000 1000 1000 1000 1000
          1000 1000 1000 1000 1000 1000 1000 1000 1000 1000 1000 1000
          1000 1000 1000 1000 1000 1000 1000 1000 1000 1000 1000 1000
          1000 1000 1000 1000 1000 1000 1000 1000 1000 1000 1000 1000
          1000 1000 1000 1000 1000 1000 1000 1000 1000 1000 1000 1000
        </DataArray>
        <DataArray type="Float32" Name="mobW" NumberOfComponents="1" format="ascii">
          1000 1000 1000 1000 1000 1000 1000 249.071 200.271 994.905 511.853 813.24
          910.918 594.212 251.389 511.853 249.071 813.24 1000 1000 1000 1000 594.212 1000
          1000 1000 813.24 1000 1000 1000 251.389 594.212 200.271 1000 200.271 594.212
          999.994 1000 1000 1000 1000 1000 1000 1000 1000 1000 1000 1000
          1000 813.24 249.071 1000 1000 1000 1000 1000 1000 110 249.071 141.943
          989.305 511.853 994.905 910.918 251.389 545.056 217.835 39.3285 141.943 39.3285 37.6189 89.2835
          1000 1000 989.305 1000 217.835 597.718 184.551 140.665 37.6189 1000 597.718 1000
          184.551 412.101 140.665 910.918 545.056 977.357 994.905 1000 989.305 412.101 977.357 545.056
          110 200.271 249.071 511.853 141.943 249.071 110 89.2835 200.271 977.357 1000 999.984
          1000 1000 1000 1000 1000 1000 910.918 977.357 999.984 994.905 1000 1000
          999.994 1000 1000 1000 1000 994.905 999.994 1000 1000 1000 1000 1000
          999.994 910.918 999.984 999.994 999.984 1000 1000 1000 1000 1000 1000 1000
          1000 1000 1000 1000 1000 1000 1000 1000 1000 251.389 89.2835 140.665
          1000 1000 1000 1000 1000 1000 39.3285 110 141.943 511.853 597.718 141.943
          37.6189 140.665 89.2835 251.389 200.271 89.2835 217.835 141.943 597.718 39.3285 89.2835 110
          511.853 989.305 597.718 251.389 140.665 545.056 412.101 545.056 140.665 1000 597.718 989.305
          999.994 1000 1000 910.918 1000 594.212 1000 1000 1000 1000 994.905 813.24
          1000 1000 1000 1000 1000 1000 1000 1000 1000 1000 1000 1000
          1000 1000 1000 1000 1000 1000 1000 1000 1000 1000 1000 1000
        </DataArray>
        <DataArray type="Float32" Name="Sn" NumberOfComponents="1" format="ascii">
          0 -0 5.04506e-19 0 2.10966e-31 -0 0 0.240712 0.271447 0.00104653 0.126414 0.0413029
          0.0189056 0.100055 0.239368 0.126414 0.240712 0.0413029 0 0 5.04506e-19 0 0.100055 0
          0 0 0.0413029 0 2.10966e-31 0 0.239368 0.100055 0.271447 0 0.271447 0.100055
          1.17609e-06 0 5.04506e-19 1.03156e-10 2.10966e-31 0 0 0 0 0 0 0
          0 0.0413029 0.240712 0 0 -0 0 -0 0 0.347761 0.240712 0.316682
          0.00220135 0.126414 0.00104653 0.0189056 0.239368 0.11543 0.259797 0.454834 0.316682 0.454834 0.458868 0.371764
          0 0 0.00220135 0 0.259797 0.0989954 0.282544 0.317819 0.458868 0 0.0989954 0
          0.282544 0.163001 0.317819 0.0189056 0.11543 0.0046818 0.00104653 0 0.00220135 0.163001 0.0046818 0.11543
          0.347761 0.271447 0.240712 0.126414 0.316682 0.240712 0.347761 0.371764 0.271447 0.0046818 1.93785e-08 3.34077e-06
          0 4.01911e-19 1.93785e-08 0 1.55853e-30 0 0.0189056 0.0046818 3.34077e-06 0.00104653 2.38811e-10 0
          1.17609e-06 4.01911e-19 0 1.03156e-10 2.38811e-10 0.00104653 1.17609e-06 1.93785e-08 4.01911e-19 1.03156e-10 0 1.55853e-30
          1.17609e-06 0.0189056 3.34077e-06 1.17609e-06 3.34077e-06 1.93785e-08 0 0 4.01911e-19 0 0 1.55853e-30
          0 0 2.38811e-10 0 2.38811e-10 1.55853e-30 1.03156e-10 1.55853e-30 2.38811e-10 0.239368 0.371764 0.317819
          0 -0 2.10966e-31 0 5.04506e-19 -0 0.454834 0.347761 0.316682 0.126414 0.0989954 0.316682
          0.458868 0.317819 0.371764 0.239368 0.271447 0.371764 0.259797 0.316682 0.0989954 0.454834 0.371764 0.347761
          0.126414 0.00220135 0.0989954 0.239368 0.317819 0.11543 0.163001 0.11543 0.317819 0 0.0989954 0.00220135
          1.17609e-06 5.04506e-19 0 0.0189056 0 0.100055 0 2.10966e-31 1.03156e-10 0 0.00104653 0.0413029
          0 0 -0 0 0 -0 0 0 0 0 0 0
          0 0 0 0 0 0 0 0 0 0 0 0
        </DataArray>
        <DataArray type="Float32" Name="pn" NumberOfComponents="1" format="ascii">
          119810 119510 119032 119810 118713 119410 115489 117958 119580 115663 115685 115829
          117958 117594 120202 115685 117958 115829 119431 118900 119032 115489 117594 116468
          115489 116468 115829 119431 118713 118900 120202 117594 119580 115489 119580 117594
          118500 119810 119032 117658 118713 119810 158500 157927 157840 157658 155657 157171
          115489 115829 117958 119431 119810 119410 119431 119510 119810 120480 117958 118342
          114138 115685 115663 117958 120202 119025 115109 122752 118342 122752 124345 122424
          114905 112452 114138 110000 115109 113372 121189 122212 124345 110000 113372 112452
          121189 120040 122212 117958 119025 117819 115663 114905 114138 120040 117819 119025
          120480 119580 117958 115685 118342 117958 120480 122424 119580 117819 118694 118190
          119810 119204 118694 119810 118659 119810 117958 117819 118190 115663 116394 114905
          118500 119204 119810 117658 116394 115663 118500 118694 119204 117658 119810 118659
          118500 117958 118190 118500 118190 118694 119810 119810 119204 119810 117358 118659
          117358 114905 116394 117358 116394 118659 117658 118659 116394 120202 122424 122212
          119431 119410 118713 119431 119032 119510 122752 120480 118342 115685 113372 118342
          124345 122212 122424 120202 119580 122424 115109 118342 113372 122752 122424 120480
          115685 114138 113372 120202 122212 119025 120040 119025 122212 112452 113372 114138
          118500 119032 118900 117958 116468 117594 118900 118713 117658 116468 115663 115829
          119810 119810 119510 119810 119810 119410 158500 158900 157927 157840 157927 156468
          158900 156468 157927 158900 157171 156468 158900 157658 157171 156468 157171 155657
        </DataArray>
        <DataArray type="Float32" Name="rhoN" NumberOfComponents="1" format="ascii">
          1460 1460 1460 1460 1460 1460 1460 1460 1460 1460 1460 1460
          1460 1460 1460 1460 1460 1460 1460 1460 1460 1460 1460 1460
          1460 1460 1460 1460 1460 1460 1460 1460 1460 1460 1460 1460
          1460 1460 1460 1460 1460 1460 1460 1460 1460 1460 1460 1460
          1460 1460 1460 1460 1460 1460 1460 1460 1460 1460 1460 1460
          1460 1460 1460 1460 1460 1460 1460 1460 1460 1460 1460 1460
          1460 1460 1460 1460 1460 1460 1460 1460 1460 1460 1460 1460
          1460 1460 1460 1460 1460 1460 1460 1460 1460 1460 1460 1460
          1460 1460 1460 1460 1460 1460 1460 1460 1460 1460 1460 1460
          1460 1460 1460 1460 1460 1460 1460 1460 1460 1460 1460 1460
          1460 1460 1460 1460 1460 1460 1460 1460 1460 1460 1460 1460
          1460 1460 1460 1460 1460 1460 1460 1460 1460 1460 1460 1460
          1460 1460 1460 1460 1460 1460 1460 1460 1460 1460 1460 1460
          1460 1460 1460 1460 1460 1460 1460 1460 1460 1460 1460 1460
          1460 1460 1460 1460 1460 1460 1460 1460 1460 1460 1460 1460
          1460 1460 1460 1460 1460 1460 1460 1460 1460 1460 1460 1460
          1460 1460 1460 1460 1460 1460 1460 1460 1460 1460 1460 1460
          1460 1460 1460 1460 1460 1460 1460 1460 1460 1460 1460 1460
          1460 1460 1460 1460 1460 1460 1460 1460 1460 1460 1460 1460
        </DataArray>
        <DataArray type="Float32" Name="mobN" NumberOfComponents="1" format="ascii">
          0 0 0 0 0 0 0 75.7302 106.216 7.28948e-06 11.865 0.437095
          0.0425062 5.98539 74.5409 11.865 75.7302 0.437095 0 0 0 0 5.98539 0
          0 0 0.437095 0 0 0 74.5409 5.98539 106.216 0 106.216 5.98539
          1.03522e-14 0 0 6.98552e-27 0 0 0 0 0 0 0 0
          0 0.437095 75.7302 0 0 0 0 0 0 210.89 75.7302 163.081
          6.77948e-05 11.865 7.28948e-06 0.0425062 74.5409 9.09859 93.9102 432.72 163.081 432.72 442.825 252.855
          0 0 6.77948e-05 0 93.9102 5.80122 118.81 164.703 442.825 0 5.80122 0
          118.81 24.8211 164.703 0.0425062 9.09859 0.000651193 7.28948e-06 0 6.77948e-05 24.8211 0.000651193 9.09859
          210.89 106.216 75.7302 11.865 163.081 75.7302 210.89 252.855 106.216 0.000651193 4.63096e-20 2.37275e-13
          0 0 4.63096e-20 0 0 0 0.0425062 0.000651193 2.37275e-13 7.28948e-06 8.66713e-26 0
          1.03522e-14 0 0 6.98552e-27 8.66713e-26 7.28948e-06 1.03522e-14 4.63096e-20 0 6.98552e-27 0 0
          1.03522e-14 0.0425062 2.37275e-13 1.03522e-14 2.37275e-13 4.63096e-20 0 0 0 0 0 0
          0 0 8.66713e-26 0 8.66713e-26 0 6.98552e-27 0 8.66713e-26 74.5409 252.855 164.703
          0 0 0 0 0 0 432.72 210.89 163.081 11.865 5.80122 163.081
          442.825 164.703 252.855 74.5409 106.216 252.855 93.9102 163.081 5.80122 432.72 252.855 210.89
          11.865 6.77948e-05 5.80122 74.5409 164.703 9.09859 24.8211 9.09859 164.703 0 5.80122 6.77948e-05
          1.03522e-14 0 0 0.0425062 0 5.98539 0 0 6.98552e-27 0 7.28948e-06 0.437095
          0 0 0 0 0 0 0 0 0 0 0 0
          0 0 0 0 0 0 0 0 0 0 0 0
        </DataArray>
      </PointData>
      <CellData Scalars="process rank">
        <DataArray type="Float32" Name="process rank" NumberOfComponents="1" format="ascii">
          0 0 0 0 0 0 0 0 0 0 0 0
          0 0 0 0 0 0 0 0 0 0 0 0
          0 0 0 0 0 0 0 0 0 0 0 0
          0 0 0 0 0 0 0 0 0 0 0 0
          0 0 0 0 0 0 0 0 0 0 0 0
          0 0 0 0 0 0 0 0 0 0 0 0
          0 0 0 0
        </DataArray>
      </CellData>
      <Points>
        <DataArray type="Float32" Name="Coordinates" NumberOfComponents="3" format="ascii">
          0.25 0 0 0.402173 0.078821 0 0.37664 0.179956 0 0.75 0 0
          0.62336 0.179956 0 0.597827 0.078821 0 0.5 0.6 0 0.57666 0.710051 0
          0.430764 0.712341 0 0.75 0.5 0 0.711417 0.719098 0 0.609787 0.602915 0
          0.25 0.5 0 0.391546 0.602561 0 0.288455 0.708047 0 0.711417 0.719098 0
          0.57666 0.710051 0 0.609787 0.602915 0 0.5 0.15 0 0.5 0.25 0
          0.37664 0.179956 0 0.5 0.6 0 0.391546 0.602561 0 0.5 0.5 0
          0.5 0.6 0 0.5 0.5 0 0.609787 0.602915 0 0.5 0.15 0
          0.62336 0.179956 0 0.5 0.25 0 0.288455 0.708047 0 0.391546 0.602561 0
          0.430764 0.712341 0 0.5 0.6 0 0.430764 0.712341 0 0.391546 0.602561 0
          0.25 0.25 0 0.25 0 0 0.37664 0.179956 0 0.75 0.25 0
          0.62336 0.179956 0 0.75 0 0 0.25 0.25 0 0.375 0.375 0
          0.25 0.5 0 0.75 0.25 0 0.75 0.5 0 0.625 0.375 0
          0.5 0.6 0 0.609787 0.602915 0 0.57666 0.710051 0 0.5 0.15 0
          0.5 0 0 0.597827 0.078821 0 0.5 0.15 0 0.402173 0.078821 0
          0.5 0 0 0.507497 0.818795 0 0.57666 0.710051 0 0.646328 0.861801 0
          0.8525 0.6475 0 0.711417 0.719098 0 0.75 0.5 0 0.25 0.5 0
          0.288455 0.708047 0 0.1475 0.6475 0 0.75 1 0 0.5 1 0
          0.646328 0.861801 0 0.5 1 0 0.25 1 0 0.360239 0.86125 0
          1 0.5 0 1 0.75 0 0.8525 0.6475 0 1 1 0
          0.75 1 0 0.8525 0.8525 0 0 1 0 0.154493 0.84607 0
          0.25 1 0 1 1 0 0.8525 0.8525 0 1 0.75 0
          0 1 0 0 0.75 0 0.154493 0.84607 0 0.25 0.5 0
          0.1475 0.6475 0 0 0.5 0 0.75 0.5 0 1 0.5 0
          0.8525 0.6475 0 0 0.75 0 0 0.5 0 0.1475 0.6475 0
          0.507497 0.818795 0 0.430764 0.712341 0 0.57666 0.710051 0 0.711417 0.719098 0
          0.646328 0.861801 0 0.57666 0.710051 0 0.507497 0.818795 0 0.360239 0.86125 0
          0.430764 0.712341 0 0 0.5 0 0 0.25 0 0.125 0.375 0
          0 0 0 0.125 0.125 0 0 0.25 0 1 0 0
          0.875 0.125 0 0.75 0 0 0.25 0.5 0 0 0.5 0
          0.125 0.375 0 0.75 0.5 0 0.875 0.375 0 1 0.5 0
          0.25 0.25 0 0.125 0.125 0 0.25 0 0 0.75 0.25 0
          0.875 0.375 0 0.75 0.5 0 0.25 0.25 0 0 0.25 0
          0.125 0.125 0 0.75 0.25 0 0.75 0 0 0.875 0.125 0
          0.25 0.25 0 0.25 0.5 0 0.125 0.375 0 0.25 0.25 0
          0.125 0.375 0 0 0.25 0 0 0 0 0.25 0 0
          0.125 0.125 0 1 0 0 1 0.25 0 0.875 0.125 0
          1 0.25 0 1 0.5 0 0.875 0.375 0 1 0.25 0
          0.875 0.375 0 0.875 0.125 0 0.75 0.25 0 0.875 0.125 0
          0.875 0.375 0 0.288455 0.708047 0 0.360239 0.86125 0 0.154493 0.84607 0
          0.5 0.15 0 0.597827 0.078821 0 0.62336 0.179956 0 0.5 0.15 0
          0.37664 0.179956 0 0.402173 0.078821 0 0.5 1 0 0.507497 0.818795 0
          0.646328 0.861801 0 0.711417 0.719098 0 0.8525 0.8525 0 0.646328 0.861801 0
          0.25 1 0 0.154493 0.84607 0 0.360239 0.86125 0 0.288455 0.708047 0
          0.430764 0.712341 0 0.360239 0.86125 0 0.75 1 0 0.646328 0.861801 0
          0.8525 0.8525 0 0.5 1 0 0.360239 0.86125 0 0.507497 0.818795 0
          0.711417 0.719098 0 0.8525 0.6475 0 0.8525 0.8525 0 0.288455 0.708047 0
          0.154493 0.84607 0 0.1475 0.6475 0 0 0.75 0 0.1475 0.6475 0
          0.154493 0.84607 0 1 0.75 0 0.8525 0.8525 0 0.8525 0.6475 0
          0.25 0.25 0 0.37664 0.179956 0 0.5 0.25 0 0.25 0.5 0
          0.5 0.5 0 0.391546 0.602561 0 0.5 0.25 0 0.62336 0.179956 0
          0.75 0.25 0 0.5 0.5 0 0.75 0.5 0 0.609787 0.602915 0
          0.25 0 0 0.5 0 0 0.402173 0.078821 0 0.5 0 0
          0.75 0 0 0.597827 0.078821 0 0.25 0.25 0 0.5 0.25 0
          0.375 0.375 0 0.25 0.5 0 0.375 0.375 0 0.5 0.5 0
          0.5 0.25 0 0.5 0.5 0 0.375 0.375 0 0.5 0.25 0
          0.625 0.375 0 0.5 0.5 0 0.5 0.25 0 0.75 0.25 0
          0.625 0.375 0 0.5 0.5 0 0.625 0.375 0 0.75 0.5 0
        </DataArray>
      </Points>
      <Cells>
        <DataArray type="Int32" Name="connectivity" NumberOfComponents="1" format="ascii">
          0 1 2 3 4 5 6 7 8 9 10 11
          12 13 14 15 16 17 18 19 20 21 22 23
          24 25 26 27 28 29 30 31 32 33 34 35
          36 37 38 39 40 41 42 43 44 45 46 47
          48 49 50 51 52 53 54 55 56 57 58 59
          60 61 62 63 64 65 66 67 68 69 70 71
          72 73 74 75 76 77 78 79 80 81 82 83
          84 85 86 87 88 89 90 91 92 93 94 95
          96 97 98 99 100 101 102 103 104 105 106 107
          108 109 110 111 112 113 114 115 116 117 118 119
          120 121 122 123 124 125 126 127 128 129 130 131
          132 133 134 135 136 137 138 139 140 141 142 143
          144 145 146 147 148 149 150 151 152 153 154 155
          156 157 158 159 160 161 162 163 164 165 166 167
          168 169 170 171 172 173 174 175 176 177 178 179
          180 181 182 183 184 185 186 187 188 189 190 191
          192 193 194 195 196 197 198 199 200 201 202 203
          204 205 206 207 208 209 210 211 212 213 214 215
          216 217 218 219 220 221 222 223 224 225 226 227
        </DataArray>
        <DataArray type="Int32" Name="offsets" NumberOfComponents="1" format="ascii">
          3 6 9 12 15 18 21 24 27 30 33 36
          39 42 45 48 51 54 57 60 63 66 69 72
          75 78 81 84 87 90 93 96 99 102 105 108
          111 114 117 120 123 126 129 132 135 138 141 144
          147 150 153 156 159 162 165 168 171 174 177 180
          183 186 189 192 195 198 201 204 207 210 213 216
          219 222 225 228
        </DataArray>
        <DataArray type="UInt8" Name="types" NumberOfComponents="1" format="ascii">
          5 5 5 5 5 5 5 5 5 5 5 5
          5 5 5 5 5 5 5 5 5 5 5 5
          5 5 5 5 5 5 5 5 5 5 5 5
          5 5 5 5 5 5 5 5 5 5 5 5
          5 5 5 5 5 5 5 5 5 5 5 5
          5 5 5 5 5 5 5 5 5 5 5 5
          5 5 5 5
        </DataArray>
      </Cells>
    </Piece>
  </UnstructuredGrid>
</VTKFile>
