<?xml version="1.0"?>
<VTKFile type="UnstructuredGrid" version="0.1" byte_order="LittleEndian">
  <UnstructuredGrid>
    <Piece NumberOfCells="324" NumberOfPoints="1296">
      <PointData Scalars="porosity">
        <DataArray type="Float32" Name="porosity" NumberOfComponents="1" format="ascii">
          0.15 0.15 0.15 0.15 0.15 0.15 0.15 0.15 0.15 0.15 0.15 0.15
          0.15 0.15 0.15 0.15 0.15 0.15 0.15 0.15 0.15 0.15 0.15 0.15
          0.15 0.15 0.15 0.15 0.15 0.15 0.15 0.15 0.15 0.15 0.15 0.15
          0.15 0.15 0.15 0.15 0.15 0.15 0.15 0.15 0.15 0.15 0.15 0.15
          0.15 0.15 0.15 0.15 0.15 0.15 0.15 0.15 0.15 0.15 0.15 0.15
          0.15 0.15 0.15 0.15 0.15 0.15 0.15 0.15 0.15 0.15 0.15 0.15
          0.15 0.15 0.15 0.15 0.15 0.15 0.15 0.15 0.15 0.15 0.15 0.15
          0.15 0.15 0.15 0.15 0.15 0.15 0.15 0.15 0.15 0.15 0.15 0.15
          0.15 0.15 0.15 0.15 0.15 0.15 0.15 0.15 0.15 0.15 0.15 0.15
          0.15 0.15 0.15 0.15 0.15 0.15 0.15 0.15 0.15 0.15 0.15 0.15
          0.15 0.15 0.15 0.15 0.15 0.15 0.15 0.15 0.15 0.15 0.15 0.15
          0.15 0.15 0.15 0.15 0.15 0.15 0.15 0.15 0.15 0.15 0.15 0.15
          0.15 0.15 0.15 0.15 0.15 0.15 0.15 0.15 0.15 0.15 0.15 0.15
          0.15 0.15 0.15 0.15 0.15 0.15 0.15 0.15 0.15 0.15 0.15 0.15
          0.15 0.15 0.15 0.15 0.15 0.15 0.15 0.15 0.15 0.15 0.15 0.15
          0.15 0.15 0.15 0.15 0.15 0.15 0.15 0.15 0.15 0.15 0.15 0.15
          0.15 0.15 0.15 0.15 0.15 0.15 0.15 0.15 0.15 0.15 0.15 0.15
          0.15 0.15 0.15 0.15 0.15 0.15 0.15 0.15 0.15 0.15 0.15 0.15
          0.15 0.15 0.15 0.15 0.15 0.15 0.15 0.15 0.15 0.15 0.15 0.15
          0.15 0.15 0.15 0.15 0.15 0.15 0.15 0.15 0.15 0.15 0.15 0.15
          0.15 0.15 0.15 0.15 0.15 0.15 0.15 0.15 0.15 0.15 0.15 0.15
          0.15 0.15 0.15 0.15 0.15 0.15 0.15 0.15 0.15 0.15 0.15 0.15
          0.15 0.15 0.15 0.15 0.15 0.15 0.15 0.15 0.15 0.15 0.15 0.15
          0.15 0.15 0.15 0.15 0.15 0.15 0.15 0.15 0.15 0.15 0.15 0.15
          0.15 0.15 0.15 0.15 0.15 0.15 0.15 0.15 0.15 0.15 0.15 0.15
          0.15 0.15 0.15 0.15 0.15 0.15 0.15 0.15 0.15 0.15 0.15 0.15
          0.15 0.15 0.15 0.15 0.15 0.15 0.15 0.15 0.15 0.15 0.15 0.15
          0.15 0.15 0.15 0.15 0.15 0.15 0.15 0.15 0.15 0.15 0.15 0.15
          0.15 0.15 0.15 0.15 0.15 0.15 0.15 0.15 0.15 0.15 0.15 0.15
          0.15 0.15 0.15 0.15 0.15 0.15 0.15 0.15 0.15 0.15 0.15 0.15
          0.15 0.15 0.15 0.15 0.15 0.15 0.15 0.15 0.15 0.15 0.15 0.15
          0.15 0.15 0.15 0.15 0.15 0.15 0.15 0.15 0.15 0.15 0.15 0.15
          0.15 0.15 0.15 0.15 0.15 0.15 0.15 0.15 0.15 0.15 0.15 0.15
          0.15 0.15 0.15 0.15 0.15 0.15 0.15 0.15 0.15 0.15 0.15 0.15
          0.15 0.15 0.15 0.15 0.15 0.15 0.15 0.15 0.15 0.15 0.15 0.15
          0.15 0.15 0.15 0.15 0.15 0.15 0.15 0.15 0.15 0.15 0.15 0.15
          0.15 0.15 0.15 0.15 0.15 0.15 0.15 0.15 0.15 0.15 0.15 0.15
          0.15 0.15 0.15 0.15 0.15 0.15 0.15 0.15 0.15 0.15 0.15 0.15
          0.15 0.15 0.15 0.15 0.15 0.15 0.15 0.15 0.15 0.15 0.15 0.15
          0.15 0.15 0.15 0.15 0.15 0.15 0.15 0.15 0.15 0.15 0.15 0.15
          0.15 0.15 0.15 0.15 0.15 0.15 0.15 0.15 0.15 0.15 0.15 0.15
          0.15 0.15 0.15 0.15 0.15 0.15 0.15 0.15 0.15 0.15 0.15 0.15
          0.15 0.15 0.15 0.15 0.15 0.15 0.15 0.15 0.15 0.15 0.15 0.15
          0.15 0.15 0.15 0.15 0.15 0.15 0.15 0.15 0.15 0.15 0.15 0.15
          0.15 0.15 0.15 0.15 0.15 0.15 0.15 0.15 0.15 0.15 0.15 0.15
          0.15 0.15 0.15 0.15 0.15 0.15 0.15 0.15 0.15 0.15 0.15 0.15
          0.15 0.15 0.15 0.15 0.15 0.15 0.15 0.15 0.15 0.15 0.15 0.15
          0.15 0.15 0.15 0.15 0.15 0.15 0.15 0.15 0.15 0.15 0.15 0.15
          0.15 0.15 0.15 0.15 0.15 0.15 0.15 0.15 0.15 0.15 0.15 0.15
          0.15 0.15 0.15 0.15 0.15 0.15 0.15 0.15 0.15 0.15 0.15 0.15
          0.15 0.15 0.15 0.15 0.15 0.15 0.15 0.15 0.15 0.15 0.15 0.15
          0.15 0.15 0.15 0.15 0.15 0.15 0.15 0.15 0.15 0.15 0.15 0.15
          0.15 0.15 0.15 0.15 0.15 0.15 0.15 0.15 0.15 0.15 0.15 0.15
          0.15 0.15 0.15 0.15 0.15 0.15 0.15 0.15 0.15 0.15 0.15 0.15
          0.15 0.15 0.15 0.15 0.15 0.15 0.15 0.15 0.15 0.15 0.15 0.15
          0.15 0.15 0.15 0.15 0.15 0.15 0.15 0.15 0.15 0.15 0.15 0.15
          0.15 0.15 0.15 0.15 0.15 0.15 0.15 0.15 0.15 0.15 0.15 0.15
          0.15 0.15 0.15 0.15 0.15 0.15 0.15 0.15 0.15 0.15 0.15 0.15
          0.15 0.15 0.15 0.15 0.15 0.15 0.15 0.15 0.15 0.15 0.15 0.15
          0.15 0.15 0.15 0.15 0.15 0.15 0.15 0.15 0.15 0.15 0.15 0.15
          0.15 0.15 0.15 0.15 0.15 0.15 0.15 0.15 0.15 0.15 0.15 0.15
          0.15 0.15 0.15 0.15 0.15 0.15 0.15 0.15 0.15 0.15 0.15 0.15
          0.15 0.15 0.15 0.15 0.15 0.15 0.15 0.15 0.15 0.15 0.15 0.15
          0.15 0.15 0.15 0.15 0.15 0.15 0.15 0.15 0.15 0.15 0.15 0.15
          0.15 0.15 0.15 0.15 0.15 0.15 0.15 0.15 0.15 0.15 0.15 0.15
          0.15 0.15 0.15 0.15 0.15 0.15 0.15 0.15 0.15 0.15 0.15 0.15
          0.15 0.15 0.15 0.15 0.15 0.15 0.15 0.15 0.15 0.15 0.15 0.15
          0.15 0.15 0.15 0.15 0.15 0.15 0.15 0.15 0.15 0.15 0.15 0.15
          0.15 0.15 0.15 0.15 0.15 0.15 0.15 0.15 0.15 0.15 0.15 0.15
          0.15 0.15 0.15 0.15 0.15 0.15 0.15 0.15 0.15 0.15 0.15 0.15
          0.15 0.15 0.15 0.15 0.15 0.15 0.15 0.15 0.15 0.15 0.15 0.15
          0.15 0.15 0.15 0.15 0.15 0.15 0.15 0.15 0.15 0.15 0.15 0.15
          0.15 0.15 0.15 0.15 0.15 0.15 0.15 0.15 0.15 0.15 0.15 0.15
          0.15 0.15 0.15 0.15 0.15 0.15 0.15 0.15 0.15 0.15 0.15 0.15
          0.15 0.15 0.15 0.15 0.15 0.15 0.15 0.15 0.15 0.15 0.15 0.15
          0.15 0.15 0.15 0.15 0.15 0.15 0.15 0.15 0.15 0.15 0.15 0.15
          0.15 0.15 0.15 0.15 0.15 0.15 0.15 0.15 0.15 0.15 0.15 0.15
          0.15 0.15 0.15 0.15 0.15 0.15 0.15 0.15 0.15 0.15 0.15 0.15
          0.15 0.15 0.15 0.15 0.15 0.15 0.15 0.15 0.15 0.15 0.15 0.15
          0.15 0.15 0.15 0.15 0.15 0.15 0.15 0.15 0.15 0.15 0.15 0.15
          0.15 0.15 0.15 0.15 0.15 0.15 0.15 0.15 0.15 0.15 0.15 0.15
          0.15 0.15 0.15 0.15 0.15 0.15 0.15 0.15 0.15 0.15 0.15 0.15
          0.15 0.15 0.15 0.15 0.15 0.15 0.15 0.15 0.15 0.15 0.15 0.15
          0.15 0.15 0.15 0.15 0.15 0.15 0.15 0.15 0.15 0.15 0.15 0.15
          0.15 0.15 0.15 0.15 0.15 0.15 0.15 0.15 0.15 0.15 0.15 0.15
          0.15 0.15 0.15 0.15 0.15 0.15 0.15 0.15 0.15 0.15 0.15 0.15
          0.15 0.15 0.15 0.15 0.15 0.15 0.15 0.15 0.15 0.15 0.15 0.15
          0.15 0.15 0.15 0.15 0.15 0.15 0.15 0.15 0.15 0.15 0.15 0.15
          0.15 0.15 0.15 0.15 0.15 0.15 0.15 0.15 0.15 0.15 0.15 0.15
          0.15 0.15 0.15 0.15 0.15 0.15 0.15 0.15 0.15 0.15 0.15 0.15
          0.15 0.15 0.15 0.15 0.15 0.15 0.15 0.15 0.15 0.15 0.15 0.15
          0.15 0.15 0.15 0.15 0.15 0.15 0.15 0.15 0.15 0.15 0.15 0.15
          0.15 0.15 0.15 0.15 0.15 0.15 0.15 0.15 0.15 0.15 0.15 0.15
          0.15 0.15 0.15 0.15 0.15 0.15 0.15 0.15 0.15 0.15 0.15 0.15
          0.15 0.15 0.15 0.15 0.15 0.15 0.15 0.15 0.15 0.15 0.15 0.15
          0.15 0.15 0.15 0.15 0.15 0.15 0.15 0.15 0.15 0.15 0.15 0.15
          0.15 0.15 0.15 0.15 0.15 0.15 0.15 0.15 0.15 0.15 0.15 0.15
          0.15 0.15 0.15 0.15 0.15 0.15 0.15 0.15 0.15 0.15 0.15 0.15
          0.15 0.15 0.15 0.15 0.15 0.15 0.15 0.15 0.15 0.15 0.15 0.15
          0.15 0.15 0.15 0.15 0.15 0.15 0.15 0.15 0.15 0.15 0.15 0.15
          0.15 0.15 0.15 0.15 0.15 0.15 0.15 0.15 0.15 0.15 0.15 0.15
          0.15 0.15 0.15 0.15 0.15 0.15 0.15 0.15 0.15 0.15 0.15 0.15
          0.15 0.15 0.15 0.15 0.15 0.15 0.15 0.15 0.15 0.15 0.15 0.15
          0.15 0.15 0.15 0.15 0.15 0.15 0.15 0.15 0.15 0.15 0.15 0.15
          0.15 0.15 0.15 0.15 0.15 0.15 0.15 0.15 0.15 0.15 0.15 0.15
          0.15 0.15 0.15 0.15 0.15 0.15 0.15 0.15 0.15 0.15 0.15 0.15
          0.15 0.15 0.15 0.15 0.15 0.15 0.15 0.15 0.15 0.15 0.15 0.15
          0.15 0.15 0.15 0.15 0.15 0.15 0.15 0.15 0.15 0.15 0.15 0.15
        </DataArray>
        <DataArray type="Float32" Name="pc" NumberOfComponents="1" format="ascii">
          10473 16007.8 10473 16007.8 10000.4 10473 10000.4 10473 10472.9 16007.8 10473 16007.8
          10000.4 10472.9 10000.4 10473 10000 10000.4 10000 10000.4 10000 10000 10000 10000
          10000 10000 10000 10000 10000 10000.4 10000 10000.4 10000 10000 10000 10000
          10000 10000 10000 10000 10472.9 16007.8 10472.9 16007.8 10000.4 10472.9 10000.4 10472.9
          10473 16007.8 10472.9 16007.8 10473.6 16007.8 10473 16007.8 10000.4 10473 10000.4 10472.9
          10000.4 10473.6 10000.4 10473 10000 10000.4 10000 10000.4 10000 10000 10000 10000
          10000 10000 10000 10000 10000 10000.4 10000 10000.4 10000 10000.4 10000 10000.4
          10000 10000 10000 10000 10000 10000 10000 10000 10000 10000 10000 10000
          10000 10000 10000 10000 10000 10000 10000 10000 10000 10000 10000 10000
          10000 10000 10000 10000 10000 10000 10000 10000 10000 10000 10000 10000
          10000 10000 10000 10000 10000 10000 10000 10000 10000 10000 10000 10000
          10000 10000 10000 10000 10000 10000 10000 10000 10000 10000 10000 10000
          10000 10000 10000 10000 10000 10000 10000 10000 10000 10000 10000 10000
          10000 10000 10000 10000 10000 10000 10000 10000 10000 10000 10000 10000
          10000 10000 10000 10000 10000 10000 10000 10000 10000 10000 10000 10000
          10475.4 16007.8 10473.6 16007.8 10000.4 10475.4 10000.4 10473.6 10481.2 16007.8 10475.4 16007.8
          10000.5 10481.2 10000.4 10475.4 10000 10000.4 10000 10000.4 10000 10000 10000 10000
          10000 10000 10000 10000 10000 10000.5 10000 10000.4 10000 10000 10000 10000
          10000 10000 10000 10000 10462.5 16007.8 10481.2 16007.8 10000.4 10462.5 10000.5 10481.2
          10000 10000 10462.5 16007.8 10000 10000 10000.4 10462.5 10000 10000.4 10000 10000.5
          10000 10000 10000 10000 10000 10000 10000 10000 10000 10000 10000 10000.4
          10000 10000 10000 10000 10000 10000 10000 10000 10000 10000 10000 10000
          10000 10000 10000 10000 10000 10000 10000 10000 10000 10000 10000 10000
          10000 10000 10000 10000 10000 10000 10000 10000 10000 10000 10000 10000
          10000 10000 10000 10000 10000 10000 10000 10000 10000 10000 10000 10000
          10000 10000 10000 10000 10000 10000 10000 10000 10000 10000 10000 10000
          10000 10000 10000 10000 10000 10000 10000 10000 10000 10000 10000 10000
          10000 10000 10000 10000 10000 10000 10000 10000 10000 10000 10000 10000
          10000 10000 10000 10000 10000 10000 10000 10000 10000 10000 10000 10000
          10000 10000 10000 10000 10000 10000 10000 10000 10000 10000 10000 10000
          10000 10000 10000 10000 10000 10000 10000 10000 10000 10000 10000 10000
          10000 10000 10000 10000 10000 10000 10000 10000 10000 10000 10000 10000
          10000 10000 10000 10000 10000 10000 10000 10000 10000 10000 10000 10000
          10000 10000 10000 10000 10000 10000 10000 10000 10000 10000 10000 10000
          10000 10000 10000 10000 10000 10000 10000 10000 10000 10000 10000 10000
          10000 10000 10000 10000 10000 10000 10000 10000 10000 10000 10000 10000
          10000 10000 10000 10000 10000 10000 10000 10000 10000 10000 10000 10000
          10000 10000 10000 10000 10000 10000 10000 10000 10000 10000 10000 10000
          10000 10000 10000 10000 10000 10000 10000 10000 10000 10000 10000 10000
          10000 10000 10000 10000 10000 10000 10000 10000 10000 10000 10000 10000
          10000 10000 10000 10000 10000 10000 10000 10000 10000 10000 10000 10000
          10000 10000 10000 10000 10000 10000 10000 10000 10000 10000 10000 10000
          10000 10000 10000 10000 10000 10000 10000 10000 10000 10000 10000 10000
          10000 10000 10000 10000 10000 10000 10000 10000 10000 10000 10000 10000
          10000 10000 10000 10000 10000 10000 10000 10000 10000 10000 10000 10000
          10000 10000 10000 10000 10000 10000 10000 10000 10000 10000 10000 10000
          10000 10000 10000 10000 10000 10000 10000 10000 10000 10000 10000 10000
          10000 10000 10000 10000 10000 10000 10000 10000 10000 10000 10000 10000
          10000 10000 10000 10000 10000 10000 10000 10000 10000 10000 10000 10000
          10000 10000 10000 10000 10000 10000 10000 10000 10000 10000 10000 10000
          10000 10000 10000 10000 10000 10000 10000 10000 10000 10000 10000 10000
          10000 10000 10000 10000 10000 10000 10000 10000 10000 10000 10000 10000
          10000 10000 10000 10000 10000 10000 10000 10000 10000 10000 10000 10000
          10000 10000 10000 10000 10000 10000 10000 10000 10000 10000 10000 10000
          16007.8 10000 10462.5 10000 10462.5 10000 10000.4 10000 16007.8 16007.8 10481.2 10462.5
          10481.2 10462.5 10000.5 10000.4 10000.4 10000 10000 10000 10000 10000 10000 10000
          10000 10000 10000 10000 10000.5 10000.4 10000 10000 10000 10000 10000 10000
          10000 10000 10000 10000 16007.8 16007.8 10475.4 10481.2 10475.4 10481.2 10000.4 10000.5
          16007.8 16007.8 10473.6 10475.4 10473.6 10475.4 10000.4 10000.4 10000.4 10000.5 10000 10000
          10000 10000 10000 10000 10000 10000 10000 10000 10000.4 10000.4 10000 10000
          10000 10000 10000 10000 10000 10000 10000 10000 10000 10000 10000 10000
          10000 10000 10000 10000 10000 10000 10000 10000 10000 10000 10000 10000
          10000 10000 10000 10000 10000 10000 10000 10000 10000 10000 10000 10000
          10000 10000 10000 10000 10000 10000 10000 10000 10000 10000 10000 10000
          10000 10000 10000 10000 10000 10000 10000 10000 10000 10000 10000 10000
          10000 10000 10000 10000 10000 10000 10000 10000 10000 10000 10000 10000
          16007.8 16007.8 10473 10473.6 16007.8 16007.8 10472.9 10473 10473 10473.6 10000.4 10000.4
          10472.9 10473 10000.4 10000.4 16007.8 16007.8 10472.9 10472.9 10472.9 10472.9 10000.4 10000.4
          10000.4 10000.4 10000 10000 10000.4 10000.4 10000 10000 10000 10000 10000 10000
          10000 10000 10000 10000 10000 10000 10000 10000 10000 10000 10000 10000
          10000.4 10000.4 10000 10000 10000 10000 10000 10000 10000 10000 10000 10000
          16007.8 16007.8 10473 10472.9 10473 10472.9 10000.4 10000.4 16007.8 16007.8 10473 10473
          10473 10473 10000.4 10000.4 10000.4 10000.4 10000 10000 10000 10000 10000 10000
          10000 10000 10000 10000 10000.4 10000.4 10000 10000 10000 10000 10000 10000
          10000 10000 10000 10000 10000 10000 10000 10000 10000 10000 10000 10000
          10000 10000 10000 10000 10000 10000 10000 10000 10000 10000 10000 10000
          10000 10000 10000 10000 10000 10000 10000 10000 10000 10000 10000 10000
          10000 10000 10000 10000 10000 10000 10000 10000 10000 10000 10000 10000
          10000 10000 10000 10000 10000 10000 10000 10000 10000 10000 10000 10000
          10000 10000 10000 10000 10000 10000 10000 10000 10000 10000 10000 10000
          10000 10000 10000 10000 10000 10000 10000 10000 10000 10000 10000 10000
          10000 10000 10000 10000 10000 10000 10000 10000 10000 10000 10000 10000
          10000 10000 10000 10000 10000 10000 10000 10000 10000 10000 10000 10000
          10000 10000 10000 10000 10000 10000 10000 10000 10000 10000 10000 10000
          10000 10000 10000 10000 10000 10000 10000 10000 10000 10000 10000 10000
          10000 10000 10000 10000 10000 10000 10000 10000 10000 10000 10000 10000
          10000 10000 10000 10000 10000 10000 10000 10000 10000 10000 10000 10000
          10000 10000 10000 10000 10000 10000 10000 10000 10000 10000 10000 10000
          10000 10000 10000 10000 10000 10000 10000 10000 10000 10000 10000 10000
          10000 10000 10000 10000 10000 10000 10000 10000 10000 10000 10000 10000
          10000 10000 10000 10000 10000 10000 10000 10000 10000 10000 10000 10000
          10000 10000 10000 10000 10000 10000 10000 10000 10000 10000 10000 10000
          10000 10000 10000 10000 10000 10000 10000 10000 10000 10000 10000 10000
          10000 10000 10000 10000 10000 10000 10000 10000 10000 10000 10000 10000
          10000 10000 10000 10000 10000 10000 10000 10000 10000 10000 10000 10000
          10000 10000 10000 10000 10000 10000 10000 10000 10000 10000 10000 10000
          10000 10000 10000 10000 10000 10000 10000 10000 10000 10000 10000 10000
          10000 10000 10000 10000 10000 10000 10000 10000 10000 10000 10000 10000
          10000 10000 10000 10000 10000 10000 10000 10000 10000 10000 10000 10000
          10000 10000 10000 10000 10000 10000 10000 10000 10000 10000 10000 10000
          10000 10000 10000 10000 10000 10000 10000 10000 10000 10000 10000 10000
          10000 10000 10000 10000 10000 10000 10000 10000 10000 10000 10000 10000
          10000 10000 10000 10000 10000 10000 10000 10000 10000 10000 10000 10000
          10000 10000 10000 10000 10000 10000 10000 10000 10000 10000 10000 10000
          10000 10000 10000 10000 10000 10000 10000 10000 10000 10000 10000 10000
          10000 10000 10000 10000 10000 10000 10000 10000 10000 10000 10000 10000
          10000 10000 10000 10000 10000 10000 10000 10000 10000 10000 10000 10000
          10000 10000 10000 10000 10000 10000 10000 10000 10000 10000 10000 10000
        </DataArray>
        <DataArray type="Float32" Name="S_aq" NumberOfComponents="1" format="ascii">
          0.927609 0.5 0.927605 0.5 0.999929 0.927609 0.999929 0.927605 0.927617 0.5 0.927609 0.5
          0.999929 0.927617 0.999929 0.927609 1 0.999929 1 0.999929 1 1 1 1
          1 1 1 1 1 0.999929 1 0.999929 1 1 1 1
          1 1 1 1 0.927621 0.5 0.927617 0.5 0.999929 0.927621 0.999929 0.927617
          0.927601 0.5 0.927621 0.5 0.927516 0.5 0.927601 0.5 0.999929 0.927601 0.999929 0.927621
          0.999928 0.927516 0.999929 0.927601 1 0.999929 1 0.999929 1 1 1 1
          1 1 1 1 1 0.999929 1 0.999929 1 0.999928 1 0.999929
          1 1 1 1 1 1 1 1 1 1 1 1
          1 1 1 1 1 1 1 1 1 1 1 1
          1 1 1 1 1 1 1 1 1 1 1 1
          1 1 1 1 1 1 1 1 1 1 1 1
          1 1 1 1 1 1 1 1 1 1 1 1
          1 1 1 1 1 1 1 1 1 1 1 1
          1 1 1 1 1 1 1 1 1 1 1 1
          1 1 1 1 1 1 1 1 1 1 1 1
          0.927262 0.5 0.927516 0.5 0.999928 0.927262 0.999928 0.927516 0.92643 0.5 0.927262 0.5
          0.999926 0.92643 0.999928 0.927262 1 0.999928 1 0.999928 1 1 1 1
          1 1 1 1 1 0.999926 1 0.999928 1 1 1 1
          1 1 1 1 0.929112 0.5 0.92643 0.5 0.999938 0.929112 0.999926 0.92643
          1 1 0.929112 0.5 1 1 0.999938 0.929112 1 0.999938 1 0.999926
          1 1 1 1 1 1 1 1 1 1 1 0.999938
          1 1 1 1 1 1 1 1 1 1 1 1
          1 1 1 1 1 1 1 1 1 1 1 1
          1 1 1 1 1 1 1 1 1 1 1 1
          1 1 1 1 1 1 1 1 1 1 1 1
          1 1 1 1 1 1 1 1 1 1 1 1
          1 1 1 1 1 1 1 1 1 1 1 1
          1 1 1 1 1 1 1 1 1 1 1 1
          1 1 1 1 1 1 1 1 1 1 1 1
          1 1 1 1 1 1 1 1 1 1 1 1
          1 1 1 1 1 1 1 1 1 1 1 1
          1 1 1 1 1 1 1 1 1 1 1 1
          1 1 1 1 1 1 1 1 1 1 1 1
          1 1 1 1 1 1 1 1 1 1 1 1
          1 1 1 1 1 1 1 1 1 1 1 1
          1 1 1 1 1 1 1 1 1 1 1 1
          1 1 1 1 1 1 1 1 1 1 1 1
          1 1 1 1 1 1 1 1 1 1 1 1
          1 1 1 1 1 1 1 1 1 1 1 1
          1 1 1 1 1 1 1 1 1 1 1 1
          1 1 1 1 1 1 1 1 1 1 1 1
          1 1 1 1 1 1 1 1 1 1 1 1
          1 1 1 1 1 1 1 1 1 1 1 1
          1 1 1 1 1 1 1 1 1 1 1 1
          1 1 1 1 1 1 1 1 1 1 1 1
          1 1 1 1 1 1 1 1 1 1 1 1
          1 1 1 1 1 1 1 1 1 1 1 1
          1 1 1 1 1 1 1 1 1 1 1 1
          1 1 1 1 1 1 1 1 1 1 1 1
          1 1 1 1 1 1 1 1 1 1 1 1
          1 1 1 1 1 1 1 1 1 1 1 1
          1 1 1 1 1 1 1 1 1 1 1 1
          1 1 1 1 1 1 1 1 1 1 1 1
          1 1 1 1 1 1 1 1 1 1 1 1
          0.5 1 0.929112 1 0.929112 1 0.999938 1 0.5 0.5 0.92643 0.929112
          0.92643 0.929112 0.999926 0.999938 0.999938 1 1 1 1 1 1 1
          1 1 1 1 0.999926 0.999938 1 1 1 1 1 1
          1 1 1 1 0.5 0.5 0.927262 0.92643 0.927262 0.92643 0.999928 0.999926
          0.5 0.5 0.927516 0.927262 0.927516 0.927262 0.999928 0.999928 0.999928 0.999926 1 1
          1 1 1 1 1 1 1 1 0.999928 0.999928 1 1
          1 1 1 1 1 1 1 1 1 1 1 1
          1 1 1 1 1 1 1 1 1 1 1 1
          1 1 1 1 1 1 1 1 1 1 1 1
          1 1 1 1 1 1 1 1 1 1 1 1
          1 1 1 1 1 1 1 1 1 1 1 1
          1 1 1 1 1 1 1 1 1 1 1 1
          0.5 0.5 0.927601 0.927516 0.5 0.5 0.927621 0.927601 0.927601 0.927516 0.999929 0.999928
          0.927621 0.927601 0.999929 0.999929 0.5 0.5 0.927617 0.927621 0.927617 0.927621 0.999929 0.999929
          0.999929 0.999928 1 1 0.999929 0.999929 1 1 1 1 1 1
          1 1 1 1 1 1 1 1 1 1 1 1
          0.999929 0.999929 1 1 1 1 1 1 1 1 1 1
          0.5 0.5 0.927609 0.927617 0.927609 0.927617 0.999929 0.999929 0.5 0.5 0.927605 0.927609
          0.927605 0.927609 0.999929 0.999929 0.999929 0.999929 1 1 1 1 1 1
          1 1 1 1 0.999929 0.999929 1 1 1 1 1 1
          1 1 1 1 1 1 1 1 1 1 1 1
          1 1 1 1 1 1 1 1 1 1 1 1
          1 1 1 1 1 1 1 1 1 1 1 1
          1 1 1 1 1 1 1 1 1 1 1 1
          1 1 1 1 1 1 1 1 1 1 1 1
          1 1 1 1 1 1 1 1 1 1 1 1
          1 1 1 1 1 1 1 1 1 1 1 1
          1 1 1 1 1 1 1 1 1 1 1 1
          1 1 1 1 1 1 1 1 1 1 1 1
          1 1 1 1 1 1 1 1 1 1 1 1
          1 1 1 1 1 1 1 1 1 1 1 1
          1 1 1 1 1 1 1 1 1 1 1 1
          1 1 1 1 1 1 1 1 1 1 1 1
          1 1 1 1 1 1 1 1 1 1 1 1
          1 1 1 1 1 1 1 1 1 1 1 1
          1 1 1 1 1 1 1 1 1 1 1 1
          1 1 1 1 1 1 1 1 1 1 1 1
          1 1 1 1 1 1 1 1 1 1 1 1
          1 1 1 1 1 1 1 1 1 1 1 1
          1 1 1 1 1 1 1 1 1 1 1 1
          1 1 1 1 1 1 1 1 1 1 1 1
          1 1 1 1 1 1 1 1 1 1 1 1
          1 1 1 1 1 1 1 1 1 1 1 1
          1 1 1 1 1 1 1 1 1 1 1 1
          1 1 1 1 1 1 1 1 1 1 1 1
          1 1 1 1 1 1 1 1 1 1 1 1
          1 1 1 1 1 1 1 1 1 1 1 1
          1 1 1 1 1 1 1 1 1 1 1 1
          1 1 1 1 1 1 1 1 1 1 1 1
          1 1 1 1 1 1 1 1 1 1 1 1
          1 1 1 1 1 1 1 1 1 1 1 1
          1 1 1 1 1 1 1 1 1 1 1 1
          1 1 1 1 1 1 1 1 1 1 1 1
          1 1 1 1 1 1 1 1 1 1 1 1
        </DataArray>
        <DataArray type="Float32" Name="p_aq" NumberOfComponents="1" format="ascii">
          195976 200000 195974 200000 188216 195976 188213 195974 195980 200000 195976 200000
          188225 195980 188216 195976 182827 188216 182823 188213 177431 182827 177426 182823
          172024 177431 172016 177426 182840 188225 182827 188216 177449 182840 177431 182827
          172047 177449 172024 177431 195987 200000 195980 200000 188238 195987 188225 195980
          195995 200000 195987 200000 196000 200000 195995 200000 188254 195995 188238 195987
          188269 196000 188254 195995 182860 188238 182840 188225 177478 182860 177449 182840
          172086 177478 172047 177449 182886 188254 182860 188238 182916 188269 182886 188254
          177517 182886 177478 182860 172139 177517 172086 177478 177565 182916 177517 182886
          172207 177565 172139 177517 166601 172024 166592 172016 161160 166601 161149 166592
          166630 172047 166601 172024 161193 166630 161160 166601 155697 161160 155685 161149
          150209 155697 150197 155685 155733 161193 155697 161160 150246 155733 150209 155697
          166678 172086 166630 172047 161249 166678 161193 166630 166746 172139 166678 172086
          166836 172207 166746 172139 161332 166746 161249 166678 161445 166836 161332 166746
          155795 161249 155733 161193 150311 155795 150246 155733 155888 161332 155795 161249
          156019 161445 155888 161332 150407 155888 150311 155795 150545 156019 150407 155888
          195995 200000 196000 200000 188273 195995 188269 196000 195938 200000 195995 200000
          188256 195938 188273 195995 182946 188273 182916 188269 177620 182946 177565 182916
          172286 177620 172207 177565 182986 188256 182946 188273 177683 182986 177620 182946
          172370 177683 172286 177620 195568 200000 195938 200000 188290 195568 188256 195938
          194565 200000 195568 200000 188824 194565 188290 195568 183072 188290 182986 188256
          177746 183072 177683 182986 172445 177746 172370 177683 183141 188824 183072 188290
          177782 183141 177746 183072 172492 177782 172445 177746 166945 172286 166836 172207
          161591 166945 161445 166836 167064 172370 166945 172286 161769 167064 161591 166945
          156200 161591 156019 161445 150742 156200 150545 156019 156454 161769 156200 161591
          151035 156454 150742 156200 167172 172445 167064 172370 161939 167172 161769 167064
          167251 172492 167172 172445 162041 167251 161939 167172 156809 161939 156454 161769
          151545 156809 151035 156454 156914 162041 156809 161939 153165 156914 151545 156809
          150209 150197 144698 144686 144698 144686 139162 139152 150246 150209 144733 144698
          144733 144698 139195 139162 139162 139152 133605 133596 133605 133596 128030 128023
          139195 139162 133633 133605 133633 133605 128052 128030 150311 150246 144795 144733
          144795 144733 139250 139195 150407 150311 144887 144795 150545 150407 145017 144887
          144887 144795 139331 139250 145017 144887 139441 139331 139250 139195 133679 133633
          133679 133633 128089 128052 139331 139250 133745 133679 139441 139331 133831 133745
          133745 133679 128140 128089 133831 133745 128202 128140 128030 128023 122441 122435
          122441 122435 116840 116836 116840 116836 111231 111228 128052 128030 122457 122441
          122457 122441 116851 116840 116851 116840 111238 111231 111231 111228 105616 105615
          105616 105615 100000 100000 111238 111231 105620 105616 105620 105616 100000 100000
          128089 128052 122485 122457 122485 122457 116871 116851 116871 116851 111250 111238
          128140 128089 122522 122485 122522 122485 116896 116871 128202 128140 122565 122522
          122565 122522 116925 116896 116896 116871 111266 111250 116925 116896 111284 111266
          111250 111238 105626 105620 105626 105620 100000 100000 111266 111250 105633 105626
          111284 111266 105642 105633 105633 105626 100000 100000 105642 105633 100000 100000
          150742 150545 145198 145017 145198 145017 139584 139441 151035 150742 145453 145198
          145453 145198 139759 139584 139584 139441 133933 133831 133933 133831 128272 128202
          139759 139584 134042 133933 134042 133933 128340 128272 151545 151035 145827 145453
          145827 145453 139930 139759 153165 151545 146050 145827 146050 145827 140006 139930
          139930 139759 134131 134042 134131 134042 128391 128340 140006 139930 134166 134131
          134166 134131 128410 128391 128272 128202 122612 122565 122612 122565 116955 116925
          116955 116925 111301 111284 128340 128272 122655 122612 122655 122612 116982 116955
          116982 116955 111317 111301 111301 111284 105650 105642 105650 105642 100000 100000
          111317 111301 105657 105650 105657 105650 100000 100000 128391 128340 122685 122655
          122685 122655 117000 116982 117000 116982 111328 111317 128410 128391 122697 122685
          122697 122685 117007 117000 117007 117000 111331 111328 111328 111317 105662 105657
          105662 105657 100000 100000 111331 111328 105664 105662 105664 105662 100000 100000
          200000 200000 195568 194565 195568 194565 188290 188824 200000 200000 195938 195568
          195938 195568 188256 188290 188290 188824 183072 183141 183072 183141 177746 177782
          177746 177782 172445 172492 188256 188290 182986 183072 182986 183072 177683 177746
          177683 177746 172370 172445 200000 200000 195995 195938 195995 195938 188273 188256
          200000 200000 196000 195995 196000 195995 188269 188273 188273 188256 182946 182986
          182946 182986 177620 177683 177620 177683 172286 172370 188269 188273 182916 182946
          182916 182946 177565 177620 177565 177620 172207 172286 172445 172492 167172 167251
          167172 167251 161939 162041 172370 172445 167064 167172 167064 167172 161769 161939
          161939 162041 156809 156914 156809 156914 151545 153165 161769 161939 156454 156809
          156454 156809 151035 151545 172286 172370 166945 167064 166945 167064 161591 161769
          172207 172286 166836 166945 166836 166945 161445 161591 161591 161769 156200 156454
          156200 156454 150742 151035 161445 161591 156019 156200 156019 156200 150545 150742
          200000 200000 195995 196000 200000 200000 195987 195995 195995 196000 188254 188269
          195987 195995 188238 188254 200000 200000 195980 195987 195980 195987 188225 188238
          188254 188269 182886 182916 188238 188254 182860 182886 182886 182916 177517 177565
          177517 177565 172139 172207 182860 182886 177478 177517 177478 177517 172086 172139
          188225 188238 182840 182860 182840 182860 177449 177478 177449 177478 172047 172086
          200000 200000 195976 195980 195976 195980 188216 188225 200000 200000 195974 195976
          195974 195976 188213 188216 188216 188225 182827 182840 182827 182840 177431 177449
          177431 177449 172024 172047 188213 188216 182823 182827 182823 182827 177426 177431
          177426 177431 172016 172024 172139 172207 166746 166836 172086 172139 166678 166746
          166746 166836 161332 161445 166678 166746 161249 161332 172047 172086 166630 166678
          166630 166678 161193 161249 161332 161445 155888 156019 161249 161332 155795 155888
          155888 156019 150407 150545 155795 155888 150311 150407 161193 161249 155733 155795
          155733 155795 150246 150311 172024 172047 166601 166630 166601 166630 161160 161193
          172016 172024 166592 166601 166592 166601 161149 161160 161160 161193 155697 155733
          155697 155733 150209 150246 161149 161160 155685 155697 155685 155697 150197 150209
          151545 153165 145827 146050 145827 146050 139930 140006 151035 151545 145453 145827
          145453 145827 139759 139930 139930 140006 134131 134166 134131 134166 128391 128410
          139759 139930 134042 134131 134042 134131 128340 128391 150742 151035 145198 145453