<?xml version="1.0"?>
<VTKFile type="UnstructuredGrid" version="0.1" byte_order="LittleEndian">
  <UnstructuredGrid>
    <Piece NumberOfCells="400" NumberOfPoints="1600">
      <PointData Scalars="porosity">
        <DataArray type="Float32" Name="porosity" NumberOfComponents="1" format="ascii">
          0.15 0.15 0.15 0.15 0.15 0.15 0.15 0.15 0.15 0.15 0.15 0.15
          0.15 0.15 0.15 0.15 0.15 0.15 0.15 0.15 0.15 0.15 0.15 0.15
          0.15 0.15 0.15 0.15 0.15 0.15 0.15 0.15 0.15 0.15 0.15 0.15
          0.15 0.15 0.15 0.15 0.15 0.15 0.15 0.15 0.15 0.15 0.15 0.15
          0.15 0.15 0.15 0.15 0.15 0.15 0.15 0.15 0.15 0.15 0.15 0.15
          0.15 0.15 0.15 0.15 0.15 0.15 0.15 0.15 0.15 0.15 0.15 0.15
          0.15 0.15 0.15 0.15 0.15 0.15 0.15 0.15 0.15 0.15 0.15 0.15
          0.15 0.15 0.15 0.15 0.15 0.15 0.15 0.15 0.15 0.15 0.15 0.15
          0.15 0.15 0.15 0.15 0.15 0.15 0.15 0.15 0.15 0.15 0.15 0.15
          0.15 0.15 0.15 0.15 0.15 0.15 0.15 0.15 0.15 0.15 0.15 0.15
          0.15 0.15 0.15 0.15 0.15 0.15 0.15 0.15 0.15 0.15 0.15 0.15
          0.15 0.15 0.15 0.15 0.15 0.15 0.15 0.15 0.15 0.15 0.15 0.15
          0.15 0.15 0.15 0.15 0.15 0.15 0.15 0.15 0.15 0.15 0.15 0.15
          0.15 0.15 0.15 0.15 0.15 0.15 0.15 0.15 0.15 0.15 0.15 0.15
          0.15 0.15 0.15 0.15 0.15 0.15 0.15 0.15 0.15 0.15 0.15 0.15
          0.15 0.15 0.15 0.15 0.15 0.15 0.15 0.15 0.15 0.15 0.15 0.15
          0.15 0.15 0.15 0.15 0.15 0.15 0.15 0.15 0.15 0.15 0.15 0.15
          0.15 0.15 0.15 0.15 0.15 0.15 0.15 0.15 0.15 0.15 0.15 0.15
          0.15 0.15 0.15 0.15 0.15 0.15 0.15 0.15 0.15 0.15 0.15 0.15
          0.15 0.15 0.15 0.15 0.15 0.15 0.15 0.15 0.15 0.15 0.15 0.15
          0.15 0.15 0.15 0.15 0.15 0.15 0.15 0.15 0.15 0.15 0.15 0.15
          0.15 0.15 0.15 0.15 0.15 0.15 0.15 0.15 0.15 0.15 0.15 0.15
          0.15 0.15 0.15 0.15 0.15 0.15 0.15 0.15 0.15 0.15 0.15 0.15
          0.15 0.15 0.15 0.15 0.15 0.15 0.15 0.15 0.15 0.15 0.15 0.15
          0.15 0.15 0.15 0.15 0.15 0.15 0.15 0.15 0.15 0.15 0.15 0.15
          0.15 0.15 0.15 0.15 0.15 0.15 0.15 0.15 0.15 0.15 0.15 0.15
          0.15 0.15 0.15 0.15 0.15 0.15 0.15 0.15 0.15 0.15 0.15 0.15
          0.15 0.15 0.15 0.15 0.15 0.15 0.15 0.15 0.15 0.15 0.15 0.15
          0.15 0.15 0.15 0.15 0.15 0.15 0.15 0.15 0.15 0.15 0.15 0.15
          0.15 0.15 0.15 0.15 0.15 0.15 0.15 0.15 0.15 0.15 0.15 0.15
          0.15 0.15 0.15 0.15 0.15 0.15 0.15 0.15 0.15 0.15 0.15 0.15
          0.15 0.15 0.15 0.15 0.15 0.15 0.15 0.15 0.15 0.15 0.15 0.15
          0.15 0.15 0.15 0.15 0.15 0.15 0.15 0.15 0.15 0.15 0.15 0.15
          0.15 0.15 0.15 0.15 0.15 0.15 0.15 0.15 0.15 0.15 0.15 0.15
          0.15 0.15 0.15 0.15 0.15 0.15 0.15 0.15 0.15 0.15 0.15 0.15
          0.15 0.15 0.15 0.15 0.15 0.15 0.15 0.15 0.15 0.15 0.15 0.15
          0.15 0.15 0.15 0.15 0.15 0.15 0.15 0.15 0.15 0.15 0.15 0.15
          0.15 0.15 0.15 0.15 0.15 0.15 0.15 0.15 0.15 0.15 0.15 0.15
          0.15 0.15 0.15 0.15 0.15 0.15 0.15 0.15 0.15 0.15 0.15 0.15
          0.15 0.15 0.15 0.15 0.15 0.15 0.15 0.15 0.15 0.15 0.15 0.15
          0.15 0.15 0.15 0.15 0.15 0.15 0.15 0.15 0.15 0.15 0.15 0.15
          0.15 0.15 0.15 0.15 0.15 0.15 0.15 0.15 0.15 0.15 0.15 0.15
          0.15 0.15 0.15 0.15 0.15 0.15 0.15 0.15 0.15 0.15 0.15 0.15
          0.15 0.15 0.15 0.15 0.15 0.15 0.15 0.15 0.15 0.15 0.15 0.15
          0.15 0.15 0.15 0.15 0.15 0.15 0.15 0.15 0.15 0.15 0.15 0.15
          0.15 0.15 0.15 0.15 0.15 0.15 0.15 0.15 0.15 0.15 0.15 0.15
          0.15 0.15 0.15 0.15 0.15 0.15 0.15 0.15 0.15 0.15 0.15 0.15
          0.15 0.15 0.15 0.15 0.15 0.15 0.15 0.15 0.15 0.15 0.15 0.15
          0.15 0.15 0.15 0.15 0.15 0.15 0.15 0.15 0.15 0.15 0.15 0.15
          0.15 0.15 0.15 0.15 0.15 0.15 0.15 0.15 0.15 0.15 0.15 0.15
          0.15 0.15 0.15 0.15 0.15 0.15 0.15 0.15 0.15 0.15 0.15 0.15
          0.15 0.15 0.15 0.15 0.15 0.15 0.15 0.15 0.15 0.15 0.15 0.15
          0.15 0.15 0.15 0.15 0.15 0.15 0.15 0.15 0.15 0.15 0.15 0.15
          0.15 0.15 0.15 0.15 0.15 0.15 0.15 0.15 0.15 0.15 0.15 0.15
          0.15 0.15 0.15 0.15 0.15 0.15 0.15 0.15 0.15 0.15 0.15 0.15
          0.15 0.15 0.15 0.15 0.15 0.15 0.15 0.15 0.15 0.15 0.15 0.15
          0.15 0.15 0.15 0.15 0.15 0.15 0.15 0.15 0.15 0.15 0.15 0.15
          0.15 0.15 0.15 0.15 0.15 0.15 0.15 0.15 0.15 0.15 0.15 0.15
          0.15 0.15 0.15 0.15 0.15 0.15 0.15 0.15 0.15 0.15 0.15 0.15
          0.15 0.15 0.15 0.15 0.15 0.15 0.15 0.15 0.15 0.15 0.15 0.15
          0.15 0.15 0.15 0.15 0.15 0.15 0.15 0.15 0.15 0.15 0.15 0.15
          0.15 0.15 0.15 0.15 0.15 0.15 0.15 0.15 0.15 0.15 0.15 0.15
          0.15 0.15 0.15 0.15 0.15 0.15 0.15 0.15 0.15 0.15 0.15 0.15
          0.15 0.15 0.15 0.15 0.15 0.15 0.15 0.15 0.15 0.15 0.15 0.15
          0.15 0.15 0.15 0.15 0.15 0.15 0.15 0.15 0.15 0.15 0.15 0.15
          0.15 0.15 0.15 0.15 0.15 0.15 0.15 0.15 0.15 0.15 0.15 0.15
          0.15 0.15 0.15 0.15 0.15 0.15 0.15 0.15 0.15 0.15 0.15 0.15
          0.15 0.15 0.15 0.15 0.15 0.15 0.15 0.15 0.15 0.15 0.15 0.15
          0.15 0.15 0.15 0.15 0.15 0.15 0.15 0.15 0.15 0.15 0.15 0.15
          0.15 0.15 0.15 0.15 0.15 0.15 0.15 0.15 0.15 0.15 0.15 0.15
          0.15 0.15 0.15 0.15 0.15 0.15 0.15 0.15 0.15 0.15 0.15 0.15
          0.15 0.15 0.15 0.15 0.15 0.15 0.15 0.15 0.15 0.15 0.15 0.15
          0.15 0.15 0.15 0.15 0.15 0.15 0.15 0.15 0.15 0.15 0.15 0.15
          0.15 0.15 0.15 0.15 0.15 0.15 0.15 0.15 0.15 0.15 0.15 0.15
          0.15 0.15 0.15 0.15 0.15 0.15 0.15 0.15 0.15 0.15 0.15 0.15
          0.15 0.15 0.15 0.15 0.15 0.15 0.15 0.15 0.15 0.15 0.15 0.15
          0.15 0.15 0.15 0.15 0.15 0.15 0.15 0.15 0.15 0.15 0.15 0.15
          0.15 0.15 0.15 0.15 0.15 0.15 0.15 0.15 0.15 0.15 0.15 0.15
          0.15 0.15 0.15 0.15 0.15 0.15 0.15 0.15 0.15 0.15 0.15 0.15
          0.15 0.15 0.15 0.15 0.15 0.15 0.15 0.15 0.15 0.15 0.15 0.15
          0.15 0.15 0.15 0.15 0.15 0.15 0.15 0.15 0.15 0.15 0.15 0.15
          0.15 0.15 0.15 0.15 0.15 0.15 0.15 0.15 0.15 0.15 0.15 0.15
          0.15 0.15 0.15 0.15 0.15 0.15 0.15 0.15 0.15 0.15 0.15 0.15
          0.15 0.15 0.15 0.15 0.15 0.15 0.15 0.15 0.15 0.15 0.15 0.15
          0.15 0.15 0.15 0.15 0.15 0.15 0.15 0.15 0.15 0.15 0.15 0.15
          0.15 0.15 0.15 0.15 0.15 0.15 0.15 0.15 0.15 0.15 0.15 0.15
          0.15 0.15 0.15 0.15 0.15 0.15 0.15 0.15 0.15 0.15 0.15 0.15
          0.15 0.15 0.15 0.15 0.15 0.15 0.15 0.15 0.15 0.15 0.15 0.15
          0.15 0.15 0.15 0.15 0.15 0.15 0.15 0.15 0.15 0.15 0.15 0.15
          0.15 0.15 0.15 0.15 0.15 0.15 0.15 0.15 0.15 0.15 0.15 0.15
          0.15 0.15 0.15 0.15 0.15 0.15 0.15 0.15 0.15 0.15 0.15 0.15
          0.15 0.15 0.15 0.15 0.15 0.15 0.15 0.15 0.15 0.15 0.15 0.15
          0.15 0.15 0.15 0.15 0.15 0.15 0.15 0.15 0.15 0.15 0.15 0.15
          0.15 0.15 0.15 0.15 0.15 0.15 0.15 0.15 0.15 0.15 0.15 0.15
          0.15 0.15 0.15 0.15 0.15 0.15 0.15 0.15 0.15 0.15 0.15 0.15
          0.15 0.15 0.15 0.15 0.15 0.15 0.15 0.15 0.15 0.15 0.15 0.15
          0.15 0.15 0.15 0.15 0.15 0.15 0.15 0.15 0.15 0.15 0.15 0.15
          0.15 0.15 0.15 0.15 0.15 0.15 0.15 0.15 0.15 0.15 0.15 0.15
          0.15 0.15 0.15 0.15 0.15 0.15 0.15 0.15 0.15 0.15 0.15 0.15
          0.15 0.15 0.15 0.15 0.15 0.15 0.15 0.15 0.15 0.15 0.15 0.15
          0.15 0.15 0.15 0.15 0.15 0.15 0.15 0.15 0.15 0.15 0.15 0.15
          0.15 0.15 0.15 0.15 0.15 0.15 0.15 0.15 0.15 0.15 0.15 0.15
          0.15 0.15 0.15 0.15 0.15 0.15 0.15 0.15 0.15 0.15 0.15 0.15
          0.15 0.15 0.15 0.15 0.15 0.15 0.15 0.15 0.15 0.15 0.15 0.15
          0.15 0.15 0.15 0.15 0.15 0.15 0.15 0.15 0.15 0.15 0.15 0.15
          0.15 0.15 0.15 0.15 0.15 0.15 0.15 0.15 0.15 0.15 0.15 0.15
          0.15 0.15 0.15 0.15 0.15 0.15 0.15 0.15 0.15 0.15 0.15 0.15
          0.15 0.15 0.15 0.15 0.15 0.15 0.15 0.15 0.15 0.15 0.15 0.15
          0.15 0.15 0.15 0.15 0.15 0.15 0.15 0.15 0.15 0.15 0.15 0.15
          0.15 0.15 0.15 0.15 0.15 0.15 0.15 0.15 0.15 0.15 0.15 0.15
          0.15 0.15 0.15 0.15 0.15 0.15 0.15 0.15 0.15 0.15 0.15 0.15
          0.15 0.15 0.15 0.15 0.15 0.15 0.15 0.15 0.15 0.15 0.15 0.15
          0.15 0.15 0.15 0.15 0.15 0.15 0.15 0.15 0.15 0.15 0.15 0.15
          0.15 0.15 0.15 0.15 0.15 0.15 0.15 0.15 0.15 0.15 0.15 0.15
          0.15 0.15 0.15 0.15 0.15 0.15 0.15 0.15 0.15 0.15 0.15 0.15
          0.15 0.15 0.15 0.15 0.15 0.15 0.15 0.15 0.15 0.15 0.15 0.15
          0.15 0.15 0.15 0.15 0.15 0.15 0.15 0.15 0.15 0.15 0.15 0.15
          0.15 0.15 0.15 0.15 0.15 0.15 0.15 0.15 0.15 0.15 0.15 0.15
          0.15 0.15 0.15 0.15 0.15 0.15 0.15 0.15 0.15 0.15 0.15 0.15
          0.15 0.15 0.15 0.15 0.15 0.15 0.15 0.15 0.15 0.15 0.15 0.15
          0.15 0.15 0.15 0.15 0.15 0.15 0.15 0.15 0.15 0.15 0.15 0.15
          0.15 0.15 0.15 0.15 0.15 0.15 0.15 0.15 0.15 0.15 0.15 0.15
          0.15 0.15 0.15 0.15 0.15 0.15 0.15 0.15 0.15 0.15 0.15 0.15
          0.15 0.15 0.15 0.15 0.15 0.15 0.15 0.15 0.15 0.15 0.15 0.15
          0.15 0.15 0.15 0.15 0.15 0.15 0.15 0.15 0.15 0.15 0.15 0.15
          0.15 0.15 0.15 0.15 0.15 0.15 0.15 0.15 0.15 0.15 0.15 0.15
          0.15 0.15 0.15 0.15 0.15 0.15 0.15 0.15 0.15 0.15 0.15 0.15
          0.15 0.15 0.15 0.15 0.15 0.15 0.15 0.15 0.15 0.15 0.15 0.15
          0.15 0.15 0.15 0.15 0.15 0.15 0.15 0.15 0.15 0.15 0.15 0.15
          0.15 0.15 0.15 0.15 0.15 0.15 0.15 0.15 0.15 0.15 0.15 0.15
          0.15 0.15 0.15 0.15 0.15 0.15 0.15 0.15 0.15 0.15 0.15 0.15
          0.15 0.15 0.15 0.15 0.15 0.15 0.15 0.15 0.15 0.15 0.15 0.15
          0.15 0.15 0.15 0.15 0.15 0.15 0.15 0.15 0.15 0.15 0.15 0.15
          0.15 0.15 0.15 0.15
        </DataArray>
        <DataArray type="Float32" Name="pc" NumberOfComponents="1" format="ascii">
          10000 10000 10000 10000 10000 10000 10000 10000 10000 10000 10000 10000
          10000 10000 10000 10000 10000 10000 10000 10000 10000 10000 10000 10000
          10000 10000 10000 10000 10000 10000 10000 10000 10000 10000 10000 10000
          10000 10000 10000 10000 10000 10000 10000 10000 10000 10000 10000 10000
          10000 10000 10000 10000 10000 10000 10000 10000 10000 10000 10000 10000
          10000 10000 10000 10000 10000 10000 10000 10000 10000 10000 10000 10000
          10000 10000 10000 10000 10000 10000 10000 10000 10000 10000 10000 10000
          10000 10000 10000 10000 10000 10000 10000 10000 10000 10000 10000 10000
          10000 10000 10000 10000 10000 10000 10000 10000 10000 10000 10000 10000
          10000 10000 10000 10000 10000 10000 10000 10000 10000 10000 10000 10002.2
          10000 10000 10002.2 10000 10000 10000 10000 10000 10000 10000 10000 10000
          10000 10000 10000 10000 10000 10000 10000 10000 10000 10000 10000 10000
          10000 10000 10000 10000 10000 10000 10000 10000 10000 10000 10000 10000
          10000 10000 10000 10000 10000 10000 10000 10000 10000 10000 10000 10000
          10000 10000 10000 10000 10000 10000 10000 10000 10000 10000 10000 10000
          10000 10000 10000 10000 10000 10000 10000 10000 10000 10000 10000 10000
          10000 10000 10000 10001.3 10000 10002.2 10001.3 10591.1 10002.2 10000 10591.1 10001.5
          10000 10000 10001.5 10000 10000 10000 10000 10000 10000 10000 10000 10000
          10000 10000 10000 10000 10000 10000 10000 10000 10000 10000 10000 10000
          10000 10000 10000 10000 10000 10000 10000 10000 10000 10000 10000 10000
          10000 10000 10000 10000 10000 10000 10000 10000 10000 10000 10000 10000
          10000 10000 10000 10000 10000 10000 10000 10000 10000 10000 10000 10000
          10000 10000 10000 10000 10000 10000 10000 10000 10000 10001.3 10000 10000.1
          10001.3 10591.1 10000.1 10311.6 10591.1 10001.5 10311.6 10000.1 10001.5 10000 10000.1 10000
          10000 10000 10000 10000 10000 10000 10000 10000 10000 10000 10000 10000
          10000 10000 10000 10000 10000 10000 10000 10000 10000 10000 10000 10000
          10000 10000 10000 10000 10000 10000 10000 10000 10000 10000 10000 10000
          10000 10000 10000 10000 10000 10000 10000 10000 10000 10000 10000 10000
          10000 10000 10000 10000 10000 10000 10000 10000 10000 10000 10000 10000
          10000 10000 10000 10000 10000 10000.1 10000 10000 10000.1 10311.6 10000 10066.3
          10311.6 10000.1 10066.3 10000 10000.1 10000 10000 10000 10000 10000 10000 10000
          10000 10000 10000 10000 10000 10000 10000 10000 10000 10000 10000 10000
          10000 10000 10000 10000 10000 10000 10000 10000 10000 10000 10000 10000
          10000 10000 10000 10000 10000 10000 10000 10000 10000 10000 10000 10000
          10000 10000 10000 10000 10000 10000 10000 10000 10000 10000 10000 10000
          50000 50000 50000 50000 50000 50000 50000 50000 50000 50000 50000 50000
          50000 50000 50000 50000 50000 50000 50000 50000 50000 50000 50000 50000
          50000 50000 50000 50000 50000 50000 50000 50000 50000 50000 50000 50000
          50000 50000 50000 50000 10000 10000 10000 10000 10000 10000 10000 10000
          10000 10000 10000 10000 10000 10000 10000 10000 10000 10000 10000 10000
          10000 10000 10000 10000 10000 10000 10000 10000 10000 10000 10000 10000
          10000 10000 10000 10000 10000 10000 10000 10000 50000 50000 50000 50000
          50000 50000 50000 50000 50000 50000 50000 50000 50000 50000 50000 50000
          50000 50000 50000 50000 50000 50000 50000 50000 50000 50000 50000 50000
          50000 50000 50000 50000 50000 50000 50000 50000 50000 50000 50000 50000
          10000 10000 10000 10000 10000 10000 10000 10000 10000 10000 10000 10000
          10000 10000 10000 10000 10000 10000 10000 10000 10000 10000 10000 10000
          10000 10000 10000 10000 10000 10000 10000 10000 10000 10000 10000 10000
          10000 10000 10000 10000 50000 50000 50000 50000 50000 50000 50000 50000
          50000 50000 50000 50000 50000 50000 50000 50000 50000 50000 50000 50000
          50000 50000 50000 50000 50000 50000 50000 50000 50000 50000 50000 50000
          50000 50000 50000 50000 50000 50000 50000 50000 10000 10000 10000 10000
          10000 10000 10000 10000 10000 10000 10000 10000 10000 10000 10000 10000
          10000 10000 10000 10000 10000 10000 10000 10000 10000 10000 10000 10000
          10000 10000 10000 10000 10000 10000 10000 10000 10000 10000 10000 10000
          50000 50000 50000 50000 50000 50000 50000 50000 50000 50000 50000 50000
          50000 50000 50000 50000 50000 50000 50000 50000 50000 50000 50000 50000
          50000 50000 50000 50000 50000 50000 50000 50000 50000 50000 50000 50000
          50000 50000 50000 50000 10000 10000 10000 10000 10000 10000 10000 10000
          10000 10000 10000 10000 10000 10000 10000 10000 10000 10000 10000 10000
          10000 10000 10000 10000 10000 10000 10000 10000 10000 10000 10000 10000
          10000 10000 10000 10000.9 10000 10000 10000.9 10053 50000 50000 50000 50000
          50000 50000 50000 50000 50000 50000 50000 50000 50000 50000 50000 50000
          50000 50000 50000 50000 50000 50000 50000 50000 50000 50000 50000 50000
          50000 50000 50000 50000 50000 50000 50000 50000 50000 50000 50000 50000
          10000 10000 10000 10000 10000 10000 10000 10000 10000 10000 10000 10000
          10000 10000 10000 10000 10000 10000 10000 10000 10000 10000 10000 10000
          10000 10000 10000 10000 10000 10000 10000 10015.5 10000 10000.9 10015.5 10341.8
          10000.9 10053 10341.8 10979.8 10053 10334.6 10979.8 11403.9 10334.6 10622.1 11403.9 11613.3
          10622.1 10684.6 11613.3 11627.7 10684.6 10318.9 11627.7 11312.6 10318.9 10000 11312.6 10000
          10000 10008.4 10000 10540.3 10008.4 10000.2 10540.3 10218.2 10000.2 10000 10218.2 10010.5
          10000 10000 10010.5 10000 10000 10000 10000 10000 10000 10000 10000 10000
          10000 10000 10000 10000 10000 10000 10000 10000 10000 10000 10000 10000
          10000 10000 10000 10000 10000 10000 10000 10000 10000 10000 10000 10040.2
          10000 10015.5 10040.2 10762.4 10015.5 10341.8 10762.4 11607.5 10341.8 10979.8 11607.5 12025.1
          10979.8 11403.9 12025.1 12281.2 11403.9 11613.3 12281.2 12425.1 11613.3 11627.7 12425.1 12431.6
          11627.7 11312.6 12431.6 12172 11312.6 10000 12172 10000 10000 10540.3 10000 11691.7
          10540.3 10218.2 11691.7 11485 10218.2 10010.5 11485 10746.1 10010.5 10000 10746.1 10060.2
          10000 10000 10060.2 10000 10000 10000 10000 10000 10000 10000 10000 10000
          10000 10000 10000 10000 10000 10000 10000 10000 10000 10000 10000 10000
          10000 10000 10000 10034.6 10000 10040.2 10034.6 10934.4 10040.2 10762.4 10934.4 11845.1
          10762.4 11607.5 11845.1 12341.3 11607.5 12025.1 12341.3 12689.2 12025.1 12281.2 12689.2 12920.7
          12281.2 12425.1 12920.7 13055.4 12425.1 12431.6 13055.4 13079.4 12431.6 12172 13079.4 12923.1
          12172 10000 12923.1 12698.9 10000 11691.7 12698.9 12540 11691.7 11485 12540 12328.2
          11485 10746.1 12328.2 11912 10746.1 10060.2 11912 11130.1 10060.2 10000 11130.1 10103.2
          10000 10000 10103.2 10000 10000 10000 10000 10000 10000 10000 10000 10000
          10000 10000 10000 10000 10000 10000 10000 10000 10000 10034.6 10033.1 10786.1
          10034.6 10934.4 10786.1 11844.7 10934.4 11845.1 11844.7 12438.5 11845.1 12341.3 12438.5 12883.9
          12341.3 12689.2 12883.9 13214.6 12689.2 12920.7 13214.6 13448.4 12920.7 13055.4 13448.4 13592
          13055.4 13079.4 13592 13636 13079.4 12923.1 13636 13584.6 12923.1 12698.9 13584.6 13450.3
          12698.9 12540 13450.3 13245.5 12540 12328.2 13245.5 12965.1 12328.2 11912 12965.1 12580.7
          11912 11130.1 12580.7 12051.8 11130.1 10103.2 12051.8 11166.5 10103.2 10000 11166.5 10073.5
          10000 10000 10073.5 10000 10000 10000 10000 10000 10000 10000 10000 10000
          10000 10000 10000 10000 10033.1 10786.1 10782 11674.7 10786.1 11844.7 11674.7 12341.5
          11844.7 12438.5 12341.5 12886.2 12438.5 12883.9 12886.2 13326.8 12883.9 13214.6 13326.8 13676.8
          13214.6 13448.4 13676.8 13934.1 13448.4 13592 13934.1 14094.4 13592 13636 14094.4 14149.3
          13636 13584.6 14149.3 14105.9 13584.6 13450.3 14105.9 13970.6 13450.3 13245.5 13970.6 13751.8
          13245.5 12965.1 13751.8 13457.2 12965.1 12580.7 13457.2 13085.8 12580.7 12051.8 13085.8 12611.9
          12051.8 11166.5 12611.9 11982.4 11166.5 10073.5 11982.4 10875.6 10073.5 10000 10875.6 10019.6
          10000 10000 10019.6 10000 10000 10000 10000 10000 10000 10000 10000 10000
          10782 11674.7 11702 12132.8 11674.7 12341.5 12132.8 12705.9 12341.5 12886.2 12705.9 13243.8
          12886.2 13326.8 13243.8 13721.6 13326.8 13676.8 13721.6 14121.1 13676.8 13934.1 14121.1 14422.3
          13934.1 14094.4 14422.3 14608.7 14094.4 14149.3 14608.7 14667.3 14149.3 14105.9 14667.3 14608.7
          14105.9 13970.6 14608.7 14445.2 13970.6 13751.8 14445.2 14193.4 13751.8 13457.2 14193.4 13870.7
          13457.2 13085.8 13870.7 13486.1 13085.8 12611.9 13486.1 13030.7 12611.9 11982.4 13030.7 12462
          11982.4 10875.6 12462 11696 10875.6 10019.6 11696 10365.3 10019.6 10000 10365.3 10000.8
          10000 10000 10000.8 10000 10000 10000 10000 10000 11702 12132.8 12138.4 12440.6
          12132.8 12705.9 12440.6 12973.5 12705.9 13243.8 12973.5 13544.9 13243.8 13721.6 13544.9 14095.2
          13721.6 14121.1 14095.2 14581.1 14121.1 14422.3 14581.1 14954.3 14422.3 14608.7 14954.3 15179.2
          14608.7 14667.3 15179.2 15240.1 14667.3 14608.7 15240.1 15152.1 14608.7 14445.2 15152.1 14934.9
          14445.2 14193.4 14934.9 14619.6 14193.4 13870.7 14619.6 14239.8 13870.7 13486.1 14239.8 13815.1
          13486.1 13030.7 13815.1 13344.5 13030.7 12462 13344.5 12800.9 12462 11696 12800.9 12112.6
          11696 10365.3 12112.6 11041.9 10365.3 10000.8 11041.9 10042.5 10000.8 10000 10042.5 10000
          10000 10000 10000 10000 12138.4 12440.6 12354.2 12624.8 12440.6 12973.5 12624.8 13162
          12973.5 13544.9 13162 13795.3 13544.9 14095.2 13795.3 14459.7 14095.2 14581.1 14459.7 15088.2
          14581.1 14954.3 15088.2 15579.9 14954.3 15179.2 15579.9 15860 15179.2 15240.1 15860 15922
          15240.1 15152.1 15922 15787.4 15152.1 14934.9 15787.4 15475 14934.9 14619.6 15475 15044.4
          14619.6 14239.8 15044.4 14564.7 14239.8 13815.1 14564.7 14070.8 13815.1 13344.5 14070.8 13562.8
          13344.5 12800.9 13562.8 13013.5 12800.9 12112.6 13013.5 12360.2 12112.6 11041.9 12360.2 11478.4
          11041.9 10042.5 11478.4 10207.6 10042.5 10000 10207.6 10000.1 10000 10000 10000.1 10000
          12354.2 12624.8 12416.2 12685.4 12624.8 13162 12685.4 13248.5 13162 13795.3 13248.5 13960.6
          13795.3 14459.7 13960.6 14792.8 14459.7 15088.2 14792.8 15679.7 15088.2 15579.9 15679.7 16383.3
          15579.9 15860 16383.3 16729.5 15860 15922 16729.5 16789.2 15922 15787.4 16789.2 16592.3
          15787.4 15475 16592.3 16097.1 15475 15044.4 16097.1 15440.5 15044.4 14564.7 15440.5 14797
          14564.7 14070.8 14797 14211.6 14070.8 13562.8 14211.6 13657.2 13562.8 13013.5 13657.2 13091.8
          13013.5 12360.2 13091.8 12452.9 12360.2 11478.4 12452.9 11631.3 11478.4 10207.6 11631.3 10356.6
          10207.6 10000.1 10356.6 10000.7 10000.1 10000 10000.7 10000 12416.2 12685.4 12300.5 12578.7
          12685.4 13248.5 12578.7 13160.7 13248.5 13960.6 13160.7 13923.1 13960.6 14792.8 13923.1 14909.4
          14792.8 15679.7 14909.4 16426.4 15679.7 16383.3 16426.4 17570.8 16383.3 16729.5 17570.8 17917.8
          16729.5 16789.2 17917.8 17969.9 16789.2 16592.3 17969.9 17757.7 16592.3 16097.1 17757.7 16846.3
          16097.1 15440.5 16846.3 15602.5 15440.5 14797 15602.5 14789.1 14797 14211.6 14789.1 14142.8
          14211.6 13657.2 14142.8 13563.4 13657.2 13091.8 13563.4 12989.9 13091.8 12452.9 12989.9 12355.2
          12452.9 11631.3 12355.2 11534.2 11631.3 10356.6 11534.2 10298.1 10356.6 10000.7 10298.1 10000.4
          10000.7 10000 10000.4 10000
        </DataArray>
        <DataArray type="Float32" Name="Sw" NumberOfComponents="1" format="ascii">
          1 1 1 1 1 1 1 1 1 1 1 1
          1 1 1 1 1 1 1 1 1 1 1 1
          1 1 1 1 1 1 1 1 1 1 1 1
          1 1 1 1 1 1 1 1 1 1 1 1
          1 1 1 1 1 1 1 1 1 1 1 1
          1 1 1 1 1 1 1 1 1 1 1 1
          1 1 1 1 1 1 1 1 1 1 1 1
          1 1 1 1 1 1 1 1 1 1 1 1
          1 1 1 1 1 1 1 1 1 1 1 1
          1 1 1 1 1 1 1 1 1 1 1 0.999638
          1 1 0.999638 1 1 1 1 1 1 1 1 1
          1 1 1 1 1 1 1 1 1 1 1 1
          1 1 1 1 1 1 1 1 1 1 1 1
          1 1 1 1 1 1 1 1 1 1 1 1
          1 1 1 1 1 1 1 1 1 1 1 1
          1 1 1 1 1 1 1 1 1 1 1 1
          1 1 1 0.999785 1 0.999638 0.999785 0.911029 0.999638 1 0.911029 0.999753
          1 1 0.999753 1 1 1 1 1 1 1 1 1
          1 1 1 1 1 1 1 1 1 1 1 1
          1 1 1 1 1 1 1 1 1 1 1 1
          1 1 1 1 1 1 1 1 1 1 1 1
          1 1 1 1 1 1 1 1 1 1 1 1
          1 1 1 1 1 1 1 1 1 0.999785 1 0.999983
          0.999785 0.911029 0.999983 0.951197 0.911029 0.999753 0.951197 0.999979 0.999753 1 0.999979 1
          1 1 1 1 1 1 1 1 1 1 1 1
          1 1 1 1 1 1 1 1 1 1 1 1
          1 1 1 1 1 1 1 1 1 1 1 1
          1 1 1 1 1 1 1 1 1 1 1 1
          1 1 1 1 1 1 1 1 1 1 1 1
          1 1 1 1 1 0.999983 1 1 0.999983 0.951197 1 0.989241
          0.951197 0.999979 0.989241 1 0.999979 1 1 1 1 1 1 1
          1 1 1 1 1 1 1 1 1 1 1 1
          1 1 1 1 1 1 1 1 1 1 1 1
          1 1 1 1 1 1 1 1 1 1 1 1
          1 1 1 1 1 1 1 1 1 1 1 1
          1 1 1 1 1 1 1 1 1 1 1 1
          1 1 1 1 1 1 1 1 1 1 1 1
          1 1 1 1 1 1 1 1 1 1 1 1
          1 1 1 1 1 1 1 1 1 1 1 1
          1 1 1 1 1 1 1 1 1 1 1 1
          1 1 1 1 1 1 1 1 1 1 1 1
          1 1 1 1 1 1 1 1 1 1 1 1
          1 1 1 1 1 1 1 1 1 1 1 1
          1 1 1 1 1 1 1 1 1 1 1 1
          1 1 1 1 1 1 1 1 1 1 1 1
          1 1 1 1 1 1 1 1 1 1 1 1
          1 1 1 1 1 1 1 1 1 1 1 1
          1 1 1 1 1 1 1 1 1 1 1 1
          1 1 1 1 1 1 1 1 1 1 1 1
          1 1 1 1 1 1 1 1 1 1 1 1
          1 1 1 1 1 1 1 1 1 1 1 1
          1 1 1 1 1 1 1 1 1 1 1 1
          1 1 1 1 1 1 1 1 1 1 1 1
          1 1 1 1 1 1 1 1 1 1 1 1
          1 1 1 1 1 1 1 1 1 1 1 1
          1 1 1 1 1 1 1 1 1 1 1 1
          1 1 1 1 1 1 1 1 1 1 1 1
          1 1 1 1 1 1 1 1 1 1 1 1
          1 1 1 1 1 1 1 1 1 1 1 1
          1 1 1 1 1 1 1 1 1 1 1 1
          1 1 1 1 1 1 1 1 1 1 1 1
          1 1 1 0.999857 1 1 0.999857 0.991372 1 1 1 1
          1 1 1 1 1 1 1 1 1 1 1 1
          1 1 1 1 1 1 1 1 1 1 1 1
          1 1 1 1 1 1 1 1 1 1 1 1
          1 1 1 1 1 1 1 1 1 1 1 1
          1 1 1 1 1 1 1 1 1 1 1 1
          1 1 1 1 1 1 1 0.997456 1 0.999857 0.997456 0.946696
          0.999857 0.991372 0.946696 0.860179 0.991372 0.947758 0.860179 0.810529 0.947758 0.906763 0.810529 0.788001
          0.906763 0.898289 0.788001 0.786496 0.898289 0.950098 0.786496 0.820749 0.950098 1 0.820749 1
          1 0.998622 1 0.918085 0.998622 0.999959 0.918085 0.965347 0.999959 1 0.965347 0.998273
          1 1 0.998273 1 1 1 1 1 1 1 1 1
          1 1 1 1 1 1 1 1 1 1 1 1
          1 1 1 1 1 1 1 1 1 1 1 0.993445
          1 0.997456 0.993445 0.887933 0.997456 0.946696 0.887933 0.788606 0.946696 0.860179 0.788606 0.74707
          0.860179 0.810529 0.74707 0.723664 0.810529 0.788001 0.723664 0.711147 0.788001 0.786496 0.711147 0.710592
          0.786496 0.820749 0.710592 0.733466 0.820749 1 0.733466 1 1 0.918085 1 0.779868
          0.918085 0.965347 0.779868 0.801662 0.965347 0.998273 0.801662 0.890085 0.998273 1 0.890085 0.99022
          1 1 0.99022 0.999998 1 1 0.999998 1 1 1 1 1
          1 1 1 1 1 1 1 1 1 1 1 1
          1 1 1 0.994354 1 0.993445 0.994354 0.86584 0.993445 0.887933 0.86584 0.764431
          0.887933 0.788606 0.764431 0.718386 0.788606 0.74707 0.718386 0.689269 0.74707 0.723664 0.689269 0.671179
          0.723664 0.711147 0.671179 0.661097 0.711147 0.710592 0.661097 0.659331 0.710592 0.733466 0.659331 0.670999
          0.733466 1 0.670999 0.688493 1 0.779868 0.688493 0.70146 0.779868 0.801662 0.70146 0.719532
          0.801662 0.890085 0.719532 0.757889 0.890085 0.99022 0.757889 0.841935 0.99022 0.999998 0.841935 0.983336
          0.999998 1 0.983336 0.999998 1 1 0.999998 1 1 1 1 1
          1 1 1 1 1 1 1 1 1 0.994354 0.994594 0.88483
          0.994354 0.86584 0.88483 0.764474 0.86584 0.764431 0.764474 0.710001 0.764431 0.718386 0.710001 0.673993
          0.718386 0.689269 0.673993 0.649579 0.689269 0.671179 0.649579 0.633388 0.671179 0.661097 0.633388 0.623864
          0.661097 0.659331 0.623864 0.621002 0.659331 0.670999 0.621002 0.624347 0.670999 0.688493 0.624347 0.633265
          0.688493 0.70146 0.633265 0.647386 0.70146 0.719532 0.647386 0.66782 0.719532 0.757889 0.66782 0.698091
          0.757889 0.841935 0.698091 0.744559 0.841935 0.983336 0.744559 0.837631 0.983336 0.999998 0.837631 0.988073
          0.999998 1 0.988073 1 1 1 1 1 1 1 1 1
          1 1 1 1 0.994594 0.88483 0.885369 0.781624 0.88483 0.764474 0.781624 0.718366
          0.764474 0.710001 0.718366 0.673813 0.710001 0.673993 0.673813 0.6417 0.673993 0.649579 0.6417 0.618373
          0.649579 0.633388 0.618373 0.602337 0.633388 0.623864 0.602337 0.592783 0.623864 0.621002 0.592783 0.589583
          0.621002 0.624347 0.589583 0.592107 0.624347 0.633265 0.592107 0.600127 0.633265 0.647386 0.600127 0.613606
          0.647386 0.66782 0.613606 0.632798 0.66782 0.698091 0.632798 0.658864 0.698091 0.744559 0.658864 0.695526
          0.744559 0.837631 0.695526 0.751117 0.837631 0.988073 0.751117 0.873274 0.988073 1 0.873274 0.996795
          1 1 0.996795 1 1 1 1 1 1 1 1 1
          0.885369 0.781624 0.77882 0.737045 0.781624 0.718366 0.737045 0.687925 0.718366 0.673813 0.687925 0.647505
          0.673813 0.6417 0.647505 0.615517 0.6417 0.618373 0.615517 0.59122 0.618373 0.602337 0.59122 0.574224
          0.602337 0.592783 0.574224 0.564232 0.592783 0.589583 0.564232 0.561163 0.589583 0.592107 0.561163 0.564227
          0.592107 0.600127 0.564227 0.572977 0.600127 0.613606 0.572977 0.587043 0.613606 0.632798 0.587043 0.606202
          0.632798 0.658864 0.606202 0.630863 0.658864 0.695526 0.630863 0.662925 0.695526 0.751117 0.662925 0.708003
          0.751117 0.873274 0.708003 0.779432 0.873274 0.996795 0.779432 0.943225 0.996795 1 0.943225 0.999875
          1 1 0.999875 1 1 1 1 1 0.77882 0.737045 0.73653 0.709821
          0.737045 0.687925 0.709821 0.667189 0.687925 0.647505 0.667189 0.626953 0.647505 0.615517 0.626953 0.592732
          0.615517 0.59122 0.592732 0.565687 0.59122 0.574224 0.565687 0.546675 0.574224 0.564232 0.546675 0.535892
          0.564232 0.561163 0.535892 0.53305 0.561163 0.564227 0.53305 0.537162 0.564227 0.572977 0.537162 0.547629
          0.572977 0.587043 0.547629 0.563654 0.587043 0.606202 0.563654 0.584397 0.606202 0.630863 0.584397 0.609639
          0.630863 0.662925 0.609639 0.640476 0.662925 0.708003 0.640476 0.680421 0.708003 0.779432 0.680421 0.738909
          0.779432 0.943225 0.738909 0.852557 0.943225 0.999875 0.852557 0.993069 0.999875 1 0.993069 1
          1 1 1 1 0.73653 0.709821 0.717259 0.694472 0.709821 0.667189 0.694472 0.65334
          0.667189 0.626953 0.65334 0.610873 0.626953 0.592732 0.610873 0.572188 0.592732 0.565687 0.572188 0.540195
          0.565687 0.546675 0.540195 0.517821 0.546675 0.535892 0.517821 0.505994 0.535892 0.53305 0.505994 0.50346
          0.53305 0.537162 0.50346 0.508999 0.537162 0.547629 0.508999 0.522417 0.547629 0.563654 0.522417 0.542296
          0.563654 0.584397 0.542296 0.566556 0.584397 0.609639 0.566556 0.594165 0.609639 0.640476 0.594165 0.625774
          0.640476 0.680421 0.625774 0.664204 0.680421 0.738909 0.664204 0.716742 0.738909 0.852557 0.716742 0.802371
          0.852557 0.993069 0.802371 0.966992 0.993069 1 0.966992 0.999984 1 1 0.999984 1
          0.717259 0.694472 0.711911 0.689571 0.694472 0.65334 0.689571 0.647177 0.65334 0.610873 0.647177 0.600733
          0.610873 0.572188 0.600733 0.554726 0.572188 0.540195 0.554726 0.513532 0.540195 0.517821 0.513532 0.485501