<?xml version="1.0"?>
<VTKFile type="UnstructuredGrid" version="0.1" byte_order="LittleEndian">
  <UnstructuredGrid>
    <Piece NumberOfCells="76" NumberOfPoints="228">
      <PointData Scalars="porosity">
        <DataArray type="Float32" Name="porosity" NumberOfComponents="1" format="ascii">
          0.15 0.15 0.15 0.15 0.15 0.15 0.15 0.15 0.15 0.15 0.15 0.15
          0.15 0.15 0.15 0.15 0.15 0.15 0.15 0.15 0.15 0.15 0.15 0.15
          0.15 0.15 0.15 0.15 0.15 0.15 0.15 0.15 0.15 0.15 0.15 0.15
          0.15 0.15 0.15 0.15 0.15 0.15 0.15 0.15 0.15 0.15 0.15 0.15
          0.15 0.15 0.15 0.15 0.15 0.15 0.15 0.15 0.15 0.15 0.15 0.15
          0.15 0.15 0.15 0.15 0.15 0.15 0.15 0.15 0.15 0.15 0.15 0.15
          0.15 0.15 0.15 0.15 0.15 0.15 0.15 0.15 0.15 0.15 0.15 0.15
          0.15 0.15 0.15 0.15 0.15 0.15 0.15 0.15 0.15 0.15 0.15 0.15
          0.15 0.15 0.15 0.15 0.15 0.15 0.15 0.15 0.15 0.15 0.15 0.15
          0.15 0.15 0.15 0.15 0.15 0.15 0.15 0.15 0.15 0.15 0.15 0.15
          0.15 0.15 0.15 0.15 0.15 0.15 0.15 0.15 0.15 0.15 0.15 0.15
          0.15 0.15 0.15 0.15 0.15 0.15 0.15 0.15 0.15 0.15 0.15 0.15
          0.15 0.15 0.15 0.15 0.15 0.15 0.15 0.15 0.15 0.15 0.15 0.15
          0.15 0.15 0.15 0.15 0.15 0.15 0.15 0.15 0.15 0.15 0.15 0.15
          0.15 0.15 0.15 0.15 0.15 0.15 0.15 0.15 0.15 0.15 0.15 0.15
          0.15 0.15 0.15 0.15 0.15 0.15 0.15 0.15 0.15 0.15 0.15 0.15
          0.15 0.15 0.15 0.15 0.15 0.15 0.15 0.15 0.15 0.15 0.15 0.15
          0.15 0.15 0.15 0.15 0.15 0.15 0.15 0.15 0.15 0.15 0.15 0.15
          0.15 0.15 0.15 0.15 0.15 0.15 0.15 0.15 0.15 0.15 0.15 0.15
        </DataArray>
        <DataArray type="Float32" Name="pc" NumberOfComponents="1" format="ascii">
          10000 10000 10000 10000 10000 10000 10000.4 10000 10000 10000.4 10000.3 10000
          10000.4 10000 10000 10000.4 10000 10001.5 10000 10002.1 10000 10683.8 10000 10002.1
          10000 10000.3 10002.1 10683.8 10002.1 10000.3 10683.8 10002.2 10000 10000 10002.2 10000
          10683.8 10000.7 10002.2 10000 10002.2 10000.7 10000.4 10146.5 10000.3 10683.8 10000.3 10146.5
          50000 50000 50000 10683.8 10146.5 10000.7 10146.5 10000 10000.7 50000 50000 50000
          10000 10000 10000.7 10000 10000 10000 10000 10000 10000 10000 10000 10000
          10000 10000 10000 10000 10000 10000 10205.2 10001.5 10000 10492.2 10001.5 10205.2
          10000.4 10001.5 10492.2 50000 50000 50000 10492.2 10205.2 11671.1 12076.7 11671.1 10205.2
          10492.2 11671.1 12723.1 10492.2 12723.1 11646.8 12076.7 13423.4 11671.1 12723.1 11671.1 13423.4
          12723.1 13423.4 14197.9 12984.2 13423.4 12076.7 12984.2 15662 13423.4 15662 14197.9 13423.4
          50000 50000 50000 50000 50000 50000 50000 50000 50000 50000 50000 50000
          10492.2 11646.8 10000 10000 10000 11646.8 10000 11646.8 12939.5 10000 10891.6 10000
          10000 10891.6 10067.6 10000 12650.8 10891.6 50000 50000 50000 10000 10067.6 10000
          10000 10000 10000 10067.6 10000 10000 10067.6 10891.6 11809.1 10146 10067.6 11809.1
          10067.6 10146 10000 10000 10146 10000 12723.1 12939.5 11646.8 12723.1 14197.9 12939.5
          13850.5 12939.5 14197.9 10000 12939.5 12650.8 13850.5 12650.8 12939.5 11809.1 10891.6 12650.8
          13850.5 13447.8 12650.8 11809.1 12650.8 13447.8 15603.9 13850.5 14197.9 15603.9 14197.9 15662
          15603.9 13447.8 13850.5 12749.5 13447.8 15603.9 11809.1 11452 10146 11809.1 13447.8 11452
          10000 10146 11452 12749.5 11452 13447.8 10000 10000 11452 10000 11452 12749.5
        </DataArray>
        <DataArray type="Float32" Name="S_w" NumberOfComponents="1" format="ascii">
          1 1 1 1 0.999995 1 0.999927 1 1 0.999927 0.999946 1
          0.999927 1 0.999995 0.999927 0.999995 0.999754 1 0.999661 1 0.898395 1 0.999661
          1 0.999946 0.999661 0.898395 0.999661 0.999946 0.898395 0.999636 1 1 0.999636 1
          0.898395 0.999892 0.999636 1 0.999636 0.999892 0.999927 0.976496 0.999946 0.898395 0.999946 0.976496
          1 1 1 0.898395 0.976496 0.999892 0.976496 1 0.999892 1 1 1
          1 1 0.999892 1 1 1 1 1 1 1 1 1
          1 1 1 1 1 1 0.96736 0.999754 0.999995 0.924866 0.999754 0.96736
          0.999927 0.999754 0.924866 1 1 1 0.924866 0.96736 0.781993 0.742233 0.781993 0.96736
          0.924866 0.781993 0.686553 0.924866 0.686553 0.784505 0.742233 0.635081 0.781993 0.686553 0.781993 0.635081
          0.686553 0.635081 0.586786 0.666392 0.635081 0.742233 0.666392 0.514285 0.635081 0.514285 0.586786 0.635081
          1 1 1 1 1 1 1 1 1 1 1 1
          0.924866 0.784505 1 1 1 0.784505 1 0.784505 0.669757 1 0.871237 1
          1 0.871237 0.989033 1 0.692361 0.871237 1 1 1 1 0.989033 1
          1 1 1 0.989033 1 1 0.989033 0.871237 0.768005 0.976578 0.989033 0.768005
          0.989033 0.976578 1 1 0.976578 1 0.686553 0.669757 0.784505 0.686553 0.586786 0.669757
          0.607448 0.669757 0.586786 1 0.669757 0.692361 0.607448 0.692361 0.669757 0.768005 0.871237 0.692361
          0.607448 0.633431 0.692361 0.768005 0.692361 0.633431 0.516782 0.607448 0.586786 0.516782 0.586786 0.514285
          0.516782 0.633431 0.607448 0.684465 0.633431 0.516782 0.768005 0.805248 0.976578 0.768005 0.633431 0.805248
          1 0.976578 0.805248 0.684465 0.805248 0.633431 1 1 0.805248 1 0.805248 0.684465
        </DataArray>
        <DataArray type="Float32" Name="p_w" NumberOfComponents="1" format="ascii">
          109810 109262 109810 109810 108861 109262 108567 109810 109262 108567 108872 109810
          108567 109262 108861 108567 108861 108507 109810 109404 109810 109233 109810 109404
          109810 108872 109404 109233 109404 108872 109233 109282 109810 109810 109282 109810
          109233 108499 109282 109810 109282 108499 108567 108339 108872 109233 108872 108339
          108567 108406 108339 109233 108339 108499 108339 107630 108499 108339 107476 107630
          107630 109810 108499 107630 108652 109810 109810 109810 108652 109810 108652 107358
          107630 106456 108652 107358 108652 106456 108270 108507 108861 108738 108507 108270
          108567 108507 108738 108567 108738 108406 108738 108270 109410 110045 109410 108270
          108738 109410 109191 108738 109191 108313 110045 109895 109410 109191 109410 109895
          109191 109895 109031 109179 109895 110045 109179 109125 109895 109125 109031 109895
          108339 108406 107981 108738 107981 108406 108339 107981 107476 107981 105955 107476
          108738 108313 107981 107201 107981 108313 107201 108313 108178 107201 106845 107981
          107981 106845 105955 107201 106927 106845 107630 107476 105955 107630 105955 106456
          107358 106456 104905 105955 104905 106456 105955 106845 105761 104359 105955 105761
          105955 104359 104905 104905 104359 102452 109191 108178 108313 109191 109031 108178
          107632 108178 109031 107201 108178 106927 107632 106927 108178 105761 106845 106927
          107632 105924 106927 105761 106927 105924 107510 107632 109031 107510 109031 109125
          107510 105924 107632 103344 105924 107510 105761 103313 104359 105761 105924 103313
          102452 104359 103313 103344 103313 105924 100000 102452 103313 100000 103313 103344
        </DataArray>
        <DataArray type="Float32" Name="rho_w" NumberOfComponents="1" format="ascii">
          1000 1000 1000 1000 1000 1000 1000 1000 1000 1000 1000 1000
          1000 1000 1000 1000 1000 1000 1000 1000 1000 1000 1000 1000
          1000 1000 1000 1000 1000 1000 1000 1000 1000 1000 1000 1000
          1000 1000 1000 1000 1000 1000 1000 1000 1000 1000 1000 1000
          1000 1000 1000 1000 1000 1000 1000 1000 1000 1000 1000 1000
          1000 1000 1000 1000 1000 1000 1000 1000 1000 1000 1000 1000
          1000 1000 1000 1000 1000 1000 1000 1000 1000 1000 1000 1000
          1000 1000 1000 1000 1000 1000 1000 1000 1000 1000 1000 1000
          1000 1000 1000 1000 1000 1000 1000 1000 1000 1000 1000 1000
          1000 1000 1000 1000 1000 1000 1000 1000 1000 1000 1000 1000
          1000 1000 1000 1000 1000 1000 1000 1000 1000 1000 1000 1000
          1000 1000 1000 1000 1000 1000 1000 1000 1000 1000 1000 1000
          1000 1000 1000 1000 1000 1000 1000 1000 1000 1000 1000 1000
          1000 1000 1000 1000 1000 1000 1000 1000 1000 1000 1000 1000
          1000 1000 1000 1000 1000 1000 1000 1000 1000 1000 1000 1000
          1000 1000 1000 1000 1000 1000 1000 1000 1000 1000 1000 1000
          1000 1000 1000 1000 1000 1000 1000 1000 1000 1000 1000 1000
          1000 1000 1000 1000 1000 1000 1000 1000 1000 1000 1000 1000
          1000 1000 1000 1000 1000 1000 1000 1000 1000 1000 1000 1000
        </DataArray>
        <DataArray type="Float32" Name="mob_w" NumberOfComponents="1" format="ascii">
          1000 1000 1000 1000 999.976 1000 999.642 1000 1000 999.642 999.735 1000
          999.642 1000 999.976 999.642 999.976 998.799 1000 998.345 1000 589.111 1000 998.345
          1000 999.735 998.345 589.111 998.345 999.735 589.111 998.225 1000 1000 998.225 1000
          589.111 999.472 998.225 1000 998.225 999.472 999.642 890.181 999.735 589.111 999.735 890.181
          1000 1000 1000 589.111 890.181 999.472 890.181 999.999 999.472 1000 1000 1000
          999.999 1000 999.472 999.999 1000 1000 1000 1000 1000 1000 1000 1000
          999.999 999.999 1000 1000 1000 999.999 850.036 998.799 999.976 680.859 998.799 850.036
          999.642 998.799 680.859 1000 1000 1000 680.859 850.036 290.477 221.01 290.477 850.036
          680.859 290.477 145.628 680.859 145.628 295.354 221.01 94.8638 290.477 145.628 290.477 94.8638
          145.628 94.8638 60.5634 123.792 94.8638 221.01 123.792 27.6192 94.8638 27.6192 60.5634 94.8638
          1000 1000 1000 1000 1000 1000 1000 1000 1000 1000 1000 1000
          680.859 295.354 1000 1000 1000 295.354 1000 295.354 127.253 1000 504.953 1000
          1000 504.953 947.565 1000 152.423 504.953 1000 1000 1000 999.999 947.565 999.999
          1000 999.999 1000 947.565 1000 999.999 947.565 504.953 264.404 890.548 947.565 264.404
          947.565 890.548 1000 1000 890.548 1000 145.628 127.253 295.354 145.628 60.5634 127.253
          73.8374 127.253 60.5634 1000 127.253 152.423 73.8374 152.423 127.253 264.404 504.953 152.423
          73.8374 93.4949 152.423 264.404 152.423 93.4949 28.4539 73.8374 60.5634 28.4539 60.5634 27.6192
          28.4539 93.4949 73.8374 143.241 93.4949 28.4539 264.404 338.03 890.548 264.404 93.4949 338.03
          1000 890.548 338.03 143.241 338.03 93.4949 1000 1000 338.03 1000 338.03 143.241
        </DataArray>
        <DataArray type="Float32" Name="S_n" NumberOfComponents="1" format="ascii">
          0 4.56525e-14 0 0 4.91868e-06 4.56525e-14 7.3485e-05 0 4.56525e-14 7.3485e-05 5.43468e-05 0
          7.3485e-05 4.56525e-14 4.91868e-06 7.3485e-05 4.91868e-06 0.000246223 0 0.000339423 0 0.101605 0 0.000339423
          0 5.43468e-05 0.000339423 0.101605 0.000339423 5.43468e-05 0.101605 0.000364057 0 0 0.000364057 0
          0.101605 0.000108282 0.000364057 0 0.000364057 0.000108282 7.3485e-05 0.0235044 5.43468e-05 0.101605 5.43468e-05 0.0235044
          0 0 0 0.101605 0.0235044 0.000108282 0.0235044 1.90232e-07 0.000108282 0 0 0
          1.90232e-07 0 0.000108282 1.90232e-07 5.6424e-22 0 0 0 5.6424e-22 0 5.6424e-22 0
          1.90232e-07 2.10601e-07 5.6424e-22 0 5.6424e-22 2.10601e-07 0.0326403 0.000246223 4.91868e-06 0.0751341 0.000246223 0.0326403
          7.3485e-05 0.000246223 0.0751341 0 0 0 0.0751341 0.0326403 0.218007 0.257767 0.218007 0.0326403
          0.0751341 0.218007 0.313447 0.0751341 0.313447 0.215495 0.257767 0.364919 0.218007 0.313447 0.218007 0.364919
          0.313447 0.364919 0.413214 0.333608 0.364919 0.257767 0.333608 0.485715 0.364919 0.485715 0.413214 0.364919
          0 0 0 0 0 0 0 0 0 0 0 0
          0.0751341 0.215495 0 0 0 0.215495 0 0.215495 0.330243 0 0.128763 0
          0 0.128763 0.0109672 0 0.307639 0.128763 0 0 0 1.90232e-07 0.0109672 2.10601e-07
          0 2.10601e-07 0 0.0109672 0 2.10601e-07 0.0109672 0.128763 0.231995 0.0234223 0.0109672 0.231995
          0.0109672 0.0234223 0 0 0.0234223 0 0.313447 0.330243 0.215495 0.313447 0.413214 0.330243
          0.392552 0.330243 0.413214 0 0.330243 0.307639 0.392552 0.307639 0.330243 0.231995 0.128763 0.307639
          0.392552 0.366569 0.307639 0.231995 0.307639 0.366569 0.483218 0.392552 0.413214 0.483218 0.413214 0.485715
          0.483218 0.366569 0.392552 0.315535 0.366569 0.483218 0.231995 0.194752 0.0234223 0.231995 0.366569 0.194752
          0 0.0234223 0.194752 0.315535 0.194752 0.366569 0 0 0.194752 0 0.194752 0.315535
        </DataArray>
        <DataArray type="Float32" Name="p_n" NumberOfComponents="1" format="ascii">
          119810 119262 119810 119810 118861 119262 118567 119810 119262 118567 118872 119810
          118567 119262 118861 118567 118861 118508 119810 119406 119810 119917 119810 119406
          119810 118872 119406 119917 119406 118872 119917 119284 119810 119810 119284 119810
          119917 118500 119284 119810 119284 118500 118567 118485 118872 119917 118872 118485
          158567 158406 158339 119917 118485 118500 118485 117630 118500 158339 157476 157630
          117630 119810 118500 117630 118652 119810 119810 119810 118652 119810 118652 117358
          117630 116456 118652 117358 118652 116456 118475 118508 118861 119230 118508 118475
          118567 118508 119230 158567 158738 158406 119230 118475 121081 122121 121081 118475
          119230 121081 121914 119230 121914 119960 122121 123319 121081 121914 121081 123319
          121914 123319 123228 122163 123319 122121 122163 124787 123319 124787 123228 123319
          158339 158406 157981 158738 157981 158406 158339 157981 157476 157981 155955 157476
          119230 119960 117981 117201 117981 119960 117201 119960 121118 117201 117737 117981
          117981 117737 116023 117201 119578 117737 157630 157476 155955 117630 116023 116456
          117358 116456 114905 116023 114905 116456 116023 117737 117570 114505 116023 117570
          116023 114505 114905 114905 114505 112452 121914 121118 119960 121914 123228 121118
          121482 121118 123228 117201 121118 119578 121482 119578 121118 117570 117737 119578
          121482 119372 119578 117570 119578 119372 123114 121482 123228 123114 123228 124787
          123114 119372 121482 116093 119372 123114 117570 114765 114505 117570 119372 114765
          112452 114505 114765 116093 114765 119372 110000 112452 114765 110000 114765 116093
        </DataArray>
        <DataArray type="Float32" Name="rho_n" NumberOfComponents="1" format="ascii">
          1460 1460 1460 1460 1460 1460 1460 1460 1460 1460 1460 1460
          1460 1460 1460 1460 1460 1460 1460 1460 1460 1460 1460 1460
          1460 1460 1460 1460 1460 1460 1460 1460 1460 1460 1460 1460
          1460 1460 1460 1460 1460 1460 1460 1460 1460 1460 1460 1460
          1460 1460 1460 1460 1460 1460 1460 1460 1460 1460 1460 1460
          1460 1460 1460 1460 1460 1460 1460 1460 1460 1460 1460 1460
          1460 1460 1460 1460 1460 1460 1460 1460 1460 1460 1460 1460
          1460 1460 1460 1460 1460 1460 1460 1460 1460 1460 1460 1460
          1460 1460 1460 1460 1460 1460 1460 1460 1460 1460 1460 1460
          1460 1460 1460 1460 1460 1460 1460 1460 1460 1460 1460 1460
          1460 1460 1460 1460 1460 1460 1460 1460 1460 1460 1460 1460
          1460 1460 1460 1460 1460 1460 1460 1460 1460 1460 1460 1460
          1460 1460 1460 1460 1460 1460 1460 1460 1460 1460 1460 1460
          1460 1460 1460 1460 1460 1460 1460 1460 1460 1460 1460 1460
          1460 1460 1460 1460 1460 1460 1460 1460 1460 1460 1460 1460
          1460 1460 1460 1460 1460 1460 1460 1460 1460 1460 1460 1460
          1460 1460 1460 1460 1460 1460 1460 1460 1460 1460 1460 1460
          1460 1460 1460 1460 1460 1460 1460 1460 1460 1460 1460 1460
          1460 1460 1460 1460 1460 1460 1460 1460 1460 1460 1460 1460
        </DataArray>
        <DataArray type="Float32" Name="mob_n" NumberOfComponents="1" format="ascii">
          0 6.07431e-37 0 0 7.57283e-13 6.07431e-37 2.52517e-09 0 6.07431e-37 2.52517e-09 1.02146e-09 0
          2.52517e-09 6.07431e-37 7.57283e-13 2.52517e-09 7.57283e-13 9.49807e-08 0 2.48798e-07 0 6.26162 0 2.48798e-07
          0 1.02146e-09 2.48798e-07 6.26162 2.48798e-07 1.02146e-09 6.26162 3.06991e-07 0 0 3.06991e-07 0
          6.26162 8.07888e-09 3.06991e-07 0 3.06991e-07 8.07888e-09 2.52517e-09 0.0814499 1.02146e-09 6.26162 1.02146e-09 0.0814499
          0 0 0 6.26162 0.0814499 8.07888e-09 0.0814499 4.3809e-17 8.07888e-09 0 0 0
          4.3809e-17 0 8.07888e-09 4.3809e-17 0 0 0 0 0 0 0 0
          4.3809e-17 5.94426e-17 0 0 0 5.94426e-17 0.216893 9.49807e-08 7.57283e-13 2.57548 9.49807e-08 0.216893
          2.52517e-09 9.49807e-08 2.57548 0 0 0 2.57548 0.216893 57.1711 91.861 57.1711 0.216893
          2.57548 57.1711 158.521 2.57548 158.521 55.3155 91.861 240.434 57.1711 158.521 57.1711 240.434
          158.521 240.434 335.863 188.214 240.434 91.861 188.214 513.249 240.434 513.249 335.863 240.434
          0 0 0 0 0 0 0 0 0 0 0 0
          2.57548 55.3155 0 0 0 55.3155 0 55.3155 183.046 0 12.5193 0
          0 12.5193 0.00833857 0 150.527 12.5193 0 0 0 4.3809e-17 0.00833857 5.94426e-17
          0 5.94426e-17 0 0.00833857 0 5.94426e-17 0.00833857 12.5193 68.2198 0.0806038 0.00833857 68.2198
          0.00833857 0.0806038 0 0 0.0806038 0 158.521 183.046 55.3155 158.521 335.863 183.046
          292.809 183.046 335.863 0 183.046 150.527 292.809 150.527 183.046 68.2198 12.5193 150.527
          292.809 243.396 150.527 68.2198 150.527 243.396 506.465 292.809 335.863 506.465 335.863 513.249
          506.465 243.396 292.809 161.456 243.396 506.465 68.2198 41.4243 0.0806038 68.2198 243.396 41.4243
          0 0.0806038 41.4243 161.456 41.4243 243.396 0 0 41.4243 0 41.4243 161.456
        </DataArray>
      </PointData>
      <CellData Scalars="process rank">
        <DataArray type="Float32" Name="process rank" NumberOfComponents="1" format="ascii">
          0 0 0 0 0 0 0 0 0 0 0 0
          0 0 0 0 0 0 0 0 0 0 0 0
          0 0 0 0 0 0 0 0 0 0 0 0
          0 0 0 0 0 0 0 0 0 0 0 0
          0 0 0 0 0 0 0 0 0 0 0 0
          0 0 0 0 0 0 0 0 0 0 0 0
          0 0 0 0
        </DataArray>
      </CellData>
      <Points>
        <DataArray type="Float32" Name="Coordinates" NumberOfComponents="3" format="ascii">
          0 0 0 0.125 0.125 0 0.25 0 0 0 0 0
          0 0.25 0 0.125 0.125 0 0.25 0.25 0 0.25 0 0
          0.125 0.125 0 0.25 0.25 0 0.37664 0.179956 0 0.25 0 0
          0.25 0.25 0 0.125 0.125 0 0 0.25 0 0.25 0.25 0
          0 0.25 0 0.125 0.375 0 0.25 0 0 0.402173 0.078821 0
          0.5 0 0 0.5 0.15 0 0.5 0 0 0.402173 0.078821 0
          0.25 0 0 0.37664 0.179956 0 0.402173 0.078821 0 0.5 0.15 0
          0.402173 0.078821 0 0.37664 0.179956 0 0.5 0.15 0 0.597827 0.078821 0
          0.5 0 0 0.5 0 0 0.597827 0.078821 0 0.75 0 0
          0.5 0.15 0 0.62336 0.179956 0 0.597827 0.078821 0 0.75 0 0
          0.597827 0.078821 0 0.62336 0.179956 0 0.25 0.25 0 0.5 0.25 0
          0.37664 0.179956 0 0.5 0.15 0 0.37664 0.179956 0 0.5 0.25 0
          0.25 0.25 0 0.375 0.375 0 0.5 0.25 0 0.5 0.15 0
          0.5 0.25 0 0.62336 0.179956 0 0.5 0.25 0 0.75 0.25 0
          0.62336 0.179956 0 0.5 0.25 0 0.625 0.375 0 0.75 0.25 0
          0.75 0.25 0 0.75 0 0 0.62336 0.179956 0 0.75 0.25 0
          0.875 0.125 0 0.75 0 0 1 0 0 0.75 0 0
          0.875 0.125 0 1 0 0 0.875 0.125 0 1 0.25 0
          0.75 0.25 0 0.875 0.375 0 0.875 0.125 0 1 0.25 0
          0.875 0.125 0 0.875 0.375 0 0 0.5 0 0.125 0.375 0
          0 0.25 0 0.25 0.5 0 0.125 0.375 0 0 0.5 0
          0.25 0.25 0 0.125 0.375 0 0.25 0.5 0 0.25 0.25 0
          0.25 0.5 0 0.375 0.375 0 0.25 0.5 0 0 0.5 0
          0.1475 0.6475 0 0 0.75 0 0.1475 0.6475 0 0 0.5 0
          0.25 0.5 0 0.1475 0.6475 0 0.288455 0.708047 0 0.25 0.5 0
          0.288455 0.708047 0 0.391546 0.602561 0 0 0.75 0 0.154493 0.84607 0
          0.1475 0.6475 0 0.288455 0.708047 0 0.1475 0.6475 0 0.154493 0.84607 0
          0.288455 0.708047 0 0.154493 0.84607 0 0.360239 0.86125 0 0 1 0
          0.154493 0.84607 0 0 0.75 0 0 1 0 0.25 1 0
          0.154493 0.84607 0 0.25 1 0 0.360239 0.86125 0 0.154493 0.84607 0
          0.5 0.25 0 0.375 0.375 0 0.5 0.5 0 0.25 0.5 0
          0.5 0.5 0 0.375 0.375 0 0.5 0.25 0 0.5 0.5 0
          0.625 0.375 0 0.5 0.5 0 0.75 0.5 0 0.625 0.375 0
          0.25 0.5 0 0.391546 0.602561 0 0.5 0.5 0 0.5 0.6 0
          0.5 0.5 0 0.391546 0.602561 0 0.5 0.6 0 0.391546 0.602561 0
          0.430764 0.712341 0 0.5 0.6 0 0.609787 0.602915 0 0.5 0.5 0
          0.5 0.5 0 0.609787 0.602915 0 0.75 0.5 0 0.5 0.6 0
          0.57666 0.710051 0 0.609787 0.602915 0 0.75 0.25 0 0.625 0.375 0
          0.75 0.5 0 0.75 0.25 0 0.75 0.5 0 0.875 0.375 0
          1 0.25 0 0.875 0.375 0 1 0.5 0 0.75 0.5 0
          1 0.5 0 0.875 0.375 0 0.75 0.5 0 0.609787 0.602915 0
          0.711417 0.719098 0 0.8525 0.6475 0 0.75 0.5 0 0.711417 0.719098 0
          0.75 0.5 0 0.8525 0.6475 0 1 0.5 0 1 0.5 0
          0.8525 0.6475 0 1 0.75 0 0.288455 0.708047 0 0.430764 0.712341 0
          0.391546 0.602561 0 0.288455 0.708047 0 0.360239 0.86125 0 0.430764 0.712341 0
          0.507497 0.818795 0 0.430764 0.712341 0 0.360239 0.86125 0 0.5 0.6 0
          0.430764 0.712341 0 0.57666 0.710051 0 0.507497 0.818795 0 0.57666 0.710051 0
          0.430764 0.712341 0 0.711417 0.719098 0 0.609787 0.602915 0 0.57666 0.710051 0
          0.507497 0.818795 0 0.646328 0.861801 0 0.57666 0.710051 0 0.711417 0.719098 0
          0.57666 0.710051 0 0.646328 0.861801 0 0.5 1 0 0.507497 0.818795 0
          0.360239 0.86125 0 0.5 1 0 0.360239 0.86125 0 0.25 1 0
          0.5 1 0 0.646328 0.861801 0 0.507497 0.818795 0 0.75 1 0
          0.646328 0.861801 0 0.5 1 0 0.711417 0.719098 0 0.8525 0.8525 0
          0.8525 0.6475 0 0.711417 0.719098 0 0.646328 0.861801 0 0.8525 0.8525 0
          1 0.75 0 0.8525 0.6475 0 0.8525 0.8525 0 0.75 1 0
          0.8525 0.8525 0 0.646328 0.861801 0 1 1 0 1 0.75 0
          0.8525 0.8525 0 1 1 0 0.8525 0.8525 0 0.75 1 0
        </DataArray>
      </Points>
      <Cells>
        <DataArray type="Int32" Name="connectivity" NumberOfComponents="1" format="ascii">
          0 1 2 3 4 5 6 7 8 9 10 11
          12 13 14 15 16 17 18 19 20 21 22 23
          24 25 26 27 28 29 30 31 32 33 34 35
          36 37 38 39 40 41 42 43 44 45 46 47
          48 49 50 51 52 53 54 55 56 57 58 59
          60 61 62 63 64 65 66 67 68 69 70 71
          72 73 74 75 76 77 78 79 80 81 82 83
          84 85 86 87 88 89 90 91 92 93 94 95
          96 97 98 99 100 101 102 103 104 105 106 107
          108 109 110 111 112 113 114 115 116 117 118 119
          120 121 122 123 124 125 126 127 128 129 130 131
          132 133 134 135 136 137 138 139 140 141 142 143
          144 145 146 147 148 149 150 151 152 153 154 155
          156 157 158 159 160 161 162 163 164 165 166 167
          168 169 170 171 172 173 174 175 176 177 178 179
          180 181 182 183 184 185 186 187 188 189 190 191
          192 193 194 195 196 197 198 199 200 201 202 203
          204 205 206 207 208 209 210 211 212 213 214 215
          216 217 218 219 220 221 222 223 224 225 226 227
        </DataArray>
        <DataArray type="Int32" Name="offsets" NumberOfComponents="1" format="ascii">
          3 6 9 12 15 18 21 24 27 30 33 36
          39 42 45 48 51 54 57 60 63 66 69 72
          75 78 81 84 87 90 93 96 99 102 105 108
          111 114 117 120 123 126 129 132 135 138 141 144
          147 150 153 156 159 162 165 168 171 174 177 180
          183 186 189 192 195 198 201 204 207 210 213 216
          219 222 225 228
        </DataArray>
        <DataArray type="UInt8" Name="types" NumberOfComponents="1" format="ascii">
          5 5 5 5 5 5 5 5 5 5 5 5
          5 5 5 5 5 5 5 5 5 5 5 5
          5 5 5 5 5 5 5 5 5 5 5 5
          5 5 5 5 5 5 5 5 5 5 5 5
          5 5 5 5 5 5 5 5 5 5 5 5
          5 5 5 5 5 5 5 5 5 5 5 5
          5 5 5 5
        </DataArray>
      </Cells>
    </Piece>
  </UnstructuredGrid>
</VTKFile>
