<?xml version="1.0"?>
<VTKFile type="UnstructuredGrid" version="0.1" byte_order="LittleEndian">
  <UnstructuredGrid>
    <Piece NumberOfCells="1883" NumberOfPoints="980">
      <PointData Scalars="S_n">
        <DataArray type="Float32" Name="S_n" NumberOfComponents="1" format="ascii">
          0.0152079 0 5.49811e-07 0 0 0 0 0 0 0 0 0
          0 0 0 0 0 0 0 0 0 0 0 0
          0 0.326542 0.285021 0 0 0 0 0.35585 0 0.216695 0 0
          0 0.378218 0 0 0 0.0947309 0 0 0 0 0 0
          0 0 0 0.395093 0 0 0 0 0 0 0.00482729 0
          0 0 0 0 0 0 0 0 0 0 0 0.408108
          0 0 0 3.7113e-07 0 0 0 0 0 0 0 0
          0 0 0 0 0 0 0 0 0 0 0.418441 0
          0 0 0 1.55057e-19 0 0 0 0 0 0 0 0
          0 0 0 0 0 0 0 0 0 0.426582 0 0
          0 0 0 0 0 0 0 0 0 0 0 0
          0 0 0 0 0 0 0 0 0 0 0 0
          0 0 0 0 0 0.433287 0 0 0 0 0 0
          0 0 0 0 0 0 0 0 0 0 0 0.174257
          0 0 0 0 0 0 0.329366 0 0 0 0 0
          0 0.438714 0 0 0 0 0 0 0 0 0 0
          0 0 0 0 0 0 0 0 0.328785 0 0 0
          0 0 0 0 0 0 0 0 0 0 0 0
          0 0 0 0 0 0 0 0 0.179603 0.513651 0 0
          0 0 0 0 0 0 0 0 0 0 0 0
          0 0 0 0 0 0 0 0 0 0 0 0
          0 0 0 0.0187354 0 0 0 0 0 0 0 0
          0 0 0 0 0 0 0 0 0 0 0 0
          0.538925 0 0 0 0 0 0 0 0 0 0 0
          0 0 1.33848e-06 0 0 0 0 0 0 0 0 0
          0 0 0 0 0 0 0 0 0 0 0 0
          0 0 0 0 0 0 0 0 0 0 0 0
          0 0 0 0 0 0 0 6.42497e-21 0 0 0 0
          0.554019 0 0 0 0 0 0 0 0 0 0 0
          0 0 0 0 0 0 0 0 0 0 0 0
          0 0 0 0 0 0 0 0 0 0 0 0
          0 0 0 0 0 0 0 0 0 0 0 0
          0 0 0 0 0 0 0 0 0 0 0 0
          0 0 0 0.56791 0 0 0 0 0 0 0 0
          0 0 0 0 0 0 0 0 0 0 0 0
          0 0 0 0 0 0 0 0 0 0 0 0
          0 0 0 0 0 0 0 0 0 0 0 0
          0 0 0 0 0 0 0 0 0 0 0 0
          0 0 0 0 0 0 0 0 0 0 0.582047 0
          0 0 0 0 0 0 0 0 0 0 0 0
          0 0 0 0 0 0 0 0 0 0 0 0
          0 0 0 0 0 0 0 0 0 0 0 0
          0 0 0 0 0 0 0 0 0 0 0 0
          0 0 0 0 0 0 0 0 0 0 0 0
          0 0 0 0 0 0 0 0 0 0 0 0
          0 0.597599 0 0 0 0 0 0 0 0 0 0
          0 0 0 0 2.17946e-16 0 0 0 0 0 0 0
          0 0 0 0 0 0 0 0 0 0 0 0
          0 0 0 0 0 0 0 0 0 0 0 0
          0 0 0 0 0 0 3.01111e-16 0 0 0 0 0
          0 0 0.614668 0 0 0 0 0 0 0 0 0
          0 0 0 0 0 0 0 0 0 0 0 0
          0 8.10814e-19 0 0 0 0 0 0 0 0 0 0
          0 0 0 0 0 0 0 0 0 0 0 0
          0 0 0 0 0 0 0 0 0 0 0 0
          0 0 0 0 0 0 0.634743 0 0 0 0 0
          0 0 0 0 0 0 0 0 0 0 0 0
          0 0 0 0 0 0 0 0 0 0 0 0
          0 0 0 0 0 0 0 0 0 0 4.48175e-16 0
          0 0 0 0 0 0 0 0 0 0 0 0
          0 0 0 0.6587 0 0 0 0 0 0 0 0
          0 0 0 0 0 0 0 0 0 4.53363e-16 0 0
          0 0 0 0 0 0 0 0 0 0 0 0
          0 0 0 0 0 1 0.000300041 1 0 0 0 0
          0 0 0 0 0.690294 0 0 0 0 0 0 0
          0 0 0 0 0 0 0 0 0 0 0 0
          5.62054e-21 0 1 0.000223537 0 0 0 0 0.000851954 1 0.00079985 1
          0 0 0 6.68822e-16 0 0 0 0 0 0 0 0
          0 0 0 0 0 0 0 0 0 5.52787e-06 0 0
          0.744321 0 0 0 0 0 0 0 0 0 0 0
          0 0 0 0 7.98143e-20 0 0 0 0 0 0 0
          0 0 0 0 0 0 0 0 0.00172147 1 0 0
          0 0 0 1.24751e-05 0 0 0 0 0 0 1.33993e-17 0
          0 0 0 0 0 0 0 0 5.94417e-15 0.0030711 1 0
          0 0 0 0 0 0 0.817781 1 0 0 0 0
          0 0 0 0 0 0 0 0.00385136 1 0 0 0.000251901
          1 0 0 0 0 0.00102798 1 1 0.00199338 1 0 0
          0 7.50887e-19 9.62767e-16 0 0 0 0 0 0 0 0 0
          0 0 0 0 0 0.00455277 0 0 0 0 0.000953742 1
          0 0 0.000237253 1 0.000817331 1 0 0 0 0 0 0
          7.60108e-16 8.62105e-05 0 0 0.000132628 5.31774e-18 0 0 0 0 0.000481945 1
          0.000288549 1 0 0 1 0.000321633 0 0
        </DataArray>
        <DataArray type="Float32" Name="S_w" NumberOfComponents="1" format="ascii">
          0.984792 1 0.999999 1 1 1 1 1 1 1 1 1
          1 1 1 1 1 1 1 1 1 1 1 1
          1 0.673458 0.714979 1 1 1 1 0.64415 1 0.783305 1 1
          1 0.621782 1 1 1 0.905269 1 1 1 1 1 1
          1 1 1 0.604907 1 1 1 1 1 1 0.995173 1
          1 1 1 1 1 1 1 1 1 1 1 0.591892
          1 1 1 1 1 1 1 1 1 1 1 1
          1 1 1 1 1 1 1 1 1 1 0.581559 1
          1 1 1 1 1 1 1 1 1 1 1 1
          1 1 1 1 1 1 1 1 1 0.573418 1 1
          1 1 1 1 1 1 1 1 1 1 1 1
          1 1 1 1 1 1 1 1 1 1 1 1
          1 1 1 1 1 0.566713 1 1 1 1 1 1
          1 1 1 1 1 1 1 1 1 1 1 0.825743
          1 1 1 1 1 1 0.670634 1 1 1 1 1
          1 0.561286 1 1 1 1 1 1 1 1 1 1
          1 1 1 1 1 1 1 1 0.671215 1 1 1
          1 1 1 1 1 1 1 1 1 1 1 1
          1 1 1 1 1 1 1 1 0.820397 0.486349 1 1
          1 1 1 1 1 1 1 1 1 1 1 1
          1 1 1 1 1 1 1 1 1 1 1 1
          1 1 1 0.981265 1 1 1 1 1 1 1 1
          1 1 1 1 1 1 1 1 1 1 1 1
          0.461075 1 1 1 1 1 1 1 1 1 1 1
          1 1 0.999999 1 1 1 1 1 1 1 1 1
          1 1 1 1 1 1 1 1 1 1 1 1
          1 1 1 1 1 1 1 1 1 1 1 1
          1 1 1 1 1 1 1 1 1 1 1 1
          0.445981 1 1 1 1 1 1 1 1 1 1 1
          1 1 1 1 1 1 1 1 1 1 1 1
          1 1 1 1 1 1 1 1 1 1 1 1
          1 1 1 1 1 1 1 1 1 1 1 1
          1 1 1 1 1 1 1 1 1 1 1 1
          1 1 1 0.43209 1 1 1 1 1 1 1 1
          1 1 1 1 1 1 1 1 1 1 1 1
          1 1 1 1 1 1 1 1 1 1 1 1
          1 1 1 1 1 1 1 1 1 1 1 1
          1 1 1 1 1 1 1 1 1 1 1 1
          1 1 1 1 1 1 1 1 1 1 0.417953 1
          1 1 1 1 1 1 1 1 1 1 1 1
          1 1 1 1 1 1 1 1 1 1 1 1
          1 1 1 1 1 1 1 1 1 1 1 1
          1 1 1 1 1 1 1 1 1 1 1 1
          1 1 1 1 1 1 1 1 1 1 1 1
          1 1 1 1 1 1 1 1 1 1 1 1
          1 0.402401 1 1 1 1 1 1 1 1 1 1
          1 1 1 1 1 1 1 1 1 1 1 1
          1 1 1 1 1 1 1 1 1 1 1 1
          1 1 1 1 1 1 1 1 1 1 1 1
          1 1 1 1 1 1 1 1 1 1 1 1
          1 1 0.385332 1 1 1 1 1 1 1 1 1
          1 1 1 1 1 1 1 1 1 1 1 1
          1 1 1 1 1 1 1 1 1 1 1 1
          1 1 1 1 1 1 1 1 1 1 1 1
          1 1 1 1 1 1 1 1 1 1 1 1
          1 1 1 1 1 1 0.365257 1 1 1 1 1
          1 1 1 1 1 1 1 1 1 1 1 1
          1 1 1 1 1 1 1 1 1 1 1 1
          1 1 1 1 1 1 1 1 1 1 1 1
          1 1 1 1 1 1 1 1 1 1 1 1
          1 1 1 0.3413 1 1 1 1 1 1 1 1
          1 1 1 1 1 1 1 1 1 1 1 1
          1 1 1 1 1 1 1 1 1 1 1 1
          1 1 1 1 1 0 0.9997 0 1 1 1 1
          1 1 1 1 0.309706 1 1 1 1 1 1 1
          1 1 1 1 1 1 1 1 1 1 1 1
          1 1 0 0.999776 1 1 1 1 0.999148 0 0.9992 0
          1 1 1 1 1 1 1 1 1 1 1 1
          1 1 1 1 1 1 1 1 1 0.999994 1 1
          0.255679 1 1 1 1 1 1 1 1 1 1 1
          1 1 1 1 1 1 1 1 1 1 1 1
          1 1 1 1 1 1 1 1 0.998279 0 1 1
          1 1 1 0.999988 1 1 1 1 1 1 1 1
          1 1 1 1 1 1 1 1 1 0.996929 0 1
          1 1 1 1 1 1 0.182219 0 1 1 1 1
          1 1 1 1 1 1 1 0.996149 0 1 1 0.999748
          0 1 1 1 1 0.998972 0 0 0.998007 0 1 1
          1 1 1 1 1 1 1 1 1 1 1 1
          1 1 1 1 1 0.995447 1 1 1 1 0.999046 0
          1 1 0.999763 0 0.999183 0 1 1 1 1 1 1
          1 0.999914 1 1 0.999867 1 1 1 1 1 0.999518 0
          0.999711 0 1 1 0 0.999678 1 1
        </DataArray>
        <DataArray type="Float32" Name="p_n" NumberOfComponents="1" format="ascii">
          22782.3 22479.9 22766.7 21909.9 11230.2 10971.3 10971.3 10444.4 14860.1 14992.2 14083.8 13853.1
          14706.3 13609.6 13041.2 15769 14615.2 15678.8 13000.3 15477.4 13501.2 12416.5 15591.5 16645.6
          16416.3 15607.3 14564.9 12447.1 12171 14177.3 16595.7 16634.9 12845.7 13557.7 17332.6 17573.1
          17432.4 17649.5 11796.2 12635.1 12022.5 12695 11438.2 15894 16640.2 13987 12279.3 15244.2
          17629.7 16777.6 11467.2 18639.1 18342.1 18376 14659.7 11428.2 15321.8 11145 12178.6 13432.3
          17675 13395.6 11720.3 10786.6 16465.2 19017.3 14092 17921.6 12871.1 15701.8 10629.4 19621
          18562.9 17349.8 10906.2 11872.7 11788 14841.7 11200.9 10599 12290.4 11541.7 19540.1 19136.1
          13601.3 10383 10743.8 10095.7 13023.5 16382.1 10049.1 20047.8 18714.3 17889.4 20588.9 14690.6
          19524.6 19090.8 10323.6 11578.2 9996.93 16788.9 12322.3 11879.2 20517.6 11235.8 10565.5 20135.3
          12033.6 9663.69 20819.1 13463.2 9871 9518.33 14503.7 9453.53 10802.4 21511.4 12781.2 19819.9
          9469.81 9743.9 20522.5 17748.1 10058.5 9442.78 9846.43 11252 19222 19139.4 20471.9 21612.1
          12227.8 10361.9 10513.4 11745 12905.6 21725.6 9118.2 18130.6 15667.1 21719.7 8981.61 10680.8
          16120.5 21369.7 8816.03 11303.2 9216.96 22439.4 9665.75 20222.5 10891.2 14332.7 9614.9 9215.31
          8952.81 20989.2 12873.4 10971.6 10052.5 12309.1 8817.39 10437.1 11813.3 17051 19885.7 22964.8
          8511 18534.1 11423.8 8561.53 19481.5 14536.2 23162.2 8547.33 8934.03 9845.66 11300 8287.18
          9114.53 23268.8 22102 10971.5 9605.17 20440.5 8207.43 10093.4 21131.9 8452.57 10076.7 8619.35
          21722.2 12377.2 20634.7 13266.5 10971.2 8803.53 8025.07 22774 23161.3 8269.88 11862.6 12560.6
          18925.1 16182.7 22945 11467.6 19245.9 8154.28 17053.5 8902.57 7906.65 10971.5 7926.75 10484.2
          10066 9038.43 7749.48 9124.35 22483 20087.8 14561.6 8496.3 22971.2 24040.6 21777.8 10852.7
          10885.2 9460.13 12518.3 15039.8 21038.1 7911.85 22026.7 11951.4 23274.3 7477.01 18009.4 7784.09
          20769.7 19898.6 7968.07 10970.8 23040.7 7900.73 7636.98 8079.02 22882.4 7621.92 13896.5 9088.27
          11411.1 10077 10971.4 22785.4 22014.9 23390.7 23251.1 8838.56 7231.97 8328.09 8055.62 10714
          7211.7 9397.08 20181.6 18014.3 22013 10207.1 21308.9 12925.8 21029.7 7007.22 9470.97 23032.8
          24796 12909.2 20317 10773 11955.4 7310.32 7666.04 7310.77 16391.4 7342.24 10627.3 22489.5
          7309.89 8027.74 22766.1 7311.2 19398.2 17137.2 6834.02 11482.3 10971.4 7082.38 10970.4 11022.4
          23346.1 23779.1 10638.6 10254.1 23097.5 7311.61 6903.85 15738.6 6801.07 19963.1 8202.91 8205
          21896.4 21808.9 8721.27 7639.65 23922.9 7311.99 14412.1 20744.7 6510.83 9406.51 9616.05 8618.9
          21439.3 10368.6 7309.88 23078.8 6492.52 10593.4 14560.8 22765.8 20901.3 6950.47 7318.31 10634.9
          25466.2 22916.8 11568.4 7312.35 12101.2 10326.8 7348.76 18851.9 10029.2 22482.8 6203.1 7028.72
          10971.3 6478.84 6782.01 23605.4 19991.9 10970 23414.7 11031.6 20668.5 10205.7 24241.2 13484.2
          7391.28 6527.63 17694.3 6941.63 7312.68 10499.9 8772.23 19978.3 10223.6 7409.27 23870.4 7425.86
          7309.88 5892.93 6030.8 16579.4 21453.4 22765.6 11973.3 8295.85 15760.9 10226.6 24379.6 11619.3
          6255.25 8008.14 7338.2 23198.2 22154.1 7065.35 22960.9 23199.1 9905.88 10500.7 17915 6775.63
          9436.34 7312.98 7503.04 26130.3 7402.36 12996.2 22840.7 12184.8 5588.07 9839.88 5804.43 20752.6
          10867.9 5910.94 11738.2 23990 6201.45 8477.62 7534.35 10969.7 9931.63 24710.7 21145.6 10350.5
          7309.88 7493.27 9703.95 19149.7 6264.92 6610.06 22765.3 14296.9 8223.66 7373.27 7163.37 14730.8
          11941 6463.94 7313.22 9559.44 22061.2 23776.1 19944.6 24326.3 9821.93 5311.75 7042.34 22417.5
          10146.5 5990.26 11177.8 24962.6 17049.1 7610.99 7665.73 5500.51 12611.4 22920 5447.97 10224.6
          23339.9 7713.8 6782.88 20131.3 15878.4 6571.34 13035.4 22811.2 11358.5 9197.88 26737.4 7459.67
          8877.4 13559.3 21550 11766.7 5658.22 7309.88 9287.9 20838.1 5054.65 7313.43 18277.2 5839.57
          22765.1 17226 5423.57 10969.4 9312.08 5231.97 9579.71 9138.73 24967 7321.48 6167.24 7805
          22263.9 7611.45 12076 18740.9 10535.8 7386.83 23111.2 6055.78 7945.96 15655.6 8907.36 24144.8
          10807.8 6860.38 5721.63 24214.2 5362.34 9272.93 4794.74 20027.6 10056.3 25304 6369.8 22822.8
          7313.56 7815.06 6453.86 8119.21 22746.5 7796.11 9725.23 7083.31 11108.9 6564.41 9940.74 9465.84
          21601 22737.1 21446.7 22584.6 7309.9 20973 8222.18 23519.1 22764.9 7523.94 4829.86 13165
          24708.7 27327.1 8892.03 7995.82 23492.8 8652.3 4983.39 9836.35 10279.6 11504.3 8612.13 5390.7
          10969.2 4548.54 5095.41 25350.8 19306.7 17045 5220.05 8545.02 10460 8298.16 6786.09 7737.61
          11748.9 4819.73 22708.2 14391.5 9563.31 9775.14 6775.12 8800.78 25310.3 8583.73 8079.76 20760.5
          9439.53 22676 9535.21 5921.43 7428.49 15043.1 5851.1 22764.7 22139.6 7309.91 6966.81 21447.4
          11310 5286.8 4282.11 8947.34 24134.3 7160.18 18462.2 7602.81 12585.2 5086.71 19315.5 8201.73
          6173.19 22825.7 27857.1 8432.7 9419.88 7971.32 4787.01 22992 7907.38 24567.1 4446.99 12708.4
          10969 9221.33 16567.3 17928.8 9730.68 10625.2 5359.23 23690.2 25385.1 8350.74 16381.3 7835.15
          9109.66 20511.4 8605.36 8886.93 7115.23 21669.2 7802.03 7687.96 22625.8 10694.4 3992.96 7470.95
          21308.3 22689.7 4538.46 7326.62 22583.9 25989.5 5646.15 7309.93 22764.6 10290.3 6632.32 8249.97
          6844.77 11493.4 4415.65 4117.66 21987.7 4911.18 12385.5 20444.4 23021.2 8269.39 14142.4 4708.79
          8982.52 6638.95 8159.72 24135.3 22554.5 8113.13 28361.2 25056.6 7200.14 7501.24 9997.96 4247.59
          8549.49 5688.78 11486.8 6622.57 25792 3684.75 6700.54 3786.37 6248.11 7537.11 8282.21 4388.84
          7099.08 5365.99 23891.4 21914.3 22491.6 6813.51 22764.5 7309.95 21137.1 25930.8 9192.51 4071.53
          7776.86 4820.94 22550.9 6571.66 4868.9 22548.4 15674.3 22633.4 3820.64 5728.95 18084.1 18654.5
          17324.5 18316.6 16189.2 10964.4 8406.09 4284.55 20205.4 6419.57 6276.26 6192.06 20607.6 8105.16
          12788.3 9206.38 21650.3 28803.3 5254.92 9985.04 3380.77 24904.8 3583.76 24970.5 3465.94 23223.7
          6831.98 5897.35 6919.07 26072.2 15428.2 13126.7 7575.31 21079.9 22297 17055.9 7135.73 4351.84
          22764.3 11085.5 6161.66 7309.97 8061.15 8762.98 5347.72 15102.9 22438.3 7878.19 3936.57 3955.35
          22404.7 22484.4 6591.07 4273.82 8389.43 30002 19880.3 30002 22038.8 12357.7 5152.17 7037.02
          3485.89 3071.28 22672.4 3326.66 29195.2 6083.39 3378.17 24812 24376 22525.7 22105.5 21556.9
          23086.1 5654.52 7636.26 7007.11 6722.09 4219.98 2001 2001 22634.5 13935.1 22764.3 7309.99
          22504 5147.39 30002 19679.6 22368.2 4102.42 2001 25650 19787 30002 20646.2 30002
          3068.97 19197.9 20079.6 16729.7 8400.92 22154.9 12099 10547.9 21054.6 3259.53 3946.72 2001
          2776.71 8905.24 9226.38 10594.5 6383.81 2875.78 3423.88 10919.1 12871 23806.7 22411.9 23283.3
          29534.9 7151.28 7198.83 7034.18 4382.64 3111.78 21880 5635.88 2850.22 7773.24 7857.5 7310.01
          21833.7 4968.7 3651.75 2001 23677.6 21925.9 7980.44 22627.7 22764.2 4269.5 2001 22493.1
          21840.3 15427.1 7310 2916.11 2001 3577.06 6963.96 6813.58 20862.2 30002 6649.06 6458.94
          8144.38 8263.05 12296.1 24108.8 2503.63 8712.91 8650.28 21924.1 2574.88 13878 15714.9 21140.1
          21164.1 2601.66 2001 6030.48 6053.7 5612.02 2795.31 5909.82 22331.9 21263.6 30002 22282.9
          2611.01 21854.2 22764.2 21967.5 9655.34 7716.64 29796.5 30002 22666.8 22234.5 22051.9 22764.2
          22656 22378.2 2242.01 2001 2001 5026.52 5592.27 21351.6 30002 5101.77 4124.08 19148.2
          30002 15213.8 2273.72 2001 2941.22 22135.1 30002 30002 20761.5 30002 22541.3 22568.6
          6088.97 21446.7 17057.3 3612.61 4582.17 2001 2413.36 2001 2001 21113.1 3128.49 2264.69
          21725.1 22266.7 22413.8 22416.8 21160.7 19967.5 22255.4 21999.3 2504.12 2001 20488.4 30002
          21926.8 21627.5 19569.6 30002 20203.7 30002 3040.08 3892.45 4234.84 2001 6850.21 4743.28
          16480.2 18572.4 2443.71 2001 19859.8 21157.8 21094.5 21503.9 2686.06 2001 20389.6 30002
          20187.4 30002 2001 2816.88 30002 18587 4019.1 2001
        </DataArray>
        <DataArray type="Float32" Name="p_w" NumberOfComponents="1" format="ascii">
          20767 20479.9 20766.7 19909.9 9230.22 8971.3 8971.25 8444.39 12860.1 12992.2 12083.8 11853.1
          12706.3 11609.6 11041.2 13769 12615.2 13678.8 11000.3 13477.4 11501.2 10416.5 13591.5 14645.6
          14416.3 13170.2 12199.6 10447.1 10171 12177.3 14595.7 14142.9 10845.7 11297.9 15332.6 15573.1
          15432.4 15113.1 9796.19 10635.1 10022.5 10592.9 9438.24 13894 14640.2 11987 10279.3 13244.2
          15629.7 14777.6 9467.23 16067.6 16342.1 16376 12659.7 9428.17 13321.8 9145.04 10173.8 11432.3
          15675 11395.6 9720.33 8786.59 14465.2 17017.3 12092 15921.6 10871.1 13701.8 8629.41 17021.4
          16562.9 15349.8 8906.25 9872.71 9788.02 12841.7 9200.88 8598.97 10290.4 9541.72 17540.1 17136.1
          11601.3 8383.05 8743.78 8095.69 11023.5 14382.1 8049.08 18047.8 16714.3 15889.4 17966.3 12690.6
          17524.6 17090.8 8323.61 9578.23 7996.93 14788.9 10322.3 9879.21 18517.6 9235.75 8565.55 18135.3
          10033.6 7663.69 18819.1 11463.2 7871 7518.33 12503.7 7453.53 8802.4 18870.2 10781.2 17819.9
          7469.81 7743.9 18522.5 15748.1 8058.52 7442.78 7846.43 9251.99 17222 17139.4 18471.9 19612.1
          10227.8 8361.94 8513.38 9745.04 10905.6 19725.6 7118.2 16130.6 13667.1 19719.7 6981.61 8680.82
          14120.5 19369.7 6816.03 9303.21 7216.96 19782.7 7665.75 18222.5 8891.18 12332.7 7614.9 7215.31
          6952.81 18989.2 10873.4 8971.56 8052.45 10309.1 6817.39 8437.13 9813.26 15051 17885.7 20763.9
          6511 16534.1 9423.78 6561.53 17481.5 12536.2 20720 6547.34 6934.03 7845.65 9300.05 6287.18
          7114.53 20599.2 20102 8971.52 7605.17 18440.5 6207.43 8093.38 19131.9 6452.57 8076.73 6619.35
          19722.2 10377.2 18634.7 11266.5 8971.17 6803.53 6025.07 20774 20720.1 6269.88 9862.6 10560.6
          16925.1 14182.7 20945 9467.57 17245.9 6154.28 15053.5 6902.57 5906.65 8971.49 5926.75 8484.2
          8065.98 7038.43 5749.48 7124.35 20483 18087.8 12561.6 6496.3 20763.1 21172.8 19777.8 8852.67
          8885.15 7460.13 10518.3 13039.8 19038.1 5911.85 20026.7 9951.36 21274.3 5477.01 16009.4 5784.09
          18769.7 17898.6 5968.07 8970.75 21040.7 5900.73 5636.98 6079.02 20882.4 5621.92 11896.5 7088.27
          9411.15 8077.02 8971.44 20766.4 20014.9 21390.7 21251.1 6838.56 5231.97 6328.09 6055.62 8714.03
          5211.7 7397.08 18181.6 16014.3 20013 8207.05 19308.9 10925.8 19029.7 5007.22 7470.97 21032.8
          21850.6 10909.2 18317 8772.97 9955.36 5310.32 5666.04 5310.77 14391.4 5342.24 8627.27 20489.5
          5309.89 6027.74 20766.1 5311.2 17398.2 15137.2 4834.02 9482.32 8971.39 5082.38 8970.38 9022.36
          21346.1 21779.1 8638.56 8254.08 21097.5 5311.61 4903.85 13738.6 4801.07 17963.1 6202.91 6205
          19896.4 19808.9 6721.27 5639.65 21922.9 5311.99 12412.1 18744.7 4510.83 7406.51 7616.05 6618.9
          19439.3 8368.62 5309.88 21078.8 4492.52 8593.4 12560.8 20765.8 18901.3 4950.47 5318.31 8634.91
          22471.4 20916.8 9568.35 5312.35 10101.2 8326.85 5348.76 16851.9 8029.19 20482.8 4203.1 5028.72
          8971.34 4478.84 4782.01 21605.4 17991.9 8970.01 21414.7 9031.63 18668.5 8205.71 22241.2 11484.2
          5391.28 4527.63 15694.3 4941.63 5312.68 8499.94 6772.23 17978.3 8223.56 5409.27 21870.4 5425.86
          5309.88 3892.93 4030.8 14579.4 19453.4 20765.6 9973.34 6295.85 13760.9 8226.65 22379.6 9619.32
          4255.25 6008.14 5338.2 21198.2 20154.1 5065.35 20960.9 21199.1 7905.88 8500.69 15915 4775.63
          7436.34 5312.98 5503.04 23087.7 5402.36 10996.2 20840.7 10184.8 3588.07 7839.88 3804.43 18752.6
          8867.89 3910.94 9738.25 21990 4201.45 6477.62 5534.35 8969.68 7931.63 22710.7 19145.6 8350.54
          5309.88 5493.27 7703.95 17149.7 4264.92 4610.06 20765.3 12296.9 6223.66 5373.27 5163.37 12730.8
          9940.99 4463.94 5313.22 7559.44 20061.2 21776.1 17944.6 22326.3 7821.93 3311.75 5042.34 20417.5
          8146.48 3990.26 9177.8 22962.6 15049.1 5610.99 5665.73 3500.51 10611.4 20920 3447.97 8224.62
          21339.9 5713.8 4782.88 18131.3 13878.4 4571.34 11035.4 20811.2 9358.54 7197.88 23643.8 5459.67
          6877.4 11559.3 19550 9766.73 3658.22 5309.88 7287.9 18838.1 3054.65 5313.43 16277.2 3839.57
          20765.1 15226 3423.57 8969.4 7312.08 3231.97 7579.71 7138.73 22967 5321.48 4167.24 5805
          20263.9 5611.45 10076 16740.9 8535.85 5386.83 21111.2 4055.78 5945.96 13655.6 6907.36 22144.8
          8807.77 4860.38 3721.63 22214.2 3362.34 7272.93 2794.74 18027.6 8056.35 23304 4369.8 20822.8
          5313.56 5815.06 4453.86 6119.21 20746.5 5796.11 7725.23 5083.31 9108.88 4564.41 7940.74 7465.84
          19601 20737.1 19446.7 20584.6 5309.9 18973 6222.18 21519.1 20764.9 5523.94 2829.86 11165
          22708.7 24174.2 6892.03 5995.82 21492.8 6652.3 2983.39 7836.35 8279.6 9504.27 6612.13 3390.7
          8969.17 2548.54 3095.41 23350.8 17306.7 15045 3220.05 6545.02 8460 6298.16 4786.09 5737.61
          9748.86 2819.73 20708.2 12391.5 7563.31 7775.14 4775.12 6800.78 23310.3 6583.73 6079.76 18760.5
          7439.53 20676 7535.21 3921.43 5428.49 13043.1 3851.1 20764.7 20139.6 5309.91 4966.81 19447.4
          9309.96 3286.8 2282.11 6947.34 22134.3 5160.18 16462.2 5602.81 10585.2 3086.71 17315.5 6201.73
          4173.19 20825.7 24635.2 6432.7 7419.88 5971.32 2787.01 20992 5907.38 22567.1 2446.99 10708.4
          8969.01 7221.33 14567.3 15928.8 7730.68 8625.2 3359.23 21690.2 23385.1 6350.74 14381.3 5835.15
          7109.66 18511.4 6605.36 6886.93 5115.23 19669.2 5802.03 5687.96 20625.8 8694.38 1992.96 5470.95
          19308.3 20689.7 2538.46 5326.62 20583.9 23989.5 3646.15 5309.93 20764.6 8290.29 4632.32 6249.97
          4844.77 9493.39 2415.65 2117.66 19987.7 2911.18 10385.5 18444.4 21021.2 6269.4 12142.4 2708.79
          6982.52 4638.95 6159.72 22135.3 20554.5 6113.13 25052 23056.6 5200.14 5501.24 7997.96 2247.59
          6549.49 3688.78 9486.77 4622.57 23792 1684.75 4700.54 1786.37 4248.11 5537.11 6282.21 2388.84
          5099.08 3365.99 21891.4 19914.3 20491.6 4813.51 20764.5 5309.95 19137.1 23930.8 7192.51 2071.53
          5776.86 2820.94 20550.9 4571.66 2868.9 20548.4 13674.3 20633.4 1820.64 3728.95 16084.1 16654.5
          15324.5 16316.6 14189.2 8964.44 6406.09 2284.55 18205.4 4419.57 4276.26 4192.06 18607.6 6105.16
          10788.3 7206.39 19650.3 25379.9 3254.92 7985.04 1380.77 22904.8 1583.76 22970.5 1465.94 21223.7
          4831.98 3897.35 4919.07 24072.2 13428.2 11126.7 5575.31 19079.9 20297 15055.9 5135.73 2351.84
          20764.3 9085.51 4161.66 5309.97 6061.15 6762.98 3347.72 13102.9 20438.3 5878.19 1936.57 1955.35
          20404.7 20484.4 4591.07 2273.82 6389.43 2 17880 2 20038.8 10357.7 3152.17 5037.02
          1485.89 1071.28 20672.4 1326.66 25601.4 4083.39 1378.17 22812 22376 20525.7 20105.5 19556.9
          21086.1 3654.52 5636.26 5007.11 4722.09 2219.98 1 1 20634.5 11935.1 20764.3 5309.99
          20504 3147.39 2 17679.3 20368.2 2102.42 1 23650 17786.2 2 18645.4 2
          1068.97 17197.9 18079.6 14729.7 6400.92 20154.9 10099 8547.92 19054.6 1259.53 1946.72 1
          776.705 6905.24 7226.38 8594.53 4383.81 875.783 1423.88 8919.14 10871 21806.7 20411.9 21283.3
          25579.6 5151.28 5198.83 5034.18 2382.64 1111.78 19880 3635.88 850.216 5773.24 5857.5 5310.01
          19833.7 2968.7 1651.75 1 21677.6 19925.9 5980.44 20627.7 20764.2 2269.5 1 20493.1
          19840.3 13427.1 5310 916.114 1 1577.06 4963.96 4813.58 18860.4 2 4649.06 4458.94
          6144.38 6263.05 10296.1 22108.8 503.632 6712.9 6650.28 19924.1 574.879 11878 13714.9 19140.1
          19164.1 601.66 1 4030.48 4053.7 3612.02 795.314 3909.82 20331.9 19260.5 2 20282.9
          611.005 19854.2 20764.2 19967.5 7655.34 5716.64 25111.3 2 20666.8 20234.5 20051.9 20764.2
          20656 20378.2 242.007 1 1 3026.52 3592.27 19347.7 2 3101.77 2124.08 17147.9
          2 13213.8 273.717 1 941.223 20134 2 2 18759.5 2 20541.3 20568.6
          4088.97 19446.7 15057.3 1612.61 2582.17 1 413.364 1 1 19113.1 1128.49 264.693
          19725.1 20266.7 20413.8 20416.8 19160.7 17962.9 20255.4 19999.3 504.123 1 18487.5 2
          19926.8 19627.5 17569.4 2 18202.8 2 1040.08 1892.45 2234.84 1 4850.21 2743.28
          14480.2 16572.3 443.712 1 17859.6 19157.8 19094.5 19503.9 686.056 1 18389.1 2
          18187.1 2 1 816.878 2 16586.6 2019.1 1
        </DataArray>
        <DataArray type="Float32" Name="pc" NumberOfComponents="1" format="ascii">
          2015.38 2000 2000 2000 2000 2000 2000 2000 2000 2000 2000 2000
          2000 2000 2000 2000 2000 2000 2000 2000 2000 2000 2000 2000
          2000 2437.11 2365.28 2000 2000 2000 2000 2491.93 2000 2259.77 2000 2000
          2000 2536.36 2000 2000 2000 2102.04 2000 2000 2000 2000 2000 2000
          2000 2000 2000 2571.49 2000 2000 2000 2000 2000 2000 2004.84 2000
          2000 2000 2000 2000 2000 2000 2000 2000 2000 2000 2000 2599.61
          2000 2000 2000 2000 2000 2000 2000 2000 2000 2000 2000 2000
          2000 2000 2000 2000 2000 2000 2000 2000 2000 2000 2622.61 2000
          2000 2000 2000 2000 2000 2000 2000 2000 2000 2000 2000 2000
          2000 2000 2000 2000 2000 2000 2000 2000 2000 2641.16 2000 2000
          2000 2000 2000 2000 2000 2000 2000 2000 2000 2000 2000 2000
          2000 2000 2000 2000 2000 2000 2000 2000 2000 2000 2000 2000
          2000 2000 2000 2000 2000 2656.74 2000 2000 2000 2000 2000 2000
          2000 2000 2000 2000 2000 2000 2000 2000 2000 2000 2000 2200.94
          2000 2000 2000 2000 2000 2000 2442.23 2000 2000 2000 2000 2000
          2000 2669.55 2000 2000 2000 2000 2000 2000 2000 2000 2000 2000
          2000 2000 2000 2000 2000 2000 2000 2000 2441.18 2000 2000 2000
          2000 2000 2000 2000 2000 2000 2000 2000 2000 2000 2000 2000
          2000 2000 2000 2000 2000 2000 2000 2000 2208.1 2867.85 2000 2000
          2000 2000 2000 2000 2000 2000 2000 2000 2000 2000 2000 2000
          2000 2000 2000 2000 2000 2000 2000 2000 2000 2000 2000 2000
          2000 2000 2000 2019 2000 2000 2000 2000 2000 2000 2000 2000
          2000 2000 2000 2000 2000 2000 2000 2000 2000 2000 2000 2000
          2945.4 2000 2000 2000 2000 2000 2000 2000 2000 2000 2000 2000
          2000 2000 2000 2000 2000 2000 2000 2000 2000 2000 2000 2000
          2000 2000 2000 2000 2000 2000 2000 2000 2000 2000 2000 2000
          2000 2000 2000 2000 2000 2000 2000 2000 2000 2000 2000 2000
          2000 2000 2000 2000 2000 2000 2000 2000 2000 2000 2000 2000
          2994.83 2000 2000 2000 2000 2000 2000 2000 2000 2000 2000 2000
          2000 2000 2000 2000 2000 2000 2000 2000 2000 2000 2000 2000
          2000 2000 2000 2000 2000 2000 2000 2000 2000 2000 2000 2000
          2000 2000 2000 2000 2000 2000 2000 2000 2000 2000 2000 2000
          2000 2000 2000 2000 2000 2000 2000 2000 2000 2000 2000 2000
          2000 2000 2000 3042.58 2000 2000 2000 2000 2000 2000 2000 2000
          2000 2000 2000 2000 2000 2000 2000 2000 2000 2000 2000 2000
          2000 2000 2000 2000 2000 2000 2000 2000 2000 2000 2000 2000
          2000 2000 2000 2000 2000 2000 2000 2000 2000 2000 2000 2000
          2000 2000 2000 2000 2000 2000 2000 2000 2000 2000 2000 2000
          2000 2000 2000 2000 2000 2000 2000 2000 2000 2000 3093.61 2000
          2000 2000 2000 2000 2000 2000 2000 2000 2000 2000 2000 2000
          2000 2000 2000 2000 2000 2000 2000 2000 2000 2000 2000 2000
          2000 2000 2000 2000 2000 2000 2000 2000 2000 2000 2000 2000
          2000 2000 2000 2000 2000 2000 2000 2000 2000 2000 2000 2000
          2000 2000 2000 2000 2000 2000 2000 2000 2000 2000 2000 2000
          2000 2000 2000 2000 2000 2000 2000 2000 2000 2000 2000 2000
          2000 3152.83 2000 2000 2000 2000 2000 2000 2000 2000 2000 2000
          2000 2000 2000 2000 2000 2000 2000 2000 2000 2000 2000 2000
          2000 2000 2000 2000 2000 2000 2000 2000 2000 2000 2000 2000
          2000 2000 2000 2000 2000 2000 2000 2000 2000 2000 2000 2000
          2000 2000 2000 2000 2000 2000 2000 2000 2000 2000 2000 2000
          2000 2000 3221.9 2000 2000 2000 2000 2000 2000 2000 2000 2000
          2000 2000 2000 2000 2000 2000 2000 2000 2000 2000 2000 2000
          2000 2000 2000 2000 2000 2000 2000 2000 2000 2000 2000 2000
          2000 2000 2000 2000 2000 2000 2000 2000 2000 2000 2000 2000
          2000 2000 2000 2000 2000 2000 2000 2000 2000 2000 2000 2000
          2000 2000 2000 2000 2000 2000 3309.26 2000 2000 2000 2000 2000
          2000 2000 2000 2000 2000 2000 2000 2000 2000 2000 2000 2000
          2000 2000 2000 2000 2000 2000 2000 2000 2000 2000 2000 2000
          2000 2000 2000 2000 2000 2000 2000 2000 2000 2000 2000 2000
          2000 2000 2000 2000 2000 2000 2000 2000 2000 2000 2000 2000
          2000 2000 2000 3423.44 2000 2000 2000 2000 2000 2000 2000 2000
          2000 2000 2000 2000 2000 2000 2000 2000 2000 2000 2000 2000
          2000 2000 2000 2000 2000 2000 2000 2000 2000 2000 2000 2000
          2000 2000 2000 2000 2000 30000 2000.3 30000 2000 2000 2000 2000
          2000 2000 2000 2000 3593.81 2000 2000 2000 2000 2000 2000 2000
          2000 2000 2000 2000 2000 2000 2000 2000 2000 2000 2000 2000
          2000 2000 30000 2000.22 2000 2000 2000 2000 2000.85 30000 2000.8 30000
          2000 2000 2000 2000 2000 2000 2000 2000 2000 2000 2000 2000
          2000 2000 2000 2000 2000 2000 2000 2000 2000 2000.01 2000 2000
          3955.33 2000 2000 2000 2000 2000 2000 2000 2000 2000 2000 2000
          2000 2000 2000 2000 2000 2000 2000 2000 2000 2000 2000 2000
          2000 2000 2000 2000 2000 2000 2000 2000 2001.72 30000 2000 2000
          2000 2000 2000 2000.01 2000 2000 2000 2000 2000 2000 2000 2000
          2000 2000 2000 2000 2000 2000 2000 2000 2000 2003.08 30000 2000
          2000 2000 2000 2000 2000 2000 4685.25 30000 2000 2000 2000 2000
          2000 2000 2000 2000 2000 2000 2000 2003.86 30000 2000 2000 2000.25
          30000 2000 2000 2000 2000 2001.03 30000 30000 2002 30000 2000 2000
          2000 2000 2000 2000 2000 2000 2000 2000 2000 2000 2000 2000
          2000 2000 2000 2000 2000 2004.57 2000 2000 2000 2000 2000.95 30000
          2000 2000 2000.24 30000 2000.82 30000 2000 2000 2000 2000 2000 2000
          2000 2000.09 2000 2000 2000.13 2000 2000 2000 2000 2000 2000.48 30000
          2000.29 30000 2000 2000 30000 2000.32 2000 2000
        </DataArray>
        <DataArray type="Float32" Name="rhoW" NumberOfComponents="1" format="ascii">
          1000 1000 1000 1000 1000 1000 1000 1000 1000 1000 1000 1000