<?xml version="1.0"?>
<VTKFile type="UnstructuredGrid" version="0.1" byte_order="LittleEndian">
  <UnstructuredGrid>
    <Piece NumberOfCells="1883" NumberOfPoints="980">
      <PointData Scalars="Sn">
        <DataArray type="Float32" Name="Sn" NumberOfComponents="1" format="ascii">
          0.0153759 9.43226e-11 8.01813e-07 3.52153e-10 0 0 0 0 6.98577e-22 0 0 7.05404e-23
          0 0 0 3.12991e-21 1.61676e-06 0 5.15292e-24 2.87129e-06 6.24673e-07 0 0 1.02703e-20
          4.55337e-06 0.32297 0.276225 2.31032e-25 0 0 0 0.353798 2.2042e-07 0.202931 7.50384e-06 7.8325e-20
          0 0.376611 0 0 5.7469e-29 0.0990099 0 1.58272e-06 0 5.47888e-07 1.48778e-08 7.31763e-07
          0 2.29822e-06 0 0.394219 1.38941e-05 4.81491e-21 7.31814e-24 0 0 0 0.00889759 6.64582e-08
          3.14449e-06 0 6.0938e-12 0 1.62374e-22 6.32317e-06 0 0 4.38697e-09 1.16826e-23 0 0.407674
          6.93206e-06 1.45026e-22 0 3.8138e-06 0 0 0 0 1.05485e-12 1.29229e-21 5.3624e-20 0
          5.11224e-28 0 0 0 5.12249e-31 0 0 1.60794e-05 7.49746e-21 0 0.418167 0
          6.89774e-06 0 0 2.68695e-16 0 0 0 0 5.74334e-21 0 0 2.52033e-24
          0 0 3.9326e-06 0 0 0 0 0 0 0.426371 0 4.59093e-21
          0 0 6.06338e-06 0 0 0 0 1.23641e-35 0 0 4.74526e-23 3.9339e-07
          0 0 0 0 0 5.28838e-06 0 0 0 2.90255e-05 0 0
          0 1.75488e-05 0 0 0 0.43307 0 0 0 0 0 0
          0 3.04177e-20 0 0 0 0 0 0 0 0 4.94897e-23 0.173423
          0 0 0 0 0 0 0.329013 0 0 0 0 0
          0 0.438444 6.49881e-06 0 0 0 0 0 1.24536e-24 0 0 0
          3.76519e-07 0 4.03008e-23 0 0 0 0 4.57195e-08 0.328439 0 0 0
          0 0 7.06135e-07 0 0 0 0 0 0 0 0 0
          0 0 0 0 1.67235e-11 0 0 0 0.178772 0.513198 1.75021e-23 0
          0 0 0 0 2.61481e-34 0 2.38147e-10 0 3.8255e-05 0 0 0
          0 0 0 0 4.71738e-07 0 0 0 1.43181e-24 0 0 0
          0 0 0 0.0189091 1.14328e-37 3.00123e-05 5.67649e-18 0 0 0 0 0
          0 0 0 0 2.72587e-22 0 0 0 0 0 0 1.09242e-25
          0.538289 0 0 0 0 0 0 0 0 0 0 0
          0 0 1.92505e-06 0 0 0 0 0 0 0 0 0
          1.684e-18 4.28547e-05 0 0 2.1922e-18 0 0 0 0 0 0 0
          0 0 0 0 3.74233e-05 0 0 0 0 0 0 0
          0 0 0 0 0 0 0 2.99658e-20 0 0 0 0
          0.553175 0 0 0 0 0 0 0 0 0 0 0
          0 0 0 2.51826e-17 0 0 0 0 0 0 6.73119e-05 0
          0 0 0 0 0 0 0 0 0 0 3.63449e-18 0
          0 0 0 0 0 0 0 0 0 0 4.60024e-05 0
          0 0 0 0 0 0 0 0 0 0 0 0
          0 0 0 0.566811 0 0 0 0 0 0 0 0
          0 0 0 1.40466e-16 0 0 0 0 0 0.00011385 0 0
          0 0 0 0 0 0 0 0 0 0 0 0
          0 0 0 0 0 0 0 1.43313e-17 0 0 0 0
          0 0 0 6.36395e-05 0 0 0 0 0 0 0 0
          0 0 0 0 0 0 0 0 0 0 0.580635 0
          0 0 0 0 0 0 0 0 0 0 0 0
          0 0 0 0 0 0 0 0 9.6953e-05 0 0 0
          0 0 0 0 0 0 0 0 0 0 0 0
          0 0 0 1.84422e-16 0 0 0 0 0 0.000105106 0 0
          0 0 0 0 0 0 0 0 0 0 0 0
          0 0 0 0 0 0 0 0 0 0 0 0
          8.52042e-17 0.595755 0 0 0 0 0 0 0 0 0 0
          0 0 0 0.000116396 2.20566e-16 0 0 0 0 0 0 0
          0 0 0 0 0 0 0 0 6.13655e-05 0 0 0
          0 0 0 0 0 0 0 0 0 0 0 0
          0 0 0 0 3.31525e-16 0 3.02394e-16 0 0 0 0 0
          0 0 0.612205 0 0 0 0 0 0 1.05756e-17 0 0
          0 0 0 0 0 0 0 0 0.000135068 0 0 0
          0 1.63618e-18 0 0 0 0 0 0 0 0 0 0
          0 0 0 0 0 0.000155862 0 0 0 0 0 0
          0 0 0 0 0 0 0 0 0 0 0 0
          0 0 0 1.31852e-15 0 0 0.631301 5.09116e-16 0 0 0 0
          0 0 0 0 0.000238067 0 0 0 0 0 0 0
          0 0 0 0 0 0 0 0 0 0.000156109 0 0
          0 0 0 0 0 0 0 0 0 0 4.48884e-16 0
          0 0 0 0 0 0 0 0 0 0 0 0
          0 0 0 0.653564 0 0 0 9.73644e-16 0 0.000184809 0 1.75429e-15
          0 0 0 0.000248038 0 0 0 0 0 4.53186e-16 0 0
          0 0 0 0 0 0 0 0 0 0 0 0
          0 0 0 0 0 1 0.000300383 1 0 0 0 0
          0 0 0 0 0.681488 0 0 1.11475e-14 0.000285957 0 0 0
          0 0 0 0 0 0 0 0 0 0 0 0
          1.44404e-14 0 1 0.000223687 0 0 0 0.00037495 0.000852705 1 0.000799373 1
          0 0 0 6.67126e-16 0 0 0 0 0 0 0 0
          0 0 0 0 0 0 0 0 0 0.000493029 0 0
          0.723074 0 0 0 0 0 0 0 0 0 0 0
          0 0 0 0 5.60068e-14 0 0 0 0 0 0 0
          0 0 0 0 0 0 0 0 0.00170229 1 0 0
          0 0 0 0.000663347 0 0 0 0 0 0 1.33531e-17 0
          0 0 0 0 0 0 0 0 2.43443e-15 0.0035453 1 0
          0 0 0 0 0 0 0.77973 1 0 3.41166e-18 0 0
          0 0 0 0 0 0 0 0.00466905 1 0 0 0.000251979
          1 0 0 0 0 0.0010207 1 1 0.00193775 1 0 0
          0 7.89413e-19 9.59988e-16 0 0 0 0 0 0 0 0 0
          0 0 0 0 0 0.0045289 0 0 0 0 0.00095229 1
          0 0 0.000237307 1 0.000817023 1 0 0 0 0 0 0
          7.57578e-16 8.62339e-05 0 0 0.000132739 6.05703e-18 0 0 0 0 0.000481984 1
          0.000288663 1 0 0 1 0.000321664 0 0
        </DataArray>
        <DataArray type="Float32" Name="Sw" NumberOfComponents="1" format="ascii">
          0.984624 1 0.999999 1 1 1 1 1 1 1 1 1
          1 1 1 1 0.999998 1 1 0.999997 0.999999 1 1 1
          0.999995 0.67703 0.723775 1 1 1 1 0.646202 1 0.797069 0.999992 1
          1 0.623389 1 1 1 0.90099 1 0.999998 1 0.999999 1 0.999999
          1 0.999998 1 0.605781 0.999986 1 1 1 1 1 0.991102 1
          0.999997 1 1 1 1 0.999994 1 1 1 1 1 0.592326
          0.999993 1 1 0.999996 1 1 1 1 1 1 1 1
          1 1 1 1 1 1 1 0.999984 1 1 0.581833 1
          0.999993 1 1 1 1 1 1 1 1 1 1 1
          1 1 0.999996 1 1 1 1 1 1 0.573629 1 1
          1 1 0.999994 1 1 1 1 1 1 1 1 1
          1 1 1 1 1 0.999995 1 1 1 0.999971 1 1
          1 0.999982 1 1 1 0.56693 1 1 1 1 1 1
          1 1 1 1 1 1 1 1 1 1 1 0.826577
          1 1 1 1 1 1 0.670987 1 1 1 1 1
          1 0.561556 0.999994 1 1 1 1 1 1 1 1 1
          1 1 1 1 1 1 1 1 0.671561 1 1 1
          1 1 0.999999 1 1 1 1 1 1 1 1 1
          1 1 1 1 1 1 1 1 0.821228 0.486802 1 1
          1 1 1 1 1 1 1 1 0.999962 1 1 1
          1 1 1 1 1 1 1 1 1 1 1 1
          1 1 1 0.981091 1 0.99997 1 1 1 1 1 1
          1 1 1 1 1 1 1 1 1 1 1 1
          0.461711 1 1 1 1 1 1 1 1 1 1 1
          1 1 0.999998 1 1 1 1 1 1 1 1 1
          1 0.999957 1 1 1 1 1 1 1 1 1 1
          1 1 1 1 0.999963 1 1 1 1 1 1 1
          1 1 1 1 1 1 1 1 1 1 1 1
          0.446825 1 1 1 1 1 1 1 1 1 1 1
          1 1 1 1 1 1 1 1 1 1 0.999933 1
          1 1 1 1 1 1 1 1 1 1 1 1
          1 1 1 1 1 1 1 1 1 1 0.999954 1
          1 1 1 1 1 1 1 1 1 1 1 1
          1 1 1 0.433189 1 1 1 1 1 1 1 1
          1 1 1 1 1 1 1 1 1 0.999886 1 1
          1 1 1 1 1 1 1 1 1 1 1 1
          1 1 1 1 1 1 1 1 1 1 1 1
          1 1 1 0.999936 1 1 1 1 1 1 1 1
          1 1 1 1 1 1 1 1 1 1 0.419365 1
          1 1 1 1 1 1 1 1 1 1 1 1
          1 1 1 1 1 1 1 1 0.999903 1 1 1
          1 1 1 1 1 1 1 1 1 1 1 1
          1 1 1 1 1 1 1 1 1 0.999895 1 1
          1 1 1 1 1 1 1 1 1 1 1 1
          1 1 1 1 1 1 1 1 1 1 1 1
          1 0.404245 1 1 1 1 1 1 1 1 1 1
          1 1 1 0.999884 1 1 1 1 1 1 1 1
          1 1 1 1 1 1 1 1 0.999939 1 1 1
          1 1 1 1 1 1 1 1 1 1 1 1
          1 1 1 1 1 1 1 1 1 1 1 1
          1 1 0.387795 1 1 1 1 1 1 1 1 1
          1 1 1 1 1 1 1 1 0.999865 1 1 1
          1 1 1 1 1 1 1 1 1 1 1 1
          1 1 1 1 1 0.999844 1 1 1 1 1 1
          1 1 1 1 1 1 1 1 1 1 1 1
          1 1 1 1 1 1 0.368699 1 1 1 1 1
          1 1 1 1 0.999762 1 1 1 1 1 1 1
          1 1 1 1 1 1 1 1 1 0.999844 1 1
          1 1 1 1 1 1 1 1 1 1 1 1
          1 1 1 1 1 1 1 1 1 1 1 1
          1 1 1 0.346436 1 1 1 1 1 0.999815 1 1
          1 1 1 0.999752 1 1 1 1 1 1 1 1
          1 1 1 1 1 1 1 1 1 1 1 1
          1 1 1 1 1 0 0.9997 0 1 1 1 1
          1 1 1 1 0.318512 1 1 1 0.999714 1 1 1
          1 1 1 1 1 1 1 1 1 1 1 1
          1 1 0 0.999776 1 1 1 0.999625 0.999147 0 0.999201 0
          1 1 1 1 1 1 1 1 1 1 1 1
          1 1 1 1 1 1 1 1 1 0.999507 1 1
          0.276926 1 1 1 1 1 1 1 1 1 1 1
          1 1 1 1 1 1 1 1 1 1 1 1
          1 1 1 1 1 1 1 1 0.998298 0 1 1
          1 1 1 0.999337 1 1 1 1 1 1 1 1
          1 1 1 1 1 1 1 1 1 0.996455 0 1
          1 1 1 1 1 1 0.22027 0 1 1 1 1
          1 1 1 1 1 1 1 0.995331 0 1 1 0.999748
          0 1 1 1 1 0.998979 0 0 0.998062 0 1 1
          1 1 1 1 1 1 1 1 1 1 1 1
          1 1 1 1 1 0.995471 1 1 1 1 0.999048 0
          1 1 0.999763 0 0.999183 0 1 1 1 1 1 1
          1 0.999914 1 1 0.999867 1 1 1 1 1 0.999518 0
          0.999711 0 1 1 0 0.999678 1 1
        </DataArray>
        <DataArray type="Float32" Name="pn" NumberOfComponents="1" format="ascii">
          22684.4 22408.2 22668.7 21713.9 11198 10946.9 10946.8 10420.1 14595.3 14750 13868.5 13628.1
          14494.1 13431.8 12873.9 15492.3 14328.1 15429.4 12824.4 15160.8 13261.9 12279.2 15369.3 16353.4
          16104.6 15521.7 14479.9 12312.2 12046.7 14008.8 16335.2 16548 12683.3 13488.1 17009.9 17249.8
          17133.5 17561.4 11695.2 12509.3 11926.5 12683.8 11343.8 15676.5 16410.3 13850.5 12190.2 15042.5
          17352.3 16547.9 11369.5 18550 17977.2 18038.1 14501.3 11353.4 15154.2 11069.2 12160 13336.6
          17443.9 13267.2 11652 10712.1 16264.5 18606.9 13970 17679.1 12806 15523.9 10565.7 19530.4
          18319.8 17135.4 10850.5 11845.9 11692.4 14698.4 11150.4 10545.3 12247.9 11498.5 19156.8 18827.4
          13504.2 10315.2 10668.1 10039.9 12949.9 16229.1 10001.6 19683.6 18472.1 17700.8 20496.3 14565.5
          19240.1 18866.7 10286 11552.2 9958.94 16611.4 12272.4 11843.3 20100.2 11204 10531 19849
          11945.3 9615.61 20346.6 13376.2 9814.43 9483.33 14388.6 9414.36 10773.7 21416.8 12714.9 19540.4
          9423.09 9722.83 20183.9 17610.1 10036.6 9422.53 9790.41 11226.8 18992.1 18985.7 20292.9 21183.3
          12177.2 10339.2 10448.8 11707.5 12819.1 21064.5 9098.82 17945.2 15534.5 21202.7 8948.52 10657.2
          16014.6 20950.5 8797.48 11274.4 9172.85 22342.8 9614.57 19963.8 10826.9 14243.5 9594.18 9195.67
          8933.89 20647.9 12805.3 10947.2 10030.5 12255.1 8782.09 10414.2 11771.6 16900.8 19772.8 22865.7
          8493.28 18429.3 11391 8543.67 19282.9 14432.8 23063.7 8519.25 8894.7 9795.02 11238.4 8270.06
          9095.17 23170.4 21635 10947.1 9584.48 20221.3 8190.53 10042.5 20868.6 8421.91 10054.8 8601.34
          21336.9 12321.3 20555.1 13191.6 10946.8 8766.69 8008.67 22736 23062.8 8252.82 11818.7 12496.2
          18760.2 16058.3 22930.7 11432.7 19168 8130.78 16976.2 8865.4 7890.57 10947.1 7910.61 10461.1
          10019.5 9019.28 7733.83 9085.81 22455.8 19914.4 14496 8478.62 22872.1 23941.3 21737.6 10828.5
          10860.9 9439.83 12459.7 14937.8 20858.7 7888.75 21825 11905 23340.9 7462.1 17871.1 7763.87
          20727.3 19847.1 7951.83 10946.4 23014.9 7877.6 7621.64 8053.49 22905.9 7606.61 13813 9052.81
          11377 10055.1 10947 22687.6 22011.4 23452.8 23317.5 8819.96 7217.73 8310.87 8031.05 10690.1
          7197.52 9361.45 20032.5 17965 21868.1 10167.2 21297.4 12875.9 20879.6 6993.59 9450.65 22998.8
          24696.3 12843.5 20291.1 10749 11908.4 7295.86 7650.62 7296.31 16340.2 7327.7 10603.6 22524.2
          7295.43 8004.49 22668.1 7296.74 19365.4 17019.1 6820.86 11446.1 10947 7068.54 10946 10981.7
          23379.3 23906.6 10614.8 10231.6 23171.1 7297.14 6890.5 15636.6 6788 19828.2 8179.06 8188.12
          21769 21835 8702.98 7624.3 24049.6 7297.52 14367.6 20611.4 6498.54 9376 9595.34 8592.91
          21310.5 10345.4 7295.42 23061.4 6480.29 10569.7 14473.6 22667.8 20909.9 6937 7303.85 10611.3
          25366.6 22864 11529.3 7297.88 12050 10303.8 7334.31 18730.6 9997.84 22549.6 6191.66 7015.02
          10946.9 6466.64 6768.98 23730.8 19986.7 10945.6 23466.3 10998.2 20543.6 10182.8 24415.3 13411.2
          7376.83 6515.3 17664.4 6928.19 7298.21 10476.3 8753.8 19856 10201.2 7394.55 23995.3 7411.42
          7295.42 5882.33 6019.83 16476.6 21335.2 22667.5 11940 8274.32 15726 10203.9 24572.1 11577.2
          6243.66 7991.79 7323.74 23313.2 22044.5 7051.55 22933.3 23224.6 9879.2 10477.4 17805.3 6762.62
          9416.11 7298.51 7488.61 26031.5 7387.92 12964.2 22781.6 12130.4 5578.3 9817.92 5794.07 20636
          10840.3 5900.29 11691.4 24146.2 6190.01 8457.02 7519.92 10945.3 9908.94 24901.9 21191.5 10326.9
          7295.42 7478.85 9681.93 19145.5 6253.31 6597.52 22667.3 14267 8206.72 7358.82 7149.31 14647.3
          11913.1 6451.78 7298.75 9537.96 21953.9 23908.5 19831.3 24523.8 9800.16 5302.73 7028.61 22518.8
          10124.3 5979.39 11142.4 25212.5 17026.8 7596.59 7651.31 5490.98 12550.2 22905.5 5438.58 10202
          23483.6 7699.42 6769.86 20154 15787.4 6558.89 13008.7 22763.1 11315.5 9177.58 26640 7445.25
          8858.69 13488.1 21442.7 11716.3 5648.26 7295.42 9267.26 20728.6 5046.34 7298.96 18266.3 5829.12
          22667.1 17127.3 5414.25 10945 9290.48 5223.17 9557.06 9117.87 25161.1 7307 6155.9 7790.55
          22161.4 7597.06 12052.6 18636.6 10514.8 7372.39 23163.2 6044.74 7931.62 15632.8 8887.38 24352.6
          10771.7 6847.14 5711.5 24400.7 5353.19 9252.59 4787.13 19921.4 10034.4 25616.5 6357.9 22809.5
          7299.09 7799.23 6441.74 8104.86 22693.4 7781.76 9703.91 7069.47 11065.2 6551.98 9915.3 9442.39
          21496.8 22659.2 21529.5 22721.7 7295.44 20867.8 8207.65 23660.2 22666.9 7509.53 4822.16 13143.4
          24995.1 27231.9 8870.76 7981.51 23671.9 8632.23 4975.27 9818.95 10248.1 11484.5 8594.13 5381.47
          10944.8 4541.6 5086.98 25576.7 19315.5 17029.9 5211.28 8530.69 10422.7 8283.9 6773.05 7723.26
          11695.8 4812.05 22684.5 14315.5 9542.72 9753.79 6762.12 8781.85 25698.6 8569.49 8062.17 20657.7
          9424.3 22624.6 9507.28 5910.75 7414.06 15024.7 5840.61 22666.7 22039.1 7295.45 6953.28 21345.4
          11292.7 5277.85 4275.9 8923.42 24368.7 7146.12 18458 7588.43 12567.1 5078.3 19215.8 8187.5
          6161.83 22876.6 27765.2 8411.33 9405.3 7957.04 4779.42 23181.4 7891.28 24893.6 4440.33 12646
          10944.6 9207.02 16478.9 17834.3 9697.54 10582.3 5350.08 23914.7 25672.1 8333.12 16366.8 7818.69
          9095.52 20563 8591.21 8860.97 7101.3 21788.8 7787.71 7669.73 22568.6 10679.4 3987.53 7456.54
          21208 22608.5 4531.54 7310.35 22556.5 26455.7 5636.22 7295.47 22666.6 10275.7 6619.71 8232.92
          6831.58 11477.9 4409.07 4111.9 21888.1 4903.25 12369.7 20345 23156.9 8246.41 14126.7 4701.42
          8953.64 6626.29 8145.51 24439.9 22572.1 8096.38 28274.1 25499.5 7185.55 7486 9983.9 4241.47
          8535.38 5678.72 11472.3 6608.98 26175.5 3680.17 6687.69 3781.51 6236.54 7522.71 8257.18 4382.34
          7085.2 5356.82 24213.2 21815.5 22454.4 6800.4 22666.4 7295.49 21038.5 26517.5 9159.09 4065.89
          7762.54 4813.26 22627 6559.22 4861.08 22489.3 15661.4 22555.7 3815.69 5718.8 18077.5 18561.2
          17236.1 18227.2 16108.3 10915.9 8391.97 4278.32 20108.5 6407.35 6264.27 6180.56 20679.6 8090.95
          12774.5 9192.5 21810.5 28722.9 5246.03 9971.36 3377.01 25446.6 3579.45 25455.6 3461.95 23580.6
          6814.09 5884.82 6905.67 26768.7 15349.5 13063.2 7560.94 20982.4 22296.1 17046.6 7121.75 4345.44
          22666.3 11072.1 6147.27 7295.51 8034.31 8748.99 5338 15090.9 22560.1 7863.92 3931.3 3950.02
          22359.9 22424.4 6578.57 4267.61 8375.33 30002 19890.9 30002 21940.9 12344.8 5142.48 7016.4
          3481.85 3068.36 22874.6 3323.05 29125.5 6072.27 3374.42 25509.5 25059.4 22456.5 22143.9 21459.7
          23407.1 5644.57 7621.91 6993.47 6709.23 4213.88 2001 2001 22550.8 13923.4 22666.3 7295.53
          22948.8 5138.82 30002 19679.3 22317.1 4096.57 2001 26681.4 19818.9 30002 20728.5 30002
          3066.07 19105.1 19985.6 16720.8 8386.84 22136.9 12041.7 10500.5 20958.2 3256.1 3941.16 2001
          2774.59 8891.35 9212.67 10581.5 6371.87 2873.4 3420.01 10906.1 12859.7 24820.1 22351.6 23781.7
          29488 7137.26 7184.67 7020.47 4376.16 3108.75 21944.9 5621.55 2847.9 7758.94 7843.24 7295.55
          21736.5 4957.78 3646.82 2001 24495.9 21934.9 7951.12 22543.3 22666.2 4261.84 2001 22422.3
          21951.2 15417.3 7295.54 2913.61 2001 3572.77 6950.44 6800.47 21176.6 30002 6636.4 6446.8
          8130.22 8248.94 12284 25708.6 2502.26 8698.96 8636.32 22099.5 2573.32 13867.1 15707.1 21044
          21068.1 2600.02 2001 6019.5 6042.66 5602.18 2793.15 5892.99 22598.9 22272.4 30002 22231.1
          2609.34 21757.2 22666.2 21870.4 9614 7686.28 29778.5 30002 22577.8 22631.3 22022.7 22666.2
          22567.6 22315.9 2241.35 2001 2001 5018.28 5582.48 22629.2 30002 5093.33 4118.3 19146.4
          30002 15204.6 2272.97 2001 2938.66 22278.5 30002 30002 21097.5 30002 22463 22488.2
          6069.74 21473.1 17050.6 3608.22 4571.49 2001 2412.24 2001 2001 21193.5 3125.42 2263.98
          21715.3 22210.7 22346.8 22349.1 21208.6 20083.3 22201.2 21961.1 2502.75 2001 20547.2 30002
          21896 21607.4 19567.4 30002 20230.3 30002 3037.25 3887.3 4224.77 2001 6825.38 4729.17
          16473.4 18569.3 2442.51 2001 19861 21161.7 21088.5 21492 2684.19 2001 20409.6 30002
          20191.2 30002 2001 2814.66 30002 18585.4 4008.98 2001
        </DataArray>
        <DataArray type="Float32" Name="pw" NumberOfComponents="1" format="ascii">
          20668.9 20408.2 20668.7 19713.9 9198 8946.89 8946.85 8420.11 12595.3 12750 11868.5 11628.1
          12494.1 11431.8 10873.9 13492.3 12328.1 13429.4 10824.4 13160.8 11261.9 10279.2 13369.3 14353.4
          14104.6 13091.1 12129 10312.2 10046.7 12008.8 14335.2 14060.1 10683.3 11248 15009.9 15249.8
          15133.5 15028.3 9695.24 10509.3 9926.53 10576.8 9343.85 13676.5 14410.3 11850.5 10190.2 13042.5
          15352.3 14547.9 9369.47 15980.4 15977.2 16038.1 12501.3 9353.39 13154.2 9069.21 10151.1 11336.6
          15443.9 11267.2 9652.05 8712.07 14264.5 16606.8 11970 15679.1 10806 13523.9 8565.65 16931.7
          16319.8 15135.4 8850.51 9845.89 9692.39 12698.4 9150.4 8545.29 10247.9 9498.49 17156.8 16827.4
          11504.2 8315.17 8668.06 8039.86 10949.9 14229.1 8001.59 17683.6 16472.1 15700.8 17874.4 12565.5
          17240.1 16866.7 8285.97 9552.2 7958.94 14611.5 10272.4 9843.25 18100.2 9204.02 8531.03 17849
          9945.27 7615.61 18346.6 11376.2 7814.43 7483.33 12388.6 7414.36 8773.67 18776.1 10714.9 17540.4
          7423.09 7722.83 18183.9 15610.1 8036.6 7422.53 7790.41 9226.84 16992.1 16985.7 18292.9 19183.3
          10177.2 8339.2 8448.84 9707.52 10819.1 19064.5 7098.82 15945.2 13534.5 19202.7 6948.52 8657.21
          14014.6 18950.5 6797.48 9274.37 7172.85 19686.6 7614.57 17963.8 8826.87 12243.5 7594.18 7195.67
          6933.89 18647.9 10805.3 8947.16 8030.55 10255.1 6782.09 8414.18 9771.63 14900.8 17772.8 20665.8
          6493.28 16429.3 9391.02 6543.67 17282.9 12432.8 20622.1 6519.25 6894.7 7795.02 9238.42 6270.06
          7095.17 20501.5 19635 8947.12 7584.48 18221.3 6190.53 8042.46 18868.6 6421.91 8054.76 6601.34
          19336.9 10321.3 18555.1 11191.6 8946.78 6766.69 6008.67 20736 20622.3 6252.82 9818.66 10496.2
          16760.2 14058.3 20930.7 9432.74 17168 6130.78 14976.2 6865.4 5890.57 8947.09 5910.61 8461.13
          8019.49 7019.28 5733.83 7085.81 20455.8 17914.4 12496 6478.62 20665.1 21074.8 19737.6 8828.51
          8860.93 7439.83 10459.7 12937.8 18858.7 5888.75 19825 9905.01 21340.8 5462.1 15871.1 5763.87
          18727.3 17847.1 5951.83 8946.36 21014.9 5877.6 5621.64 6053.49 20905.9 5606.61 11813 7052.81
          9377 8055.05 8947.04 20668.4 20011.4 21452.8 21317.5 6819.96 5217.73 6310.87 6031.05 8690.14
          5197.52 7361.45 18032.5 15965 19868.1 8167.21 19297.4 10875.9 18879.6 4993.59 7450.65 20998.8
          21752.9 10843.5 18291.1 8749 9908.44 5295.86 5650.62 5296.31 14340.2 5327.7 8603.59 20524.2
          5295.43 6004.49 20668.1 5296.74 17365.4 15019.1 4820.86 9446.15 8946.99 5068.54 8945.99 8981.74
          21379.3 21906.5 8614.79 8231.63 21171.1 5297.14 4890.5 13636.6 4788 17828.2 6179.06 6188.12
          19769 19835 6702.98 5624.3 22049.5 5297.52 12367.6 18611.4 4498.54 7376 7595.34 6592.91
          19310.5 8345.44 5295.42 21061.4 4480.29 8569.67 12473.6 20667.8 18909.9 4937 5303.85 8611.25
          22374.6 20864 9529.27 5297.88 10050 8303.82 5334.31 16730.6 7997.84 20549.6 4191.66 5015.02
          8946.93 4466.64 4768.98 21730.8 17986.7 8945.62 21466.3 8998.21 18543.6 8182.77 22415.2 11411.2
          5376.83 4515.3 15664.4 4928.19 5298.21 8476.29 6753.8 17856 8201.19 5394.55 21995.3 5411.42
          5295.42 3882.33 4019.83 14476.6 19335.2 20667.5 9940.03 6274.32 13726 8203.91 22572 9577.19
          4243.66 5991.79 5323.74 21313.2 20044.5 5051.55 20933.3 21224.6 7879.2 8477.38 15805.3 4762.62
          7416.11 5298.51 5488.61 22992.8 5387.92 10964.2 20781.6 10130.4 3578.3 7817.92 3794.07 18636
          8840.25 3900.29 9691.4 22146.2 4190.01 6457.02 5519.92 8945.29 7908.94 22901.8 19191.5 8326.89
          5295.42 5478.85 7681.93 17145.5 4253.31 4597.52 20667.3 12267 6206.73 5358.82 5149.31 12647.3
          9913.15 4451.78 5298.75 7537.96 19953.9 21908.5 17831.3 22523.8 7800.16 3302.73 5028.61 20518.8
          8124.33 3979.39 9142.43 23212.4 15026.8 5596.59 5651.31 3490.98 10550.2 20905.5 3438.58 8202
          21483.6 5699.42 4769.86 18154 13787.4 4558.89 11008.7 20763.1 9315.46 7177.58 23551.6 5445.25
          6858.69 11488.1 19442.7 9716.27 3648.26 5295.42 7267.26 18728.6 3046.34 5298.96 16266.3 3829.12
          20667.1 15127.3 3414.25 8945.01 7290.48 3223.17 7557.06 7117.87 23161 5307 4155.9 5790.55
          20161.4 5597.06 10052.6 16636.6 8514.78 5372.39 21163.2 4044.74 5931.62 13632.8 6887.38 22352.6
          8771.67 4847.14 3711.5 22400.7 3353.19 7252.6 2787.13 17921.4 8034.43 23616.4 4357.9 20809.5
          5299.09 5799.23 4441.74 6104.86 20693.4 5781.76 7703.91 5069.47 9065.21 4551.98 7915.3 7442.39
          19496.8 20659.2 19529.5 20721.7 5295.44 18867.8 6207.65 21660.2 20666.9 5509.53 2822.16 11143.4
          22995.1 24086.3 6870.76 5981.51 21671.9 6632.23 2975.27 7818.95 8248.13 9484.52 6594.13 3381.47
          8944.77 2541.6 3086.98 23576.6 17315.5 15029.9 3211.28 6530.69 8422.69 6283.9 4773.05 5723.26
          9695.77 2812.05 20684.5 12315.5 7542.72 7753.79 4762.12 6781.85 23698.6 6569.48 6062.17 18657.7
          7424.3 20624.6 7507.28 3910.75 5414.06 13024.7 3840.61 20666.7 20039.1 5295.45 4953.28 19345.4
          9292.67 3277.85 2275.9 6923.42 22368.7 5146.12 16458 5588.43 10567.1 3078.3 17215.8 6187.5
          4161.83 20876.6 24553.6 6411.33 7405.3 5957.04 2779.42 21181.4 5891.28 22893.6 2440.33 10646
          8944.62 7207.02 14478.9 15834.3 7697.54 8582.27 3350.08 21914.7 23671.9 6333.12 14366.8 5818.69
          7095.52 18563 6591.21 6860.97 5101.3 19788.8 5787.71 5669.73 20568.6 8679.38 1987.53 5456.54
          19208 20608.5 2531.55 5310.35 20556.5 24455.6 3636.22 5295.47 20666.6 8275.74 4619.71 6232.92
          4831.58 9477.94 2409.07 2111.9 19888.1 2903.25 10369.7 18345 21156.9 6246.41 12126.7 2701.42
          6953.64 4626.29 6145.51 22439.9 20572.1 6096.38 24980.3 23499.5 5185.55 5486 7983.9 2241.47
          6535.38 3678.72 9472.33 4608.98 24175.3 1680.17 4687.69 1781.51 4236.54 5522.71 6257.18 2382.34
          5085.2 3356.82 22213.2 19815.5 20454.4 4800.4 20666.4 5295.49 19038.5 24517.3 7159.09 2065.89
          5762.54 2813.26 20627 4559.22 2861.08 20489.3 13661.4 20555.7 1815.69 3718.8 16077.5 16561.2
          15236.1 16227.2 14108.3 8915.85 6391.97 2278.32 18108.5 4407.35 4264.27 4180.56 18679.6 6090.95
          10774.5 7192.5 19810.5 25325 3246.03 7971.36 1377.02 23446.6 1579.45 23455.4 1461.95 21580.6
          4814.09 3884.82 4905.67 24768.4 13349.5 11063.2 5560.94 18982.4 20296.1 15046.6 5121.75 2345.44
          20666.3 9072.14 4147.27 5295.51 6034.31 6748.99 3337.99 13090.9 20560.1 5863.92 1931.3 1950.02
          20359.9 20424.4 4578.57 2267.61 6375.33 2 17890.6 2 19940.9 10344.8 3142.48 5016.4
          1481.85 1068.36 20874.6 1323.05 25581.7 4072.27 1374.42 23509.5 23059.1 20456.5 20143.9 19459.7
          21407.1 3644.57 5621.91 4993.47 4709.23 2213.88 1 1 20550.8 11923.4 20666.3 5295.53
          20948.8 3138.82 2 17679.1 20317.1 2096.57 1 24681 17818 2 18727.7 2
          1066.07 17105.1 17985.6 14720.8 6386.84 20136.9 10041.7 8500.52 18958.2 1256.1 1941.16 1
          774.592 6891.35 7212.67 8581.5 4371.87 873.401 1420.01 8906.12 10859.7 22819.6 20351.6 21781.7
          25687.4 5137.26 5184.67 5020.47 2376.16 1108.75 19944.9 3621.55 847.9 5758.94 5843.24 5295.55
          19736.5 2957.78 1646.82 1 22495.9 19934.9 5951.12 20543.3 20666.2 2261.84 1 20422.3
          19951.2 13417.3 5295.54 913.614 1 1572.77 4950.44 4800.47 19174.9 2 4636.4 4446.8
          6130.22 6248.94 10284 23707.9 502.263 6698.96 6636.32 20099.5 573.316 11867.1 13707.1 19044
          19068.1 600.02 1 4019.5 4042.66 3602.18 793.15 3892.99 20598.9 20268.8 2 20231.1
          609.344 19757.2 20666.2 19870.4 7614 5686.28 25517.1 2 20577.8 20631.3 20022.7 20666.2
          20567.6 20315.9 241.351 1 1 3018.28 3582.48 20624.5 2 3093.33 2118.3 17146.2
          2 13204.6 272.975 1 938.662 20277.5 2 2 19095.6 2 20463 20488.2
          4069.74 19473.1 15050.6 1608.22 2571.49 1 412.241 1 1 19193.5 1125.42 263.975
          19715.3 20210.7 20346.8 20349.1 19208.6 18078.7 20201.2 19961.1 502.753 1 18546.2 2
          19896 19607.4 17567.2 2 18229.4 2 1037.25 1887.3 2224.77 1 4825.38 2729.17
          14473.4 16569.2 442.507 1 17860.8 19161.7 19088.5 19492 684.19 1 18409.1 2
          18190.9 2 1 814.656 2 16585.1 2008.98 1
        </DataArray>
        <DataArray type="Float32" Name="pc" NumberOfComponents="1" format="ascii">
          2015.56 2000 2000 2000 2000 2000 2000 2000 2000 2000 2000 2000
          2000 2000 2000 2000 2000 2000 2000 2000 2000 2000 2000 2000
          2000 2430.67 2350.87 2000 2000 2000 2000 2487.97 2000 2240.18 2000.01 2000
          2000 2533.09 2000 2000 2000 2107.03 2000 2000 2000 2000 2000 2000
          2000 2000 2000 2569.64 2000.01 2000 2000 2000 2000 2000 2008.96 2000
          2000 2000 2000 2000 2000 2000.01 2000 2000 2000 2000 2000 2598.66
          2000.01 2000 2000 2000 2000 2000 2000 2000 2000 2000 2000 2000
          2000 2000 2000 2000 2000 2000 2000 2000.02 2000 2000 2621.99 2000
          2000.01 2000 2000 2000 2000 2000 2000 2000 2000 2000 2000 2000
          2000 2000 2000 2000 2000 2000 2000 2000 2000 2640.67 2000 2000
          2000 2000 2000.01 2000 2000 2000 2000 2000 2000 2000 2000 2000
          2000 2000 2000 2000 2000 2000.01 2000 2000 2000 2000.03 2000 2000
          2000 2000.02 2000 2000 2000 2656.23 2000 2000 2000 2000 2000 2000
          2000 2000 2000 2000 2000 2000 2000 2000 2000 2000 2000 2199.83
          2000 2000 2000 2000 2000 2000 2441.59 2000 2000 2000 2000 2000
          2000 2668.91 2000.01 2000 2000 2000 2000 2000 2000 2000 2000 2000
          2000 2000 2000 2000 2000 2000 2000 2000 2440.55 2000 2000 2000
          2000 2000 2000 2000 2000 2000 2000 2000 2000 2000 2000 2000
          2000 2000 2000 2000 2000 2000 2000 2000 2206.98 2866.51 2000 2000
          2000 2000 2000 2000 2000 2000 2000 2000 2000.04 2000 2000 2000
          2000 2000 2000 2000 2000 2000 2000 2000 2000 2000 2000 2000
          2000 2000 2000 2019.18 2000 2000.03 2000 2000 2000 2000 2000 2000
          2000 2000 2000 2000 2000 2000 2000 2000 2000 2000 2000 2000
          2943.37 2000 2000 2000 2000 2000 2000 2000 2000 2000 2000 2000
          2000 2000 2000 2000 2000 2000 2000 2000 2000 2000 2000 2000
          2000 2000.04 2000 2000 2000 2000 2000 2000 2000 2000 2000 2000
          2000 2000 2000 2000 2000.04 2000 2000 2000 2000 2000 2000 2000
          2000 2000 2000 2000 2000 2000 2000 2000 2000 2000 2000 2000
          2992 2000 2000 2000 2000 2000 2000 2000 2000 2000 2000 2000
          2000 2000 2000 2000 2000 2000 2000 2000 2000 2000 2000.07 2000
          2000 2000 2000 2000 2000 2000 2000 2000 2000 2000 2000 2000
          2000 2000 2000 2000 2000 2000 2000 2000 2000 2000 2000.05 2000
          2000 2000 2000 2000 2000 2000 2000 2000 2000 2000 2000 2000
          2000 2000 2000 3038.72 2000 2000 2000 2000 2000 2000 2000 2000
          2000 2000 2000 2000 2000 2000 2000 2000 2000 2000.11 2000 2000
          2000 2000 2000 2000 2000 2000 2000 2000 2000 2000 2000 2000
          2000 2000 2000 2000 2000 2000 2000 2000 2000 2000 2000 2000
          2000 2000 2000 2000.06 2000 2000 2000 2000 2000 2000 2000 2000
          2000 2000 2000 2000 2000 2000 2000 2000 2000 2000 3088.4 2000
          2000 2000 2000 2000 2000 2000 2000 2000 2000 2000 2000 2000
          2000 2000 2000 2000 2000 2000 2000 2000 2000.1 2000 2000 2000
          2000 2000 2000 2000 2000 2000 2000 2000 2000 2000 2000 2000
          2000 2000 2000 2000 2000 2000 2000 2000 2000 2000.11 2000 2000
          2000 2000 2000 2000 2000 2000 2000 2000 2000 2000 2000 2000
          2000 2000 2000 2000 2000 2000 2000 2000 2000 2000 2000 2000
          2000 3145.63 2000 2000 2000 2000 2000 2000 2000 2000 2000 2000
          2000 2000 2000 2000.12 2000 2000 2000 2000 2000 2000 2000 2000
          2000 2000 2000 2000 2000 2000 2000 2000 2000.06 2000 2000 2000
          2000 2000 2000 2000 2000 2000 2000 2000 2000 2000 2000 2000
          2000 2000 2000 2000 2000 2000 2000 2000 2000 2000 2000 2000
          2000 2000 3211.66 2000 2000 2000 2000 2000 2000 2000 2000 2000
          2000 2000 2000 2000 2000 2000 2000 2000 2000.14 2000 2000 2000
          2000 2000 2000 2000 2000 2000 2000 2000 2000 2000 2000 2000
          2000 2000 2000 2000 2000 2000.16 2000 2000 2000 2000 2000 2000
          2000 2000 2000 2000 2000 2000 2000 2000 2000 2000 2000 2000
          2000 2000 2000 2000 2000 2000 3293.78 2000 2000 2000 2000 2000
          2000 2000 2000 2000 2000.24 2000 2000 2000 2000 2000 2000 2000
          2000 2000 2000 2000 2000 2000 2000 2000 2000 2000.16 2000 2000
          2000 2000 2000 2000 2000 2000 2000 2000 2000 2000 2000 2000
          2000 2000 2000 2000 2000 2000 2000 2000 2000 2000 2000 2000
          2000 2000 2000 3397.96 2000 2000 2000 2000 2000 2000.18 2000 2000
          2000 2000 2000 2000.25 2000 2000 2000 2000 2000 2000 2000 2000
          2000 2000 2000 2000 2000 2000 2000 2000 2000 2000 2000 2000
          2000 2000 2000 2000 2000 30000 2000.3 30000 2000 2000 2000 2000
          2000 2000 2000 2000 3543.78 2000 2000 2000 2000.29 2000 2000 2000