<?xml version="1.0"?>
<VTKFile type="UnstructuredGrid" version="0.1" byte_order="LittleEndian">
  <UnstructuredGrid>
    <Piece NumberOfCells="200" NumberOfPoints="402">
      <CellData Scalars="S_aq" Vectors="velocityW">
        <DataArray type="Float32" Name="S_aq" NumberOfComponents="1" format="ascii">
          1 1 1 1 1 1 1 1 1 1 1 1
          1 1 1 1 1 1 1 1 1 1 1 1
          1 1 1 1 1 1 1 1 1 1 1 1
          1 1 1 1 1 1 1 1 1 1 1 1
          1 1 1 1 1 1 1 1 1 1 1 1
          1 1 1 1 1 1 1 1 1 1 1 1
          1 1 1 1 1 1 1 1 1 1 1 1
          1 1 1 1 1 1 1 1 1 1 1 1
          1 1 1 1 1 1 1 1 1 1 1 1
          1 1 1 1 1 1 1 1 1 1 1 1
          1 1 1 1 1 1 1 1 1 1 1 1
          1 1 1 1 1 1 1 1 1 1 1 1
          1 1 1 1 1 1 1 1 1 1 1 1
          1 1 1 1 1 1 1 1 1 1 1 1
          1 1 1 1 1 1 1 1 1 1 1 1
          1 1 1 1 1 1 1 1 1 1 1 1
          1 1 1 1 1 1 1 1
        </DataArray>
        <DataArray type="Float32" Name="S_napl" NumberOfComponents="1" format="ascii">
          1.00926e-05 1.00861e-05 1.00798e-05 1.00736e-05 1.00675e-05 1.00617e-05 1.00561e-05 1.00509e-05 1.00459e-05 1.00412e-05 1.00369e-05 1.00329e-05
          1.00292e-05 1.00259e-05 1.00228e-05 1.00201e-05 1.00176e-05 1.00154e-05 1.00134e-05 1.00116e-05 1.00101e-05 1.00087e-05 1.00075e-05 1.00065e-05
          1.00056e-05 1.00048e-05 1.00041e-05 1.00035e-05 1.0003e-05 1.00025e-05 1.00021e-05 1.00018e-05 1.00015e-05 1.00013e-05 1.00011e-05 1.00009e-05
          1.00008e-05 1.00007e-05 1.00006e-05 1.00005e-05 1.00004e-05 1.00003e-05 1.00003e-05 1.00002e-05 1.00002e-05 1.00002e-05 1.00001e-05 1.00001e-05
          1.00001e-05 1.00001e-05 1.00001e-05 1.00001e-05 1e-05 1e-05 1e-05 1e-05 1e-05 1e-05 1e-05 1e-05
          1e-05 1e-05 1e-05 1e-05 1e-05 1e-05 1e-05 1e-05 1e-05 1e-05 1e-05 1e-05
          1e-05 1e-05 1e-05 1e-05 1e-05 1e-05 1e-05 1e-05 1e-05 1e-05 1e-05 1e-05
          1e-05 1e-05 1e-05 1e-05 1e-05 1e-05 1e-05 1e-05 1e-05 1e-05 1e-05 1e-05
          1e-05 1e-05 1e-05 1e-05 1e-05 1e-05 1e-05 1e-05 1e-05 1e-05 1e-05 1e-05
          1e-05 1e-05 1e-05 1e-05 1e-05 1e-05 1e-05 1e-05 1e-05 1e-05 1e-05 1e-05
          1e-05 1e-05 1e-05 1e-05 1e-05 1e-05 1e-05 1e-05 1e-05 1e-05 1e-05 1e-05
          1e-05 1e-05 1e-05 1e-05 1e-05 1e-05 1e-05 1e-05 1e-05 1e-05 1e-05 1e-05
          1e-05 1e-05 1e-05 1e-05 1e-05 1e-05 1e-05 1e-05 1e-05 1e-05 1e-05 1e-05
          1e-05 1e-05 1e-05 1e-05 1e-05 1e-05 1e-05 1e-05 1e-05 1e-05 1e-05 1e-05
          1e-05 1e-05 1e-05 1e-05 1e-05 1e-05 1e-05 1e-05 1e-05 1e-05 1e-05 1e-05
          1e-05 1e-05 1e-05 1e-05 1e-05 1e-05 1e-05 1e-05 1e-05 1e-05 1e-05 1e-05
          1e-05 1e-05 1e-05 1e-05 1e-05 1e-05 1e-05 1e-05
        </DataArray>
        <DataArray type="Float32" Name="S_gas" NumberOfComponents="1" format="ascii">
          -1.03333e-05 -1.03105e-05 -1.02879e-05 -1.02657e-05 -1.02441e-05 -1.02233e-05 -1.02033e-05 -1.01844e-05 -1.01665e-05 -1.01497e-05 -1.01341e-05 -1.01196e-05
          -1.01063e-05 -1.00942e-05 -1.00831e-05 -1.00731e-05 -1.00641e-05 -1.0056e-05 -1.00488e-05 -1.00425e-05 -1.00368e-05 -1.00318e-05 -1.00275e-05 -1.00237e-05
          -1.00203e-05 -1.00174e-05 -1.00149e-05 -1.00127e-05 -1.00109e-05 -1.00092e-05 -1.00079e-05 -1.00067e-05 -1.00056e-05 -1.00048e-05 -1.0004e-05 -1.00034e-05
          -1.00029e-05 -1.00024e-05 -1.0002e-05 -1.00017e-05 -1.00014e-05 -1.00012e-05 -1.0001e-05 -1.00009e-05 -1.00007e-05 -1.00006e-05 -1.00005e-05 -1.00004e-05
          -1.00003e-05 -1.00003e-05 -1.00002e-05 -1.00002e-05 -1.00002e-05 -1.00001e-05 -1.00001e-05 -1.00001e-05 -1.00001e-05 -1.00001e-05 -1.00001e-05 -1e-05
          -1e-05 -1e-05 -1e-05 -1e-05 -1e-05 -1e-05 -1e-05 -1e-05 -1e-05 -1e-05 -1e-05 -1e-05
          -1e-05 -1e-05 -1e-05 -1e-05 -1e-05 -1e-05 -1e-05 -1e-05 -1e-05 -1e-05 -1e-05 -1e-05
          -1e-05 -1e-05 -1e-05 -1e-05 -1e-05 -1e-05 -1e-05 -1e-05 -1e-05 -1e-05 -1e-05 -1e-05
          -1e-05 -1e-05 -1e-05 -1e-05 -1e-05 -1e-05 -1e-05 -1e-05 -1e-05 -1e-05 -1e-05 -1e-05
          -1e-05 -1e-05 -1e-05 -1e-05 -1e-05 -1e-05 -1e-05 -1e-05 -1e-05 -1e-05 -1e-05 -1e-05
          -1e-05 -1e-05 -1e-05 -1e-05 -1e-05 -1e-05 -1e-05 -1e-05 -1e-05 -1e-05 -1e-05 -1e-05
          -1e-05 -1e-05 -1e-05 -1e-05 -1e-05 -1e-05 -1e-05 -1e-05 -1e-05 -1e-05 -1e-05 -1e-05
          -1e-05 -1e-05 -1e-05 -1e-05 -1e-05 -1e-05 -1e-05 -1e-05 -1e-05 -1e-05 -1e-05 -1e-05
          -1e-05 -1e-05 -1e-05 -1e-05 -1e-05 -1e-05 -1e-05 -1e-05 -1e-05 -1e-05 -1e-05 -1e-05
          -1e-05 -1e-05 -1e-05 -1e-05 -1e-05 -1e-05 -1e-05 -1e-05 -1e-05 -1e-05 -1e-05 -1e-05
          -1e-05 -1e-05 -1e-05 -1e-05 -1e-05 -1e-05 -1e-05 -1e-05 -1e-05 -1e-05 -1e-05 -1e-05
          -1e-05 -1e-05 -1e-05 -1e-05 -1e-05 -1e-05 -1e-05 -1e-05
        </DataArray>
        <DataArray type="Float32" Name="p_aq" NumberOfComponents="1" format="ascii">
          99998.7 99998.7 99998.7 99998.7 99998.7 99998.7 99998.7 99998.7 99998.7 99998.7 99998.7 99998.7
          99998.7 99998.7 99998.7 99998.7 99998.7 99998.7 99998.7 99998.7 99998.7 99998.7 99998.7 99998.7
          99998.7 99998.7 99998.7 99998.7 99998.7 99998.7 99998.7 99998.7 99998.7 99998.7 99998.7 99998.7
          99998.7 99998.7 99998.7 99998.7 99998.7 99998.7 99998.7 99998.7 99998.7 99998.7 99998.7 99998.7
          99998.7 99998.7 99998.7 99998.7 99998.7 99998.7 99998.7 99998.7 99998.7 99998.7 99998.7 99998.7
          99998.7 99998.7 99998.7 99998.7 99998.7 99998.7 99998.7 99998.7 99998.7 99998.7 99998.7 99998.7
          99998.7 99998.7 99998.7 99998.7 99998.7 99998.7 99998.7 99998.7 99998.7 99998.7 99998.7 99998.7
          99998.7 99998.7 99998.7 99998.7 99998.7 99998.7 99998.7 99998.7 99998.7 99998.7 99998.7 99998.7
          99998.7 99998.7 99998.7 99998.7 99998.7 99998.7 99998.7 99998.7 99998.7 99998.7 99998.7 99998.7
          99998.7 99998.7 99998.7 99998.7 99998.7 99998.7 99998.7 99998.7 99998.7 99998.7 99998.7 99998.7
          99998.7 99998.7 99998.7 99998.7 99998.7 99998.7 99998.7 99998.7 99998.7 99998.7 99998.7 99998.7
          99998.7 99998.7 99998.7 99998.7 99998.7 99998.7 99998.7 99998.7 99998.7 99998.7 99998.7 99998.7
          99998.7 99998.7 99998.7 99998.7 99998.7 99998.7 99998.7 99998.7 99998.7 99998.7 99998.7 99998.7
          99998.7 99998.7 99998.7 99998.7 99998.7 99998.7 99998.7 99998.7 99998.7 99998.7 99998.7 99998.7
          99998.7 99998.7 99998.7 99998.7 99998.7 99998.7 99998.7 99998.7 99998.7 99998.7 99998.7 99998.7
          99998.7 99998.7 99998.7 99998.7 99998.7 99998.7 99998.7 99998.7 99998.7 99998.7 99998.7 99998.7
          99998.7 99998.7 99998.7 99998.7 99998.7 99998.7 99998.7 99998.7
        </DataArray>
        <DataArray type="Float32" Name="p_napl" NumberOfComponents="1" format="ascii">
          99998.7 99998.7 99998.7 99998.7 99998.7 99998.7 99998.7 99998.7 99998.7 99998.7 99998.7 99998.7
          99998.7 99998.7 99998.7 99998.7 99998.7 99998.7 99998.7 99998.7 99998.7 99998.7 99998.7 99998.7
          99998.7 99998.7 99998.7 99998.7 99998.7 99998.7 99998.7 99998.7 99998.7 99998.7 99998.7 99998.7
          99998.7 99998.7 99998.7 99998.7 99998.7 99998.7 99998.7 99998.7 99998.7 99998.7 99998.7 99998.7
          99998.7 99998.7 99998.7 99998.7 99998.7 99998.7 99998.7 99998.7 99998.7 99998.7 99998.7 99998.7
          99998.7 99998.7 99998.7 99998.7 99998.7 99998.7 99998.7 99998.7 99998.7 99998.7 99998.7 99998.7
          99998.7 99998.7 99998.7 99998.7 99998.7 99998.7 99998.7 99998.7 99998.7 99998.7 99998.7 99998.7
          99998.7 99998.7 99998.7 99998.7 99998.7 99998.7 99998.7 99998.7 99998.7 99998.7 99998.7 99998.7
          99998.7 99998.7 99998.7 99998.7 99998.7 99998.7 99998.7 99998.7 99998.7 99998.7 99998.7 99998.7
          99998.7 99998.7 99998.7 99998.7 99998.7 99998.7 99998.7 99998.7 99998.7 99998.7 99998.7 99998.7
          99998.7 99998.7 99998.7 99998.7 99998.7 99998.7 99998.7 99998.7 99998.7 99998.7 99998.7 99998.7
          99998.7 99998.7 99998.7 99998.7 99998.7 99998.7 99998.7 99998.7 99998.7 99998.7 99998.7 99998.7
          99998.7 99998.7 99998.7 99998.7 99998.7 99998.7 99998.7 99998.7 99998.7 99998.7 99998.7 99998.7
          99998.7 99998.7 99998.7 99998.7 99998.7 99998.7 99998.7 99998.7 99998.7 99998.7 99998.7 99998.7
          99998.7 99998.7 99998.7 99998.7 99998.7 99998.7 99998.7 99998.7 99998.7 99998.7 99998.7 99998.7
          99998.7 99998.7 99998.7 99998.7 99998.7 99998.7 99998.7 99998.7 99998.7 99998.7 99998.7 99998.7
          99998.7 99998.7 99998.7 99998.7 99998.7 99998.7 99998.7 99998.7
        </DataArray>
        <DataArray type="Float32" Name="p_gas" NumberOfComponents="1" format="ascii">
          100000 100000 100000 100000 100000 100000 100000 100000 100000 100000 100000 100000
          100000 100000 100000 100000 100000 100000 100000 100000 100000 100000 100000 100000
          100000 100000 100000 100000 100000 100000 100000 100000 100000 100000 100000 100000
          100000 100000 100000 100000 100000 100000 100000 100000 100000 100000 100000 100000
          100000 100000 100000 100000 100000 100000 100000 100000 100000 100000 100000 100000
          100000 100000 100000 100000 100000 100000 100000 100000 100000 100000 100000 100000
          100000 100000 100000 100000 100000 100000 100000 100000 100000 100000 100000 100000
          100000 100000 100000 100000 100000 100000 100000 100000 100000 100000 100000 100000
          100000 100000 100000 100000 100000 100000 100000 100000 100000 100000 100000 100000
          100000 100000 100000 100000 100000 100000 100000 100000 100000 100000 100000 100000
          100000 100000 100000 100000 100000 100000 100000 100000 100000 100000 100000 100000
          100000 100000 100000 100000 100000 100000 100000 100000 100000 100000 100000 100000
          100000 100000 100000 100000 100000 100000 100000 100000 100000 100000 100000 100000
          100000 100000 100000 100000 100000 100000 100000 100000 100000 100000 100000 100000
          100000 100000 100000 100000 100000 100000 100000 100000 100000 100000 100000 100000
          100000 100000 100000 100000 100000 100000 100000 100000 100000 100000 100000 100000
          100000 100000 100000 100000 100000 100000 100000 100000
        </DataArray>
        <DataArray type="Float32" Name="rho_aq" NumberOfComponents="1" format="ascii">
          996.634 996.813 996.99 997.158 997.306 997.448 997.585 997.715 997.838 997.952 998.043 998.127
          998.204 998.275 998.339 998.397 998.449 998.496 998.538 998.575 998.608 998.637 998.661 998.679
          998.694 998.708 998.72 998.73 998.739 998.746 998.753 998.758 998.763 998.767 998.77 998.773
          998.776 998.778 998.78 998.781 998.783 998.784 998.785 998.785 998.786 998.786 998.787 998.787
          998.788 998.788 998.788 998.788 998.789 998.789 998.789 998.789 998.789 998.789 998.789 998.789
          998.789 998.789 998.789 998.789 998.789 998.789 998.789 998.789 998.789 998.789 998.789 998.789
          998.789 998.789 998.789 998.789 998.789 998.789 998.789 998.789 998.789 998.789 998.789 998.789
          998.789 998.789 998.789 998.789 998.789 998.789 998.789 998.789 998.789 998.789 998.789 998.789
          998.789 998.789 998.789 998.789 998.789 998.789 998.789 998.789 998.789 998.789 998.789 998.789
          998.789 998.789 998.789 998.789 998.789 998.789 998.789 998.789 998.789 998.789 998.789 998.789
          998.789 998.789 998.789 998.789 998.789 998.789 998.789 998.789 998.789 998.789 998.789 998.789
          998.789 998.789 998.789 998.789 998.789 998.789 998.789 998.789 998.789 998.789 998.789 998.789
          998.789 998.789 998.789 998.789 998.789 998.789 998.789 998.789 998.789 998.789 998.789 998.789
          998.789 998.789 998.789 998.789 998.789 998.789 998.789 998.789 998.789 998.789 998.789 998.789
          998.789 998.789 998.789 998.789 998.789 998.789 998.789 998.789 998.789 998.789 998.789 998.789
          998.789 998.789 998.789 998.789 998.789 998.789 998.789 998.789 998.789 998.789 998.789 998.789
          998.789 998.789 998.789 998.789 998.789 998.789 998.789 998.789
        </DataArray>
        <DataArray type="Float32" Name="rho_napl" NumberOfComponents="1" format="ascii">
          865.141 865.693 866.239 866.773 867.293 867.794 868.274 868.73 869.16 869.563 869.938 870.285
          870.604 870.896 871.161 871.4 871.616 871.809 871.981 872.133 872.268 872.387 872.492 872.583
          872.663 872.732 872.792 872.844 872.889 872.928 872.961 872.989 873.014 873.034 873.052 873.067
          873.08 873.091 873.1 873.108 873.114 873.12 873.124 873.128 873.132 873.134 873.137 873.139
          873.14 873.142 873.143 873.144 873.145 873.145 873.146 873.146 873.147 873.147 873.147 873.147
          873.148 873.148 873.148 873.148 873.148 873.148 873.148 873.148 873.148 873.148 873.148 873.148
          873.148 873.148 873.148 873.148 873.148 873.148 873.148 873.148 873.149 873.149 873.149 873.149
          873.149 873.149 873.149 873.149 873.149 873.149 873.149 873.149 873.149 873.149 873.149 873.149
          873.149 873.149 873.149 873.149 873.149 873.149 873.149 873.149 873.149 873.149 873.149 873.149
          873.149 873.149 873.149 873.149 873.149 873.149 873.149 873.149 873.149 873.149 873.149 873.149
          873.149 873.149 873.149 873.149 873.149 873.149 873.149 873.149 873.149 873.149 873.149 873.149
          873.149 873.149 873.149 873.149 873.149 873.149 873.149 873.149 873.149 873.149 873.149 873.149
          873.149 873.149 873.149 873.149 873.149 873.149 873.149 873.149 873.149 873.149 873.149 873.149
          873.149 873.149 873.149 873.149 873.149 873.149 873.149 873.149 873.149 873.149 873.149 873.149
          873.149 873.149 873.149 873.149 873.149 873.149 873.149 873.149 873.149 873.149 873.149 873.149
          873.149 873.149 873.149 873.149 873.149 873.149 873.149 873.149 873.149 873.149 873.149 873.149
          873.149 873.149 873.149 873.149 873.149 873.149 873.149 873.149
        </DataArray>
        <DataArray type="Float32" Name="rho_gas" NumberOfComponents="1" format="ascii">
          1.16232 1.1649 1.16746 1.16998 1.17244 1.17483 1.17713 1.17932 1.1814 1.18335 1.18517 1.18687
          1.18843 1.18986 1.19117 1.19235 1.19341 1.19437 1.19523 1.19598 1.19666 1.19725 1.19777 1.19823
          1.19863 1.19897 1.19928 1.19954 1.19976 1.19995 1.20012 1.20026 1.20039 1.20049 1.20058 1.20065
          1.20072 1.20077 1.20082 1.20086 1.20089 1.20092 1.20094 1.20096 1.20098 1.20099 1.201 1.20101
          1.20102 1.20103 1.20103 1.20104 1.20104 1.20105 1.20105 1.20105 1.20105 1.20106 1.20106 1.20106
          1.20106 1.20106 1.20106 1.20106 1.20106 1.20106 1.20106 1.20106 1.20106 1.20106 1.20106 1.20106
          1.20106 1.20106 1.20106 1.20106 1.20106 1.20106 1.20106 1.20106 1.20106 1.20106 1.20106 1.20106
          1.20106 1.20106 1.20106 1.20106 1.20106 1.20106 1.20106 1.20106 1.20106 1.20106 1.20106 1.20106
          1.20106 1.20106 1.20106 1.20106 1.20106 1.20106 1.20106 1.20106 1.20106 1.20106 1.20106 1.20106
          1.20106 1.20106 1.20106 1.20106 1.20106 1.20106 1.20106 1.20106 1.20106 1.20106 1.20106 1.20106
          1.20106 1.20106 1.20106 1.20106 1.20106 1.20106 1.20106 1.20106 1.20106 1.20106 1.20106 1.20106
          1.20106 1.20106 1.20106 1.20106 1.20106 1.20106 1.20106 1.20106 1.20106 1.20106 1.20106 1.20106
          1.20106 1.20106 1.20106 1.20106 1.20106 1.20106 1.20106 1.20106 1.20106 1.20106 1.20106 1.20106
          1.20106 1.20106 1.20106 1.20106 1.20106 1.20106 1.20106 1.20106 1.20106 1.20106 1.20106 1.20106
          1.20106 1.20106 1.20106 1.20106 1.20106 1.20106 1.20106 1.20106 1.20106 1.20106 1.20106 1.20106
          1.20106 1.20106 1.20106 1.20106 1.20106 1.20106 1.20106 1.20106 1.20106 1.20106 1.20106 1.20106
          1.20106 1.20106 1.20106 1.20106 1.20106 1.20106 1.20106 1.20106
        </DataArray>
        <DataArray type="Float32" Name="porosity" NumberOfComponents="1" format="ascii">
          0.4 0.4 0.4 0.4 0.4 0.4 0.4 0.4 0.4 0.4 0.4 0.4
          0.4 0.4 0.4 0.4 0.4 0.4 0.4 0.4 0.4 0.4 0.4 0.4
          0.4 0.4 0.4 0.4 0.4 0.4 0.4 0.4 0.4 0.4 0.4 0.4
          0.4 0.4 0.4 0.4 0.4 0.4 0.4 0.4 0.4 0.4 0.4 0.4
          0.4 0.4 0.4 0.4 0.4 0.4 0.4 0.4 0.4 0.4 0.4 0.4
          0.4 0.4 0.4 0.4 0.4 0.4 0.4 0.4 0.4 0.4 0.4 0.4
          0.4 0.4 0.4 0.4 0.4 0.4 0.4 0.4 0.4 0.4 0.4 0.4
          0.4 0.4 0.4 0.4 0.4 0.4 0.4 0.4 0.4 0.4 0.4 0.4
          0.4 0.4 0.4 0.4 0.4 0.4 0.4 0.4 0.4 0.4 0.4 0.4
          0.4 0.4 0.4 0.4 0.4 0.4 0.4 0.4 0.4 0.4 0.4 0.4
          0.4 0.4 0.4 0.4 0.4 0.4 0.4 0.4 0.4 0.4 0.4 0.4
          0.4 0.4 0.4 0.4 0.4 0.4 0.4 0.4 0.4 0.4 0.4 0.4
          0.4 0.4 0.4 0.4 0.4 0.4 0.4 0.4 0.4 0.4 0.4 0.4
          0.4 0.4 0.4 0.4 0.4 0.4 0.4 0.4 0.4 0.4 0.4 0.4
          0.4 0.4 0.4 0.4 0.4 0.4 0.4 0.4 0.4 0.4 0.4 0.4
          0.4 0.4 0.4 0.4 0.4 0.4 0.4 0.4 0.4 0.4 0.4 0.4
          0.4 0.4 0.4 0.4 0.4 0.4 0.4 0.4
        </DataArray>
        <DataArray type="Float32" Name="permeability" NumberOfComponents="1" format="ascii">
          1e-10 1e-10 1e-10 1e-10 1e-10 1e-10 1e-10 1e-10 1e-10 1e-10 1e-10 1e-10
          1e-10 1e-10 1e-10 1e-10 1e-10 1e-10 1e-10 1e-10 1e-10 1e-10 1e-10 1e-10
          1e-10 1e-10 1e-10 1e-10 1e-10 1e-10 1e-10 1e-10 1e-10 1e-10 1e-10 1e-10
          1e-10 1e-10 1e-10 1e-10 1e-10 1e-10 1e-10 1e-10 1e-10 1e-10 1e-10 1e-10
          1e-10 1e-10 1e-10 1e-10 1e-10 1e-10 1e-10 1e-10 1e-10 1e-10 1e-10 1e-10
          1e-10 1e-10 1e-10 1e-10 1e-10 1e-10 1e-10 1e-10 1e-10 1e-10 1e-10 1e-10
          1e-10 1e-10 1e-10 1e-10 1e-10 1e-10 1e-10 1e-10 1e-10 1e-10 1e-10 1e-10
          1e-10 1e-10 1e-10 1e-10 1e-10 1e-10 1e-10 1e-10 1e-10 1e-10 1e-10 1e-10
          1e-10 1e-10 1e-10 1e-10 1e-10 1e-10 1e-10 1e-10 1e-10 1e-10 1e-10 1e-10
          1e-10 1e-10 1e-10 1e-10 1e-10 1e-10 1e-10 1e-10 1e-10 1e-10 1e-10 1e-10
          1e-10 1e-10 1e-10 1e-10 1e-10 1e-10 1e-10 1e-10 1e-10 1e-10 1e-10 1e-10
          1e-10 1e-10 1e-10 1e-10 1e-10 1e-10 1e-10 1e-10 1e-10 1e-10 1e-10 1e-10
          1e-10 1e-10 1e-10 1e-10 1e-10 1e-10 1e-10 1e-10 1e-10 1e-10 1e-10 1e-10
          1e-10 1e-10 1e-10 1e-10 1e-10 1e-10 1e-10 1e-10 1e-10 1e-10 1e-10 1e-10
          1e-10 1e-10 1e-10 1e-10 1e-10 1e-10 1e-10 1e-10 1e-10 1e-10 1e-10 1e-10
          1e-10 1e-10 1e-10 1e-10 1e-10 1e-10 1e-10 1e-10 1e-10 1e-10 1e-10 1e-10
          1e-10 1e-10 1e-10 1e-10 1e-10 1e-10 1e-10 1e-10
        </DataArray>
        <DataArray type="Float32" Name="T" NumberOfComponents="1" format="ascii">
          299.667 299.004 298.348 297.705 297.079 296.475 295.897 295.347 294.828 294.341 293.888 293.469
          293.083 292.73 292.41 292.12 291.859 291.625 291.417 291.231 291.068 290.923 290.797 290.686
          290.589 290.505 290.432 290.369 290.315 290.268 290.228 290.193 290.164 290.139 290.117 290.099
          290.083 290.07 290.059 290.05 290.042 290.035 290.029 290.025 290.021 290.017 290.014 290.012
          290.01 290.008 290.007 290.006 290.005 290.004 290.003 290.003 290.002 290.002 290.002 290.001
          290.001 290.001 290.001 290.001 290.001 290 290 290 290 290 290 290
          290 290 290 290 290 290 290 290 290 290 290 290
          290 290 290 290 290 290 290 290 290 290 290 290
          290 290 290 290 290 290 290 290 290 290 290 290
          290 290 290 290 290 290 290 290 290 290 290 290
          290 290 290 290 290 290 290 290 290 290 290 290
          290 290 290 290 290 290 290 290 290 290 290 290
          290 290 290 290 290 290 290 290 290 290 290 290
          290 290 290 290 290 290 290 290 290 290 290 290
          290 290 290 290 290 290 290 290 290 290 290 290
          290 290 290 290 290 290 290 290 290 290 290 290
          290 290 290 290 290 290 290 290
        </DataArray>
        <DataArray type="Float32" Name="velocity_aq" NumberOfComponents="3" format="ascii">
          -1.0499e-09 0 0 -1.03771e-09 0 0 -1.01387e-09 0 0 -9.81573e-10 0 0
          -9.42382e-10 0 0 -8.95523e-10 0 0 -8.42218e-10 0 0 -7.83778e-10 0 0
          -7.21541e-10 0 0 -6.61849e-10 0 0 -6.05993e-10 0 0 -5.50043e-10 0 0
          -4.94845e-10 0 0 -4.41117e-10 0 0 -3.89447e-10 0 0 -3.40294e-10 0 0
          -2.93993e-10 0 0 -2.5077e-10 0 0 -2.10748e-10 0 0 -1.73969e-10 0 0
          -1.40404e-10 0 0 -1.1074e-10 0 0 -8.66124e-11 0 0 -6.68159e-11 0 0
          -4.91567e-11 0 0 -3.34777e-11 0 0 -1.96175e-11 0 0 -7.41459e-12 0 0
          3.28873e-12 0 0 1.26435e-11 0 0 2.07926e-11 0 0 2.78699e-11 0 0
          3.39985e-11 0 0 3.92914e-11 0 0 4.38511e-11 0 0 4.77698e-11 0 0
          5.11302e-11 0 0 5.40058e-11 0 0 5.64617e-11 0 0 5.85554e-11 0 0
          6.03373e-11 0 0 6.18511e-11 0 0 6.31354e-11 0 0 6.42234e-11 0 0
          6.51438e-11 0 0 6.59214e-11 0 0 6.65777e-11 0 0 6.71309e-11 0 0
          6.75966e-11 0 0 6.79884e-11 0 0 6.83177e-11 0 0 6.85941e-11 0 0
          6.8826e-11 0 0 6.90205e-11 0 0 6.91833e-11 0 0 6.93195e-11 0 0
          6.94335e-11 0 0 6.95288e-11 0 0 6.96084e-11 0 0 6.96749e-11 0 0
          6.97304e-11 0 0 6.97766e-11 0 0 6.98152e-11 0 0 6.98473e-11 0 0
          6.98741e-11 0 0 6.98963e-11 0 0 6.99149e-11 0 0 6.99303e-11 0 0
          6.9943e-11 0 0 6.99537e-11 0 0 6.99626e-11 0 0 6.99699e-11 0 0
          6.99761e-11 0 0 6.99811e-11 0 0 6.99853e-11 0 0 6.99888e-11 0 0
          6.99917e-11 0 0 6.99942e-11 0 0 6.99962e-11 0 0 6.99979e-11 0 0
          6.99992e-11 0 0 7.00003e-11 0 0 7.00013e-11 0 0 7.0002e-11 0 0
          7.00027e-11 0 0 7.00033e-11 0 0 7.00037e-11 0 0 7.0004e-11 0 0
          7.00043e-11 0 0 7.00046e-11 0 0 7.00048e-11 0 0 7.0005e-11 0 0
          7.00052e-11 0 0 7.00053e-11 0 0 7.00053e-11 0 0 7.00054e-11 0 0
          7.00055e-11 0 0 7.00055e-11 0 0 7.00056e-11 0 0 7.00056e-11 0 0
          7.00057e-11 0 0 7.00057e-11 0 0 7.00057e-11 0 0 7.00057e-11 0 0
          7.00058e-11 0 0 7.00058e-11 0 0 7.00058e-11 0 0 7.00058e-11 0 0
          7.00058e-11 0 0 7.00058e-11 0 0 7.00058e-11 0 0 7.00058e-11 0 0
          7.00058e-11 0 0 7.00058e-11 0 0 7.00058e-11 0 0 7.00058e-11 0 0
          7.00058e-11 0 0 7.00058e-11 0 0 7.00058e-11 0 0 7.00058e-11 0 0
          7.00058e-11 0 0 7.00058e-11 0 0 7.00058e-11 0 0 7.00058e-11 0 0
          7.00058e-11 0 0 7.00058e-11 0 0 7.00058e-11 0 0 7.00058e-11 0 0
          7.00058e-11 0 0 7.00058e-11 0 0 7.00058e-11 0 0 7.00058e-11 0 0
          7.00058e-11 0 0 7.00058e-11 0 0 7.00058e-11 0 0 7.00058e-11 0 0
          7.00058e-11 0 0 7.00058e-11 0 0 7.00058e-11 0 0 7.00058e-11 0 0
          7.00058e-11 0 0 7.00058e-11 0 0 7.00058e-11 0 0 7.00058e-11 0 0
          7.00058e-11 0 0 7.00058e-11 0 0 7.00058e-11 0 0 7.00058e-11 0 0
          7.00058e-11 0 0 7.00058e-11 0 0 7.00058e-11 0 0 7.00058e-11 0 0
          7.00058e-11 0 0 7.00059e-11 0 0 7.00058e-11 0 0 7.00058e-11 0 0
          7.00058e-11 0 0 7.00058e-11 0 0 7.00058e-11 0 0 7.00058e-11 0 0
          7.00058e-11 0 0 7.00058e-11 0 0 7.00058e-11 0 0 7.00058e-11 0 0
          7.00058e-11 0 0 7.00058e-11 0 0 7.00058e-11 0 0 7.00058e-11 0 0
          7.00058e-11 0 0 7.00058e-11 0 0 7.00058e-11 0 0 7.00058e-11 0 0
          7.00058e-11 0 0 7.00058e-11 0 0 7.00058e-11 0 0 7.00058e-11 0 0
          7.00058e-11 0 0 7.00058e-11 0 0 7.00058e-11 0 0 7.00058e-11 0 0
          7.00058e-11 0 0 7.00058e-11 0 0 7.00058e-11 0 0 7.00058e-11 0 0
          7.00058e-11 0 0 7.00058e-11 0 0 7.00058e-11 0 0 7.00058e-11 0 0
          7.00058e-11 0 0 7.00058e-11 0 0 7.00059e-11 0 0 7.00058e-11 0 0
          7.00058e-11 0 0 7.00058e-11 0 0 7.00058e-11 0 0 7.00058e-11 0 0
          7.00058e-11 0 0 7.00058e-11 0 0 7.00058e-11 0 0 7.00058e-11 0 0
        </DataArray>
        <DataArray type="Float32" Name="velocity_napl" NumberOfComponents="3" format="ascii">
          0 0 0 0 0 0 0 0 0 0 0 0
          0 0 0 0 0 0 0 0 0 0 0 0
          0 0 0 0 0 0 0 0 0 0 0 0
          0 0 0 0 0 0 0 0 0 0 0 0
          0 0 0 0 0 0 0 0 0 0 0 0
          0 0 0 0 0 0 0 0 0 0 0 0
          0 0 0 0 0 0 0 0 0 0 0 0
          0 0 0 0 0 0 0 0 0 0 0 0
          0 0 0 0 0 0 0 0 0 0 0 0
          0 0 0 0 0 0 0 0 0 0 0 0
          0 0 0 0 0 0 0 0 0 0 0 0
          0 0 0 0 0 0 0 0 0 0 0 0
          0 0 0 0 0 0 0 0 0 0 0 0
          0 0 0 0 0 0 0 0 0 0 0 0
          0 0 0 0 0 0 0 0 0 0 0 0
          0 0 0 0 0 0 0 0 0 0 0 0
          0 0 0 0 0 0 0 0 0 0 0 0
          0 0 0 0 0 0 0 0 0 0 0 0
          0 0 0 0 0 0 0 0 0 0 0 0
          0 0 0 0 0 0 0 0 0 0 0 0
          0 0 0 0 0 0 0 0 0 0 0 0
          0 0 0 0 0 0 0 0 0 0 0 0
          0 0 0 0 0 0 0 0 0 0 0 0
          0 0 0 0 0 0 0 0 0 0 0 0
          0 0 0 0 0 0 0 0 0 0 0 0
          0 0 0 0 0 0 0 0 0 0 0 0
          0 0 0 0 0 0 0 0 0 0 0 0
          0 0 0 0 0 0 0 0 0 0 0 0
          0 0 0 0 0 0 0 0 0 0 0 0
          0 0 0 0 0 0 0 0 0 0 0 0
          0 0 0 0 0 0 0 0 0 0 0 0
          0 0 0 0 0 0 0 0 0 0 0 0
          0 0 0 0 0 0 0 0 0 0 0 0
          0 0 0 0 0 0 0 0 0 0 0 0
          0 0 0 0 0 0 0 0 0 0 0 0
          0 0 0 0 0 0 0 0 0 0 0 0
          0 0 0 0 0 0 0 0 0 0 0 0
          0 0 0 0 0 0 0 0 0 0 0 0
          0 0 0 0 0 0 0 0 0 0 0 0
          0 0 0 0 0 0 0 0 0 0 0 0
          0 0 0 0 0 0 0 0 0 0 0 0
          0 0 0 0 0 0 0 0 0 0 0 0
          0 0 0 0 0 0 0 0 0 0 0 0
          0 0 0 0 0 0 0 0 0 0 0 0
          0 0 0 0 0 0 0 0 0 0 0 0
          0 0 0 0 0 0 0 0 0 0 0 0
          0 0 0 0 0 0 0 0 0 0 0 0
          0 0 0 0 0 0 0 0 0 0 0 0
          0 0 0 0 0 0 0 0 0 0 0 0
          0 0 0 0 0 0 0 0 0 0 0 0
        </DataArray>
        <DataArray type="Float32" Name="velocity_gas" NumberOfComponents="3" format="ascii">
          0 0 0 0 0 0 0 0 0 0 0 0
          0 0 0 0 0 0 0 0 0 0 0 0
          0 0 0 0 0 0 0 0 0 0 0 0
          0 0 0 0 0 0 0 0 0 0 0 0
          0 0 0 0 0 0 0 0 0 0 0 0
          0 0 0 0 0 0 0 0 0 0 0 0
          0 0 0 0 0 0 0 0 0 0 0 0
          0 0 0 0 0 0 0 0 0 0 0 0
          0 0 0 0 0 0 0 0 0 0 0 0
          0 0 0 0 0 0 0 0 0 0 0 0
          0 0 0 0 0 0 0 0 0 0 0 0
          0 0 0 0 0 0 0 0 0 0 0 0
          0 0 0 0 0 0 0 0 0 0 0 0
          0 0 0 0 0 0 0 0 0 0 0 0
          0 0 0 0 0 0 0 0 0 0 0 0
          0 0 0 0 0 0 0 0 0 0 0 0
          0 0 0 0 0 0 0 0 0 0 0 0
          0 0 0 0 0 0 0 0 0 0 0 0
          0 0 0 0 0 0 0 0 0 0 0 0
          0 0 0 0 0 0 0 0 0 0 0 0
          0 0 0 0 0 0 0 0 0 0 0 0
          0 0 0 0 0 0 0 0 0 0 0 0
          0 0 0 0 0 0 0 0 0 0 0 0
          0 0 0 0 0 0 0 0 0 0 0 0
          0 0 0 0 0 0 0 0 0 0 0 0
          0 0 0 0 0 0 0 0 0 0 0 0
          0 0 0 0 0 0 0 0 0 0 0 0
          0 0 0 0 0 0 0 0 0 0 0 0
          0 0 0 0 0 0 0 0 0 0 0 0
          0 0 0 0 0 0 0 0 0 0 0 0
          0 0 0 0 0 0 0 0 0 0 0 0
          0 0 0 0 0 0 0 0 0 0 0 0
          0 0 0 0 0 0 0 0 0 0 0 0
          0 0 0 0 0 0 0 0 0 0 0 0
          0 0 0 0 0 0 0 0 0 0 0 0
          0 0 0 0 0 0 0 0 0 0 0 0
          0 0 0 0 0 0 0 0 0 0 0 0
          0 0 0 0 0 0 0 0 0 0 0 0
          0 0 0 0 0 0 0 0 0 0 0 0
          0 0 0 0 0 0 0 0 0 0 0 0
          0 0 0 0 0 0 0 0 0 0 0 0
          0 0 0 0 0 0 0 0 0 0 0 0
          0 0 0 0 0 0 0 0 0 0 0 0
          0 0 0 0 0 0 0 0 0 0 0 0
          0 0 0 0 0 0 0 0 0 0 0 0
          0 0 0 0 0 0 0 0 0 0 0 0
          0 0 0 0 0 0 0 0 0 0 0 0
          0 0 0 0 0 0 0 0 0 0 0 0
          0 0 0 0 0 0 0 0 0 0 0 0
          0 0 0 0 0 0 0 0 0 0 0 0
        </DataArray>
        <DataArray type="Float32" Name="process rank" NumberOfComponents="1" format="ascii">
          0 0 0 0 0 0 0 0 0 0 0 0
          0 0 0 0 0 0 0 0 0 0 0 0
          0 0 0 0 0 0 0 0 0 0 0 0
          0 0 0 0 0 0 0 0 0 0 0 0
          0 0 0 0 0 0 0 0 0 0 0 0
          0 0 0 0 0 0 0 0 0 0 0 0
          0 0 0 0 0 0 0 0 0 0 0 0
          0 0 0 0 0 0 0 0 0 0 0 0
          0 0 0 0 0 0 0 0 0 0 0 0
          0 0 0 0 0 0 0 0 0 0 0 0
          0 0 0 0 0 0 0 0 0 0 0 0
          0 0 0 0 0 0 0 0 0 0 0 0
          0 0 0 0 0 0 0 0 0 0 0 0
          0 0 0 0 0 0 0 0 0 0 0 0
          0 0 0 0 0 0 0 0 0 0 0 0
          0 0 0 0 0 0 0 0 0 0 0 0
          0 0 0 0 0 0 0 0
        </DataArray>
        <DataArray type="Float32" Name="temperatureExact" NumberOfComponents="1" format="ascii">
          299.699 299.1 298.505 297.919 297.344 296.784 296.241 295.717 295.216 294.738 294.285 293.859
          293.459 293.087 292.743 292.425 292.135 291.87 291.631 291.415 291.222 291.05 290.898 290.764
          290.647 290.545 290.457 290.381 290.316 290.261 290.215 290.175 290.143 290.115 290.093 290.074
          290.059 290.047 290.037 290.029 290.023 290.018 290.014 290.01 290.008 290.006 290.005 290.003
          290.003 290.002 290.001 290.001 290.001 290.001 290 290 290 290 290 290
          290 290 290 290 290 290 290 290 290 290 290 290
          290 290 290 290 290 290 290 290 290 290 290 290
          290 290 290 290 290 290 290 290 290 290 290 290
          290 290 290 290 290 290 290 290 290 290 290 290
          290 290 290 290 290 290 290 290 290 290 290 290
          290 290 290 290 290 290 290 290 290 290 290 290
          290 290 290 290 290 290 290 290 290 290 290 290
          290 290 290 290 290 290 290 290 290 290 290 290
          290 290 290 290 290 290 290 290 290 290 290 290
          290 290 290 290 290 290 290 290 290 290 290 290
          290 290 290 290 290 290 290 290 290 290 290 290
          290 290 290 290 290 290 290 290
        </DataArray>
      </CellData>
      <Points>
        <DataArray type="Float32" Name="Coordinates" NumberOfComponents="3" format="ascii">
          0 0 0 0.025 0 0 0 1 0 0.025 1 0
          0.05 0 0 0.05 1 0 0.075 0 0 0.075 1 0
          0.1 0 0 0.1 1 0 0.125 0 0 0.125 1 0
          0.15 0 0 0.15 1 0 0.175 0 0 0.175 1 0
          0.2 0 0 0.2 1 0 0.225 0 0 0.225 1 0
          0.25 0 0 0.25 1 0 0.275 0 0 0.275 1 0
          0.3 0 0 0.3 1 0 0.325 0 0 0.325 1 0
          0.35 0 0 0.35 1 0 0.375 0 0 0.375 1 0
          0.4 0 0 0.4 1 0 0.425 0 0 0.425 1 0
          0.45 0 0 0.45 1 0 0.475 0 0 0.475 1 0
          0.5 0 0 0.5 1 0 0.525 0 0 0.525 1 0
          0.55 0 0 0.55 1 0 0.575 0 0 0.575 1 0
          0.6 0 0 0.6 1 0 0.625 0 0 0.625 1 0
          0.65 0 0 0.65 1 0 0.675 0 0 0.675 1 0
          0.7 0 0 0.7 1 0 0.725 0 0 0.725 1 0
          0.75 0 0 0.75 1 0 0.775 0 0 0.775 1 0