<?xml version="1.0"?>
<VTKFile type="UnstructuredGrid" version="0.1" byte_order="LittleEndian">
  <UnstructuredGrid>
    <Piece NumberOfCells="80" NumberOfPoints="162">
      <CellData Scalars="sw" Vectors="velocityW">
        <DataArray type="Float32" Name="sw" NumberOfComponents="1" format="ascii">
          1 1 1 1 1 1 1 1 1 1 1 1
          1 1 1 1 1 1 1 1 1 1 1 1
          1 1 1 1 1 1 1 1 1 1 1 1
          1 1 1 1 1 1 1 1 1 1 1 1
          1 1 1 1 1 1 1 1 1 1 1 1
          1 1 1 1 1 1 1 1 1 1 1 1
          1 1 1 1 1 1 1 1
        </DataArray>
        <DataArray type="Float32" Name="sn" NumberOfComponents="1" format="ascii">
          1.00095e-10 1.00094e-10 1.00094e-10 1.00094e-10 1.00094e-10 1.00093e-10 1.00092e-10 1.0009e-10 1.00087e-10 1.00083e-10 1.00078e-10 1.00071e-10
          1.00063e-10 1.00056e-10 1.00047e-10 1.0004e-10 1.00032e-10 1.00026e-10 1.0002e-10 1.00015e-10 1.00011e-10 1.00008e-10 1.00006e-10 1.00004e-10
          1.00003e-10 1.00002e-10 1.00001e-10 1.00001e-10 1.00001e-10 1e-10 1e-10 1e-10 1e-10 1e-10 1e-10 1e-10
          1e-10 1e-10 1e-10 1e-10 1e-10 1e-10 1e-10 1e-10 1e-10 1e-10 1e-10 1e-10
          1e-10 1e-10 1e-10 1e-10 1e-10 1e-10 1e-10 1e-10 1e-10 1e-10 1e-10 1e-10
          1e-10 1e-10 1e-10 1e-10 1e-10 1e-10 1e-10 1e-10 1e-10 1e-10 1e-10 1e-10
          1e-10 1e-10 1e-10 1e-10 1e-10 1e-10 1e-10 1e-10
        </DataArray>
        <DataArray type="Float32" Name="sg" NumberOfComponents="1" format="ascii">
          -8.4502e-11 -8.46667e-11 -8.48316e-11 -8.49977e-11 -8.5163e-11 -8.53286e-11 -8.54926e-11 -8.56549e-11 -8.58151e-11 -8.59715e-11 -8.61253e-11 -8.62767e-11
          -8.64257e-11 -8.65747e-11 -8.6724e-11 -8.6875e-11 -8.7029e-11 -8.71857e-11 -8.73467e-11 -8.75117e-11 -8.76803e-11 -8.78521e-11 -8.80274e-11 -8.82053e-11
          -8.83857e-11 -8.85679e-11 -8.8752e-11 -8.89376e-11 -8.91244e-11 -8.93124e-11 -8.95013e-11 -8.96912e-11 -8.98819e-11 -9.0074e-11 -9.02668e-11 -9.04604e-11
          -9.06543e-11 -9.08496e-11 -9.10457e-11 -9.12425e-11 -9.14404e-11 -9.16386e-11 -9.18381e-11 -9.20383e-11 -9.22397e-11 -9.24419e-11 -9.26447e-11 -9.28489e-11
          -9.30533e-11 -9.32589e-11 -9.34655e-11 -9.3673e-11 -9.38816e-11 -9.4091e-11 -9.43012e-11 -9.45124e-11 -9.47243e-11 -9.49376e-11 -9.5152e-11 -9.53666e-11
          -9.55827e-11 -9.57998e-11 -9.60179e-11 -9.6237e-11 -9.64568e-11 -9.66775e-11 -9.68997e-11 -9.71227e-11 -9.73468e-11 -9.75719e-11 -9.77984e-11 -9.80253e-11
          -9.82536e-11 -9.84828e-11 -9.87132e-11 -9.89447e-11 -9.91774e-11 -9.94109e-11 -9.96456e-11 -9.98815e-11
        </DataArray>
        <DataArray type="Float32" Name="pw" NumberOfComponents="1" format="ascii">
          118747 118516 118285 118054 117823 117593 117362 117131 116900 116668 116437 116205
          115973 115740 115507 115273 115039 114804 114569 114333 114097 113861 113624 113388
          113151 112914 112677 112440 112204 111967 111730 111493 111256 111019 110782 110545
          110308 110071 109834 109597 109360 109123 108886 108649 108412 108175 107938 107701
          107464 107227 106990 106753 106516 106279 106042 105805 105568 105331 105094 104857
          104620 104383 104146 103909 103672 103435 103198 102961 102724 102487 102250 102013
          101776 101539 101302 101065 100828 100591 100354 100117
        </DataArray>
        <DataArray type="Float32" Name="pn" NumberOfComponents="1" format="ascii">
          118747 118516 118285 118054 117823 117593 117362 117131 116900 116668 116437 116205
          115973 115740 115507 115273 115039 114804 114569 114333 114097 113861 113624 113388
          113151 112914 112677 112440 112204 111967 111730 111493 111256 111019 110782 110545
          110308 110071 109834 109597 109360 109123 108886 108649 108412 108175 107938 107701
          107464 107227 106990 106753 106516 106279 106042 105805 105568 105331 105094 104857
          104620 104383 104146 103909 103672 103435 103198 102961 102724 102487 102250 102013
          101776 101539 101302 101065 100828 100591 100354 100117
        </DataArray>
        <DataArray type="Float32" Name="pg" NumberOfComponents="1" format="ascii">
          118748 118517 118286 118056 117825 117594 117363 117132 116901 116670 116438 116206
          115974 115741 115508 115274 115040 114805 114570 114334 114098 113862 113626 113389
          113152 112916 112679 112442 112205 111968 111731 111494 111257 111020 110783 110546
          110309 110072 109835 109598 109361 109124 108887 108650 108413 108176 107939 107702
          107465 107228 106991 106754 106517 106280 106043 105806 105569 105332 105095 104858
          104621 104384 104147 103910 103673 103436 103199 102962 102725 102488 102251 102014
          101777 101540 101303 101066 100829 100592 100355 100118
        </DataArray>
        <DataArray type="Float32" Name="rhow" NumberOfComponents="1" format="ascii">
          998.63 998.63 998.63 998.63 998.63 998.632 998.634 998.638 998.645 998.653 998.665 998.676
          998.688 998.702 998.715 998.729 998.741 998.752 998.762 998.77 998.776 998.781 998.785 998.788
          998.79 998.792 998.793 998.793 998.794 998.794 998.794 998.794 998.794 998.794 998.794 998.794
          998.794 998.794 998.794 998.794 998.793 998.793 998.793 998.793 998.793 998.793 998.793 998.793
          998.793 998.792 998.792 998.792 998.792 998.792 998.792 998.792 998.792 998.792 998.792 998.791
          998.791 998.791 998.791 998.791 998.791 998.791 998.791 998.791 998.79 998.79 998.79 998.79
          998.79 998.79 998.79 998.79 998.79 998.789 998.789 998.789
        </DataArray>
        <DataArray type="Float32" Name="rhon" NumberOfComponents="1" format="ascii">
          872.324 872.324 872.324 872.325 872.328 872.333 872.344 872.361 872.388 872.425 872.472 872.53
          872.594 872.664 872.734 872.803 872.867 872.924 872.974 873.016 873.049 873.076 873.096 873.112
          873.123 873.131 873.137 873.141 873.143 873.145 873.146 873.147 873.147 873.147 873.148 873.148
          873.148 873.148 873.148 873.148 873.148 873.148 873.148 873.148 873.148 873.148 873.148 873.148
          873.148 873.148 873.148 873.148 873.148 873.148 873.148 873.148 873.148 873.148 873.148 873.148
          873.148 873.148 873.148 873.148 873.148 873.148 873.148 873.148 873.148 873.148 873.148 873.148
          873.148 873.148 873.148 873.148 873.148 873.148 873.148 873.148
        </DataArray>
        <DataArray type="Float32" Name="rhog" NumberOfComponents="1" format="ascii">
          1.42134 1.41857 1.41581 1.41306 1.41031 1.40758 1.40487 1.40221 1.3996 1.39705 1.39455 1.39211
          1.3897 1.38731 1.38493 1.38252 1.38008 1.37759 1.37505 1.37246 1.36982 1.36714 1.36442 1.36166
          1.35889 1.35609 1.35327 1.35045 1.34762 1.34478 1.34194 1.3391 1.33626 1.33341 1.33057 1.32772
          1.32488 1.32203 1.31918 1.31634 1.31349 1.31065 1.3078 1.30495 1.30211 1.29926 1.29641 1.29357
          1.29072 1.28787 1.28503 1.28218 1.27934 1.27649 1.27364 1.2708 1.26795 1.2651 1.26226 1.25941
          1.25656 1.25372 1.25087 1.24803 1.24518 1.24233 1.23949 1.23664 1.23379 1.23095 1.2281 1.22525
          1.22241 1.21956 1.21671 1.21387 1.21102 1.20818 1.20533 1.20248
        </DataArray>
        <DataArray type="Float32" Name="porosity" NumberOfComponents="1" format="ascii">
          0.4 0.4 0.4 0.4 0.4 0.4 0.4 0.4 0.4 0.4 0.4 0.4
          0.4 0.4 0.4 0.4 0.4 0.4 0.4 0.4 0.4 0.4 0.4 0.4
          0.4 0.4 0.4 0.4 0.4 0.4 0.4 0.4 0.4 0.4 0.4 0.4
          0.4 0.4 0.4 0.4 0.4 0.4 0.4 0.4 0.4 0.4 0.4 0.4
          0.4 0.4 0.4 0.4 0.4 0.4 0.4 0.4 0.4 0.4 0.4 0.4
          0.4 0.4 0.4 0.4 0.4 0.4 0.4 0.4 0.4 0.4 0.4 0.4
          0.4 0.4 0.4 0.4 0.4 0.4 0.4 0.4
        </DataArray>
        <DataArray type="Float32" Name="permeability" NumberOfComponents="1" format="ascii">
          1e-10 1e-10 1e-10 1e-10 1e-10 1e-10 1e-10 1e-10 1e-10 1e-10 1e-10 1e-10
          1e-10 1e-10 1e-10 1e-10 1e-10 1e-10 1e-10 1e-10 1e-10 1e-10 1e-10 1e-10
          1e-10 1e-10 1e-10 1e-10 1e-10 1e-10 1e-10 1e-10 1e-10 1e-10 1e-10 1e-10
          1e-10 1e-10 1e-10 1e-10 1e-10 1e-10 1e-10 1e-10 1e-10 1e-10 1e-10 1e-10
          1e-10 1e-10 1e-10 1e-10 1e-10 1e-10 1e-10 1e-10 1e-10 1e-10 1e-10 1e-10
          1e-10 1e-10 1e-10 1e-10 1e-10 1e-10 1e-10 1e-10 1e-10 1e-10 1e-10 1e-10
          1e-10 1e-10 1e-10 1e-10 1e-10 1e-10 1e-10 1e-10
        </DataArray>
        <DataArray type="Float32" Name="temperature" NumberOfComponents="1" format="ascii">
          291 291 291 290.999 290.996 290.989 290.977 290.955 290.923 290.878 290.82 290.751
          290.672 290.588 290.503 290.419 290.342 290.272 290.212 290.161 290.12 290.088 290.063 290.045
          290.031 290.021 290.014 290.01 290.007 290.005 290.003 290.002 290.002 290.001 290.001 290.001
          290.001 290.001 290.001 290.001 290.001 290.001 290.001 290.001 290.001 290.001 290.001 290.001
          290.001 290.001 290.001 290.001 290.001 290.001 290.001 290.001 290.001 290.001 290.001 290.001
          290.001 290.001 290.001 290.001 290.001 290.001 290.001 290.001 290.001 290.001 290.001 290.001
          290.001 290.001 290.001 290.001 290.001 290.001 290.001 290.001
        </DataArray>
        <DataArray type="Float32" Name="velocityW" NumberOfComponents="3" format="ascii">
          4.3676e-05 0 0 8.73521e-05 0 0 8.73521e-05 0 0 8.73521e-05 0 0
          8.73521e-05 0 0 8.73521e-05 0 0 8.7352e-05 0 0 8.73519e-05 0 0
          8.73517e-05 0 0 8.73514e-05 0 0 8.7351e-05 0 0 8.73505e-05 0 0
          8.73501e-05 0 0 8.73496e-05 0 0 8.73491e-05 0 0 8.73486e-05 0 0
          8.73481e-05 0 0 8.73477e-05 0 0 8.73473e-05 0 0 8.73469e-05 0 0
          8.73467e-05 0 0 8.73465e-05 0 0 8.73463e-05 0 0 8.73462e-05 0 0
          8.73461e-05 0 0 8.7346e-05 0 0 8.7346e-05 0 0 8.7346e-05 0 0
          8.7346e-05 0 0 8.73459e-05 0 0 8.73459e-05 0 0 8.73459e-05 0 0
          8.7346e-05 0 0 8.7346e-05 0 0 8.7346e-05 0 0 8.7346e-05 0 0
          8.7346e-05 0 0 8.7346e-05 0 0 8.7346e-05 0 0 8.7346e-05 0 0
          8.7346e-05 0 0 8.7346e-05 0 0 8.7346e-05 0 0 8.73461e-05 0 0
          8.73461e-05 0 0 8.73461e-05 0 0 8.73461e-05 0 0 8.73461e-05 0 0
          8.73461e-05 0 0 8.73461e-05 0 0 8.73461e-05 0 0 8.73461e-05 0 0
          8.73461e-05 0 0 8.73462e-05 0 0 8.73462e-05 0 0 8.73462e-05 0 0
          8.73462e-05 0 0 8.73462e-05 0 0 8.73462e-05 0 0 8.73462e-05 0 0
          8.73462e-05 0 0 8.73462e-05 0 0 8.73462e-05 0 0 8.73463e-05 0 0
          8.73463e-05 0 0 8.73463e-05 0 0 8.73463e-05 0 0 8.73463e-05 0 0
          8.73463e-05 0 0 8.73463e-05 0 0 8.73463e-05 0 0 8.73463e-05 0 0
          8.73463e-05 0 0 8.73464e-05 0 0 8.73464e-05 0 0 8.73464e-05 0 0
          8.73464e-05 0 0 8.73464e-05 0 0 8.73464e-05 0 0 8.73464e-05 0 0
        </DataArray>
        <DataArray type="Float32" Name="velocityN" NumberOfComponents="3" format="ascii">
          0 0 0 0 0 0 0 0 0 0 0 0
          0 0 0 0 0 0 0 0 0 0 0 0
          0 0 0 0 0 0 0 0 0 0 0 0
          0 0 0 0 0 0 0 0 0 0 0 0
          0 0 0 0 0 0 0 0 0 0 0 0
          0 0 0 0 0 0 0 0 0 0 0 0
          0 0 0 0 0 0 0 0 0 0 0 0
          0 0 0 0 0 0 0 0 0 0 0 0
          0 0 0 0 0 0 0 0 0 0 0 0
          0 0 0 0 0 0 0 0 0 0 0 0
          0 0 0 0 0 0 0 0 0 0 0 0
          0 0 0 0 0 0 0 0 0 0 0 0
          0 0 0 0 0 0 0 0 0 0 0 0
          0 0 0 0 0 0 0 0 0 0 0 0
          0 0 0 0 0 0 0 0 0 0 0 0
          0 0 0 0 0 0 0 0 0 0 0 0
          0 0 0 0 0 0 0 0 0 0 0 0
          0 0 0 0 0 0 0 0 0 0 0 0
          0 0 0 0 0 0 0 0 0 0 0 0
          0 0 0 0 0 0 0 0 0 0 0 0
        </DataArray>
        <DataArray type="Float32" Name="velocityG" NumberOfComponents="3" format="ascii">
          0 0 0 0 0 0 0 0 0 0 0 0
          0 0 0 0 0 0 0 0 0 0 0 0
          0 0 0 0 0 0 0 0 0 0 0 0
          0 0 0 0 0 0 0 0 0 0 0 0
          0 0 0 0 0 0 0 0 0 0 0 0
          0 0 0 0 0 0 0 0 0 0 0 0
          0 0 0 0 0 0 0 0 0 0 0 0
          0 0 0 0 0 0 0 0 0 0 0 0
          0 0 0 0 0 0 0 0 0 0 0 0
          0 0 0 0 0 0 0 0 0 0 0 0
          0 0 0 0 0 0 0 0 0 0 0 0
          0 0 0 0 0 0 0 0 0 0 0 0
          0 0 0 0 0 0 0 0 0 0 0 0
          0 0 0 0 0 0 0 0 0 0 0 0
          0 0 0 0 0 0 0 0 0 0 0 0
          0 0 0 0 0 0 0 0 0 0 0 0
          0 0 0 0 0 0 0 0 0 0 0 0
          0 0 0 0 0 0 0 0 0 0 0 0
          0 0 0 0 0 0 0 0 0 0 0 0
          0 0 0 0 0 0 0 0 0 0 0 0
        </DataArray>
        <DataArray type="Float32" Name="process rank" NumberOfComponents="1" format="ascii">
          0 0 0 0 0 0 0 0 0 0 0 0
          0 0 0 0 0 0 0 0 0 0 0 0
          0 0 0 0 0 0 0 0 0 0 0 0
          0 0 0 0 0 0 0 0 0 0 0 0
          0 0 0 0 0 0 0 0 0 0 0 0
          0 0 0 0 0 0 0 0 0 0 0 0
          0 0 0 0 0 0 0 0
        </DataArray>
        <DataArray type="Float32" Name="temperatureExact" NumberOfComponents="1" format="ascii">
          291 291 291 291 291 291 291 291 291 291 291 291
          291 291 291 291 290 290 290 290 290 290 290 290
          290 290 290 290 290 290 290 290 290 290 290 290
          290 290 290 290 290 290 290 290 290 290 290 290
          290 290 290 290 290 290 290 290 290 290 290 290
          290 290 290 290 290 290 290 290 290 290 290 290
          290 290 290 290 290 290 290 290
        </DataArray>
      </CellData>
      <Points>
        <DataArray type="Float32" Name="Coordinates" NumberOfComponents="3" format="ascii">
          0 0 0 0.25 0 0 0 1 0 0.25 1 0
          0.5 0 0 0.5 1 0 0.75 0 0 0.75 1 0
          1 0 0 1 1 0 1.25 0 0 1.25 1 0
          1.5 0 0 1.5 1 0 1.75 0 0 1.75 1 0
          2 0 0 2 1 0 2.25 0 0 2.25 1 0
          2.5 0 0 2.5 1 0 2.75 0 0 2.75 1 0
          3 0 0 3 1 0 3.25 0 0 3.25 1 0
          3.5 0 0 3.5 1 0 3.75 0 0 3.75 1 0
          4 0 0 4 1 0 4.25 0 0 4.25 1 0
          4.5 0 0 4.5 1 0 4.75 0 0 4.75 1 0
          5 0 0 5 1 0 5.25 0 0 5.25 1 0
          5.5 0 0 5.5 1 0 5.75 0 0 5.75 1 0
          6 0 0 6 1 0 6.25 0 0 6.25 1 0
          6.5 0 0 6.5 1 0 6.75 0 0 6.75 1 0
          7 0 0 7 1 0 7.25 0 0 7.25 1 0
          7.5 0 0 7.5 1 0 7.75 0 0 7.75 1 0
          8 0 0 8 1 0 8.25 0 0 8.25 1 0
          8.5 0 0 8.5 1 0 8.75 0 0 8.75 1 0
          9 0 0 9 1 0 9.25 0 0 9.25 1 0
          9.5 0 0 9.5 1 0 9.75 0 0 9.75 1 0
          10 0 0 10 1 0 10.25 0 0 10.25 1 0
          10.5 0 0 10.5 1 0 10.75 0 0 10.75 1 0
          11 0 0 11 1 0 11.25 0 0 11.25 1 0
          11.5 0 0 11.5 1 0 11.75 0 0 11.75 1 0
          12 0 0 12 1 0 12.25 0 0 12.25 1 0
          12.5 0 0 12.5 1 0 12.75 0 0 12.75 1 0
          13 0 0 13 1 0 13.25 0 0 13.25 1 0
          13.5 0 0 13.5 1 0 13.75 0 0 13.75 1 0
          14 0 0 14 1 0 14.25 0 0 14.25 1 0
          14.5 0 0 14.5 1 0 14.75 0 0 14.75 1 0
          15 0 0 15 1 0 15.25 0 0 15.25 1 0
          15.5 0 0 15.5 1 0 15.75 0 0 15.75 1 0
          16 0 0 16 1 0 16.25 0 0 16.25 1 0
          16.5 0 0 16.5 1 0 16.75 0 0 16.75 1 0
          17 0 0 17 1 0 17.25 0 0 17.25 1 0
          17.5 0 0 17.5 1 0 17.75 0 0 17.75 1 0
          18 0 0 18 1 0 18.25 0 0 18.25 1 0
          18.5 0 0 18.5 1 0 18.75 0 0 18.75 1 0
          19 0 0 19 1 0 19.25 0 0 19.25 1 0
          19.5 0 0 19.5 1 0 19.75 0 0 19.75 1 0
          20 0 0 20 1 0
        </DataArray>
      </Points>
      <Cells>
        <DataArray type="Int32" Name="connectivity" NumberOfComponents="1" format="ascii">
          0 1 3 2 1 4 5 3 4 6 7 5
          6 8 9 7 8 10 11 9 10 12 13 11
          12 14 15 13 14 16 17 15 16 18 19 17
          18 20 21 19 20 22 23 21 22 24 25 23
          24 26 27 25 26 28 29 27 28 30 31 29
          30 32 33 31 32 34 35 33 34 36 37 35
          36 38 39 37 38 40 41 39 40 42 43 41
          42 44 45 43 44 46 47 45 46 48 49 47
          48 50 51 49 50 52 53 51 52 54 55 53
          54 56 57 55 56 58 59 57 58 60 61 59
          60 62 63 61 62 64 65 63 64 66 67 65
          66 68 69 67 68 70 71 69 70 72 73 71
          72 74 75 73 74 76 77 75 76 78 79 77
          78 80 81 79 80 82 83 81 82 84 85 83
          84 86 87 85 86 88 89 87 88 90 91 89
          90 92 93 91 92 94 95 93 94 96 97 95
          96 98 99 97 98 100 101 99 100 102 103 101
          102 104 105 103 104 106 107 105 106 108 109 107
          108 110 111 109 110 112 113 111 112 114 115 113
          114 116 117 115 116 118 119 117 118 120 121 119
          120 122 123 121 122 124 125 123 124 126 127 125
          126 128 129 127 128 130 131 129 130 132 133 131
          132 134 135 133 134 136 137 135 136 138 139 137
          138 140 141 139 140 142 143 141 142 144 145 143
          144 146 147 145 146 148 149 147 148 150 151 149
          150 152 153 151 152 154 155 153 154 156 157 155
          156 158 159 157 158 160 161 159
        </DataArray>
        <DataArray type="Int32" Name="offsets" NumberOfComponents="1" format="ascii">
          4 8 12 16 20 24 28 32 36 40 44 48
          52 56 60 64 68 72 76 80 84 88 92 96
          100 104 108 112 116 120 124 128 132 136 140 144
          148 152 156 160 164 168 172 176 180 184 188 192
          196 200 204 208 212 216 220 224 228 232 236 240
          244 248 252 256 260 264 268 272 276 280 284 288
          292 296 300 304 308 312 316 320
        </DataArray>
        <DataArray type="UInt8" Name="types" NumberOfComponents="1" format="ascii">
          9 9 9 9 9 9 9 9 9 9 9 9
          9 9 9 9 9 9 9 9 9 9 9 9
          9 9 9 9 9 9 9 9 9 9 9 9
          9 9 9 9 9 9 9 9 9 9 9 9
          9 9 9 9 9 9 9 9 9 9 9 9
          9 9 9 9 9 9 9 9 9 9 9 9
          9 9 9 9 9 9 9 9
        </DataArray>
      </Cells>
    </Piece>
  </UnstructuredGrid>
</VTKFile>
