<?xml version="1.0"?>
<VTKFile type="UnstructuredGrid" version="0.1" byte_order="LittleEndian">
  <UnstructuredGrid>
    <Piece NumberOfCells="80" NumberOfPoints="162">
      <PointData Scalars="sw" Vectors="velocityW">
        <DataArray type="Float32" Name="sw" NumberOfComponents="1" format="ascii">
          1 1 1 1 1 1 1 1 1 1 1 1
          1 1 1 1 1 1 1 1 1 1 1 1
          1 1 1 1 1 1 1 1 1 1 1 1
          1 1 1 1 1 1 1 1 1 1 1 1
          1 1 1 1 1 1 1 1 1 1 1 1
          1 1 1 1 1 1 1 1 1 1 1 1
          1 1 1 1 1 1 1 1 1 1 1 1
          1 1 1 1 1 1 1 1 1 1 1 1
          1 1 1 1 1 1 1 1 1 1 1 1
          1 1 1 1 1 1 1 1 1 1 1 1
          1 1 1 1 1 1 1 1 1 1 1 1
          1 1 1 1 1 1 1 1 1 1 1 1
          1 1 1 1 1 1 1 1 1 1 1 1
          1 1 1 1 1 1
        </DataArray>
        <DataArray type="Float32" Name="sn" NumberOfComponents="1" format="ascii">
          1.00095e-10 1.00095e-10 1.00095e-10 1.00095e-10 1.00094e-10 1.00094e-10 1.00094e-10 1.00094e-10 1.00094e-10 1.00094e-10 1.00094e-10 1.00094e-10
          1.00093e-10 1.00093e-10 1.00092e-10 1.00092e-10 1.00089e-10 1.00089e-10 1.00085e-10 1.00085e-10 1.00081e-10 1.00081e-10 1.00074e-10 1.00074e-10
          1.00067e-10 1.00067e-10 1.0006e-10 1.0006e-10 1.00051e-10 1.00051e-10 1.00043e-10 1.00043e-10 1.00036e-10 1.00036e-10 1.00029e-10 1.00029e-10
          1.00023e-10 1.00023e-10 1.00017e-10 1.00017e-10 1.00013e-10 1.00013e-10 1.0001e-10 1.0001e-10 1.00007e-10 1.00007e-10 1.00005e-10 1.00005e-10
          1.00003e-10 1.00003e-10 1.00002e-10 1.00002e-10 1.00002e-10 1.00002e-10 1.00001e-10 1.00001e-10 1.00001e-10 1.00001e-10 1.00001e-10 1.00001e-10
          1e-10 1e-10 1e-10 1e-10 1e-10 1e-10 1e-10 1e-10 1e-10 1e-10 1e-10 1e-10
          1e-10 1e-10 1e-10 1e-10 1e-10 1e-10 1e-10 1e-10 1e-10 1e-10 1e-10 1e-10
          1e-10 1e-10 1e-10 1e-10 1e-10 1e-10 1e-10 1e-10 1e-10 1e-10 1e-10 1e-10
          1e-10 1e-10 1e-10 1e-10 1e-10 1e-10 1e-10 1e-10 1e-10 1e-10 1e-10 1e-10
          1e-10 1e-10 1e-10 1e-10 1e-10 1e-10 1e-10 1e-10 1e-10 1e-10 1e-10 1e-10
          1e-10 1e-10 1e-10 1e-10 1e-10 1e-10 1e-10 1e-10 1e-10 1e-10 1e-10 1e-10
          1e-10 1e-10 1e-10 1e-10 1e-10 1e-10 1e-10 1e-10 1e-10 1e-10 1e-10 1e-10
          1e-10 1e-10 1e-10 1e-10 1e-10 1e-10 1e-10 1e-10 1e-10 1e-10 1e-10 1e-10
          1e-10 1e-10 1e-10 1e-10 1e-10 1e-10
        </DataArray>
        <DataArray type="Float32" Name="sg" NumberOfComponents="1" format="ascii">
          -8.44204e-11 -8.45846e-11 -8.44204e-11 -8.45846e-11 -8.47492e-11 -8.47492e-11 -8.4915e-11 -8.4915e-11 -8.50803e-11 -8.50803e-11 -8.5246e-11 -8.5246e-11
          -8.54107e-11 -8.54107e-11 -8.55746e-11 -8.55746e-11 -8.57355e-11 -8.57355e-11 -8.58941e-11 -8.58941e-11 -8.6049e-11 -8.6049e-11 -8.62017e-11 -8.62017e-11
          -8.63512e-11 -8.63512e-11 -8.65003e-11 -8.65003e-11 -8.66495e-11 -8.66495e-11 -8.67992e-11 -8.67992e-11 -8.69514e-11 -8.69514e-11 -8.71064e-11 -8.71064e-11
          -8.72649e-11 -8.72649e-11 -8.74281e-11 -8.74281e-11 -8.75948e-11 -8.75948e-11 -8.77654e-11 -8.77654e-11 -8.79394e-11 -8.79394e-11 -8.8116e-11 -8.8116e-11
          -8.82952e-11 -8.82952e-11 -8.84766e-11 -8.84766e-11 -8.86598e-11 -8.86598e-11 -8.88447e-11 -8.88447e-11 -8.90309e-11 -8.90309e-11 -8.92182e-11 -8.92182e-11
          -8.94069e-11 -8.94069e-11 -8.95964e-11 -8.95964e-11 -8.97865e-11 -8.97865e-11 -8.99778e-11 -8.99778e-11 -9.01701e-11 -9.01701e-11 -9.03634e-11 -9.03634e-11
          -9.05573e-11 -9.05573e-11 -9.07519e-11 -9.07519e-11 -9.09476e-11 -9.09476e-11 -9.11438e-11 -9.11438e-11 -9.13412e-11 -9.13412e-11 -9.15391e-11 -9.15391e-11
          -9.17382e-11 -9.17382e-11 -9.1938e-11 -9.1938e-11 -9.2139e-11 -9.2139e-11 -9.23405e-11 -9.23405e-11 -9.25429e-11 -9.25429e-11 -9.27464e-11 -9.27464e-11
          -9.29508e-11 -9.29508e-11 -9.31561e-11 -9.31561e-11 -9.33623e-11 -9.33623e-11 -9.35695e-11 -9.35695e-11 -9.37773e-11 -9.37773e-11 -9.39862e-11 -9.39862e-11
          -9.41958e-11 -9.41958e-11 -9.44066e-11 -9.44066e-11 -9.46184e-11 -9.46184e-11 -9.48311e-11 -9.48311e-11 -9.50444e-11 -9.50444e-11 -9.52591e-11 -9.52591e-11
          -9.54746e-11 -9.54746e-11 -9.56913e-11 -9.56913e-11 -9.59089e-11 -9.59089e-11 -9.61273e-11 -9.61273e-11 -9.63466e-11 -9.63466e-11 -9.6567e-11 -9.6567e-11
          -9.67888e-11 -9.67888e-11 -9.70115e-11 -9.70115e-11 -9.72348e-11 -9.72348e-11 -9.74592e-11 -9.74592e-11 -9.7685e-11 -9.7685e-11 -9.79117e-11 -9.79117e-11
          -9.81393e-11 -9.81393e-11 -9.83682e-11 -9.83682e-11 -9.8598e-11 -9.8598e-11 -9.88289e-11 -9.88289e-11 -9.90609e-11 -9.90609e-11 -9.9294e-11 -9.9294e-11
          -9.95282e-11 -9.95282e-11 -9.97634e-11 -9.97634e-11 -1e-10 -1e-10
        </DataArray>
        <DataArray type="Float32" Name="pw" NumberOfComponents="1" format="ascii">
          118862 118631 118862 118631 118401 118401 118170 118170 117939 117939 117708 117708
          117477 117477 117246 117246 117015 117015 116784 116784 116553 116553 116321 116321
          116089 116089 115857 115857 115624 115624 115390 115390 115156 115156 114921 114921
          114686 114686 114451 114451 114215 114215 113979 113979 113743 113743 113506 113506
          113269 113269 113033 113033 112796 112796 112559 112559 112322 112322 112085 112085
          111848 111848 111611 111611 111374 111374 111137 111137 110900 110900 110663 110663
          110426 110426 110189 110189 109952 109952 109715 109715 109478 109478 109241 109241
          109004 109004 108767 108767 108530 108530 108293 108293 108056 108056 107819 107819
          107582 107582 107345 107345 107108 107108 106871 106871 106634 106634 106397 106397
          106160 106160 105923 105923 105686 105686 105449 105449 105212 105212 104976 104976
          104739 104739 104502 104502 104265 104265 104028 104028 103791 103791 103554 103554
          103317 103317 103080 103080 102843 102843 102606 102606 102369 102369 102132 102132
          101895 101895 101658 101658 101421 101421 101184 101184 100947 100947 100710 100710
          100473 100473 100236 100236 99998.7 99998.7
        </DataArray>
        <DataArray type="Float32" Name="pn" NumberOfComponents="1" format="ascii">
          118862 118631 118862 118631 118401 118401 118170 118170 117939 117939 117708 117708
          117477 117477 117246 117246 117015 117015 116784 116784 116553 116553 116321 116321
          116089 116089 115857 115857 115624 115624 115390 115390 115156 115156 114921 114921
          114686 114686 114451 114451 114215 114215 113979 113979 113743 113743 113506 113506
          113269 113269 113033 113033 112796 112796 112559 112559 112322 112322 112085 112085
          111848 111848 111611 111611 111374 111374 111137 111137 110900 110900 110663 110663
          110426 110426 110189 110189 109952 109952 109715 109715 109478 109478 109241 109241
          109004 109004 108767 108767 108530 108530 108293 108293 108056 108056 107819 107819
          107582 107582 107345 107345 107108 107108 106871 106871 106634 106634 106397 106397
          106160 106160 105923 105923 105686 105686 105449 105449 105212 105212 104976 104976
          104739 104739 104502 104502 104265 104265 104028 104028 103791 103791 103554 103554
          103317 103317 103080 103080 102843 102843 102606 102606 102369 102369 102132 102132
          101895 101895 101658 101658 101421 101421 101184 101184 100947 100947 100710 100710
          100473 100473 100236 100236 99998.7 99998.7
        </DataArray>
        <DataArray type="Float32" Name="pg" NumberOfComponents="1" format="ascii">
          118863 118633 118863 118633 118402 118402 118171 118171 117940 117940 117709 117709
          117478 117478 117248 117248 117017 117017 116785 116785 116554 116554 116322 116322
          116090 116090 115858 115858 115625 115625 115391 115391 115157 115157 114923 114923
          114688 114688 114452 114452 114216 114216 113980 113980 113744 113744 113507 113507
          113271 113271 113034 113034 112797 112797 112560 112560 112323 112323 112086 112086
          111849 111849 111612 111612 111375 111375 111138 111138 110902 110902 110665 110665
          110428 110428 110191 110191 109954 109954 109717 109717 109480 109480 109243 109243
          109006 109006 108769 108769 108532 108532 108295 108295 108058 108058 107821 107821
          107584 107584 107347 107347 107110 107110 106873 106873 106636 106636 106399 106399
          106162 106162 105925 105925 105688 105688 105451 105451 105214 105214 104977 104977
          104740 104740 104503 104503 104266 104266 104029 104029 103792 103792 103555 103555
          103318 103318 103081 103081 102844 102844 102607 102607 102370 102370 102133 102133
          101896 101896 101659 101659 101422 101422 101185 101185 100948 100948 100711 100711
          100474 100474 100237 100237 100000 100000
        </DataArray>
        <DataArray type="Float32" Name="rhow" NumberOfComponents="1" format="ascii">
          998.63 998.63 998.63 998.63 998.63 998.63 998.63 998.63 998.63 998.63 998.631 998.631
          998.633 998.633 998.636 998.636 998.641 998.641 998.648 998.648 998.659 998.659 998.67 998.67
          998.682 998.682 998.695 998.695 998.709 998.709 998.722 998.722 998.735 998.735 998.747 998.747
          998.758 998.758 998.766 998.766 998.773 998.773 998.779 998.779 998.784 998.784 998.787 998.787
          998.789 998.789 998.791 998.791 998.792 998.792 998.793 998.793 998.794 998.794 998.794 998.794
          998.794 998.794 998.794 998.794 998.794 998.794 998.794 998.794 998.794 998.794 998.794 998.794
          998.794 998.794 998.794 998.794 998.794 998.794 998.794 998.794 998.794 998.794 998.793 998.793
          998.793 998.793 998.793 998.793 998.793 998.793 998.793 998.793 998.793 998.793 998.793 998.793
          998.793 998.793 998.793 998.793 998.792 998.792 998.792 998.792 998.792 998.792 998.792 998.792
          998.792 998.792 998.792 998.792 998.792 998.792 998.792 998.792 998.792 998.792 998.791 998.791
          998.791 998.791 998.791 998.791 998.791 998.791 998.791 998.791 998.791 998.791 998.791 998.791
          998.791 998.791 998.791 998.791 998.79 998.79 998.79 998.79 998.79 998.79 998.79 998.79
          998.79 998.79 998.79 998.79 998.79 998.79 998.79 998.79 998.79 998.79 998.789 998.789
          998.789 998.789 998.789 998.789 998.789 998.789
        </DataArray>
        <DataArray type="Float32" Name="rhon" NumberOfComponents="1" format="ascii">
          872.324 872.324 872.324 872.324 872.324 872.324 872.325 872.325 872.326 872.326 872.33 872.33
          872.337 872.337 872.35 872.35 872.372 872.372 872.404 872.404 872.446 872.446 872.499 872.499
          872.561 872.561 872.628 872.628 872.699 872.699 872.77 872.77 872.836 872.836 872.898 872.898
          872.951 872.951 872.997 872.997 873.034 873.034 873.064 873.064 873.088 873.088 873.105 873.105
          873.118 873.118 873.128 873.128 873.134 873.134 873.139 873.139 873.142 873.142 873.144 873.144
          873.146 873.146 873.146 873.146 873.147 873.147 873.147 873.147 873.148 873.148 873.148 873.148
          873.148 873.148 873.148 873.148 873.148 873.148 873.148 873.148 873.148 873.148 873.148 873.148
          873.148 873.148 873.148 873.148 873.148 873.148 873.148 873.148 873.148 873.148 873.148 873.148
          873.148 873.148 873.148 873.148 873.148 873.148 873.148 873.148 873.148 873.148 873.148 873.148
          873.148 873.148 873.148 873.148 873.148 873.148 873.148 873.148 873.148 873.148 873.148 873.148
          873.148 873.148 873.148 873.148 873.148 873.148 873.148 873.148 873.148 873.148 873.148 873.148
          873.148 873.148 873.148 873.148 873.148 873.148 873.148 873.148 873.148 873.148 873.148 873.148
          873.148 873.148 873.148 873.148 873.148 873.148 873.148 873.148 873.148 873.148 873.148 873.148
          873.148 873.148 873.148 873.148 873.149 873.149
        </DataArray>
        <DataArray type="Float32" Name="rhog" NumberOfComponents="1" format="ascii">
          1.42272 1.41996 1.42272 1.41996 1.41719 1.41719 1.41443 1.41443 1.41168 1.41168 1.40894 1.40894
          1.40622 1.40622 1.40353 1.40353 1.40089 1.40089 1.39831 1.39831 1.39579 1.39579 1.39332 1.39332
          1.3909 1.3909 1.38851 1.38851 1.38612 1.38612 1.38373 1.38373 1.38131 1.38131 1.37885 1.37885
          1.37633 1.37633 1.37377 1.37377 1.37116 1.37116 1.36849 1.36849 1.36579 1.36579 1.36305 1.36305
          1.36028 1.36028 1.35749 1.35749 1.35468 1.35468 1.35187 1.35187 1.34904 1.34904 1.3462 1.3462
          1.34336 1.34336 1.34052 1.34052 1.33768 1.33768 1.33484 1.33484 1.33199 1.33199 1.32915 1.32915
          1.3263 1.3263 1.32345 1.32345 1.32061 1.32061 1.31776 1.31776 1.31491 1.31491 1.31207 1.31207
          1.30922 1.30922 1.30638 1.30638 1.30353 1.30353 1.30068 1.30068 1.29784 1.29784 1.29499 1.29499
          1.29214 1.29214 1.2893 1.2893 1.28645 1.28645 1.2836 1.2836 1.28076 1.28076 1.27791 1.27791
          1.27507 1.27507 1.27222 1.27222 1.26937 1.26937 1.26653 1.26653 1.26368 1.26368 1.26083 1.26083
          1.25799 1.25799 1.25514 1.25514 1.25229 1.25229 1.24945 1.24945 1.2466 1.2466 1.24376 1.24376
          1.24091 1.24091 1.23806 1.23806 1.23522 1.23522 1.23237 1.23237 1.22952 1.22952 1.22668 1.22668
          1.22383 1.22383 1.22098 1.22098 1.21814 1.21814 1.21529 1.21529 1.21245 1.21245 1.2096 1.2096
          1.20675 1.20675 1.20391 1.20391 1.20106 1.20106
        </DataArray>
        <DataArray type="Float32" Name="porosity" NumberOfComponents="1" format="ascii">
          0.4 0.4 0.4 0.4 0.4 0.4 0.4 0.4 0.4 0.4 0.4 0.4
          0.4 0.4 0.4 0.4 0.4 0.4 0.4 0.4 0.4 0.4 0.4 0.4
          0.4 0.4 0.4 0.4 0.4 0.4 0.4 0.4 0.4 0.4 0.4 0.4
          0.4 0.4 0.4 0.4 0.4 0.4 0.4 0.4 0.4 0.4 0.4 0.4
          0.4 0.4 0.4 0.4 0.4 0.4 0.4 0.4 0.4 0.4 0.4 0.4
          0.4 0.4 0.4 0.4 0.4 0.4 0.4 0.4 0.4 0.4 0.4 0.4
          0.4 0.4 0.4 0.4 0.4 0.4 0.4 0.4 0.4 0.4 0.4 0.4
          0.4 0.4 0.4 0.4 0.4 0.4 0.4 0.4 0.4 0.4 0.4 0.4
          0.4 0.4 0.4 0.4 0.4 0.4 0.4 0.4 0.4 0.4 0.4 0.4
          0.4 0.4 0.4 0.4 0.4 0.4 0.4 0.4 0.4 0.4 0.4 0.4
          0.4 0.4 0.4 0.4 0.4 0.4 0.4 0.4 0.4 0.4 0.4 0.4
          0.4 0.4 0.4 0.4 0.4 0.4 0.4 0.4 0.4 0.4 0.4 0.4
          0.4 0.4 0.4 0.4 0.4 0.4 0.4 0.4 0.4 0.4 0.4 0.4
          0.4 0.4 0.4 0.4 0.4 0.4
        </DataArray>
        <DataArray type="Float32" Name="permeability" NumberOfComponents="1" format="ascii">
          1e-10 1e-10 1e-10 1e-10 1e-10 1e-10 1e-10 1e-10 1e-10 1e-10 1e-10 1e-10
          1e-10 1e-10 1e-10 1e-10 1e-10 1e-10 1e-10 1e-10 1e-10 1e-10 1e-10 1e-10
          1e-10 1e-10 1e-10 1e-10 1e-10 1e-10 1e-10 1e-10 1e-10 1e-10 1e-10 1e-10
          1e-10 1e-10 1e-10 1e-10 1e-10 1e-10 1e-10 1e-10 1e-10 1e-10 1e-10 1e-10
          1e-10 1e-10 1e-10 1e-10 1e-10 1e-10 1e-10 1e-10 1e-10 1e-10 1e-10 1e-10
          1e-10 1e-10 1e-10 1e-10 1e-10 1e-10 1e-10 1e-10 1e-10 1e-10 1e-10 1e-10
          1e-10 1e-10 1e-10 1e-10 1e-10 1e-10 1e-10 1e-10 1e-10 1e-10 1e-10 1e-10
          1e-10 1e-10 1e-10 1e-10 1e-10 1e-10 1e-10 1e-10 1e-10 1e-10 1e-10 1e-10
          1e-10 1e-10 1e-10 1e-10 1e-10 1e-10 1e-10 1e-10 1e-10 1e-10 1e-10 1e-10
          1e-10 1e-10 1e-10 1e-10 1e-10 1e-10 1e-10 1e-10 1e-10 1e-10 1e-10 1e-10
          1e-10 1e-10 1e-10 1e-10 1e-10 1e-10 1e-10 1e-10 1e-10 1e-10 1e-10 1e-10
          1e-10 1e-10 1e-10 1e-10 1e-10 1e-10 1e-10 1e-10 1e-10 1e-10 1e-10 1e-10
          1e-10 1e-10 1e-10 1e-10 1e-10 1e-10 1e-10 1e-10 1e-10 1e-10 1e-10 1e-10
          1e-10 1e-10 1e-10 1e-10 1e-10 1e-10
        </DataArray>
        <DataArray type="Float32" Name="temperature" NumberOfComponents="1" format="ascii">
          291 291 291 291 291 291 290.999 290.999 290.998 290.998 290.993 290.993
          290.985 290.985 290.968 290.968 290.942 290.942 290.904 290.904 290.852 290.852 290.788 290.788
          290.713 290.713 290.631 290.631 290.545 290.545 290.46 290.46 290.379 290.379 290.305 290.305
          290.24 290.24 290.184 290.184 290.139 290.139 290.102 290.102 290.074 290.074 290.053 290.053
          290.037 290.037 290.025 290.025 290.017 290.017 290.012 290.012 290.008 290.008 290.005 290.005
          290.004 290.004 290.003 290.003 290.002 290.002 290.002 290.002 290.001 290.001 290.001 290.001
          290.001 290.001 290.001 290.001 290.001 290.001 290.001 290.001 290.001 290.001 290.001 290.001
          290.001 290.001 290.001 290.001 290.001 290.001 290.001 290.001 290.001 290.001 290.001 290.001
          290.001 290.001 290.001 290.001 290.001 290.001 290.001 290.001 290.001 290.001 290.001 290.001
          290.001 290.001 290.001 290.001 290.001 290.001 290.001 290.001 290.001 290.001 290.001 290.001
          290.001 290.001 290.001 290.001 290.001 290.001 290.001 290.001 290.001 290.001 290.001 290.001
          290.001 290.001 290.001 290.001 290.001 290.001 290.001 290.001 290.001 290.001 290.001 290.001
          290.001 290.001 290.001 290.001 290.001 290.001 290.001 290.001 290.001 290.001 290.001 290.001
          290.001 290.001 290.001 290.001 290 290
        </DataArray>
        <DataArray type="Float32" Name="velocityW" NumberOfComponents="3" format="ascii">
          8.73521e-05 1.37676e-18 0 8.73521e-05 3.44191e-19 0 8.73521e-05 1.37676e-18 0 8.73521e-05 3.44191e-19 0
          8.73521e-05 -1.20467e-18 0 8.73521e-05 -1.20467e-18 0 8.73521e-05 -5.16279e-19 0 8.73521e-05 -5.16279e-19 0
          8.73521e-05 -1.72086e-19 0 8.73521e-05 -1.72086e-19 0 8.73521e-05 -1.03241e-18 0 8.73521e-05 -1.03241e-18 0
          8.73521e-05 -3.44064e-19 0 8.73521e-05 -3.44064e-19 0 8.7352e-05 -1.71966e-19 0 8.7352e-05 -1.71966e-19 0
          8.73518e-05 8.59295e-19 0 8.73518e-05 8.59295e-19 0 8.73516e-05 0 0 8.73516e-05 0 0
          8.73512e-05 1.02896e-18 0 8.73512e-05 1.02896e-18 0 8.73508e-05 1.36968e-18 0 8.73508e-05 1.36968e-18 0
          8.73504e-05 1.19602e-18 0 8.73504e-05 1.19602e-18 0 8.73499e-05 1.36382e-18 0 8.73499e-05 1.36382e-18 0
          8.73494e-05 1.02048e-18 0 8.73494e-05 1.02048e-18 0 8.73489e-05 1.3575e-18 0 8.73489e-05 1.3575e-18 0
          8.73484e-05 1.35452e-18 0 8.73484e-05 1.35452e-18 0 8.73479e-05 1.35182e-18 0 8.73479e-05 1.35182e-18 0
          8.73475e-05 1.34945e-18 0 8.73475e-05 1.34945e-18 0 8.73471e-05 5.05291e-19 0 8.73471e-05 5.05291e-19 0
          8.73468e-05 1.68225e-18 0 8.73468e-05 1.68225e-18 0 8.73466e-05 8.40303e-19 0 8.73466e-05 8.40303e-19 0
          8.73464e-05 8.39667e-19 0 8.73464e-05 8.39667e-19 0 8.73463e-05 -1.17486e-18 0 8.73463e-05 -1.17486e-18 0
          8.73462e-05 -6.71064e-19 0 8.73462e-05 -6.71064e-19 0 8.73461e-05 -1.67715e-19 0 8.73461e-05 -1.67715e-19 0
          8.73461e-05 -1.00607e-18 0 8.73461e-05 -1.00607e-18 0 8.7346e-05 3.35307e-19 0 8.7346e-05 3.35307e-19 0
          8.7346e-05 -1.67637e-19 0 8.7346e-05 -1.67637e-19 0 8.7346e-05 0 0 8.7346e-05 0 0
          8.7346e-05 3.35236e-19 0 8.7346e-05 3.35236e-19 0 8.7346e-05 1.17329e-18 0 8.7346e-05 1.17329e-18 0
          8.7346e-05 -1.6761e-18 0 8.7346e-05 -1.6761e-18 0 8.7346e-05 5.02824e-19 0 8.7346e-05 5.02824e-19 0
          8.7346e-05 0 0 8.7346e-05 0 0 8.7346e-05 3.35212e-19 0 8.7346e-05 3.35212e-19 0
          8.7346e-05 1.67606e-19 0 8.7346e-05 1.67606e-19 0 8.7346e-05 -1.67605e-19 0 8.7346e-05 -1.67605e-19 0
          8.73461e-05 -1.67605e-19 0 8.73461e-05 -1.67605e-19 0 8.73461e-05 -2.51408e-18 0 8.73461e-05 -2.51408e-18 0
          8.73461e-05 0 0 8.73461e-05 0 0 8.73461e-05 8.38025e-19 0 8.73461e-05 8.38025e-19 0
          8.73461e-05 -1.50844e-18 0 8.73461e-05 -1.50844e-18 0 8.73461e-05 -8.38024e-19 0 8.73461e-05 -8.38024e-19 0
          8.73461e-05 -1.67605e-19 0 8.73461e-05 -1.67605e-19 0 8.73461e-05 -2.84928e-18 0 8.73461e-05 -2.84928e-18 0
          8.73461e-05 6.70419e-19 0 8.73461e-05 6.70419e-19 0 8.73461e-05 -2.01126e-18 0 8.73461e-05 -2.01126e-18 0
          8.73461e-05 -3.35209e-19 0 8.73461e-05 -3.35209e-19 0 8.73462e-05 -1.67605e-19 0 8.73462e-05 -1.67605e-19 0
          8.73462e-05 1.00563e-18 0 8.73462e-05 1.00563e-18 0 8.73462e-05 3.35209e-19 0 8.73462e-05 3.35209e-19 0
          8.73462e-05 2.34646e-18 0 8.73462e-05 2.34646e-18 0 8.73462e-05 2.01125e-18 0 8.73462e-05 2.01125e-18 0
          8.73462e-05 1.00563e-18 0 8.73462e-05 1.00563e-18 0 8.73462e-05 3.35209e-19 0 8.73462e-05 3.35209e-19 0
          8.73462e-05 2.51407e-18 0 8.73462e-05 2.51407e-18 0 8.73462e-05 -1.67604e-19 0 8.73462e-05 -1.67604e-19 0
          8.73462e-05 -3.35209e-19 0 8.73462e-05 -3.35209e-19 0 8.73463e-05 -6.70418e-19 0 8.73463e-05 -6.70418e-19 0
          8.73463e-05 -3.51969e-18 0 8.73463e-05 -3.51969e-18 0 8.73463e-05 -1.00563e-18 0 8.73463e-05 -1.00563e-18 0
          8.73463e-05 0 0 8.73463e-05 0 0 8.73463e-05 -2.51407e-18 0 8.73463e-05 -2.51407e-18 0
          8.73463e-05 -1.67604e-18 0 8.73463e-05 -1.67604e-18 0 8.73463e-05 -1.84365e-18 0 8.73463e-05 -1.84365e-18 0
          8.73463e-05 2.17886e-18 0 8.73463e-05 2.17886e-18 0 8.73463e-05 1.34083e-18 0 8.73463e-05 1.34083e-18 0
          8.73464e-05 1.17323e-18 0 8.73464e-05 1.17323e-18 0 8.73464e-05 8.38021e-19 0 8.73464e-05 8.38021e-19 0
          8.73464e-05 -3.35208e-19 0 8.73464e-05 -3.35208e-19 0 8.73464e-05 -5.02812e-19 0 8.73464e-05 -5.02812e-19 0
          8.73464e-05 -3.35208e-19 0 8.73464e-05 -3.35208e-19 0 8.73464e-05 -1.17323e-18 0 8.73464e-05 -1.17323e-18 0
          8.73464e-05 1.34083e-18 0 8.73464e-05 1.34083e-18 0 8.73464e-05 0 0 8.73464e-05 0 0
          8.73464e-05 1.67604e-19 0 8.73464e-05 1.67604e-19 0 8.73464e-05 0 0 8.73464e-05 0 0
          8.73465e-05 1.67604e-19 0 8.73465e-05 1.67604e-19 0 8.73465e-05 -1.34083e-18 0 8.73465e-05 -1.34083e-18 0
          8.73465e-05 -1.3408e-18 0 8.73465e-05 -1.3408e-18 0
        </DataArray>
        <DataArray type="Float32" Name="velocityN" NumberOfComponents="3" format="ascii">
          0 0 0 0 0 0 0 0 0 0 0 0
          0 0 0 0 0 0 0 0 0 0 0 0
          0 0 0 0 0 0 0 0 0 0 0 0
          0 0 0 0 0 0 0 0 0 0 0 0
          0 0 0 0 0 0 0 0 0 0 0 0
          0 0 0 0 0 0 0 0 0 0 0 0
          0 0 0 0 0 0 0 0 0 0 0 0
          0 0 0 0 0 0 0 0 0 0 0 0
          0 0 0 0 0 0 0 0 0 0 0 0
          0 0 0 0 0 0 0 0 0 0 0 0
          0 0 0 0 0 0 0 0 0 0 0 0
          0 0 0 0 0 0 0 0 0 0 0 0
          0 0 0 0 0 0 0 0 0 0 0 0
          0 0 0 0 0 0 0 0 0 0 0 0
          0 0 0 0 0 0 0 0 0 0 0 0
          0 0 0 0 0 0 0 0 0 0 0 0
          0 0 0 0 0 0 0 0 0 0 0 0
          0 0 0 0 0 0 0 0 0 0 0 0
          0 0 0 0 0 0 0 0 0 0 0 0
          0 0 0 0 0 0 0 0 0 0 0 0
          0 0 0 0 0 0 0 0 0 0 0 0
          0 0 0 0 0 0 0 0 0 0 0 0
          0 0 0 0 0 0 0 0 0 0 0 0
          0 0 0 0 0 0 0 0 0 0 0 0
          0 0 0 0 0 0 0 0 0 0 0 0
          0 0 0 0 0 0 0 0 0 0 0 0
          0 0 0 0 0 0 0 0 0 0 0 0
          0 0 0 0 0 0 0 0 0 0 0 0
          0 0 0 0 0 0 0 0 0 0 0 0
          0 0 0 0 0 0 0 0 0 0 0 0
          0 0 0 0 0 0 0 0 0 0 0 0
          0 0 0 0 0 0 0 0 0 0 0 0
          0 0 0 0 0 0 0 0 0 0 0 0
          0 0 0 0 0 0 0 0 0 0 0 0
          0 0 0 0 0 0 0 0 0 0 0 0
          0 0 0 0 0 0 0 0 0 0 0 0
          0 0 0 0 0 0 0 0 0 0 0 0
          0 0 0 0 0 0 0 0 0 0 0 0
          0 0 0 0 0 0 0 0 0 0 0 0
          0 0 0 0 0 0 0 0 0 0 0 0
          0 0 0 0 0 0
        </DataArray>
        <DataArray type="Float32" Name="velocityG" NumberOfComponents="3" format="ascii">
          0 0 0 0 0 0 0 0 0 0 0 0
          0 0 0 0 0 0 0 0 0 0 0 0
          0 0 0 0 0 0 0 0 0 0 0 0
          0 0 0 0 0 0 0 0 0 0 0 0
          0 0 0 0 0 0 0 0 0 0 0 0
          0 0 0 0 0 0 0 0 0 0 0 0
          0 0 0 0 0 0 0 0 0 0 0 0
          0 0 0 0 0 0 0 0 0 0 0 0
          0 0 0 0 0 0 0 0 0 0 0 0
          0 0 0 0 0 0 0 0 0 0 0 0
          0 0 0 0 0 0 0 0 0 0 0 0
          0 0 0 0 0 0 0 0 0 0 0 0
          0 0 0 0 0 0 0 0 0 0 0 0
          0 0 0 0 0 0 0 0 0 0 0 0
          0 0 0 0 0 0 0 0 0 0 0 0
          0 0 0 0 0 0 0 0 0 0 0 0
          0 0 0 0 0 0 0 0 0 0 0 0
          0 0 0 0 0 0 0 0 0 0 0 0
          0 0 0 0 0 0 0 0 0 0 0 0
          0 0 0 0 0 0 0 0 0 0 0 0
          0 0 0 0 0 0 0 0 0 0 0 0
          0 0 0 0 0 0 0 0 0 0 0 0
          0 0 0 0 0 0 0 0 0 0 0 0
          0 0 0 0 0 0 0 0 0 0 0 0
          0 0 0 0 0 0 0 0 0 0 0 0
          0 0 0 0 0 0 0 0 0 0 0 0
          0 0 0 0 0 0 0 0 0 0 0 0
          0 0 0 0 0 0 0 0 0 0 0 0
          0 0 0 0 0 0 0 0 0 0 0 0
          0 0 0 0 0 0 0 0 0 0 0 0
          0 0 0 0 0 0 0 0 0 0 0 0
          0 0 0 0 0 0 0 0 0 0 0 0
          0 0 0 0 0 0 0 0 0 0 0 0
          0 0 0 0 0 0 0 0 0 0 0 0
          0 0 0 0 0 0 0 0 0 0 0 0
          0 0 0 0 0 0 0 0 0 0 0 0
          0 0 0 0 0 0 0 0 0 0 0 0
          0 0 0 0 0 0 0 0 0 0 0 0
          0 0 0 0 0 0 0 0 0 0 0 0
          0 0 0 0 0 0 0 0 0 0 0 0
          0 0 0 0 0 0
        </DataArray>
        <DataArray type="Float32" Name="temperatureExact" NumberOfComponents="1" format="ascii">
          291 291 291 291 291 291 291 291 291 291 291 291
          291 291 291 291 291 291 291 291 291 291 291 291
          291 291 291 291 291 291 291 291 290 290 290 290
          290 290 290 290 290 290 290 290 290 290 290 290
          290 290 290 290 290 290 290 290 290 290 290 290
          290 290 290 290 290 290 290 290 290 290 290 290
          290 290 290 290 290 290 290 290 290 290 290 290
          290 290 290 290 290 290 290 290 290 290 290 290
          290 290 290 290 290 290 290 290 290 290 290 290
          290 290 290 290 290 290 290 290 290 290 290 290
          290 290 290 290 290 290 290 290 290 290 290 290
          290 290 290 290 290 290 290 290 290 290 290 290
          290 290 290 290 290 290 290 290 290 290 290 290
          290 290 290 290 290 290
        </DataArray>
      </PointData>
      <CellData Scalars="process rank">
        <DataArray type="Float32" Name="process rank" NumberOfComponents="1" format="ascii">
          0 0 0 0 0 0 0 0 0 0 0 0
          0 0 0 0 0 0 0 0 0 0 0 0
          0 0 0 0 0 0 0 0 0 0 0 0
          0 0 0 0 0 0 0 0 0 0 0 0
          0 0 0 0 0 0 0 0 0 0 0 0
          0 0 0 0 0 0 0 0 0 0 0 0
          0 0 0 0 0 0 0 0
        </DataArray>
      </CellData>
      <Points>
        <DataArray type="Float32" Name="Coordinates" NumberOfComponents="3" format="ascii">
          0 0 0 0.25 0 0 0 1 0 0.25 1 0
          0.5 0 0 0.5 1 0 0.75 0 0 0.75 1 0
          1 0 0 1 1 0 1.25 0 0 1.25 1 0
          1.5 0 0 1.5 1 0 1.75 0 0 1.75 1 0
          2 0 0 2 1 0 2.25 0 0 2.25 1 0
          2.5 0 0 2.5 1 0 2.75 0 0 2.75 1 0
          3 0 0 3 1 0 3.25 0 0 3.25 1 0
          3.5 0 0 3.5 1 0 3.75 0 0 3.75 1 0
          4 0 0 4 1 0 4.25 0 0 4.25 1 0
          4.5 0 0 4.5 1 0 4.75 0 0 4.75 1 0
          5 0 0 5 1 0 5.25 0 0 5.25 1 0
          5.5 0 0 5.5 1 0 5.75 0 0 5.75 1 0
          6 0 0 6 1 0 6.25 0 0 6.25 1 0
          6.5 0 0 6.5 1 0 6.75 0 0 6.75 1 0
          7 0 0 7 1 0 7.25 0 0 7.25 1 0
          7.5 0 0 7.5 1 0 7.75 0 0 7.75 1 0
          8 0 0 8 1 0 8.25 0 0 8.25 1 0
          8.5 0 0 8.5 1 0 8.75 0 0 8.75 1 0
          9 0 0 9 1 0 9.25 0 0 9.25 1 0
          9.5 0 0 9.5 1 0 9.75 0 0 9.75 1 0
          10 0 0 10 1 0 10.25 0 0 10.25 1 0
          10.5 0 0 10.5 1 0 10.75 0 0 10.75 1 0
          11 0 0 11 1 0 11.25 0 0 11.25 1 0
          11.5 0 0 11.5 1 0 11.75 0 0 11.75 1 0
          12 0 0 12 1 0 12.25 0 0 12.25 1 0
          12.5 0 0 12.5 1 0 12.75 0 0 12.75 1 0
          13 0 0 13 1 0 13.25 0 0 13.25 1 0
          13.5 0 0 13.5 1 0 13.75 0 0 13.75 1 0
          14 0 0 14 1 0 14.25 0 0 14.25 1 0
          14.5 0 0 14.5 1 0 14.75 0 0 14.75 1 0
          15 0 0 15 1 0 15.25 0 0 15.25 1 0
          15.5 0 0 15.5 1 0 15.75 0 0 15.75 1 0
          16 0 0 16 1 0 16.25 0 0 16.25 1 0
          16.5 0 0 16.5 1 0 16.75 0 0 16.75 1 0
          17 0 0 17 1 0 17.25 0 0 17.25 1 0
          17.5 0 0 17.5 1 0 17.75 0 0 17.75 1 0
          18 0 0 18 1 0 18.25 0 0 18.25 1 0
          18.5 0 0 18.5 1 0 18.75 0 0 18.75 1 0
          19 0 0 19 1 0 19.25 0 0 19.25 1 0
          19.5 0 0 19.5 1 0 19.75 0 0 19.75 1 0
          20 0 0 20 1 0
        </DataArray>
      </Points>
      <Cells>
        <DataArray type="Int32" Name="connectivity" NumberOfComponents="1" format="ascii">
          0 1 3 2 1 4 5 3 4 6 7 5
          6 8 9 7 8 10 11 9 10 12 13 11
          12 14 15 13 14 16 17 15 16 18 19 17
          18 20 21 19 20 22 23 21 22 24 25 23
          24 26 27 25 26 28 29 27 28 30 31 29
          30 32 33 31 32 34 35 33 34 36 37 35
          36 38 39 37 38 40 41 39 40 42 43 41
          42 44 45 43 44 46 47 45 46 48 49 47
          48 50 51 49 50 52 53 51 52 54 55 53
          54 56 57 55 56 58 59 57 58 60 61 59
          60 62 63 61 62 64 65 63 64 66 67 65
          66 68 69 67 68 70 71 69 70 72 73 71
          72 74 75 73 74 76 77 75 76 78 79 77
          78 80 81 79 80 82 83 81 82 84 85 83
          84 86 87 85 86 88 89 87 88 90 91 89
          90 92 93 91 92 94 95 93 94 96 97 95
          96 98 99 97 98 100 101 99 100 102 103 101
          102 104 105 103 104 106 107 105 106 108 109 107
          108 110 111 109 110 112 113 111 112 114 115 113
          114 116 117 115 116 118 119 117 118 120 121 119
          120 122 123 121 122 124 125 123 124 126 127 125
          126 128 129 127 128 130 131 129 130 132 133 131
          132 134 135 133 134 136 137 135 136 138 139 137
          138 140 141 139 140 142 143 141 142 144 145 143
          144 146 147 145 146 148 149 147 148 150 151 149
          150 152 153 151 152 154 155 153 154 156 157 155
          156 158 159 157 158 160 161 159
        </DataArray>
        <DataArray type="Int32" Name="offsets" NumberOfComponents="1" format="ascii">
          4 8 12 16 20 24 28 32 36 40 44 48
          52 56 60 64 68 72 76 80 84 88 92 96
          100 104 108 112 116 120 124 128 132 136 140 144
          148 152 156 160 164 168 172 176 180 184 188 192
          196 200 204 208 212 216 220 224 228 232 236 240
          244 248 252 256 260 264 268 272 276 280 284 288
          292 296 300 304 308 312 316 320
        </DataArray>
        <DataArray type="UInt8" Name="types" NumberOfComponents="1" format="ascii">
          9 9 9 9 9 9 9 9 9 9 9 9
          9 9 9 9 9 9 9 9 9 9 9 9