<?xml version="1.0"?>
<VTKFile type="UnstructuredGrid" version="0.1" byte_order="LittleEndian">
  <UnstructuredGrid>
    <Piece NumberOfCells="2400" NumberOfPoints="2501">
      <PointData Scalars="S_w">
        <DataArray type="Float32" Name="S_w" NumberOfComponents="1" format="ascii">
          0.700458 0.700477 0.700435 0.700461 0.700524 0.700521 0.700579 0.700583 0.700626 0.700633 0.700662 0.700668
          0.700686 0.700691 0.700699 0.700703 0.700705 0.700708 0.700705 0.700707 0.7007 0.700702 0.700691 0.700693
          0.70068 0.700681 0.700667 0.700668 0.700652 0.700653 0.700637 0.700637 0.70062 0.700621 0.700604 0.700604
          0.700587 0.700587 0.700569 0.70057 0.700552 0.700552 0.700535 0.700535 0.700518 0.700518 0.700501 0.700501
          0.700484 0.700484 0.700467 0.700467 0.700451 0.700451 0.700434 0.700434 0.700418 0.700418 0.700403 0.700403
          0.700387 0.700387 0.700372 0.700372 0.700357 0.700357 0.700342 0.700342 0.700327 0.700327 0.700313 0.700313
          0.700298 0.700298 0.700284 0.700284 0.70027 0.70027 0.700257 0.700257 0.700243 0.700243 0.70023 0.70023
          0.700217 0.700217 0.700204 0.700204 0.700191 0.700191 0.700179 0.700179 0.700166 0.700166 0.700154 0.700154
          0.700142 0.700142 0.70013 0.70013 0.700117 0.700117 0.700105 0.700105 0.700094 0.700094 0.700082 0.700082
          0.70007 0.70007 0.700059 0.700059 0.700047 0.700047 0.700036 0.700036 0.700024 0.700024 0.700014 0.700013
          0.700009 0.7 0.700341 0.70041 0.700526 0.700603 0.700653 0.700686 0.700705 0.700715 0.700717 0.700714
          0.700707 0.700696 0.700684 0.70067 0.700654 0.700638 0.700622 0.700605 0.700587 0.70057 0.700552 0.700535
          0.700518 0.700501 0.700484 0.700467 0.700451 0.700434 0.700418 0.700402 0.700387 0.700372 0.700356 0.700342
          0.700327 0.700312 0.700298 0.700284 0.70027 0.700257 0.700243 0.70023 0.700217 0.700204 0.700191 0.700179
          0.700166 0.700154 0.700142 0.700129 0.700117 0.700105 0.700094 0.700082 0.70007 0.700059 0.700047 0.700035
          0.700024 0.700012 0.7 0.699916 0.700413 0.700567 0.700646 0.700692 0.700717 0.70073 0.700734 0.700731
          0.700725 0.700715 0.700702 0.700688 0.700673 0.700657 0.70064 0.700623 0.700605 0.700588 0.70057 0.700553
          0.700535 0.700518 0.700501 0.700484 0.700467 0.70045 0.700434 0.700418 0.700402 0.700387 0.700371 0.700356
          0.700341 0.700327 0.700312 0.700298 0.700284 0.70027 0.700257 0.700243 0.70023 0.700217 0.700204 0.700191
          0.700179 0.700166 0.700154 0.700142 0.700129 0.700117 0.700105 0.700094 0.700082 0.70007 0.700058 0.700047
          0.700035 0.700024 0.700012 0.7 0.700504 0.700567 0.700666 0.70072 0.700748 0.70076 0.700762 0.700758
          0.70075 0.700738 0.700725 0.70071 0.700694 0.700677 0.70066 0.700642 0.700624 0.700606 0.700589 0.700571
          0.700553 0.700535 0.700518 0.700501 0.700484 0.700467 0.70045 0.700434 0.700418 0.700402 0.700387 0.700371
          0.700356 0.700341 0.700327 0.700312 0.700298 0.700284 0.70027 0.700257 0.700243 0.70023 0.700217 0.700204
          0.700191 0.700179 0.700166 0.700154 0.700141 0.700129 0.700117 0.700105 0.700094 0.700082 0.70007 0.700058
          0.700047 0.700035 0.700023 0.700012 0.7 0.700775 0.700785 0.700806 0.700818 0.700819 0.700812 0.7008
          0.700786 0.70077 0.700754 0.700736 0.700718 0.7007 0.700682 0.700663 0.700645 0.700626 0.700608 0.700589
          0.700571 0.700553 0.700535 0.700518 0.7005 0.700483 0.700467 0.70045 0.700434 0.700418 0.700402 0.700386
          0.700371 0.700356 0.700341 0.700326 0.700312 0.700298 0.700284 0.70027 0.700256 0.700243 0.70023 0.700217
          0.700204 0.700191 0.700178 0.700166 0.700154 0.700141 0.700129 0.700117 0.700105 0.700093 0.700082 0.70007
          0.700058 0.700047 0.700035 0.700023 0.700012 0.7 0.70101 0.700992 0.700961 0.700929 0.700897 0.700868
          0.700841 0.700816 0.700792 0.70077 0.700748 0.700727 0.700706 0.700686 0.700666 0.700647 0.700628 0.700609
          0.70059 0.700571 0.700553 0.700535 0.700518 0.7005 0.700483 0.700466 0.70045 0.700433 0.700417 0.700401
          0.700386 0.70037 0.700355 0.700341 0.700326 0.700312 0.700297 0.700284 0.70027 0.700256 0.700243 0.70023
          0.700217 0.700204 0.700191 0.700178 0.700166 0.700154 0.700141 0.700129 0.700117 0.700105 0.700093 0.700082
          0.70007 0.700058 0.700047 0.700035 0.700023 0.700012 0.7 0.701275 0.701201 0.701116 0.701037 0.700973
          0.700921 0.700879 0.700844 0.700813 0.700785 0.700759 0.700735 0.700712 0.700691 0.70067 0.700649 0.700629
          0.70061 0.70059 0.700572 0.700553 0.700535 0.700517 0.7005 0.700483 0.700466 0.700449 0.700433 0.700417
          0.700401 0.700385 0.70037 0.700355 0.70034 0.700326 0.700311 0.700297 0.700283 0.700269 0.700256 0.700243
          0.700229 0.700216 0.700203 0.700191 0.700178 0.700166 0.700153 0.700141 0.700129 0.700117 0.700105 0.700093
          0.700081 0.70007 0.700058 0.700046 0.700035 0.700023 0.700012 0.7 0.691155 0.70142 0.701255 0.701129
          0.701035 0.700965 0.700911 0.700867 0.70083 0.700797 0.700769 0.700742 0.700718 0.700694 0.700672 0.700651
          0.70063 0.70061 0.700591 0.700572 0.700553 0.700535 0.700517 0.700499 0.700482 0.700465 0.700448 0.700432
          0.700416 0.7004 0.700385 0.700369 0.700354 0.70034 0.700325 0.700311 0.700297 0.700283 0.700269 0.700256
          0.700242 0.700229 0.700216 0.700203 0.70019 0.700178 0.700166 0.700153 0.700141 0.700129 0.700117 0.700105
          0.700093 0.700081 0.70007 0.700058 0.700046 0.700035 0.700023 0.700012 0.7 0.371721 0.692415 0.701355
          0.701184 0.701072 0.700993 0.700932 0.700883 0.700842 0.700807 0.700776 0.700747 0.700721 0.700697 0.700674
          0.700652 0.700631 0.70061 0.70059 0.700571 0.700552 0.700534 0.700516 0.700498 0.700481 0.700464 0.700448
          0.700431 0.700415 0.7004 0.700384 0.700369 0.700354 0.700339 0.700325 0.70031 0.700296 0.700282 0.700269
          0.700255 0.700242 0.700229 0.700216 0.700203 0.70019 0.700178 0.700165 0.700153 0.700141 0.700129 0.700117
          0.700105 0.700093 0.700081 0.70007 0.700058 0.700046 0.700035 0.700023 0.700012 0.7 0.693239 0.701473
          0.701312 0.701183 0.701082 0.701004 0.700942 0.700891 0.700849 0.700812 0.70078 0.70075 0.700723 0.700698
          0.700674 0.700652 0.70063 0.70061 0.70059 0.70057 0.700552 0.700533 0.700515 0.700497 0.70048 0.700463
          0.700447 0.70043 0.700414 0.700399 0.700383 0.700368 0.700353 0.700338 0.700324 0.70031 0.700296 0.700282
          0.700268 0.700255 0.700242 0.700228 0.700215 0.700203 0.70019 0.700177 0.700165 0.700153 0.700141 0.700129
          0.700117 0.700105 0.700093 0.700081 0.700069 0.700058 0.700046 0.700035 0.700023 0.700012 0.7 0.701396
          0.701331 0.701241 0.701149 0.701067 0.700998 0.700941 0.700892 0.70085 0.700813 0.70078 0.700751 0.700723
          0.700698 0.700674 0.700651 0.70063 0.700609 0.700589 0.700569 0.70055 0.700532 0.700514 0.700496 0.700479
          0.700462 0.700446 0.700429 0.700413 0.700398 0.700382 0.700367 0.700352 0.700338 0.700323 0.700309 0.700295
          0.700281 0.700268 0.700254 0.700241 0.700228 0.700215 0.700202 0.70019 0.700177 0.700165 0.700153 0.70014
          0.700128 0.700116 0.700105 0.700093 0.700081 0.700069 0.700058 0.700046 0.700035 0.700023 0.700011 0.7
          0.70124 0.701216 0.701163 0.701101 0.701038 0.700981 0.70093 0.700886 0.700846 0.70081 0.700778 0.700749
          0.700722 0.700696 0.700672 0.70065 0.700628 0.700607 0.700587 0.700568 0.700549 0.70053 0.700512 0.700495
          0.700478 0.700461 0.700444 0.700428 0.700412 0.700397 0.700381 0.700366 0.700352 0.700337 0.700323 0.700308
          0.700294 0.700281 0.700267 0.700254 0.700241 0.700228 0.700215 0.700202 0.700189 0.700177 0.700164 0.700152
          0.70014 0.700128 0.700116 0.700104 0.700093 0.700081 0.700069 0.700058 0.700046 0.700034 0.700023 0.700011
          0.7 0.701137 0.701125 0.701093 0.70105 0.701003 0.700957 0.700914 0.700874 0.700837 0.700804 0.700773
          0.700745 0.700718 0.700693 0.70067 0.700647 0.700626 0.700605 0.700585 0.700566 0.700547 0.700529 0.700511
          0.700493 0.700476 0.700459 0.700443 0.700427 0.700411 0.700396 0.70038 0.700365 0.700351 0.700336 0.700322
          0.700308 0.700294 0.70028 0.700267 0.700253 0.70024 0.700227 0.700214 0.700202 0.700189 0.700177 0.700164
          0.700152 0.70014 0.700128 0.700116 0.700104 0.700092 0.700081 0.700069 0.700058 0.700046 0.700034 0.700023
          0.700011 0.7 0.701061 0.701054 0.701033 0.701002 0.700967 0.70093 0.700894 0.700859 0.700826 0.700795
          0.700766 0.700739 0.700713 0.700689 0.700666 0.700644 0.700622 0.700602 0.700582 0.700563 0.700545 0.700526
          0.700509 0.700491 0.700474 0.700458 0.700442 0.700426 0.70041 0.700394 0.700379 0.700364 0.70035 0.700335
          0.700321 0.700307 0.700293 0.700279 0.700266 0.700253 0.70024 0.700227 0.700214 0.700201 0.700189 0.700176
          0.700164 0.700152 0.70014 0.700128 0.700116 0.700104 0.700092 0.700081 0.700069 0.700057 0.700046 0.700034
          0.700023 0.700011 0.7 0.701001 0.700996 0.700981 0.700959 0.700932 0.700902 0.700871 0.700841 0.700812
          0.700783 0.700757 0.700731 0.700707 0.700683 0.700661 0.700639 0.700619 0.700599 0.700579 0.70056 0.700542
          0.700524 0.700506 0.700489 0.700473 0.700456 0.70044 0.700424 0.700408 0.700393 0.700378 0.700363 0.700349
          0.700334 0.70032 0.700306 0.700292 0.700279 0.700265 0.700252 0.700239 0.700226 0.700213 0.700201 0.700188
          0.700176 0.700164 0.700151 0.700139 0.700127 0.700116 0.700104 0.700092 0.70008 0.700069 0.700057 0.700046
          0.700034 0.700023 0.700011 0.7 0.700952 0.700948 0.700937 0.70092 0.700899 0.700874 0.700849 0.700823
          0.700796 0.700771 0.700746 0.700722 0.700699 0.700677 0.700655 0.700634 0.700614 0.700595 0.700576 0.700557
          0.700539 0.700521 0.700504 0.700487 0.70047 0.700454 0.700438 0.700422 0.700407 0.700392 0.700377 0.700362
          0.700348 0.700333 0.700319 0.700305 0.700292 0.700278 0.700265 0.700251 0.700238 0.700226 0.700213 0.7002
          0.700188 0.700175 0.700163 0.700151 0.700139 0.700127 0.700115 0.700104 0.700092 0.70008 0.700069 0.700057
          0.700046 0.700034 0.700023 0.700011 0.7 0.70091 0.700907 0.700899 0.700885 0.700868 0.700848 0.700826
          0.700804 0.700781 0.700757 0.700735 0.700712 0.700691 0.700669 0.700649 0.700629 0.700609 0.70059 0.700572
          0.700554 0.700536 0.700518 0.700501 0.700485 0.700468 0.700452 0.700436 0.700421 0.700405 0.70039 0.700375
          0.700361 0.700346 0.700332 0.700318 0.700304 0.700291 0.700277 0.700264 0.700251 0.700238 0.700225 0.700212
          0.7002 0.700187 0.700175 0.700163 0.700151 0.700139 0.700127 0.700115 0.700103 0.700092 0.70008 0.700069
          0.700057 0.700046 0.700034 0.700023 0.700011 0.7 0.700874 0.700872 0.700865 0.700854 0.70084 0.700823
          0.700805 0.700785 0.700765 0.700744 0.700723 0.700702 0.700682 0.700662 0.700642 0.700623 0.700604 0.700586
          0.700567 0.70055 0.700532 0.700515 0.700499 0.700482 0.700466 0.70045 0.700434 0.700419 0.700404 0.700389
          0.700374 0.70036 0.700345 0.700331 0.700317 0.700303 0.70029 0.700276 0.700263 0.70025 0.700237 0.700224
          0.700212 0.700199 0.700187 0.700175 0.700163 0.70015 0.700139 0.700127 0.700115 0.700103 0.700092 0.70008
          0.700068 0.700057 0.700046 0.700034 0.700023 0.700011 0.7 0.700843 0.700841 0.700835 0.700827 0.700815
          0.7008 0.700784 0.700767 0.700749 0.70073 0.700711 0.700692 0.700673 0.700654 0.700635 0.700617 0.700599
          0.700581 0.700563 0.700546 0.700529 0.700512 0.700496 0.700479 0.700464 0.700448 0.700432 0.700417 0.700402
          0.700387 0.700373 0.700358 0.700344 0.70033 0.700316 0.700302 0.700289 0.700276 0.700262 0.700249 0.700237
          0.700224 0.700211 0.700199 0.700186 0.700174 0.700162 0.70015 0.700138 0.700126 0.700115 0.700103 0.700091
          0.70008 0.700068 0.700057 0.700045 0.700034 0.700023 0.700011 0.7 0.700815 0.700814 0.700809 0.700802
          0.700792 0.700779 0.700765 0.70075 0.700734 0.700717 0.700699 0.700681 0.700664 0.700646 0.700628 0.70061
          0.700593 0.700576 0.700559 0.700542 0.700525 0.700509 0.700493 0.700477 0.700461 0.700446 0.70043 0.700415
          0.7004 0.700386 0.700371 0.700357 0.700343 0.700329 0.700315 0.700302 0.700288 0.700275 0.700262 0.700249
          0.700236 0.700223 0.700211 0.700198 0.700186 0.700174 0.700162 0.70015 0.700138 0.700126 0.700114 0.700103
          0.700091 0.70008 0.700068 0.700057 0.700045 0.700034 0.700023 0.700011 0.7 0.700791 0.70079 0.700786
          0.700779 0.700771 0.70076 0.700748 0.700734 0.700719 0.700704 0.700688 0.700671 0.700654 0.700638 0.700621
          0.700604 0.700587 0.70057 0.700554 0.700538 0.700521 0.700505 0.70049 0.700474 0.700458 0.700443 0.700428
          0.700413 0.700399 0.700384 0.70037 0.700356 0.700342 0.700328 0.700314 0.700301 0.700287 0.700274 0.700261
          0.700248 0.700235 0.700223 0.70021 0.700198 0.700186 0.700173 0.700161 0.700149 0.700138 0.700126 0.700114
          0.700103 0.700091 0.70008 0.700068 0.700057 0.700045 0.700034 0.700023 0.700011 0.7 0.70077 0.700768
          0.700765 0.700759 0.700752 0.700742 0.700731 0.700719 0.700706 0.700691 0.700676 0.700661 0.700645 0.70063
          0.700614 0.700597 0.700581 0.700565 0.700549 0.700533 0.700518 0.700502 0.700487 0.700471 0.700456 0.700441
          0.700426 0.700411 0.700397 0.700382 0.700368 0.700354 0.70034 0.700327 0.700313 0.7003 0.700286 0.700273
          0.70026 0.700247 0.700235 0.700222 0.70021 0.700197 0.700185 0.700173 0.700161 0.700149 0.700137 0.700126
          0.700114 0.700102 0.700091 0.700079 0.700068 0.700057 0.700045 0.700034 0.700023 0.700011 0.7 0.70075
          0.700749 0.700746 0.700741 0.700735 0.700726 0.700716 0.700705 0.700693 0.70068 0.700666 0.700652 0.700637
          0.700622 0.700607 0.700591 0.700576 0.70056 0.700545 0.700529 0.700514 0.700499 0.700484 0.700468 0.700453
          0.700439 0.700424 0.700409 0.700395 0.700381 0.700367 0.700353 0.700339 0.700325 0.700312 0.700299 0.700285
          0.700272 0.70026 0.700247 0.700234 0.700222 0.700209 0.700197 0.700185 0.700173 0.700161 0.700149 0.700137
          0.700125 0.700114 0.700102 0.700091 0.700079 0.700068 0.700056 0.700045 0.700034 0.700023 0.700011 0.7
          0.700733 0.700732 0.70073 0.700725 0.700719 0.700711 0.700703 0.700692 0.700681 0.700669 0.700656 0.700643
          0.700629 0.700615 0.7006 0.700585 0.70057 0.700555 0.70054 0.700525 0.70051 0.700495 0.700481 0.700466
          0.700451 0.700436 0.700422 0.700408 0.700393 0.700379 0.700365 0.700352 0.700338 0.700324 0.700311 0.700298
          0.700285 0.700272 0.700259 0.700246 0.700233 0.700221 0.700209 0.700196 0.700184 0.700172 0.70016 0.700148
          0.700137 0.700125 0.700113 0.700102 0.70009 0.700079 0.700068 0.700056 0.700045 0.700034 0.700022 0.700011
          0.7 0.700718 0.700718 0.700715 0.700711 0.700705 0.700698 0.70069 0.700681 0.70067 0.700659 0.700647
          0.700634 0.700621 0.700608 0.700594 0.70058 0.700565 0.700551 0.700536 0.700522 0.700507 0.700492 0.700478
          0.700463 0.700449 0.700434 0.70042 0.700406 0.700392 0.700378 0.700364 0.70035 0.700337 0.700323 0.70031
          0.700297 0.700284 0.700271 0.700258 0.700245 0.700233 0.70022 0.700208 0.700196 0.700184 0.700172 0.70016
          0.700148 0.700136 0.700125 0.700113 0.700102 0.70009 0.700079 0.700068 0.700056 0.700045 0.700034 0.700022
          0.700011 0.7 0.700705 0.700704 0.700702 0.700698 0.700693 0.700687 0.700679 0.70067 0.700661 0.70065
          0.700639 0.700627 0.700614 0.700601 0.700588 0.700574 0.70056 0.700546 0.700532 0.700518 0.700504 0.700489
          0.700475 0.700461 0.700446 0.700432 0.700418 0.700404 0.70039 0.700376 0.700363 0.700349 0.700336 0.700322
          0.700309 0.700296 0.700283 0.70027 0.700257 0.700245 0.700232 0.70022 0.700208 0.700195 0.700183 0.700171
          0.70016 0.700148 0.700136 0.700125 0.700113 0.700101 0.70009 0.700079 0.700067 0.700056 0.700045 0.700034
          0.700022 0.700011 0.7 0.700693 0.700693 0.700691 0.700687 0.700682 0.700676 0.700669 0.700661 0.700652
          0.700642 0.700631 0.70062 0.700608 0.700595 0.700583 0.700569 0.700556 0.700542 0.700528 0.700515 0.7005
          0.700486 0.700472 0.700458 0.700444 0.70043 0.700416 0.700402 0.700389 0.700375 0.700361 0.700348 0.700334
          0.700321 0.700308 0.700295 0.700282 0.700269 0.700257 0.700244 0.700232 0.700219 0.700207 0.700195 0.700183
          0.700171 0.700159 0.700148 0.700136 0.700124 0.700113 0.700101 0.70009 0.700079 0.700067 0.700056 0.700045
          0.700034 0.700022 0.700011 0.7 0.700683 0.700683 0.700681 0.700677 0.700673 0.700667 0.700661 0.700653
          0.700644 0.700635 0.700624 0.700614 0.700602 0.70059 0.700578 0.700565 0.700552 0.700539 0.700525 0.700511
          0.700498 0.700484 0.70047 0.700456 0.700442 0.700428 0.700415 0.700401 0.700387 0.700374 0.70036 0.700347
          0.700333 0.70032 0.700307 0.700294 0.700281 0.700269 0.700256 0.700244 0.700231 0.700219 0.700207 0.700195
          0.700183 0.700171 0.700159 0.700147 0.700136 0.700124 0.700113 0.700101 0.70009 0.700078 0.700067 0.700056
          0.700045 0.700033 0.700022 0.700011 0.7 0.700675 0.700674 0.700672 0.700669 0.700665 0.70066 0.700653
          0.700646 0.700638 0.700628 0.700619 0.700608 0.700597 0.700585 0.700573 0.700561 0.700548 0.700535 0.700522
          0.700509 0.700495 0.700482 0.700468 0.700454 0.70044 0.700427 0.700413 0.7004 0.700386 0.700372 0.700359
          0.700346 0.700333 0.700319 0.700306 0.700294 0.700281 0.700268 0.700256 0.700243 0.700231 0.700218 0.700206
          0.700194 0.700182 0.70017 0.700159 0.700147 0.700135 0.700124 0.700112 0.700101 0.70009 0.700078 0.700067
          0.700056 0.700045 0.700033 0.700022 0.700011 0.7 0.700667 0.700667 0.700665 0.700662 0.700658 0.700653
          0.700647 0.70064 0.700632 0.700623 0.700614 0.700603 0.700593 0.700581 0.70057 0.700558 0.700545 0.700532
          0.700519 0.700506 0.700493 0.700479 0.700466 0.700452 0.700439 0.700425 0.700412 0.700398 0.700385 0.700371
          0.700358 0.700345 0.700332 0.700319 0.700306 0.700293 0.70028 0.700267 0.700255 0.700243 0.70023 0.700218
          0.700206 0.700194 0.700182 0.70017 0.700158 0.700147 0.700135 0.700124 0.700112 0.700101 0.700089 0.700078
          0.700067 0.700056 0.700045 0.700033 0.700022 0.700011 0.7 0.700661 0.700661 0.700659 0.700656 0.700653
          0.700648 0.700642 0.700635 0.700627 0.700619 0.700609 0.7006 0.700589 0.700578 0.700567 0.700555 0.700542
          0.70053 0.700517 0.700504 0.700491 0.700478 0.700464 0.700451 0.700437 0.700424 0.700411 0.700397 0.700384
          0.70037 0.700357 0.700344 0.700331 0.700318 0.700305 0.700292 0.70028 0.700267 0.700254 0.700242 0.70023
          0.700218 0.700206 0.700194 0.700182 0.70017 0.700158 0.700146 0.700135 0.700123 0.700112 0.700101 0.700089
          0.700078 0.700067 0.700056 0.700044 0.700033 0.700022 0.700011 0.7 0.700657 0.700656 0.700655 0.700652
          0.700648 0.700643 0.700638 0.700631 0.700624 0.700615 0.700606 0.700596 0.700586 0.700575 0.700564 0.700552
          0.70054 0.700528 0.700515 0.700502 0.700489 0.700476 0.700463 0.70045 0.700436 0.700423 0.700409 0.700396
          0.700383 0.70037 0.700356 0.700343 0.70033 0.700317 0.700304 0.700292 0.700279 0.700266 0.700254 0.700242
          0.700229 0.700217 0.700205 0.700193 0.700181 0.70017 0.700158 0.700146 0.700135 0.700123 0.700112 0.7001
          0.700089 0.700078 0.700067 0.700056 0.700044 0.700033 0.700022 0.700011 0.7 0.700654 0.700653 0.700652
          0.700649 0.700645 0.70064 0.700635 0.700628 0.700621 0.700613 0.700604 0.700594 0.700584 0.700573 0.700562
          0.70055 0.700539 0.700526 0.700514 0.700501 0.700488 0.700475 0.700462 0.700449 0.700435 0.700422 0.700409
          0.700395 0.700382 0.700369 0.700356 0.700343 0.70033 0.700317 0.700304 0.700291 0.700279 0.700266 0.700254
          0.700241 0.700229 0.700217 0.700205 0.700193 0.700181 0.700169 0.700158 0.700146 0.700134 0.700123 0.700112
          0.7001 0.700089 0.700078 0.700067 0.700055 0.700044 0.700033 0.700022 0.700011 0.7 0.700652 0.700651
          0.70065 0.700647 0.700643 0.700639 0.700633 0.700626 0.700619 0.700611 0.700602 0.700593 0.700583 0.700572
          0.700561 0.700549 0.700537 0.700525 0.700513 0.7005 0.700487 0.700474 0.700461 0.700448 0.700435 0.700421
          0.700408 0.700395 0.700381 0.700368 0.700355 0.700342 0.700329 0.700316 0.700303 0.700291 0.700278 0.700266
          0.700253 0.700241 0.700229 0.700217 0.700205 0.700193 0.700181 0.700169 0.700157 0.700146 0.700134 0.700123
          0.700112 0.7001 0.700089 0.700078 0.700067 0.700055 0.700044 0.700033 0.700022 0.700011 0.7 0.700487
          0.700486 0.700485 0.700483 0.70048 0.700476 0.700472 0.700467 0.700461 0.700454 0.700447 0.70044 0.700432
          0.700423 0.700415 0.700406 0.700396 0.700387 0.700377 0.700367 0.700357 0.700347 0.700337 0.700327 0.700317
          0.700307 0.700297 0.700287 0.700277 0.700267 0.700257 0.700247 0.700238 0.700228 0.700218 0.700209 0.7002
          0.700191 0.700182 0.700173 0.700164 0.700155 0.700146 0.700137 0.700129 0.70012 0.700112 0.700104 0.700095
          0.700087 0.700079 0.700071 0.700063 0.700055 0.700047 0.700039 0.700031 0.700024 0.700016 0.700008 0.7
          0.700267 0.700267 0.700266 0.700265 0.700263 0.700261 0.700259 0.700256 0.700252 0.700248 0.700244 0.70024
          0.700235 0.70023 0.700225 0.70022 0.700215 0.700209 0.700204 0.700198 0.700192 0.700187 0.700181 0.700175
          0.700169 0.700164 0.700158 0.700152 0.700147 0.700141 0.700136 0.700131 0.700125 0.70012 0.700115 0.70011
          0.700105 0.7001 0.700095 0.70009 0.700085 0.700081 0.700076 0.700071 0.700067 0.700062 0.700058 0.700054
          0.700049 0.700045 0.700041 0.700037 0.700032 0.700028 0.700024 0.70002 0.700016 0.700012 0.700008 0.700004
          0.7 0.700138 0.700138 0.700138 0.700137 0.700136 0.700135 0.700133 0.700132 0.70013 0.700128 0.700126
          0.700123 0.700121 0.700118 0.700115 0.700113 0.70011 0.700107 0.700104 0.700101 0.700098 0.700095 0.700092
          0.700089 0.700085 0.700082 0.700079 0.700077 0.700074 0.700071 0.700068 0.700065 0.700062 0.70006 0.700057
          0.700054 0.700052 0.700049 0.700047 0.700044 0.700042 0.70004 0.700037 0.700035 0.700033 0.700031 0.700028
          0.700026 0.700024 0.700022 0.70002 0.700018 0.700016 0.700014 0.700012 0.70001 0.700008 0.700006 0.700004
          0.700002 0.7 0.700069 0.700069 0.700069 0.700068 0.700068 0.700067 0.700067 0.700066 0.700065 0.700064
          0.700063 0.700061 0.70006 0.700059 0.700057 0.700056 0.700054 0.700053 0.700051 0.70005 0.700048 0.700046
          0.700045 0.700043 0.700042 0.70004 0.700039 0.700037 0.700036 0.700034 0.700033 0.700031 0.70003 0.700029
          0.700027 0.700026 0.700025 0.700024 0.700022 0.700021 0.70002 0.700019 0.700018 0.700017 0.700016 0.700015
          0.700013 0.700012 0.700011 0.70001 0.700009 0.700008 0.700007 0.700007 0.700006 0.700005 0.700004 0.700003
          0.700002 0.700001 0.7 0.700037 0.700037 0.700037 0.700036 0.700036 0.700036 0.700035 0.700035 0.700034
          0.700034 0.700033 0.700032 0.700032 0.700031 0.70003 0.700029 0.700028 0.700028 0.700027 0.700026 0.700025
          0.700024 0.700023 0.700023 0.700022 0.700021 0.70002 0.700019 0.700018 0.700018 0.700017 0.700016 0.700015
          0.700015 0.700014 0.700013 0.700013 0.700012 0.700011 0.700011 0.70001 0.70001 0.700009 0.700008 0.700008
          0.700007 0.700007 0.700006 0.700006 0.700005 0.700005 0.700004 0.700004 0.700003 0.700003 0.700002 0.700002
          0.700001 0.700001 0.700001 0.7 0.700027 0.700027 0.700027 0.700027 0.700027 0.700027 0.700026 0.700026
          0.700025 0.700025 0.700025 0.700024 0.700024 0.700023 0.700022 0.700022 0.700021 0.70002 0.70002 0.700019
          0.700019 0.700018 0.700017 0.700017 0.700016 0.700015 0.700015 0.700014 0.700014 0.700013 0.700012 0.700012
          0.700011 0.700011 0.70001 0.70001 0.700009 0.700009 0.700008 0.700008 0.700007 0.700007 0.700007 0.700006
          0.700006 0.700005 0.700005 0.700005 0.700004 0.700004 0.700003 0.700003 0.700003 0.700002 0.700002 0.700002
          0.700001 0.700001 0.700001 0.7 0.7
        </DataArray>
        <DataArray type="Float32" Name="S_n" NumberOfComponents="1" format="ascii">
          0.299542 0.299523 0.299565 0.299539 0.299476 0.299479 0.299421 0.299417 0.299374 0.299367 0.299338 0.299332
          0.299314 0.299309 0.299301 0.299297 0.299295 0.299292 0.299295 0.299293 0.2993 0.299298 0.299309 0.299307
          0.29932 0.299319 0.299333 0.299332 0.299348 0.299347 0.299363 0.299363 0.299379 0.299379 0.299396 0.299396
          0.299413 0.299413 0.299431 0.29943 0.299448 0.299448 0.299465 0.299465 0.299482 0.299482 0.299499 0.299499
          0.299516 0.299516 0.299533 0.299533 0.299549 0.299549 0.299566 0.299566 0.299582 0.299582 0.299597 0.299597
          0.299613 0.299613 0.299628 0.299628 0.299643 0.299643 0.299658 0.299658 0.299673 0.299673 0.299687 0.299687
          0.299702 0.299702 0.299716 0.299716 0.299729 0.299729 0.299743 0.299743 0.299757 0.299757 0.29977 0.29977
          0.299783 0.299783 0.299796 0.299796 0.299809 0.299809 0.299821 0.299821 0.299834 0.299834 0.299846 0.299846
          0.299858 0.299858 0.299871 0.299871 0.299883 0.299883 0.299895 0.299894 0.299906 0.299906 0.299918 0.299918
          0.29993 0.29993 0.299941 0.299941 0.299953 0.299953 0.299964 0.299964 0.299976 0.299976 0.299986 0.299987
          0.299991 0.3 0.299659 0.29959 0.299474 0.299397 0.299347 0.299314 0.299295 0.299285 0.299283 0.299286
          0.299293 0.299304 0.299316 0.29933 0.299346 0.299362 0.299378 0.299395 0.299413 0.29943 0.299448 0.299465
          0.299482 0.299499 0.299516 0.299533 0.299549 0.299566 0.299582 0.299598 0.299613 0.299628 0.299644 0.299658
          0.299673 0.299688 0.299702 0.299716 0.29973 0.299743 0.299757 0.29977 0.299783 0.299796 0.299809 0.299821
          0.299834 0.299846 0.299858 0.299871 0.299883 0.299895 0.299906 0.299918 0.29993 0.299941 0.299953 0.299965
          0.299976 0.299988 0.3 0.300084 0.299587 0.299433 0.299354 0.299308 0.299283 0.29927 0.299266 0.299269
          0.299275 0.299285 0.299298 0.299312 0.299327 0.299343 0.29936 0.299377 0.299395 0.299412 0.29943 0.299447
          0.299465 0.299482 0.299499 0.299516 0.299533 0.299549 0.299566 0.299582 0.299598 0.299613 0.299629 0.299644
          0.299659 0.299673 0.299688 0.299702 0.299716 0.29973 0.299743 0.299757 0.29977 0.299783 0.299796 0.299809
          0.299821 0.299834 0.299846 0.299858 0.299871 0.299883 0.299895 0.299906 0.299918 0.29993 0.299942 0.299953
          0.299965 0.299976 0.299988 0.3 0.299496 0.299433 0.299334 0.29928 0.299252 0.29924 0.299238 0.299242
          0.299251 0.299262 0.299275 0.29929 0.299306 0.299323 0.29934 0.299358 0.299376 0.299394 0.299411 0.299429
          0.299447 0.299465 0.299482 0.299499 0.299516 0.299533 0.29955 0.299566 0.299582 0.299598 0.299613 0.299629
          0.299644 0.299659 0.299673 0.299688 0.299702 0.299716 0.29973 0.299743 0.299757 0.29977 0.299783 0.299796
          0.299809 0.299821 0.299834 0.299846 0.299858 0.299871 0.299883 0.299895 0.299906 0.299918 0.29993 0.299942
          0.299953 0.299965 0.299977 0.299988 0.3 0.299225 0.299215 0.299194 0.299182 0.299181 0.299188 0.2992
          0.299214 0.29923 0.299246 0.299264 0.299282 0.2993 0.299318 0.299337 0.299355 0.299374 0.299392 0.299411
          0.299429 0.299447 0.299465 0.299482 0.2995 0.299517 0.299533 0.29955 0.299566 0.299582 0.299598 0.299614
          0.299629 0.299644 0.299659 0.299674 0.299688 0.299702 0.299716 0.29973 0.299744 0.299757 0.29977 0.299783
          0.299796 0.299809 0.299822 0.299834 0.299846 0.299859 0.299871 0.299883 0.299895 0.299907 0.299918 0.29993
          0.299942 0.299953 0.299965 0.299977 0.299988 0.3 0.29899 0.299008 0.299039 0.299071 0.299103 0.299132
          0.299159 0.299184 0.299208 0.29923 0.299252 0.299273 0.299294 0.299314 0.299334 0.299353 0.299372 0.299391
          0.29941 0.299429 0.299447 0.299465 0.299482 0.2995 0.299517 0.299534 0.29955 0.299567 0.299583 0.299599
          0.299614 0.29963 0.299645 0.299659 0.299674 0.299688 0.299703 0.299717 0.29973 0.299744 0.299757 0.29977
          0.299783 0.299796 0.299809 0.299822 0.299834 0.299846 0.299859 0.299871 0.299883 0.299895 0.299907 0.299918
          0.29993 0.299942 0.299953 0.299965 0.299977 0.299988 0.3 0.298725 0.298799 0.298884 0.298963 0.299027
          0.299079 0.299121 0.299156 0.299187 0.299215 0.299241 0.299265 0.299288 0.299309 0.29933 0.299351 0.299371
          0.29939 0.29941 0.299428 0.299447 0.299465 0.299483 0.2995 0.299517 0.299534 0.299551 0.299567 0.299583
          0.299599 0.299615 0.29963 0.299645 0.29966 0.299674 0.299689 0.299703 0.299717 0.299731 0.299744 0.299757
          0.299771 0.299784 0.299797 0.299809 0.299822 0.299834 0.299847 0.299859 0.299871 0.299883 0.299895 0.299907
          0.299919 0.29993 0.299942 0.299954 0.299965 0.299977 0.299988 0.3 0.308845 0.29858 0.298745 0.298871
          0.298965 0.299035 0.299089 0.299133 0.29917 0.299203 0.299231 0.299258 0.299282 0.299306 0.299328 0.299349
          0.29937 0.29939 0.299409 0.299428 0.299447 0.299465 0.299483 0.299501 0.299518 0.299535 0.299552 0.299568
          0.299584 0.2996 0.299615 0.299631 0.299646 0.29966 0.299675 0.299689 0.299703 0.299717 0.299731 0.299744
          0.299758 0.299771 0.299784 0.299797 0.299809 0.299822 0.299834 0.299847 0.299859 0.299871 0.299883 0.299895
          0.299907 0.299919 0.29993 0.299942 0.299954 0.299965 0.299977 0.299988 0.3 0.261462 0.307585 0.298645
          0.298816 0.298928 0.299007 0.299068 0.299117 0.299158 0.299193 0.299224 0.299253 0.299279 0.299303 0.299326