<?xml version="1.0"?>
<VTKFile type="UnstructuredGrid" version="0.1" byte_order="LittleEndian">
  <UnstructuredGrid>
    <Piece NumberOfCells="2400" NumberOfPoints="2501">
      <PointData Scalars="S_aq">
        <DataArray type="Float32" Name="S_aq" NumberOfComponents="1" format="ascii">
          0.700844 0.700878 0.700804 0.700852 0.70096 0.700958 0.701052 0.701063 0.701129 0.701142 0.701182 0.701194
          0.701215 0.701224 0.701229 0.701237 0.701231 0.701236 0.701223 0.701227 0.701207 0.70121 0.701187 0.701189
          0.701163 0.701164 0.701136 0.701137 0.701108 0.701109 0.701079 0.70108 0.70105 0.70105 0.70102 0.70102
          0.70099 0.70099 0.70096 0.700961 0.700931 0.700931 0.700902 0.700902 0.700873 0.700873 0.700845 0.700845
          0.700817 0.700817 0.70079 0.70079 0.700763 0.700763 0.700736 0.700736 0.70071 0.70071 0.700684 0.700684
          0.700659 0.700659 0.700633 0.700633 0.700609 0.700609 0.700584 0.700584 0.70056 0.70056 0.700536 0.700536
          0.700513 0.700513 0.700489 0.700489 0.700466 0.700466 0.700444 0.700444 0.700421 0.700421 0.700399 0.700399
          0.700377 0.700377 0.700355 0.700355 0.700333 0.700333 0.700311 0.700311 0.70029 0.70029 0.700269 0.700269
          0.700248 0.700248 0.700227 0.700227 0.700206 0.700206 0.700185 0.700185 0.700164 0.700164 0.700144 0.700144
          0.700123 0.700123 0.700103 0.700103 0.700083 0.700083 0.700063 0.700063 0.700043 0.700043 0.700025 0.700023
          0.700016 0.7 0.700634 0.700765 0.700976 0.701105 0.701184 0.701229 0.701252 0.701258 0.701252 0.701239
          0.701219 0.701195 0.701169 0.701141 0.701112 0.701082 0.701051 0.701021 0.700991 0.700961 0.700931 0.700902
          0.700873 0.700845 0.700817 0.70079 0.700763 0.700736 0.70071 0.700684 0.700659 0.700633 0.700609 0.700584
          0.70056 0.700536 0.700513 0.700489 0.700466 0.700444 0.700421 0.700399 0.700377 0.700355 0.700333 0.700311
          0.70029 0.700269 0.700248 0.700227 0.700206 0.700185 0.700164 0.700144 0.700123 0.700103 0.700083 0.700062
          0.700042 0.700021 0.7 0.69981 0.700805 0.701073 0.701196 0.701259 0.701288 0.701297 0.701292 0.701278
          0.701257 0.701233 0.701205 0.701176 0.701146 0.701115 0.701084 0.701053 0.701022 0.700992 0.700962 0.700932
          0.700902 0.700873 0.700845 0.700817 0.70079 0.700762 0.700736 0.70071 0.700684 0.700658 0.700633 0.700608
          0.700584 0.70056 0.700536 0.700512 0.700489 0.700466 0.700443 0.700421 0.700399 0.700377 0.700355 0.700333
          0.700311 0.70029 0.700269 0.700247 0.700226 0.700206 0.700185 0.700164 0.700144 0.700123 0.700103 0.700082
          0.700062 0.700042 0.700021 0.7 0.701083 0.701149 0.701277 0.70134 0.701365 0.701368 0.701356 0.701336
          0.70131 0.701281 0.70125 0.701218 0.701186 0.701153 0.70112 0.701088 0.701056 0.701024 0.700993 0.700962
          0.700932 0.700902 0.700873 0.700845 0.700817 0.700789 0.700762 0.700735 0.700709 0.700683 0.700658 0.700633
          0.700608 0.700584 0.70056 0.700536 0.700512 0.700489 0.700466 0.700443 0.700421 0.700398 0.700376 0.700354
          0.700333 0.700311 0.70029 0.700269 0.700247 0.700226 0.700206 0.700185 0.700164 0.700144 0.700123 0.700103
          0.700082 0.700062 0.700041 0.700021 0.7 0.701485 0.701564 0.70154 0.701521 0.701495 0.701462 0.701425
          0.701386 0.701347 0.701308 0.70127 0.701232 0.701196 0.70116 0.701125 0.701091 0.701058 0.701026 0.700994
          0.700963 0.700932 0.700902 0.700873 0.700845 0.700816 0.700789 0.700762 0.700735 0.700709 0.700683 0.700657
          0.700632 0.700608 0.700583 0.700559 0.700535 0.700512 0.700489 0.700466 0.700443 0.70042 0.700398 0.700376
          0.700354 0.700333 0.700311 0.70029 0.700268 0.700247 0.700226 0.700205 0.700185 0.700164 0.700143 0.700123
          0.700102 0.700082 0.700062 0.700041 0.700021 0.7 0.697257 0.70169 0.701784 0.701711 0.701634 0.701563
          0.701498 0.701439 0.701385 0.701335 0.70129 0.701247 0.701206 0.701168 0.701131 0.701095 0.70106 0.701027
          0.700995 0.700963 0.700932 0.700902 0.700873 0.700844 0.700816 0.700788 0.700761 0.700734 0.700708 0.700682
          0.700657 0.700632 0.700607 0.700583 0.700559 0.700535 0.700511 0.700488 0.700465 0.700443 0.70042 0.700398
          0.700376 0.700354 0.700332 0.700311 0.700289 0.700268 0.700247 0.700226 0.700205 0.700185 0.700164 0.700143
          0.700123 0.700102 0.700082 0.700061 0.700041 0.70002 0.7 0.693603 0.694997 0.701928 0.701883 0.701766
          0.701658 0.701566 0.701487 0.70142 0.701361 0.701308 0.70126 0.701216 0.701174 0.701135 0.701098 0.701062
          0.701028 0.700995 0.700963 0.700932 0.700902 0.700872 0.700843 0.700815 0.700787 0.70076 0.700733 0.700707
          0.700681 0.700656 0.700631 0.700606 0.700582 0.700558 0.700534 0.700511 0.700488 0.700465 0.700442 0.70042
          0.700397 0.700375 0.700354 0.700332 0.70031 0.700289 0.700268 0.700247 0.700226 0.700205 0.700184 0.700164
          0.700143 0.700123 0.700102 0.700082 0.700061 0.700041 0.70002 0.7 0.344231 0.496694 0.69848 0.701986
          0.701878 0.701739 0.701621 0.701526 0.701448 0.701381 0.701323 0.70127 0.701223 0.701179 0.701139 0.7011
          0.701064 0.701029 0.700995 0.700963 0.700931 0.700901 0.700871 0.700842 0.700814 0.700786 0.700759 0.700732
          0.700706 0.70068 0.700655 0.70063 0.700606 0.700581 0.700557 0.700534 0.70051 0.700487 0.700464 0.700442
          0.700419 0.700397 0.700375 0.700353 0.700332 0.70031 0.700289 0.700268 0.700247 0.700226 0.700205 0.700184
          0.700163 0.700143 0.700122 0.700102 0.700082 0.700061 0.700041 0.70002 0.7 0.324375 0.356936 0.693982
          0.701461 0.701947 0.70179 0.701656 0.701551 0.701466 0.701394 0.701332 0.701277 0.701228 0.701183 0.70114
          0.701101 0.701064 0.701028 0.700994 0.700962 0.70093 0.7009 0.70087 0.700841 0.700813 0.700785 0.700758
          0.700731 0.700705 0.700679 0.700654 0.700629 0.700605 0.70058 0.700557 0.700533 0.70051 0.700487 0.700464
          0.700441 0.700419 0.700397 0.700375 0.700353 0.700331 0.70031 0.700289 0.700267 0.700246 0.700225 0.700205
          0.700184 0.700163 0.700143 0.700122 0.700102 0.700081 0.700061 0.700041 0.70002 0.7 0.358606 0.600873
          0.698853 0.702072 0.70194 0.701791 0.701663 0.701559 0.701473 0.7014 0.701336 0.70128 0.70123 0.701183
          0.701141 0.701101 0.701063 0.701027 0.700993 0.70096 0.700929 0.700898 0.700868 0.700839 0.700811 0.700783
          0.700756 0.70073 0.700704 0.700678 0.700653 0.700628 0.700604 0.700579 0.700556 0.700532 0.700509 0.700486
          0.700463 0.700441 0.700418 0.700396 0.700374 0.700352 0.700331 0.700309 0.700288 0.700267 0.700246 0.700225
          0.700204 0.700184 0.700163 0.700143 0.700122 0.700102 0.700081 0.700061 0.700041 0.70002 0.7 0.695003
          0.699948 0.702149 0.702033 0.701892 0.701762 0.701649 0.701552 0.701469 0.701398 0.701335 0.701278 0.701228
          0.701181 0.701138 0.701098 0.701061 0.701025 0.700991 0.700958 0.700926 0.700896 0.700866 0.700837 0.700809
          0.700782 0.700755 0.700728 0.700702 0.700677 0.700652 0.700627 0.700602 0.700578 0.700555 0.700531 0.700508
          0.700485 0.700462 0.70044 0.700418 0.700395 0.700374 0.700352 0.70033 0.700309 0.700288 0.700267 0.700246
          0.700225 0.700204 0.700183 0.700163 0.700142 0.700122 0.700102 0.700081 0.700061 0.700041 0.70002 0.7
          0.701577 0.702133 0.702057 0.701942 0.701826 0.701718 0.70162 0.701533 0.701456 0.701388 0.701327 0.701272
          0.701223 0.701177 0.701134 0.701095 0.701057 0.701022 0.700988 0.700955 0.700924 0.700893 0.700864 0.700835
          0.700807 0.70078 0.700753 0.700726 0.700701 0.700675 0.70065 0.700626 0.700601 0.700577 0.700554 0.70053
          0.700507 0.700484 0.700462 0.700439 0.700417 0.700395 0.700373 0.700351 0.70033 0.700309 0.700287 0.700266
          0.700245 0.700225 0.700204 0.700183 0.700163 0.700142 0.700122 0.700101 0.700081 0.700061 0.700041 0.70002
          0.7 0.702046 0.702005 0.701931 0.701843 0.701752 0.701664 0.701581 0.701505 0.701435 0.701372 0.701315
          0.701263 0.701214 0.70117 0.701128 0.701089 0.701052 0.701017 0.700984 0.700951 0.70092 0.70089 0.700861
          0.700832 0.700804 0.700777 0.700751 0.700724 0.700699 0.700673 0.700649 0.700624 0.7006 0.700576 0.700552
          0.700529 0.700506 0.700483 0.700461 0.700438 0.700416 0.700394 0.700372 0.700351 0.700329 0.700308 0.700287
          0.700266 0.700245 0.700224 0.700204 0.700183 0.700162 0.700142 0.700122 0.700101 0.700081 0.700061 0.70004
          0.70002 0.7 0.701887 0.701863 0.701812 0.701748 0.701678 0.701607 0.701537 0.701471 0.701409 0.701352
          0.701299 0.701249 0.701204 0.701161 0.701121 0.701082 0.701046 0.701012 0.700979 0.700947 0.700916 0.700886
          0.700858 0.700829 0.700802 0.700775 0.700748 0.700722 0.700697 0.700672 0.700647 0.700622 0.700598 0.700575
          0.700551 0.700528 0.700505 0.700482 0.70046 0.700437 0.700415 0.700393 0.700372 0.70035 0.700329 0.700308
          0.700286 0.700265 0.700245 0.700224 0.700203 0.700183 0.700162 0.700142 0.700121 0.700101 0.700081 0.700061
          0.70004 0.70002 0.7 0.701753 0.70174 0.701706 0.70166 0.701606 0.701549 0.701491 0.701435 0.70138
          0.701328 0.70128 0.701234 0.701191 0.70115 0.701111 0.701074 0.701039 0.701006 0.700973 0.700942 0.700912
          0.700882 0.700854 0.700826 0.700799 0.700772 0.700746 0.70072 0.700695 0.70067 0.700645 0.700621 0.700597
          0.700573 0.70055 0.700527 0.700504 0.700481 0.700459 0.700437 0.700415 0.700393 0.700371 0.70035 0.700328
          0.700307 0.700286 0.700265 0.700244 0.700224 0.700203 0.700182 0.700162 0.700142 0.700121 0.700101 0.700081
          0.70006 0.70004 0.70002 0.7 0.701647 0.701639 0.701616 0.701582 0.70154 0.701494 0.701446 0.701397
          0.701349 0.701303 0.701259 0.701217 0.701176 0.701137 0.701101 0.701065 0.701031 0.700999 0.700967 0.700936
          0.700907 0.700878 0.70085 0.700822 0.700795 0.700769 0.700743 0.700717 0.700692 0.700667 0.700643 0.700619
          0.700595 0.700572 0.700548 0.700525 0.700503 0.70048 0.700458 0.700436 0.700414 0.700392 0.70037 0.700349
          0.700328 0.700306 0.700285 0.700265 0.700244 0.700223 0.700203 0.700182 0.700162 0.700141 0.700121 0.700101
          0.700081 0.70006 0.70004 0.70002 0.7 0.701561 0.701555 0.701538 0.701512 0.701479 0.701442 0.701402
          0.70136 0.701318 0.701277 0.701237 0.701198 0.70116 0.701124 0.701089 0.701055 0.701023 0.700991 0.70096
          0.700931 0.700902 0.700873 0.700845 0.700818 0.700792 0.700766 0.70074 0.700715 0.70069 0.700665 0.700641
          0.700617 0.700593 0.70057 0.700547 0.700524 0.700501 0.700479 0.700457 0.700435 0.700413 0.700391 0.70037
          0.700348 0.700327 0.700306 0.700285 0.700264 0.700243 0.700223 0.700202 0.700182 0.700161 0.700141 0.700121
          0.700101 0.70008 0.70006 0.70004 0.70002 0.7 0.701489 0.701485 0.701472 0.701451 0.701425 0.701394
          0.70136 0.701324 0.701288 0.701251 0.701215 0.701179 0.701144 0.70111 0.701077 0.701045 0.701013 0.700983
          0.700953 0.700924 0.700896 0.700868 0.700841 0.700814 0.700788 0.700762 0.700737 0.700712 0.700687 0.700663
          0.700639 0.700615 0.700592 0.700568 0.700545 0.700523 0.7005 0.700478 0.700456 0.700434 0.700412 0.70039
          0.700369 0.700347 0.700326 0.700305 0.700284 0.700264 0.700243 0.700222 0.700202 0.700181 0.700161 0.700141
          0.700121 0.7001 0.70008 0.70006 0.70004 0.70002 0.7 0.701428 0.701424 0.701414 0.701397 0.701376
          0.70135 0.701321 0.70129 0.701258 0.701226 0.701193 0.70116 0.701127 0.701096 0.701064 0.701034 0.701004
          0.700974 0.700946 0.700918 0.70089 0.700863 0.700836 0.70081 0.700784 0.700759 0.700734 0.700709 0.700685
          0.700661 0.700637 0.700613 0.70059 0.700567 0.700544 0.700521 0.700499 0.700477 0.700455 0.700433 0.700411
          0.700389 0.700368 0.700347 0.700326 0.700305 0.700284 0.700263 0.700242 0.700222 0.700201 0.700181 0.700161
          0.700141 0.70012 0.7001 0.70008 0.70006 0.70004 0.70002 0.7 0.701375 0.701372 0.701364 0.70135
          0.701332 0.70131 0.701285 0.701259 0.70123 0.701201 0.701171 0.701141 0.701111 0.701081 0.701052 0.701023
          0.700994 0.700966 0.700938 0.700911 0.700884 0.700857 0.700831 0.700806 0.70078 0.700755 0.700731 0.700706
          0.700682 0.700658 0.700634 0.700611 0.700588 0.700565 0.700542 0.70052 0.700498 0.700475 0.700453 0.700432
          0.70041 0.700389 0.700367 0.700346 0.700325 0.700304 0.700283 0.700263 0.700242 0.700222 0.700201 0.700181
          0.700161 0.70014 0.70012 0.7001 0.70008 0.70006 0.70004 0.70002 0.7 0.701329 0.701327 0.70132
          0.701308 0.701293 0.701274 0.701253 0.701229 0.701204 0.701178 0.70115 0.701123 0.701095 0.701067 0.701039
          0.701012 0.700984 0.700957 0.70093 0.700904 0.700878 0.700852 0.700826 0.700801 0.700776 0.700752 0.700727
          0.700703 0.700679 0.700656 0.700632 0.700609 0.700586 0.700563 0.700541 0.700518 0.700496 0.700474 0.700452
          0.700431 0.700409 0.700388 0.700366 0.700345 0.700324 0.700303 0.700283 0.700262 0.700242 0.700221 0.700201
          0.70018 0.70016 0.70014 0.70012 0.7001 0.70008 0.70006 0.70004 0.70002 0.7 0.701289 0.701287
          0.701281 0.701271 0.701258 0.701242 0.701223 0.701202 0.70118 0.701156 0.701131 0.701105 0.701079 0.701053
          0.701027 0.701001 0.700975 0.700949 0.700923 0.700897 0.700872 0.700846 0.700822 0.700797 0.700772 0.700748
          0.700724 0.7007 0.700677 0.700653 0.70063 0.700607 0.700584 0.700562 0.700539 0.700517 0.700495 0.700473
          0.700451 0.70043 0.700408 0.700387 0.700366 0.700345 0.700324 0.700303 0.700282 0.700262 0.700241 0.700221
          0.7002 0.70018 0.70016 0.70014 0.70012 0.7001 0.70008 0.70006 0.70004 0.70002 0.7 0.701254
          0.701253 0.701247 0.701239 0.701227 0.701213 0.701196 0.701177 0.701157 0.701135 0.701113 0.701089 0.701065
          0.70104 0.701015 0.70099 0.700965 0.70094 0.700915 0.70089 0.700866 0.700841 0.700817 0.700792 0.700768
          0.700745 0.700721 0.700697 0.700674 0.700651 0.700628 0.700605 0.700582 0.70056 0.700538 0.700516 0.700494
          0.700472 0.70045 0.700429 0.700407 0.700386 0.700365 0.700344 0.700323 0.700302 0.700282 0.700261 0.700241
          0.70022 0.7002 0.70018 0.70016 0.70014 0.70012 0.7001 0.70008 0.70006 0.70004 0.70002 0.7
          0.701224 0.701222 0.701218 0.70121 0.7012 0.701187 0.701172 0.701155 0.701137 0.701117 0.701096 0.701074
          0.701051 0.701028 0.701004 0.70098 0.700956 0.700932 0.700908 0.700884 0.70086 0.700836 0.700812 0.700788
          0.700765 0.700741 0.700718 0.700694 0.700671 0.700648 0.700626 0.700603 0.700581 0.700558 0.700536 0.700514
          0.700492 0.700471 0.700449 0.700428 0.700406 0.700385 0.700364 0.700343 0.700322 0.700302 0.700281 0.700261
          0.70024 0.70022 0.7002 0.700179 0.700159 0.700139 0.700119 0.700099 0.70008 0.70006 0.70004 0.70002
          0.7 0.701197 0.701196 0.701192 0.701185 0.701176 0.701164 0.701151 0.701135 0.701118 0.7011 0.70108
          0.701059 0.701038 0.701016 0.700994 0.700971 0.700948 0.700925 0.700901 0.700878 0.700854 0.700831 0.700808
          0.700784 0.700761 0.700738 0.700715 0.700692 0.700669 0.700646 0.700624 0.700601 0.700579 0.700557 0.700535
          0.700513 0.700491 0.700469 0.700448 0.700427 0.700405 0.700384 0.700363 0.700342 0.700322 0.700301 0.70028
          0.70026 0.70024 0.700219 0.700199 0.700179 0.700159 0.700139 0.700119 0.700099 0.700079 0.700059 0.70004
          0.70002 0.7 0.701174 0.701173 0.701169 0.701163 0.701154 0.701144 0.701131 0.701117 0.701101 0.701084
          0.701066 0.701047 0.701026 0.701006 0.700984 0.700962 0.70094 0.700918 0.700895 0.700872 0.700849 0.700826
          0.700803 0.70078 0.700757 0.700735 0.700712 0.700689 0.700666 0.700644 0.700622 0.700599 0.700577 0.700555
          0.700533 0.700511 0.70049 0.700468 0.700447 0.700426 0.700404 0.700383 0.700363 0.700342 0.700321 0.7003
          0.70028 0.70026 0.700239 0.700219 0.700199 0.700179 0.700159 0.700139 0.700119 0.700099 0.700079 0.700059
          0.70004 0.70002 0.7 0.701154 0.701153 0.701149 0.701144 0.701136 0.701126 0.701115 0.701101 0.701087
          0.701071 0.701053 0.701035 0.701016 0.700996 0.700975 0.700954 0.700933 0.700911 0.700889 0.700867 0.700844
          0.700822 0.700799 0.700777 0.700754 0.700732 0.700709 0.700687 0.700664 0.700642 0.70062 0.700598 0.700575
          0.700554 0.700532 0.70051 0.700489 0.700467 0.700446 0.700425 0.700404 0.700383 0.700362 0.700341 0.70032
          0.7003 0.700279 0.700259 0.700239 0.700219 0.700199 0.700179 0.700159 0.700139 0.700119 0.700099 0.700079
          0.700059 0.70004 0.70002 0.7 0.701136 0.701135 0.701132 0.701127 0.70112 0.701111 0.7011 0.701088
          0.701074 0.701059 0.701042 0.701025 0.701006 0.700987 0.700967 0.700947 0.700926 0.700905 0.700884 0.700862
          0.70084 0.700818 0.700796 0.700773 0.700751 0.700729 0.700706 0.700684 0.700662 0.70064 0.700618 0.700596
          0.700574 0.700552 0.700531 0.700509 0.700487 0.700466 0.700445 0.700424 0.700403 0.700382 0.700361 0.70034
          0.70032 0.700299 0.700279 0.700259 0.700238 0.700218 0.700198 0.700178 0.700158 0.700138 0.700119 0.700099
          0.700079 0.700059 0.700039 0.70002 0.7 0.701122 0.701121 0.701118 0.701113 0.701106 0.701098 0.701088
          0.701076 0.701063 0.701048 0.701032 0.701016 0.700998 0.70098 0.70096 0.700941 0.70092 0.7009 0.700879
          0.700857 0.700836 0.700814 0.700792 0.70077 0.700748 0.700726 0.700704 0.700682 0.70066 0.700638 0.700616
          0.700594 0.700573 0.700551 0.700529 0.700508 0.700486 0.700465 0.700444 0.700423 0.700402 0.700381 0.70036
          0.70034 0.700319 0.700299 0.700279 0.700258 0.700238 0.700218 0.700198 0.700178 0.700158 0.700138 0.700118
          0.700099 0.700079 0.700059 0.700039 0.70002 0.7 0.70111 0.701109 0.701106 0.701101 0.701095 0.701087
          0.701077 0.701066 0.701053 0.701039 0.701024 0.701008 0.700991 0.700973 0.700954 0.700935 0.700915 0.700895
          0.700875 0.700854 0.700832 0.700811 0.700789 0.700768 0.700746 0.700724 0.700702 0.70068 0.700658 0.700636
          0.700615 0.700593 0.700571 0.70055 0.700528 0.700507 0.700485 0.700464 0.700443 0.700422 0.700401 0.700381
          0.70036 0.700339 0.700319 0.700298 0.700278 0.700258 0.700238 0.700218 0.700198 0.700178 0.700158 0.700138
          0.700118 0.700098 0.700079 0.700059 0.700039 0.70002 0.7 0.7011 0.701099 0.701096 0.701092 0.701086
          0.701078 0.701069 0.701058 0.701046 0.701032 0.701017 0.701002 0.700985 0.700968 0.700949 0.700931 0.700911
          0.700891 0.700871 0.70085 0.700829 0.700808 0.700787 0.700765 0.700744 0.700722 0.7007 0.700678 0.700657
          0.700635 0.700613 0.700592 0.70057 0.700549 0.700527 0.700506 0.700485 0.700463 0.700442 0.700421 0.700401
          0.70038 0.700359 0.700339 0.700318 0.700298 0.700278 0.700257 0.700237 0.700217 0.700197 0.700177 0.700158
          0.700138 0.700118 0.700098 0.700079 0.700059 0.700039 0.70002 0.7 0.701092 0.701091 0.701089 0.701085
          0.701079 0.701071 0.701062 0.701051 0.70104 0.701026 0.701012 0.700997 0.70098 0.700963 0.700945 0.700927
          0.700908 0.700888 0.700868 0.700848 0.700827 0.700806 0.700785 0.700763 0.700742 0.70072 0.700699 0.700677
          0.700655 0.700634 0.700612 0.70059 0.700569 0.700548 0.700526 0.700505 0.700484 0.700463 0.700442 0.700421
          0.7004 0.700379 0.700359 0.700338 0.700318 0.700297 0.700277 0.700257 0.700237 0.700217 0.700197 0.700177
          0.700157 0.700138 0.700118 0.700098 0.700078 0.700059 0.700039 0.70002 0.7 0.701087 0.701086 0.701084
          0.701079 0.701074 0.701066 0.701057 0.701047 0.701035 0.701022 0.701008 0.700993 0.700977 0.70096 0.700942
          0.700924 0.700905 0.700886 0.700866 0.700845 0.700825 0.700804 0.700783 0.700762 0.70074 0.700719 0.700697
          0.700676 0.700654 0.700633 0.700611 0.700589 0.700568 0.700547 0.700525 0.700504 0.700483 0.700462 0.700441
          0.70042 0.700399 0.700379 0.700358 0.700338 0.700317 0.700297 0.700277 0.700257 0.700237 0.700217 0.700197
          0.700177 0.700157 0.700137 0.700118 0.700098 0.700078 0.700059 0.700039 0.70002 0.7 0.701084 0.701083
          0.70108 0.701076 0.70107 0.701063 0.701054 0.701044 0.701033 0.70102 0.701006 0.700991 0.700975 0.700958
          0.70094 0.700922 0.700903 0.700884 0.700864 0.700844 0.700823 0.700803 0.700782 0.70076 0.700739 0.700718
          0.700696 0.700675 0.700653 0.700632 0.70061 0.700589 0.700567 0.700546 0.700525 0.700503 0.700482 0.700461
          0.70044 0.70042 0.700399 0.700378 0.700358 0.700337 0.700317 0.700297 0.700276 0.700256 0.700236 0.700216
          0.700197 0.700177 0.700157 0.700137 0.700118 0.700098 0.700078 0.700059 0.700039 0.70002 0.7 0.700833
          0.700833 0.700831 0.700827 0.700823 0.700817 0.70081 0.700801 0.700792 0.700782 0.70077 0.700758 0.700745
          0.700732 0.700718 0.700703 0.700688 0.700672 0.700656 0.70064 0.700624 0.700607 0.70059 0.700573 0.700556
          0.700539 0.700522 0.700505 0.700489 0.700472 0.700455 0.700438 0.700422 0.700405 0.700389 0.700372 0.700356
          0.70034 0.700324 0.700309 0.700293 0.700277 0.700262 0.700247 0.700232 0.700217 0.700202 0.700187 0.700172
          0.700157 0.700143 0.700128 0.700114 0.7001 0.700085 0.700071 0.700057 0.700042 0.700028 0.700014 0.7
          0.700473 0.700472 0.700471 0.700469 0.700466 0.700462 0.700458 0.700453 0.700447 0.70044 0.700433 0.700426
          0.700418 0.700409 0.700401 0.700392 0.700382 0.700373 0.700363 0.700353 0.700343 0.700333 0.700323 0.700313
          0.700303 0.700293 0.700283 0.700273 0.700263 0.700254 0.700244 0.700234 0.700225 0.700216 0.700206 0.700197
          0.700188 0.700179 0.700171 0.700162 0.700153 0.700145 0.700137 0.700128 0.70012 0.700112 0.700104 0.700097
          0.700089 0.700081 0.700074 0.700066 0.700059 0.700051 0.700044 0.700036 0.700029 0.700022 0.700015 0.700007
          0.7 0.700245 0.700245 0.700244 0.700243 0.700241 0.700239 0.700237 0.700234 0.70023 0.700227 0.700223
          0.700219 0.700214 0.700209 0.700205 0.7002 0.700194 0.700189 0.700184 0.700179 0.700173 0.700168 0.700162
          0.700157 0.700151 0.700146 0.700141 0.700135 0.70013 0.700125 0.70012 0.700115 0.70011 0.700105 0.700101
          0.700096 0.700091 0.700087 0.700083 0.700078 0.700074 0.70007 0.700066 0.700062 0.700058 0.700054 0.70005
          0.700046 0.700042 0.700039 0.700035 0.700031 0.700028 0.700024 0.700021 0.700017 0.700014 0.70001 0.700007
          0.700003 0.7 0.700119 0.700119 0.700119 0.700118 0.700118 0.700116 0.700115 0.700114 0.700112 0.70011
          0.700108 0.700106 0.700103 0.700101 0.700099 0.700096 0.700093 0.700091 0.700088 0.700085 0.700082 0.70008
          0.700077 0.700074 0.700071 0.700069 0.700066 0.700064 0.700061 0.700058 0.700056 0.700054 0.700051 0.700049
          0.700047 0.700044 0.700042 0.70004 0.700038 0.700036 0.700034 0.700032 0.70003 0.700028 0.700026 0.700024
          0.700023 0.700021 0.700019 0.700017 0.700016 0.700014 0.700013 0.700011 0.700009 0.700008 0.700006 0.700005
          0.700003 0.700002 0.7 0.70006 0.70006 0.70006 0.70006 0.700059 0.700059 0.700058 0.700057 0.700056
          0.700055 0.700054 0.700053 0.700052 0.700051 0.700049 0.700048 0.700046 0.700045 0.700044 0.700042 0.700041
          0.700039 0.700038 0.700036 0.700035 0.700034 0.700032 0.700031 0.70003 0.700028 0.700027 0.700026 0.700025
          0.700024 0.700022 0.700021 0.70002 0.700019 0.700018 0.700017 0.700016 0.700015 0.700014 0.700013 0.700012
          0.700011 0.700011 0.70001 0.700009 0.700008 0.700007 0.700007 0.700006 0.700005 0.700004 0.700004 0.700003
          0.700002 0.700001 0.700001 0.7 0.700044 0.700043 0.700043 0.700043 0.700043 0.700042 0.700042 0.700041
          0.700041 0.70004 0.700039 0.700038 0.700037 0.700036 0.700035 0.700034 0.700033 0.700032 0.700031 0.70003
          0.700029 0.700028 0.700027 0.700026 0.700025 0.700024 0.700023 0.700022 0.700021 0.70002 0.700019 0.700018
          0.700017 0.700016 0.700016 0.700015 0.700014 0.700013 0.700013 0.700012 0.700011 0.700011 0.70001 0.700009
          0.700009 0.700008 0.700007 0.700007 0.700006 0.700006 0.700005 0.700005 0.700004 0.700004 0.700003 0.700003
          0.700002 0.700002 0.700001 0.700001 0.7
        </DataArray>
        <DataArray type="Float32" Name="S_napl" NumberOfComponents="1" format="ascii">
          0.299156 0.299122 0.299196 0.299148 0.29904 0.299042 0.298948 0.298937 0.298871 0.298858 0.298818 0.298806
          0.298785 0.298776 0.298771 0.298763 0.298769 0.298764 0.298777 0.298773 0.298793 0.29879 0.298813 0.298811
          0.298837 0.298836 0.298864 0.298863 0.298892 0.298891 0.298921 0.29892 0.29895 0.29895 0.29898 0.29898
          0.29901 0.29901 0.29904 0.299039 0.299069 0.299069 0.299098 0.299098 0.299127 0.299127 0.299155 0.299155
          0.299183 0.299183 0.29921 0.29921 0.299237 0.299237 0.299264 0.299264 0.29929 0.29929 0.299316 0.299316
          0.299341 0.299341 0.299367 0.299367 0.299391 0.299391 0.299416 0.299416 0.29944 0.29944 0.299464 0.299464
          0.299487 0.299487 0.299511 0.299511 0.299534 0.299534 0.299556 0.299556 0.299579 0.299579 0.299601 0.299601
          0.299623 0.299623 0.299645 0.299645 0.299667 0.299667 0.299689 0.299689 0.29971 0.29971 0.299731 0.299731
          0.299752 0.299752 0.299773 0.299773 0.299794 0.299794 0.299815 0.299815 0.299836 0.299836 0.299856 0.299856
          0.299877 0.299877 0.299897 0.299897 0.299917 0.299917 0.299937 0.299937 0.299957 0.299957 0.299975 0.299977
          0.299984 0.3 0.299366 0.299235 0.299024 0.298894 0.298816 0.298771 0.298748 0.298742 0.298748 0.298761
          0.298781 0.298805 0.298831 0.298859 0.298888 0.298918 0.298949 0.298979 0.299009 0.299039 0.299069 0.299098
          0.299127 0.299155 0.299183 0.29921 0.299237 0.299264 0.29929 0.299316 0.299341 0.299367 0.299391 0.299416
          0.29944 0.299464 0.299487 0.299511 0.299534 0.299556 0.299579 0.299601 0.299623 0.299645 0.299667 0.299689
          0.29971 0.299731 0.299752 0.299773 0.299794 0.299815 0.299836 0.299856 0.299877 0.299897 0.299917 0.299938
          0.299958 0.299979 0.3 0.30019 0.299195 0.298927 0.298804 0.298741 0.298712 0.298703 0.298708 0.298722
          0.298743 0.298767 0.298795 0.298824 0.298854 0.298885 0.298916 0.298947 0.298978 0.299008 0.299038 0.299068
          0.299098 0.299127 0.299155 0.299183 0.29921 0.299238 0.299264 0.29929 0.299316 0.299342 0.299367 0.299392
          0.299416 0.29944 0.299464 0.299488 0.299511 0.299534 0.299557 0.299579 0.299601 0.299624 0.299645 0.299667
          0.299689 0.29971 0.299731 0.299753 0.299773 0.299794 0.299815 0.299836 0.299856 0.299877 0.299897 0.299918
          0.299938 0.299958 0.299979 0.3 0.298917 0.298851 0.298723 0.29866 0.298635 0.298632 0.298644 0.298664
          0.29869 0.298719 0.29875 0.298782 0.298814 0.298847 0.29888 0.298912 0.298944 0.298976 0.299007 0.299038
          0.299068 0.299098 0.299127 0.299155 0.299183 0.299211 0.299238 0.299265 0.299291 0.299317 0.299342 0.299367
          0.299392 0.299416 0.29944 0.299464 0.299488 0.299511 0.299534 0.299557 0.299579 0.299602 0.299624 0.299646
          0.299667 0.299689 0.29971 0.299731 0.299753 0.299774 0.299794 0.299815 0.299836 0.299856 0.299877 0.299897
          0.299918 0.299938 0.299959 0.299979 0.3 0.298515 0.298436 0.29846 0.298479 0.298505 0.298538 0.298575
          0.298614 0.298653 0.298692 0.29873 0.298768 0.298804 0.29884 0.298875 0.298909 0.298942 0.298974 0.299006
          0.299037 0.299068 0.299098 0.299127 0.299155 0.299184 0.299211 0.299238 0.299265 0.299291 0.299317 0.299343
          0.299368 0.299392 0.299417 0.299441 0.299465 0.299488 0.299511 0.299534 0.299557 0.29958 0.299602 0.299624
          0.299646 0.299668 0.299689 0.29971 0.299732 0.299753 0.299774 0.299795 0.299815 0.299836 0.299857 0.299877
          0.299898 0.299918 0.299938 0.299959 0.299979 0.3 0.302743 0.29831 0.298216 0.298289 0.298366 0.298437
          0.298502 0.298561 0.298615 0.298665 0.29871 0.298753 0.298794 0.298832 0.298869 0.298905 0.29894 0.298973
          0.299005 0.299037 0.299068 0.299098 0.299127 0.299156 0.299184 0.299212 0.299239 0.299266 0.299292 0.299318
          0.299343 0.299368 0.299393 0.299417 0.299441 0.299465 0.299489 0.299512 0.299535 0.299557 0.29958 0.299602
          0.299624 0.299646 0.299668 0.299689 0.299711 0.299732 0.299753 0.299774 0.299795 0.299816 0.299836 0.299857
          0.299877 0.299898 0.299918 0.299939 0.299959 0.29998 0.3 0.306397 0.305002 0.298072 0.298117 0.298234
          0.298342 0.298434 0.298513 0.29858 0.298639 0.298692 0.29874 0.298784 0.298826 0.298865 0.298902 0.298938
          0.298972 0.299005 0.299037 0.299068 0.299098 0.299128 0.299157 0.299185 0.299213 0.29924 0.299267 0.299293
          0.299319 0.299344 0.299369 0.299394 0.299418 0.299442 0.299466 0.299489 0.299512 0.299535 0.299558 0.29958
          0.299603 0.299625 0.299646 0.299668 0.29969 0.299711 0.299732 0.299753 0.299774 0.299795 0.299816 0.299836
          0.299857 0.299877 0.299898 0.299918 0.299939 0.299959 0.29998 0.3 0.28883 0.302257 0.30152 0.298014
          0.298122 0.298261 0.298379 0.298474 0.298552 0.298619 0.298677 0.29873 0.298777 0.298821 0.298861 0.2989
          0.298936 0.298971 0.299005 0.299037 0.299069 0.299099 0.299129 0.299158 0.299186 0.299214 0.299241 0.299268
          0.299294 0.299319 0.299345 0.29937 0.299394 0.299419 0.299443 0.299466 0.29949 0.299513 0.299536 0.299558
          0.299581 0.299603 0.299625 0.299647 0.299668 0.29969 0.299711 0.299732 0.299753 0.299774 0.299795 0.299816
          0.299836 0.299857 0.299878 0.299898 0.299918 0.299939 0.299959 0.29998 0.3 0.242119 0.288924 0.306018
          0.298539 0.298053 0.29821 0.298344 0.298449 0.298534 0.298606 0.298668 0.298723 0.298772 0.298817 0.29886