<?xml version="1.0"?>
<VTKFile type="UnstructuredGrid" version="0.1" byte_order="LittleEndian">
  <UnstructuredGrid>
    <Piece NumberOfCells="1114" NumberOfPoints="415">
      <PointData Scalars="boundaryMarker">
        <DataArray type="Float32" Name="boundaryMarker" NumberOfComponents="1" format="ascii">
          3 3 3 4 3 4 0 4 4 4 4 4
          4 4 4 4 4 4 4 4 4 0 4 4
          4 0 4 4 4 0 4 0 4 4 0 4
          4 4 0 4 3 3 4 3 3 3 4 4
          4 0 4 4 4 4 0 0 0 4 0 4
          4 0 0 4 4 4 4 4 4 4 0 0
          0 4 4 0 0 4 4 0 4 4 4 4
          4 0 4 0 4 4 0 4 4 0 0 4
          4 4 0 4 0 4 0 4 4 4 4 0
          4 4 0 0 0 0 0 0 4 4 0 4
          0 0 4 0 0 0 0 4 4 0 0 0
          0 0 4 0 4 4 0 0 4 4 0 0
          4 0 0 0 4 0 4 4 4 4 0 4
          4 0 0 0 0 0 0 4 4 4 4 4
          4 4 4 0 4 4 0 4 4 0 0 4
          4 4 4 4 4 0 4 4 4 4 4 4
          4 2 2 2 4 4 4 4 4 4 4 4
          4 4 4 4 0 2 4 4 4 4 4 4
          4 4 4 4 4 4 4 2 2 4 4 4
          4 4 0 4 0 2 2 2 0 0 4 4
          0 4 4 4 0 0 4 4 0 4 4 4
          4 4 4 0 4 4 4 4 0 0 0 4
          4 4 4 0 0 0 4 4 4 0 4 4
          4 0 0 0 0 0 0 4 4 0 0 4
          4 4 0 4 4 4 4 4 4 4 4 0
          4 4 4 4 4 0 4 4 0 4 0 4
          0 0 4 4 0 4 4 4 0 0 4 4
          0 4 4 4 4 4 4 4 4 4 4 4
          4 4 4 4 4 4 4 1 1 1 1 4
          1 1 4 4 4 4 0 4 0 4 4 0
          4 4 0 4 0 4 0 0 0 0 0 4
          0 0 0 0 0 0 4 4 0 4 0 0
          0 4 4 0 4 0 4 4 0 0 0 4
          4 4 4 4 4 4 0 4 4 4 4 4
          1 4 1 4 0 4 4
        </DataArray>
      </PointData>
      <CellData Scalars="elementMarker">
        <DataArray type="Float32" Name="elementMarker" NumberOfComponents="1" format="ascii">
          2 2 2 2 2 2 2 2 2 2 2 2
          2 2 2 2 2 2 2 2 2 2 2 2
          2 2 2 2 2 2 2 2 2 2 2 2
          2 2 2 2 2 2 2 2 2 2 2 2
          2 2 2 2 2 2 2 2 2 2 2 2
          2 2 2 2 2 2 2 2 2 2 2 2
          2 2 2 2 2 2 2 2 2 2 2 2
          2 2 2 2 2 2 2 2 2 2 2 2
          2 2 2 2 2 2 2 2 2 2 2 2
          2 2 2 2 2 2 2 2 2 2 2 2
          2 2 2 2 2 2 2 2 2 2 2 2
          2 2 2 2 2 2 2 1 1 1 1 1
          1 1 1 1 1 1 1 1 1 1 2 2
          2 2 2 2 2 2 2 2 2 2 2 2
          2 2 2 2 2 2 2 2 2 2 2 2
          2 2 2 2 2 2 2 2 2 2 2 2
          2 2 2 2 2 2 2 2 2 2 2 2
          2 2 2 2 2 2 2 2 2 2 2 2
          2 2 2 2 2 2 2 2 2 2 2 2
          2 2 2 2 2 2 2 2 2 2 2 2
          2 2 2 2 2 2 2 2 2 2 2 2
          2 2 2 2 2 2 2 2 2 2 2 2
          2 2 2 2 2 2 2 2 2 2 2 1
          1 1 1 1 1 1 1 1 2 2 1 1
          1 1 1 1 1 1 1 1 2 1 2 2
          2 2 2 2 2 2 2 2 2 2 2 2
          2 2 2 2 2 2 2 2 2 2 2 2
          2 2 2 2 2 2 2 2 2 2 2 2
          2 2 2 2 2 2 2 2 2 2 2 2
          2 2 2 2 2 2 2 2 2 2 2 2
          2 2 2 2 2 2 2 2 2 2 2 2
          2 2 2 2 2 2 2 2 2 2 2 2
          2 2 2 2 2 2 2 2 2 2 2 2
          2 2 2 2 2 2 2 2 2 2 2 2
          2 2 2 2 2 2 2 2 2 2 2 2
          2 2 2 2 2 2 2 2 2 2 2 2
          2 2 2 2 2 2 2 2 2 3 3 3
          3 3 3 3 3 3 3 3 3 3 3 3
          3 3 3 3 3 3 3 3 3 3 3 3
          3 3 3 3 3 3 3 3 3 3 3 3
          3 3 3 3 3 3 3 3 3 3 3 3
          3 3 3 3 3 3 3 3 3 3 3 3
          3 3 3 3 3 3 3 3 3 3 3 3
          3 3 3 3 3 3 3 3 3 3 3 3
          3 3 3 3 3 3 3 3 3 3 3 3
          3 3 3 3 3 3 3 3 3 3 3 3
          3 3 3 3 3 3 3 3 3 3 3 3
          3 3 3 3 3 3 3 3 3 3 3 3
          3 3 3 3 3 3 3 3 3 3 3 3
          3 3 3 3 3 3 3 3 3 3 3 3
          3 3 3 3 3 3 3 3 3 3 3 3
          3 3 3 3 3 3 3 3 3 3 3 3
          3 3 3 3 3 3 3 3 3 3 3 3
          3 3 3 3 3 1 1 1 1 1 1 1
          1 3 1 1 1 1 3 3 3 3 3 3
          3 3 3 3 3 3 3 3 3 3 3 3
          3 3 3 3 3 3 3 3 3 3 3 3
          3 3 3 3 3 3 3 3 3 3 3 3
          3 3 3 3 3 3 3 3 3 1 1 1
          3 1 1 1 1 3 3 3 3 3 3 3
          3 3 3 3 3 3 3 3 3 3 3 3
          3 3 3 3 3 3 3 3 3 3 3 1
          1 1 1 1 1 1 1 1 1 3 3 3
          3 3 3 3 3 3 3 3 3 3 3 3
          3 3 3 3 3 3 3 3 3 3 3 3
          3 3 3 3 3 3 3 3 3 3 3 3
          3 1 1 1 1 1 1 1 1 1 1 1
          1 1 1 1 1 1 1 1 1 1 1 1
          1 1 1 1 1 1 1 1 1 1 1 1
          1 1 1 1 1 1 1 1 1 1 1 1
          1 1 1 1 1 1 1 1 1 1 1 1
          1 1 1 1 1 1 1 1 1 1 1 1
          1 1 1 1 1 1 1 1 1 1 1 1
          1 1 1 1 1 1 1 1 1 1 1 1
          1 1 1 1 1 1 1 1 1 1 1 1
          1 1 1 1 1 1 1 1 1 1 1 1
          1 1 1 1 1 1 1 1 1 1 1 1
          1 1 1 1 1 1 1 1 1 1 1 1
          1 1 1 1 1 1 1 1 1 1 1 1
          1 1 1 1 1 1 1 1 1 1 1 1
          1 1 1 1 1 1 1 1 1 1 1 1
          1 1 1 1 1 1 1 1 1 1 1 1
          1 1 1 1 1 1 1 1 1 1 1 1
          1 1 1 1 1 1 1 1 1 1 1 1
          1 1 1 1 1 1 1 1 1 1 1 1
          1 1 1 1 1 1 1 1 1 1 1 1
          1 1 1 1 1 1 1 1 1 1 1 1
          1 1 1 1 1 1 1 1 1 1 1 1
          1 1 1 1 1 1 1 1 1 1 1 1
          1 1 1 1 1 1 1 1 1 1 1 1
          1 1 1 1 1 1 1 1 1 1 1 1
          1 1 1 1 1 1 1 1 1 1 1 1
          1 1 1 1 1 1 1 1 1 1
        </DataArray>
        <DataArray type="Float32" Name="rank" NumberOfComponents="1" format="ascii">
          0 0 0 0 0 0 0 0 0 0 0 0
          0 0 0 0 0 0 0 0 0 0 0 0
          0 0 0 0 0 0 0 0 0 0 0 0
          0 0 0 0 0 0 0 0 0 0 0 0
          0 0 0 0 0 0 0 0 0 0 0 0
          0 0 0 0 0 0 0 0 0 0 0 0
          0 0 0 0 0 0 0 0 0 0 0 0
          0 0 0 0 0 0 0 0 0 0 0 0
          0 0 0 0 0 0 0 0 0 0 0 0
          0 0 0 0 0 0 0 0 0 0 0 0
          0 0 0 0 0 0 0 0 0 0 0 0
          0 0 0 0 0 0 0 0 0 0 0 0
          0 0 0 0 0 0 0 0 0 0 0 0
          0 0 0 0 0 0 0 0 0 0 0 0
          0 0 0 0 0 0 0 0 0 0 0 0
          0 0 0 0 0 0 0 0 0 0 0 0
          0 0 0 0 0 0 0 0 0 0 0 0
          0 0 0 0 0 0 0 0 0 0 0 0
          0 0 0 0 0 0 0 0 0 0 0 0
          0 0 0 0 0 0 0 0 0 0 0 0
          0 0 0 0 0 0 0 0 0 0 0 0
          0 0 0 0 0 0 0 0 0 0 0 0
          0 0 0 0 0 0 0 0 0 0 0 0
          0 0 0 0 0 0 0 0 0 0 0 0
          0 0 0 0 0 0 0 0 0 0 0 0
          0 0 0 0 0 0 0 0 0 0 0 0
          0 0 0 0 0 0 0 0 0 0 0 0
          0 0 0 0 0 0 0 0 0 0 0 0
          0 0 0 0 0 0 0 0 0 0 0 0
          0 0 0 0 0 0 0 0 0 0 0 0
          0 0 0 0 0 0 0 0 0 0 0 0
          0 0 0 0 0 0 0 0 0 0 0 0
          0 0 0 0 0 0 0 0 0 0 0 0
          0 0 0 0 0 0 0 0 0 0 0 0
          0 0 0 0 0 0 0 0 0 0 0 0
          0 0 0 0 0 0 0 0 0 0 0 0
          0 0 0 0 0 0 0 0 0 0 0 0
          0 0 0 0 0 0 0 0 0 0 0 0
          0 0 0 0 0 0 0 0 0 0 0 0
          0 0 0 0 0 0 0 0 0 0 0 0
          0 0 0 0 0 0 0 0 0 0 0 0
          0 0 0 0 0 0 0 0 0 0 0 0
          0 0 0 0 0 0 0 0 0 0 0 0
          0 0 0 0 0 0 0 0 0 0 0 0
          0 0 0 0 0 0 0 0 0 0 0 0
          0 0 0 0 0 0 0 0 0 0 0 0
          0 0 0 0 0 0 0 0 0 0 0 0
          0 0 0 0 0 0 0 0 0 0 0 0
          0 0 0 0 0 0 0 0 0 0 0 0
          0 0 0 0 0 0 0 0 0 0 0 0
          0 0 0 0 0 0 0 0 0 0 0 0
          0 0 0 0 0 0 0 0 0 0 0 0
          0 0 0 0 0 0 0 0 0 0 0 0
          0 0 0 0 0 0 0 0 0 0 0 0
          0 0 0 0 0 0 0 0 0 0 0 0
          0 0 0 0 0 0 0 0 0 0 0 0
          0 0 0 0 0 0 0 0 0 0 0 0
          0 0 0 0 0 0 0 0 0 0 0 0
          0 0 0 0 0 0 0 0 0 0 0 0
          0 0 0 0 0 0 0 0 0 0 0 0
          0 0 0 0 0 0 0 0 0 0 0 0
          0 0 0 0 0 0 0 0 0 0 0 0
          0 0 0 0 0 0 0 0 0 0 0 0
          0 0 0 0 0 0 0 0 0 0 0 0
          0 0 0 0 0 0 0 0 0 0 0 0
          0 0 0 0 0 0 0 0 0 0 0 0
          0 0 0 0 0 0 0 0 0 0 0 0
          0 0 0 0 0 0 0 0 0 0 0 0
          0 0 0 0 0 0 0 0 0 0 0 0
          0 0 0 0 0 0 0 0 0 0 0 0
          0 0 0 0 0 0 0 0 0 0 0 0
          0 0 0 0 0 0 0 0 0 0 0 0
          0 0 0 0 0 0 0 0 0 0 0 0
          0 0 0 0 0 0 0 0 0 0 0 0
          0 0 0 0 0 0 0 0 0 0 0 0
          0 0 0 0 0 0 0 0 0 0 0 0
          0 0 0 0 0 0 0 0 0 0 0 0
          0 0 0 0 0 0 0 0 0 0 0 0
          0 0 0 0 0 0 0 0 0 0 0 0
          0 0 0 0 0 0 0 0 0 0 0 0
          0 0 0 0 0 0 0 0 0 0 0 0
          0 0 0 0 0 0 0 0 0 0 0 0
          0 0 0 0 0 0 0 0 0 0 0 0
          0 0 0 0 0 0 0 0 0 0 0 0
          0 0 0 0 0 0 0 0 0 0 0 0
          0 0 0 0 0 0 0 0 0 0 0 0
          0 0 0 0 0 0 0 0 0 0 0 0
          0 0 0 0 0 0 0 0 0 0 0 0
          0 0 0 0 0 0 0 0 0 0 0 0
          0 0 0 0 0 0 0 0 0 0 0 0
          0 0 0 0 0 0 0 0 0 0 0 0
          0 0 0 0 0 0 0 0 0 0 0 0
          0 0 0 0 0 0 0 0 0 0
        </DataArray>
      </CellData>
      <Points>
        <DataArray type="Float32" Name="Coordinates" NumberOfComponents="3" format="ascii">
          -8.66025 -5 -1 -8.58549 -5.1295 -0.399992 -8.3067 -5.61237 -0.707107 -8.13315 -5.13756 -0.92388
          -9.01381 -4.38763 -0.707107 -8.51583 -4.47473 -0.92388 -8.55456 -4.71026 -0.659101 -8.39657 -4.16662 -0.807487
          -8.04166 -4.64286 -1 -7.65402 -3.96127 -0.918054 -8.5182 -3.84489 -0.369257 -6.80449 -3.92857 -1
          -7.42307 -4.28571 -1 -7.25367 -3.36915 -0.705142 -7.25757 -4.64795 -0.918054 -6.5446 -4.59729 -0.705142
          -7.88094 -3.56203 -0.517542 -4.37342 -2.95988 -0.926367 -4.33013 -2.5 -1 -4.94872 -2.85714 -1
          -4.75004 -2.30755 -0.926367 -4.90585 -2.63516 -0.4166 -5.40436 -2.30809 -0.710878 -5.56731 -3.21429 -1
          -4.70104 -3.52627 -0.710878 -4.47032 -2.9933 -0.369927 -6.19998 -2.7647 -0.708518 -7.27712 -3.04675 0
          -6.1859 -3.57143 -1 -5.60346 -3.20684 -0.021189 -5.49429 -3.98699 -0.708518 -4.43481 -2.35365 -0.493816
          -4.67767 -1.88992 -0.712064 -5.11286 -1.88648 -0.385542 -4.79326 -2.21063 -0.170539 -6.27712 -4.7788 0
          -7.02528 -5.04408 -0.517542 -7.80668 -5.18833 -0.807487 -7.88134 -4.65836 -0.0458852 -6.90483 -5.14121 0
          -8.8609 -4.65247 -0.166223 -8.67117 -4.98109 -0.00904254 -7.58887 -5.45453 -0.369257 -8.16025 -5.86603 0
          -9.16025 -4.13397 0 -8.46196 -5.34346 0.164274 -8.5182 -3.84489 0.369257 -8.53254 -3.77156 0
          -7.88094 -3.56203 0.517542 -7.25367 -3.36915 0.705142 -7.53254 -5.50362 0 -7.02528 -5.04408 0.517542
          -5.64941 -4.41639 0 -5.02169 -4.05398 0 -6.1859 -3.57143 1 -6.80449 -3.92857 1
          -4.8944 -3.3755 -0.0268854 -4.39398 -3.69157 0 -4.44395 -2.56572 -0.0003167 -5.39398 -1.95952 0
          -6.64941 -2.68434 0 -4.7128 -2.9799 0.39383 -5.24907 -2.62032 0.216038 -4.76627 -1.59711 0
          -6.02169 -2.32193 0 -7.90483 -3.40916 0 -4.40452 -1.49013 -0.410708 -0.845265 2.54639 -0.534348
          -0.851073 1.39941 -0.525047 -0.453062 1.92964 -0.891479 -0.513903 1.71429 -0.205164 -0.0151015 1.78571 -0.558093
          -0.206847 2.28698 -0.370939 -0.430241 1.17593 -0.902714 0 1.42857 -1 -0.302722 1.12263 -0.239657
          0.300145 1.24202 -0.307438 0 0.714286 -1 -0.681429 0.393423 -0.731884 0 0 0
          0 0 -1 0 2.14286 -1 -3.09295 -1.78571 -1 -2.47436 -1.42857 -1
          -2.58137 -1.09296 -0.938914 -2.86122 -1.34419 -0.627323 -1.85577 -1.07143 -1 -2.25565 -0.907441 -0.656288
          -3.71154 -2.14286 -1 -3.30972 -1.32172 -0.860045 -3.09814 -1.79135 -0.456595 -2.23722 -1.68905 -0.938914
          -2.7995 -2.20544 -0.860045 -2.60775 -1.66379 -0.470266 -2.1496 -1.35551 -0.576133 -2.62787 -0.541172 -0.534348
          -1.89765 -0.572457 -0.891479 -1.23718 -0.714286 -1 -1.60505 -1.24303 -0.358467 -1.23351 -0.215366 -0.902714
          -1.7256 -0.495667 -0.35844 -0.61859 -0.357143 -1 -0.952785 -0.531194 -0.452215 0 -0.786847 -0.731884
          -0.803266 -0.960566 -0.902714 -1.44459 -1.35718 -0.891479 -1.7826 -2.00521 -0.534348 -2.07859 -0.933834 -0.303314
          -0.786389 -1.43676 -0.525047 -1.63746 0.0373457 -0.525047 -0.626289 -0.57735 0.148162 -1.11032 -1.2657 -0.108323
          -1.96758 -1.66797 -0.175486 -2.34799 -2.05114 -0.394828 -3.11325 -1.36052 -0.125683 -2.73241 -1.05578 -0.359596
          -3.57889 -0.996652 -0.376735 -4.03703 -1.614 -0.784006 -3.64994 -1.55659 -0.293263 -4.3099 -2.06826 -0.931485
          -4.14212 -1.87882 -0.155654 -3.82496 -2.25121 -0.409516 -2.88314 -0.509879 0 -2.55649 -0.914991 0.147747
          -2.48819 -1.43166 0.00273206 -2.27207 -1.9563 0.028407 -3.35038 -1.94381 -2.77556e-16 -4.13856 -1.2347 0
          -3.51085 -0.872288 0 -3.62295 -1.58095 0.370696 -3.28946 -1.31125 0.274073 -2.85877 -1.65205 0.0793049
          -2.72546 -2.01333 -0.129202 -3.00076 -0.982229 0.0775859 -2.25542 -0.147469 0 1.11022e-16 1.67911 1.88405e-13
          -1 2.02699 0 -1 0.57735 0 0.18195 0.839553 0.139433 -1.18894 -0.246274 0.144793
          -1.62771 0.214941 0 -1 1.30217 0 -0.314424 2.12661 0.31749 -0.286275 1.24182 0.372649
          0 -1.1547 0 -1.43869 -0.830629 -0.00472802 -2.06929 -0.737152 0.301538 -1.88469 -1.33131 0.239347
          -1.25542 -1.87952 0 -1.27613 -1.26763 0.347012 -0.627712 -1.51711 0 -2.65257 -2.60109 -0.376735
          -1.88314 -2.24193 0 -2.51085 -2.60434 0 -3.22273 -2.4179 -0.264685 -3.13856 -2.96675 0
          -3.49275 -3.06936 -0.410708 -3.86438 -2.70503 0.102436 -2.77367 -2.19262 0.269087 -3.95886 -2.14644 0.31439
          -4.49948 -2.04633 0.203824 -4.26296 -3.04547 0.108699 -4.03001 -2.78459 -0.349333 -4.19017 -3.48463 -0.385542
          -3.76627 -3.32916 0 -3.41628 -2.68917 -0.784006 -3.97555 -3.10602 -0.712064 -3.94612 -2.69835 -0.931485
          2.23722 -1.68905 -0.938914 1.7826 -2.00521 -0.534348 2.7995 -2.20544 -0.860045 2.06267 -1.79586 -0.260092
          2.65257 -2.60109 -0.376735 3.09295 -1.78571 -1 2.88721 -1.45736 -0.144383 3.71154 -2.14286 -1
          4.03703 -1.614 -0.784006 4.58583 -2.65929 0.0116875 4.5005 -2.3058 -0.566273 3.41628 -2.68917 -0.784006
          4.67767 -1.88992 -0.712064 4.40452 -1.49013 -0.410708 4.3099 -2.06826 -0.931485 3.49275 -3.06936 -0.410708
          3.94612 -2.69835 -0.931485 4.28728 -2.89837 -0.531442 3.97555 -3.10602 -0.712064 4.70104 -3.52627 -0.710878
          4.37342 -2.95988 -0.926367 4.19017 -3.48463 -0.385542 4.94872 -2.85714 -1 4.33013 -2.5 -1
          4.75004 -2.30755 -0.926367 8.3067 -5.61237 -0.707107 8.58664 -5.12751 -0.400944 8.66025 -5 -1
          8.13315 -5.13756 -0.92388 7.80668 -5.18833 -0.807487 8.04166 -4.64286 -1 7.25757 -4.64795 -0.918054
          7.58887 -5.45453 -0.369257 6.5446 -4.59729 -0.705142 7.65402 -3.96127 -0.918054 7.42307 -4.28571 -1
          7.25367 -3.36915 -0.705142 6.80449 -3.92857 -1 8.39657 -4.16662 -0.807487 8.51583 -4.47473 -0.92388
          8.55455 -4.71008 -0.658653 9.01381 -4.38763 -0.707107 8.5182 -3.84489 -0.369257 6.19998 -2.7647 -0.708518
          5.49429 -3.98699 -0.708518 5.56731 -3.21429 -1 6.1859 -3.57143 -1 5.40436 -2.30809 -0.710878
          5.39398 -1.95952 0 5.11286 -1.88648 -0.385542 4.39398 -3.69157 0 6.64941 -2.68434 0
          7.27712 -3.04675 0 7.88094 -3.56203 -0.517542 7.90483 -3.40916 0 8.8609 -4.65247 -0.166223
          8.66887 -4.98507 -0.00713885 8.53254 -3.77156 0 7.02528 -5.04408 -0.517542 7.53254 -5.50362 0
          6.27712 -4.7788 0 6.90483 -5.14121 0 6.80449 -3.92857 1 5.64941 -4.41639 0
          7.42307 -4.28571 1 9.16025 -4.13397 0 8.46196 -5.34346 0.164274 8.16025 -5.86603 0
          7.25757 -4.64795 0.918054 6.1859 -3.57143 1 5.02169 -4.05398 0 5.49429 -3.98699 0.708518
          7.25367 -3.36915 0.705142 6.19998 -2.7647 0.708518 6.02169 -2.32193 0 4.76627 -1.59711 0
          5.02788 -2.25903 0.00202121 4.26876 -3.09274 3.90005e-16 4.13856 -1.2347 0 3.13856 -2.96675 0
          2.49311 -1.53814 0.156154 2.65257 -2.60109 0.376735 3.76627 -3.32916 0 1.88314 -2.24193 0
          2.51085 -2.60434 0 1.25542 -1.87952 0 3.49275 -3.06936 0.410708 3.41628 -2.68917 0.784006
          4.40452 -1.49013 0.410708 3.51085 -0.872288 0 3.57889 -0.996652 0.376735 3.57889 -0.996652 -0.376735
          2.07867 -0.754597 0.121286 2.17882 -1.22617 -0.548072 2.4151 -0.897494 -0.235988 2.88314 -0.509879 0
          2.25542 -0.147469 0 2.62787 -0.541172 -0.534348 1 2.02699 0 0.447845 1.66543 0.287826
          0.36311 2.24654 -0.0138165 0.509221 1.81047 -0.334074 1 1.30217 0 1 0.57735 0
          0.681429 0.393423 -0.731884 1.1159 -0.288894 -0.238302 0.851073 1.39941 -0.525047 1.62771 0.214941 0
          1.63746 0.0373457 -0.525047 1.73111 -0.467206 -0.292133 1.65474 -1.04356 -0.478836 1.45154 -0.830092 -0.00350165
          1.25915 -0.378394 0.331638 1.68829 -1.41683 0.160473 1.24541 -1.33102 -0.19569 0.627712 -1.51711 0
          0.786389 -1.43676 -0.525047 0.621551 -0.610158 0.108861 1.03662 -0.804456 -0.489081 0.61859 -0.357143 -1
          0.803266 -0.960566 -0.902714 1.44459 -1.35718 -0.891479 1.83063 -1.46069 -0.622945 1.89765 -0.572457 -0.891479
          1.23351 -0.215366 -0.902714 0.845265 2.54639 -0.534348 2.47436 -1.42857 -1 2.58137 -1.09296 -0.938914
          3.30972 -1.32172 -0.860045 0.430241 1.17593 -0.902714 0.453062 1.92964 -0.891479 0.201714 2.47215 -0.537596
          1.23718 -0.714286 -1 1.85577 -1.07143 -1 0 4.28571 -1 0.510217 3.52716 -0.860045
          0.620753 4.30317 -0.784006 0.413038 3.89595 -0.404302 0 3.57143 -1 0.344151 2.78201 -0.938914
          0.120764 3.06015 -0.539837 0 2.85714 -1 0.564469 3.07365 -0.447261 0.926321 3.59774 -0.376735
          0.0870607 3.53242 -0.509679 -0.0640872 4.36503 -0.435114 0.702114 4.99594 -0.712064 0.363781 4.76662 -0.931485
          0.333864 4.83193 -0.440079 0 5 -1 0.911767 4.55949 -0.410708 0.376622 5.26743 -0.926367
          0.314325 5.30782 -0.315177 -0.314325 5.30782 -0.315177 0 5.71429 -1 0.703315 5.83435 -0.710878
          0.0204643 6.1319 -0.026878 0.92269 5.37111 -0.385542 0 6.42857 -1 -0.376622 5.26743 -0.926367
          0.705692 6.75169 -0.708518 0 7.85714 -1 1 7.82554 0 0.709066 7.96644 -0.705142
          -0.705692 6.75169 -0.708518 0 7.14286 -1 0.929327 9.29942 -0.369257 0.589885 9.35495 -0.807487
          0.855658 8.60611 -0.517542 0.396455 8.60921 -0.918054 1 9.27518 0 0 9.28571 -1
          0 8.57143 -1 -0.396455 8.60921 -0.918054 0.382683 9.6123 -0.92388 0.707107 10 -0.707107
          0.460948 10 -0.135702 -0.12893 10 -0.449991 -0.021766 10 0.0813301 -0.709066 7.96644 -0.705142
          0 10 -1 1 10 0 1 8.55036 0 0.929327 9.29942 0.369257
          0.855658 8.60611 0.517542 -0.929327 9.29942 -0.369257 -0.855658 8.60611 0.517542 -1 7.82554 0
          0 7.85714 1 1 5.65108 0 1 7.10072 0 0 7.14286 1
          0.705692 6.75169 0.708518 1 6.3759 0 0.433642 5.49231 0.205918 1 4.92627 0
          0.467654 4.95858 0.195885 0.92269 5.37111 0.385542 0.0113663 5.22806 0.4008 5.55112e-17 4.82508 -0.0978545
          0.418226 4.41395 -0.127744 0.0144937 3.9236 0.0356374 0.513298 4.03989 0.306896 1 4.20145 0
          0.620785 3.71937 -0.0433692 -0.445562 3.94655 -0.341054 0.357978 3.36077 -0.126723 0.465493 2.83806 -0.202152
          -0.298195 3.38081 -0.230205 0.00107311 2.81466 -1.2057e-13 1 2.75181 0 1 3.47663 0
          0.492592 2.91833 0.246392 -1 2.75181 0 -0.493499 2.68824 0.131299 -0.401382 2.85358 -0.386868
          -0.632218 3.11715 -0.310359 -1 4.20145 0 -0.926321 3.59774 -0.376735 -0.559055 3.58908 0.0926513
          -1 3.47663 0 -0.556564 3.12248 0.275189 -1 4.92627 0 -0.911767 4.55949 -0.410708
          -0.399038 4.38707 0.0989466 -0.464877 4.99015 0.191635 -0.439184 4.74826 -0.360892 -1 5.65108 0
          -0.92269 5.37111 -0.385542 -0.92269 5.37111 0.385542 -0.702114 4.99594 -0.712064 -0.703315 5.83435 -0.710878
          -0.620753 4.30317 -0.784006 -0.510217 3.52716 -0.860045 -0.229202 3.20567 -0.659987 -0.344151 2.78201 -0.938914
          -0.363781 4.76662 -0.931485 -1 7.10072 0 -0.382683 9.6123 -0.92388 -0.589885 9.35495 -0.807487
          -0.707107 10 -0.707107 -0.855658 8.60611 -0.517542 -1 10 0 -1 8.55036 0
          -0.929327 9.29942 0.369257 -1 6.3759 0 -0.705692 6.75169 0.708518
        </DataArray>
      </Points>
      <Cells>
        <DataArray type="Int32" Name="connectivity" NumberOfComponents="1" format="ascii">
          0 1 2 3 4 0 5 6 7 4 5 6
          8 9 7 10 8 7 5 6 8 5 3 6
          5 0 3 6 0 3 8 5 11 9 12 13
          11 12 14 15 12 9 8 14 14 16 13 12
          16 9 12 14 12 11 13 15 14 13 15 12
          17 18 19 20 20 19 17 21 18 20 17 21
          22 19 20 21 23 19 22 21 17 19 24 25
          9 16 12 13 26 11 27 13 11 26 27 28
          28 23 26 29 23 28 30 29 19 23 24 29
          18 20 21 31 32 22 20 33 19 17 21 25
          26 23 22 29 22 20 33 21 32 20 31 34
          20 32 33 34 31 20 21 34 29 23 22 21
          19 29 24 21 24 19 21 25 19 23 29 21
          23 30 24 29 11 30 35 15 30 11 35 28
          36 14 37 38 37 8 3 38 9 8 14 38
          14 8 37 38 14 39 15 13 39 14 15 36
          16 39 14 13 16 9 14 38 8 9 10 38
          4 40 7 10 7 8 10 38 8 1 41 6
          1 0 40 6 4 7 40 6 7 8 41 6
          9 16 7 10 0 4 40 6 3 0 1 6
          8 3 1 6 2 37 3 38 3 8 1 38
          2 3 1 38 7 41 40 6 8 7 41 38
          9 16 10 38 36 37 42 38 37 2 42 38
          2 43 42 38 39 16 14 38 39 14 36 38
          7 10 41 38 1 8 41 38 40 41 7 10
          4 40 10 44 41 1 40 6 45 2 1 38
          43 2 45 38 45 1 41 38 10 46 44 40
          46 10 44 47 10 46 40 41 10 46 41 38
          10 16 46 38 16 39 13 48 13 39 15 49
          39 48 16 38 50 39 42 38 43 50 42 38
          39 36 42 38 35 51 15 39 52 53 30 29
          28 54 35 52 49 15 11 55 15 55 35 11
          55 11 28 35 36 15 39 35 35 30 28 52
          29 30 24 56 30 57 24 56 29 24 21 56
          31 21 58 34 59 26 22 29 59 22 33 34
          22 59 21 34 33 22 21 34 20 33 21 34
          24 25 21 56 28 52 30 29 27 26 60 28
          60 28 26 29 11 55 28 27 54 28 27 60
          54 28 60 29 28 54 52 29 25 61 58 56
          29 21 62 56 29 53 30 56 21 25 58 56
          53 57 30 56 63 59 33 34 29 22 62 21
          22 59 62 21 59 29 22 62 61 21 58 56
          21 62 58 34 21 59 62 34 59 64 26 29
          64 60 26 29 27 16 48 65 16 27 48 13
          10 65 46 16 65 10 46 47 11 49 27 13
          15 49 11 13 63 32 66 34 32 63 33 34
          32 66 33 63 67 68 69 70 69 71 72 70
          73 74 75 76 75 74 71 76 77 73 75 76
          68 78 73 75 78 79 80 77 78 77 73 75
          69 68 73 70 74 73 75 71 69 73 71 70
          69 81 72 71 77 74 73 76 74 69 73 71
          74 81 69 71 82 83 84 85 83 86 84 87
          88 82 89 90 89 82 84 85 91 82 92 93
          83 82 91 93 83 82 93 85 84 83 94 85
          83 84 94 87 95 84 96 87 86 97 96 98
          96 97 99 100 101 78 99 102 103 101 104 102
          97 101 99 102 101 97 104 102 86 83 91 94
          97 86 105 98 97 105 104 98 86 91 105 94
          84 86 96 87 86 83 94 87 91 106 105 94
          86 94 107 87 86 96 107 98 86 94 105 98
          108 103 104 102 78 109 99 102 101 79 103 80
          79 101 78 80 97 96 98 100 99 97 102 100
          97 104 102 98 96 86 107 87 109 96 99 100
          109 99 102 100 95 96 100 87 100 96 107 87
          97 98 102 100 101 79 78 102 101 103 110 102
          105 108 104 111 105 104 98 111 94 86 107 98
          94 106 105 98 91 106 94 112 91 94 93 112
          91 106 112 113 89 114 90 85 95 84 115 85
          89 95 115 85 95 116 89 115 116 89 115 85
          94 93 115 85 84 95 115 87 94 84 115 87
          84 94 115 85 94 83 93 85 93 82 90 85
          82 92 93 90 82 89 90 85 91 83 93 94
          95 89 84 85 88 89 117 118 88 89 118 90
          117 32 119 120 89 116 117 118 88 117 121 118
          32 117 66 120 66 117 118 120 117 121 118 120
          117 116 66 118 93 91 112 113 114 93 90 85
          118 89 114 90 116 89 114 118 115 93 114 85
          107 94 115 87 89 116 114 85 95 107 115 87
          95 122 116 115 107 95 115 123 107 124 115 94
          124 93 115 94 116 115 114 85 93 94 124 112
          112 93 113 125 121 118 126 90 116 127 66 118
          66 32 120 34 127 66 118 120 128 116 114 118
          128 127 116 118 127 63 66 120 63 66 120 34
          129 127 118 120 129 118 126 120 114 118 126 130
          131 132 124 125 124 115 114 133 124 123 115 133
          128 118 114 130 116 128 114 133 90 114 126 131
          132 90 126 131 118 114 126 90 93 114 90 131
          115 116 114 133 124 93 114 115 132 93 90 131
          93 124 114 131 93 132 124 131 132 93 124 125
          93 112 124 125 124 107 115 123 95 122 115 123
          134 95 107 123 122 116 115 133 122 128 116 133
          123 122 115 133 134 122 95 123 71 135 72 70
          75 135 71 70 135 75 71 76 67 136 68 70
          73 68 75 70 73 75 71 70 79 77 78 75
          137 78 68 75 77 79 138 75 78 137 109 139
          137 140 109 139 136 141 68 70 68 141 75 70
          141 137 68 75 142 136 72 70 135 142 72 70
          135 75 143 70 75 141 143 70 75 143 138 76
          75 135 143 76 79 137 138 75 79 137 78 139
          137 79 78 75 78 102 110 139 144 79 103 110
          145 102 110 111 102 145 110 139 79 78 110 139
          134 146 107 100 107 146 145 100 139 102 145 100
          140 109 139 100 140 134 109 100 147 112 107 98
          98 102 145 111 148 108 98 111 98 111 145 149
          147 124 107 112 147 107 145 98 148 111 98 149
          147 148 112 98 108 150 110 111 150 144 108 110
          148 150 108 111 102 108 110 111 144 103 108 110
          148 106 112 98 112 94 107 98 124 94 107 112
          102 98 145 100 98 107 145 100 95 134 107 100
          139 109 102 100 79 101 110 102 78 79 110 102
          78 109 102 139 79 101 103 110 103 108 110 102
          109 134 96 100 96 109 95 134 134 95 96 100
          95 100 107 87 98 96 107 100 108 105 98 111
          106 94 112 98 106 148 105 98 148 108 105 98
          106 108 105 148 104 108 102 111 98 104 102 111
          106 112 113 125 151 152 106 113 153 152 113 125
          106 152 112 125 152 148 106 112 152 106 113 125
          93 132 113 125 153 152 151 113 153 151 132 113
          151 153 132 154 132 154 126 90 155 153 151 154
          155 156 157 154 132 153 113 125 154 153 132 158
          154 132 126 158 121 159 126 120 63 120 160 34
          159 121 58 120 31 160 58 120 160 31 58 34
          157 161 58 162 157 121 126 154 118 121 126 120
          154 156 157 162 154 157 121 162 120 31 160 34
          121 157 58 162 161 25 58 162 25 163 161 56
          164 163 161 162 163 25 161 162 156 164 157 162
          164 155 156 157 157 164 161 162 163 57 161 56
          57 164 163 161 154 121 126 90 155 151 156 154
          92 151 132 154 93 92 132 90 92 93 132 113
          151 92 132 113 151 165 156 154 92 154 132 90
          163 166 25 162 166 163 156 164 156 165 121 154
          165 156 121 162 121 119 31 120 120 32 31 34
          31 121 58 162 21 31 58 25 156 154 121 162
          121 31 58 120 25 31 58 162 166 164 156 162
          164 166 163 162 24 163 25 56 57 163 24 56
          165 166 156 162 163 17 24 25 166 17 163 25
          166 17 25 162 25 17 31 162 17 31 21 25
          167 121 31 162 154 88 121 90 121 88 118 90
          165 88 121 154 119 32 31 120 117 119 121 120
          167 165 121 162 165 151 92 154 151 106 92 113
          88 154 92 90 88 165 92 154 92 91 93 113
          106 91 92 113 119 18 121 31 17 18 21 31
          18 167 121 31 18 167 31 162 17 18 31 162
          17 166 167 162 166 165 167 162 24 163 166 17
          165 88 167 121 18 17 167 162 32 20 119 31
          88 117 119 121 88 119 167 121 119 18 167 121
          20 18 119 31 82 88 92 90 167 88 18 119
          168 169 170 171 172 173 170 174 169 172 170 171
          175 176 177 178 175 177 179 178 180 181 182 178
          175 176 179 177 179 183 184 185 186 179 183 184
          176 179 172 175 179 184 178 185 183 186 184 185
          186 187 188 189 187 188 189 185 188 186 189 185
          187 190 188 185 186 188 184 185 188 190 178 185
          191 188 178 185 184 191 178 185 192 180 182 178
          191 192 182 178 184 191 182 178 175 184 182 178
          176 175 182 178 188 191 184 185 191 188 192 178
          175 179 184 178 170 175 172 179 175 170 172 173
          182 175 191 184 193 194 195 196 194 197 198 196
          199 197 198 200 201 202 203 204 204 201 205 203
          206 198 207 208 195 209 207 208 209 206 207 208
          206 210 202 198 207 198 196 208 195 207 196 208
          195 207 198 196 202 199 203 198 202 199 201 203
          201 199 205 203 202 204 205 203 211 212 213 214
          215 187 190 213 188 190 192 178 190 215 192 178
          192 191 190 188 190 177 215 178 215 190 187 177
          190 177 178 185 216 211 213 215 180 215 217 192
          192 215 217 178 180 192 217 178 177 190 187 185
          213 215 187 177 212 218 213 187 211 219 212 214
          211 205 220 214 201 202 204 221 202 222 221 201
          205 211 220 204 206 210 223 209 195 194 223 208
          210 206 224 198 198 224 194 208 224 198 206 208
          206 209 223 208 202 225 198 210 210 221 206 202
          209 195 223 208 225 202 198 199 226 197 199 200
          197 194 193 196 198 194 196 208 194 195 196 208
          194 197 193 200 224 194 197 198 197 224 198 200
          227 199 198 200 205 212 228 214 199 228 201 226
          212 205 228 201 199 229 228 226 205 230 214 228
          228 212 231 214 200 229 199 226 194 224 197 200
          224 206 223 208 227 199 225 198 199 202 201 232
          206 210 224 223 225 210 224 198 210 233 223 209
          194 224 223 208 227 225 224 198 234 194 193 200
          224 227 198 200 229 200 199 227 235 234 193 200
          194 234 224 200 234 227 224 200 235 227 234 200
          199 229 225 236 199 236 228 229 233 225 210 223
          210 225 224 223 232 202 225 199 227 199 229 225
          202 222 201 232 199 228 232 201 228 230 201 205
          214 237 212 231 231 238 239 212 228 231 237 214
          230 240 201 205 239 241 211 213 220 237 219 214
          242 219 241 211 216 243 217 244 213 238 177 245
          181 177 178 244 216 213 242 244 242 213 177 244
          219 239 211 212 237 214 212 219 220 221 240 204
          240 221 222 201 210 222 202 225 240 220 204 205
          240 221 201 204 222 210 202 221 240 204 201 205
          211 216 213 242 211 220 219 214 230 205 214 220
          241 242 211 213 243 180 217 244 215 216 217 244
          177 215 178 244 238 239 212 213 213 218 238 245
          213 177 187 245 218 213 187 245 218 212 213 238
          239 211 212 213 213 216 215 244 177 213 215 244
          217 180 178 244 180 181 178 244 215 217 178 244
          177 179 178 185 179 177 183 185 176 246 177 178
          179 247 183 177 172 170 248 174 170 172 248 171
          247 172 179 183 176 249 172 179 186 250 189 245
          186 250 245 185 177 187 245 185 218 187 189 245