<?xml version="1.0"?>
<VTKFile type="UnstructuredGrid" version="0.1" byte_order="LittleEndian">
  <UnstructuredGrid>
    <Piece NumberOfCells="2228" NumberOfPoints="599">
      <PointData Scalars="boundaryMarker">
        <DataArray type="Float32" Name="boundaryMarker" NumberOfComponents="1" format="ascii">
          3 3 3 4 3 4 0 4 4 4 4 4
          4 4 4 4 4 4 4 4 4 0 4 4
          4 0 4 4 4 0 4 0 4 4 0 4
          4 4 0 4 3 3 4 3 3 3 4 4
          4 4 4 4 4 4 4 4 0 4 0 4
          4 0 0 4 4 4 4 4 4 4 0 0
          0 4 4 0 0 4 4 0 4 4 4 4
          4 0 4 0 4 4 0 4 4 0 0 4
          4 4 0 4 0 4 0 4 4 4 4 0
          4 4 0 0 0 0 0 0 4 4 0 4
          0 0 4 0 0 0 0 4 4 0 0 0
          0 0 4 0 4 4 0 0 4 4 0 0
          4 0 0 0 4 0 4 4 4 4 0 4
          4 0 0 0 0 0 0 4 4 4 4 4
          4 4 4 0 4 4 0 4 4 0 0 4
          4 4 4 4 4 0 4 4 4 4 4 4
          4 2 2 2 4 4 4 4 4 4 4 4
          4 4 4 4 0 2 4 4 4 4 4 4
          4 4 4 4 4 4 4 2 2 4 4 4
          4 4 4 4 4 2 2 2 4 4 4 4
          4 4 4 4 0 0 4 4 0 4 4 4
          4 4 4 4 4 4 4 4 0 0 0 4
          4 4 4 0 0 0 4 4 4 0 4 4
          4 0 0 0 0 0 0 4 4 0 0 4
          4 4 0 4 4 4 4 4 4 4 4 0
          4 4 4 4 4 0 4 4 0 4 0 4
          0 0 4 4 0 4 4 4 0 0 4 4
          0 4 4 4 4 4 4 4 4 4 4 4
          4 4 4 4 4 4 4 1 1 1 1 4
          1 1 4 4 4 4 4 4 4 4 4 4
          4 4 0 4 0 4 0 0 0 0 0 4
          0 0 0 0 0 0 4 4 0 4 0 0
          0 4 4 0 4 0 4 4 0 0 0 4
          4 4 4 4 4 4 0 4 4 4 4 4
          1 4 1 4 4 4 4 4 4 1 4 4
          4 0 4 4 1 4 4 4 1 4 4 4
          4 4 4 4 4 0 0 0 4 4 4 4
          4 4 4 0 4 4 0 4 4 0 4 0
          4 4 0 0 0 4 4 4 4 4 4 1
          4 4 4 4 4 4 4 4 0 4 4 4
          4 0 4 4 0 4 4 4 4 4 4 4
          4 4 4 4 4 4 4 4 0 4 4 0
          4 4 4 4 4 4 4 4 4 2 2 4
          2 4 0 4 4 4 2 4 4 4 4 4
          4 4 4 4 4 4 4 4 0 4 4 0
          4 0 4 4 4 4 0 0 4 4 4 0
          4 4 4 0 4 0 0 0 4 4 4 4
          4 4 4 4 0 4 0 4 4 4 4 4
          4 4 4 4 4 4 4 4 4 4 4 4
          4 3 3 4 3 0 4 4 3 4 4
        </DataArray>
      </PointData>
      <CellData Scalars="elementMarker">
        <DataArray type="Float32" Name="elementMarker" NumberOfComponents="1" format="ascii">
          2 2 2 2 2 2 2 2 2 2 2 2
          2 2 2 2 2 2 2 2 2 2 2 2
          2 2 2 2 2 2 2 2 2 2 2 2
          2 2 2 2 2 2 2 2 2 2 2 2
          2 2 2 2 2 2 2 2 2 2 2 2
          2 2 2 2 2 2 2 2 2 2 2 2
          2 2 2 2 2 2 2 2 2 2 2 2
          2 2 2 2 2 2 2 2 2 2 2 2
          2 2 2 2 2 2 2 2 2 2 2 2
          2 2 2 2 2 2 2 2 2 2 2 2
          2 2 2 2 2 2 2 2 2 2 2 2
          2 2 2 2 2 2 2 1 1 1 1 1
          1 1 1 1 1 1 1 1 1 1 2 2
          2 2 2 2 2 2 2 2 2 2 2 2
          2 2 2 2 2 2 2 2 2 2 2 2
          2 2 2 2 2 2 2 2 2 2 2 2
          2 2 2 2 2 2 2 2 2 2 2 2
          2 2 2 2 2 2 2 2 2 2 2 2
          2 2 2 2 2 2 2 2 2 2 2 2
          2 2 2 2 2 2 2 2 2 2 2 2
          2 2 2 2 2 2 2 2 2 2 2 2
          2 2 2 2 2 2 2 2 2 2 2 2
          2 2 2 2 2 2 2 2 2 2 2 1
          1 1 1 1 1 1 1 1 2 2 1 1
          1 1 1 1 1 1 1 1 2 1 2 2
          2 2 2 2 2 2 2 2 2 2 2 2
          2 2 2 2 2 2 2 2 2 2 2 2
          2 2 2 2 2 2 2 2 2 2 2 2
          2 2 2 2 2 2 2 2 2 2 2 2
          2 2 2 2 2 2 2 2 2 2 2 2
          2 2 2 2 2 2 2 2 2 2 2 2
          2 2 2 2 2 2 2 2 2 2 2 2
          2 2 2 2 2 2 2 2 2 2 2 2
          2 2 2 2 2 2 2 2 2 2 2 2
          2 2 2 2 2 2 2 2 2 2 2 2
          2 2 2 2 2 2 2 2 2 2 2 2
          2 2 2 2 2 2 2 2 2 3 3 3
          3 3 3 3 3 3 3 3 3 3 3 3
          3 3 3 3 3 3 3 3 3 3 3 3
          3 3 3 3 3 3 3 3 3 3 3 3
          3 3 3 3 3 3 3 3 3 3 3 3
          3 3 3 3 3 3 3 3 3 3 3 3
          3 3 3 3 3 3 3 3 3 3 3 3
          3 3 3 3 3 3 3 3 3 3 3 3
          3 3 3 3 3 3 3 3 3 3 3 3
          3 3 3 3 3 3 3 3 3 3 3 3
          3 3 3 3 3 3 3 3 3 3 3 3
          3 3 3 3 3 3 3 3 3 3 3 3
          3 3 3 3 3 3 3 3 3 3 3 3
          3 3 3 3 3 3 3 3 3 3 3 3
          3 3 3 3 3 3 3 3 3 3 3 3
          3 3 3 3 3 3 3 3 3 3 3 3
          3 3 3 3 3 3 3 3 3 3 3 3
          3 3 3 3 3 1 1 1 1 1 1 1
          1 3 1 1 1 1 3 3 3 3 3 3
          3 3 3 3 3 3 3 3 3 3 3 3
          3 3 3 3 3 3 3 3 3 3 3 3
          3 3 3 3 3 3 3 3 3 3 3 3
          3 3 3 3 3 3 3 3 3 1 1 1
          3 1 1 1 1 3 3 3 3 3 3 3
          3 3 3 3 3 3 3 3 3 3 3 3
          3 3 3 3 3 3 3 3 3 3 3 1
          1 1 1 1 1 1 1 1 1 3 3 3
          3 3 3 3 3 3 3 3 3 3 3 3
          3 3 3 3 3 3 3 3 3 3 3 3
          3 3 3 3 3 3 3 3 3 3 3 3
          3 1 1 1 1 1 1 1 1 1 1 1
          1 1 1 1 1 1 1 1 1 1 1 1
          1 1 1 1 1 1 1 1 1 1 1 1
          1 1 1 1 1 1 1 1 1 1 1 1
          1 1 1 1 1 1 1 1 1 1 1 1
          1 1 1 1 1 1 1 1 1 1 1 1
          1 1 1 1 1 1 1 1 1 1 1 1
          1 1 1 1 1 1 1 1 1 1 1 1
          1 1 1 1 1 1 1 1 1 1 1 1
          1 1 1 1 1 1 1 1 1 1 1 1
          1 1 1 1 1 1 1 1 1 1 1 1
          1 1 1 1 1 1 1 1 1 1 1 1
          1 1 1 1 1 1 1 1 1 1 1 1
          1 1 1 1 1 1 1 1 1 1 1 1
          1 1 1 1 1 1 1 1 1 1 1 1
          1 1 1 1 1 1 1 1 1 1 1 1
          1 1 1 1 1 1 1 1 1 1 1 1
          1 1 1 1 1 1 1 1 1 1 1 1
          1 1 1 1 1 1 1 1 1 1 1 1
          1 1 1 1 1 1 1 1 1 1 1 1
          1 1 1 1 1 1 1 1 1 1 1 1
          1 1 1 1 1 1 1 1 1 1 1 1
          1 1 1 1 1 1 1 1 1 1 1 1
          1 1 1 1 1 1 1 1 1 1 1 1
          1 1 1 1 1 1 1 1 1 1 1 1
          1 1 1 1 1 1 1 1 1 1 1 1
          1 1 1 1 1 1 1 1 1 1 1 1
          1 1 1 1 1 1 1 1 1 1 1 1
          1 1 1 1 1 1 1 1 1 1 1 1
          1 1 1 1 1 1 1 1 1 1 1 1
          1 1 1 1 1 1 1 1 1 1 1 1
          1 1 1 1 1 1 1 1 1 1 1 1
          1 1 1 1 1 1 1 1 1 1 1 1
          1 1 1 1 1 1 1 1 1 1 1 1
          1 1 1 1 1 1 1 1 1 1 1 1
          1 1 1 1 1 1 1 1 1 1 1 1
          1 1 1 1 1 1 1 1 1 1 1 1
          1 1 1 1 1 1 1 1 1 1 1 1
          1 1 1 1 1 1 1 1 1 1 1 1
          1 1 1 1 1 1 1 1 1 1 1 1
          1 1 1 1 1 1 1 1 1 1 1 1
          1 1 1 1 1 1 1 1 1 1 1 1
          1 1 1 1 1 1 1 1 1 1 1 1
          1 1 1 1 1 1 1 1 1 1 1 1
          1 1 1 1 1 1 1 1 1 1 1 1
          1 1 1 1 1 1 1 1 1 1 1 1
          1 1 1 1 1 1 1 1 1 1 1 1
          1 1 1 1 1 1 1 1 1 1 1 1
          1 1 1 1 1 1 1 1 1 1 1 1
          1 1 1 1 1 1 1 1 1 1 1 1
          1 1 1 1 1 1 1 1 1 1 1 1
          1 1 1 1 1 1 1 1 1 1 1 1
          1 1 1 1 1 1 1 1 1 1 1 1
          1 1 1 1 1 1 1 1 1 1 1 1
          1 1 1 1 1 1 1 1 1 3 3 3
          3 3 3 3 3 3 3 3 3 3 3 3
          3 3 3 3 3 3 3 3 3 3 3 3
          3 3 3 3 3 3 3 3 3 3 1 1
          1 1 1 1 1 1 1 1 1 1 3 3
          3 3 3 3 3 3 3 3 3 3 3 3
          3 3 3 3 3 3 3 3 3 3 3 3
          3 3 3 3 3 1 1 3 1 1 1 1
          1 3 3 3 3 3 3 3 3 3 3 3
          3 3 3 3 3 3 3 3 3 3 3 3
          3 3 3 3 3 3 3 3 3 3 3 3
          3 3 3 3 3 3 3 3 3 3 1 1
          1 1 1 1 1 3 1 1 1 1 3 3
          3 3 3 3 3 3 3 3 3 3 3 3
          3 3 3 3 3 3 3 3 3 3 3 3
          3 3 3 3 3 3 3 3 3 3 3 3
          3 3 3 3 3 3 3 3 3 3 3 3
          3 3 3 3 3 3 3 3 3 3 3 3
          3 3 3 3 3 3 3 3 3 3 3 3
          3 3 3 3 3 3 3 3 3 3 3 3
          3 3 3 3 3 3 3 3 3 3 3 3
          3 3 3 3 3 3 3 3 3 3 3 3
          3 3 3 3 3 3 3 3 3 3 3 3
          3 3 3 3 3 3 3 3 3 3 3 3
          3 3 3 3 3 3 3 3 3 3 3 3
          3 3 3 3 3 3 3 3 3 3 3 3
          3 3 3 3 3 3 3 3 3 3 3 3
          3 3 3 3 3 3 3 3 3 3 3 3
          3 3 3 3 3 3 2 2 2 2 2 2
          2 2 2 2 2 2 2 2 2 2 2 2
          2 2 2 2 2 2 2 2 2 2 2 2
          2 2 2 2 2 2 2 2 2 2 2 2
          2 2 2 2 2 2 2 2 2 2 2 2
          2 2 2 2 2 2 2 2 2 2 2 2
          2 2 2 2 2 2 2 2 2 2 2 2
          2 2 2 2 2 2 2 2 2 2 2 2
          2 2 2 2 2 2 2 2 2 2 2 2
          2 2 2 2 2 2 2 2 2 2 2 2
          2 2 2 2 2 2 2 2 2 2 2 2
          2 2 2 2 2 2 2 2 2 2 2 2
          2 2 2 2 2 2 2 2 2 2 2 1
          2 1 1 1 1 1 1 1 2 1 2 1
          1 1 1 1 1 2 2 2 2 2 2 2
          2 2 2 2 2 2 2 2 2 2 2 2
          2 2 2 2 2 2 2 2 2 2 2 2
          2 2 2 2 2 2 2 2 2 2 2 2
          2 2 2 2 2 2 2 2 2 2 2 2
          2 2 2 2 2 2 2 2 2 2 2 2
          2 2 2 2 2 2 2 2 2 2 2 2
          2 2 2 2 2 2 2 2 2 2 2 2
          2 2 2 2 2 2 2 2 2 2 2 2
          2 2 2 2 2 2 2 2 2 2 2 2
          2 2 2 2 2 2 2 2 2 2 2 2
          2 2 2 2 2 1 1 1 1 1 1 1
          1 1 1 1 1 1 2 2 2 2 2 2
          2 2 2 2 2 2 2 2 2 2 2 2
          2 2 2 2 2 2 2 2 2 2 2 2
          2 2 2 2 2 2 2 2 2 2 2 2
          2 2 2 2 2 2 2 2 2 2 2 2
          2 2 2 2 2 2 2 2 2 2 2 2
          2 2 2 2 2 2 2 2 2 2 2 2
          2 2 2 2 2 2 2 2 2 2 2 2
          2 2 2 2 2 2 2 2 2 2 2 2
          2 2 2 2 2 2 2 2 2 2 2 2
          2 2 2 2 2 2 2 2 2 2 2 2
          2 2 2 2 2 2 2 2
        </DataArray>
        <DataArray type="Float32" Name="rank" NumberOfComponents="1" format="ascii">
          0 0 0 0 0 0 0 0 0 0 0 0
          0 0 0 0 0 0 0 0 0 0 0 0
          0 0 0 0 0 0 0 0 0 0 0 0
          0 0 0 0 0 0 0 0 0 0 0 0
          0 0 0 0 0 0 0 0 0 0 0 0
          0 0 0 0 0 0 0 0 0 0 0 0
          0 0 0 0 0 0 0 0 0 0 0 0
          0 0 0 0 0 0 0 0 0 0 0 0
          0 0 0 0 0 0 0 0 0 0 0 0
          0 0 0 0 0 0 0 0 0 0 0 0
          0 0 0 0 0 0 0 0 0 0 0 0
          0 0 0 0 0 0 0 0 0 0 0 0
          0 0 0 0 0 0 0 0 0 0 0 0
          0 0 0 0 0 0 0 0 0 0 0 0
          0 0 0 0 0 0 0 0 0 0 0 0
          0 0 0 0 0 0 0 0 0 0 0 0
          0 0 0 0 0 0 0 0 0 0 0 0
          0 0 0 0 0 0 0 0 0 0 0 0
          0 0 0 0 0 0 0 0 0 0 0 0
          0 0 0 0 0 0 0 0 0 0 0 0
          0 0 0 0 0 0 0 0 0 0 0 0
          0 0 0 0 0 0 0 0 0 0 0 0
          0 0 0 0 0 0 0 0 0 0 0 0
          0 0 0 0 0 0 0 0 0 0 0 0
          0 0 0 0 0 0 0 0 0 0 0 0
          0 0 0 0 0 0 0 0 0 0 0 0
          0 0 0 0 0 0 0 0 0 0 0 0
          0 0 0 0 0 0 0 0 0 0 0 0
          0 0 0 0 0 0 0 0 0 0 0 0
          0 0 0 0 0 0 0 0 0 0 0 0
          0 0 0 0 0 0 0 0 0 0 0 0
          0 0 0 0 0 0 0 0 0 0 0 0
          0 0 0 0 0 0 0 0 0 0 0 0
          0 0 0 0 0 0 0 0 0 0 0 0
          0 0 0 0 0 0 0 0 0 0 0 0
          0 0 0 0 0 0 0 0 0 0 0 0
          0 0 0 0 0 0 0 0 0 0 0 0
          0 0 0 0 0 0 0 0 0 0 0 0
          0 0 0 0 0 0 0 0 0 0 0 0
          0 0 0 0 0 0 0 0 0 0 0 0
          0 0 0 0 0 0 0 0 0 0 0 0
          0 0 0 0 0 0 0 0 0 0 0 0
          0 0 0 0 0 0 0 0 0 0 0 0
          0 0 0 0 0 0 0 0 0 0 0 0
          0 0 0 0 0 0 0 0 0 0 0 0
          0 0 0 0 0 0 0 0 0 0 0 0
          0 0 0 0 0 0 0 0 0 0 0 0
          0 0 0 0 0 0 0 0 0 0 0 0
          0 0 0 0 0 0 0 0 0 0 0 0
          0 0 0 0 0 0 0 0 0 0 0 0
          0 0 0 0 0 0 0 0 0 0 0 0
          0 0 0 0 0 0 0 0 0 0 0 0
          0 0 0 0 0 0 0 0 0 0 0 0
          0 0 0 0 0 0 0 0 0 0 0 0
          0 0 0 0 0 0 0 0 0 0 0 0
          0 0 0 0 0 0 0 0 0 0 0 0
          0 0 0 0 0 0 0 0 0 0 0 0
          0 0 0 0 0 0 0 0 0 0 0 0
          0 0 0 0 0 0 0 0 0 0 0 0
          0 0 0 0 0 0 0 0 0 0 0 0
          0 0 0 0 0 0 0 0 0 0 0 0
          0 0 0 0 0 0 0 0 0 0 0 0
          0 0 0 0 0 0 0 0 0 0 0 0
          0 0 0 0 0 0 0 0 0 0 0 0
          0 0 0 0 0 0 0 0 0 0 0 0
          0 0 0 0 0 0 0 0 0 0 0 0
          0 0 0 0 0 0 0 0 0 0 0 0
          0 0 0 0 0 0 0 0 0 0 0 0
          0 0 0 0 0 0 0 0 0 0 0 0
          0 0 0 0 0 0 0 0 0 0 0 0
          0 0 0 0 0 0 0 0 0 0 0 0
          0 0 0 0 0 0 0 0 0 0 0 0
          0 0 0 0 0 0 0 0 0 0 0 0
          0 0 0 0 0 0 0 0 0 0 0 0
          0 0 0 0 0 0 0 0 0 0 0 0
          0 0 0 0 0 0 0 0 0 0 0 0
          0 0 0 0 0 0 0 0 0 0 0 0
          0 0 0 0 0 0 0 0 0 0 0 0
          0 0 0 0 0 0 0 0 0 0 0 0
          0 0 0 0 0 0 0 0 0 0 0 0
          0 0 0 0 0 0 0 0 0 0 0 0
          0 0 0 0 0 0 0 0 0 0 0 0
          0 0 0 0 0 0 0 0 0 0 0 0
          0 0 0 0 0 0 0 0 0 0 0 0
          0 0 0 0 0 0 0 0 0 0 0 0
          0 0 0 0 0 0 0 0 0 0 0 0
          0 0 0 0 0 0 0 0 0 0 0 0
          0 0 0 0 0 0 0 0 0 0 0 0
          0 0 0 0 0 0 0 0 0 0 0 0
          0 0 0 0 0 0 0 0 0 0 0 0
          0 0 0 0 0 0 0 0 0 0 0 0
          0 0 0 0 0 0 0 0 0 0 0 0
          0 0 0 0 0 0 0 0 0 0 0 0
          0 0 0 0 0 0 0 0 0 0 0 0
          0 0 0 0 0 0 0 0 0 0 0 0
          0 0 0 0 0 0 0 0 0 0 0 0
          0 0 0 0 0 0 0 0 0 0 0 0
          0 0 0 0 0 0 0 0 0 0 0 0
          0 0 0 0 0 0 0 0 0 0 0 0
          0 0 0 0 0 0 0 0 0 0 0 0
          0 0 0 0 0 0 0 0 0 0 0 0
          0 0 0 0 0 0 0 0 0 0 0 0
          0 0 0 0 0 0 0 0 0 0 0 0
          0 0 0 0 0 0 0 0 0 0 0 0
          0 0 0 0 0 0 0 0 0 0 0 0
          0 0 0 0 0 0 0 0 0 0 0 0
          0 0 0 0 0 0 0 0 0 0 0 0
          0 0 0 0 0 0 0 0 0 0 0 0
          0 0 0 0 0 0 0 0 0 0 0 0
          0 0 0 0 0 0 0 0 0 0 0 0
          0 0 0 0 0 0 0 0 0 0 0 0
          0 0 0 0 0 0 0 0 0 0 0 0
          0 0 0 0 0 0 0 0 0 0 0 0
          0 0 0 0 0 0 0 0 0 0 0 0
          0 0 0 0 0 0 0 0 0 0 0 0
          0 0 0 0 0 0 0 0 0 0 0 0
          0 0 0 0 0 0 0 0 0 0 0 0
          0 0 0 0 0 0 0 0 0 0 0 0
          0 0 0 0 0 0 0 0 0 0 0 0
          0 0 0 0 0 0 0 0 0 0 0 0
          0 0 0 0 0 0 0 0 0 0 0 0
          0 0 0 0 0 0 0 0 0 0 0 0
          0 0 0 0 0 0 0 0 0 0 0 0
          0 0 0 0 0 0 0 0 0 0 0 0
          0 0 0 0 0 0 0 0 0 0 0 0
          0 0 0 0 0 0 0 0 0 0 0 0
          0 0 0 0 0 0 0 0 0 0 0 0
          0 0 0 0 0 0 0 0 0 0 0 0
          0 0 0 0 0 0 0 0 0 0 0 0
          0 0 0 0 0 0 0 0 0 0 0 0
          0 0 0 0 0 0 0 0 0 0 0 0
          0 0 0 0 0 0 0 0 0 0 0 0
          0 0 0 0 0 0 0 0 0 0 0 0
          0 0 0 0 0 0 0 0 0 0 0 0
          0 0 0 0 0 0 0 0 0 0 0 0
          0 0 0 0 0 0 0 0 0 0 0 0
          0 0 0 0 0 0 0 0 0 0 0 0
          0 0 0 0 0 0 0 0 0 0 0 0
          0 0 0 0 0 0 0 0 0 0 0 0
          0 0 0 0 0 0 0 0 0 0 0 0
          0 0 0 0 0 0 0 0 0 0 0 0
          0 0 0 0 0 0 0 0 0 0 0 0
          0 0 0 0 0 0 0 0 0 0 0 0
          0 0 0 0 0 0 0 0 0 0 0 0
          0 0 0 0 0 0 0 0 0 0 0 0
          0 0 0 0 0 0 0 0 0 0 0 0
          0 0 0 0 0 0 0 0 0 0 0 0
          0 0 0 0 0 0 0 0 0 0 0 0
          0 0 0 0 0 0 0 0 0 0 0 0
          0 0 0 0 0 0 0 0 0 0 0 0
          0 0 0 0 0 0 0 0 0 0 0 0
          0 0 0 0 0 0 0 0 0 0 0 0
          0 0 0 0 0 0 0 0 0 0 0 0
          0 0 0 0 0 0 0 0 0 0 0 0
          0 0 0 0 0 0 0 0 0 0 0 0
          0 0 0 0 0 0 0 0 0 0 0 0
          0 0 0 0 0 0 0 0 0 0 0 0
          0 0 0 0 0 0 0 0 0 0 0 0
          0 0 0 0 0 0 0 0 0 0 0 0
          0 0 0 0 0 0 0 0 0 0 0 0
          0 0 0 0 0 0 0 0 0 0 0 0
          0 0 0 0 0 0 0 0 0 0 0 0
          0 0 0 0 0 0 0 0 0 0 0 0
          0 0 0 0 0 0 0 0 0 0 0 0
          0 0 0 0 0 0 0 0 0 0 0 0
          0 0 0 0 0 0 0 0 0 0 0 0
          0 0 0 0 0 0 0 0 0 0 0 0
          0 0 0 0 0 0 0 0 0 0 0 0
          0 0 0 0 0 0 0 0 0 0 0 0
          0 0 0 0 0 0 0 0 0 0 0 0
          0 0 0 0 0 0 0 0 0 0 0 0
          0 0 0 0 0 0 0 0 0 0 0 0
          0 0 0 0 0 0 0 0 0 0 0 0
          0 0 0 0 0 0 0 0 0 0 0 0
          0 0 0 0 0 0 0 0 0 0 0 0
          0 0 0 0 0 0 0 0 0 0 0 0
          0 0 0 0 0 0 0 0 0 0 0 0
          0 0 0 0 0 0 0 0 0 0 0 0
          0 0 0 0 0 0 0 0 0 0 0 0
          0 0 0 0 0 0 0 0 0 0 0 0
          0 0 0 0 0 0 0 0 0 0 0 0
          0 0 0 0 0 0 0 0 0 0 0 0
          0 0 0 0 0 0 0 0 0 0 0 0
          0 0 0 0 0 0 0 0 0 0 0 0
          0 0 0 0 0 0 0 0 0 0 0 0
          0 0 0 0 0 0 0 0
        </DataArray>
      </CellData>
      <Points>
        <DataArray type="Float32" Name="Coordinates" NumberOfComponents="3" format="ascii">
          -8.66025 -5 -1 -8.58549 -5.1295 -0.399992 -8.3067 -5.61237 -0.707107 -8.13315 -5.13756 -0.92388
          -9.01381 -4.38763 -0.707107 -8.51583 -4.47473 -0.92388 -8.55456 -4.71026 -0.659101 -8.39657 -4.16662 -0.807487
          -8.04166 -4.64286 -1 -7.65402 -3.96127 -0.918054 -8.5182 -3.84489 -0.369257 -6.80449 -3.92857 -1
          -7.42307 -4.28571 -1 -7.25367 -3.36915 -0.705142 -7.25757 -4.64795 -0.918054 -6.5446 -4.59729 -0.705142
          -7.88094 -3.56203 -0.517542 -4.37342 -2.95988 -0.926367 -4.33013 -2.5 -1 -4.94872 -2.85714 -1
          -4.75004 -2.30755 -0.926367 -4.90585 -2.63516 -0.4166 -5.40436 -2.30809 -0.710878 -5.56731 -3.21429 -1
          -4.70104 -3.52627 -0.710878 -4.47032 -2.9933 -0.369927 -6.19998 -2.7647 -0.708518 -7.27712 -3.04675 0
          -6.1859 -3.57143 -1 -5.60346 -3.20684 -0.021189 -5.49429 -3.98699 -0.708518 -4.43481 -2.35365 -0.493816
          -4.67767 -1.88992 -0.712064 -5.11286 -1.88648 -0.385542 -4.79326 -2.21063 -0.170539 -6.27712 -4.7788 0
          -7.02528 -5.04408 -0.517542 -7.80668 -5.18833 -0.807487 -7.88134 -4.65836 -0.0458852 -6.90483 -5.14121 0
          -8.8609 -4.65247 -0.166223 -8.67117 -4.98109 -0.00904254 -7.58887 -5.45453 -0.369257 -8.16025 -5.86603 0
          -9.16025 -4.13397 0 -8.46196 -5.34346 0.164274 -8.5182 -3.84489 0.369257 -8.53254 -3.77156 0
          -7.88094 -3.56203 0.517542 -7.25367 -3.36915 0.705142 -7.53254 -5.50362 0 -7.02528 -5.04408 0.517542
          -5.64941 -4.41639 0 -5.02169 -4.05398 0 -6.1859 -3.57143 1 -6.80449 -3.92857 1
          -4.8944 -3.3755 -0.0268854 -4.39398 -3.69157 0 -4.44395 -2.56572 -0.0003167 -5.39398 -1.95952 0
          -6.64941 -2.68434 0 -4.7128 -2.9799 0.39383 -5.24907 -2.62032 0.216038 -4.76627 -1.59711 0
          -6.02169 -2.32193 0 -7.90483 -3.40916 0 -4.40452 -1.49013 -0.410708 -0.845265 2.54639 -0.534348
          -0.851073 1.39941 -0.525047 -0.453062 1.92964 -0.891479 -0.513903 1.71429 -0.205164 -0.0151015 1.78571 -0.558093
          -0.206847 2.28698 -0.370939 -0.430241 1.17593 -0.902714 0 1.42857 -1 -0.302722 1.12263 -0.239657
          0.300145 1.24202 -0.307438 0 0.714286 -1 -0.681429 0.393423 -0.731884 0 0 0
          0 0 -1 0 2.14286 -1 -3.09295 -1.78571 -1 -2.47436 -1.42857 -1
          -2.58137 -1.09296 -0.938914 -2.86122 -1.34419 -0.627323 -1.85577 -1.07143 -1 -2.25565 -0.907441 -0.656288
          -3.71154 -2.14286 -1 -3.30972 -1.32172 -0.860045 -3.09814 -1.79135 -0.456595 -2.23722 -1.68905 -0.938914
          -2.7995 -2.20544 -0.860045 -2.60775 -1.66379 -0.470266 -2.1496 -1.35551 -0.576133 -2.62787 -0.541172 -0.534348
          -1.89765 -0.572457 -0.891479 -1.23718 -0.714286 -1 -1.60505 -1.24303 -0.358467 -1.23351 -0.215366 -0.902714
          -1.7256 -0.495667 -0.35844 -0.61859 -0.357143 -1 -0.952785 -0.531194 -0.452215 0 -0.786847 -0.731884
          -0.803266 -0.960566 -0.902714 -1.44459 -1.35718 -0.891479 -1.7826 -2.00521 -0.534348 -2.07859 -0.933834 -0.303314
          -0.786389 -1.43676 -0.525047 -1.63746 0.0373457 -0.525047 -0.626289 -0.57735 0.148162 -1.11032 -1.2657 -0.108323
          -1.96758 -1.66797 -0.175486 -2.34799 -2.05114 -0.394828 -3.11325 -1.36052 -0.125683 -2.73241 -1.05578 -0.359596
          -3.57889 -0.996652 -0.376735 -4.03703 -1.614 -0.784006 -3.64994 -1.55659 -0.293263 -4.3099 -2.06826 -0.931485
          -4.14212 -1.87882 -0.155654 -3.82496 -2.25121 -0.409516 -2.88314 -0.509879 0 -2.55649 -0.914991 0.147747
          -2.48819 -1.43166 0.00273206 -2.27207 -1.9563 0.028407 -3.35038 -1.94381 -2.77556e-16 -4.13856 -1.2347 0
          -3.51085 -0.872288 0 -3.62295 -1.58095 0.370696 -3.28946 -1.31125 0.274073 -2.85877 -1.65205 0.0793049
          -2.72546 -2.01333 -0.129202 -3.00076 -0.982229 0.0775859 -2.25542 -0.147469 0 1.11022e-16 1.67911 1.88405e-13
          -1 2.02699 0 -1 0.57735 0 0.18195 0.839553 0.139433 -1.18894 -0.246274 0.144793
          -1.62771 0.214941 0 -1 1.30217 0 -0.314424 2.12661 0.31749 -0.286275 1.24182 0.372649
          0 -1.1547 0 -1.43869 -0.830629 -0.00472802 -2.06929 -0.737152 0.301538 -1.88469 -1.33131 0.239347
          -1.25542 -1.87952 0 -1.27613 -1.26763 0.347012 -0.627712 -1.51711 0 -2.65257 -2.60109 -0.376735
          -1.88314 -2.24193 0 -2.51085 -2.60434 0 -3.22273 -2.4179 -0.264685 -3.13856 -2.96675 0
          -3.49275 -3.06936 -0.410708 -3.86438 -2.70503 0.102436 -2.77367 -2.19262 0.269087 -3.95886 -2.14644 0.31439
          -4.49948 -2.04633 0.203824 -4.26296 -3.04547 0.108699 -4.03001 -2.78459 -0.349333 -4.19017 -3.48463 -0.385542
          -3.76627 -3.32916 0 -3.41628 -2.68917 -0.784006 -3.97555 -3.10602 -0.712064 -3.94612 -2.69835 -0.931485
          2.23722 -1.68905 -0.938914 1.7826 -2.00521 -0.534348 2.7995 -2.20544 -0.860045 2.06267 -1.79586 -0.260092
          2.65257 -2.60109 -0.376735 3.09295 -1.78571 -1 2.88721 -1.45736 -0.144383 3.71154 -2.14286 -1
          4.03703 -1.614 -0.784006 4.58583 -2.65929 0.0116875 4.5005 -2.3058 -0.566273 3.41628 -2.68917 -0.784006
          4.67767 -1.88992 -0.712064 4.40452 -1.49013 -0.410708 4.3099 -2.06826 -0.931485 3.49275 -3.06936 -0.410708
          3.94612 -2.69835 -0.931485 4.28728 -2.89837 -0.531442 3.97555 -3.10602 -0.712064 4.70104 -3.52627 -0.710878
          4.37342 -2.95988 -0.926367 4.19017 -3.48463 -0.385542 4.94872 -2.85714 -1 4.33013 -2.5 -1
          4.75004 -2.30755 -0.926367 8.3067 -5.61237 -0.707107 8.58664 -5.12751 -0.400944 8.66025 -5 -1
          8.13315 -5.13756 -0.92388 7.80668 -5.18833 -0.807487 8.04166 -4.64286 -1 7.25757 -4.64795 -0.918054
          7.58887 -5.45453 -0.369257 6.5446 -4.59729 -0.705142 7.65402 -3.96127 -0.918054 7.42307 -4.28571 -1
          7.25367 -3.36915 -0.705142 6.80449 -3.92857 -1 8.39657 -4.16662 -0.807487 8.51583 -4.47473 -0.92388
          8.55455 -4.71008 -0.658653 9.01381 -4.38763 -0.707107 8.5182 -3.84489 -0.369257 6.19998 -2.7647 -0.708518
          5.49429 -3.98699 -0.708518 5.56731 -3.21429 -1 6.1859 -3.57143 -1 5.40436 -2.30809 -0.710878
          5.39398 -1.95952 0 5.11286 -1.88648 -0.385542 4.39398 -3.69157 0 6.64941 -2.68434 0
          7.27712 -3.04675 0 7.88094 -3.56203 -0.517542 7.90483 -3.40916 0 8.8609 -4.65247 -0.166223
          8.66887 -4.98507 -0.00713885 8.53254 -3.77156 0 7.02528 -5.04408 -0.517542 7.53254 -5.50362 0
          6.27712 -4.7788 0 6.90483 -5.14121 0 6.80449 -3.92857 1 5.64941 -4.41639 0
          7.42307 -4.28571 1 9.16025 -4.13397 0 8.46196 -5.34346 0.164274 8.16025 -5.86603 0
          7.25757 -4.64795 0.918054 6.1859 -3.57143 1 5.02169 -4.05398 0 5.49429 -3.98699 0.708518
          7.25367 -3.36915 0.705142 6.19998 -2.7647 0.708518 6.02169 -2.32193 0 4.76627 -1.59711 0
          5.02788 -2.25903 0.00202121 4.26876 -3.09274 3.90005e-16 4.13856 -1.2347 0 3.13856 -2.96675 0
          2.49311 -1.53814 0.156154 2.65257 -2.60109 0.376735 3.76627 -3.32916 0 1.88314 -2.24193 0
          2.51085 -2.60434 0 1.25542 -1.87952 0 3.49275 -3.06936 0.410708 3.41628 -2.68917 0.784006
          4.40452 -1.49013 0.410708 3.51085 -0.872288 0 3.57889 -0.996652 0.376735 3.57889 -0.996652 -0.376735
          2.07867 -0.754597 0.121286 2.17882 -1.22617 -0.548072 2.4151 -0.897494 -0.235988 2.88314 -0.509879 0
          2.25542 -0.147469 0 2.62787 -0.541172 -0.534348 1 2.02699 0 0.447845 1.66543 0.287826
          0.36311 2.24654 -0.0138165 0.509221 1.81047 -0.334074 1 1.30217 0 1 0.57735 0
          0.681429 0.393423 -0.731884 1.1159 -0.288894 -0.238302 0.851073 1.39941 -0.525047 1.62771 0.214941 0
          1.63746 0.0373457 -0.525047 1.73111 -0.467206 -0.292133 1.65474 -1.04356 -0.478836 1.45154 -0.830092 -0.00350165
          1.25915 -0.378394 0.331638 1.68829 -1.41683 0.160473 1.24541 -1.33102 -0.19569 0.627712 -1.51711 0
          0.786389 -1.43676 -0.525047 0.621551 -0.610158 0.108861 1.03662 -0.804456 -0.489081 0.61859 -0.357143 -1
          0.803266 -0.960566 -0.902714 1.44459 -1.35718 -0.891479 1.83063 -1.46069 -0.622945 1.89765 -0.572457 -0.891479
          1.23351 -0.215366 -0.902714 0.845265 2.54639 -0.534348 2.47436 -1.42857 -1 2.58137 -1.09296 -0.938914
          3.30972 -1.32172 -0.860045 0.430241 1.17593 -0.902714 0.453062 1.92964 -0.891479 0.201714 2.47215 -0.537596
          1.23718 -0.714286 -1 1.85577 -1.07143 -1 0 4.28571 -1 0.510217 3.52716 -0.860045
          0.620753 4.30317 -0.784006 0.413038 3.89595 -0.404302 0 3.57143 -1 0.344151 2.78201 -0.938914
          0.120764 3.06015 -0.539837 0 2.85714 -1 0.564469 3.07365 -0.447261 0.926321 3.59774 -0.376735
          0.0870607 3.53242 -0.509679 -0.0640872 4.36503 -0.435114 0.702114 4.99594 -0.712064 0.363781 4.76662 -0.931485
          0.333864 4.83193 -0.440079 0 5 -1 0.911767 4.55949 -0.410708 0.376622 5.26743 -0.926367
          0.314325 5.30782 -0.315177 -0.314325 5.30782 -0.315177 0 5.71429 -1 0.703315 5.83435 -0.710878
          0.0204643 6.1319 -0.026878 0.92269 5.37111 -0.385542 0 6.42857 -1 -0.376622 5.26743 -0.926367
          0.705692 6.75169 -0.708518 0 7.85714 -1 1 7.82554 0 0.709066 7.96644 -0.705142
          -0.705692 6.75169 -0.708518 0 7.14286 -1 0.929327 9.29942 -0.369257 0.589885 9.35495 -0.807487
          0.855658 8.60611 -0.517542 0.396455 8.60921 -0.918054 1 9.27518 0 0 9.28571 -1
          0 8.57143 -1 -0.396455 8.60921 -0.918054 0.382683 9.6123 -0.92388 0.707107 10 -0.707107
          0.460948 10 -0.135702 -0.12893 10 -0.449991 -0.021766 10 0.0813301 -0.709066 7.96644 -0.705142
          0 10 -1 1 10 0 1 8.55036 0 0.929327 9.29942 0.369257
          0.855658 8.60611 0.517542 -0.929327 9.29942 -0.369257 -0.855658 8.60611 0.517542 -1 7.82554 0
          0 7.85714 1 1 5.65108 0 1 7.10072 0 0 7.14286 1
          0.705692 6.75169 0.708518 1 6.3759 0 0.433642 5.49231 0.205918 1 4.92627 0
          0.467654 4.95858 0.195885 0.92269 5.37111 0.385542 0.0113663 5.22806 0.4008 5.55112e-17 4.82508 -0.0978545
          0.418226 4.41395 -0.127744 0.0144937 3.9236 0.0356374 0.513298 4.03989 0.306896 1 4.20145 0
          0.620785 3.71937 -0.0433692 -0.445562 3.94655 -0.341054 0.357978 3.36077 -0.126723 0.465493 2.83806 -0.202152
          -0.298195 3.38081 -0.230205 0.00107311 2.81466 -1.2057e-13 1 2.75181 0 1 3.47663 0
          0.492592 2.91833 0.246392 -1 2.75181 0 -0.493499 2.68824 0.131299 -0.401382 2.85358 -0.386868
          -0.632218 3.11715 -0.310359 -1 4.20145 0 -0.926321 3.59774 -0.376735 -0.559055 3.58908 0.0926513
          -1 3.47663 0 -0.556564 3.12248 0.275189 -1 4.92627 0 -0.911767 4.55949 -0.410708
          -0.399038 4.38707 0.0989466 -0.464877 4.99015 0.191635 -0.439184 4.74826 -0.360892 -1 5.65108 0
          -0.92269 5.37111 -0.385542 -0.92269 5.37111 0.385542 -0.702114 4.99594 -0.712064 -0.703315 5.83435 -0.710878
          -0.620753 4.30317 -0.784006 -0.510217 3.52716 -0.860045 -0.229202 3.20567 -0.659987 -0.344151 2.78201 -0.938914
          -0.363781 4.76662 -0.931485 -1 7.10072 0 -0.382683 9.6123 -0.92388 -0.589885 9.35495 -0.807487
          -0.707107 10 -0.707107 -0.855658 8.60611 -0.517542 -1 10 0 -1 8.55036 0
          -0.929327 9.29942 0.369257 -1 6.3759 0 -0.705692 6.75169 0.708518 0 9.28571 1
          -1 9.27518 0 -0.202369 10 0.488562 0 8.57143 1 -0.709066 7.96644 0.705142
          0.709066 7.96644 0.705142 -0.427545 5.73785 0.35972 -0.703315 5.83435 0.710878 -0.589885 9.35495 0.807487
          -0.707107 10 0.707107 0.396455 8.60921 0.918054 -0.396455 8.60921 0.918054 -0.382683 9.6123 0.92388
          0 10 1 0.382683 9.6123 0.92388 0 6.42857 1 0 5.71429 1
          -0.376622 5.26743 0.926367 -0.363781 4.76662 0.931485 -0.702114 4.99594 0.712064 -0.911767 4.55949 0.410708
          -0.620753 4.30317 0.784006 0.140906 4.48146 0.413443 -0.426505 3.89515 0.415781 0.0880555 3.92857 0.596131
          0 5 1 0 4.28571 1 0.376622 5.26743 0.926367 0.363781 4.76662 0.931485
          -0.510217 3.52716 0.860045 0 3.57143 1 -0.344151 2.78201 0.938914 -0.148667 3.04214 0.605559
          0 2.85714 1 0 2.14286 1 0.0243367 2.60799 0.496481 -0.453062 1.92964 0.891479
          -0.845265 2.54639 0.534348 -0.0593809 3.34745 0.383088 -0.926321 3.59774 0.376735 0.421452 3.5193 0.355298
          0.926321 3.59774 0.376735 0.845265 2.54639 0.534348 0.32182 3.13404 0.584956 0.310886 2.30455 0.529283
          0.0157742 1.78571 0.558093 0.510217 3.52716 0.860045 0.911767 4.55949 0.410708 0.702114 4.99594 0.712064
          0.620753 4.30317 0.784006 0.703315 5.83435 0.710878 0.589885 9.35495 0.807487 0.707107 10 0.707107
          0.344151 2.78201 0.938914 0.453062 1.92964 0.891479 0 1.42857 1 0.430241 1.17593 0.902714
          0 0.714286 1 1.85577 -1.07143 1 2.47436 -1.42857 1 2.23722 -1.68905 0.938914
          2.1466 -1.13397 0.566405 2.58137 -1.09296 0.938914 1.89765 -0.572457 0.891479 1.23718 -0.714286 1
          1.23351 -0.215366 0.902714 1.53893 -0.905927 0.555245 1.44459 -1.35718 0.891479 0.803266 -0.960566 0.902714
          1.83825 -1.3964 0.597356 0.61859 -0.357143 1 0.681429 0.393423 0.731884 0 0 1
          0 -0.786847 0.731884 0.786389 -1.43676 0.525047 2.62787 -0.541172 0.534348 1.63746 0.0373457 0.525047
          1.7826 -2.00521 0.534348 0.851073 1.39941 0.525047 3.09295 -1.78571 1 2.7995 -2.20544 0.860045
          3.30972 -1.32172 0.860045 3.71154 -2.14286 1 4.03703 -1.614 0.784006 4.3099 -2.06826 0.931485
          4.49567 -2.3156 0.573061 4.67767 -1.88992 0.712064 5.11286 -1.88648 0.385542 4.28514 -2.90254 0.536672
          4.19017 -3.48463 0.385542 3.97555 -3.10602 0.712064 4.70104 -3.52627 0.710878 5.40436 -2.30809 0.710878
          5.56731 -3.21429 1 7.65402 -3.96127 0.918054 8.5182 -3.84489 0.369257 7.88094 -3.56203 0.517542
          8.04166 -4.64286 1 9.01381 -4.38763 0.707107 8.74996 -4.84463 0.387618 7.58887 -5.45453 0.369257
          8.3067 -5.61237 0.707107 7.80668 -5.18833 0.807487 8.36161 -5.04577 0.653208 8.39657 -4.16662 0.807487
          7.02528 -5.04408 0.517542 6.5446 -4.59729 0.705142 8.66025 -5 1 8.51583 -4.47473 0.92388
          4.94872 -2.85714 1 4.75004 -2.30755 0.926367 4.37342 -2.95988 0.926367 4.33013 -2.5 1
          8.13315 -5.13756 0.92388 3.94612 -2.69835 0.931485 -4.3099 -2.06826 0.931485 -3.71154 -2.14286 1
          -4.33013 -2.5 1 -3.94612 -2.69835 0.931485 -3.09295 -1.78571 1 -2.7995 -2.20544 0.860045
          -3.17069 -2.33549 0.391814 -3.41628 -2.68917 0.784006 -4.37342 -2.95988 0.926367 -4.25575 -2.66378 0.493503
          -4.75004 -2.30755 0.926367 -4.6863 -2.42795 0.453008 -4.03703 -1.614 0.784006 -3.97555 -3.10602 0.712064
          -1.7826 -2.00521 0.534348 -2.23722 -1.68905 0.938914 -2.40267 -1.80503 0.446652 -2.35762 -2.14822 0.396183
          -4.19017 -3.48463 0.385542 -4.70104 -3.52627 0.710878 -3.49275 -3.06936 0.410708 -3.07135 -1.76411 0.445394
          -2.65257 -2.60109 0.376735 -4.67767 -1.88992 0.712064 -0.803266 -0.960566 0.902714 -1.5538 -0.880169 0.553403
          -0.786389 -1.43676 0.525047 -1.94221 -1.42914 0.654656 -2.34943 -1.32161 0.485579 -2.16251 -0.985712 0.631422