<?xml version="1.0"?>
<VTKFile type="UnstructuredGrid" version="0.1" byte_order="LittleEndian">
  <UnstructuredGrid>
    <Piece NumberOfCells="80" NumberOfPoints="123">
      <PointData Scalars="T">
        <DataArray type="Float32" Name="T" NumberOfComponents="1" format="ascii">
          773.15 748.138 773.15 748.138 732.976 732.976 731.372 731.372 731.432 731.432 731.682 731.682
          731.957 731.957 732.236 732.236 732.518 732.518 732.8 732.8 733.082 733.082 733.363 733.363
          733.639 733.639 733.908 733.908 734.167 734.167 734.411 734.411 734.632 734.632 734.823 734.823
          734.971 734.971 735.062 735.062 735.074 735.074 734.972 734.972 734.673 734.673 734.151 734.151
          733.369 733.369 732.295 732.295 730.895 730.895 729.151 729.151 727.06 727.06 724.624 724.624
          721.845 721.845 718.727 718.727 715.275 715.275 711.496 711.496 707.396 707.396 702.976 702.976
          698.225 698.225 693.11 693.11 687.567 687.567 681.467 681.467 673.15 673.15 773.15 748.138
          732.976 731.372 731.432 731.682 731.957 732.236 732.518 732.8 733.082 733.363 733.639 733.908
          734.167 734.411 734.632 734.823 734.971 735.062 735.074 734.972 734.673 734.151 733.369 732.295
          730.895 729.151 727.06 724.624 721.845 718.727 715.275 711.496 707.396 702.976 698.225 693.11
          687.567 681.467 673.15
        </DataArray>
        <DataArray type="Float32" Name="p" NumberOfComponents="1" format="ascii">
          102000 101999 102000 101999 101993 101993 101961 101961 101914 101914 101864 101864
          101813 101813 101762 101762 101710 101710 101658 101658 101606 101606 101553 101553
          101500 101500 101446 101446 101392 101392 101337 101337 101282 101282 101227 101227
          101171 101171 101115 101115 101059 101059 101002 101002 100945 100945 100889 100889
          100832 100832 100775 100775 100718 100718 100661 100661 100604 100604 100548 100548
          100491 100491 100436 100436 100380 100380 100325 100325 100270 100270 100217 100217
          100164 100164 100113 100113 100064 100064 100017 100017 100000 100000 102000 101999
          101993 101961 101914 101864 101813 101762 101710 101658 101606 101553 101500 101446
          101392 101337 101282 101227 101171 101115 101059 101002 100945 100889 100832 100775
          100718 100661 100604 100548 100491 100436 100380 100325 100270 100217 100164 100113
          100064 100017 100000
        </DataArray>
        <DataArray type="Float32" Name="rho" NumberOfComponents="1" format="ascii">
          0.457777 0.441312 0.457777 0.441312 0.426818 0.426818 0.423712 0.423712 0.422608 0.422608 0.421757 0.421757
          0.420929 0.420929 0.420097 0.420097 0.419258 0.419258 0.418413 0.418413 0.417566 0.417566 0.416719 0.416719
          0.415876 0.415876 0.415044 0.415044 0.41423 0.41423 0.413446 0.413446 0.412705 0.412705 0.412028 0.412028
          0.411439 0.411439 0.410971 0.410971 0.410667 0.410667 0.41056 0.41056 0.41061 0.41061 0.410836 0.410836
          0.411252 0.411252 0.411857 0.411857 0.412646 0.412646 0.413615 0.413615 0.414779 0.414779 0.416167 0.416167
          0.417819 0.417819 0.419787 0.419787 0.422157 0.422157 0.425065 0.425065 0.428737 0.428737 0.433544 0.433544
          0.440106 0.440106 0.449467 0.449467 0.463401 0.463401 0.484953 0.484953 0.515472 0.515472 0.457777 0.441312
          0.426818 0.423712 0.422608 0.421757 0.420929 0.420097 0.419258 0.418413 0.417566 0.416719 0.415876 0.415044
          0.41423 0.413446 0.412705 0.412028 0.411439 0.410971 0.410667 0.41056 0.41061 0.410836 0.411252 0.411857
          0.412646 0.413615 0.414779 0.416167 0.417819 0.419787 0.422157 0.425065 0.428737 0.433544 0.440106 0.449467
          0.463401 0.484953 0.515472
        </DataArray>
        <DataArray type="Float32" Name="porosity" NumberOfComponents="1" format="ascii">
          0.797746 0.760039 0.797746 0.760039 0.654209 0.654209 0.613832 0.613832 0.608052 0.608052 0.607362 0.607362
          0.607301 0.607301 0.607307 0.607307 0.607313 0.607313 0.607313 0.607313 0.607307 0.607307 0.607296 0.607296
          0.607281 0.607281 0.607261 0.607261 0.607237 0.607237 0.607208 0.607208 0.607174 0.607174 0.607132 0.607132
          0.607081 0.607081 0.607016 0.607016 0.606918 0.606918 0.606757 0.606757 0.606541 0.606541 0.606263 0.606263
          0.605907 0.605907 0.605473 0.605473 0.605005 0.605005 0.604598 0.604598 0.604336 0.604336 0.604205 0.604205
          0.604133 0.604133 0.604085 0.604085 0.604051 0.604051 0.60403 0.60403 0.604018 0.604018 0.604012 0.604012
          0.60401 0.60401 0.604014 0.604014 0.604039 0.604039 0.653058 0.653058 0.751006 0.751006 0.797746 0.760039
          0.654209 0.613832 0.608052 0.607362 0.607301 0.607307 0.607313 0.607313 0.607307 0.607296 0.607281 0.607261
          0.607237 0.607208 0.607174 0.607132 0.607081 0.607016 0.606918 0.606757 0.606541 0.606263 0.605907 0.605473
          0.605005 0.604598 0.604336 0.604205 0.604133 0.604085 0.604051 0.60403 0.604018 0.604012 0.60401 0.604014
          0.604039 0.653058 0.751006
        </DataArray>
        <DataArray type="Float32" Name="x_gas" NumberOfComponents="1" format="ascii">
          0.99 0.813249 0.99 0.813249 0.684603 0.684603 0.663337 0.663337 0.658583 0.658583 0.655867 0.655867
          0.653364 0.653364 0.650855 0.650855 0.648319 0.648319 0.645758 0.645758 0.643182 0.643182 0.640603 0.640603
          0.63804 0.63804 0.635516 0.635516 0.633065 0.633065 0.630732 0.630732 0.628576 0.628576 0.626676 0.626676
          0.625138 0.625138 0.624098 0.624098 0.623722 0.623722 0.624088 0.624088 0.624716 0.624716 0.625629 0.625629
          0.626787 0.626787 0.628078 0.628078 0.629361 0.629361 0.630547 0.630547 0.631684 0.631684 0.632929 0.632929
          0.634475 0.634475 0.63659 0.63659 0.639708 0.639708 0.644545 0.644545 0.652256 0.652256 0.664719 0.664719
          0.685029 0.685029 0.71833 0.71833 0.773238 0.773238 0.864316 0.864316 0.99 0.99 0.99 0.813249
          0.684603 0.663337 0.658583 0.655867 0.653364 0.650855 0.648319 0.645758 0.643182 0.640603 0.63804 0.635516
          0.633065 0.630732 0.628576 0.626676 0.625138 0.624098 0.623722 0.624088 0.624716 0.625629 0.626787 0.628078
          0.629361 0.630547 0.631684 0.632929 0.634475 0.63659 0.639708 0.644545 0.652256 0.664719 0.685029 0.71833
          0.773238 0.864316 0.99
        </DataArray>
        <DataArray type="Float32" Name="x_H2O" NumberOfComponents="1" format="ascii">
          0.01 0.186751 0.01 0.186751 0.315397 0.315397 0.336663 0.336663 0.341417 0.341417 0.344133 0.344133
          0.346636 0.346636 0.349145 0.349145 0.351681 0.351681 0.354242 0.354242 0.356818 0.356818 0.359397 0.359397
          0.36196 0.36196 0.364484 0.364484 0.366935 0.366935 0.369268 0.369268 0.371424 0.371424 0.373324 0.373324
          0.374862 0.374862 0.375902 0.375902 0.376278 0.376278 0.375912 0.375912 0.375284 0.375284 0.374371 0.374371
          0.373213 0.373213 0.371922 0.371922 0.370639 0.370639 0.369453 0.369453 0.368316 0.368316 0.367071 0.367071
          0.365525 0.365525 0.36341 0.36341 0.360292 0.360292 0.355455 0.355455 0.347744 0.347744 0.335281 0.335281
          0.314971 0.314971 0.28167 0.28167 0.226762 0.226762 0.135684 0.135684 0.01 0.01 0.01 0.186751
          0.315397 0.336663 0.341417 0.344133 0.346636 0.349145 0.351681 0.354242 0.356818 0.359397 0.36196 0.364484
          0.366935 0.369268 0.371424 0.373324 0.374862 0.375902 0.376278 0.375912 0.375284 0.374371 0.373213 0.371922
          0.370639 0.369453 0.368316 0.367071 0.365525 0.36341 0.360292 0.355455 0.347744 0.335281 0.314971 0.28167
          0.226762 0.135684 0.01
        </DataArray>
        <DataArray type="Float32" Name="X_gas" NumberOfComponents="1" format="ascii">
          0.993761 0.875098 0.993761 0.875098 0.777396 0.777396 0.760195 0.760195 0.756306 0.756306 0.754077 0.754077
          0.752018 0.752018 0.74995 0.74995 0.747854 0.747854 0.745734 0.745734 0.743597 0.743597 0.741452 0.741452
          0.739315 0.739315 0.737206 0.737206 0.735154 0.735154 0.733197 0.733197 0.731384 0.731384 0.729784 0.729784
          0.728487 0.728487 0.727608 0.727608 0.72729 0.72729 0.7276 0.7276 0.72813 0.72813 0.728901 0.728901
          0.729877 0.729877 0.730965 0.730965 0.732044 0.732044 0.733041 0.733041 0.733996 0.733996 0.73504 0.73504
          0.736335 0.736335 0.738104 0.738104 0.740706 0.740706 0.744728 0.744728 0.751105 0.751105 0.761321 0.761321
          0.777737 0.777737 0.80404 0.80404 0.845825 0.845825 0.911101 0.911101 0.993761 0.993761 0.993761 0.875098
          0.777396 0.760195 0.756306 0.754077 0.752018 0.74995 0.747854 0.745734 0.743597 0.741452 0.739315 0.737206
          0.735154 0.733197 0.731384 0.729784 0.728487 0.727608 0.72729 0.7276 0.72813 0.728901 0.729877 0.730965
          0.732044 0.733041 0.733996 0.73504 0.736335 0.738104 0.740706 0.744728 0.751105 0.761321 0.777737 0.80404
          0.845825 0.911101 0.993761
        </DataArray>
        <DataArray type="Float32" Name="X_H2O" NumberOfComponents="1" format="ascii">
          0.00623908 0.124902 0.00623908 0.124902 0.222604 0.222604 0.239805 0.239805 0.243694 0.243694 0.245923 0.245923
          0.247982 0.247982 0.25005 0.25005 0.252146 0.252146 0.254266 0.254266 0.256403 0.256403 0.258548 0.258548
          0.260685 0.260685 0.262794 0.262794 0.264846 0.264846 0.266803 0.266803 0.268616 0.268616 0.270216 0.270216
          0.271513 0.271513 0.272392 0.272392 0.27271 0.27271 0.2724 0.2724 0.27187 0.27187 0.271099 0.271099
          0.270123 0.270123 0.269035 0.269035 0.267956 0.267956 0.266959 0.266959 0.266004 0.266004 0.26496 0.26496
          0.263665 0.263665 0.261896 0.261896 0.259294 0.259294 0.255272 0.255272 0.248895 0.248895 0.238679 0.238679
          0.222263 0.222263 0.19596 0.19596 0.154175 0.154175 0.0888991 0.0888991 0.00623908 0.00623908 0.00623908 0.124902
          0.222604 0.239805 0.243694 0.245923 0.247982 0.25005 0.252146 0.254266 0.256403 0.258548 0.260685 0.262794
          0.264846 0.266803 0.268616 0.270216 0.271513 0.272392 0.27271 0.2724 0.27187 0.271099 0.270123 0.269035
          0.267956 0.266959 0.266004 0.26496 0.263665 0.261896 0.259294 0.255272 0.248895 0.238679 0.222263 0.19596
          0.154175 0.0888991 0.00623908
        </DataArray>
        <DataArray type="Float32" Name="Kxx" NumberOfComponents="1" format="ascii">
          4.848e-12 2.97842e-12 4.848e-12 2.97842e-12 9.14707e-13 9.14707e-13 6.05835e-13 6.05835e-13 5.71642e-13 5.71642e-13 5.677e-13 5.677e-13
          5.67351e-13 5.67351e-13 5.67386e-13 5.67386e-13 5.67422e-13 5.67422e-13 5.67421e-13 5.67421e-13 5.67387e-13 5.67387e-13 5.67325e-13 5.67325e-13
          5.67237e-13 5.67237e-13 5.67125e-13 5.67125e-13 5.66989e-13 5.66989e-13 5.66825e-13 5.66825e-13 5.66629e-13 5.66629e-13 5.66393e-13 5.66393e-13
          5.66103e-13 5.66103e-13 5.65731e-13 5.65731e-13 5.65176e-13 5.65176e-13 5.64265e-13 5.64265e-13 5.63041e-13 5.63041e-13 5.61476e-13 5.61476e-13
          5.59474e-13 5.59474e-13 5.57047e-13 5.57047e-13 5.54437e-13 5.54437e-13 5.5218e-13 5.5218e-13 5.50735e-13 5.50735e-13 5.50011e-13 5.50011e-13
          5.49616e-13 5.49616e-13 5.49349e-13 5.49349e-13 5.49164e-13 5.49164e-13 5.4905e-13 5.4905e-13 5.48984e-13 5.48984e-13 5.4895e-13 5.4895e-13
          5.48939e-13 5.48939e-13 5.48962e-13 5.48962e-13 5.49096e-13 5.49096e-13 9.03863e-13 9.03863e-13 2.66878e-12 2.66878e-12 4.848e-12 2.97842e-12
          9.14707e-13 6.05835e-13 5.71642e-13 5.677e-13 5.67351e-13 5.67386e-13 5.67422e-13 5.67421e-13 5.67387e-13 5.67325e-13 5.67237e-13 5.67125e-13
          5.66989e-13 5.66825e-13 5.66629e-13 5.66393e-13 5.66103e-13 5.65731e-13 5.65176e-13 5.64265e-13 5.63041e-13 5.61476e-13 5.59474e-13 5.57047e-13
          5.54437e-13 5.5218e-13 5.50735e-13 5.50011e-13 5.49616e-13 5.49349e-13 5.49164e-13 5.4905e-13 5.48984e-13 5.4895e-13 5.48939e-13 5.48962e-13
          5.49096e-13 9.03863e-13 2.66878e-12
        </DataArray>
        <DataArray type="Float32" Name="Kyy" NumberOfComponents="1" format="ascii">
          4.848e-12 2.97842e-12 4.848e-12 2.97842e-12 9.14707e-13 9.14707e-13 6.05835e-13 6.05835e-13 5.71642e-13 5.71642e-13 5.677e-13 5.677e-13
          5.67351e-13 5.67351e-13 5.67386e-13 5.67386e-13 5.67422e-13 5.67422e-13 5.67421e-13 5.67421e-13 5.67387e-13 5.67387e-13 5.67325e-13 5.67325e-13
          5.67237e-13 5.67237e-13 5.67125e-13 5.67125e-13 5.66989e-13 5.66989e-13 5.66825e-13 5.66825e-13 5.66629e-13 5.66629e-13 5.66393e-13 5.66393e-13
          5.66103e-13 5.66103e-13 5.65731e-13 5.65731e-13 5.65176e-13 5.65176e-13 5.64265e-13 5.64265e-13 5.63041e-13 5.63041e-13 5.61476e-13 5.61476e-13
          5.59474e-13 5.59474e-13 5.57047e-13 5.57047e-13 5.54437e-13 5.54437e-13 5.5218e-13 5.5218e-13 5.50735e-13 5.50735e-13 5.50011e-13 5.50011e-13
          5.49616e-13 5.49616e-13 5.49349e-13 5.49349e-13 5.49164e-13 5.49164e-13 5.4905e-13 5.4905e-13 5.48984e-13 5.48984e-13 5.4895e-13 5.4895e-13
          5.48939e-13 5.48939e-13 5.48962e-13 5.48962e-13 5.49096e-13 5.49096e-13 9.03863e-13 9.03863e-13 2.66878e-12 2.66878e-12 4.848e-12 2.97842e-12
          9.14707e-13 6.05835e-13 5.71642e-13 5.677e-13 5.67351e-13 5.67386e-13 5.67422e-13 5.67421e-13 5.67387e-13 5.67325e-13 5.67237e-13 5.67125e-13
          5.66989e-13 5.66825e-13 5.66629e-13 5.66393e-13 5.66103e-13 5.65731e-13 5.65176e-13 5.64265e-13 5.63041e-13 5.61476e-13 5.59474e-13 5.57047e-13
          5.54437e-13 5.5218e-13 5.50735e-13 5.50011e-13 5.49616e-13 5.49349e-13 5.49164e-13 5.4905e-13 5.48984e-13 5.4895e-13 5.48939e-13 5.48962e-13
          5.49096e-13 9.03863e-13 2.66878e-12
        </DataArray>
        <DataArray type="Float32" Name="permeabilityFactor" NumberOfComponents="1" format="ascii">
          0 0 0 0 0 0 0 0 0 0 0 0
          0 0 0 0 0 0 0 0 0 0 0 0
          0 0 0 0 0 0 0 0 0 0 0 0
          0 0 0 0 0 0 0 0 0 0 0 0
          0 0 0 0 0 0 0 0 0 0 0 0
          0 0 0 0 0 0 0 0 0 0 0 0
          0 0 0 0 0 0 0 0 0 0 0 0
          0 0 0 0 0 0 0 0 0 0 0 0
          0 0 0 0 0 0 0 0 0 0 0 0
          0 0 0 0 0 0 0 0 0 0 0 0
          0 0 0
        </DataArray>
        <DataArray type="Float32" Name="precipitateVolumeFraction_CaO" NumberOfComponents="1" format="ascii">
          0.200016 0.190883 0.200016 0.190883 0.0643481 0.0643481 0.0119243 0.0119243 0.0043627 0.0043627 0.00345262 0.00345262
          0.00336744 0.00336744 0.00337309 0.00337309 0.00338107 0.00338107 0.00338252 0.00338252 0.00337775 0.00337775 0.00336773 0.00336773
          0.0033531 0.0033531 0.00333415 0.00333415 0.00331085 0.00331085 0.00328283 0.00328283 0.00324932 0.00324932 0.00320904 0.00320904
          0.00316 0.00316 0.00309875 0.00309875 0.00301546 0.00301546 0.0028656 0.0028656 0.00265894 0.00265894 0.00239522 0.00239522
          0.00205291 0.00205291 0.00162532 0.00162532 0.00113847 0.00113847 0.000686056 0.000686056 0.000381022 0.000381022 0.000228894 0.000228894
          0.000149176 0.000149176 9.5797e-05 9.5797e-05 5.80078e-05 5.80078e-05 3.4229e-05 3.4229e-05 2.05082e-05 2.05082e-05 1.30132e-05 1.30132e-05
          9.96843e-06 9.96843e-06 1.1315e-05 1.1315e-05 2.37672e-05 2.37672e-05 8.59409e-05 8.59409e-05 0.200013 0.200013 0.200016 0.190883
          0.0643481 0.0119243 0.0043627 0.00345262 0.00336744 0.00337309 0.00338107 0.00338252 0.00337775 0.00336773 0.0033531 0.00333415
          0.00331085 0.00328283 0.00324932 0.00320904 0.00316 0.00309875 0.00301546 0.0028656 0.00265894 0.00239522 0.00205291 0.00162532
          0.00113847 0.000686056 0.000381022 0.000228894 0.000149176 9.5797e-05 5.80078e-05 3.4229e-05 2.05082e-05 1.30132e-05 9.96843e-06 1.1315e-05
          2.37672e-05 8.59409e-05 0.200013
        </DataArray>
        <DataArray type="Float32" Name="precipitateVolumeFraction_CaOH2" NumberOfComponents="1" format="ascii">
          4.35044e-11 0.0180816 4.35044e-11 0.0180816 0.268601 0.268601 0.372392 0.372392 0.387363 0.387363 0.389164 0.389164
          0.389333 0.389333 0.389322 0.389322 0.389306 0.389306 0.389303 0.389303 0.389313 0.389313 0.389332 0.389332
          0.389361 0.389361 0.389399 0.389399 0.389445 0.389445 0.389501 0.389501 0.389567 0.389567 0.389647 0.389647
          0.389744 0.389744 0.389865 0.389865 0.39003 0.39003 0.390327 0.390327 0.390736 0.390736 0.391258 0.391258
          0.391936 0.391936 0.392782 0.392782 0.393746 0.393746 0.394642 0.394642 0.395246 0.395246 0.395547 0.395547
          0.395705 0.395705 0.39581 0.39581 0.395885 0.395885 0.395932 0.395932 0.395959 0.395959 0.395974 0.395974
          0.39598 0.39598 0.395978 0.395978 0.395953 0.395953 0.39583 0.39583 7.18725e-06 7.18725e-06 4.35044e-11 0.0180816
          0.268601 0.372392 0.387363 0.389164 0.389333 0.389322 0.389306 0.389303 0.389313 0.389332 0.389361 0.389399
          0.389445 0.389501 0.389567 0.389647 0.389744 0.389865 0.39003 0.390327 0.390736 0.391258 0.391936 0.392782
          0.393746 0.394642 0.395246 0.395547 0.395705 0.39581 0.395885 0.395932 0.395959 0.395974 0.39598 0.395978
          0.395953 0.39583 7.18725e-06
        </DataArray>
      </PointData>
      <CellData Scalars="process rank">
        <DataArray type="Float32" Name="process rank" NumberOfComponents="1" format="ascii">
          0 0 0 0 0 0 0 0 0 0 0 0
          0 0 0 0 0 0 0 0 0 0 0 0
          0 0 0 0 0 0 0 0 0 0 0 0
          0 0 0 0 0 0 0 0 0 0 0 0
          0 0 0 0 0 0 0 0 0 0 0 0
          0 0 0 0 0 0 0 0 0 0 0 0
          0 0 0 0 0 0 0 0
        </DataArray>
      </CellData>
      <Points>
        <DataArray type="Float32" Name="Coordinates" NumberOfComponents="3" format="ascii">
          0 0 0 0.002 0 0 0 0.005 0 0.002 0.005 0
          0.004 0 0 0.004 0.005 0 0.006 0 0 0.006 0.005 0
          0.008 0 0 0.008 0.005 0 0.01 0 0 0.01 0.005 0
          0.012 0 0 0.012 0.005 0 0.014 0 0 0.014 0.005 0
          0.016 0 0 0.016 0.005 0 0.018 0 0 0.018 0.005 0
          0.02 0 0 0.02 0.005 0 0.022 0 0 0.022 0.005 0
          0.024 0 0 0.024 0.005 0 0.026 0 0 0.026 0.005 0
          0.028 0 0 0.028 0.005 0 0.03 0 0 0.03 0.005 0
          0.032 0 0 0.032 0.005 0 0.034 0 0 0.034 0.005 0
          0.036 0 0 0.036 0.005 0 0.038 0 0 0.038 0.005 0
          0.04 0 0 0.04 0.005 0 0.042 0 0 0.042 0.005 0
          0.044 0 0 0.044 0.005 0 0.046 0 0 0.046 0.005 0
          0.048 0 0 0.048 0.005 0 0.05 0 0 0.05 0.005 0
          0.052 0 0 0.052 0.005 0 0.054 0 0 0.054 0.005 0
          0.056 0 0 0.056 0.005 0 0.058 0 0 0.058 0.005 0
          0.06 0 0 0.06 0.005 0 0.062 0 0 0.062 0.005 0
          0.064 0 0 0.064 0.005 0 0.066 0 0 0.066 0.005 0
          0.068 0 0 0.068 0.005 0 0.07 0 0 0.07 0.005 0
          0.072 0 0 0.072 0.005 0 0.074 0 0 0.074 0.005 0
          0.076 0 0 0.076 0.005 0 0.078 0 0 0.078 0.005 0
          0.08 0 0 0.08 0.005 0 0 0.01 0 0.002 0.01 0
          0.004 0.01 0 0.006 0.01 0 0.008 0.01 0 0.01 0.01 0
          0.012 0.01 0 0.014 0.01 0 0.016 0.01 0 0.018 0.01 0
          0.02 0.01 0 0.022 0.01 0 0.024 0.01 0 0.026 0.01 0
          0.028 0.01 0 0.03 0.01 0 0.032 0.01 0 0.034 0.01 0
          0.036 0.01 0 0.038 0.01 0 0.04 0.01 0 0.042 0.01 0
          0.044 0.01 0 0.046 0.01 0 0.048 0.01 0 0.05 0.01 0
          0.052 0.01 0 0.054 0.01 0 0.056 0.01 0 0.058 0.01 0
          0.06 0.01 0 0.062 0.01 0 0.064 0.01 0 0.066 0.01 0
          0.068 0.01 0 0.07 0.01 0 0.072 0.01 0 0.074 0.01 0
          0.076 0.01 0 0.078 0.01 0 0.08 0.01 0
        </DataArray>
      </Points>
      <Cells>
        <DataArray type="Int32" Name="connectivity" NumberOfComponents="1" format="ascii">
          0 1 3 2 1 4 5 3 4 6 7 5
          6 8 9 7 8 10 11 9 10 12 13 11
          12 14 15 13 14 16 17 15 16 18 19 17
          18 20 21 19 20 22 23 21 22 24 25 23
          24 26 27 25 26 28 29 27 28 30 31 29
          30 32 33 31 32 34 35 33 34 36 37 35
          36 38 39 37 38 40 41 39 40 42 43 41
          42 44 45 43 44 46 47 45 46 48 49 47
          48 50 51 49 50 52 53 51 52 54 55 53
          54 56 57 55 56 58 59 57 58 60 61 59
          60 62 63 61 62 64 65 63 64 66 67 65
          66 68 69 67 68 70 71 69 70 72 73 71
          72 74 75 73 74 76 77 75 76 78 79 77
          78 80 81 79 2 3 83 82 3 5 84 83
          5 7 85 84 7 9 86 85 9 11 87 86
          11 13 88 87 13 15 89 88 15 17 90 89
          17 19 91 90 19 21 92 91 21 23 93 92
          23 25 94 93 25 27 95 94 27 29 96 95
          29 31 97 96 31 33 98 97 33 35 99 98
          35 37 100 99 37 39 101 100 39 41 102 101
          41 43 103 102 43 45 104 103 45 47 105 104
          47 49 106 105 49 51 107 106 51 53 108 107
          53 55 109 108 55 57 110 109 57 59 111 110
          59 61 112 111 61 63 113 112 63 65 114 113
          65 67 115 114 67 69 116 115 69 71 117 116
          71 73 118 117 73 75 119 118 75 77 120 119
          77 79 121 120 79 81 122 121
        </DataArray>
        <DataArray type="Int32" Name="offsets" NumberOfComponents="1" format="ascii">
          4 8 12 16 20 24 28 32 36 40 44 48
          52 56 60 64 68 72 76 80 84 88 92 96
          100 104 108 112 116 120 124 128 132 136 140 144
          148 152 156 160 164 168 172 176 180 184 188 192
          196 200 204 208 212 216 220 224 228 232 236 240
          244 248 252 256 260 264 268 272 276 280 284 288
          292 296 300 304 308 312 316 320
        </DataArray>
        <DataArray type="UInt8" Name="types" NumberOfComponents="1" format="ascii">
          9 9 9 9 9 9 9 9 9 9 9 9
          9 9 9 9 9 9 9 9 9 9 9 9
          9 9 9 9 9 9 9 9 9 9 9 9
          9 9 9 9 9 9 9 9 9 9 9 9
          9 9 9 9 9 9 9 9 9 9 9 9
          9 9 9 9 9 9 9 9 9 9 9 9
          9 9 9 9 9 9 9 9
        </DataArray>
      </Cells>
    </Piece>
  </UnstructuredGrid>
</VTKFile>
