<?xml version="1.0"?>
<VTKFile type="UnstructuredGrid" version="0.1" byte_order="LittleEndian">
  <UnstructuredGrid>
    <Piece NumberOfCells="384" NumberOfPoints="425">
      <PointData Scalars="pW_0">
        <DataArray type="Float32" Name="pW_0" NumberOfComponents="1" format="ascii">
          153955 151739 150583 149036 150290 147702 149146 146604 148193 145675 147373 144871
          146654 144163 146013 143530 145432 142956 144900 142429 144406 141938 143942 141477
          143503 141040 143085 140623 142685 140224 142301 139842 141931 139473 141572 139115
          141224 138767 140883 138427 140547 138093 140217 137763 139889 137436 139564 137111
          139240 136788 147211 146006 144887 143899 143036 142276 141599 140989 140434 139921
          139442 138989 138558 138144 137748 137368 137003 136649 136304 135966 135634 135305
          134980 134657 134335 143838 142862 141927 141069 140295 139598 138969 138395 137869
          137379 136919 136481 136059 135647 135254 134881 134521 134173 133833 133499 133170
          132845 132523 132202 131882 140466 139664 138885 138152 137475 136853 136282 135756
          135267 134808 134374 133957 133542 133134 132743 132379 132029 131689 131355 131027
          130703 130382 130064 129747 129430 137094 136437 135793 135178 134598 134056 133551
          133078 132634 132214 131812 131411 131006 130606 130222 129866 129528 129198 128873
          128552 128233 127917 127603 127290 126978 133722 133193 132671 132166 131682 131223
          130786 130372 129978 129601 129229 128843 128453 128066 127693 127345 127021 126702
          126386 126073 125761 125451 125142 124833 124525 130350 129940 129532 129132 128743
          128365 128000 127646 127304 126974 126623 126258 125887 125518 125158 124822 124510
          124203 123897 123592 123287 122983 122679 122376 122072 126978 126682 126384 126087
          125791 125495 125201 124909 124620 124328 124002 123661 123313 122964 122621 122298
          121999 121704 121408 121111 120813 120515 120217 119918 119620 123605 123423 123236
          123042 122838 122624 122401 122169 121933 121671 121375 121061 120737 120409 120085
          119777 119490 119206 118919 118630 118339 118047 117754 117461 117168 120233 120169
          120096 120007 119896 119763 119608 119435 119246 119014 118750 118465 118165 117858
          117553 117260 116985 116711 116433 116151 115867 115580 115293 115004 114715 116861
          116925 116973 116993 116977 116924 116835 116715 116568 116370 116136 115878 115602
          115315 115028 114750 114486 114221 113950 113674 113396 113115 112831 112547 112262
          113489 113698 113880 114016 114096 114120 114094 114022 113912 113746 113541 113308
          113052 112783 112512 112248 111994 111736 111471 111201 110928 110651 110372 110091
          109810 110117 110501 110837 111096 111272 111369 111397 111367 111288 111151 110970
          110757 110519 110266 110008 109756 109510 109257 108998 108732 108462 108189 107913
          107636 107358 106744 107357 107877 108264 108527 108685 108759 108762 108706 108591
          108429 108232 108006 107764 107518 107275 107035 106786 106530 106268 106000 105730
          105456 105181 104905 103372 104327 105061 105558 105886 106086 106189 106213 106174
          106072 105922 105734 105516 105281 105043 104807 104569 104322 104068 103808 103542
          103273 103001 102727 102452 100000 101625 102473 103015 103367 103584 103697 103728
          103694 103597 103451 103266 103050 102816 102584 102350 102112 101866 101612 101353
          101088 100819 100548 100274 100000
        </DataArray>
        <DataArray type="Float32" Name="pN_0" NumberOfComponents="1" format="ascii">
          154955 152740 151583 150037 151291 148703 150147 147605 149193 146676 148374 145872
          147655 145164 147013 144531 146433 143957 145900 143429 145406 142939 144943 142478
          144504 142041 144086 141624 143686 141225 143302 140842 142932 140473 142573 140116
          142224 139768 141883 139428 141548 139093 141218 138763 140890 138437 140565 138112
          140240 137788 148211 147006 145887 144900 144037 143277 142600 141990 141434 140921
          140442 139990 139559 139145 138748 138369 138003 137649 137304 136966 136634 136306
          135981 135658 135335 144838 143862 142928 142070 141295 140599 139969 139396 138869
          138380 137920 137482 137061 136648 136255 135881 135522 135173 134833 134500 134171
          133846 133524 133203 132882 141466 140665 139886 139153 138475 137853 137283 136756
          136267 135809 135376 134963 134551 134140 133745 133380 133030 132690 132356 132028
          131704 131383 131064 130747 130430 138094 137438 136794 136178 135599 135057 134551
          134079 133635 133215 132818 132423 132021 131619 131227 130866 130529 130199 129873
          129552 129234 128918 128604 128291 127978 134722 134194 133672 133167 132683 132223
          131787 131373 130979 130605 130241 129861 129473 129084 128702 128347 128021 127703
          127387 127073 126762 126451 126142 125834 125525 131350 130940 130533 130133 129743
          129366 129000 128647 128305 127984 127640 127280 126910 126538 126170 125825 125511
          125204 124898 124593 124288 123984 123680 123377 123072 127978 127682 127385 127088
          126792 126496 126202 125910 125622 125344 125023 124686 124339 123986 123635 123302
          122999 122705 122408 122111 121814 121516 121218 120919 120620 124605 124424 124237
          124043 123839 123625 123401 123170 122942 122691 122399 122088 121764 121432 121100
          120781 120491 120207 119920 119631 119340 119048 118755 118462 118168 121233 121170
          121097 121007 120897 120764 120609 120435 120261 120037 119776 119493 119193 118882
          118568 118264 117986 117712 117433 117152 116867 116581 116293 116005 115715 117861
          117926 117974 117993 117978 117924 117836 117716 117586 117395 117164 116907 116629
          116338 116042 115753 115487 115221 114950 114675 114396 114115 113832 113548 113262
          114489 114699 114881 115017 115097 115121 115094 115023 114932 114772 114569 114336
          114079 113805 113525 113251 112994 112736 112472 112202 111928 111651 111372 111092
          110810 111117 111501 111838 112097 112273 112369 112398 112368 112310 112178 111999
          111786 111545 111286 111020 110758 110510 110258 109998 109733 109463 109190 108914
          108636 108358 107744 108358 108877 109265 109528 109686 109759 109762 109729 109619
          109458 109261 109032 108782 108528 108277 108035 107787 107530 107268 107001 106730
          106457 106182 105905 104372 105328 106062 106559 106886 107087 107190 107214 107196
          107101 106951 106763 106540 106296 106050 105808 105570 105323 105069 104808 104543
          104274 104002 103728 103452 101000 102626 103474 104016 104368 104584 104697 104729
          104717 104627 104480 104295 104074 103827 103587 103351 103113 102867 102613 102353
          102088 101820 101548 101275 101000
        </DataArray>
        <DataArray type="Float32" Name="pC_0" NumberOfComponents="1" format="ascii">
          1000 1000.66 1000 1000.66 1000.67 1000.66 1000.67 1000.66 1000.67 1000.66 1000.67 1000.66
          1000.67 1000.66 1000.67 1000.66 1000.67 1000.66 1000.67 1000.66 1000.67 1000.66 1000.67 1000.66
          1000.67 1000.66 1000.67 1000.66 1000.67 1000.66 1000.67 1000.66 1000.67 1000.66 1000.67 1000.66
          1000.67 1000.66 1000.67 1000.66 1000.67 1000.66 1000.67 1000.66 1000.67 1000.66 1000.67 1000.66
          1000 1000 1000 1000.66 1000.66 1000.66 1000.66 1000.66 1000.66 1000.66 1000.66 1000.66
          1000.66 1000.67 1000.74 1000.68 1000.66 1000.66 1000.66 1000.66 1000.66 1000.66 1000.66 1000.66
          1000.66 1000.66 1000 1000 1000.66 1000.66 1000.66 1000.66 1000.66 1000.66 1000.66 1000.66
          1000.66 1000.67 1001.31 1002.76 1001.77 1000.68 1000.66 1000.66 1000.66 1000.66 1000.66 1000.66
          1000.66 1000.66 1000.66 1000 1000 1000.66 1000.66 1000.66 1000.66 1000.66 1000.66 1000.66
          1000.66 1000.67 1001.36 1005.69 1008.51 1006.74 1001.58 1000.67 1000.66 1000.66 1000.66 1000.66
          1000.66 1000.66 1000.66 1000.66 1000 1000 1000.66 1000.66 1000.66 1000.66 1000.66 1000.66
          1000.66 1000.66 1000.86 1005.9 1012.02 1014.6 1012.48 1005.28 1000.86 1000.66 1000.66 1000.66
          1000.66 1000.66 1000.66 1000.66 1000.66 1000 1000 1000.66 1000.66 1000.66 1000.66 1000.66
          1000.66 1000.66 1000.66 1003.91 1012.33 1017.74 1019.7 1017.14 1009.32 1001.67 1000.67 1000.66
          1000.66 1000.66 1000.66 1000.66 1000.66 1000.66 1000 1000 1000.66 1000.66 1000.66 1000.66
          1000.66 1000.66 1000.66 1000.7 1010.32 1017.83 1022 1023.2 1020.47 1012.21 1002.79 1000.69
          1000.66 1000.66 1000.66 1000.66 1000.66 1000.66 1000.66 1000 1000 1000.66 1000.66 1000.66
          1000.66 1000.66 1000.66 1000.66 1002.24 1016 1021.85 1024.92 1025.4 1022.33 1013.97 1003.64
          1000.71 1000.66 1000.66 1000.66 1000.66 1000.66 1000.66 1000.66 1000 1000 1000.66 1000.66
          1000.66 1000.66 1000.66 1000.66 1000.66 1008.12 1020.04 1024.62 1026.81 1026.63 1023.14 1014.72
          1004 1000.73 1000.66 1000.66 1000.66 1000.66 1000.66 1000.66 1000.66 1000 1000 1000.66
          1000.66 1000.66 1000.66 1000.66 1000.66 1000.66 1014.17 1022.96 1026.46 1027.95 1027.16 1023.18
          1014.63 1003.9 1000.72 1000.66 1000.66 1000.66 1000.66 1000.66 1000.66 1000.66 1000 1000
          1000.66 1000.66 1000.66 1000.66 1000.66 1000.66 1000.66 1018.01 1024.98 1027.63 1028.6 1027.21
          1022.63 1013.9 1003.46 1000.7 1000.66 1000.66 1000.66 1000.66 1000.66 1000.66 1000.66 1000
          1000 1000.66 1000.66 1000.66 1000.66 1000.66 1000.66 1000.66 1020.2 1026.35 1028.36 1028.95
          1026.94 1021.6 1012.69 1002.82 1000.68 1000.66 1000.66 1000.66 1000.66 1000.66 1000.66 1000.66
          1000 1000 1000.66 1000.66 1000.66 1000.66 1000.66 1000.66 1000.66 1021.45 1027.31 1028.81
          1029.14 1026.44 1020.14 1011.08 1002.13 1000.67 1000.66 1000.66 1000.66 1000.66 1000.66 1000.66
          1000.66 1000 1000 1000.66 1000.66 1000.66 1000.66 1000.66 1000.66 1000.66 1022.18 1028.03
          1029.09 1029.25 1025.75 1018.17 1009.09 1001.49 1000.67 1000.66 1000.66 1000.66 1000.66 1000.66
          1000.66 1000.66 1000 1000 1000.66 1000.66 1000.66 1000.66 1000.66 1000.66 1000.66 1022.63
          1028.61 1029.26 1029.31 1024.88 1015.42 1006.64 1001 1000.66 1000.66 1000.66 1000.66 1000.66
          1000.66 1000.66 1000.66 1000 1000 1000.66 1000.66 1000.66 1000.66 1000.66 1000.66 1000.66
          1022.93 1029.12 1029.36 1029.35 1023.77 1010.75 1003.25 1000.7 1000.66 1000.66 1000.66 1000.66
          1000.66 1000.66 1000.66 1000.66 1000
        </DataArray>
        <DataArray type="Float32" Name="Sw_0" NumberOfComponents="1" format="ascii">
          1 0.998672 1 0.998681 0.998662 0.998673 0.998662 0.998673 0.998662 0.998673 0.998662 0.998673
          0.998662 0.998673 0.998662 0.998673 0.998662 0.998673 0.998662 0.998673 0.998662 0.998673 0.998662 0.998673
          0.998662 0.998672 0.998662 0.998673 0.998662 0.998673 0.998662 0.998673 0.998662 0.998673 0.998662 0.998673
          0.998662 0.998673 0.998662 0.998673 0.998662 0.998673 0.998662 0.998673 0.998662 0.998673 0.998662 0.998673
          1 1 1 0.998679 0.998673 0.998673 0.998673 0.998673 0.998673 0.998673 0.998673 0.998673
          0.998673 0.998659 0.998521 0.998634 0.998673 0.998673 0.998673 0.998673 0.998673 0.998673 0.998673 0.998673
          0.998673 0.998673 1 1 0.998678 0.998673 0.998673 0.998673 0.998673 0.998673 0.998673 0.998673
          0.998673 0.998657 0.997382 0.994507 0.996475 0.998632 0.998673 0.998673 0.998673 0.998673 0.998673 0.998673
          0.998673 0.998673 0.998673 1 1 0.998677 0.998673 0.998673 0.998673 0.998673 0.998673 0.998673
          0.998673 0.998671 0.997284 0.988716 0.983186 0.986658 0.99685 0.998662 0.998673 0.998673 0.998673 0.998673
          0.998673 0.998673 0.998673 0.998673 1 1 0.998676 0.998673 0.998673 0.998673 0.998673 0.998673
          0.998673 0.998673 0.998283 0.988295 0.976389 0.97142 0.975501 0.98953 0.998288 0.998672 0.998673 0.998673
          0.998673 0.998673 0.998673 0.998673 0.998673 1 1 0.998676 0.998673 0.998673 0.998673 0.998673
          0.998673 0.998673 0.998673 0.992219 0.97579 0.965436 0.961743 0.966577 0.981627 0.996667 0.998663 0.998673
          0.998673 0.998673 0.998673 0.998673 0.998673 0.998673 1 1 0.998675 0.998673 0.998673 0.998673
          0.998673 0.998673 0.998673 0.998607 0.979672 0.965267 0.957416 0.955169 0.960287 0.976027 0.994446 0.998627
          0.998673 0.998673 0.998673 0.998673 0.998673 0.998673 0.998673 1 1 0.998675 0.998673 0.998673
          0.998673 0.998673 0.998673 0.998673 0.995545 0.968757 0.957697 0.95196 0.951074 0.956787 0.97263 0.99276
          0.998574 0.998673 0.998673 0.998673 0.998673 0.998673 0.998673 0.998673 1 1 0.998674 0.998673
          0.998673 0.998673 0.998673 0.998673 0.998673 0.983959 0.96109 0.952512 0.948467 0.948792 0.955283 0.971192
          0.992049 0.998547 0.998673 0.998673 0.998673 0.998673 0.998673 0.998673 0.998673 1 1 0.998673
          0.998673 0.998673 0.998673 0.998673 0.998673 0.998673 0.972245 0.955615 0.949109 0.946366 0.947822 0.955206
          0.971372 0.99225 0.998561 0.998673 0.998673 0.998673 0.998673 0.998673 0.998673 0.998673 1 1
          0.998673 0.998673 0.998673 0.998673 0.998673 0.998673 0.998673 0.964931 0.95185 0.946951 0.945168 0.947727
          0.956234 0.972773 0.993123 0.998598 0.998673 0.998673 0.998673 0.998673 0.998673 0.998673 0.998673 1
          1 0.998673 0.998673 0.998673 0.998673 0.998673 0.998673 0.998673 0.960795 0.949315 0.945611 0.944513
          0.948224 0.958156 0.975102 0.994377 0.998633 0.998673 0.998673 0.998673 0.998673 0.998673 0.998673 0.998673
          1 1 0.998673 0.998673 0.998673 0.998673 0.998673 0.998673 0.998673 0.958446 0.947542 0.94478
          0.944164 0.949146 0.960907 0.978205 0.995749 0.998656 0.998673 0.998673 0.998673 0.998673 0.998673 0.998673
          0.998673 1 1 0.998673 0.998673 0.998673 0.998673 0.998673 0.998673 0.998673 0.957064 0.946212
          0.944261 0.943974 0.950417 0.964628 0.982065 0.997018 0.998667 0.998673 0.998673 0.998673 0.998673 0.998673
          0.998673 0.998673 1 1 0.998673 0.998673 0.998673 0.998673 0.998673 0.998673 0.998673 0.956223
          0.945141 0.943946 0.943861 0.952042 0.969852 0.986854 0.99801 0.998672 0.998673 0.998673 0.998673 0.998673
          0.998673 0.998673 0.998673 1 1 0.998684 0.998684 0.998684 0.998684 0.998684 0.998684 0.998684
          0.955673 0.944208 0.943774 0.94378 0.9541 0.978835 0.993538 0.998602 0.998684 0.998684 0.998684 0.998684
          0.998684 0.998684 0.998684 0.998684 1
        </DataArray>
        <DataArray type="Float32" Name="Sn_0" NumberOfComponents="1" format="ascii">
          0 0.00132779 0 0.00131896 0.00133821 0.00132684 0.00133832 0.00132692 0.00133831 0.00132692 0.00133831 0.00132692
          0.00133831 0.00132692 0.00133831 0.00132692 0.00133831 0.00132692 0.0013383 0.00132692 0.0013383 0.00132692 0.0013383 0.00132699
          0.00133831 0.00132776 0.0013383 0.00132712 0.0013383 0.00132692 0.0013383 0.00132692 0.0013383 0.00132692 0.0013383 0.00132692
          0.0013383 0.00132692 0.0013383 0.00132692 0.0013383 0.00132692 0.0013383 0.00132692 0.0013383 0.00132692 0.0013383 0.00132691
          0 0 0 0.00132078 0.00132686 0.00132692 0.00132692 0.00132692 0.00132692 0.00132692 0.00132692 0.00132692
          0.00132699 0.00134132 0.00147878 0.0013659 0.0013272 0.00132692 0.00132692 0.00132692 0.00132692 0.00132692 0.00132692 0.00132692
          0.00132692 0.00132691 0 0 0.00132195 0.00132688 0.00132692 0.00132692 0.00132692 0.00132692 0.00132692 0.00132692
          0.00132693 0.0013427 0.00261769 0.00549278 0.00352459 0.00136766 0.00132705 0.00132692 0.00132692 0.00132692 0.00132692 0.00132692
          0.00132692 0.00132692 0.00132691 0 0 0.00132284 0.00132689 0.00132692 0.00132692 0.00132692 0.00132692 0.00132692
          0.00132692 0.00132923 0.00271562 0.0112843 0.0168141 0.0133417 0.00315002 0.00133848 0.00132694 0.00132692 0.00132692 0.00132692
          0.00132692 0.00132692 0.00132692 0.00132691 0 0 0.00132358 0.0013269 0.00132692 0.00132692 0.00132692 0.00132692
          0.00132692 0.00132692 0.00171689 0.0117047 0.0236113 0.0285803 0.0244994 0.0104698 0.00171212 0.00132775 0.00132692 0.00132692
          0.00132692 0.00132692 0.00132692 0.00132692 0.00132691 0 0 0.00132423 0.00132691 0.00132692 0.00132692 0.00132692
          0.00132692 0.00132692 0.00132721 0.00778096 0.0242102 0.0345637 0.0382572 0.0334233 0.0183735 0.0033327 0.00133687 0.00132693
          0.00132692 0.00132692 0.00132692 0.00132692 0.00132692 0.00132691 0 0 0.00132483 0.00132691 0.00132692 0.00132692
          0.00132692 0.00132692 0.00132692 0.00139349 0.0203281 0.034733 0.0425837 0.0448306 0.0397125 0.0239733 0.00555407 0.00137308
          0.00132698 0.00132692 0.00132692 0.00132692 0.00132692 0.00132692 0.00132691 0 0 0.00132541 0.00132691 0.00132692
          0.00132692 0.00132692 0.00132692 0.00132692 0.00445523 0.0312425 0.0423032 0.0480405 0.0489256 0.043213 0.0273703 0.00723957
          0.00142567 0.00132706 0.00132692 0.00132692 0.00132692 0.00132692 0.00132692 0.00132691 0 0 0.00132599 0.00132691
          0.00132692 0.00132692 0.00132692 0.00132692 0.00132694 0.016041 0.0389101 0.0474882 0.0515329 0.0512083 0.0447175 0.0288079
          0.00795133 0.0014527 0.0013271 0.00132692 0.00132692 0.00132692 0.00132692 0.00132692 0.00132691 0 0 0.00132659
          0.00132692 0.00132692 0.00132692 0.00132692 0.00132692 0.00132695 0.0277551 0.0443855 0.0508909 0.0536336 0.0521783 0.0447937
          0.0286283 0.00774966 0.00143894 0.00132707 0.00132692 0.00132692 0.00132692 0.00132692 0.00132692 0.00132691 0 0
          0.00132691 0.00132692 0.00132692 0.00132692 0.00132692 0.00132692 0.00132698 0.0350688 0.0481497 0.0530494 0.0548324 0.0522733
          0.0437658 0.027227 0.00687746 0.00140252 0.00132701 0.00132692 0.00132692 0.00132692 0.00132692 0.00132692 0.00132691 0
          0 0.00132691 0.00132692 0.00132692 0.00132692 0.00132692 0.00132692 0.00132699 0.0392051 0.0506846 0.0543887 0.0554866
          0.0517755 0.0418442 0.0248983 0.00562283 0.00136705 0.00132697 0.00132692 0.00132692 0.00132692 0.00132692 0.00132692 0.00132691
          0 0 0.00132691 0.00132692 0.00132692 0.00132692 0.00132692 0.00132692 0.00132701 0.0415539 0.0524581 0.0552204
          0.0558365 0.050854 0.0390929 0.0217954 0.00425098 0.00134384 0.00132694 0.00132692 0.00132692 0.00132692 0.00132692 0.00132692
          0.00132691 0 0 0.00132691 0.00132692 0.00132692 0.00132692 0.00132692 0.00132692 0.00132702 0.0429359 0.0537877
          0.0557388 0.0560265 0.0495828 0.0353717 0.0179349 0.00298177 0.00133251 0.00132692 0.00132692 0.00132692 0.00132692 0.00132692
          0.00132692 0.00132691 0 0 0.00132684 0.00132683 0.00132683 0.00132683 0.00132682 0.00132682 0.00132693 0.0437767
          0.0548593 0.0560545 0.0561385 0.047958 0.030148 0.013146 0.00198957 0.00132817 0.00132682 0.00132682 0.00132682 0.00132682
          0.00132682 0.00132682 0.00132682 0 0 0.00131572 0.00131572 0.00131572 0.00131572 0.00131572 0.00131572 0.00131583
          0.0443267 0.0557924 0.0562264 0.0562197 0.0459002 0.0211647 0.00646203 0.00139829 0.00131585 0.00131572 0.00131572 0.00131572
          0.00131572 0.00131572 0.00131572 0.00131572 0
        </DataArray>
        <DataArray type="Float32" Name="rhoW_0" NumberOfComponents="1" format="ascii">
          1000 1000 1000 1000 1000 1000 1000 1000 1000 1000 1000 1000
          1000 1000 1000 1000 1000 1000 1000 1000 1000 1000 1000 1000
          1000 1000 1000 1000 1000 1000 1000 1000 1000 1000 1000 1000
          1000 1000 1000 1000 1000 1000 1000 1000 1000 1000 1000 1000
          1000 1000 1000 1000 1000 1000 1000 1000 1000 1000 1000 1000
          1000 1000 1000 1000 1000 1000 1000 1000 1000 1000 1000 1000
          1000 1000 1000 1000 1000 1000 1000 1000 1000 1000 1000 1000
          1000 1000 1000 1000 1000 1000 1000 1000 1000 1000 1000 1000
          1000 1000 1000 1000 1000 1000 1000 1000 1000 1000 1000 1000
          1000 1000 1000 1000 1000 1000 1000 1000 1000 1000 1000 1000
          1000 1000 1000 1000 1000 1000 1000 1000 1000 1000 1000 1000
          1000 1000 1000 1000 1000 1000 1000 1000 1000 1000 1000 1000
          1000 1000 1000 1000 1000 1000 1000 1000 1000 1000 1000 1000
          1000 1000 1000 1000 1000 1000 1000 1000 1000 1000 1000 1000
          1000 1000 1000 1000 1000 1000 1000 1000 1000 1000 1000 1000
          1000 1000 1000 1000 1000 1000 1000 1000 1000 1000 1000 1000
          1000 1000 1000 1000 1000 1000 1000 1000 1000 1000 1000 1000
          1000 1000 1000 1000 1000 1000 1000 1000 1000 1000 1000 1000
          1000 1000 1000 1000 1000 1000 1000 1000 1000 1000 1000 1000
          1000 1000 1000 1000 1000 1000 1000 1000 1000 1000 1000 1000
          1000 1000 1000 1000 1000 1000 1000 1000 1000 1000 1000 1000
          1000 1000 1000 1000 1000 1000 1000 1000 1000 1000 1000 1000
          1000 1000 1000 1000 1000 1000 1000 1000 1000 1000 1000 1000
          1000 1000 1000 1000 1000 1000 1000 1000 1000 1000 1000 1000
          1000 1000 1000 1000 1000 1000 1000 1000 1000 1000 1000 1000
          1000 1000 1000 1000 1000 1000 1000 1000 1000 1000 1000 1000
          1000 1000 1000 1000 1000 1000 1000 1000 1000 1000 1000 1000
          1000 1000 1000 1000 1000 1000 1000 1000 1000 1000 1000 1000
          1000 1000 1000 1000 1000 1000 1000 1000 1000 1000 1000 1000
          1000 1000 1000 1000 1000 1000 1000 1000 1000 1000 1000 1000
          1000 1000 1000 1000 1000 1000 1000 1000 1000 1000 1000 1000
          1000 1000 1000 1000 1000 1000 1000 1000 1000 1000 1000 1000
          1000 1000 1000 1000 1000 1000 1000 1000 1000 1000 1000 1000
          1000 1000 1000 1000 1000 1000 1000 1000 1000 1000 1000 1000
          1000 1000 1000 1000 1000 1000 1000 1000 1000 1000 1000 1000
          1000 1000 1000 1000 1000
        </DataArray>
        <DataArray type="Float32" Name="rhoN_0" NumberOfComponents="1" format="ascii">
          1460 1460 1460 1460 1460 1460 1460 1460 1460 1460 1460 1460
          1460 1460 1460 1460 1460 1460 1460 1460 1460 1460 1460 1460
          1460 1460 1460 1460 1460 1460 1460 1460 1460 1460 1460 1460
          1460 1460 1460 1460 1460 1460 1460 1460 1460 1460 1460 1460
          1460 1460 1460 1460 1460 1460 1460 1460 1460 1460 1460 1460
          1460 1460 1460 1460 1460 1460 1460 1460 1460 1460 1460 1460
          1460 1460 1460 1460 1460 1460 1460 1460 1460 1460 1460 1460
          1460 1460 1460 1460 1460 1460 1460 1460 1460 1460 1460 1460
          1460 1460 1460 1460 1460 1460 1460 1460 1460 1460 1460 1460
          1460 1460 1460 1460 1460 1460 1460 1460 1460 1460 1460 1460
          1460 1460 1460 1460 1460 1460 1460 1460 1460 1460 1460 1460
          1460 1460 1460 1460 1460 1460 1460 1460 1460 1460 1460 1460
          1460 1460 1460 1460 1460 1460 1460 1460 1460 1460 1460 1460
          1460 1460 1460 1460 1460 1460 1460 1460 1460 1460 1460 1460
          1460 1460 1460 1460 1460 1460 1460 1460 1460 1460 1460 1460
          1460 1460 1460 1460 1460 1460 1460 1460 1460 1460 1460 1460
          1460 1460 1460 1460 1460 1460 1460 1460 1460 1460 1460 1460
          1460 1460 1460 1460 1460 1460 1460 1460 1460 1460 1460 1460
          1460 1460 1460 1460 1460 1460 1460 1460 1460 1460 1460 1460
          1460 1460 1460 1460 1460 1460 1460 1460 1460 1460 1460 1460
          1460 1460 1460 1460 1460 1460 1460 1460 1460 1460 1460 1460
          1460 1460 1460 1460 1460 1460 1460 1460 1460 1460 1460 1460
          1460 1460 1460 1460 1460 1460 1460 1460 1460 1460 1460 1460
          1460 1460 1460 1460 1460 1460 1460 1460 1460 1460 1460 1460
          1460 1460 1460 1460 1460 1460 1460 1460 1460 1460 1460 1460
          1460 1460 1460 1460 1460 1460 1460 1460 1460 1460 1460 1460
          1460 1460 1460 1460 1460 1460 1460 1460 1460 1460 1460 1460
          1460 1460 1460 1460 1460 1460 1460 1460 1460 1460 1460 1460
          1460 1460 1460 1460 1460 1460 1460 1460 1460 1460 1460 1460
          1460 1460 1460 1460 1460 1460 1460 1460 1460 1460 1460 1460
          1460 1460 1460 1460 1460 1460 1460 1460 1460 1460 1460 1460
          1460 1460 1460 1460 1460 1460 1460 1460 1460 1460 1460 1460
          1460 1460 1460 1460 1460 1460 1460 1460 1460 1460 1460 1460
          1460 1460 1460 1460 1460 1460 1460 1460 1460 1460 1460 1460
          1460 1460 1460 1460 1460 1460 1460 1460 1460 1460 1460 1460
          1460 1460 1460 1460 1460
        </DataArray>
        <DataArray type="Float32" Name="mobW_0" NumberOfComponents="1" format="ascii">
          1000 994.699 1000 994.735 994.658 994.703 994.657 994.703 994.657 994.703 994.657 994.703
          994.658 994.703 994.658 994.703 994.658 994.703 994.658 994.703 994.658 994.703 994.658 994.703
          994.657 994.7 994.658 994.702 994.658 994.703 994.658 994.703 994.658 994.703 994.658 994.703
          994.658 994.703 994.658 994.703 994.658 994.703 994.658 994.703 994.658 994.703 994.658 994.703
          1000 1000 1000 994.727 994.703 994.703 994.703 994.703 994.703 994.703 994.703 994.703
          994.703 994.646 994.098 994.548 994.702 994.703 994.703 994.703 994.703 994.703 994.703 994.703
          994.703 994.703 1000 1000 994.723 994.703 994.703 994.703 994.703 994.703 994.703 994.703
          994.703 994.64 989.57 978.209 985.976 994.541 994.702 994.703 994.703 994.703 994.703 994.703
          994.703 994.703 994.703 1000 1000 994.719 994.703 994.703 994.703 994.703 994.703 994.703
          994.703 994.694 989.182 955.621 934.421 947.692 987.459 994.657 994.703 994.703 994.703 994.703
          994.703 994.703 994.703 994.703 1000 1000 994.716 994.703 994.703 994.703 994.703 994.703
          994.703 994.703 993.15 953.997 908.847 890.487 905.545 958.774 993.169 994.7 994.703 994.703
          994.703 994.703 994.703 994.703 994.703 1000 1000 994.714 994.703 994.703 994.703 994.703
          994.703 994.703 994.702 969.238 906.619 868.749 855.531 872.861 928.507 986.736 994.663 994.703
          994.703 994.703 994.703 994.703 994.703 994.703 1000 1000 994.711 994.703 994.703 994.703
          994.703 994.703 994.703 994.438 921.133 868.14 840.24 832.38 850.364 907.5 977.968 994.519
          994.703 994.703 994.703 994.703 994.703 994.703 994.703 1000 1000 994.709 994.703 994.703
          994.703 994.703 994.703 994.703 982.298 880.765 841.225 821.247 818.197 838.033 894.932 971.355
          994.31 994.702 994.703 994.703 994.703 994.703 994.703 994.703 1000 1000 994.707 994.703
          994.703 994.703 994.703 994.703 994.703 937.364 853.21 823.155 809.262 810.37 832.774 889.653
          968.572 994.202 994.702 994.703 994.703 994.703 994.703 994.703 994.703 1000 1000 994.704
          994.703 994.703 994.703 994.703 994.703 994.703 893.517 833.933 811.455 802.116 807.061 832.509
          890.311 969.36 994.257 994.702 994.703 994.703 994.703 994.703 994.703 994.703 1000 1000
          994.703 994.703 994.703 994.703 994.703 994.703 994.703 866.933 820.87 804.098 798.06 806.738
          836.098 895.46 972.773 994.402 994.703 994.703 994.703 994.703 994.703 994.703 994.703 1000
          1000 994.703 994.703 994.703 994.703 994.703 994.703 994.703 852.163 812.161 799.559 795.852
          808.434 842.839 904.065 977.698 994.543 994.703 994.703 994.703 994.703 994.703 994.703 994.703
          1000 1000 994.703 994.703 994.703 994.703 994.703 994.703 994.703 843.861 806.109 796.75
          794.674 811.581 852.561 915.627 983.104 994.635 994.703 994.703 994.703 994.703 994.703 994.703
          994.703 1000 1000 994.703 994.703 994.703 994.703 994.703 994.703 994.702 839.004 801.594
          795.003 794.034 815.938 865.845 930.168 988.126 994.681 994.703 994.703 994.703 994.703 994.703
          994.703 994.703 1000 1000 994.703 994.703 994.703 994.703 994.703 994.703 994.703 836.06
          797.969 793.94 793.657 821.532 884.753 948.444 992.065 994.698 994.703 994.703 994.703 994.703
          994.703 994.703 994.703 1000 1000 994.747 994.747 994.747 994.747 994.747 994.747 994.747
          834.138 794.822 793.362 793.384 828.658 917.991 974.401 994.419 994.747 994.747 994.747 994.747
          994.747 994.747 994.747 994.747 1000
        </DataArray>
        <DataArray type="Float32" Name="mobM_0" NumberOfComponents="1" format="ascii">
          0 8.20831e-06 0 8.0456e-06 8.40307e-06 8.19066e-06 8.40507e-06 8.19213e-06 8.40499e-06 8.19214e-06 8.40494e-06 8.19214e-06
          8.4049e-06 8.19214e-06 8.40488e-06 8.19214e-06 8.40486e-06 8.19214e-06 8.40484e-06 8.19214e-06 8.40483e-06 8.19215e-06 8.40483e-06 8.19348e-06
          8.40497e-06 8.20786e-06 8.40484e-06 8.19589e-06 8.4048e-06 8.19217e-06 8.4048e-06 8.19214e-06 8.40479e-06 8.19214e-06 8.40479e-06 8.19214e-06
          8.40479e-06 8.19214e-06 8.40478e-06 8.19214e-06 8.40478e-06 8.19214e-06 8.40478e-06 8.19214e-06 8.40478e-06 8.19214e-06 8.40472e-06 8.19208e-06
          0 0 0 8.07903e-06 8.19117e-06 8.19213e-06 8.19214e-06 8.19214e-06 8.19214e-06 8.19214e-06 8.19214e-06 8.19214e-06
          8.19357e-06 8.46168e-06 1.13382e-05 8.9355e-06 8.19734e-06 8.19216e-06 8.19214e-06 8.19214e-06 8.19214e-06 8.19214e-06 8.19214e-06 8.19214e-06
          8.19214e-06 8.19208e-06 0 0 8.10059e-06 8.19148e-06 8.19214e-06 8.19214e-06 8.19214e-06 8.19214e-06 8.19214e-06 8.19214e-06
          8.19234e-06 8.48786e-06 6.28554e-05 0.00057988 0.000153361 8.97001e-06 8.19453e-06 8.19215e-06 8.19214e-06 8.19214e-06 8.19214e-06 8.19214e-06
          8.19214e-06 8.19214e-06 8.19208e-06 0 0 8.11693e-06 8.19169e-06 8.19214e-06 8.19214e-06 8.19214e-06 8.19214e-06 8.19214e-06