<?xml version="1.0"?>
<VTKFile type="UnstructuredGrid" version="0.1" byte_order="LittleEndian">
  <UnstructuredGrid>
    <Piece NumberOfCells="1536" NumberOfPoints="1617">
      <PointData Scalars="pW_0">
        <DataArray type="Float32" Name="pW_0" NumberOfComponents="1" format="ascii">
          153955 152659 152269 151306 151747 150450 150987 149713 150327 149064 149738 148483
          149205 147955 148719 147473 148272 147029 147858 146617 147474 146234 147114 145876
          146777 145541 146460 145224 146160 144926 145876 144642 145605 144373 145347 144116
          145099 143866 144856 143623 144618 143384 144382 143148 144149 142915 143918 142684
          143689 142455 143462 142227 143237 142002 143014 141780 142794 141560 142577 141343
          142364 141130 142154 140920 141949 140716 141748 140516 141553 140321 141363 140131
          141178 139947 140998 139768 140823 139594 140653 139424 140487 139258 140324 139095
          140164 138936 140006 138778 139850 138623 139695 138469 139541 138316 139387 138164
          139240 138014 150583 149789 149038 148354 147736 147174 146661 146189 145753 145348
          144971 144617 144285 143972 143676 143395 143128 142872 142624 142382 142144 141908
          141675 141444 141216 140989 140764 140542 140323 140107 139894 139686 139482 139283
          139089 138900 138717 138538 138365 138196 138030 137868 137709 137552 137396 137243
          137090 136939 136788 148897 148213 147550 146927 146350 145818 145326 144870 144446
          144052 143683 143336 143010 142703 142411 142135 141871 141618 141373 141132 140895
          140660 140429 140199 139971 139745 139521 139300 139082 138867 138655 138448 138245
          138047 137854 137667 137485 137307 137135 136966 136802 136640 136481 136325 136170
          136017 135865 135713 135561 147211 146608 146018 145452 144919 144420 143954 143518
          143111 142730 142372 142035 141717 141417 141132 140861 140602 140354 140111 139873
          139638 139405 139175 138946 138720 138495 138273 138053 137836 137622 137412 137206
          137005 136809 136617 136432 136251 136075 135904 135736 135573 135412 135254 135098
          134943 134791 134638 134487 134335 145525 144988 144457 143943 143453 142988 142550
          142138 141750 141385 141040 140715 140407 140116 139838 139574 139322 139078 138840
          138605 138373 138143 137914 137688 137463 137240 137019 136801 136586 136374 136166
          135962 135762 135568 135379 135194 135016 134841 134671 134505 134343 134183 134026
          133870 133717 133564 133412 133260 133109 143838 143356 142877 142410 141960 141530
          141121 140733 140366 140019 139690 139378 139082 138800 138532 138276 138031 137793
          137559 137329 137100 136873 136647 136423 136201 135980 135761 135545 135332 135122
          134916 134714 134517 134325 134138 133956 133779 133607 133438 133274 133112 132954
          132797 132643 132490 132337 132186 132034 131882 142152 141717 141284 140859 140447
          140050 139670 139308 138962 138634 138322 138024 137741 137471 137213 136966 136730
          136498 136270 136045 135820 135596 135374 135153 134933 134715 134499 134285 134075
          133867 133664 133464 133270 133080 132896 132716 132541 132371 132204 132042 131881
          131724 131568 131415 131262 131110 130959 130807 130656 140466 140073 139680 139294
          138917 138553 138201 137864 137542 137233 136939 136657 136388 136130 135883 135646
          135419 135195 134973 134753 134533 134313 134095 133877 133660 133445 133232 133022
          132814 132609 132409 132212 132020 131834 131652 131475 131303 131134 130970 130809
          130650 130494 130339 130186 130034 129883 129732 129581 129430 138780 138425 138069
          137719 137376 137042 136718 136407 136107 135819 135542 135277 135023 134778 134543
          134317 134099 133884 133669 133454 133239 133024 132810 132596 132383 132172 131962
          131755 131550 131349 131151 130958 130769 130586 130407 130233 130063 129897 129735
          129575 129418 129263 129110 128958 128806 128655 128505 128354 128204 137094 136774
          136453 136136 135824 135520 135224 134937 134660 134393 134135 133887 133648 133417
          133194 132980 132772 132565 132357 132149 131940 131730 131520 131311 131102 130895
          130689 130485 130284 130086 129892 129702 129517 129337 129161 128990 128823 128659
          128499 128341 128186 128032 127880 127729 127578 127428 127277 127127 126978 135408
          135120 134832 134546 134265 133989 133720 133458 133203 132957 132718 132487 132264
          132047 131838 131635 131438 131240 131040 130838 130635 130431 130226 130022 129818
          129615 129413 129213 129016 128822 128632 128445 128264 128087 127915 127747 127582
          127421 127263 127107 126953 126801 126650 126499 126349 126200 126050 125901 125751
          133722 133465 133208 132952 132700 132452 132208 131971 131739 131513 131294 131080
          130873 130671 130475 130284 130098 129909 129717 129523 129326 129128 128929 128729
          128530 128332 128134 127939 127746 127556 127370 127188 127010 126837 126668 126503
          126341 126183 126026 125872 125720 125569 125419 125270 125120 124971 124822 124674
          124525 132036 131809 131581 131355 131130 130909 130691 130478 130268 130063 129863
          129667 129476 129289 129107 128928 128754 128574 128390 128203 128013 127821 127628
          127434 127240 127047 126854 126663 126475 126289 126107 125929 125755 125586 125421
          125259 125100 124944 124790 124638 124487 124337 124188 124040 123891 123743 123595
          123447 123299 130350 130152 129953 129755 129558 129363 129170 128980 128793 128609
          128428 128250 128075 127903 127734 127568 127405 127235 127059 126880 126697 126512
          126325 126137 125949 125760 125573 125387 125203 125022 124844 124670 124501 124335
          124173 124015 123858 123705 123553 123403 123253 123105 122957 122809 122662 122514
          122367 122220 122072 128664 128494 128324 128153 127983 127814 127646 127480 127315
          127152 126990 126830 126671 126514 126359 126205 126053 125893 125726 125555 125379
          125201 125020 124838 124656 124473 124291 124110 123930 123754 123581 123412 123246
          123085 122926 122770 122617 122466 122316 122168 122020 121873 121726 121579 121432
          121286 121139 120993 120846 126978 126836 126694 126551 126408 126264 126121 125978
          125835 125693 125550 125407 125265 125123 124982 124841 124700 124549 124391 124228
          124060 123889 123715 123539 123363 123186 123008 122832 122658 122486 122318 122153
          121992 121834 121679 121527 121376 121227 121079 120932 120786 120640 120494 120348
          120203 120057 119911 119766 119620 125291 125178 125064 124948 124832 124715 124596
          124476 124356 124233 124110 123985 123859 123732 123604 123476 123346 123205 123056
          122901 122740 122576 122409 122240 122070 121898 121726 121555 121386 121219 121056
          120896 120739 120584 120433 120283 120135 119988 119843 119697 119552 119408 119263
          119118 118973 118828 118683 118539 118394 123605 123521 123434 123346 123257 123166
          123072 122976 122877 122775 122671 122564 122454 122342 122228 122111 121993 121861
          121721 121574 121421 121265 121105 120942 120778 120612 120445 120279 120115 119953
          119794 119639 119486 119335 119187 119040 118895 118750 118606 118462 118319 118175
          118031 117887 117743 117599 117455 117311 117168 121919 121863 121806 121746 121684
          121619 121551 121478 121401 121320 121235 121145 121052 120954 120853 120748 120641
          120519 120387 120249 120104 119955 119801 119645 119487 119326 119165 119005 118845
          118689 118534 118383 118234 118087 117942 117798 117655 117512 117370 117227 117085
          116942 116800 116657 116514 116371 116228 116084 115941 120233 120207 120179 120149
          120115 120077 120033 119984 119930 119869 119803 119731 119653 119570 119482 119389
          119292 119179 119056 118926 118789 118647 118500 118351 118198 118043 117887 117732
          117577 117426 117276 117129 116984 116840 116698 116556 116415 116275 116134 115993
          115851 115710 115568 115426 115284 115142 115000 114857 114715 118547 118552 118555
          118555 118550 118539 118521 118497 118464 118424 118377 118322 118259 118190 118115
          118033 117946 117843 117729 117606 117477 117342 117202 117059 116912 116762 116611
          116461 116312 116164 116019 115876 115735 115594 115455 115316 115177 115038 114898
          114758 114618 114478 114337 114196 114055 113913 113772 113630 113489 116861 116899
          116934 116965 116990 117008 117017 117017 117007 116987 116958 116920 116873 116817
          116754 116683 116606 116512 116406 116291 116169 116041 115908 115770 115629 115484
          115338 115193 115048 114906 114765 114626 114487 114350 114213 114076 113939 113801
          113663 113524 113385 113246 113106 112966 112825 112685 112544 112403 112262 115175
          115248 115318 115382 115439 115486 115522 115546 115559 115560 115549 115527 115495
          115452 115401 115340 115272 115186 115088 114981 114866 114745 114618 114486 114349
          114210 114068 113927 113788 113649 113513 113377 113242 113107 112972 112837 112702
          112565 112428 112291 112153 112014 111875 111736 111596 111456 111316 111176 111036
          113489 113600 113707 113807 113897 113974 114038 114088 114123 114144 114151 114145
          114126 114097 114056 114005 113945 113868 113777 113677 113569 113454 113333 113206
          113074 112939 112802 112665 112530 112396 112263 112130 111998 111866 111733 111600
          111465 111330 111195 111058 110921 110783 110645 110506 110367 110228 110089 109949
          109810 111803 111956 112104 112242 112367 112477 112569 112644 112701 112741 112766
          112775 112770 112752 112721 112680 112627 112557 112474 112381 112278 112169 112053
          111930 111803 111672 111539 111407 111276 111145 111016 110886 110756 110626 110495
          110363 110230 110096 109961 109826 109689 109552 109415 109277 109139 109000 108861
          108723 108584 110117 110317 110511 110691 110854 110996 111117 111217 111296 111355
          111396 111419 111426 111419 111398 111364 111319 111256 111179 111091 110995 110890
          110779 110661 110537 110409 110281 110152 110025 109898 109771 109644 109517 109388
          109259 109128 108996 108863 108729 108594 108458 108322 108185 108048 107910 107772
          107634 107496 107358 108430 108686 108931 109158 109361 109538 109688 109812 109911
          109988 110043 110079 110098 110100 110087 110061 110021 109964 109893 109811 109719
          109619 109511 109397 109276 109152 109027 108902 108778 108654 108530 108405 108279
          108152 108024 107894 107763 107631 107497 107363 107228 107092 106956 106819 106682
          106545 106407 106269 106131 106744 107065 107371 107649 107895 108106 108284 108431
          108549 108641 108710 108757 108785 108795 108790 108769 108735 108683 108617 108539
          108451 108355 108250 108139 108021 107899 107777 107656 107535 107413 107292 107168
          107044 106918 106791 106661 106531 106399 106267 106133 105998 105863 105727 105591
          105454 105317 105180 105043 104905 105058 105461 105838 106175 106464 106708 106912
          107079 107213 107319 107398 107455 107490 107507 107507 107492 107462 107414 107351
          107277 107192 107099 106997 106887 106771 106652 106532 106414 106295 106176 106056
          105934 105811 105686 105559 105430 105300 105169 105037 104904 104770 104635 104499
          104363 104227 104090 103953 103816 103679 103372 103886 104351 104748 105079 105352
          105576 105759 105906 106022 106109 106173 106214 106236 106240 106228 106201 106156
          106096 106024 105942 105851 105751 105643 105528 105410 105293 105177 105060 104943
          104823 104703 104580 104455 104328 104200 104071 103940 103808 103675 103541 103407
          103272 103136 103000 102863 102726 102590 102452 101686 102368 102939 103389 103750
          104044 104282 104475 104630 104752 104845 104913 104958 104982 104989 104979 104954
          104911 104852 104782 104702 104611 104512 104405 104291 104174 104059 103944 103829
          103712 103594 103473 103351 103226 103100 102972 102843 102712 102580 102448 102314
          102180 102045 101909 101773 101637 101500 101363 101226 100000 101016 101644 102116
          102489 102789 103033 103230 103387 103511 103606 103675 103721 103747 103754 103745
          103721 103678 103620 103551 103471 103381 103282 103175 103061 102943 102830 102716
          102601 102485 102366 102246 102123 101999 101873 101745 101616 101485 101354 101221
          101087 100953 100818 100683 100547 100410 100274 100137 100000
        </DataArray>
        <DataArray type="Float32" Name="pN_0" NumberOfComponents="1" format="ascii">
          154955 153660 153269 152307 152748 151451 151989 150715 151329 150066 150740 149484
          150208 148957 149723 148475 149276 148030 148862 147619 148478 147236 148119 146878
          147782 146542 147465 146226 147165 145927 146881 145644 146611 145375 146354 145119
          146109 144872 145871 144631 145638 144394 145409 144161 145183 143930 144960 143702
          144738 143475 144519 143250 144302 143026 144088 142805 143875 142586 143666 142370
          143459 142157 143256 141948 143057 141743 142862 141541 142671 141345 142485 141153
          142303 140967 142126 140786 141953 140609 141784 140437 141619 140269 141458 140104
          141298 139943 141141 139784 140986 139627 140830 139472 140673 139318 140501 139166
          140240 139014 151583 150790 150039 149355 148737 148176 147663 147191 146755 146350
          145972 145619 145286 144973 144678 144397 144130 143876 143630 143390 143154 142922
          142691 142463 142236 142011 141788 141568 141349 141133 140921 140712 140507 140306
          140111 139920 139734 139554 139378 139206 139039 138875 138714 138556 138399 138245
          138092 137940 137788 149897 149214 148551 147928 147351 146819 146327 145871 145448
          145053 144684 144338 144012 143704 143413 143136 142873 142622 142379 142141 141906
          141675 141446 141218 140992 140768 140546 140326 140108 139893 139682 139474 139270
          139070 138875 138686 138501 138322 138147 137976 137810 137646 137486 137328 137172
          137019 136866 136714 136561 148211 147609 147019 146454 145920 145421 144955 144520
          144113 143731 143374 143037 142719 142418 142133 141862 141605 141358 141118 140882
          140650 140421 140193 139967 139742 139519 139298 139079 138863 138649 138439 138232
          138029 137831 137638 137450 137266 137088 136915 136745 136580 136417 136258 136101
          135946 135792 135640 135488 135335 146525 145988 145458 144945 144454 143990 143552
          143139 142751 142386 142042 141717 141409 141117 140840 140576 140325 140083 139848
          139616 139386 139159 138933 138709 138486 138265 138045 137828 137613 137401 137192
          136987 136786 136590 136398 136212 136030 135854 135682 135514 135349 135188 135029
          134873 134719 134566 134414 134262 134109 144838 144357 143878 143411 142962 142532
          142122 141735 141368 141020 140691 140379 140083 139802 139533 139277 139034 138799
          138568 138340 138115 137890 137667 137445 137224 137005 136788 136572 136359 136149
          135942 135739 135540 135346 135156 134972 134793 134618 134448 134281 134118 133958
          133800 133645 133491 133339 133187 133035 132882 143152 142718 142285 141860 141448
          141051 140672 140309 139964 139636 139323 139026 138743 138473 138215 137968 137733
          137505 137280 137057 136836 136615 136395 136176 135958 135741 135526 135313 135102
          134894 134689 134489 134292 134100 133913 133731 133554 133381 133213 133048 132886
          132728 132571 132417 132264 132112 131960 131809 131656 141466 141074 140681 140295
          139919 139554 139203 138866 138543 138235 137940 137659 137389 137132 136885 136648
          136423 136202 135984 135766 135550 135333 135116 134901 134686 134472 134260 134049
          133841 133636 133434 133236 133042 132853 132668 132489 132314 132144 131977 131814
          131654 131497 131341 131188 131036 130885 130733 130582 130430 139780 139426 139071
          138720 138377 138043 137720 137408 137108 136820 136544 136279 136024 135780 135545
          135319 135104 134892 134680 134469 134257 134045 133833 133621 133409 133199 132990
          132783 132578 132375 132176 131981 131790 131604 131422 131246 131074 130906 130741
          130580 130422 130266 130112 129959 129808 129657 129506 129356 129204 138094 137775
          137454 137137 136826 136521 136225 135939 135662 135394 135137 134888 134649 134418
          134196 133981 133777 133574 133370 133165 132959 132752 132544 132336 132129 131922
          131717 131513 131311 131112 130916 130724 130537 130354 130175 130002 129832 129667
          129505 129346 129189 129034 128882 128730 128580 128429 128279 128129 127978 136408
          136121 135833 135548 135266 134991 134721 134459 134205 133958 133720 133489 133265
          133049 132839 132637 132444 132250 132054 131855 131655 131454 131251 131048 130845
          130642 130441 130241 130043 129847 129655 129466 129282 129103 128928 128757 128591
          128428 128268 128111 127956 127803 127651 127501 127351 127201 127052 126902 126751
          134722 134467 134209 133954 133701 133453 133210 132972 132740 132515 132295 132082
          131874 131673 131476 131286 131105 130920 130732 130541 130347 130151 129954 129756
          129558 129360 129163 128967 128772 128581 128392 128208 128027 127851 127680 127512
          127349 127188 127031 126875 126722 126571 126421 126271 126122 125973 125824 125675
          125525 133036 132810 132583 132356 132132 131911 131693 131479 131270 131065 130865
          130669 130478 130291 130108 129930 129761 129586 129406 129222 129035 128846 128654
          128461 128268 128075 127882 127691 127501 127313 127129 126948 126772 126599 126431
          126267 126107 125949 125793 125640 125489 125339 125190 125041 124893 124744 124596
          124448 124299 131350 131153 130954 130756 130559 130364 130172 129982 129795 129611
          129430 129252 129077 128905 128736 128570 128413 128248 128077 127901 127720 127537
          127352 127165 126977 126789 126601 126414 126228 126045 125865 125688 125516 125347
          125183 125022 124864 124709 124556 124405 124255 124107 123959 123811 123663 123516
          123369 123221 123072 129664 129496 129325 129155 128985 128816 128648 128482 128317
          128153 127991 127831 127672 127516 127360 127207 127063 126907 126745 126576 126403
          126227 126048 125867 125684 125502 125319 125136 124955 124776 124600 124428 124260
          124096 123935 123777 123622 123469 123319 123169 123022 122874 122727 122580 122434
          122287 122141 121994 121846 127978 127838 127695 127552 127409 127266 127123 126980
          126837 126694 126551 126409 126267 126125 125983 125842 125710 125565 125411 125251
          125085 124915 124743 124568 124391 124214 124036 123858 123682 123508 123336 123169
          123005 122844 122687 122532 122380 122230 122081 121934 121788 121642 121496 121350
          121204 121058 120913 120767 120620 126291 126180 126065 125950 125833 125716 125598
          125478 125357 125235 125111 124987 124861 124734 124606 124477 124358 124222 124077
          123925 123766 123604 123438 123269 123099 122927 122754 122581 122409 122239 122073
          121910 121750 121593 121439 121288 121139 120991 120844 120699 120554 120409 120264
          120119 119975 119830 119685 119540 119394 124605 124522 124436 124348 124259 124167
          124074 123977 123879 123777 123672 123565 123456 123343 123229 123113 123005 122879
          122743 122599 122448 122292 122133 121971 121806 121640 121472 121304 121137 120972
          120810 120651 120496 120343 120193 120044 119898 119752 119608 119464 119320 119176
          119033 118889 118745 118601 118457 118313 118168 122919 122865 122807 122748 122686
          122621 122552 122480 122403 122322 122236 122147 122053 121956 121854 121750 121654
          121538 121411 121274 121131 120983 120830 120674 120516 120355 120192 120029 119866
          119706 119549 119395 119243 119094 118947 118801 118657 118514 118371 118229 118087
          117944 117801 117658 117515 117372 117229 117086 116941 121233 121209 121181 121150
          121116 121078 121035 120986 120931 120871 120804 120732 120654 120571 120483 120390
          120306 120199 120080 119952 119817 119675 119529 119380 119227 119071 118913 118755
          118597 118442 118289 118139 117991 117846 117702 117559 117417 117276 117135 116994
          116853 116711 116570 116428 116286 116143 116001 115859 115715 119547 119553 119556
          119556 119551 119540 119523 119498 119466 119426 119378 119323 119261 119192 119116
          119035 118962 118864 118754 118633 118505 118371 118232 118088 117941 117790 117637
          117483 117330 117179 117031 116885 116741 116599 116458 116318 116178 116039 115900
          115760 115620 115479 115338 115197 115056 114915 114773 114632 114489 117861 117900
          117936 117967 117992 118009 118018 118018 118008 117989 117960 117922 117874 117819
          117756 117685 117623 117534 117432 117319 117198 117070 116937 116800 116657 116511
          116363 116214 116065 115919 115775 115633 115493 115354 115216 115078 114940 114803
          114665 114526 114387 114247 114107 113967 113827 113686 113546 113405 113262 116175
          116249 116319 116384 116440 116487 116523 116548 116560 116561 116550 116529 116496
          116454 116402 116342 116290 116210 116115 116009 115895 115774 115647 115515 115378
          115236 115092 114947 114803 114662 114522 114383 114247 114110 113974 113839 113703
          113567 113430 113292 113154 113016 112877 112737 112598 112458 112318 112178 112036
          114489 114601 114709 114808 114898 114976 115040 115089 115124 115145 115152 115146
          115128 115098 115058 115007 114964 114892 114805 114706 114598 114483 114362 114235
          114102 113965 113824 113684 113544 113407 113271 113136 113002 112868 112735 112601
          112467 112332 112196 112059 111922 111785 111646 111508 111369 111230 111090 110951
          110810 112803 112957 113105 113244 113369 113478 113570 113645 113702 113743 113767
          113776 113771 113753 113723 113681 113647 113582 113502 113409 113308 113198 113082
          112960 112831 112697 112560 112424 112288 112155 112022 111891 111760 111628 111497
          111365 111232 111098 110963 110827 110691 110554 110416 110278 110140 110002 109863
          109724 109584 111117 111319 111512 111692 111855 111998 112119 112219 112298 112357
          112397 112421 112428 112420 112399 112366 112339 112282 112207 112120 112024 111920
          111808 111690 111565 111434 111301 111168 111036 110906 110777 110648 110519 110390
          110260 110129 109997 109864 109730 109595 109460 109324 109187 109049 108912 108774
          108636 108497 108358 109430 109687 109932 110159 110362 110539 110689 110813 110913
          110989 111045 111081 111099 111101 111088 111062 111042 110991 110921 110840 110748
          110648 110540 110426 110304 110175 110045 109915 109787 109661 109534 109408 109281
          109154 109025 108895 108764 108632 108499 108364 108229 108094 107958 107821 107684
          107546 107408 107271 107131 107744 108067 108372 108651 108896 109108 109286 109432
          109551 109643 109711 109759 109787 109797 109791 109771 109757 109710 109645 109568
          109481 109384 109280 109168 109048 108921 108794 108667 108543 108419 108295 108171
          108046 107919 107792 107663 107532 107401 107268 107134 107000 106865 106729 106592
          106456 106319 106181 106044 105905 106058 106462 106840 107176 107465 107710 107913
          108080 108214 108320 108399 108456 108492 108509 108508 108493 108484 108441 108380
          108306 108222 108128 108026 107917 107798 107672 107547 107424 107302 107180 107059
          106936 106812 106687 106560 106431 106302 106170 106038 105905 105771 105636 105501
          105365 105228 105091 104954 104817 104679 104372 104887 105352 105749 106080 106353
          106578 106760 106907 107023 107111 107174 107215 107237 107241 107229 107223 107184
          107125 107054 106972 106880 106780 106672 106554 106428 106305 106184 106065 105945
          105825 105704 105581 105456 105330 105202 105072 104941 104809 104676 104543 104408
          104273 104137 104001 103864 103728 103591 103452 102686 103369 103940 104390 104751
          105045 105283 105476 105631 105753 105846 105914 105959 105983 105990 105980 105977
          105939 105882 105812 105731 105641 105542 105435 105316 105189 105068 104949 104832
          104714 104595 104474 104352 104227 104101 103973 103844 103713 103581 103449 103315
          103181 103046 102910 102774 102638 102501 102364 102226 101000 102017 102644 103116
          103490 103790 104034 104230 104388 104512 104607 104676 104722 104748 104755 104746
          104744 104707 104650 104580 104500 104410 104311 104205 104085 103954 103835 103718
          103602 103486 103367 103247 103124 103000 102873 102746 102616 102486 102354 102222
          102088 101954 101819 101683 101547 101411 101274 101138 101000
        </DataArray>
        <DataArray type="Float32" Name="pC_0" NumberOfComponents="1" format="ascii">
          1000 1000.9 1000 1000.71 1001.37 1000.94 1001.81 1001.12 1002.23 1001.26 1002.63 1001.36
          1003.01 1001.43 1003.36 1001.48 1003.68 1001.5 1003.98 1001.52 1004.26 1001.53 1004.51 1001.53
          1004.74 1001.53 1004.95 1001.53 1005.14 1001.53 1005.31 1001.53 1005.55 1001.75 1006.79 1003.16
          1009.93 1005.17 1014.58 1007.52 1020.3 1010.06 1026.83 1012.7 1033.98 1015.31 1041.57 1017.81
          1049.45 1020.13 1057.49 1022.22 1065.57 1024.03 1073.56 1025.53 1081.36 1026.68 1088.84 1027.42
          1095.89 1027.72 1102.4 1027.55 1108.28 1026.88 1113.48 1025.74 1117.97 1024.15 1121.77 1022.19
          1124.93 1019.98 1127.52 1017.61 1129.64 1015.21 1131.35 1012.88 1132.74 1010.7 1133.85 1008.7
          1134.72 1006.91 1135.37 1005.32 1135.68 1003.91 1135.21 1002.77 1131.61 1002.04 1114.42 1001.71
          1000 1000 1000 1000.75 1000.99 1001.16 1001.28 1001.38 1001.44 1001.48 1001.51 1001.52
          1001.53 1001.53 1001.53 1001.53 1001.53 1001.53 1001.91 1003.55 1005.71 1008.18 1010.81 1013.47
          1016.05 1018.45 1020.63 1022.52 1024.1 1025.33 1026.18 1026.61 1026.58 1026.09 1025.12 1023.7
          1021.91 1019.82 1017.56 1015.23 1012.94 1010.77 1008.79 1007.02 1005.45 1004.06 1002.87 1002.03
          1001.66 1001.55 1000 1000 1000.79 1001.03 1001.19 1001.31 1001.4 1001.46 1001.49 1001.51
          1001.52 1001.53 1001.53 1001.53 1001.53 1001.53 1001.53 1002.14 1003.99 1006.33 1008.94 1011.67
          1014.39 1016.98 1019.35 1021.46 1023.26 1024.73 1025.83 1026.52 1026.78 1026.56 1025.87 1024.7
          1023.1 1021.15 1018.95 1016.61 1014.26 1011.99 1009.88 1007.97 1006.28 1004.79 1003.49 1002.44
          1001.81 1001.59 1001.54 1000 1000 1000.83 1001.06 1001.22 1001.34 1001.42 1001.47 1001.5
          1001.52 1001.52 1001.53 1001.53 1001.53 1001.53 1001.53 1001.53 1002.42 1004.48 1007 1009.76
          1012.59 1015.35 1017.93 1020.26 1022.29 1023.99 1025.33 1026.28 1026.82 1026.89 1026.48 1025.58
          1024.21 1022.44 1020.34 1018.03 1015.64 1013.28 1011.05 1009 1007.18 1005.58 1004.17 1002.97
          1002.09 1001.68 1001.56 1001.53 1000 1000 1000.86 1001.1 1001.25 1001.36 1001.43 1001.48
          1001.51 1001.52 1001.53 1001.53 1001.53 1001.53 1001.53 1001.53 1001.53 1002.74 1005.03 1007.75
          1010.65 1013.56 1016.35 1018.91 1021.17 1023.11 1024.69 1025.89 1026.69 1027.05 1026.93 1026.32
          1025.21 1023.64 1021.69 1019.46 1017.06 1014.64 1012.29 1010.11 1008.15 1006.41 1004.9 1003.58
          1002.51 1001.85 1001.6 1001.54 1001.53 1000 1000 1000.89 1001.13 1001.28 1001.39 1001.45
          1001.49 1001.51 1001.52 1001.53 1001.53 1001.53 1001.53 1001.53 1001.53 1001.53 1003.1 1005.65
          1008.56 1011.6 1014.58 1017.37 1019.89 1022.08 1023.9 1025.35 1026.4 1027.04 1027.21 1026.89
          1026.07 1024.75 1022.98 1020.86 1018.51 1016.05 1013.61 1011.3 1009.19 1007.32 1005.68 1004.25
          1003.04 1002.14 1001.69 1001.56 1001.54 1001.53 1000 1000 1000.92 1001.16 1001.31 1001.41
          1001.46 1001.5 1001.52 1001.52 1001.53 1001.53 1001.53 1001.53 1001.53 1001.53 1001.53 1003.51
          1006.33 1009.44 1012.6 1015.64 1018.42 1020.87 1022.96 1024.65 1025.96 1026.86 1027.31 1027.3
          1026.77 1025.72 1024.19 1022.23 1019.96 1017.5 1015 1012.58 1010.32 1008.29 1006.51 1004.97
          1003.64 1002.56 1001.87 1001.61 1001.55 1001.53 1001.53 1000 1000 1000.94 1001.19 1001.33
          1001.42 1001.48 1001.51 1001.52 1001.53 1001.53 1001.53 1001.53 1001.53 1001.53 1001.53 1001.54
          1003.98 1007.09 1010.4 1013.67 1016.73 1019.48 1021.85 1023.81 1025.37 1026.52 1027.25 1027.52
          1027.3 1026.55 1025.28 1023.53 1021.39 1018.98 1016.45 1013.93 1011.54 1009.35 1007.42 1005.74
          1004.3 1003.08 1002.17 1001.71 1001.57 1001.54 1001.53 1001.53 1000 1000 1000.97 1001.22
          1001.36 1001.44 1001.49 1001.51 1001.52 1001.53 1001.53 1001.53 1001.53 1001.53 1001.53 1001.53
          1001.54 1004.52 1007.92 1011.41 1014.78 1017.85 1020.53 1022.79 1024.62 1026.02 1027.01 1027.57
          1027.65 1027.22 1026.24 1024.74 1022.78 1020.47 1017.95 1015.36 1012.84 1010.5 1008.41 1006.58