<?xml version="1.0"?>
<VTKFile type="UnstructuredGrid" version="0.1" byte_order="LittleEndian">
  <UnstructuredGrid>
    <Piece NumberOfCells="384" NumberOfPoints="425">
      <PointData Scalars="pW_0">
        <DataArray type="Float32" Name="pW_0" NumberOfComponents="1" format="ascii">
          153955 151762 150583 149058 150328 147739 149200 146657 148262 145744 147460 144958
          146760 144269 146138 143655 145579 143102 145069 142597 144598 142130 144149 141670
          143689 141210 143234 140756 142788 140312 142353 139881 141936 139466 141540 139072
          141171 138705 140825 138367 140496 138043 140175 137724 139859 137409 139546 137097
          139240 136788 147211 146026 144922 143951 143104 142361 141702 141113 140578 140089
          139628 139167 138712 138263 137825 137399 136990 136601 136240 135906 135586 135269
          134956 134645 134335 143838 142881 141961 141118 140360 139680 139068 138515 138010
          137545 137092 136639 136191 135751 135322 134904 134503 134123 133769 133441 133125
          132811 132500 132191 131882 140466 139682 138917 138199 137536 136931 136377 135870
          135401 134966 134525 134086 133651 133223 132805 132399 132009 131639 131294 130973
          130661 130351 130043 129736 129430 137094 136454 135823 135221 134655 134129 133639
          133185 132761 132353 131932 131511 131094 130681 130278 129885 129508 129150 128816
          128502 128194 127889 127584 127281 126978 133722 133208 132698 132206 131735 131289
          130867 130469 130094 129712 129318 128921 128523 128129 127742 127365 127002 126657
          126335 126029 125726 125425 125125 124825 124525 130350 129953 129556 129168 128790
          128424 128070 127730 127403 127053 126690 126318 125944 125570 125201 124841 124494
          124163 123853 123554 123257 122961 122664 122368 122072 126978 126693 126406 126119
          125832 125546 125261 124978 124698 124385 124053 123711 123360 123008 122659 122317
          121985 121670 121371 121079 120788 120496 120204 119912 119620 123605 123433 123255
          123069 122874 122667 122450 122224 121990 121715 121417 121103 120778 120447 120118
          119794 119479 119177 118890 118604 118318 118031 117744 117456 117168 120233 120178
          120112 120030 119926 119799 119649 119478 119288 119051 118786 118501 118200 117891
          117581 117275 116976 116688 116410 116131 115850 115567 115284 114999 114715 116861
          116932 116987 117013 117003 116954 116869 116750 116602 116402 116168 115910 115633
          115344 115052 114763 114479 114204 113933 113659 113382 113104 112824 112544 112262
          113489 113704 113892 114033 114118 114147 114123 114052 113941 113775 113570 113336
          113079 112809 112534 112259 111988 111724 111459 111190 110917 110642 110366 110088
          109810 110117 110506 110848 111112 111292 111392 111423 111394 111315 111178 110997
          110783 110544 110288 110028 109766 109506 109250 108989 108723 108454 108182 107908
          107633 107358 106744 107362 107886 108278 108545 108707 108782 108786 108732 108617
          108455 108256 108029 107784 107535 107284 107033 106782 106524 106261 105994 105724
          105452 105179 104905 103372 104332 105070 105571 105903 106106 106211 106237 106198
          106097 105946 105757 105537 105299 105059 104815 104570 104320 104064 103802 103537
          103268 102998 102725 102452 100000 101629 102482 103029 103384 103603 103718 103752
          103718 103622 103475 103289 103071 102834 102599 102358 102114 101864 101609 101348
          101083 100815 100544 100273 100000
        </DataArray>
        <DataArray type="Float32" Name="pN_0" NumberOfComponents="1" format="ascii">
          154955 152763 151583 150059 151329 148740 150201 147658 149264 146746 148461 145959
          147761 145270 147140 144656 146580 144104 146070 143598 145604 143137 145170 142684
          144724 142229 144279 141778 143842 141335 143415 140903 143002 140485 142607 140085
          142237 139711 141890 139368 141558 139044 141234 138725 140913 138410 140595 138098
          140240 137788 148211 147027 145924 144952 144105 143362 142704 142114 141580 141092
          140640 140184 139732 139286 138848 138422 138009 137614 137245 136908 136587 136270
          135957 135646 135335 144838 143882 142962 142120 141361 140681 140070 139516 139011
          138553 138106 137658 137214 136776 136346 135927 135522 135135 134774 134443 134126
          133812 133501 133192 132882 141466 140683 139918 139200 138538 137932 137378 136871
          136403 135977 135542 135107 134675 134249 133830 133422 133027 132650 132298 131974
          131662 131352 131044 130737 130430 138094 137455 136824 136222 135657 135130 134640
          134186 133765 133367 132951 132535 132119 131707 131302 130907 130525 130160 129819
          129503 129196 128890 128585 128282 127978 134722 134209 133700 133207 132736 132290
          131868 131470 131102 130728 130340 129945 129550 129155 128766 128386 128018 127665
          127337 127030 126728 126426 126126 125826 125525 131350 130954 130557 130169 129791
          129425 129072 128731 128415 128072 127713 127344 126971 126596 126225 125861 125508
          125170 124855 124556 124259 123962 123666 123370 123072 127978 127694 127407 127120
          126833 126547 126263 125980 125713 125406 125078 124738 124388 124034 123682 123335
          122998 122674 122372 122081 121789 121497 121205 120913 120620 124605 124434 124256
          124070 123875 123668 123452 123225 123006 122737 122443 122130 121805 121473 121139
          120810 120489 120181 119891 119606 119320 119032 118745 118457 118168 121233 121179
          121113 121031 120927 120800 120650 120479 120306 120075 119813 119529 119228 118916
          118602 118290 117984 117691 117411 117132 116851 116568 116285 116001 115715 117861
          117933 117988 118014 118004 117956 117870 117751 117621 117427 117196 116939 116660
          116368 116071 115776 115484 115205 114934 114660 114384 114105 113826 113545 113262
          114489 114705 114894 115035 115120 115148 115124 115053 114962 114802 114599 114365
          114106 113831 113550 113270 112992 112725 112460 112191 111918 111644 111367 111089
          110810 111117 111507 111849 112113 112293 112393 112424 112396 112337 112205 112026
          111813 111570 111309 111042 110774 110509 110251 109990 109725 109455 109184 108910
          108635 108358 107744 108363 108888 109280 109546 109708 109783 109788 109754 109645
          109484 109285 109054 108803 108547 108290 108035 107783 107525 107262 106995 106726
          106454 106180 105905 104372 105333 106071 106573 106904 107108 107213 107238 107221
          107126 106975 106786 106562 106315 106068 105818 105571 105321 105065 104804 104538
          104270 103999 103727 103452 101000 102631 103483 104030 104385 104604 104720 104753
          104741 104651 104504 104318 104095 103845 103603 103360 103115 102865 102610 102349
          102084 101816 101546 101274 101000
        </DataArray>
        <DataArray type="Float32" Name="pC_0" NumberOfComponents="1" format="ascii">
          1000 1001.24 1000 1001.19 1001.32 1001.24 1001.32 1001.24 1001.32 1001.24 1001.32 1001.24
          1001.32 1001.24 1001.32 1001.24 1001.32 1001.24 1001.33 1001.39 1006.07 1007.55 1021.35 1014.33
          1034.19 1018.91 1045.4 1021.83 1054.74 1023.11 1061.71 1022.52 1065.79 1019.48 1067.04 1013.23
          1066.7 1005.33 1065.11 1001.51 1062.25 1001.24 1058.48 1001.24 1054.19 1001.24 1048.25 1001.24
          1000 1000 1000 1001.2 1001.24 1001.24 1001.24 1001.24 1001.24 1001.24 1001.24 1003.08
          1011.42 1017.11 1020.95 1023.23 1023.92 1022.78 1019.29 1012.8 1004.93 1001.45 1001.24 1001.24
          1001.24 1001.24 1000 1000 1001.21 1001.24 1001.24 1001.24 1001.24 1001.24 1001.24 1001.25
          1007.07 1014.56 1019.46 1022.71 1024.43 1024.57 1022.92 1018.96 1012.16 1004.4 1001.39 1001.24
          1001.24 1001.24 1001.24 1000 1000 1001.21 1001.24 1001.24 1001.24 1001.24 1001.24 1001.24
          1001.51 1010.96 1017.23 1021.48 1024.18 1025.33 1024.89 1022.68 1018.23 1011.12 1003.68 1001.32
          1001.24 1001.24 1001.24 1001.24 1000 1000 1001.22 1001.24 1001.24 1001.24 1001.24 1001.24
          1001.24 1003.8 1014.01 1019.52 1023.22 1025.37 1025.93 1024.88 1022.1 1017.15 1009.74 1002.89
          1001.28 1001.24 1001.24 1001.24 1001.24 1000 1000 1001.22 1001.24 1001.24 1001.24 1001.24
          1001.24 1001.24 1008.16 1016.6 1021.52 1024.7 1026.3 1026.25 1024.56 1021.19 1015.74 1008.12
          1002.19 1001.25 1001.24 1001.24 1001.24 1001.24 1000 1000 1001.22 1001.24 1001.24 1001.24
          1001.24 1001.24 1001.24 1011.81 1018.9 1023.27 1025.94 1026.99 1026.28 1023.93 1019.99 1014.05
          1006.38 1001.69 1001.24 1001.24 1001.24 1001.24 1001.24 1000 1000 1001.23 1001.24 1001.24
          1001.24 1001.24 1001.24 1001.24 1014.4 1020.9 1024.77 1026.95 1027.43 1026.02 1023.01 1018.51
          1012.13 1004.67 1001.41 1001.24 1001.24 1001.24 1001.24 1001.24 1000 1000 1001.23 1001.24
          1001.24 1001.24 1001.24 1001.24 1001.24 1016.39 1022.62 1026.02 1027.73 1027.63 1025.49 1021.81
          1016.8 1010.06 1003.2 1001.29 1001.24 1001.24 1001.24 1001.24 1001.24 1000 1000 1001.24
          1001.24 1001.24 1001.24 1001.24 1001.24 1001.24 1018.05 1024.12 1027.03 1028.31 1027.61 1024.69
          1020.35 1014.88 1007.89 1002.16 1001.25 1001.24 1001.24 1001.24 1001.24 1001.24 1000 1000
          1001.24 1001.24 1001.24 1001.24 1001.24 1001.24 1001.24 1019.48 1025.4 1027.81 1028.71 1027.4
          1023.62 1018.65 1012.79 1005.77 1001.58 1001.24 1001.24 1001.24 1001.24 1001.24 1001.24 1000
          1000 1001.24 1001.24 1001.24 1001.24 1001.24 1001.24 1001.24 1020.65 1026.46 1028.4 1028.98
          1027.02 1022.26 1016.7 1010.56 1003.88 1001.34 1001.24 1001.24 1001.24 1001.24 1001.24 1001.24
          1000 1000 1001.24 1001.24 1001.24 1001.24 1001.24 1001.24 1001.24 1021.55 1027.32 1028.81
          1029.14 1026.47 1020.58 1014.49 1008.22 1002.47 1001.26 1001.24 1001.24 1001.24 1001.24 1001.24
          1001.24 1000 1000 1001.24 1001.24 1001.24 1001.24 1001.24 1001.24 1001.24 1022.2 1028.03
          1029.08 1029.24 1025.77 1018.46 1011.97 1005.81 1001.65 1001.24 1001.24 1001.24 1001.24 1001.24
          1001.24 1001.24 1000 1000 1001.24 1001.24 1001.24 1001.24 1001.24 1001.24 1001.24 1022.64
          1028.61 1029.26 1029.3 1024.89 1015.6 1008.97 1003.44 1001.32 1001.24 1001.24 1001.24 1001.24
          1001.24 1001.24 1001.24 1000 1000 1001.17 1001.17 1001.17 1001.17 1001.17 1001.17 1001.17
          1022.93 1029.12 1029.36 1029.35 1023.78 1010.82 1004.73 1001.49 1001.17 1001.17 1001.17 1001.17
          1001.17 1001.17 1001.17 1001.17 1000
        </DataArray>
        <DataArray type="Float32" Name="Sw_0" NumberOfComponents="1" format="ascii">
          1 0.997521 1 0.997633 0.99737 0.997533 0.997359 0.997526 0.997359 0.997526 0.997359 0.997526
          0.997359 0.997526 0.997359 0.997526 0.997359 0.997526 0.99734 0.997219 0.987977 0.985064 0.958632 0.971939
          0.934965 0.963217 0.91503 0.957729 0.898895 0.955327 0.887133 0.956438 0.88036 0.962142 0.878285 0.974054
          0.878849 0.989416 0.881472 0.996988 0.886228 0.997519 0.892562 0.997524 0.899835 0.997525 0.910058 0.997525
          1 1 1 0.997609 0.997531 0.997526 0.997526 0.997526 0.997526 0.997526 0.997525 0.993875
          0.977554 0.966648 0.959376 0.955113 0.953832 0.955945 0.9625 0.974891 0.990213 0.997109 0.997522 0.997526
          0.997526 0.997526 1 1 0.997594 0.997529 0.997526 0.997526 0.997526 0.997526 0.997526 0.99751
          0.985999 0.971496 0.96218 0.956074 0.95287 0.952617 0.95569 0.963125 0.976114 0.991248 0.997235 0.997523
          0.997526 0.997526 0.997526 1 1 0.997582 0.997528 0.997526 0.997526 0.997526 0.997526 0.997526
          0.996995 0.978428 0.966415 0.958384 0.953347 0.951205 0.952028 0.956131 0.964504 0.978129 0.992687 0.997361
          0.997524 0.997526 0.997526 0.997526 1 1 0.997572 0.997527 0.997526 0.997526 0.997526 0.997526
          0.997526 0.992434 0.972559 0.962079 0.955137 0.951132 0.950087 0.952039 0.957222 0.966571 0.980795 0.99425
          0.997451 0.997525 0.997526 0.997526 0.997526 1 1 0.997563 0.997527 0.997526 0.997526 0.997526
          0.997526 0.997526 0.983877 0.967605 0.958307 0.952372 0.949398 0.949503 0.952635 0.958922 0.969256 0.983946
          0.995638 0.997497 0.997526 0.997526 0.997526 0.997526 1 1 0.997555 0.997526 0.997526 0.997526
          0.997526 0.997526 0.997525 0.97679 0.963239 0.955033 0.950065 0.948133 0.949448 0.9538 0.961189 0.972485
          0.987363 0.996631 0.997516 0.997526 0.997526 0.997526 0.997526 1 1 0.997547 0.997526 0.997526
          0.997526 0.997526 0.997526 0.997525 0.971816 0.959481 0.952247 0.948202 0.947326 0.949917 0.955517 0.963977
          0.976166 0.990731 0.997187 0.997523 0.997526 0.997526 0.997526 0.997526 1 1 0.997539 0.997526
          0.997526 0.997526 0.997526 0.997526 0.997525 0.968014 0.956244 0.949929 0.946759 0.946953 0.9509 0.95776
          0.96723 0.980189 0.993636 0.997423 0.997525 0.997526 0.997526 0.997526 0.997526 1 1 0.99753
          0.997526 0.997526 0.997526 0.997526 0.997526 0.997525 0.964845 0.953452 0.948059 0.945695 0.946981 0.95239
          0.960502 0.970891 0.9844 0.995698 0.997499 0.997526 0.997526 0.997526 0.997526 0.997526 1 1
          0.997526 0.997526 0.997526 0.997526 0.997526 0.997526 0.997525 0.962155 0.951081 0.94661 0.944955 0.947368
          0.954385 0.963724 0.974901 0.988561 0.996846 0.997519 0.997526 0.997526 0.997526 0.997526 0.997526 1
          1 0.997526 0.997526 0.997526 0.997526 0.997526 0.997526 0.997524 0.959947 0.949115 0.945537 0.94447
          0.948077 0.956917 0.967423 0.979206 0.992286 0.997329 0.997524 0.997526 0.997526 0.997526 0.997526 0.997526
          1 1 0.997526 0.997526 0.997526 0.997526 0.997526 0.997526 0.997524 0.958246 0.947515 0.944781
          0.944168 0.949083 0.960074 0.971638 0.983758 0.995085 0.99748 0.997525 0.997526 0.997526 0.997526 0.997526
          0.997526 1 1 0.997526 0.997526 0.997526 0.997526 0.997526 0.997526 0.997525 0.957032 0.94622
          0.944274 0.943985 0.950386 0.964081 0.976487 0.988483 0.996706 0.997517 0.997526 0.997526 0.997526 0.997526
          0.997526 0.997526 1 1 0.997532 0.997533 0.997534 0.997534 0.997534 0.997534 0.997533 0.95622
          0.945147 0.943954 0.943869 0.952024 0.969523 0.982297 0.993163 0.997374 0.997533 0.997534 0.997534 0.997534
          0.997534 0.997534 0.997535 1 1 0.997674 0.997674 0.997674 0.997674 0.997674 0.997674 0.997672
          0.955672 0.944209 0.943776 0.943783 0.954092 0.978705 0.990616 0.997026 0.997666 0.997673 0.997674 0.997674
          0.997674 0.997674 0.997674 0.997674 1
        </DataArray>
        <DataArray type="Float32" Name="Sn_0" NumberOfComponents="1" format="ascii">
          0 0.00247904 0 0.00236733 0.00262967 0.002467 0.00264136 0.0024739 0.00264151 0.00247423 0.00264121 0.00247424
          0.00264098 0.00247424 0.00264082 0.00247424 0.00264069 0.00247426 0.00266006 0.00278102 0.0120228 0.0149359 0.0413682 0.028061
          0.0650349 0.0367828 0.0849703 0.0422708 0.101105 0.0446729 0.112867 0.0435617 0.11964 0.0378582 0.121715 0.0259462
          0.121151 0.0105842 0.118528 0.00301211 0.113772 0.00248095 0.107438 0.00247548 0.100165 0.0024753 0.0899422 0.00247489
          0 0 0 0.00239055 0.00246935 0.00247403 0.00247423 0.00247423 0.00247423 0.00247423 0.00247469 0.00612544
          0.022446 0.0333525 0.0406243 0.0448867 0.0461679 0.0440553 0.0374997 0.0251086 0.00978732 0.0028907 0.00247813 0.00247426
          0.00247423 0.00247415 0 0 0.00240595 0.00247087 0.00247411 0.00247423 0.00247423 0.00247423 0.00247424 0.00249012
          0.0140006 0.0285037 0.0378198 0.0439256 0.0471302 0.0473835 0.0443104 0.0368751 0.0238864 0.00875186 0.00276532 0.0024768
          0.00247425 0.00247423 0.00247415 0 0 0.00241782 0.0024719 0.00247416 0.00247423 0.00247423 0.00247423 0.00247425
          0.0030051 0.0215721 0.0335845 0.0416157 0.0466526 0.0487945 0.0479719 0.0438687 0.0354959 0.0218715 0.00731292 0.00263852
          0.0024756 0.00247424 0.00247423 0.00247415 0 0 0.0024278 0.00247264 0.00247419 0.00247423 0.00247423 0.00247423
          0.00247432 0.00756586 0.0274409 0.0379214 0.0448625 0.0488683 0.0499125 0.0479608 0.0427779 0.0334292 0.0192052 0.00574965
          0.00254949 0.00247483 0.00247424 0.00247423 0.00247415 0 0 0.00243671 0.00247318 0.00247421 0.00247423 0.00247423
          0.00247423 0.00247445 0.0161231 0.0323953 0.0416931 0.0476275 0.0506025 0.0504971 0.0473653 0.0410782 0.0307436 0.0160538
          0.00436204 0.00250304 0.00247446 0.00247424 0.00247423 0.00247415 0 0 0.00244504 0.00247359 0.00247422 0.00247423
          0.00247423 0.00247423 0.00247463 0.0232097 0.0367608 0.0449675 0.0499352 0.051867 0.0505524 0.0461996 0.0388108 0.0275154
          0.0126373 0.0033691 0.00248393 0.00247431 0.00247423 0.00247423 0.00247415 0 0 0.00245316 0.0024739 0.00247423
          0.00247423 0.00247423 0.00247423 0.00247484 0.0281845 0.0405189 0.0477534 0.0517981 0.052674 0.0500834 0.0444828 0.036023
          0.0238342 0.00926888 0.00281312 0.00247719 0.00247426 0.00247423 0.00247423 0.00247415 0 0 0.00246138 0.0024741
          0.00247423 0.00247423 0.00247423 0.00247423 0.00247504 0.031986 0.0437564 0.0500707 0.0532413 0.0530467 0.0490995 0.0422399
          0.0327696 0.0198115 0.00636445 0.00257726 0.00247505 0.00247424 0.00247423 0.00247423 0.00247415 0 0 0.00246996
          0.00247422 0.00247423 0.00247423 0.00247423 0.00247423 0.00247524 0.0351546 0.0465479 0.0519407 0.0543048 0.0530193 0.0476103
          0.0394977 0.0291091 0.0156004 0.00430204 0.0025014 0.00247444 0.00247424 0.00247423 0.00247423 0.00247415 0 0
          0.00247415 0.00247423 0.00247423 0.00247423 0.00247423 0.00247423 0.00247541 0.0378455 0.0489189 0.0533902 0.0550448 0.0526319
          0.0456147 0.0362763 0.0250994 0.011439 0.00315431 0.00248106 0.00247429 0.00247423 0.00247423 0.00247423 0.00247415 0
          0 0.00247415 0.00247423 0.00247423 0.00247423 0.00247423 0.00247423 0.00247556 0.0400535 0.0508854 0.0544626 0.0555299
          0.0519229 0.0430835 0.0325772 0.0207936 0.00771365 0.00267061 0.00247587 0.00247425 0.00247423 0.00247423 0.00247423 0.00247415
          0 0 0.00247415 0.00247423 0.00247423 0.00247422 0.00247422 0.00247422 0.00247566 0.0417538 0.0524848 0.0552185
          0.0558317 0.0509171 0.039926 0.0283624 0.016242 0.00491505 0.00252007 0.00247458 0.00247422 0.00247422 0.00247422 0.00247422
          0.00247413 0 0 0.002474 0.00247398 0.00247393 0.0024739 0.00247388 0.00247387 0.00247538 0.0429677 0.0537803
          0.0557258 0.0560149 0.0496144 0.0359187 0.0235135 0.0115172 0.0032937 0.00248317 0.00247389 0.00247381 0.00247381 0.00247381
          0.00247381 0.00247373 0 0 0.00246782 0.00246662 0.00246625 0.00246606 0.00246595 0.00246587 0.00246736 0.0437803
          0.0548529 0.0560459 0.0561307 0.0479763 0.030477 0.0177029 0.00683661 0.00262591 0.00246706 0.0024656 0.00246559 0.00246558
          0.00246558 0.00246558 0.0024655 0 0 0.0023264 0.00232646 0.00232646 0.00232645 0.00232645 0.00232646 0.00232772
          0.0443284 0.0557908 0.0562238 0.0562172 0.0459078 0.021295 0.00938361 0.00297442 0.00233435 0.00232652 0.00232645 0.00232645
          0.00232645 0.00232645 0.00232645 0.00232639 0
        </DataArray>
        <DataArray type="Float32" Name="rhoW_0" NumberOfComponents="1" format="ascii">
          1000 1000 1000 1000 1000 1000 1000 1000 1000 1000 1000 1000
          1000 1000 1000 1000 1000 1000 1000 1000 1000 1000 1000 1000
          1000 1000 1000 1000 1000 1000 1000 1000 1000 1000 1000 1000
          1000 1000 1000 1000 1000 1000 1000 1000 1000 1000 1000 1000
          1000 1000 1000 1000 1000 1000 1000 1000 1000 1000 1000 1000
          1000 1000 1000 1000 1000 1000 1000 1000 1000 1000 1000 1000
          1000 1000 1000 1000 1000 1000 1000 1000 1000 1000 1000 1000
          1000 1000 1000 1000 1000 1000 1000 1000 1000 1000 1000 1000
          1000 1000 1000 1000 1000 1000 1000 1000 1000 1000 1000 1000
          1000 1000 1000 1000 1000 1000 1000 1000 1000 1000 1000 1000
          1000 1000 1000 1000 1000 1000 1000 1000 1000 1000 1000 1000
          1000 1000 1000 1000 1000 1000 1000 1000 1000 1000 1000 1000
          1000 1000 1000 1000 1000 1000 1000 1000 1000 1000 1000 1000
          1000 1000 1000 1000 1000 1000 1000 1000 1000 1000 1000 1000
          1000 1000 1000 1000 1000 1000 1000 1000 1000 1000 1000 1000
          1000 1000 1000 1000 1000 1000 1000 1000 1000 1000 1000 1000
          1000 1000 1000 1000 1000 1000 1000 1000 1000 1000 1000 1000
          1000 1000 1000 1000 1000 1000 1000 1000 1000 1000 1000 1000
          1000 1000 1000 1000 1000 1000 1000 1000 1000 1000 1000 1000
          1000 1000 1000 1000 1000 1000 1000 1000 1000 1000 1000 1000
          1000 1000 1000 1000 1000 1000 1000 1000 1000 1000 1000 1000
          1000 1000 1000 1000 1000 1000 1000 1000 1000 1000 1000 1000
          1000 1000 1000 1000 1000 1000 1000 1000 1000 1000 1000 1000
          1000 1000 1000 1000 1000 1000 1000 1000 1000 1000 1000 1000
          1000 1000 1000 1000 1000 1000 1000 1000 1000 1000 1000 1000
          1000 1000 1000 1000 1000 1000 1000 1000 1000 1000 1000 1000
          1000 1000 1000 1000 1000 1000 1000 1000 1000 1000 1000 1000
          1000 1000 1000 1000 1000 1000 1000 1000 1000 1000 1000 1000
          1000 1000 1000 1000 1000 1000 1000 1000 1000 1000 1000 1000
          1000 1000 1000 1000 1000 1000 1000 1000 1000 1000 1000 1000
          1000 1000 1000 1000 1000 1000 1000 1000 1000 1000 1000 1000
          1000 1000 1000 1000 1000 1000 1000 1000 1000 1000 1000 1000
          1000 1000 1000 1000 1000 1000 1000 1000 1000 1000 1000 1000
          1000 1000 1000 1000 1000 1000 1000 1000 1000 1000 1000 1000
          1000 1000 1000 1000 1000 1000 1000 1000 1000 1000 1000 1000
          1000 1000 1000 1000 1000
        </DataArray>
        <DataArray type="Float32" Name="rhoN_0" NumberOfComponents="1" format="ascii">
          1460 1460 1460 1460 1460 1460 1460 1460 1460 1460 1460 1460
          1460 1460 1460 1460 1460 1460 1460 1460 1460 1460 1460 1460
          1460 1460 1460 1460 1460 1460 1460 1460 1460 1460 1460 1460
          1460 1460 1460 1460 1460 1460 1460 1460 1460 1460 1460 1460
          1460 1460 1460 1460 1460 1460 1460 1460 1460 1460 1460 1460
          1460 1460 1460 1460 1460 1460 1460 1460 1460 1460 1460 1460
          1460 1460 1460 1460 1460 1460 1460 1460 1460 1460 1460 1460
          1460 1460 1460 1460 1460 1460 1460 1460 1460 1460 1460 1460
          1460 1460 1460 1460 1460 1460 1460 1460 1460 1460 1460 1460
          1460 1460 1460 1460 1460 1460 1460 1460 1460 1460 1460 1460
          1460 1460 1460 1460 1460 1460 1460 1460 1460 1460 1460 1460
          1460 1460 1460 1460 1460 1460 1460 1460 1460 1460 1460 1460
          1460 1460 1460 1460 1460 1460 1460 1460 1460 1460 1460 1460
          1460 1460 1460 1460 1460 1460 1460 1460 1460 1460 1460 1460
          1460 1460 1460 1460 1460 1460 1460 1460 1460 1460 1460 1460
          1460 1460 1460 1460 1460 1460 1460 1460 1460 1460 1460 1460
          1460 1460 1460 1460 1460 1460 1460 1460 1460 1460 1460 1460
          1460 1460 1460 1460 1460 1460 1460 1460 1460 1460 1460 1460
          1460 1460 1460 1460 1460 1460 1460 1460 1460 1460 1460 1460
          1460 1460 1460 1460 1460 1460 1460 1460 1460 1460 1460 1460
          1460 1460 1460 1460 1460 1460 1460 1460 1460 1460 1460 1460
          1460 1460 1460 1460 1460 1460 1460 1460 1460 1460 1460 1460
          1460 1460 1460 1460 1460 1460 1460 1460 1460 1460 1460 1460
          1460 1460 1460 1460 1460 1460 1460 1460 1460 1460 1460 1460
          1460 1460 1460 1460 1460 1460 1460 1460 1460 1460 1460 1460
          1460 1460 1460 1460 1460 1460 1460 1460 1460 1460 1460 1460
          1460 1460 1460 1460 1460 1460 1460 1460 1460 1460 1460 1460
          1460 1460 1460 1460 1460 1460 1460 1460 1460 1460 1460 1460
          1460 1460 1460 1460 1460 1460 1460 1460 1460 1460 1460 1460
          1460 1460 1460 1460 1460 1460 1460 1460 1460 1460 1460 1460
          1460 1460 1460 1460 1460 1460 1460 1460 1460 1460 1460 1460
          1460 1460 1460 1460 1460 1460 1460 1460 1460 1460 1460 1460
          1460 1460 1460 1460 1460 1460 1460 1460 1460 1460 1460 1460
          1460 1460 1460 1460 1460 1460 1460 1460 1460 1460 1460 1460
          1460 1460 1460 1460 1460 1460 1460 1460 1460 1460 1460 1460
          1460 1460 1460 1460 1460
        </DataArray>
        <DataArray type="Float32" Name="mobW_0" NumberOfComponents="1" format="ascii">
          1000 990.121 1000 990.564 989.523 990.168 989.476 990.141 989.476 990.14 989.477 990.14
          989.478 990.14 989.479 990.14 989.479 990.14 989.402 988.922 952.769 941.582 844.515 892.393
          764.155 860.789 701.037 841.339 652.885 832.93 619.377 836.812 600.677 856.952 595.033 900.185
          596.565 958.331 603.718 988.006 616.854 990.113 634.677 990.135 655.618 990.135 685.924 990.137
          1000 1000 1000 990.472 990.159 990.141 990.14 990.14 990.14 990.14 990.138 975.722
          913.194 873.117 847.139 832.184 827.728 835.086 858.23 903.285 961.422 988.487 990.124 990.14
          990.14 990.14 1000 1000 990.411 990.153 990.14 990.14 990.14 990.14 990.14 990.077
          945.163 890.768 857.088 835.539 824.393 823.517 834.195 860.459 907.824 965.449 988.985 990.13
          990.14 990.14 990.14 1000 1000 990.364 990.149 990.14 990.14 990.14 990.14 990.14
          988.034 916.464 872.279 843.643 826.047 818.648 821.484 835.738 865.399 915.343 971.068 989.488
          990.134 990.14 990.14 990.14 1000 1000 990.324 990.146 990.14 990.14 990.14 990.14
          990.139 970.078 894.672 856.727 832.269 818.394 814.806 821.522 839.558 872.84 925.364 977.199
          989.841 990.137 990.14 990.14 990.14 1000 1000 990.289 990.144 990.14 990.14 990.14
          990.14 990.139 937.051 876.581 843.371 822.673 812.442 812.803 823.58 845.537 882.581 937.315
          982.666 990.025 990.139 990.14 990.14 990.14 1000 1000 990.256 990.142 990.14 990.14
          990.14 990.14 990.138 910.344 860.868 831.903 814.729 808.122 812.614 827.618 853.563 894.398
          950.401 986.592 990.101 990.139 990.14 990.14 990.14 1000 1000 990.223 990.141 990.14
          990.14 990.14 990.14 990.137 891.939 847.512 822.238 808.357 805.374 814.22 833.593 863.509
          908.018 963.437 988.795 990.128 990.14 990.14 990.14 990.14 1000 1000 990.191 990.14
          990.14 990.14 990.14 990.14 990.137 878.065 836.131 814.264 803.447 804.108 817.599 841.447
          875.225 923.078 974.784 989.731 990.136 990.14 990.14 990.14 990.14 1000 1000 990.157
          990.14 990.14 990.14 990.14 990.14 990.136 866.624 826.41 807.871 799.843 804.201 822.733
          851.126 888.55 939.044 982.903 990.032 990.139 990.14 990.14 990.14 990.14 1000 1000
          990.14 990.14 990.14 990.14 990.14 990.14 990.135 856.997 818.22 802.942 797.342 805.517
          829.65 862.601 903.319 955.023 987.442 990.113 990.14 990.14 990.14 990.14 990.14 1000
          1000 990.14 990.14 990.14 990.14 990.14 990.14 990.134 849.157 811.474 799.309 795.706
          807.932 838.487 875.922 919.384 969.501 989.36 990.133 990.14 990.14 990.14 990.14 990.14
          1000 1000 990.14 990.14 990.14 990.14 990.14 990.14 990.134 843.157 806.018 796.756
          794.69 811.365 849.609 891.286 936.598 980.484 989.958 990.138 990.14 990.14 990.14 990.14
          990.14 1000 1000 990.141 990.141 990.141 990.141 990.141 990.141 990.135 838.893 801.619
          795.046 794.073 815.829 863.882 909.212 954.721 986.89 990.104 990.141 990.141 990.141 990.141
          990.141 990.142 1000 1000 990.165 990.17 990.171 990.172 990.173 990.173 990.167 836.047
          797.99 793.969 793.684 821.469 883.553 931.047 972.933 989.538 990.168 990.174 990.174 990.174
          990.174 990.174 990.174 1000 1000 990.727 990.727 990.727 990.727 990.727 990.727 990.722
          834.132 794.828 793.371 793.393 828.631 917.502 962.991 988.155 990.695 990.726 990.727 990.727
          990.727 990.727 990.727 990.727 1000
        </DataArray>
        <DataArray type="Float32" Name="mobM_0" NumberOfComponents="1" format="ascii">
          0 5.3391e-05 0 4.64962e-05 6.37214e-05 5.26169e-05 6.45751e-05 5.30599e-05 6.45863e-05 5.30807e-05 6.45639e-05 5.30814e-05
          6.45474e-05 5.30814e-05 6.45352e-05 5.30814e-05 6.45261e-05 5.30828e-05 6.59558e-05 7.53638e-05 0.00606107 0.0116036 0.243264 0.0764411
          0.933764 0.171407 2.06112 0.259418 3.44302 0.305828 4.76022 0.283731 5.64932 0.186783 5.94188 0.0604928
          5.86131 0.00413829 5.49651 9.57446e-05 4.87332 5.35146e-05 4.11768 5.31615e-05 3.34962 5.31498e-05 2.43816 5.31235e-05
          0 0 0 4.78775e-05 5.27676e-05 5.30679e-05 5.30806e-05 5.30811e-05 5.30811e-05 5.30811e-05 5.31105e-05 0.00080396
          0.0392345 0.128008 0.230463 0.310207 0.337313 0.29341 0.18156 0.054845 0.00327352 8.46326e-05 5.33323e-05 5.3083e-05
          5.30811e-05 5.30758e-05 0 0 4.88079e-05 5.28649e-05 5.30731e-05 5.30808e-05 5.30811e-05 5.30811e-05 5.30812e-05 5.41099e-05
          0.00956192 0.0800986 0.186218 0.290847 0.35867 0.364438 0.298498 0.172692 0.0472485 0.00234181 7.40949e-05 5.32465e-05
          5.30824e-05 5.30811e-05 5.30758e-05 0 0 4.95337e-05 5.2931e-05 5.30764e-05 5.30809e-05 5.30811e-05 5.30811e-05 5.30823e-05
          9.50779e-05 0.0348434 0.130683 0.247625 0.347963 0.397688 0.37807 0.289726 0.15414 0.036309 0.00136721 6.43671e-05
          5.3169e-05 5.30817e-05 5.30811e-05 5.30758e-05 0 0 5.01494e-05 5.29784e-05 5.30784e-05 5.3081e-05 5.30811e-05 5.30811e-05
          5.30865e-05 0.00151386 0.0715075 0.187713 0.309709 0.39948 0.425411 0.377809 0.268796 0.128888 0.0246163 0.000665012