<?xml version="1.0"?>
<VTKFile type="UnstructuredGrid" version="0.1" byte_order="LittleEndian">
  <UnstructuredGrid>
    <Piece NumberOfCells="1536" NumberOfPoints="1617">
      <PointData Scalars="pW_0">
        <DataArray type="Float32" Name="pW_0" NumberOfComponents="1" format="ascii">
          153955 152657 152269 151305 151742 150446 150982 149708 150320 149058 149731 148477
          149199 147950 148714 147468 148267 147025 147855 146614 147471 146232 147112 145875
          146776 145540 146460 145225 146161 144927 145878 144644 145608 144376 145352 144120
          145107 143873 144863 143630 144624 143390 144388 143154 144154 142920 143922 142688
          143692 142458 143464 142230 143238 142004 143015 141781 142794 141560 142577 141343
          142363 141129 142153 140919 141947 140714 141746 140513 141550 140318 141359 140128
          141174 139943 140994 139763 140818 139588 140648 139418 140481 139252 140318 139090
          140159 138930 140002 138774 139847 138620 139694 138468 139541 138316 139387 138164
          139240 138014 150583 149787 149034 148349 147730 147169 146656 146185 145749 145345
          144968 144616 144285 143972 143677 143397 143131 142877 142630 142388 142149 141913
          141679 141448 141218 140991 140766 140543 140323 140107 139893 139684 139480 139280
          139086 138896 138712 138533 138360 138190 138024 137862 137704 137548 137394 137242
          137090 136939 136788 148897 148211 147546 146922 146345 145812 145321 144866 144443
          144049 143681 143335 143010 142703 142413 142137 141874 141623 141378 141137 140900
          140665 140432 140202 139973 139747 139523 139301 139082 138866 138654 138446 138243
          138044 137851 137663 137480 137302 137129 136961 136796 136635 136476 136321 136168
          136016 135864 135713 135561 147211 146607 146014 145448 144914 144415 143949 143514
          143108 142728 142370 142034 141717 141418 141133 140863 140605 140359 140116 139878
          139642 139409 139178 138949 138722 138497 138274 138054 137836 137622 137411 137205
          137003 136806 136614 136428 136246 136070 135898 135731 135567 135406 135249 135095
          134942 134790 134638 134486 134335 145525 144986 144454 143939 143449 142984 142546
          142135 141747 141383 141039 140715 140408 140117 139840 139577 139325 139083 138845
          138610 138377 138146 137918 137691 137465 137242 137021 136802 136586 136373 136165
          135960 135760 135565 135375 135190 135011 134836 134666 134500 134337 134178 134022
          133868 133716 133563 133412 133260 133109 143838 143354 142874 142406 141956 141526
          141117 140730 140364 140017 139689 139377 139082 138801 138534 138278 138034 137798
          137564 137333 137104 136876 136650 136426 136203 135981 135762 135546 135332 135122
          134915 134712 134515 134322 134134 133952 133774 133601 133433 133268 133107 132949
          132794 132641 132489 132337 132185 132034 131882 142152 141715 141281 140855 140443
          140046 139667 139305 138960 138633 138321 138024 137742 137472 137215 136969 136733
          136503 136275 136048 135823 135600 135377 135155 134935 134716 134500 134286 134074
          133866 133662 133462 133267 133077 132892 132712 132536 132366 132199 132036 131876
          131719 131566 131413 131261 131110 130958 130807 130656 140466 140071 139678 139291
          138914 138550 138199 137862 137540 137232 136938 136657 136389 136132 135885 135649
          135423 135199 134977 134756 134536 134316 134097 133879 133662 133447 133233 133022
          132814 132608 132407 132210 132018 131830 131648 131470 131298 131129 130964 130803
          130645 130490 130337 130185 130033 129882 129731 129581 129430 138780 138423 138067
          137716 137373 137039 136716 136405 136106 135818 135542 135278 135024 134780 134546
          134320 134103 133887 133672 133457 133242 133027 132812 132598 132385 132173 131963
          131755 131550 131348 131150 130956 130767 130582 130403 130228 130058 129892 129729
          129570 129413 129260 129108 128956 128805 128655 128504 128354 128204 137094 136772
          136451 136133 135821 135517 135222 134936 134659 134392 134135 133887 133649 133419
          133197 132983 132776 132569 132361 132152 131943 131733 131522 131312 131103 130896
          130689 130485 130283 130085 129890 129700 129514 129333 129157 128985 128818 128654
          128493 128336 128182 128029 127878 127727 127577 127427 127277 127127 126978 135408
          135119 134830 134544 134263 133987 133718 133457 133203 132957 132718 132488 132265
          132049 131840 131638 131442 131243 131043 130841 130638 130433 130228 130023 129819
          129615 129413 129213 129015 128820 128630 128443 128261 128083 127910 127742 127577
          127416 127257 127102 126950 126798 126648 126498 126348 126199 126049 125900 125751
          133722 133464 133206 132950 132698 132450 132207 131970 131738 131513 131294 131081
          130874 130673 130477 130287 130102 129912 129720 129525 129328 129130 128930 128730
          128531 128332 128134 127938 127745 127554 127368 127185 127007 126833 126663 126498
          126336 126177 126021 125868 125717 125567 125418 125268 125119 124971 124822 124673
          124525 132036 131808 131580 131353 131129 130908 130690 130477 130268 130064 129864
          129668 129478 129291 129109 128931 128757 128577 128393 128206 128015 127823 127629
          127435 127241 127047 126854 126663 126474 126287 126105 125926 125752 125582 125416
          125254 125095 124938 124785 124634 124484 124335 124187 124038 123890 123742 123594
          123446 123299 130350 130151 129952 129753 129557 129362 129170 128980 128793 128609
          128429 128251 128077 127905 127737 127571 127408 127238 127062 126882 126699 126514
          126326 126138 125949 125761 125573 125386 125201 125020 124842 124667 124497 124331
          124169 124010 123853 123700 123549 123399 123251 123103 122956 122808 122661 122514
          122366 122219 122072 128664 128494 128323 128152 127982 127814 127646 127480 127315
          127152 126991 126831 126673 126516 126361 126208 126057 125896 125729 125557 125381
          125202 125021 124839 124656 124473 124290 124109 123929 123752 123578 123409 123243
          123080 122922 122766 122612 122461 122312 122165 122018 121871 121724 121578 121431
          121285 121139 120992 120846 126978 126836 126693 126550 126407 126264 126121 125978
          125836 125693 125551 125409 125267 125125 124984 124843 124703 124552 124394 124230
          124062 123890 123716 123540 123363 123185 123008 122831 122656 122484 122315 122150
          121988 121830 121675 121522 121371 121223 121076 120930 120784 120638 120493 120347
          120202 120056 119911 119765 119620 125291 125178 125063 124948 124831 124714 124596
          124477 124356 124234 124111 123986 123861 123734 123607 123478 123349 123208 123058
          122903 122742 122578 122410 122241 122070 121898 121726 121554 121384 121217 121053
          120892 120735 120580 120428 120278 120130 119984 119840 119695 119550 119406 119261
          119117 118972 118827 118683 118538 118394 123605 123520 123434 123346 123257 123166
          123072 122976 122878 122776 122672 122565 122456 122344 122230 122114 121996 121864
          121723 121576 121423 121266 121106 120943 120778 120611 120444 120278 120113 119951
          119792 119635 119482 119331 119182 119035 118890 118747 118603 118460 118317 118173
          118030 117886 117742 117599 117455 117311 117168 121919 121863 121805 121746 121684
          121620 121551 121479 121402 121321 121236 121147 121053 120956 120855 120751 120644
          120521 120390 120250 120105 119956 119802 119646 119487 119326 119164 119003 118844
          118686 118532 118380 118230 118083 117937 117793 117651 117509 117367 117225 117083
          116941 116798 116656 116513 116370 116227 116084 115941 120233 120207 120179 120149
          120115 120077 120034 119985 119931 119871 119804 119732 119655 119572 119484 119391
          119294 119181 119058 118927 118790 118648 118501 118351 118198 118043 117886 117730
          117576 117423 117273 117125 116980 116836 116693 116552 116412 116272 116131 115991
          115850 115708 115567 115425 115283 115141 114999 114857 114715 118547 118552 118555
          118555 118550 118539 118522 118498 118466 118426 118378 118323 118261 118192 118117
          118036 117949 117845 117731 117608 117478 117343 117203 117059 116912 116762 116610
          116459 116310 116162 116016 115873 115731 115590 115450 115312 115174 115035 114896
          114756 114616 114476 114336 114195 114054 113913 113771 113630 113489 116861 116899
          116934 116966 116991 117009 117018 117018 117008 116989 116960 116922 116875 116819
          116756 116686 116608 116514 116408 116293 116170 116042 115908 115770 115628 115484
          115337 115191 115046 114903 114762 114622 114484 114346 114209 114073 113936 113799
          113661 113522 113384 113244 113105 112965 112825 112684 112544 112403 112262 115175
          115248 115318 115383 115439 115486 115523 115547 115560 115561 115551 115529 115497
          115454 115403 115343 115274 115188 115090 114983 114867 114746 114618 114486 114349
          114209 114067 113926 113785 113647 113510 113373 113238 113103 112969 112834 112699
          112563 112426 112289 112151 112013 111874 111735 111595 111456 111316 111176 111036
          113489 113600 113707 113808 113898 113975 114039 114089 114124 114145 114153 114147
          114128 114099 114058 114008 113948 113869 113779 113679 113570 113455 113333 113206
          113073 112938 112801 112664 112528 112393 112260 112127 111994 111862 111730 111597
          111463 111328 111192 111056 110919 110782 110644 110505 110367 110228 110088 109949
          109810 111803 111956 112104 112243 112368 112478 112570 112645 112703 112743 112768
          112777 112772 112754 112723 112682 112630 112559 112476 112382 112279 112169 112053
          111930 111802 111671 111538 111405 111274 111143 111013 110883 110753 110623 110492
          110361 110228 110094 109959 109824 109688 109551 109414 109276 109138 109000 108861
          108722 108584 110117 110317 110511 110692 110855 110998 111119 111219 111298 111357
          111398 111421 111428 111421 111400 111366 111321 111257 111180 111093 110996 110891
          110779 110660 110536 110408 110279 110151 110023 109896 109768 109641 109513 109385
          109256 109126 108994 108861 108727 108592 108457 108321 108184 108047 107909 107772
          107634 107496 107358 108430 108686 108932 109159 109362 109539 109690 109814 109913
          109990 110045 110081 110100 110102 110089 110063 110023 109966 109894 109812 109720
          109619 109511 109396 109275 109151 109025 108900 108776 108652 108527 108402 108276
          108150 108021 107892 107761 107629 107495 107361 107227 107091 106955 106818 106681
          106544 106407 106269 106131 106744 107066 107371 107650 107896 108108 108286 108433
          108551 108644 108712 108760 108787 108798 108792 108771 108737 108685 108618 108540
          108452 108355 108250 108138 108020 107898 107776 107654 107533 107411 107289 107165
          107041 106916 106788 106659 106529 106397 106265 106131 105997 105862 105726 105590
          105454 105317 105180 105042 104905 105058 105462 105840 106176 106466 106710 106914
          107081 107215 107321 107400 107457 107493 107509 107509 107494 107464 107415 107352
          107278 107193 107099 106997 106887 106771 106651 106531 106412 106293 106174 106053
          105932 105808 105683 105556 105428 105298 105167 105035 104902 104768 104633 104498
          104362 104226 104090 103953 103816 103679 103372 103886 104352 104750 105081 105354
          105579 105762 105908 106024 106112 106175 106216 106238 106242 106230 106203 106158
          106097 106025 105943 105851 105751 105642 105527 105409 105292 105175 105058 104940
          104821 104700 104577 104453 104326 104198 104069 103938 103806 103674 103540 103406
          103271 103135 102999 102863 102726 102589 102452 101686 102369 102940 103391 103752
          104046 104284 104478 104633 104754 104847 104915 104960 104985 104991 104981 104956
          104912 104854 104783 104702 104612 104512 104405 104290 104173 104057 103943 103827
          103710 103591 103471 103348 103224 103098 102970 102841 102710 102579 102446 102313
          102178 102044 101908 101772 101636 101500 101363 101226 100000 101017 101645 102118
          102491 102792 103035 103232 103390 103514 103608 103677 103723 103749 103757 103747
          103723 103680 103622 103552 103471 103381 103282 103175 103060 102942 102828 102714
          102599 102483 102364 102244 102121 101997 101871 101743 101614 101483 101352 101219
          101086 100952 100817 100682 100546 100410 100273 100137 100000
        </DataArray>
        <DataArray type="Float32" Name="pN_0" NumberOfComponents="1" format="ascii">
          154955 153658 153269 152305 152743 151447 151983 150709 151321 150059 150732 149478
          150200 148951 149715 148469 149269 148026 148856 147615 148472 147233 148114 146876
          147778 146541 147461 146226 147162 145928 146879 145645 146610 145377 146354 145122
          146114 144878 145877 144637 145644 144400 145414 144166 145187 143935 144963 143705
          144741 143478 144521 143252 144304 143028 144088 142806 143875 142587 143665 142370
          143458 142157 143255 141947 143055 141741 142859 141539 142667 141342 142481 141150
          142298 140963 142121 140781 141948 140604 141779 140431 141614 140263 141452 140098
          141294 139936 141138 139778 140983 139622 140829 139469 140673 139317 140501 139165
          140240 139014 151583 150788 150035 149350 148731 148170 147657 147186 146750 146346
          145969 145617 145286 144973 144678 144398 144132 143880 143636 143396 143160 142926
          142695 142466 142239 142013 141790 141568 141349 141133 140920 140711 140505 140304
          140108 139916 139730 139549 139372 139201 139033 138869 138708 138550 138395 138243
          138091 137940 137788 149897 149212 148547 147923 147346 146813 146322 145867 145444
          145050 144682 144336 144011 143704 143414 143138 142875 142627 142384 142146 141911
          141679 141449 141221 140995 140770 140547 140327 140108 139893 139681 139472 139268
          139067 138872 138682 138497 138317 138141 137970 137803 137640 137480 137323 137169
          137017 136865 136714 136561 148211 147607 147015 146449 145915 145416 144950 144515
          144109 143728 143371 143035 142718 142419 142134 141864 141606 141363 141123 140887
          140655 140425 140196 139970 139744 139521 139299 139080 138863 138649 138438 138230
          138027 137828 137634 137446 137262 137083 136909 136739 136573 136411 136251 136096
          135943 135791 135639 135487 135335 146525 145987 145455 144940 144450 143985 143547
          143135 142748 142384 142040 141716 141409 141118 140841 140578 140326 140088 139852
          139620 139391 139163 138937 138712 138488 138266 138046 137829 137613 137400 137191
          136985 136784 136587 136395 136208 136026 135848 135676 135507 135343 135181 135023
          134869 134716 134564 134413 134261 134109 144838 144355 143875 143407 142957 142527
          142118 141731 141365 141018 140690 140378 140083 139802 139535 139279 139036 138803
          138573 138345 138118 137894 137670 137448 137226 137007 136789 136573 136359 136148
          135941 135737 135538 135343 135153 134968 134788 134613 134442 134275 134111 133951
          133795 133642 133489 133338 133186 133035 132882 143152 142716 142282 141856 141444
          141047 140668 140306 139961 139634 139322 139025 138743 138473 138216 137970 137736
          137509 137284 137061 136839 136618 136398 136178 135959 135742 135527 135313 135102
          134893 134688 134487 134289 134097 133909 133727 133549 133376 133207 133042 132880
          132721 132567 132414 132262 132111 131959 131808 131656 141466 141072 140679 140292
          139915 139551 139200 138863 138541 138233 137939 137658 137390 137133 136886 136650
          136426 136206 135988 135770 135553 135336 135119 134903 134687 134473 134260 134049
          133841 133635 133432 133234 133039 132849 132664 132484 132309 132138 131971 131808
          131648 131491 131338 131186 131034 130883 130732 130582 130430 139780 139424 139068
          138717 138374 138040 137717 137406 137106 136819 136543 136279 136025 135781 135547
          135321 135108 134895 134684 134472 134260 134048 133835 133623 133411 133200 132990
          132783 132577 132374 132174 131979 131787 131600 131418 131241 131068 130900 130735
          130574 130415 130261 130109 129957 129806 129656 129505 129355 129204 138094 137773
          137452 137134 136822 136518 136223 135937 135660 135393 135136 134888 134650 134420
          134198 133984 133781 133577 133373 133168 132962 132754 132546 132338 132130 131923
          131717 131513 131311 131111 130914 130722 130534 130350 130171 129997 129827 129661
          129498 129339 129183 129030 128879 128728 128578 128428 128278 128128 127978 136408
          136120 135831 135545 135264 134988 134719 134458 134204 133958 133719 133489 133266
          133050 132841 132639 132448 132253 132057 131858 131658 131456 131253 131049 130846
          130643 130441 130240 130042 129846 129653 129464 129279 129099 128924 128752 128585
          128422 128262 128104 127951 127799 127649 127499 127349 127200 127050 126901 126751
          134722 134465 134207 133951 133699 133451 133208 132971 132739 132514 132295 132082
          131875 131674 131478 131288 131108 130923 130735 130544 130350 130153 129956 129757
          129559 129360 129163 128966 128771 128579 128390 128205 128024 127848 127675 127507
          127343 127182 127024 126870 126718 126568 126418 126269 126120 125971 125823 125674
          125525 133036 132809 132581 132354 132130 131909 131691 131478 131269 131065 130865
          130669 130479 130292 130110 129932 129764 129589 129409 129225 129037 128847 128655
          128462 128269 128075 127882 127690 127500 127311 127126 126945 126768 126596 126427
          126262 126101 125943 125787 125635 125485 125336 125188 125039 124891 124743 124595
          124447 124299 131350 131152 130953 130754 130558 130363 130170 129981 129794 129610
          129430 129252 129078 128906 128738 128572 128416 128251 128079 127903 127722 127539
          127353 127166 126977 126789 126601 126413 126227 126043 125862 125685 125512 125343
          125178 125017 124859 124703 124550 124400 124252 124104 123957 123809 123662 123515
          123367 123220 123072 129664 129494 129323 129153 128983 128814 128647 128481 128316
          128153 127992 127832 127673 127517 127362 127209 127066 126910 126747 126579 126405
          126228 126049 125867 125685 125502 125318 125135 124954 124774 124598 124425 124256
          124091 123930 123772 123616 123463 123313 123166 123019 122872 122725 122579 122432
          122286 122140 121993 121846 127978 127837 127694 127551 127408 127265 127122 126979
          126837 126694 126552 126410 126268 126126 125985 125844 125713 125568 125414 125253
          125087 124917 124744 124568 124392 124214 124035 123857 123680 123505 123334 123165
          123001 122840 122682 122527 122374 122224 122077 121931 121785 121639 121494 121348
          121203 121057 120912 120766 120620 126291 126179 126064 125948 125832 125715 125597
          125478 125357 125235 125112 124987 124862 124735 124607 124479 124360 124224 124079
          123927 123768 123605 123439 123270 123099 122926 122753 122580 122407 122237 122070
          121906 121746 121589 121435 121283 121133 120986 120841 120696 120551 120407 120262
          120118 119973 119828 119684 119539 119394 124605 124521 124435 124347 124258 124167
          124073 123977 123879 123777 123673 123566 123457 123345 123231 123115 123008 122882
          122745 122601 122450 122294 122134 121971 121806 121640 121471 121303 121135 120970
          120808 120648 120492 120339 120188 120039 119892 119748 119604 119461 119318 119174
          119031 118887 118743 118600 118456 118312 118168 122919 122864 122806 122747 122685
          122620 122552 122480 122403 122322 122237 122148 122054 121957 121856 121752 121657
          121540 121413 121276 121133 120984 120831 120675 120516 120354 120191 120027 119865
          119704 119546 119391 119239 119089 118942 118796 118652 118510 118368 118226 118084
          117942 117799 117656 117514 117371 117228 117085 116941 121233 121208 121180 121150
          121116 121078 121035 120986 120932 120871 120805 120733 120656 120573 120485 120392
          120309 120202 120082 119954 119818 119676 119530 119380 119227 119070 118912 118753
          118595 118440 118286 118136 117987 117841 117697 117554 117413 117273 117132 116992
          116851 116709 116568 116426 116284 116142 116000 115858 115715 119547 119553 119556
          119556 119551 119540 119523 119499 119466 119427 119379 119324 119262 119193 119118
          119037 118964 118866 118756 118635 118506 118372 118232 118088 117940 117789 117636
          117481 117328 117177 117028 116882 116737 116595 116453 116313 116175 116036 115897
          115757 115617 115477 115337 115196 115055 114914 114772 114631 114489 117861 117900
          117935 117967 117992 118010 118019 118019 118009 117990 117961 117923 117876 117820
          117757 117687 117625 117536 117433 117320 117199 117071 116938 116800 116657 116511
          116362 116212 116063 115917 115772 115630 115489 115349 115211 115074 114937 114800
          114662 114523 114385 114245 114106 113966 113825 113685 113545 113404 113262 116175
          116249 116319 116384 116440 116487 116524 116548 116561 116562 116552 116530 116498
          116455 116404 116344 116292 116212 116117 116011 115896 115775 115647 115515 115377
          115235 115091 114945 114801 114659 114519 114380 114242 114106 113970 113835 113700
          113564 113427 113290 113152 113014 112875 112736 112596 112457 112317 112177 112036
          114489 114601 114708 114809 114899 114976 115040 115090 115125 115146 115153 115148
          115129 115100 115059 115008 114966 114894 114806 114707 114599 114484 114362 114235
          114102 113964 113823 113682 113542 113404 113268 113132 112998 112864 112731 112598
          112464 112329 112193 112057 111920 111783 111645 111506 111367 111229 111089 110950
          110810 112803 112957 113105 113244 113369 113479 113571 113646 113704 113744 113769
          113778 113773 113755 113724 113683 113649 113584 113503 113410 113308 113199 113082
          112960 112830 112696 112559 112422 112286 112152 112019 111887 111755 111624 111493
          111362 111229 111095 110960 110825 110689 110552 110415 110277 110139 110001 109862
          109723 109584 111117 111318 111512 111693 111856 111999 112120 112220 112299 112358
          112399 112422 112429 112422 112401 112367 112341 112283 112208 112121 112025 111920
          111808 111690 111564 111433 111299 111166 111034 110903 110774 110645 110515 110386
          110257 110126 109995 109862 109728 109593 109458 109322 109185 109048 108910 108773
          108635 108497 108358 109430 109687 109933 110160 110363 110540 110691 110815 110914
          110991 111046 111082 111101 111103 111090 111064 111044 110992 110923 110841 110749
          110649 110541 110426 110303 110174 110044 109914 109785 109658 109531 109404 109277
          109151 109022 108893 108762 108630 108496 108362 108227 108092 107956 107819 107682
          107545 107408 107270 107131 107744 108067 108372 108651 108897 109109 109287 109434
          109552 109645 109713 109760 109788 109799 109793 109772 109759 109712 109647 109569
          109481 109385 109280 109168 109047 108920 108792 108666 108540 108416 108292 108167
          108042 107916 107789 107660 107530 107398 107266 107132 106998 106863 106727 106591
          106455 106318 106181 106043 105905 106058 106463 106841 107177 107467 107711 107915
          108082 108216 108322 108401 108458 108494 108510 108510 108495 108486 108443 108381
          108307 108222 108128 108026 107916 107797 107671 107546 107422 107300 107178 107056
          106933 106809 106684 106557 106429 106299 106168 106036 105903 105769 105634 105499
          105363 105227 105091 104954 104817 104679 104372 104887 105353 105751 106082 106355
          106580 106762 106909 107025 107113 107176 107217 107239 107243 107231 107225 107186
          107127 107055 106972 106880 106780 106672 106553 106427 106304 106183 106063 105943
          105822 105701 105578 105454 105327 105199 105070 104939 104807 104675 104541 104407
          104272 104136 104000 103864 103727 103590 103452 102686 103370 103941 104392 104753
          105047 105285 105479 105634 105755 105848 105916 105961 105986 105992 105982 105979
          105941 105883 105813 105732 105641 105542 105434 105315 105188 105066 104948 104830
          104712 104592 104472 104349 104225 104098 103971 103842 103711 103579 103447 103313
          103179 103044 102909 102773 102637 102500 102364 102226 101000 102018 102646 103118
          103492 103792 104036 104233 104390 104514 104609 104678 104724 104750 104757 104748
          104746 104709 104651 104581 104501 104410 104311 104204 104084 103953 103833 103717
          103600 103483 103365 103244 103122 102997 102871 102744 102614 102484 102353 102220
          102087 101952 101818 101682 101547 101410 101274 101137 101000
        </DataArray>
        <DataArray type="Float32" Name="pC_0" NumberOfComponents="1" format="ascii">
          1000 1000.85 1000 1000.72 1001.15 1000.87 1001.32 1000.93 1001.4 1000.95 1001.44 1000.96
          1001.45 1000.96 1001.45 1000.96 1001.44 1000.96 1001.44 1000.96 1001.44 1000.96 1001.44 1000.96
          1001.44 1000.96 1001.44 1000.96 1001.43 1000.96 1001.43 1000.96 1001.43 1000.96 1001.84 1001.68
          1007.73 1004.73 1013.34 1007.33 1019.49 1009.96 1026.24 1012.62 1033.5 1015.24 1041.14 1017.75
          1049.06 1020.07 1057.12 1022.16 1065.2 1023.98 1073.21 1025.49 1081.01 1026.64 1088.5 1027.4
          1095.55 1027.71 1102.07 1027.55 1107.97 1026.9 1113.18 1025.77 1117.69 1024.19 1121.51 1022.25
          1124.69 1020.03 1127.3 1017.64 1129.45 1015.19 1131.2 1012.76 1132.64 1010.39 1133.84 1008.06
          1134.84 1005.74 1135.6 1003.48 1135.96 1001.65 1135.29 1001.05 1131.47 1001 1114.26 1000.99
          1000 1000 1000 1000.75 1000.89 1000.94 1000.96 1000.96 1000.96 1000.96 1000.96 1000.96
          1000.96 1000.96 1000.96 1000.96 1000.96 1000.96 1000.96 1002.54 1005.41 1008.05 1010.73 1013.41
          1015.99 1018.4 1020.58 1022.48 1024.06 1025.3 1026.16 1026.6 1026.58 1026.1 1025.14 1023.74
          1021.96 1019.88 1017.61 1015.25 1012.89 1010.6 1008.39 1006.21 1004.01 1001.99 1001.07 1000.97
          1000.96 1000.96 1000 1000 1000.77 1000.9 1000.94 1000.96 1000.96 1000.96 1000.96 1000.96
          1000.96 1000.96 1000.96 1000.96 1000.96 1000.96 1000.96 1000.97 1003.37 1006.12 1008.84 1011.61
          1014.33 1016.92 1019.3 1021.42 1023.22 1024.69 1025.8 1026.5 1026.77 1026.57 1025.89 1024.73
          1023.14 1021.2 1019 1016.65 1014.26 1011.91 1009.64 1007.45 1005.29 1003.11 1001.44 1000.99
          1000.96 1000.96 1000.96 1000 1000 1000.79 1000.91 1000.95 1000.96 1000.96 1000.96 1000.96
          1000.96 1000.96 1000.96 1000.96 1000.96 1000.96 1000.96 1000.96 1001.04 1004.08 1006.86 1009.69
          1012.54 1015.3 1017.88 1020.22 1022.25 1023.95 1025.3 1026.26 1026.8 1026.89 1026.49 1025.61
          1024.25 1022.48 1020.39 1018.08 1015.67 1013.27 1010.93 1008.69 1006.52 1004.36 1002.29 1001.14
          1000.97 1000.96 1000.96 1000.96 1000 1000 1000.8 1000.92 1000.95 1000.96 1000.96 1000.96
          1000.96 1000.96 1000.96 1000.96 1000.96 1000.96 1000.96 1000.96 1000.96 1001.38 1004.76 1007.65
          1010.59 1013.51 1016.3 1018.86 1021.13 1023.07 1024.66 1025.87 1026.67 1027.04 1026.94 1026.33
          1025.24 1023.68 1021.74 1019.51 1017.11 1014.66 1012.25 1009.94 1007.74 1005.58 1003.44 1001.63
          1001.02 1000.96 1000.96 1000.96 1000.96 1000 1000 1000.81 1000.92 1000.95 1000.96 1000.96
          1000.96 1000.96 1000.96 1000.96 1000.96 1000.96 1000.96 1000.96 1000.96 1000.96 1002.16 1005.47
          1008.49 1011.55 1014.53 1017.33 1019.85 1022.04 1023.86 1025.32 1026.38 1027.02 1027.21 1026.9
          1026.09 1024.78 1023.03 1020.92 1018.56 1016.09 1013.62 1011.23 1008.95 1006.78 1004.64 1002.56
          1001.23 1000.98 1000.96 1000.96 1000.96 1000.96 1000 1000 1000.82 1000.93 1000.95 1000.96
          1000.96 1000.96 1000.96 1000.96 1000.96 1000.96 1000.96 1000.96 1000.96 1000.96 1000.96 1003.04
          1006.23 1009.39 1012.56 1015.6 1018.38 1020.83 1022.92 1024.62 1025.93 1026.84 1027.3 1027.3
          1026.78 1025.75 1024.22 1022.28 1020.01 1017.56 1015.04 1012.56 1010.2 1007.96 1005.82 1003.7
          1001.82 1001.04 1000.97 1000.96 1000.96 1000.96 1000.96 1000 1000 1000.83 1000.93 1000.96
          1000.96 1000.96 1000.96 1000.96 1000.96 1000.96 1000.96 1000.96 1000.96 1000.96 1000.96 1000.96
          1003.78 1007.03 1010.35 1013.63 1016.69 1019.44 1021.81 1023.77 1025.34 1026.49 1027.23 1027.51
          1027.3 1026.57 1025.31 1023.57 1021.44 1019.04 1016.5 1013.95 1011.49 1009.17 1006.98 1004.86
          1002.79 1001.32 1000.98 1000.96 1000.96 1000.96 1000.96 1000.96 1000 1000 1000.84 1000.94
          1000.96 1000.96 1000.96 1000.96 1000.96 1000.96 1000.96 1000.96 1000.96 1000.96 1000.96 1000.96
          1000.96 1004.43 1007.88 1011.38 1014.74 1017.81 1020.5 1022.76 1024.59 1026 1026.99 1027.55
          1027.65 1027.22 1026.26 1024.78 1022.83 1020.52 1018 1015.4 1012.85 1010.42 1008.15 1006