<?xml version="1.0"?>
<VTKFile type="UnstructuredGrid" version="0.1" byte_order="LittleEndian">
  <UnstructuredGrid>
    <Piece NumberOfCells="2500" NumberOfPoints="2601">
      <PointData Scalars="x_tracer_0" Vectors="velocity_Groundwater (m/s)">
        <DataArray type="Float32" Name="x_tracer_0" NumberOfComponents="1" format="ascii">
          1.36486e-18 1.4369e-17 8.51038e-18 1.50772e-16 1.45446e-16 3.00315e-15 8.22027e-16 2.15692e-14 2.79026e-15 7.33043e-14 6.67034e-15 1.67186e-13
          1.26308e-14 3.01102e-13 2.0357e-14 4.64973e-13 2.91857e-14 6.44782e-13 3.82834e-14 8.2575e-13 4.68066e-14 9.94392e-13 5.40198e-14 1.13964e-12
          5.93684e-14 1.25333e-12 6.25124e-14 1.33027e-12 6.33306e-14 1.36809e-12 6.19017e-14 1.3669e-12 5.84716e-14 1.32899e-12 5.34113e-14 1.25838e-12
          4.71718e-14 1.16042e-12 4.0238e-14 1.04141e-12 3.30861e-14 9.08212e-13 2.61467e-14 7.6782e-13 1.97748e-14 6.27023e-13 1.42302e-14 4.92046e-13
          9.67282e-15 3.68242e-13 6.26072e-15 2.62132e-13 4.17043e-15 1.85568e-13 2.85474e-15 1.31664e-13 1.983e-15 9.35229e-14 1.38717e-15 6.64223e-14
          9.72553e-16 4.71038e-14 6.81153e-16 3.33019e-14 4.75315e-16 2.34303e-14 3.29656e-16 1.6371e-14 2.26656e-16 1.13315e-14 1.54042e-16 7.74695e-15
          1.03131e-16 5.21258e-15 6.77367e-17 3.43682e-15 4.34256e-17 2.20853e-15 2.70049e-17 1.37398e-15 1.61635e-17 8.20605e-16 9.22129e-18 4.65484e-16
          4.95296e-18 2.47341e-16 2.46582e-18 1.20916e-16 1.11534e-18 5.31031e-17 4.46752e-19 2.02924e-17 1.53324e-19 6.46131e-18 4.32063e-20 1.61563e-18
          9.46179e-21 2.92453e-19 1.51021e-21 3.44522e-20 3.16013e-22 4.64308e-21 6.95148e-17 1.68007e-15 4.60065e-14 2.8758e-13 8.47955e-13 1.73373e-12
          2.87362e-12 4.16511e-12 5.50426e-12 6.8004e-12 7.98152e-12 8.99469e-12 9.80437e-12 1.03898e-11 1.07428e-11 1.08648e-11 1.07659e-11 1.04625e-11
          9.97639e-12 9.33357e-12 8.56328e-12 7.69707e-12 6.76786e-12 5.80897e-12 4.85311e-12 3.94593e-12 3.18342e-12 2.55506e-12 2.03788e-12 1.6132e-12
          1.26571e-12 9.82756e-13 7.53795e-13 5.69993e-13 4.23889e-13 3.09147e-13 2.20353e-13 1.52862e-13 1.02675e-13 6.63437e-14 4.08994e-14 2.37996e-14
          1.28893e-14 6.37449e-15 2.80462e-15 1.05814e-15 3.24646e-16 7.48812e-17 1.15382e-17 1.00066e-18 8.13778e-20 4.17323e-16 1.21073e-14 3.47095e-13
          1.78781e-12 4.58606e-12 8.4759e-12 1.30178e-11 1.77886e-11 2.24495e-11 2.67563e-11 3.05465e-11 3.37215e-11 3.62294e-11 3.80524e-11 3.91958e-11
          3.96819e-11 3.95447e-11 3.8827e-11 3.75791e-11 3.58569e-11 3.3722e-11 3.12412e-11 2.84857e-11 2.55309e-11 2.24557e-11 1.93796e-11 1.6581e-11
          1.40805e-11 1.18567e-11 9.88998e-12 8.1622e-12 6.65609e-12 5.35502e-12 4.24277e-12 3.30339e-12 2.52107e-12 1.88013e-12 1.36499e-12 9.60224e-13
          6.50656e-13 4.21482e-13 2.58443e-13 1.48046e-13 7.78171e-14 3.65993e-14 1.4851e-14 4.92115e-15 1.22078e-15 1.95751e-16 1.55342e-17 7.78396e-19
          1.96563e-15 6.40224e-14 1.63627e-12 6.96408e-12 1.57355e-11 2.65407e-11 3.80241e-11 4.92037e-11 5.94641e-11 6.84658e-11 7.60541e-11 8.21889e-11
          8.68959e-11 9.02362e-11 9.22867e-11 9.31302e-11 9.28496e-11 9.15265e-11 8.92413e-11 8.60745e-11 8.21092e-11 7.74328e-11 7.21397e-11 6.63327e-11
          6.01245e-11 5.36988e-11 4.75158e-11 4.16706e-11 3.61895e-11 3.10952e-11 2.6406e-11 2.21351e-11 1.829e-11 1.48722e-11 1.18771e-11 9.29367e-12
          7.10498e-12 5.28822e-12 3.8153e-12 2.65357e-12 1.76664e-12 1.11553e-12 6.59926e-13 3.59666e-13 1.76373e-13 7.51861e-14 2.64381e-14 7.04599e-15
          1.22725e-15 1.04251e-16 4.41834e-18 7.60741e-15 2.67839e-13 5.56835e-12 1.98298e-11 3.98963e-11 6.18648e-11 8.3097e-11 1.02187e-10 1.18552e-10
          1.32081e-10 1.42902e-10 1.51243e-10 1.57356e-10 1.61479e-10 1.6382e-10 1.64551e-10 1.63813e-10 1.61718e-10 1.58357e-10 1.53807e-10 1.48138e-10
          1.41422e-10 1.33735e-10 1.25165e-10 1.15817e-10 1.05882e-10 9.58777e-11 8.5983e-11 7.6308e-11 6.69587e-11 5.80342e-11 4.96241e-11 4.18064e-11
          3.46448e-11 2.81874e-11 2.24649e-11 1.74901e-11 1.32572e-11 9.74239e-12 6.90475e-12 4.6878e-12 3.02212e-12 1.82847e-12 1.02175e-12 5.15573e-13
          2.27314e-13 8.32689e-14 2.33513e-14 4.33517e-15 3.96047e-16 1.63187e-17 2.50094e-14 9.28897e-13 1.49623e-11 4.51425e-11 8.15455e-11 1.16888e-10
          1.47768e-10 1.73179e-10 1.9329e-10 2.08736e-10 2.20259e-10 2.28548e-10 2.34183e-10 2.37618e-10 2.39196e-10 2.39159e-10 2.37672e-10 2.34839e-10
          2.30719e-10 2.2534e-10 2.18715e-10 2.10849e-10 2.01754e-10 1.91456e-10 1.80005e-10 1.67527e-10 1.54442e-10 1.40976e-10 1.27316e-10 1.13658e-10
          1.00196e-10 8.71229e-11 7.46198e-11 6.2853e-11 5.19675e-11 4.20823e-11 3.32853e-11 2.56307e-11 1.91358e-11 1.37811e-11 9.51108e-12 6.23707e-12
          3.84248e-12 2.18976e-12 1.12946e-12 5.10733e-13 1.9283e-13 5.61334e-14 1.09266e-14 1.05821e-15 4.41305e-17 7.16618e-14 2.75777e-12 3.36436e-11
          8.6893e-11 1.41813e-10 1.88695e-10 2.252e-10 2.52144e-10 2.71306e-10 2.84503e-10 2.93269e-10 2.98792e-10 3.01936e-10 3.03304e-10 3.03293e-10
          3.02141e-10 2.99968e-10 2.9681e-10 2.92641e-10 2.87391e-10 2.80973e-10 2.73288e-10 2.64245e-10 2.53772e-10 2.41825e-10 2.28422e-10 2.13786e-10
          1.98129e-10 1.81675e-10 1.64671e-10 1.47389e-10 1.30111e-10 1.13128e-10 9.67223e-11 8.11647e-11 6.66984e-11 5.35306e-11 4.1822e-11 3.16789e-11
          2.31476e-11 1.62113e-11 1.07913e-11 6.75249e-12 3.91212e-12 2.05437e-12 9.47881e-13 3.66374e-13 1.09726e-13 2.21329e-14 2.24116e-15 9.5415e-17
          1.82802e-13 7.17905e-12 6.582e-11 1.46724e-10 2.17389e-10 2.694e-10 3.04331e-10 3.26266e-10 3.39138e-10 3.4602e-10 3.49112e-10 3.49905e-10
          3.49364e-10 3.48077e-10 3.46365e-10 3.4436e-10 3.42065e-10 3.39387e-10 3.3617e-10 3.32217e-10 3.27309e-10 3.21221e-10 3.13738e-10 3.04669e-10
          2.93864e-10 2.81217e-10 2.6674e-10 2.5058e-10 2.32941e-10 2.14077e-10 1.94287e-10 1.73912e-10 1.53325e-10 1.32917e-10 1.13083e-10 9.42071e-11
          7.66409e-11 6.06888e-11 4.65887e-11 3.44985e-11 2.44852e-11 1.65199e-11 1.04801e-11 6.15901e-12 3.28365e-12 1.54036e-12 6.06644e-13 1.85739e-13
          3.84899e-14 4.02895e-15 1.7485e-16 4.22872e-13 1.66951e-11 1.15082e-10 2.22852e-10 3.00903e-10 3.48291e-10 3.73319e-10 3.84087e-10 3.86529e-10
          3.84562e-10 3.80622e-10 3.76156e-10 3.71964e-10 3.68432e-10 3.65681e-10 3.63656e-10 3.62187e-10 3.61025e-10 3.59865e-10 3.58367e-10 3.56172e-10
          3.5292e-10 3.48263e-10 3.41891e-10 3.33537e-10 3.22989e-10 3.10092e-10 2.94904e-10 2.77567e-10 2.58299e-10 2.37388e-10 2.15191e-10 1.92129e-10
          1.68669e-10 1.45316e-10 1.22583e-10 1.00973e-10 8.09484e-11 6.29063e-11 4.7151e-11 3.38724e-11 2.31316e-11 1.48546e-11 8.8393e-12 4.77405e-12
          2.27061e-12 9.07888e-13 2.82809e-13 5.98074e-14 6.41156e-15 2.82269e-16 9.03158e-13 3.51893e-11 1.83224e-10 3.09831e-10 3.82503e-10 4.14617e-10
          4.22688e-10 4.18328e-10 4.0857e-10 3.97377e-10 3.86852e-10 3.78014e-10 3.71264e-10 3.66652e-10 3.64024e-10 3.63107e-10 3.63551e-10 3.64951e-10
          3.66862e-10 3.68809e-10 3.70295e-10 3.70823e-10 3.69914e-10 3.67129e-10 3.62093e-10 3.54498e-10 3.44104e-10 3.30875e-10 3.14881e-10 2.96279e-10
          2.75323e-10 2.52362e-10 2.27831e-10 2.02248e-10 1.76192e-10 1.50288e-10 1.25171e-10 1.0146e-10 7.97146e-11 6.04033e-11 4.38644e-11 3.02793e-11
          1.96551e-11 1.18233e-11 6.45673e-12 3.1064e-12 1.25735e-12 3.96934e-13 8.52015e-14 9.28129e-15 4.12074e-16 1.81848e-12 6.79677e-11 2.69159e-10
          3.9923e-10 4.52013e-10 4.60041e-10 4.47195e-10 4.26831e-10 4.05674e-10 3.86831e-10 3.7155e-10 3.60154e-10 3.52516e-10 3.48302e-10 3.47085e-10
          3.48394e-10 3.51733e-10 3.56577e-10 3.62368e-10 3.68513e-10 3.7439e-10 3.79361e-10 3.82805e-10 3.84146e-10 3.82892e-10 3.78655e-10 3.71182e-10
          3.60365e-10 3.46204e-10 3.28808e-10 3.08396e-10 2.85301e-10 2.59965e-10 2.32931e-10 2.04832e-10 1.76371e-10 1.48294e-10 1.21351e-10 9.62538e-11
          7.36317e-11 5.39789e-11 3.76133e-11 2.46452e-11 1.4964e-11 8.24863e-12 4.00627e-12 1.63741e-12 5.22143e-13 1.13237e-13 1.24488e-14 5.53984e-16
          3.55308e-12 1.21261e-10 3.68205e-10 4.81037e-10 5.01022e-10 4.80106e-10 4.46224e-10 4.11919e-10 3.82149e-10 3.58455e-10 3.40926e-10 3.2909e-10
          3.22295e-10 3.19871e-10 3.21178e-10 3.2561e-10 3.32586e-10 3.41513e-10 3.51762e-10 3.62648e-10 3.73426e-10 3.83307e-10 3.91503e-10 3.97276e-10
          3.99991e-10 3.99184e-10 3.94648e-10 3.8623e-10 3.73888e-10 3.57712e-10 3.37913e-10 3.1483e-10 2.88918e-10 2.60744e-10 2.3098e-10 2.00386e-10
          1.69784e-10 1.40028e-10 1.11954e-10 8.63306e-11 6.3799e-11 4.4814e-11 2.95979e-11 1.81131e-11 1.00623e-11 4.9246e-12 2.02784e-12 6.5129e-13
          1.42129e-13 1.56716e-14 6.94743e-16 7.01791e-12 2.0089e-10 4.72041e-10 5.45512e-10 5.24412e-10 4.74576e-10 4.2301e-10 3.78874e-10 3.44302e-10
          3.18929e-10 3.01656e-10 2.91297e-10 2.86785e-10 2.87217e-10 2.91834e-10 2.99984e-10 3.11068e-10 3.24492e-10 3.39599e-10 3.55635e-10 3.71728e-10
          3.86912e-10 4.00185e-10 4.10596e-10 4.17327e-10 4.19816e-10 4.17949e-10 4.11559e-10 4.00606e-10 3.85204e-10 3.65613e-10 3.4222e-10 3.15528e-10
          2.86144e-10 2.5478e-10 2.22232e-10 1.89375e-10 1.57128e-10 1.26415e-10 9.81143e-11 7.29859e-11 5.16075e-11 3.43097e-11 2.11325e-11 1.18132e-11
          5.81586e-12 2.40785e-12 7.76833e-13 1.69954e-13 1.8687e-14 8.2029e-16 1.4658e-11 3.09909e-10 5.69529e-10 5.85038e-10 5.21041e-10 4.46812e-10
          3.83225e-10 3.34233e-10 2.98735e-10 2.74542e-10 2.59573e-10 2.52127e-10 2.50886e-10 2.54841e-10 2.63217e-10 2.75397e-10 2.90845e-10 3.09024e-10
          3.293e-10 3.50865e-10 3.72704e-10 3.93625e-10 4.12346e-10 4.27624e-10 4.38389e-10 4.43941e-10 4.4429e-10 4.39287e-10 4.28945e-10 4.13481e-10
          3.93275e-10 3.68834e-10 3.40764e-10 3.09749e-10 2.76548e-10 2.4199e-10 2.06971e-10 1.72441e-10 1.3937e-10 1.08699e-10 8.12742e-11 5.77694e-11
[...]
      <CellData Scalars="process rank">
        <DataArray type="Float32" Name="process rank" NumberOfComponents="1" format="ascii">
          0 0 0 0 0 0 0 0 0 0 0 0
          0 0 0 0 0 0 0 0 0 0 0 0
          0 0 0 0 0 0 0 0 0 0 0 0
          0 0 0 0 0 0 0 0 0 0 0 0
          0 0 0 0 0 0 0 0 0 0 0 0
          0 0 0 0 0 0 0 0 0 0 0 0
          0 0 0 0 0 0 0 0 0 0 0 0
          0 0 0 0 0 0 0 0 0 0 0 0
          0 0 0 0 0 0 0 0 0 0 0 0
          0 0 0 0 0 0 0 0 0 0 0 0
          0 0 0 0 0 0 0 0 0 0 0 0
          0 0 0 0 0 0 0 0 0 0 0 0
          0 0 0 0 0 0 0 0 0 0 0 0
          0 0 0 0 0 0 0 0 0 0 0 0
          0 0 0 0 0 0 0 0 0 0 0 0
          0 0 0 0 0 0 0 0 0 0 0 0
          0 0 0 0 0 0 0 0 0 0 0 0
          0 0 0 0 0 0 0 0 0 0 0 0
          0 0 0 0 0 0 0 0 0 0 0 0
          0 0 0 0 0 0 0 0 0 0 0 0
          0 0 0 0 0 0 0 0 0 0 0 0
          0 0 0 0 0 0 0 0 0 0 0 0
          0 0 0 0 0 0 0 0 0 0 0 0
          0 0 0 0 0 0 0 0 0 0 0 0
          0 0 0 0 0 0 0 0 0 0 0 0
          0 0 0 0 0 0 0 0 0 0 0 0
          0 0 0 0 0 0 0 0 0 0 0 0
          0 0 0 0 0 0 0 0 0 0 0 0
          0 0 0 0 0 0 0 0 0 0 0 0
          0 0 0 0 0 0 0 0 0 0 0 0
          0 0 0 0 0 0 0 0 0 0 0 0
          0 0 0 0 0 0 0 0 0 0 0 0
          0 0 0 0 0 0 0 0 0 0 0 0
          0 0 0 0 0 0 0 0 0 0 0 0
          0 0 0 0 0 0 0 0 0 0 0 0
          0 0 0 0 0 0 0 0 0 0 0 0
          0 0 0 0 0 0 0 0 0 0 0 0
          0 0 0 0 0 0 0 0 0 0 0 0
          0 0 0 0 0 0 0 0 0 0 0 0
          0 0 0 0 0 0 0 0 0 0 0 0
          0 0 0 0 0 0 0 0 0 0 0 0
          0 0 0 0 0 0 0 0 0 0 0 0
          0 0 0 0 0 0 0 0 0 0 0 0
          0 0 0 0 0 0 0 0 0 0 0 0
          0 0 0 0 0 0 0 0 0 0 0 0
          0 0 0 0 0 0 0 0 0 0 0 0
          0 0 0 0 0 0 0 0 0 0 0 0
          0 0 0 0 0 0 0 0 0 0 0 0
          0 0 0 0 0 0 0 0 0 0 0 0
          0 0 0 0 0 0 0 0 0 0 0 0
          0 0 0 0 0 0 0 0 0 0 0 0
          0 0 0 0 0 0 0 0 0 0 0 0
          0 0 0 0 0 0 0 0 0 0 0 0
          0 0 0 0 0 0 0 0 0 0 0 0
          0 0 0 0 0 0 0 0 0 0 0 0
          0 0 0 0 0 0 0 0 0 0 0 0
          0 0 0 0 0 0 0 0 0 0 0 0
          0 0 0 0 0 0 0 0 0 0 0 0
          0 0 0 0 0 0 0 0 0 0 0 0
          0 0 0 0 0 0 0 0 0 0 0 0
          0 0 0 0 0 0 0 0 0 0 0 0
          0 0 0 0 0 0 0 0 0 0 0 0
          0 0 0 0 0 0 0 0 0 0 0 0
          0 0 0 0 0 0 0 0 0 0 0 0
          0 0 0 0 0 0 0 0 0 0 0 0
          0 0 0 0 0 0 0 0 0 0 0 0
          0 0 0 0 0 0 0 0 0 0 0 0
          0 0 0 0 0 0 0 0 0 0 0 0
          0 0 0 0 0 0 0 0 0 0 0 0
          0 0 0 0 0 0 0 0 0 0 0 0
          0 0 0 0 0 0 0 0 0 0 0 0
          0 0 0 0 0 0 0 0 0 0 0 0
          0 0 0 0 0 0 0 0 0 0 0 0
          0 0 0 0 0 0 0 0 0 0 0 0
          0 0 0 0 0 0 0 0 0 0 0 0
          0 0 0 0 0 0 0 0 0 0 0 0
          0 0 0 0 0 0 0 0 0 0 0 0
          0 0 0 0 0 0 0 0 0 0 0 0
          0 0 0 0 0 0 0 0 0 0 0 0
          0 0 0 0 0 0 0 0 0 0 0 0
          0 0 0 0 0 0 0 0 0 0 0 0
          0 0 0 0 0 0 0 0 0 0 0 0
          0 0 0 0 0 0 0 0 0 0 0 0
          0 0 0 0 0 0 0 0 0 0 0 0
          0 0 0 0 0 0 0 0 0 0 0 0
          0 0 0 0 0 0 0 0 0 0 0 0
          0 0 0 0 0 0 0 0 0 0 0 0
          0 0 0 0 0 0 0 0 0 0 0 0
          0 0 0 0 0 0 0 0 0 0 0 0
          0 0 0 0 0 0 0 0 0 0 0 0
          0 0 0 0 0 0 0 0 0 0 0 0
          0 0 0 0 0 0 0 0 0 0 0 0
          0 0 0 0 0 0 0 0 0 0 0 0
          0 0 0 0 0 0 0 0 0 0 0 0
          0 0 0 0 0 0 0 0 0 0 0 0
          0 0 0 0 0 0 0 0 0 0 0 0
          0 0 0 0 0 0 0 0 0 0 0 0
          0 0 0 0 0 0 0 0 0 0 0 0
          0 0 0 0 0 0 0 0 0 0 0 0
          0 0 0 0 0 0 0 0 0 0 0 0
          0 0 0 0 0 0 0 0 0 0 0 0
          0 0 0 0 0 0 0 0 0 0 0 0
          0 0 0 0 0 0 0 0 0 0 0 0
          0 0 0 0 0 0 0 0 0 0 0 0
          0 0 0 0 0 0 0 0 0 0 0 0
          0 0 0 0 0 0 0 0 0 0 0 0
          0 0 0 0 0 0 0 0 0 0 0 0
          0 0 0 0 0 0 0 0 0 0 0 0
          0 0 0 0 0 0 0 0 0 0 0 0
          0 0 0 0 0 0 0 0 0 0 0 0
          0 0 0 0 0 0 0 0 0 0 0 0
          0 0 0 0 0 0 0 0 0 0 0 0
          0 0 0 0 0 0 0 0 0 0 0 0
          0 0 0 0 0 0 0 0 0 0 0 0
          0 0 0 0 0 0 0 0 0 0 0 0
          0 0 0 0 0 0 0 0 0 0 0 0
          0 0 0 0 0 0 0 0 0 0 0 0
          0 0 0 0 0 0 0 0 0 0 0 0
          0 0 0 0 0 0 0 0 0 0 0 0
          0 0 0 0 0 0 0 0 0 0 0 0
          0 0 0 0 0 0 0 0 0 0 0 0
          0 0 0 0 0 0 0 0 0 0 0 0
          0 0 0 0 0 0 0 0 0 0 0 0
          0 0 0 0 0 0 0 0 0 0 0 0
          0 0 0 0 0 0 0 0 0 0 0 0
          0 0 0 0 0 0 0 0 0 0 0 0
          0 0 0 0 0 0 0 0 0 0 0 0
          0 0 0 0 0 0 0 0 0 0 0 0
          0 0 0 0 0 0 0 0 0 0 0 0
          0 0 0 0 0 0 0 0 0 0 0 0
          0 0 0 0 0 0 0 0 0 0 0 0
          0 0 0 0 0 0 0 0 0 0 0 0
          0 0 0 0 0 0 0 0 0 0 0 0
          0 0 0 0 0 0 0 0 0 0 0 0
          0 0 0 0 0 0 0 0 0 0 0 0
          0 0 0 0 0 0 0 0 0 0 0 0
          0 0 0 0 0 0 0 0 0 0 0 0
          0 0 0 0 0 0 0 0 0 0 0 0
          0 0 0 0 0 0 0 0 0 0 0 0
          0 0 0 0 0 0 0 0 0 0 0 0
          0 0 0 0 0 0 0 0 0 0 0 0
          0 0 0 0 0 0 0 0 0 0 0 0
          0 0 0 0 0 0 0 0 0 0 0 0
          0 0 0 0 0 0 0 0 0 0 0 0
          0 0 0 0 0 0 0 0 0 0 0 0
          0 0 0 0 0 0 0 0 0 0 0 0
          0 0 0 0 0 0 0 0 0 0 0 0
          0 0 0 0 0 0 0 0 0 0 0 0
          0 0 0 0 0 0 0 0 0 0 0 0
          0 0 0 0 0 0 0 0 0 0 0 0
          0 0 0 0 0 0 0 0 0 0 0 0
          0 0 0 0 0 0 0 0 0 0 0 0
          0 0 0 0 0 0 0 0 0 0 0 0
          0 0 0 0 0 0 0 0 0 0 0 0
          0 0 0 0 0 0 0 0 0 0 0 0
          0 0 0 0 0 0 0 0 0 0 0 0
          0 0 0 0 0 0 0 0 0 0 0 0
          0 0 0 0 0 0 0 0 0 0 0 0
          0 0 0 0 0 0 0 0 0 0 0 0
          0 0 0 0 0 0 0 0 0 0 0 0
          0 0 0 0 0 0 0 0 0 0 0 0
          0 0 0 0 0 0 0 0 0 0 0 0
          0 0 0 0 0 0 0 0 0 0 0 0
          0 0 0 0 0 0 0 0 0 0 0 0
          0 0 0 0 0 0 0 0 0 0 0 0
          0 0 0 0 0 0 0 0 0 0 0 0
          0 0 0 0 0 0 0 0 0 0 0 0
          0 0 0 0 0 0 0 0 0 0 0 0
          0 0 0 0 0 0 0 0 0 0 0 0
          0 0 0 0 0 0 0 0 0 0 0 0
          0 0 0 0 0 0 0 0 0 0 0 0
          0 0 0 0 0 0 0 0 0 0 0 0
          0 0 0 0 0 0 0 0 0 0 0 0
          0 0 0 0 0 0 0 0 0 0 0 0
          0 0 0 0 0 0 0 0 0 0 0 0
          0 0 0 0 0 0 0 0 0 0 0 0
          0 0 0 0 0 0 0 0 0 0 0 0
          0 0 0 0 0 0 0 0 0 0 0 0
          0 0 0 0 0 0 0 0 0 0 0 0
          0 0 0 0 0 0 0 0 0 0 0 0
          0 0 0 0 0 0 0 0 0 0 0 0
          0 0 0 0 0 0 0 0 0 0 0 0
          0 0 0 0 0 0 0 0 0 0 0 0
          0 0 0 0 0 0 0 0 0 0 0 0
          0 0 0 0 0 0 0 0 0 0 0 0
          0 0 0 0 0 0 0 0 0 0 0 0
          0 0 0 0 0 0 0 0 0 0 0 0
          0 0 0 0 0 0 0 0 0 0 0 0
          0 0 0 0 0 0 0 0 0 0 0 0
          0 0 0 0 0 0 0 0 0 0 0 0
          0 0 0 0 0 0 0 0 0 0 0 0
          0 0 0 0 0 0 0 0 0 0 0 0
          0 0 0 0 0 0 0 0 0 0 0 0
          0 0 0 0 0 0 0 0 0 0 0 0
          0 0 0 0 0 0 0 0 0 0 0 0
          0 0 0 0 0 0 0 0 0 0 0 0
          0 0 0 0 0 0 0 0 0 0 0 0
          0 0 0 0 0 0 0 0 0 0 0 0
          0 0 0 0 0 0 0 0 0 0 0 0
          0 0 0 0 0 0 0 0 0 0 0 0
          0 0 0 0 0 0 0 0 0 0 0 0
          0 0 0 0 0 0 0 0 0 0 0 0
          0 0 0 0 0 0 0 0 0 0 0 0
          0 0 0 0 0 0 0 0 0 0 0 0
          0 0 0 0 0 0 0 0 0 0 0 0
          0 0 0 0 0 0 0 0 0 0 0 0
          0 0 0 0 0 0 0 0 0 0 0 0
          0 0 0 0 0 0 0 0 0 0 0 0
          0 0 0 0
        </DataArray>
      </CellData>
      <Points>
        <DataArray type="Float32" Name="Coordinates" NumberOfComponents="3" format="ascii">
          0 0 0 0.02 0 0 0 0.02 0 0.02 0.02 0
          0.04 0 0 0.04 0.02 0 0.06 0 0 0.06 0.02 0
          0.08 0 0 0.08 0.02 0 0.1 0 0 0.1 0.02 0
          0.12 0 0 0.12 0.02 0 0.14 0 0 0.14 0.02 0
          0.16 0 0 0.16 0.02 0 0.18 0 0 0.18 0.02 0
          0.2 0 0 0.2 0.02 0 0.22 0 0 0.22 0.02 0
          0.24 0 0 0.24 0.02 0 0.26 0 0 0.26 0.02 0
          0.28 0 0 0.28 0.02 0 0.3 0 0 0.3 0.02 0
          0.32 0 0 0.32 0.02 0 0.34 0 0 0.34 0.02 0
          0.36 0 0 0.36 0.02 0 0.38 0 0 0.38 0.02 0
          0.4 0 0 0.4 0.02 0 0.42 0 0 0.42 0.02 0
          0.44 0 0 0.44 0.02 0 0.46 0 0 0.46 0.02 0
          0.48 0 0 0.48 0.02 0 0.5 0 0 0.5 0.02 0
          0.52 0 0 0.52 0.02 0 0.54 0 0 0.54 0.02 0
          0.56 0 0 0.56 0.02 0 0.58 0 0 0.58 0.02 0
          0.6 0 0 0.6 0.02 0 0.62 0 0 0.62 0.02 0
          0.64 0 0 0.64 0.02 0 0.66 0 0 0.66 0.02 0
          0.68 0 0 0.68 0.02 0 0.7 0 0 0.7 0.02 0
          0.72 0 0 0.72 0.02 0 0.74 0 0 0.74 0.02 0
          0.76 0 0 0.76 0.02 0 0.78 0 0 0.78 0.02 0
          0.8 0 0 0.8 0.02 0 0.82 0 0 0.82 0.02 0
          0.84 0 0 0.84 0.02 0 0.86 0 0 0.86 0.02 0
          0.88 0 0 0.88 0.02 0 0.9 0 0 0.9 0.02 0
          0.92 0 0 0.92 0.02 0 0.94 0 0 0.94 0.02 0
          0.96 0 0 0.96 0.02 0 0.98 0 0 0.98 0.02 0
          1 0 0 1 0.02 0 0 0.04 0 0.02 0.04 0
          0.04 0.04 0 0.06 0.04 0 0.08 0.04 0 0.1 0.04 0
          0.12 0.04 0 0.14 0.04 0 0.16 0.04 0 0.18 0.04 0
          0.2 0.04 0 0.22 0.04 0 0.24 0.04 0 0.26 0.04 0
          0.28 0.04 0 0.3 0.04 0 0.32 0.04 0 0.34 0.04 0
          0.36 0.04 0 0.38 0.04 0 0.4 0.04 0 0.42 0.04 0
          0.44 0.04 0 0.46 0.04 0 0.48 0.04 0 0.5 0.04 0
          0.52 0.04 0 0.54 0.04 0 0.56 0.04 0 0.58 0.04 0
          0.6 0.04 0 0.62 0.04 0 0.64 0.04 0 0.66 0.04 0
          0.68 0.04 0 0.7 0.04 0 0.72 0.04 0 0.74 0.04 0
          0.76 0.04 0 0.78 0.04 0 0.8 0.04 0 0.82 0.04 0
          0.84 0.04 0 0.86 0.04 0 0.88 0.04 0 0.9 0.04 0
          0.92 0.04 0 0.94 0.04 0 0.96 0.04 0 0.98 0.04 0
          1 0.04 0 0 0.06 0 0.02 0.06 0 0.04 0.06 0
          0.06 0.06 0 0.08 0.06 0 0.1 0.06 0 0.12 0.06 0
          0.14 0.06 0 0.16 0.06 0 0.18 0.06 0 0.2 0.06 0
          0.22 0.06 0 0.24 0.06 0 0.26 0.06 0 0.28 0.06 0
          0.3 0.06 0 0.32 0.06 0 0.34 0.06 0 0.36 0.06 0
          0.38 0.06 0 0.4 0.06 0 0.42 0.06 0 0.44 0.06 0
          0.46 0.06 0 0.48 0.06 0 0.5 0.06 0 0.52 0.06 0
          0.54 0.06 0 0.56 0.06 0 0.58 0.06 0 0.6 0.06 0
          0.62 0.06 0 0.64 0.06 0 0.66 0.06 0 0.68 0.06 0
          0.7 0.06 0 0.72 0.06 0 0.74 0.06 0 0.76 0.06 0
          0.78 0.06 0 0.8 0.06 0 0.82 0.06 0 0.84 0.06 0
          0.86 0.06 0 0.88 0.06 0 0.9 0.06 0 0.92 0.06 0
          0.94 0.06 0 0.96 0.06 0 0.98 0.06 0 1 0.06 0
          0 0.08 0 0.02 0.08 0 0.04 0.08 0 0.06 0.08 0
          0.08 0.08 0 0.1 0.08 0 0.12 0.08 0 0.14 0.08 0
          0.16 0.08 0 0.18 0.08 0 0.2 0.08 0 0.22 0.08 0
          0.24 0.08 0 0.26 0.08 0 0.28 0.08 0 0.3 0.08 0
          0.32 0.08 0 0.34 0.08 0 0.36 0.08 0 0.38 0.08 0
          0.4 0.08 0 0.42 0.08 0 0.44 0.08 0 0.46 0.08 0
          0.48 0.08 0 0.5 0.08 0 0.52 0.08 0 0.54 0.08 0
          0.56 0.08 0 0.58 0.08 0 0.6 0.08 0 0.62 0.08 0
          0.64 0.08 0 0.66 0.08 0 0.68 0.08 0 0.7 0.08 0
          0.72 0.08 0 0.74 0.08 0 0.76 0.08 0 0.78 0.08 0
          0.8 0.08 0 0.82 0.08 0 0.84 0.08 0 0.86 0.08 0
          0.88 0.08 0 0.9 0.08 0 0.92 0.08 0 0.94 0.08 0
          0.96 0.08 0 0.98 0.08 0 1 0.08 0 0 0.1 0
          0.02 0.1 0 0.04 0.1 0 0.06 0.1 0 0.08 0.1 0
          0.1 0.1 0 0.12 0.1 0 0.14 0.1 0 0.16 0.1 0
          0.18 0.1 0 0.2 0.1 0 0.22 0.1 0 0.24 0.1 0
          0.26 0.1 0 0.28 0.1 0 0.3 0.1 0 0.32 0.1 0
          0.34 0.1 0 0.36 0.1 0 0.38 0.1 0 0.4 0.1 0
          0.42 0.1 0 0.44 0.1 0 0.46 0.1 0 0.48 0.1 0
          0.5 0.1 0 0.52 0.1 0 0.54 0.1 0 0.56 0.1 0
          0.58 0.1 0 0.6 0.1 0 0.62 0.1 0 0.64 0.1 0
          0.66 0.1 0 0.68 0.1 0 0.7 0.1 0 0.72 0.1 0
          0.74 0.1 0 0.76 0.1 0 0.78 0.1 0 0.8 0.1 0
          0.82 0.1 0 0.84 0.1 0 0.86 0.1 0 0.88 0.1 0
          0.9 0.1 0 0.92 0.1 0 0.94 0.1 0 0.96 0.1 0
          0.98 0.1 0 1 0.1 0 0 0.12 0 0.02 0.12 0
          0.04 0.12 0 0.06 0.12 0 0.08 0.12 0 0.1 0.12 0
          0.12 0.12 0 0.14 0.12 0 0.16 0.12 0 0.18 0.12 0
          0.2 0.12 0 0.22 0.12 0 0.24 0.12 0 0.26 0.12 0
          0.28 0.12 0 0.3 0.12 0 0.32 0.12 0 0.34 0.12 0
          0.36 0.12 0 0.38 0.12 0 0.4 0.12 0 0.42 0.12 0
          0.44 0.12 0 0.46 0.12 0 0.48 0.12 0 0.5 0.12 0
          0.52 0.12 0 0.54 0.12 0 0.56 0.12 0 0.58 0.12 0
          0.6 0.12 0 0.62 0.12 0 0.64 0.12 0 0.66 0.12 0
          0.68 0.12 0 0.7 0.12 0 0.72 0.12 0 0.74 0.12 0
          0.76 0.12 0 0.78 0.12 0 0.8 0.12 0 0.82 0.12 0
          0.84 0.12 0 0.86 0.12 0 0.88 0.12 0 0.9 0.12 0
          0.92 0.12 0 0.94 0.12 0 0.96 0.12 0 0.98 0.12 0
          1 0.12 0 0 0.14 0 0.02 0.14 0 0.04 0.14 0
          0.06 0.14 0 0.08 0.14 0 0.1 0.14 0 0.12 0.14 0
          0.14 0.14 0 0.16 0.14 0 0.18 0.14 0 0.2 0.14 0
          0.22 0.14 0 0.24 0.14 0 0.26 0.14 0 0.28 0.14 0
          0.3 0.14 0 0.32 0.14 0 0.34 0.14 0 0.36 0.14 0
          0.38 0.14 0 0.4 0.14 0 0.42 0.14 0 0.44 0.14 0
          0.46 0.14 0 0.48 0.14 0 0.5 0.14 0 0.52 0.14 0
          0.54 0.14 0 0.56 0.14 0 0.58 0.14 0 0.6 0.14 0
          0.62 0.14 0 0.64 0.14 0 0.66 0.14 0 0.68 0.14 0
          0.7 0.14 0 0.72 0.14 0 0.74 0.14 0 0.76 0.14 0
          0.78 0.14 0 0.8 0.14 0 0.82 0.14 0 0.84 0.14 0
          0.86 0.14 0 0.88 0.14 0 0.9 0.14 0 0.92 0.14 0
          0.94 0.14 0 0.96 0.14 0 0.98 0.14 0 1 0.14 0
          0 0.16 0 0.02 0.16 0 0.04 0.16 0 0.06 0.16 0
          0.08 0.16 0 0.1 0.16 0 0.12 0.16 0 0.14 0.16 0
          0.16 0.16 0 0.18 0.16 0 0.2 0.16 0 0.22 0.16 0
          0.24 0.16 0 0.26 0.16 0 0.28 0.16 0 0.3 0.16 0
          0.32 0.16 0 0.34 0.16 0 0.36 0.16 0 0.38 0.16 0
          0.4 0.16 0 0.42 0.16 0 0.44 0.16 0 0.46 0.16 0
          0.48 0.16 0 0.5 0.16 0 0.52 0.16 0 0.54 0.16 0
          0.56 0.16 0 0.58 0.16 0 0.6 0.16 0 0.62 0.16 0
          0.64 0.16 0 0.66 0.16 0 0.68 0.16 0 0.7 0.16 0
          0.72 0.16 0 0.74 0.16 0 0.76 0.16 0 0.78 0.16 0
          0.8 0.16 0 0.82 0.16 0 0.84 0.16 0 0.86 0.16 0
          0.88 0.16 0 0.9 0.16 0 0.92 0.16 0 0.94 0.16 0
          0.96 0.16 0 0.98 0.16 0 1 0.16 0 0 0.18 0
          0.02 0.18 0 0.04 0.18 0 0.06 0.18 0 0.08 0.18 0
          0.1 0.18 0 0.12 0.18 0 0.14 0.18 0 0.16 0.18 0
          0.18 0.18 0 0.2 0.18 0 0.22 0.18 0 0.24 0.18 0
          0.26 0.18 0 0.28 0.18 0 0.3 0.18 0 0.32 0.18 0
          0.34 0.18 0 0.36 0.18 0 0.38 0.18 0 0.4 0.18 0
          0.42 0.18 0 0.44 0.18 0 0.46 0.18 0 0.48 0.18 0
          0.5 0.18 0 0.52 0.18 0 0.54 0.18 0 0.56 0.18 0
          0.58 0.18 0 0.6 0.18 0 0.62 0.18 0 0.64 0.18 0
          0.66 0.18 0 0.68 0.18 0 0.7 0.18 0 0.72 0.18 0
          0.74 0.18 0 0.76 0.18 0 0.78 0.18 0 0.8 0.18 0
          0.82 0.18 0 0.84 0.18 0 0.86 0.18 0 0.88 0.18 0
          0.9 0.18 0 0.92 0.18 0 0.94 0.18 0 0.96 0.18 0
          0.98 0.18 0 1 0.18 0 0 0.2 0 0.02 0.2 0
          0.04 0.2 0 0.06 0.2 0 0.08 0.2 0 0.1 0.2 0
          0.12 0.2 0 0.14 0.2 0 0.16 0.2 0 0.18 0.2 0
          0.2 0.2 0 0.22 0.2 0 0.24 0.2 0 0.26 0.2 0
          0.28 0.2 0 0.3 0.2 0 0.32 0.2 0 0.34 0.2 0
          0.36 0.2 0 0.38 0.2 0 0.4 0.2 0 0.42 0.2 0
          0.44 0.2 0 0.46 0.2 0 0.48 0.2 0 0.5 0.2 0
          0.52 0.2 0 0.54 0.2 0 0.56 0.2 0 0.58 0.2 0
          0.6 0.2 0 0.62 0.2 0 0.64 0.2 0 0.66 0.2 0
          0.68 0.2 0 0.7 0.2 0 0.72 0.2 0 0.74 0.2 0
          0.76 0.2 0 0.78 0.2 0 0.8 0.2 0 0.82 0.2 0
          0.84 0.2 0 0.86 0.2 0 0.88 0.2 0 0.9 0.2 0
          0.92 0.2 0 0.94 0.2 0 0.96 0.2 0 0.98 0.2 0
          1 0.2 0 0 0.22 0 0.02 0.22 0 0.04 0.22 0
          0.06 0.22 0 0.08 0.22 0 0.1 0.22 0 0.12 0.22 0
          0.14 0.22 0 0.16 0.22 0 0.18 0.22 0 0.2 0.22 0
          0.22 0.22 0 0.24 0.22 0 0.26 0.22 0 0.28 0.22 0
          0.3 0.22 0 0.32 0.22 0 0.34 0.22 0 0.36 0.22 0
          0.38 0.22 0 0.4 0.22 0 0.42 0.22 0 0.44 0.22 0
          0.46 0.22 0 0.48 0.22 0 0.5 0.22 0 0.52 0.22 0
          0.54 0.22 0 0.56 0.22 0 0.58 0.22 0 0.6 0.22 0
          0.62 0.22 0 0.64 0.22 0 0.66 0.22 0 0.68 0.22 0
          0.7 0.22 0 0.72 0.22 0 0.74 0.22 0 0.76 0.22 0
          0.78 0.22 0 0.8 0.22 0 0.82 0.22 0 0.84 0.22 0
          0.86 0.22 0 0.88 0.22 0 0.9 0.22 0 0.92 0.22 0
          0.94 0.22 0 0.96 0.22 0 0.98 0.22 0 1 0.22 0
          0 0.24 0 0.02 0.24 0 0.04 0.24 0 0.06 0.24 0
          0.08 0.24 0 0.1 0.24 0 0.12 0.24 0 0.14 0.24 0
          0.16 0.24 0 0.18 0.24 0 0.2 0.24 0 0.22 0.24 0
          0.24 0.24 0 0.26 0.24 0 0.28 0.24 0 0.3 0.24 0
          0.32 0.24 0 0.34 0.24 0 0.36 0.24 0 0.38 0.24 0
          0.4 0.24 0 0.42 0.24 0 0.44 0.24 0 0.46 0.24 0
          0.48 0.24 0 0.5 0.24 0 0.52 0.24 0 0.54 0.24 0
          0.56 0.24 0 0.58 0.24 0 0.6 0.24 0 0.62 0.24 0
          0.64 0.24 0 0.66 0.24 0 0.68 0.24 0 0.7 0.24 0
          0.72 0.24 0 0.74 0.24 0 0.76 0.24 0 0.78 0.24 0
          0.8 0.24 0 0.82 0.24 0 0.84 0.24 0 0.86 0.24 0
          0.88 0.24 0 0.9 0.24 0 0.92 0.24 0 0.94 0.24 0
          0.96 0.24 0 0.98 0.24 0 1 0.24 0 0 0.26 0
          0.02 0.26 0 0.04 0.26 0 0.06 0.26 0 0.08 0.26 0
          0.1 0.26 0 0.12 0.26 0 0.14 0.26 0 0.16 0.26 0
          0.18 0.26 0 0.2 0.26 0 0.22 0.26 0 0.24 0.26 0
          0.26 0.26 0 0.28 0.26 0 0.3 0.26 0 0.32 0.26 0
          0.34 0.26 0 0.36 0.26 0 0.38 0.26 0 0.4 0.26 0
          0.42 0.26 0 0.44 0.26 0 0.46 0.26 0 0.48 0.26 0
          0.5 0.26 0 0.52 0.26 0 0.54 0.26 0 0.56 0.26 0
          0.58 0.26 0 0.6 0.26 0 0.62 0.26 0 0.64 0.26 0
          0.66 0.26 0 0.68 0.26 0 0.7 0.26 0 0.72 0.26 0
          0.74 0.26 0 0.76 0.26 0 0.78 0.26 0 0.8 0.26 0
          0.82 0.26 0 0.84 0.26 0 0.86 0.26 0 0.88 0.26 0
          0.9 0.26 0 0.92 0.26 0 0.94 0.26 0 0.96 0.26 0
          0.98 0.26 0 1 0.26 0 0 0.28 0 0.02 0.28 0
          0.04 0.28 0 0.06 0.28 0 0.08 0.28 0 0.1 0.28 0
          0.12 0.28 0 0.14 0.28 0 0.16 0.28 0 0.18 0.28 0
          0.2 0.28 0 0.22 0.28 0 0.24 0.28 0 0.26 0.28 0
          0.28 0.28 0 0.3 0.28 0 0.32 0.28 0 0.34 0.28 0
          0.36 0.28 0 0.38 0.28 0 0.4 0.28 0 0.42 0.28 0
          0.44 0.28 0 0.46 0.28 0 0.48 0.28 0 0.5 0.28 0
          0.52 0.28 0 0.54 0.28 0 0.56 0.28 0 0.58 0.28 0
          0.6 0.28 0 0.62 0.28 0 0.64 0.28 0 0.66 0.28 0
          0.68 0.28 0 0.7 0.28 0 0.72 0.28 0 0.74 0.28 0
          0.76 0.28 0 0.78 0.28 0 0.8 0.28 0 0.82 0.28 0
          0.84 0.28 0 0.86 0.28 0 0.88 0.28 0 0.9 0.28 0
          0.92 0.28 0 0.94 0.28 0 0.96 0.28 0 0.98 0.28 0
          1 0.28 0 0 0.3 0 0.02 0.3 0 0.04 0.3 0
          0.06 0.3 0 0.08 0.3 0 0.1 0.3 0 0.12 0.3 0
          0.14 0.3 0 0.16 0.3 0 0.18 0.3 0 0.2 0.3 0
          0.22 0.3 0 0.24 0.3 0 0.26 0.3 0 0.28 0.3 0
          0.3 0.3 0 0.32 0.3 0 0.34 0.3 0 0.36 0.3 0
          0.38 0.3 0 0.4 0.3 0 0.42 0.3 0 0.44 0.3 0
          0.46 0.3 0 0.48 0.3 0 0.5 0.3 0 0.52 0.3 0
          0.54 0.3 0 0.56 0.3 0 0.58 0.3 0 0.6 0.3 0
          0.62 0.3 0 0.64 0.3 0 0.66 0.3 0 0.68 0.3 0
          0.7 0.3 0 0.72 0.3 0 0.74 0.3 0 0.76 0.3 0
          0.78 0.3 0 0.8 0.3 0 0.82 0.3 0 0.84 0.3 0
          0.86 0.3 0 0.88 0.3 0 0.9 0.3 0 0.92 0.3 0
          0.94 0.3 0 0.96 0.3 0 0.98 0.3 0 1 0.3 0
          0 0.32 0 0.02 0.32 0 0.04 0.32 0 0.06 0.32 0
          0.08 0.32 0 0.1 0.32 0 0.12 0.32 0 0.14 0.32 0
          0.16 0.32 0 0.18 0.32 0 0.2 0.32 0 0.22 0.32 0
          0.24 0.32 0 0.26 0.32 0 0.28 0.32 0 0.3 0.32 0
          0.32 0.32 0 0.34 0.32 0 0.36 0.32 0 0.38 0.32 0
          0.4 0.32 0 0.42 0.32 0 0.44 0.32 0 0.46 0.32 0
          0.48 0.32 0 0.5 0.32 0 0.52 0.32 0 0.54 0.32 0
          0.56 0.32 0 0.58 0.32 0 0.6 0.32 0 0.62 0.32 0
          0.64 0.32 0 0.66 0.32 0 0.68 0.32 0 0.7 0.32 0
          0.72 0.32 0 0.74 0.32 0 0.76 0.32 0 0.78 0.32 0
          0.8 0.32 0 0.82 0.32 0 0.84 0.32 0 0.86 0.32 0
          0.88 0.32 0 0.9 0.32 0 0.92 0.32 0 0.94 0.32 0
          0.96 0.32 0 0.98 0.32 0 1 0.32 0 0 0.34 0
          0.02 0.34 0 0.04 0.34 0 0.06 0.34 0 0.08 0.34 0
          0.1 0.34 0 0.12 0.34 0 0.14 0.34 0 0.16 0.34 0
          0.18 0.34 0 0.2 0.34 0 0.22 0.34 0 0.24 0.34 0
          0.26 0.34 0 0.28 0.34 0 0.3 0.34 0 0.32 0.34 0
          0.34 0.34 0 0.36 0.34 0 0.38 0.34 0 0.4 0.34 0
          0.42 0.34 0 0.44 0.34 0 0.46 0.34 0 0.48 0.34 0
          0.5 0.34 0 0.52 0.34 0 0.54 0.34 0 0.56 0.34 0
          0.58 0.34 0 0.6 0.34 0 0.62 0.34 0 0.64 0.34 0
          0.66 0.34 0 0.68 0.34 0 0.7 0.34 0 0.72 0.34 0
          0.74 0.34 0 0.76 0.34 0 0.78 0.34 0 0.8 0.34 0