<?xml version="1.0"?>
<VTKFile type="UnstructuredGrid" version="0.1" byte_order="LittleEndian">
  <UnstructuredGrid>
    <Piece NumberOfCells="4" NumberOfPoints="22">
      <CellData Scalars="porosity">
        <DataArray type="Float32" Name="porosity" NumberOfComponents="1" format="ascii">
          0.1 0.1 0.3 0.3
        </DataArray>
        <DataArray type="Float32" Name="pc" NumberOfComponents="1" format="ascii">
          2614.11 2091.05 2024.13 1414.34
        </DataArray>
        <DataArray type="Float32" Name="S_aq" NumberOfComponents="1" format="ascii">
          0.285556 0.652038 0.702397 0.96918
        </DataArray>
        <DataArray type="Float32" Name="p_aq" NumberOfComponents="1" format="ascii">
          184557 119320 121961 116546
        </DataArray>
        <DataArray type="Float32" Name="rho_aq" NumberOfComponents="1" format="ascii">
          1000 1000 1000 1000
        </DataArray>
        <DataArray type="Float32" Name="mob_aq" NumberOfComponents="1" format="ascii">
          22.5775 249.234 311.805 943.527
        </DataArray>
        <DataArray type="Float32" Name="S_napl" NumberOfComponents="1" format="ascii">
          0.714444 0.347962 0.297603 0.0308204
        </DataArray>
        <DataArray type="Float32" Name="p_napl" NumberOfComponents="1" format="ascii">
          187171 121411 123985 117961
        </DataArray>
        <DataArray type="Float32" Name="rho_napl" NumberOfComponents="1" format="ascii">
          1460 1460 1460 1460
        </DataArray>
        <DataArray type="Float32" Name="mob_napl" NumberOfComponents="1" format="ascii">
          989.879 243.734 178.199 1.74053
        </DataArray>
        <DataArray type="Float32" Name="process rank" NumberOfComponents="1" format="ascii">
          0 0 0 0
        </DataArray>
        <DataArray type="Float32" Name="PERMX [mD]" NumberOfComponents="1" format="ascii">
          100 100 500 500
        </DataArray>
        <DataArray type="Float32" Name="PERMZ [mD]" NumberOfComponents="1" format="ascii">
          100 100 500 500
        </DataArray>
      </CellData>
      <Points>
        <DataArray type="Float32" Name="Coordinates" NumberOfComponents="3" format="ascii">
          0 0 0 1 0 0 0 1 0 1 1 0
          0 0 1 1 0 1 0 1 1 1 1 1
          2 0 0 2 1 0 1 0 0.8 2 0 1.2
          1 1 1.2 2 1 1.2 0 0 2 1 0 2
          0 1 2 1 1 2 1 0 2.2 2 0 2
          1 1 1.9 2 1 2
        </DataArray>
      </Points>
      <Cells>
        <DataArray type="Int32" Name="connectivity" NumberOfComponents="1" format="ascii">
          0 1 3 2 4 5 7 6 1 8 9 3
          10 11 13 12 4 5 7 6 14 15 17 16
          10 11 13 12 18 19 21 20
        </DataArray>
        <DataArray type="Int32" Name="offsets" NumberOfComponents="1" format="ascii">
          8 16 24 32
        </DataArray>
        <DataArray type="UInt8" Name="types" NumberOfComponents="1" format="ascii">
          12 12 12 12
        </DataArray>
      </Cells>
    </Piece>
  </UnstructuredGrid>
</VTKFile>
