<?xml version="1.0"?>
<VTKFile type="UnstructuredGrid" version="0.1" byte_order="LittleEndian">
  <UnstructuredGrid>
    <Piece NumberOfCells="80" NumberOfPoints="162">
      <CellData Scalars="p">
        <DataArray type="Float32" Name="p" NumberOfComponents="1" format="ascii">
          121429 121165 120901 120637 120373 120108 119844 119580 119316 119052 118788 118524
          118259 117994 117729 117463 117196 116928 116659 116390 116120 115850 115580 115309
          115038 114767 114497 114226 113955 113684 113413 113142 112871 112600 112329 112058
          111787 111516 111245 110974 110703 110432 110161 109890 109619 109348 109077 108806
          108535 108264 107994 107723 107452 107181 106910 106639 106368 106097 105826 105555
          105284 105013 104742 104471 104200 103929 103658 103387 103116 102845 102574 102303
          102032 101761 101490 101219 100948 100677 100406 100135
        </DataArray>
        <DataArray type="Float32" Name="process rank" NumberOfComponents="1" format="ascii">
          0 0 0 0 0 0 0 0 0 0 0 0
          0 0 0 0 0 0 0 0 0 0 0 0
          0 0 0 0 0 0 0 0 0 0 0 0
          0 0 0 0 0 0 0 0 0 0 0 0
          0 0 0 0 0 0 0 0 0 0 0 0
          0 0 0 0 0 0 0 0 0 0 0 0
          0 0 0 0 0 0 0 0
        </DataArray>
        <DataArray type="Float32" Name="T" NumberOfComponents="1" format="ascii">
          291 291 291 291.001 291.002 291 290.997 290.998 291.005 291.014 291.014 290.994
          290.943 290.861 290.754 290.632 290.508 290.392 290.291 290.208 290.144 290.096 290.063 290.04
          290.025 290.015 290.009 290.006 290.004 290.003 290.002 290.002 290.001 290.001 290.001 290.001
          290.001 290.001 290.001 290.001 290.001 290.001 290.001 290.001 290.001 290.001 290.001 290.001
          290.001 290.001 290.001 290.001 290.001 290.001 290.001 290.001 290.001 290.001 290.001 290.001
          290.001 290.001 290.001 290.001 290.001 290.001 290.001 290.001 290.001 290.001 290.001 290.001
          290.001 290.001 290.001 290.002 290.001 290.002 290 290.002
        </DataArray>
        <DataArray type="Float32" Name="temperatureExact" NumberOfComponents="1" format="ascii">
          291 291 291 291 291 291 291 291 291 291 291 291
          291 291 291 291 291 290 290 290 290 290 290 290
          290 290 290 290 290 290 290 290 290 290 290 290
          290 290 290 290 290 290 290 290 290 290 290 290
          290 290 290 290 290 290 290 290 290 290 290 290
          290 290 290 290 290 290 290 290 290 290 290 290
          290 290 290 290 290 290 290 290
        </DataArray>
      </CellData>
      <Points>
        <DataArray type="Float32" Name="Coordinates" NumberOfComponents="3" format="ascii">
          0 0 0 0.25 0 0 0 1 0 0.25 1 0
          0.5 0 0 0.5 1 0 0.75 0 0 0.75 1 0
          1 0 0 1 1 0 1.25 0 0 1.25 1 0
          1.5 0 0 1.5 1 0 1.75 0 0 1.75 1 0
          2 0 0 2 1 0 2.25 0 0 2.25 1 0
          2.5 0 0 2.5 1 0 2.75 0 0 2.75 1 0
          3 0 0 3 1 0 3.25 0 0 3.25 1 0
          3.5 0 0 3.5 1 0 3.75 0 0 3.75 1 0
          4 0 0 4 1 0 4.25 0 0 4.25 1 0
          4.5 0 0 4.5 1 0 4.75 0 0 4.75 1 0
          5 0 0 5 1 0 5.25 0 0 5.25 1 0
          5.5 0 0 5.5 1 0 5.75 0 0 5.75 1 0
          6 0 0 6 1 0 6.25 0 0 6.25 1 0
          6.5 0 0 6.5 1 0 6.75 0 0 6.75 1 0
          7 0 0 7 1 0 7.25 0 0 7.25 1 0
          7.5 0 0 7.5 1 0 7.75 0 0 7.75 1 0
          8 0 0 8 1 0 8.25 0 0 8.25 1 0
          8.5 0 0 8.5 1 0 8.75 0 0 8.75 1 0
          9 0 0 9 1 0 9.25 0 0 9.25 1 0
          9.5 0 0 9.5 1 0 9.75 0 0 9.75 1 0
          10 0 0 10 1 0 10.25 0 0 10.25 1 0
          10.5 0 0 10.5 1 0 10.75 0 0 10.75 1 0
          11 0 0 11 1 0 11.25 0 0 11.25 1 0
          11.5 0 0 11.5 1 0 11.75 0 0 11.75 1 0
          12 0 0 12 1 0 12.25 0 0 12.25 1 0
          12.5 0 0 12.5 1 0 12.75 0 0 12.75 1 0
          13 0 0 13 1 0 13.25 0 0 13.25 1 0
          13.5 0 0 13.5 1 0 13.75 0 0 13.75 1 0
          14 0 0 14 1 0 14.25 0 0 14.25 1 0
          14.5 0 0 14.5 1 0 14.75 0 0 14.75 1 0
          15 0 0 15 1 0 15.25 0 0 15.25 1 0
          15.5 0 0 15.5 1 0 15.75 0 0 15.75 1 0
          16 0 0 16 1 0 16.25 0 0 16.25 1 0
          16.5 0 0 16.5 1 0 16.75 0 0 16.75 1 0
          17 0 0 17 1 0 17.25 0 0 17.25 1 0
          17.5 0 0 17.5 1 0 17.75 0 0 17.75 1 0
          18 0 0 18 1 0 18.25 0 0 18.25 1 0
          18.5 0 0 18.5 1 0 18.75 0 0 18.75 1 0
          19 0 0 19 1 0 19.25 0 0 19.25 1 0
          19.5 0 0 19.5 1 0 19.75 0 0 19.75 1 0
          20 0 0 20 1 0
        </DataArray>
      </Points>
      <Cells>
        <DataArray type="Int32" Name="connectivity" NumberOfComponents="1" format="ascii">
          0 1 3 2 1 4 5 3 4 6 7 5
          6 8 9 7 8 10 11 9 10 12 13 11
          12 14 15 13 14 16 17 15 16 18 19 17
          18 20 21 19 20 22 23 21 22 24 25 23
          24 26 27 25 26 28 29 27 28 30 31 29
          30 32 33 31 32 34 35 33 34 36 37 35
          36 38 39 37 38 40 41 39 40 42 43 41
          42 44 45 43 44 46 47 45 46 48 49 47
          48 50 51 49 50 52 53 51 52 54 55 53
          54 56 57 55 56 58 59 57 58 60 61 59
          60 62 63 61 62 64 65 63 64 66 67 65
          66 68 69 67 68 70 71 69 70 72 73 71
          72 74 75 73 74 76 77 75 76 78 79 77
          78 80 81 79 80 82 83 81 82 84 85 83
          84 86 87 85 86 88 89 87 88 90 91 89
          90 92 93 91 92 94 95 93 94 96 97 95
          96 98 99 97 98 100 101 99 100 102 103 101
          102 104 105 103 104 106 107 105 106 108 109 107
          108 110 111 109 110 112 113 111 112 114 115 113
          114 116 117 115 116 118 119 117 118 120 121 119
          120 122 123 121 122 124 125 123 124 126 127 125
          126 128 129 127 128 130 131 129 130 132 133 131
          132 134 135 133 134 136 137 135 136 138 139 137
          138 140 141 139 140 142 143 141 142 144 145 143
          144 146 147 145 146 148 149 147 148 150 151 149
          150 152 153 151 152 154 155 153 154 156 157 155
          156 158 159 157 158 160 161 159
        </DataArray>
        <DataArray type="Int32" Name="offsets" NumberOfComponents="1" format="ascii">
          4 8 12 16 20 24 28 32 36 40 44 48
          52 56 60 64 68 72 76 80 84 88 92 96
          100 104 108 112 116 120 124 128 132 136 140 144
          148 152 156 160 164 168 172 176 180 184 188 192
          196 200 204 208 212 216 220 224 228 232 236 240
          244 248 252 256 260 264 268 272 276 280 284 288
          292 296 300 304 308 312 316 320
        </DataArray>
        <DataArray type="UInt8" Name="types" NumberOfComponents="1" format="ascii">
          9 9 9 9 9 9 9 9 9 9 9 9
          9 9 9 9 9 9 9 9 9 9 9 9
          9 9 9 9 9 9 9 9 9 9 9 9
          9 9 9 9 9 9 9 9 9 9 9 9
          9 9 9 9 9 9 9 9 9 9 9 9
          9 9 9 9 9 9 9 9 9 9 9 9
          9 9 9 9 9 9 9 9
        </DataArray>
      </Cells>
    </Piece>
  </UnstructuredGrid>
</VTKFile>
