<?xml version="1.0"?>
<VTKFile type="UnstructuredGrid" version="0.1" byte_order="LittleEndian">
  <UnstructuredGrid>
    <Piece NumberOfCells="2500" NumberOfPoints="2601">
      <CellData Scalars="x_tracer_0">
        <DataArray type="Float32" Name="x_tracer_0" NumberOfComponents="1" format="ascii">
          9.67428e-23 2.19292e-17 7.84257e-16 4.81212e-15 1.49747e-14 3.26908e-14 5.74817e-14 8.73813e-14 1.19604e-13 1.51158e-13 1.79301e-13 2.01823e-13
          2.17191e-13 2.24594e-13 2.23905e-13 2.15603e-13 2.00663e-13 1.80429e-13 1.56479e-13 1.30491e-13 1.04118e-13 7.88666e-14 5.6006e-14 3.64849e-14
          2.08845e-14 1.08365e-14 5.60158e-15 2.87719e-15 1.46432e-15 7.36152e-16 3.64327e-16 1.76836e-16 8.38241e-17 3.86199e-17 1.71997e-17 7.35774e-18
          3.00094e-18 1.15675e-18 4.16977e-19 1.38775e-19 4.19757e-20 1.13142e-20 2.65057e-21 5.22479e-22 8.29999e-23 1.00123e-23 8.41317e-25 4.30038e-26
          1.04766e-27 6.7712e-30 1.49584e-20 1.21269e-15 2.82367e-14 1.34807e-13 3.54923e-13 6.88134e-13 1.10961e-12 1.58313e-12 2.07055e-12 2.53728e-12
          2.95491e-12 3.30211e-12 3.56447e-12 3.73393e-12 3.808e-12 3.78891e-12 3.68281e-12 3.49905e-12 3.24945e-12 2.94764e-12 2.60842e-12 2.24715e-12
          1.87908e-12 1.51873e-12 1.17928e-12 8.93421e-13 6.74115e-13 5.0589e-13 3.7703e-13 2.78603e-13 2.03749e-13 1.47167e-13 1.04738e-13 7.32472e-14
          5.01725e-14 3.35317e-14 2.1764e-14 1.36406e-14 8.19706e-15 4.68071e-15 2.51071e-15 1.24616e-15 5.6097e-16 2.22853e-16 7.51953e-17 2.03889e-17
          4.08502e-18 5.27847e-19 3.42934e-20 6.16787e-22 6.13339e-19 1.85095e-14 2.94397e-13 1.13955e-12 2.61401e-12 4.59158e-12 6.87641e-12 9.27275e-12
          1.16151e-11 1.37765e-11 1.56668e-11 1.72269e-11 1.84227e-11 1.92396e-11 1.96781e-11 1.97501e-11 1.94767e-11 1.88861e-11 1.80123e-11 1.6894e-11
          1.55741e-11 1.40983e-11 1.25147e-11 1.08728e-11 9.22193e-12 7.69794e-12 6.38593e-12 5.25944e-12 4.29581e-12 3.47546e-12 2.78128e-12 2.19816e-12
          1.71263e-12 1.31261e-12 9.87125e-13 7.26196e-13 5.20683e-13 3.622e-13 2.4305e-13 1.56193e-13 9.52273e-14 5.44004e-14 2.86355e-14 1.35699e-14
          5.60018e-15 1.91586e-15 5.03099e-16 8.91506e-17 8.36025e-18 2.28889e-19 1.19783e-17 1.4146e-13 1.60791e-12 5.20311e-12 1.06036e-11 1.70898e-11
          2.39678e-11 3.0704e-11 3.69351e-11 4.24363e-11 4.70839e-11 5.08228e-11 5.36431e-11 5.55631e-11 5.66185e-11 5.68556e-11 5.63275e-11 5.50918e-11
          5.32107e-11 5.07501e-11 4.77809e-11 4.43792e-11 4.06266e-11 3.66106e-11 3.2424e-11 2.83426e-11 2.45775e-11 2.11252e-11 1.79815e-11 1.5141e-11
          1.2597e-11 1.0341e-11 8.36252e-12 6.6492e-12 5.1865e-12 3.95793e-12 2.94515e-12 2.12819e-12 1.48576e-12 9.95598e-13 6.34968e-13 3.81158e-13
          2.12129e-13 1.07187e-13 4.77187e-14 1.7895e-14 5.2664e-15 1.07815e-15 1.217e-16 4.22888e-18 1.42161e-16 6.93496e-13 5.85654e-12 1.61957e-11
          2.97109e-11 4.43106e-11 5.85241e-11 7.14908e-11 8.2787e-11 9.22623e-11 9.99217e-11 1.05849e-10 1.10162e-10 1.12986e-10 1.14439e-10 1.14631e-10
          1.13658e-10 1.11606e-10 1.08555e-10 1.04579e-10 9.97566e-11 9.41668e-11 8.78985e-11 8.10508e-11 7.37354e-11 6.63101e-11 5.90949e-11 5.21508e-11
          4.55346e-11 3.92981e-11 3.34863e-11 2.81363e-11 2.32764e-11 1.8925e-11 1.50905e-11 1.17707e-11 8.95319e-12 6.61535e-12 4.72532e-12 3.24303e-12
          2.12162e-12 1.30931e-12 7.51512e-13 3.93396e-13 1.82594e-13 7.20397e-14 2.25973e-14 5.02572e-15 6.33958e-16 2.56793e-17 1.1735e-15 2.49521e-12
          1.61601e-11 3.87951e-11 6.46496e-11 8.97464e-11 1.12083e-10 1.30935e-10 1.46266e-10 1.5835e-10 1.67573e-10 1.7432e-10 1.78938e-10 1.8171e-10
          1.8286e-10 1.8256e-10 1.80933e-10 1.78069e-10 1.74034e-10 1.68877e-10 1.62639e-10 1.55366e-10 1.47109e-10 1.37936e-10 1.27934e-10 1.17429e-10
          1.06766e-10 9.60829e-11 8.5517e-11 7.52043e-11 6.52745e-11 5.58479e-11 4.70319e-11 3.89174e-11 3.15764e-11 2.50591e-11 1.93927e-11 1.45802e-11
          1.06003e-11 7.40868e-12 4.93995e-12 3.11105e-12 1.82564e-12 9.79683e-13 4.67955e-13 1.91074e-13 6.25476e-14 1.46997e-14 1.99767e-15 8.99312e-17
          7.3397e-15 7.15513e-12 3.6442e-11 7.68059e-11 1.1702e-10 1.51855e-10 1.79883e-10 2.01441e-10 2.17496e-10 2.29112e-10 2.37238e-10 2.42641e-10
          2.45904e-10 2.47449e-10 2.47565e-10 2.46439e-10 2.44174e-10 2.40818e-10 2.36376e-10 2.30827e-10 2.24138e-10 2.16275e-10 2.07215e-10 1.96953e-10
          1.85513e-10 1.7309e-10 1.59963e-10 1.46318e-10 1.32353e-10 1.18281e-10 1.04318e-10 9.06806e-11 7.75773e-11 6.52027e-11 5.37294e-11 4.33014e-11
          3.40281e-11 2.59794e-11 1.91821e-11 1.36187e-11 9.22824e-12 5.91033e-12 3.53103e-12 1.93229e-12 9.4353e-13 3.95286e-13 1.33497e-13 3.26427e-14
          4.67732e-15 2.26973e-16 3.68796e-14 1.72566e-11 7.0484e-11 1.31492e-10 1.84037e-10 2.23984e-10 2.52306e-10 2.71435e-10 2.83809e-10 2.91423e-10
          2.95771e-10 2.9791e-10 2.98551e-10 2.98147e-10 2.9696e-10 2.95112e-10 2.92625e-10 2.89451e-10 2.85492e-10 2.80621e-10 2.74697e-10 2.67581e-10
          2.59147e-10 2.49293e-10 2.37954e-10 2.25158e-10 2.11062e-10 1.95847e-10 1.79734e-10 1.6297e-10 1.45834e-10 1.28622e-10 1.1164e-10 9.51927e-11
          7.95734e-11 6.50486e-11 5.18465e-11 4.0145e-11 3.00617e-11 2.1647e-11 1.48802e-11 9.67131e-12 5.86716e-12 3.26351e-12 1.6223e-12 6.9357e-13
          2.39911e-13 6.04276e-14 8.99977e-15 4.60733e-16 1.5523e-13 3.63083e-11 1.2075e-10 2.0061e-10 2.58873e-10 2.96291e-10 3.1811e-10 3.29466e-10
          3.34284e-10 3.35274e-10 3.34213e-10 3.32204e-10 3.29896e-10 3.27625e-10 3.25518e-10 3.23562e-10 3.2164e-10 3.19574e-10 3.17135e-10 3.14071e-10
          3.10116e-10 3.05013e-10 2.98519e-10 2.90428e-10 2.80579e-10 2.68847e-10 2.55258e-10 2.39948e-10 2.23109e-10 2.04987e-10 1.85882e-10 1.66136e-10
          1.46128e-10 1.26262e-10 1.06947e-10 8.85798e-11 7.15283e-11 5.61069e-11 4.25595e-11 3.10432e-11 2.16164e-11 1.42341e-11 8.75148e-12 4.93623e-12
          2.49065e-12 1.08243e-12 3.81529e-13 9.8286e-14 1.50584e-14 8.00126e-16 5.64369e-13 6.83657e-11 1.8732e-10 2.78445e-10 3.32277e-10 3.58512e-10
          3.67683e-10 3.67414e-10 3.62561e-10 3.56017e-10 3.49418e-10 3.43623e-10 3.39015e-10 3.3569e-10 3.33565e-10 3.32447e-10 3.32063e-10 3.32092e-10
          3.32174e-10 3.31926e-10 3.30956e-10 3.28882e-10 3.25343e-10 3.20027e-10 3.12674e-10 3.03057e-10 2.91095e-10 2.76853e-10 2.60471e-10 2.42161e-10
          2.22212e-10 2.00983e-10 1.78897e-10 1.56427e-10 1.3408e-10 1.12377e-10 9.18199e-11 7.28725e-11 5.59246e-11 4.12673e-11 2.90698e-11 1.93652e-11
          1.20465e-11 6.87683e-12 3.51355e-12 1.54762e-12 5.53656e-13 1.45082e-13 2.26832e-14 1.23469e-15 1.81299e-12 1.1729e-10 2.6724e-10 3.56766e-10
          3.94745e-10 4.02442e-10 3.95167e-10 3.81896e-10 3.67442e-10 3.54209e-10 3.43274e-10 3.35003e-10 3.29387e-10 3.2622e-10 3.25191e-10 3.25928e-10
          3.2802e-10 3.31021e-10 3.34455e-10 3.3782e-10 3.40601e-10 3.42285e-10 3.42391e-10 3.40488e-10 3.36227e-10 3.29323e-10 3.19634e-10 3.07152e-10
          2.91958e-10 2.74224e-10 2.54216e-10 2.32292e-10 2.08894e-10 1.84543e-10 1.59819e-10 1.35339e-10 1.1173e-10 8.9594e-11 6.94683e-11 5.17892e-11
          3.68558e-11 2.4803e-11 1.55873e-11 8.99003e-12 4.64175e-12 2.06701e-12 7.48106e-13 1.98525e-13 3.14669e-14 1.73524e-15 5.23226e-12 1.8569e-10
          3.54461e-10 4.26383e-10 4.38538e-10 4.23465e-10 3.99094e-10 3.74e-10 3.51876e-10 3.3405e-10 3.20759e-10 3.11761e-10 3.06624e-10 3.04857e-10
          3.05956e-10 3.09417e-10 3.14733e-10 3.21374e-10 3.28777e-10 3.36336e-10 3.43413e-10 3.49357e-10 3.53543e-10 3.55411e-10 3.54506e-10 3.50526e-10
          3.43316e-10 3.3281e-10 3.19047e-10 3.02174e-10 2.82446e-10 2.6022e-10 2.35953e-10 2.10198e-10 1.83585e-10 1.56805e-10 1.30581e-10 1.05631e-10
          8.26277e-11 6.21456e-11 4.46173e-11 3.02908e-11 1.92028e-11 1.1172e-11 5.81866e-12 2.61384e-12 9.54409e-13 2.55516e-13 4.08266e-14 2.25855e-15
          1.37256e-11 2.73681e-10 4.40466e-10 4.78902e-10 4.59055e-10 4.20944e-10 3.81811e-10 3.47999e-10 3.21234e-10 3.01446e-10 2.87952e-10 2.79929e-10
          2.76592e-10 2.77235e-10 2.81237e-10 2.88031e-10 2.97072e-10 3.07799e-10 3.19597e-10 3.31775e-10 3.43565e-10 3.5415e-10 3.62724e-10 3.68556e-10
          3.7106e-10 3.69942e-10 3.65075e-10 3.56361e-10 3.43834e-10 3.27653e-10 3.08094e-10 2.85539e-10 2.60475e-10 2.33484e-10 2.05232e-10 1.76463e-10
          1.47964e-10 1.20544e-10 9.49775e-11 7.19606e-11 5.2047e-11 3.55963e-11 2.27316e-11 1.33203e-11 6.98635e-12 3.15966e-12 1.16105e-12 3.12532e-13
          5.0084e-14 2.75428e-15 3.29736e-11 3.77717e-10 5.15512e-10 5.08265e-10 4.55369e-10 3.97663e-10 3.4821e-10 3.09741e-10 2.81628e-10 2.62398e-10
          2.50567e-10 2.44872e-10 2.44292e-10 2.48014e-10 2.55384e-10 2.65847e-10 2.78889e-10 2.93975e-10 3.10479e-10 3.27638e-10 3.44538e-10 3.60149e-10
          3.73416e-10 3.8337e-10 3.89242e-10 3.90753e-10 3.87842e-10 3.80416e-10 3.68557e-10 3.52495e-10 3.32583e-10 3.09279e-10 2.83128e-10 2.54756e-10
          2.24865e-10 1.94227e-10 1.63669e-10 1.34048e-10 1.06212e-10 8.09434e-11 5.88939e-11 4.0521e-11 2.60301e-11 1.53409e-11 8.08989e-12 3.67678e-12
          1.35654e-12 3.66006e-13 5.85479e-14 3.17269e-15 7.2797e-11 4.89856e-10 5.70312e-10 5.1177e-10 4.29935e-10 3.58709e-10 3.04286e-10 2.65226e-10
          2.38662e-10 2.21988e-10 2.13167e-10 2.10679e-10 2.13413e-10 2.20549e-10 2.3148e-10 2.45735e-10 2.62899e-10 2.82523e-10 3.04017e-10 3.26559e-10
          3.49056e-10 3.70196e-10 3.88574e-10 4.0288e-10 4.12076e-10 4.15885e-10 4.14353e-10 4.0744e-10 3.95347e-10 3.78461e-10 3.57302e-10 3.32469e-10
          3.04616e-10 2.7444e-10 2.42679e-10 2.10118e-10 1.77591e-10 1.45965e-10 1.16116e-10 8.88753e-11 6.49602e-11 4.49028e-11 2.89772e-11 1.71523e-11
          9.08055e-12 4.14013e-12 1.53035e-12 4.12643e-13 6.55887e-14 3.47163e-15 1.47608e-10 5.97951e-10 5.97854e-10 4.90384e-10 3.87703e-10 3.10158e-10
          2.55902e-10 2.19625e-10 1.96744e-10 1.83938e-10 1.78906e-10 1.80066e-10 1.86332e-10 1.9696e-10 2.11458e-10 2.29498e-10 2.50829e-10 2.75159e-10
          3.01986e-10 3.30444e-10 3.59214e-10 3.86596e-10 4.10702e-10 4.29738e-10 4.42275e-10 4.48002e-10 4.47105e-10 4.39659e-10 4.26095e-10 4.07083e-10
          3.83424e-10 3.55958e-10 3.25511e-10 2.9288e-10 2.58839e-10 2.24166e-10 1.89664e-10 1.56168e-10 1.24532e-10 9.55926e-11 7.00943e-11 4.86139e-11
          3.14757e-11 1.86875e-11 9.91771e-12 4.52857e-12 1.67357e-12 4.49678e-13 7.06978e-14 3.62188e-15 2.73479e-10 6.872e-10 5.94943e-10 4.4831e-10
          3.3491e-10 2.57917e-10 2.07948e-10 1.76787e-10 1.58857e-10 1.50574e-10 1.49635e-10 1.54544e-10 1.64325e-10 1.78369e-10 1.96338e-10 2.18103e-10
          2.43645e-10 2.72905e-10 3.0554e-10 3.40653e-10 3.76627e-10 4.11221e-10 4.41899e-10 4.66227e-10 4.82233e-10 4.89478e-10 4.88303e-10 4.78988e-10
          4.62351e-10 4.39529e-10 4.11771e-10 3.80278e-10 3.46121e-10 3.10221e-10 2.73381e-10 2.36334e-10 1.99805e-10 1.64545e-10 1.31337e-10 1.00972e-10
          7.41827e-11 5.1559e-11 3.34518e-11 1.98954e-11 1.057e-11 4.82576e-12 1.77934e-12 4.75053e-13 7.35296e-14 3.61035e-15 4.58165e-10 7.43334e-10
          5.63013e-10 3.91943e-10 2.7785e-10 2.06888e-10 1.63928e-10 1.39133e-10 1.26657e-10 1.23034e-10 1.26154e-10 1.34698e-10 1.47849e-10 1.65159e-10
          1.86476e-10 2.11912e-10 2.41751e-10 2.76265e-10 3.15354e-10 3.58104e-10 4.02487e-10 4.45506e-10 4.83766e-10 5.14079e-10 5.33814e-10 5.42204e-10
          5.39685e-10 5.26857e-10 5.05155e-10 4.76446e-10 4.42656e-10 4.05505e-10 3.66379e-10 3.2633e-10 2.8615e-10 2.46472e-10 2.0788e-10 1.70977e-10
          1.36424e-10 1.04919e-10 7.7145e-11 5.36718e-11 3.48549e-11 2.07408e-11 1.1016e-11 5.02057e-12 1.84315e-12 4.87518e-13 7.39228e-14 3.44096e-15
          6.828e-10 7.56998e-10 5.07821e-10 3.28463e-10 2.21895e-10 1.60532e-10 1.25911e-10 1.0782e-10 1.00733e-10 1.01565e-10 1.08507e-10 1.20463e-10
          1.36791e-10 1.57206e-10 1.81761e-10 2.10847e-10 2.45127e-10 2.85312e-10 3.31658e-10 3.83252e-10 4.37482e-10 4.90259e-10 5.37064e-10 5.73972e-10
          5.97807e-10 6.07125e-10 6.02167e-10 5.83939e-10 5.54805e-10 5.17757e-10 4.75725e-10 4.31139e-10 3.85759e-10 3.40736e-10 2.96768e-10 2.543e-10
          2.1369e-10 1.75329e-10 1.39699e-10 1.07367e-10 7.89298e-11 5.49132e-11 3.56561e-11 2.12042e-11 1.12438e-11 5.10723e-12 1.86292e-12 4.8667e-13
          7.19052e-14 3.13328e-15 8.86549e-10 7.27824e-10 4.3791e-10 2.64424e-10 1.70893e-10 1.20812e-10 9.47236e-11 8.3033e-11 8.09185e-11 8.58148e-11
          9.62555e-11 1.11367e-10 1.30673e-10 1.5405e-10 1.8176e-10 2.14501e-10 2.53389e-10 2.99698e-10 3.54168e-10 4.15914e-10 4.81509e-10 5.45289e-10
          6.01191e-10 6.44707e-10 6.72947e-10 6.83477e-10 6.75408e-10 6.49955e-10 6.10777e-10 5.62603e-10 5.09892e-10 4.5605e-10 4.03249e-10 3.52628e-10
          3.04647e-10 2.59425e-10 2.16992e-10 1.7746e-10 1.41085e-10 1.08274e-10 7.95151e-11 5.52703e-11 3.58476e-11 2.12807e-11 1.12514e-11 5.08523e-12
          1.83897e-12 4.72927e-13 6.76799e-14 2.71946e-15 9.8897e-10 6.65341e-10 3.62208e-10 2.04735e-10 1.27028e-10 8.84066e-11 7.02825e-11 6.43186e-11
          6.65923e-11 7.50953e-11 8.86918e-11 1.06709e-10 1.28815e-10 1.5503e-10 1.85821e-10 2.22214e-10 2.65831e-10 3.18615e-10 3.81929e-10 4.54958e-10
          5.33218e-10 6.08852e-10 6.73625e-10 7.22452e-10 7.54315e-10 7.68185e-10 7.59496e-10 7.27254e-10 6.75828e-10 6.12842e-10 5.458e-10 4.8e-10
          4.1821e-10 3.61331e-10 3.09251e-10 2.61491e-10 2.17588e-10 1.7728e-10 1.4056e-10 1.07654e-10 7.89307e-11 5.47798e-11 3.54705e-11 2.10206e-11
          1.11116e-11 5.08932e-12 2.09962e-12 1.58114e-12 6.65658e-12 1.03641e-10 9.78823e-10 5.84072e-10 2.87739e-10 1.52297e-10 9.10606e-11 6.30885e-11
          5.19448e-11 5.08819e-11 5.69193e-11 6.85753e-11 8.50038e-11 1.05698e-10 1.30439e-10 1.59374e-10 1.93156e-10 2.33132e-10 2.81447e-10 3.40767e-10
          4.13169e-10 4.97969e-10 5.89443e-10 6.7699e-10 7.49524e-10 8.01063e-10 8.31624e-10 8.42924e-10 8.32984e-10 7.97779e-10 7.38064e-10 6.61854e-10
          5.80018e-10 5.01125e-10 4.29519e-10 3.66136e-10 3.10157e-10 2.60289e-10 2.15414e-10 1.74819e-10 1.38206e-10 1.05612e-10 7.72892e-11 5.35582e-11
          3.46505e-11 2.0575e-11 1.10398e-11 5.49482e-12 3.46385e-12 6.12231e-12 2.83568e-11 2.8974e-10 9.60573e-10 4.94447e-10 2.18715e-10 1.08328e-10
          6.27934e-11 4.41206e-11 3.88155e-11 4.18143e-11 5.1022e-11 6.54141e-11 8.43794e-11 1.07537e-10 1.34755e-10 1.66276e-10 2.0291e-10 2.46282e-10
          2.99005e-10 3.64423e-10 4.45307e-10 5.41117e-10 6.44864e-10 7.42984e-10 8.21306e-10 8.73409e-10 9.01516e-10 9.0783e-10 8.93322e-10 8.54758e-10
          7.8907e-10 7.023e-10 6.0737e-10 5.16266e-10 4.35455e-10 3.66215e-10 3.07054e-10 2.55789e-10 2.10588e-10 1.70263e-10 1.34232e-10 1.02362e-10
          7.4805e-11 5.18217e-11 3.36198e-11 2.02223e-11 1.14216e-11 6.93111e-12 7.14961e-12 1.68255e-11 7.02803e-11 4.90666e-10 9.28719e-10 3.99413e-10
          1.57503e-10 7.30617e-11 4.15409e-11 3.0569e-11 2.9954e-11 3.62328e-11 4.80772e-11 6.48319e-11 8.60628e-11 1.11477e-10 1.40999e-10 1.74935e-10
          2.14205e-10 2.60629e-10 3.17151e-10 3.87595e-10 4.75225e-10 5.79549e-10 6.92457e-10 7.97774e-10 8.78622e-10 9.28742e-10 9.53746e-10 9.5528e-10
          9.36116e-10 8.94436e-10 8.23969e-10 7.28693e-10 6.23101e-10 5.22164e-10 4.34236e-10 3.60846e-10 2.99834e-10 2.48183e-10 2.0342e-10 1.63958e-10
          1.28983e-10 9.82372e-11 7.17985e-11 4.98916e-11 3.27228e-11 2.03707e-11 1.28033e-11 1.02301e-11 1.45697e-11 3.60821e-11 1.32713e-10 6.61756e-10
          8.75124e-10 3.03408e-10 1.0603e-10 4.62366e-11 2.6405e-11 2.14668e-11 2.44697e-11 3.33356e-11 4.73489e-11 6.61303e-11 8.93679e-11 1.16821e-10
          1.48444e-10 1.84571e-10 2.26166e-10 2.75126e-10 3.34511e-10 4.08282e-10 4.99786e-10 6.08344e-10 7.25066e-10 8.32339e-10 9.12034e-10 9.58733e-10
          9.81725e-10 9.8116e-10 9.59461e-10 9.15622e-10 8.4029e-10 7.37369e-10 6.23684e-10 5.16407e-10 4.24701e-10 3.49774e-10 2.88737e-10 2.37921e-10
          1.94418e-10 1.56399e-10 1.22925e-10 9.36734e-11 6.86885e-11 4.81878e-11 3.24102e-11 2.15469e-11 1.58651e-11 1.63534e-11 2.71367e-11 6.55211e-11
          2.12281e-10 7.89137e-10 7.89137e-10 2.12281e-10 6.55211e-11 2.71367e-11 1.63534e-11 1.58651e-11 2.15469e-11 3.24102e-11 4.81878e-11 6.86885e-11
          9.36734e-11 1.22925e-10 1.56399e-10 1.94418e-10 2.37921e-10 2.88737e-10 3.49774e-10 4.24701e-10 5.16407e-10 6.23684e-10 7.37369e-10 8.4029e-10
          9.15622e-10 9.59461e-10 9.8116e-10 9.81725e-10 9.58733e-10 9.12034e-10 8.32339e-10 7.25066e-10 6.08344e-10 4.99786e-10 4.08282e-10 3.34511e-10
          2.75126e-10 2.26166e-10 1.84571e-10 1.48444e-10 1.16821e-10 8.93679e-11 6.61303e-11 4.73489e-11 3.33356e-11 2.44697e-11 2.14668e-11 2.6405e-11
          4.62366e-11 1.0603e-10 3.03408e-10 8.75124e-10 6.61756e-10 1.32713e-10 3.60821e-11 1.45697e-11 1.02301e-11 1.28033e-11 2.03707e-11 3.27228e-11
          4.98916e-11 7.17985e-11 9.82372e-11 1.28983e-10 1.63958e-10 2.0342e-10 2.48183e-10 2.99834e-10 3.60846e-10 4.34236e-10 5.22164e-10 6.23101e-10
          7.28693e-10 8.23969e-10 8.94436e-10 9.36116e-10 9.5528e-10 9.53746e-10 9.28742e-10 8.78622e-10 7.97774e-10 6.92457e-10 5.79549e-10 4.75225e-10
          3.87595e-10 3.17151e-10 2.60629e-10 2.14205e-10 1.74935e-10 1.40999e-10 1.11477e-10 8.60628e-11 6.48319e-11 4.80772e-11 3.62328e-11 2.9954e-11
          3.0569e-11 4.15409e-11 7.30617e-11 1.57503e-10 3.99413e-10 9.28719e-10 4.90666e-10 7.02803e-11 1.68255e-11 7.14961e-12 6.93111e-12 1.14216e-11
          2.02223e-11 3.36198e-11 5.18217e-11 7.4805e-11 1.02362e-10 1.34232e-10 1.70263e-10 2.10588e-10 2.55789e-10 3.07054e-10 3.66215e-10 4.35455e-10
          5.16266e-10 6.0737e-10 7.023e-10 7.8907e-10 8.54758e-10 8.93322e-10 9.0783e-10 9.01516e-10 8.73409e-10 8.21306e-10 7.42984e-10 6.44864e-10
          5.41117e-10 4.45307e-10 3.64423e-10 2.99005e-10 2.46282e-10 2.0291e-10 1.66276e-10 1.34755e-10 1.07537e-10 8.43794e-11 6.54141e-11 5.1022e-11
          4.18143e-11 3.88155e-11 4.41206e-11 6.27934e-11 1.08328e-10 2.18715e-10 4.94447e-10 9.60573e-10 2.8974e-10 2.83568e-11 6.12231e-12 3.46385e-12
          5.49482e-12 1.10398e-11 2.0575e-11 3.46505e-11 5.35582e-11 7.72892e-11 1.05612e-10 1.38206e-10 1.74819e-10 2.15414e-10 2.60289e-10 3.10157e-10
          3.66136e-10 4.29519e-10 5.01125e-10 5.80018e-10 6.61854e-10 7.38064e-10 7.97779e-10 8.32984e-10 8.42924e-10 8.31624e-10 8.01063e-10 7.49524e-10
          6.7699e-10 5.89443e-10 4.97969e-10 4.13169e-10 3.40767e-10 2.81447e-10 2.33132e-10 1.93156e-10 1.59374e-10 1.30439e-10 1.05698e-10 8.50038e-11
          6.85753e-11 5.69193e-11 5.08819e-11 5.19448e-11 6.30885e-11 9.10606e-11 1.52297e-10 2.87739e-10 5.84072e-10 9.78823e-10 1.03641e-10 6.65658e-12
          1.58114e-12 2.09962e-12 5.08932e-12 1.11116e-11 2.10206e-11 3.54705e-11 5.47798e-11 7.89307e-11 1.07654e-10 1.4056e-10 1.7728e-10 2.17588e-10
          2.61491e-10 3.09251e-10 3.61331e-10 4.1821e-10 4.8e-10 5.458e-10 6.12842e-10 6.75828e-10 7.27254e-10 7.59496e-10 7.68185e-10 7.54315e-10
          7.22452e-10 6.73625e-10 6.08852e-10 5.33218e-10 4.54958e-10 3.81929e-10 3.18615e-10 2.65831e-10 2.22214e-10 1.85821e-10 1.5503e-10 1.28815e-10
          1.06709e-10 8.86918e-11 7.50953e-11 6.65923e-11 6.43186e-11 7.02825e-11 8.84066e-11 1.27028e-10 2.04735e-10 3.62208e-10 6.65341e-10 9.8897e-10
          2.71946e-15 6.76799e-14 4.72927e-13 1.83897e-12 5.08523e-12 1.12514e-11 2.12807e-11 3.58476e-11 5.52703e-11 7.95151e-11 1.08274e-10 1.41085e-10
          1.7746e-10 2.16992e-10 2.59425e-10 3.04647e-10 3.52628e-10 4.03249e-10 4.5605e-10 5.09892e-10 5.62603e-10 6.10777e-10 6.49955e-10 6.75408e-10
          6.83477e-10 6.72947e-10 6.44707e-10 6.01191e-10 5.45289e-10 4.81509e-10 4.15914e-10 3.54168e-10 2.99698e-10 2.53389e-10 2.14501e-10 1.8176e-10
          1.5405e-10 1.30673e-10 1.11367e-10 9.62555e-11 8.58148e-11 8.09185e-11 8.3033e-11 9.47236e-11 1.20812e-10 1.70893e-10 2.64424e-10 4.3791e-10
          7.27824e-10 8.86549e-10 3.13328e-15 7.19052e-14 4.8667e-13 1.86292e-12 5.10723e-12 1.12438e-11 2.12042e-11 3.56561e-11 5.49132e-11 7.89298e-11
          1.07367e-10 1.39699e-10 1.75329e-10 2.1369e-10 2.543e-10 2.96768e-10 3.40736e-10 3.85759e-10 4.31139e-10 4.75725e-10 5.17757e-10 5.54805e-10
          5.83939e-10 6.02167e-10 6.07125e-10 5.97807e-10 5.73972e-10 5.37064e-10 4.90259e-10 4.37482e-10 3.83252e-10 3.31658e-10 2.85312e-10 2.45127e-10
          2.10847e-10 1.81761e-10 1.57206e-10 1.36791e-10 1.20463e-10 1.08507e-10 1.01565e-10 1.00733e-10 1.0782e-10 1.25911e-10 1.60532e-10 2.21895e-10
          3.28463e-10 5.07821e-10 7.56998e-10 6.828e-10 3.44096e-15 7.39228e-14 4.87518e-13 1.84315e-12 5.02057e-12 1.1016e-11 2.07408e-11 3.48549e-11
          5.36718e-11 7.7145e-11 1.04919e-10 1.36424e-10 1.70977e-10 2.0788e-10 2.46472e-10 2.8615e-10 3.2633e-10 3.66379e-10 4.05505e-10 4.42656e-10
          4.76446e-10 5.05155e-10 5.26857e-10 5.39685e-10 5.42204e-10 5.33814e-10 5.14079e-10 4.83766e-10 4.45506e-10 4.02487e-10 3.58104e-10 3.15354e-10
          2.76265e-10 2.41751e-10 2.11912e-10 1.86476e-10 1.65159e-10 1.47849e-10 1.34698e-10 1.26154e-10 1.23034e-10 1.26657e-10 1.39133e-10 1.63928e-10
          2.06888e-10 2.7785e-10 3.91943e-10 5.63013e-10 7.43334e-10 4.58165e-10 3.61035e-15 7.35296e-14 4.75053e-13 1.77934e-12 4.82576e-12 1.057e-11
          1.98954e-11 3.34518e-11 5.1559e-11 7.41827e-11 1.00972e-10 1.31337e-10 1.64545e-10 1.99805e-10 2.36334e-10 2.73381e-10 3.10221e-10 3.46121e-10
          3.80278e-10 4.11771e-10 4.39529e-10 4.62351e-10 4.78988e-10 4.88303e-10 4.89478e-10 4.82233e-10 4.66227e-10 4.41899e-10 4.11221e-10 3.76627e-10
          3.40653e-10 3.0554e-10 2.72905e-10 2.43645e-10 2.18103e-10 1.96338e-10 1.78369e-10 1.64325e-10 1.54544e-10 1.49635e-10 1.50574e-10 1.58857e-10
          1.76787e-10 2.07948e-10 2.57917e-10 3.3491e-10 4.4831e-10 5.94943e-10 6.872e-10 2.73479e-10 3.62188e-15 7.06978e-14 4.49678e-13 1.67357e-12
          4.52857e-12 9.91771e-12 1.86875e-11 3.14757e-11 4.86139e-11 7.00943e-11 9.55926e-11 1.24532e-10 1.56168e-10 1.89664e-10 2.24166e-10 2.58839e-10
          2.9288e-10 3.25511e-10 3.55958e-10 3.83424e-10 4.07083e-10 4.26095e-10 4.39659e-10 4.47105e-10 4.48002e-10 4.42275e-10 4.29738e-10 4.10702e-10
          3.86596e-10 3.59214e-10 3.30444e-10 3.01986e-10 2.75159e-10 2.50829e-10 2.29498e-10 2.11458e-10 1.9696e-10 1.86332e-10 1.80066e-10 1.78906e-10
          1.83938e-10 1.96744e-10 2.19625e-10 2.55902e-10 3.10158e-10 3.87703e-10 4.90384e-10 5.97854e-10 5.97951e-10 1.47608e-10 3.47163e-15 6.55887e-14
          4.12643e-13 1.53035e-12 4.14013e-12 9.08055e-12 1.71523e-11 2.89772e-11 4.49028e-11 6.49602e-11 8.88753e-11 1.16116e-10 1.45965e-10 1.77591e-10
          2.10118e-10 2.42679e-10 2.7444e-10 3.04616e-10 3.32469e-10 3.57302e-10 3.78461e-10 3.95347e-10 4.0744e-10 4.14353e-10 4.15885e-10 4.12076e-10
          4.0288e-10 3.88574e-10 3.70196e-10 3.49056e-10 3.26559e-10 3.04017e-10 2.82523e-10 2.62899e-10 2.45735e-10 2.3148e-10 2.20549e-10 2.13413e-10
          2.10679e-10 2.13167e-10 2.21988e-10 2.38662e-10 2.65226e-10 3.04286e-10 3.58709e-10 4.29935e-10 5.1177e-10 5.70312e-10 4.89856e-10 7.2797e-11
          3.17269e-15 5.85479e-14 3.66006e-13 1.35654e-12 3.67678e-12 8.08989e-12 1.53409e-11 2.60301e-11 4.0521e-11 5.88939e-11 8.09434e-11 1.06212e-10
          1.34048e-10 1.63669e-10 1.94227e-10 2.24865e-10 2.54756e-10 2.83128e-10 3.09279e-10 3.32583e-10 3.52495e-10 3.68557e-10 3.80416e-10 3.87842e-10
          3.90753e-10 3.89242e-10 3.8337e-10 3.73416e-10 3.60149e-10 3.44538e-10 3.27638e-10 3.10479e-10 2.93975e-10 2.78889e-10 2.65847e-10 2.55384e-10
          2.48014e-10 2.44292e-10 2.44872e-10 2.50567e-10 2.62398e-10 2.81628e-10 3.09741e-10 3.4821e-10 3.97663e-10 4.55369e-10 5.08265e-10 5.15512e-10
          3.77717e-10 3.29736e-11 2.75428e-15 5.0084e-14 3.12532e-13 1.16105e-12 3.15966e-12 6.98635e-12 1.33203e-11 2.27316e-11 3.55963e-11 5.2047e-11
          7.19606e-11 9.49775e-11 1.20544e-10 1.47964e-10 1.76463e-10 2.05232e-10 2.33484e-10 2.60475e-10 2.85539e-10 3.08094e-10 3.27653e-10 3.43834e-10
          3.56361e-10 3.65075e-10 3.69942e-10 3.7106e-10 3.68556e-10 3.62724e-10 3.5415e-10 3.43565e-10 3.31775e-10 3.19597e-10 3.07799e-10 2.97072e-10
          2.88031e-10 2.81237e-10 2.77235e-10 2.76592e-10 2.79929e-10 2.87952e-10 3.01446e-10 3.21234e-10 3.47999e-10 3.81811e-10 4.20944e-10 4.59055e-10
          4.78902e-10 4.40466e-10 2.73681e-10 1.37256e-11 2.25855e-15 4.08266e-14 2.55516e-13 9.54409e-13 2.61384e-12 5.81866e-12 1.1172e-11 1.92028e-11
          3.02908e-11 4.46173e-11 6.21456e-11 8.26277e-11 1.05631e-10 1.30581e-10 1.56805e-10 1.83585e-10 2.10198e-10 2.35953e-10 2.6022e-10 2.82446e-10
          3.02174e-10 3.19047e-10 3.3281e-10 3.43316e-10 3.50526e-10 3.54506e-10 3.55411e-10 3.53543e-10 3.49357e-10 3.43413e-10 3.36336e-10 3.28777e-10
          3.21374e-10 3.14733e-10 3.09417e-10 3.05956e-10 3.04857e-10 3.06624e-10 3.11761e-10 3.20759e-10 3.3405e-10 3.51876e-10 3.74e-10 3.99094e-10
          4.23465e-10 4.38538e-10 4.26383e-10 3.54461e-10 1.8569e-10 5.23226e-12 1.73524e-15 3.14669e-14 1.98525e-13 7.48106e-13 2.06701e-12 4.64175e-12
          8.99003e-12 1.55873e-11 2.4803e-11 3.68558e-11 5.17892e-11 6.94683e-11 8.9594e-11 1.1173e-10 1.35339e-10 1.59819e-10 1.84543e-10 2.08894e-10
          2.32292e-10 2.54216e-10 2.74224e-10 2.91958e-10 3.07152e-10 3.19634e-10 3.29323e-10 3.36227e-10 3.40488e-10 3.42391e-10 3.42285e-10 3.40601e-10
          3.3782e-10 3.34455e-10 3.31021e-10 3.2802e-10 3.25928e-10 3.25191e-10 3.2622e-10 3.29387e-10 3.35003e-10 3.43274e-10 3.54209e-10 3.67442e-10
          3.81896e-10 3.95167e-10 4.02442e-10 3.94745e-10 3.56766e-10 2.6724e-10 1.1729e-10 1.81299e-12 1.23469e-15 2.26832e-14 1.45082e-13 5.53656e-13
          1.54762e-12 3.51355e-12 6.87683e-12 1.20465e-11 1.93652e-11 2.90698e-11 4.12673e-11 5.59246e-11 7.28725e-11 9.18199e-11 1.12377e-10 1.3408e-10
          1.56427e-10 1.78897e-10 2.00983e-10 2.22212e-10 2.42161e-10 2.60471e-10 2.76853e-10 2.91095e-10 3.03057e-10 3.12674e-10 3.20027e-10 3.25343e-10
          3.28882e-10 3.30956e-10 3.31926e-10 3.32174e-10 3.32092e-10 3.32063e-10 3.32447e-10 3.33565e-10 3.3569e-10 3.39015e-10 3.43623e-10 3.49418e-10
          3.56017e-10 3.62561e-10 3.67414e-10 3.67683e-10 3.58512e-10 3.32277e-10 2.78445e-10 1.8732e-10 6.83657e-11 5.64369e-13 8.00126e-16 1.50584e-14
          9.8286e-14 3.81529e-13 1.08243e-12 2.49065e-12 4.93623e-12 8.75148e-12 1.42341e-11 2.16164e-11 3.10432e-11 4.25595e-11 5.61069e-11 7.15283e-11
          8.85798e-11 1.06947e-10 1.26262e-10 1.46128e-10 1.66136e-10 1.85882e-10 2.04987e-10 2.23109e-10 2.39948e-10 2.55258e-10 2.68847e-10 2.80579e-10
          2.90428e-10 2.98519e-10 3.05013e-10 3.10116e-10 3.14071e-10 3.17135e-10 3.19574e-10 3.2164e-10 3.23562e-10 3.25518e-10 3.27625e-10 3.29896e-10
          3.32204e-10 3.34213e-10 3.35274e-10 3.34284e-10 3.29466e-10 3.1811e-10 2.96291e-10 2.58873e-10 2.0061e-10 1.2075e-10 3.63083e-11 1.5523e-13
          4.60733e-16 8.99977e-15 6.04276e-14 2.39911e-13 6.9357e-13 1.6223e-12 3.26351e-12 5.86716e-12 9.67131e-12 1.48802e-11 2.1647e-11 3.00617e-11
          4.0145e-11 5.18465e-11 6.50486e-11 7.95734e-11 9.51927e-11 1.1164e-10 1.28622e-10 1.45834e-10 1.6297e-10 1.79734e-10 1.95847e-10 2.11062e-10
          2.25158e-10 2.37954e-10 2.49293e-10 2.59147e-10 2.67581e-10 2.74697e-10 2.80621e-10 2.85492e-10 2.89451e-10 2.92625e-10 2.95112e-10 2.9696e-10
          2.98147e-10 2.98551e-10 2.9791e-10 2.95771e-10 2.91423e-10 2.83809e-10 2.71435e-10 2.52306e-10 2.23984e-10 1.84037e-10 1.31492e-10 7.0484e-11
          1.72566e-11 3.68796e-14 2.26973e-16 4.67732e-15 3.26427e-14 1.33497e-13 3.95286e-13 9.4353e-13 1.93229e-12 3.53103e-12 5.91033e-12 9.22824e-12
          1.36187e-11 1.91821e-11 2.59794e-11 3.40281e-11 4.33014e-11 5.37294e-11 6.52027e-11 7.75773e-11 9.06806e-11 1.04318e-10 1.18281e-10 1.32353e-10
          1.46318e-10 1.59963e-10 1.7309e-10 1.85513e-10 1.96953e-10 2.07215e-10 2.16275e-10 2.24138e-10 2.30827e-10 2.36376e-10 2.40818e-10 2.44174e-10
          2.46439e-10 2.47565e-10 2.47449e-10 2.45904e-10 2.42641e-10 2.37238e-10 2.29112e-10 2.17496e-10 2.01441e-10 1.79883e-10 1.51855e-10 1.1702e-10
          7.68059e-11 3.6442e-11 7.15513e-12 7.3397e-15 8.99312e-17 1.99767e-15 1.46997e-14 6.25476e-14 1.91074e-13 4.67955e-13 9.79683e-13 1.82564e-12
          3.11105e-12 4.93995e-12 7.40868e-12 1.06003e-11 1.45802e-11 1.93927e-11 2.50591e-11 3.15764e-11 3.89174e-11 4.70319e-11 5.58479e-11 6.52745e-11
          7.52043e-11 8.5517e-11 9.60829e-11 1.06766e-10 1.17429e-10 1.27934e-10 1.37936e-10 1.47109e-10 1.55366e-10 1.62639e-10 1.68877e-10 1.74034e-10
          1.78069e-10 1.80933e-10 1.8256e-10 1.8286e-10 1.8171e-10 1.78938e-10 1.7432e-10 1.67573e-10 1.5835e-10 1.46266e-10 1.30935e-10 1.12083e-10
          8.97464e-11 6.46496e-11 3.87951e-11 1.61601e-11 2.49521e-12 1.1735e-15 2.56793e-17 6.33958e-16 5.02572e-15 2.25973e-14 7.20397e-14 1.82594e-13
          3.93396e-13 7.51512e-13 1.30931e-12 2.12162e-12 3.24303e-12 4.72532e-12 6.61535e-12 8.95319e-12 1.17707e-11 1.50905e-11 1.8925e-11 2.32764e-11
          2.81363e-11 3.34863e-11 3.92981e-11 4.55346e-11 5.21508e-11 5.90949e-11 6.63101e-11 7.37354e-11 8.10508e-11 8.78985e-11 9.41668e-11 9.97566e-11
          1.04579e-10 1.08555e-10 1.11606e-10 1.13658e-10 1.14631e-10 1.14439e-10 1.12986e-10 1.10162e-10 1.05849e-10 9.99217e-11 9.22623e-11 8.2787e-11
          7.14908e-11 5.85241e-11 4.43106e-11 2.97109e-11 1.61957e-11 5.85654e-12 6.93496e-13 1.42161e-16 4.22888e-18 1.217e-16 1.07815e-15 5.2664e-15
          1.7895e-14 4.77187e-14 1.07187e-13 2.12129e-13 3.81158e-13 6.34968e-13 9.95598e-13 1.48576e-12 2.12819e-12 2.94515e-12 3.95793e-12 5.1865e-12
          6.6492e-12 8.36252e-12 1.0341e-11 1.2597e-11 1.5141e-11 1.79815e-11 2.11252e-11 2.45775e-11 2.83426e-11 3.2424e-11 3.66106e-11 4.06266e-11