<?xml version="1.0"?>
<VTKFile type="UnstructuredGrid" version="0.1" byte_order="LittleEndian">
  <UnstructuredGrid>
    <Piece NumberOfCells="5000" NumberOfPoints="5151">
      <CellData Scalars="p" Vectors="velocity">
        <DataArray type="Float32" Name="p" NumberOfComponents="1" format="ascii">
          559852 482350 442074 417375 402661 393412 386542 380548 374881 369391 364052 358863
          353825 348935 344186 339572 335084 330714 326454 322298 318238 314269 310384 306577
          302846 299184 295588 292054 288578 285159 281792 278476 275207 271984 268805 265667
          262568 259508 256485 253496 250542 247619 244728 241867 239036 236232 233455 230705
          227979 225279 222602 219948 217317 214707 212119 209551 207003 204474 201964 199472
          196998 194542 192103 189680 187274 184883 182507 180147 177801 175470 173152 170849
          168559 166282 164018 161766 159527 157300 155085 152881 150689 148508 146338 144178
          142029 139891 137763 135644 133536 131437 129347 127267 125195 123132 121077 119030
          116989 114953 112918 110878 545228 482136 443083 418456 403504 393995 386938 380826
          375087 369552 364183 358972 353919 349016 344258 339635 335140 330765 326501 322341
          318278 314305 310417 306609 302875 299211 295614 292078 288602 285181 281813 278496
          275226 272002 268822 265683 262584 259523 256499 253510 250555 247632 244741 241879
          239047 236243 233466 230715 227989 225289 222612 219958 217326 214716 212127 209559
          207010 204481 201971 199479 197006 194549 192110 189687 187280 184889 182513 180153
          177807 175475 173158 170854 168564 166287 164023 161771 159532 157305 155089 152886
          150693 148512 146342 144182 142034 139895 137767 135648 133540 131441 129351 127271
          125199 123136 121081 119033 116992 114956 112922 110877 531884 480751 444174 419971
          404740 394833 387478 381183 375339 369740 364330 359092 354018 349101 344331 339700
          335198 330816 326547 322383 318316 314341 310450 306640 302904 299238 295639 292102
          288624 285202 281833 278514 275244 272019 268838 265698 262599 259537 256512 253523
          250567 247644 244752 241890 239058 236253 233476 230724 227999 225298 222620 219966
          217334 214724 212135 209566 207018 204488 201978 199486 197012 194555 192116 189693
          187286 184895 182519 180158 177812 175481 173163 170859 168569 166292 164027 161776
          159536 157309 155094 152890 150697 148516 146346 144186 142037 139899 137770 135652
          133543 131444 129354 127274 125202 123139 121084 119036 116995 114959 112925 110869
          520564 478771 445113 421655 406260 395938 388221 381683 375687 369994 364524 359245
          354142 349204 344418 339775 335263 330874 326599 322430 318358 314379 310485 306672
          302934 299266 295664 292126 288646 285223 281853 278533 275262 272036 268854 265714
          262613 259551 256526 253536 250579 247656 244763 241901 239068 236263 233485 230734
          228008 225306 222629 219974 217342 214731 212142 209573 207025 204495 201985 199492
          197018 194561 192122 189698 187291 184900 182524 180163 177817 175486 173168 170864
          168573 166296 164032 161780 159540 157313 155098 152894 150701 148520 146350 144190
          142041 139902 137774 135655 133547 131447 129358 127277 125205 123142 121087 119040
          116998 114962 112926 110854 510879 476448 445770 423264 407856 397182 389106 382303
          376130 370322 364774 359442 354301 349334 344528 339868 335344 330944 326661 322485
          318408 314424 310526 306709 302968 299297 295694 292153 288672 285247 281875 278554
          275281 272054 268871 265730 262629 259566 256540 253549 250592 247668 244775 241912
          239079 236273 233495 230743 228017 225315 222637 219982 217350 214739 212150 209581
          207032 204502 201991 199499 197024 194567 192127 189704 187297 184905 182529 180168
          177822 175490 173173 170869 168578 166300 164036 161784 159544 157317 155101 152897
          150705 148524 146353 144193 142044 139906 137777 135659 133550 131451 129361 127280
          125208 123145 121090 119043 117002 114966 112926 110836 502531 473940 446118 424674
          409386 398450 390054 382992 376637 370704 365070 359676 354491 349491 344659 339980
          335440 331029 326736 322551 318467 314477 310575 306753 303008 299334 295728 292184
          288701 285274 281900 278578 275304 272075 268891 265749 262647 259583 256556 253564
          250607 247682 244788 241925 239091 236285 233506 230754 228027 225325 222646 219991
          217358 214747 212158 209588 207039 204509 201998 199506 197031 194574 192134 189710
          187303 184911 182535 180174 177827 175495 173177 170873 168583 166305 164040 161788
          159549 157321 155105 152901 150709 148527 146357 144197 142048 139909 137780 135662
          133553 131454 129364 127283 125212 123149 121094 119047 117006 114970 112926 110820
          495300 471362 446188 425849 410780 399669 391003 383705 377173 371115 365392 359935
          354702 349667 344808 340108 335551 331126 326821 322627 318536 314539 310631 306804
          303055 299377 295767 292221 288735 285305 281930 278605 275329 272100 268914 265770
          262667 259602 256574 253581 250623 247697 244803 241939 239104 236298 233518 230766
          228038 225335 222657 220001 217368 214757 212166 209597 207047 204517 202006 199513
          197038 194581 192140 189716 187309 184917 182541 180179 177833 175501 173183 170878
          168588 166310 164045 161793 159553 157325 155110 152905 150713 148531 146361 144201
          142052 139913 137784 135665 133556 131457 129367 127287 125215 123152 121098 119051
          117011 114975 112928 110810 489011 468800 446031 426794 412015 400802 391916 384408
          377713 371534 365724 360204 354924 349853 344966 340244 335670 331231 326914 322711
          318611 314607 310693 306861 303107 299425 295812 292262 288773 285341 281963 278636
          275358 272127 268939 265794 262690 259623 256594 253601 250641 247714 244819 241955
          239119 236312 233532 230779 228051 225348 222668 220012 217379 214767 212176 209606
          207056 204526 202014 199521 197046 194588 192148 189724 187316 184924 182547 180186
          177839 175507 173188 170884 168593 166315 164050 161798 159558 157330 155114 152910
          150717 148535 146365 144205 142055 139916 137788 135669 133560 131461 129371 127290
          125219 123156 121102 119056 117017 114982 112932 110808 483522 466312 445700 427534
          413091 401835 392775 385084 378238 371947 366054 360472 355146 350040 345127 340383
          335792 331339 327011 322798 318690 314679 310758 306921 303162 299476 295859 292306
          288814 285379 281999 278670 275390 272157 268968 265821 262715 259647 256617 253622
          250661 247734 244838 241972 239136 236328 233547 230793 228065 225361 222681 220025
          217390 214778 212187 209617 207067 204536 202024 199530 197055 194597 192156 189732
          187323 184931 182554 180193 177846 175513 173195 170890 168599 166321 164056 161803
          159563 157335 155119 152915 150722 148540 146369 144209 142060 139921 137792 135673
          133564 131465 129375 127294 125223 123161 121107 119062 117024 114990 112941 110818
          478718 463938 445244 428098 414019 402767 393571 385722 378740 372344 366373 360732
          355363 350224 345284 340520 335913 331447 327108 322885 318769 314752 310825 306983
          303219 299529 295908 292352 288857 285419 282037 278705 275423 272188 268997 265849
          262741 259672 256641 253645 250683 247754 244857 241991 239154 236345 233564 230809
          228080 225375 222695 220038 217403 214791 212199 209628 207078 204546 202034 199540
          197064 194606 192165 189740 187332 184939 182562 180200 177853 175520 173202 170897
          168605 166327 164062 161809 159569 157341 155125 152920 150727 148545 146374 144214
          142064 139925 137796 135677 133568 131469 129379 127299 125227 123165 121113 119069
          117033 115000 112954 110840 474506 461702 444701 428516 414814 403602 394302 386317
          379214 372721 366677 360981 355570 350400 345436 340652 336030 331551 327201 322970
          318847 314823 310890 307043 303275 299582 295957 292398 288900 285460 282075 278741
          275457 272220 269028 265878 262769 259698 256665 253668 250706 247776 244878 242010
          239173 236363 233581 230826 228096 225391 222710 220052 217417 214804 212212 209640
          207089 204558 202045 199551 197075 194616 192174 189749 187341 184948 182571 180208
          177861 175528 173209 170904 168612 166334 164069 161816 159575 157347 155131 152926
          150733 148551 146380 144219 142070 139930 137801 135682 133573 131474 129384 127303
          125232 123171 121119 119076 117042 115013 112972 110876 470807 459619 444106 428813
          415491 404345 394970 386870 379658 373076 366963 361216 355766 350566 345579 340778
          336141 331650 327291 323051 318921 314891 310954 307102 303330 299632 296005 292442
          288942 285499 282112 278776 275491 272252 269058 265906 262796 259724 256690 253692
          250728 247797 244899 242030 239192 236381 233599 230842 228112 225406 222725 220066
          217431 214817 212225 209653 207101 204569 202056 199562 197085 194626 192184 189759
          187350 184957 182579 180217 177869 175536 173217 170912 168620 166341 164076 161823
          159582 157354 155137 152932 150739 148556 146385 144225 142075 139936 137806 135687
          133578 131478 129389 127308 125238 123177 121125 119084 117053 115027 112995 110923
          467558 457696 443484 429013 416064 405004 395576 387379 380070 373407 367231 361436
          355950 350721 345713 340895 336244 331743 327374 323128 318991 314955 311013 307157
          303381 299681 296050 292485 288982 285537 282148 278810 275523 272282 269087 265934
          262822 259750 256714 253715 250750 247819 244919 242050 239210 236399 233616 230859
          228128 225422 222740 220081 217445 214831 212238 209666 207114 204581 202068 199573
          197096 194637 192194 189769 187360 184966 182588 180226 177878 175544 173225 170919
          168627 166349 164083 161830 159589 157360 155143 152938 150745 148562 146391 144230
          142080 139941 137812 135692 133583 131484 129394 127314 125243 123183 121132 119093
          117064 115044 113022 110980 464706 455937 442858 429136 416547 405585 396123 387844
          380450 373714 367479 361640 356120 350866 345837 341003 336340 331829 327452 323198
          319056 315015 311068 307209 303430 299726 296092 292525 289020 285573 282181 278842
          275553 272311 269114 265960 262848 259774 256738 253737 250772 247839 244939 242069
          239229 236417 233633 230875 228144 225437 222754 220095 217458 214844 212251 209678
          207126 204593 202079 199584 197107 194647 192204 189779 187369 184975 182597 180234
          177886 175552 173233 170927 168635 166356 164090 161837 159596 157367 155150 152945
          150751 148568 146397 144236 142086 139946 137817 135698 133588 131489 129399 127319
          125249 123189 121139 119102 117076 115061 113053 111043 462208 454341 442244 429199
          416952 406096 396614 388267 380798 373995 367708 361827 356276 350998 345951 341103
          336429 331908 327524 323263 319115 315070 311119 307256 303474 299767 296131 292562
          289054 285606 282213 278872 275582 272338 269140 265985 262871 259796 256759 253758
          250792 247858 244957 242087 239246 236433 233649 230891 228159 225451 222768 220109
          217472 214857 212263 209690 207137 204604 202090 199594 197117 194657 192214 189788
          187378 184984 182606 180243 177894 175560 173241 170935 168642 166363 164097 161843
          159602 157373 155156 152951 150757 148574 146403 144242 142092 139952 137822 135703
          133594 131494 129404 127324 125254 123195 121147 119111 117088 115080 113086 111110
          460027 452906 441657 429217 417289 406541 397051 388648 381113 374252 367917 361999
          356419 351119 346055 341194 336509 331979 327588 323322 319170 315120 311166 307299
          303514 299805 296167 292595 289086 285636 282241 278899 275608 272363 269164 266008
          262893 259817 256779 253777 250810 247876 244974 242103 239262 236449 233664 230905
          228172 225465 222781 220121 217484 214868 212274 209701 207148 204615 202100 199604
          197126 194666 192223 189797 187387 184993 182614 180251 177902 175568 173248 170942
          168650 166370 164104 161850 159609 157380 155162 152957 150763 148580 146408 144247
          142097 139957 137828 135708 133599 131499 129409 127330 125260 123201 121154 119119
          117100 115099 113120 111178 458135 451629 441106 429203 417567 406926 397437 388989
          381397 374483 368105 362154 356548 351228 346149 341276 336581 332044 327647 323376
          319218 315165 311208 307338 303551 299839 296199 292626 289115 285663 282267 278924
          275631 272385 269185 266028 262912 259836 256797 253795 250827 247892 244990 242118
          239276 236463 233677 230918 228185 225477 222793 220133 217495 214879 212285 209711
          207158 204624 202110 199613 197135 194675 192232 189805 187395 185001 182622 180258
          177910 175575 173255 170949 168656 166377 164110 161856 159615 157386 155168 152963
          150769 148586 146414 144253 142102 139962 137833 135713 133603 131504 129414 127334
          125265 123207 121160 119128 117112 115118 113153 111245 456505 450506 440601 429167
          417795 407257 397774 389289 381649 374690 368273 362292 356663 351325 346233 341349
          336646 332102 327699 323423 319262 315205 311245 307373 303583 299870 296228 292653
          289140 285687 282290 278946 275652 272405 269204 266046 262930 259853 256813 253810
          250842 247907 245004 242132 239289 236475 233689 230930 228197 225488 222804 220143
          217505 214889 212295 209721 207167 204633 202118 199622 197144 194683 192239 189813
          187402 185008 182629 180265 177916 175582 173262 170955 168662 166383 164116 161862
          159620 157391 155174 152968 150774 148591 146419 144258 142107 139967 137837 135718
          133608 131508 129419 127339 125270 123212 121167 119136 117124 115136 113186 111307
          455118 449534 440148 429118 417980 407537 398064 389550 381869 374870 368421 362413
          356764 351411 346306 341412 336702 332152 327744 323464 319300 315240 311277 307403
          303611 299896 296253 292676 289163 285708 282310 278965 275670 272423 269221 266062
          262945 259867 256828 253824 250855 247919 245016 242143 239301 236486 233700 230940
          228207 225498 222813 220152 217514 214898 212303 209729 207175 204641 202126 199629
          197151 194690 192246 189819 187409 185014 182635 180271 177922 175588 173267 170961
          168668 166388 164121 161867 159625 157396 155178 152973 150778 148595 146423 144262
          142111 139971 137841 135722 133612 131512 129423 127343 125274 123217 121172 119143
          117134 115152 113215 111363 453958 448709 439751 429064 418128 407770 398309 389772
          382057 375025 368548 362517 356851 351484 346369 341467 336750 332195 327783 323500
          319332 315270 311305 307429 303635 299919 296274 292696 289182 285727 282327 278981
          275686 272438 269235 266076 262958 259880 256840 253836 250866 247930 245026 242153
          239310 236496 233709 230949 228215 225506 222822 220160 217522 214905 212310 209736
          207182 204648 202132 199636 197157 194696 192252 189825 187415 185020 182641 180277
          177927 175593 173272 170966 168672 166393 164126 161872 159630 157400 155183 152977
          150782 148599 146427 144266 142115 139975 137845 135725 133616 131516 129426 127347
          125278 123221 121178 119150 117143 115168 113242 111412 453010 448027 439416 429011
          418244 407959 398511 389957 382214 375155 368653 362604 356923 351545 346421 341513
          336791 332231 327816 323529 319359 315295 311328 307450 303656 299938 296292 292713
          289198 285742 282342 278995 275699 272450 269247 266088 262969 259891 256850 253845
          250876 247939 245035 242162 239319 236504 233717 230957 228223 225513 222828 220167
          217528 214912 212316 209742 207188 204653 202138 199641 197162 194701 192257 189830
          187419 185025 182645 180281 177932 175597 173276 170970 168676 166397 164130 161875
          159634 157404 155186 152980 150786 148603 146430 144269 142118 139978 137848 135728
          133619 131519 129429 127350 125282 123225 121182 119155 117151 115181 113265 111454
          452263 447485 439146 428963 418333 408108 398671 390104 382340 375259 368738 362674
          356981 351595 346464 341550 336823 332260 327842 323553 319381 315315 311347 307468
          303672 299953 296306 292727 289210 285754 282353 279006 275709 272460 269257 266097
          262978 259899 256858 253853 250883 247947 245042 242169 239325 236510 233723 230963
          228228 225519 222834 220172 217533 214917 212321 209747 207192 204658 202142 199645
          197167 194705 192261 189834 187423 185028 182649 180285 177935 175600 173280 170973
          168680 166400 164133 161878 159637 157407 155189 152983 150789 148605 146433 144272
          142121 139981 137851 135731 133621 131521 129432 127353 125284 123228 121186 119160
          117158 115191 113284 111487 451711 447081 438941 428924 418397 408218 398790 390214
          382434 375337 368802 362727 357025 351632 346495 341577 336848 332282 327861 323571
          319397 315330 311361 307481 303684 299964 296317 292737 289220 285763 282362 279014
          275717 272468 269264 266104 262985 259906 256864 253859 250889 247952 245048 242174
          239330 236515 233728 230967 228233 225523 222838 220176 217537 214920 212325 209750
          207196 204661 202146 199649 197170 194708 192264 189837 187426 185031 182652 180287
          177938 175603 173282 170976 168682 166402 164135 161881 159639 157409 155191 152985
          150791 148607 146435 144274 142123 139982 137852 135733 133623 131523 129434 127355
          125286 123230 121188 119164 117163 115199 113299 111512 451346 446814 438805 428898
          418439 408291 398870 390288 382497 375389 368845 362762 357055 351656 346517 341596
          336864 332296 327875 323583 319408 315340 311370 307490 303692 299972 296324 292744
          289227 285769 282368 279020 275722 272473 269269 266108 262989 259910 256868 253863
          250893 247956 245051 242177 239334 236518 233731 230970 228236 225526 222841 220179
          217540 214923 212328 209753 207198 204664 202148 199651 197172 194711 192266 189839
          187428 185033 182654 180289 177940 175605 173284 170977 168684 166404 164137 161882
          159640 157411 155193 152987 150792 148609 146436 144275 142124 139984 137854 135734
          133624 131525 129435 127356 125288 123232 121190 119166 117167 115205 113308 111528
          451164 446681 438737 428885 418460 408328 398910 390325 382529 375415 368867 362780
          357070 351669 346527 341605 336872 332304 327881 323589 319414 315346 311375 307494
          303696 299976 296328 292747 289230 285772 282371 279023 275725 272475 269271 266111
          262992 259912 256870 253865 250895 247958 245053 242179 239335 236520 233733 230972
          228237 225528 222842 220180 217541 214924 212329 209754 207200 204665 202149 199652
          197173 194712 192268 189840 187429 185034 182655 180290 177941 175606 173285 170978
          168685 166405 164138 161883 159641 157411 155194 152987 150793 148609 146437 144276
          142125 139984 137854 135735 133625 131525 129436 127357 125289 123233 121191 119167
          117168 115208 113313 111537 451164 446681 438737 428885 418460 408328 398910 390325
          382529 375415 368867 362780 357070 351669 346527 341605 336872 332304 327881 323589
          319414 315346 311375 307494 303696 299976 296328 292747 289230 285772 282371 279023
          275725 272475 269271 266111 262992 259912 256870 253865 250895 247958 245053 242179
          239335 236520 233733 230972 228237 225528 222842 220180 217541 214924 212329 209754
          207200 204665 202149 199652 197173 194712 192268 189840 187429 185034 182655 180290
          177941 175606 173285 170978 168685 166405 164138 161883 159641 157411 155194 152987
          150793 148609 146437 144276 142125 139984 137854 135735 133625 131525 129436 127357
          125289 123233 121191 119167 117168 115208 113313 111537 451346 446814 438805 428898
          418439 408291 398870 390288 382497 375389 368845 362762 357055 351656 346517 341596
          336864 332296 327875 323583 319408 315340 311370 307490 303692 299972 296324 292744
          289227 285769 282368 279020 275722 272473 269269 266108 262989 259910 256868 253863
          250893 247956 245051 242177 239334 236518 233731 230970 228236 225526 222841 220179
          217540 214923 212328 209753 207198 204664 202148 199651 197172 194711 192266 189839
          187428 185033 182654 180289 177940 175605 173284 170977 168684 166404 164137 161882
          159640 157411 155193 152987 150792 148609 146436 144275 142124 139984 137854 135734
          133624 131525 129435 127356 125288 123232 121190 119166 117167 115205 113308 111528
          451711 447081 438941 428924 418397 408218 398790 390214 382434 375337 368802 362727
          357025 351632 346495 341577 336848 332282 327861 323571 319397 315330 311361 307481
          303684 299964 296317 292737 289220 285763 282362 279014 275717 272468 269264 266104
          262985 259906 256864 253859 250889 247952 245048 242174 239330 236515 233728 230967
          228233 225523 222838 220176 217537 214920 212325 209750 207196 204661 202146 199649
          197170 194708 192264 189837 187426 185031 182652 180287 177938 175603 173282 170976
          168682 166402 164135 161881 159639 157409 155191 152985 150791 148607 146435 144274
          142123 139982 137852 135733 133623 131523 129434 127355 125286 123230 121188 119164
          117163 115199 113299 111512 452263 447485 439146 428963 418333 408108 398671 390104
          382340 375259 368738 362674 356981 351595 346464 341550 336823 332260 327842 323553
          319381 315315 311347 307468 303672 299953 296306 292727 289210 285754 282353 279006
          275709 272460 269257 266097 262978 259899 256858 253853 250883 247947 245042 242169
          239325 236510 233723 230963 228228 225519 222834 220172 217533 214917 212321 209747
          207192 204658 202142 199645 197167 194705 192261 189834 187423 185028 182649 180285
          177935 175600 173280 170973 168680 166400 164133 161878 159637 157407 155189 152983
          150789 148605 146433 144272 142121 139981 137851 135731 133621 131521 129432 127353
          125284 123228 121186 119160 117158 115191 113284 111487 453010 448027 439416 429011
          418244 407959 398511 389957 382214 375155 368653 362604 356923 351545 346421 341513
          336791 332231 327816 323529 319359 315295 311328 307450 303656 299938 296292 292713
          289198 285742 282342 278995 275699 272450 269247 266088 262969 259891 256850 253845
          250876 247939 245035 242162 239319 236504 233717 230957 228223 225513 222828 220167
          217528 214912 212316 209742 207188 204653 202138 199641 197162 194701 192257 189830
          187419 185025 182645 180281 177932 175597 173276 170970 168676 166397 164130 161875
          159634 157404 155186 152980 150786 148603 146430 144269 142118 139978 137848 135728
          133619 131519 129429 127350 125282 123225 121182 119155 117151 115181 113265 111454
          453958 448709 439751 429064 418128 407770 398309 389772 382057 375025 368548 362517
          356851 351484 346369 341467 336750 332195 327783 323500 319332 315270 311305 307429
          303635 299919 296274 292696 289182 285727 282327 278981 275686 272438 269235 266076
          262958 259880 256840 253836 250866 247930 245026 242153 239310 236496 233709 230949
          228215 225506 222822 220160 217522 214905 212310 209736 207182 204648 202132 199636
          197157 194696 192252 189825 187415 185020 182641 180277 177927 175593 173272 170966
          168672 166393 164126 161872 159630 157400 155183 152977 150782 148599 146427 144266
          142115 139975 137845 135725 133616 131516 129426 127347 125278 123221 121178 119150
          117143 115168 113242 111412 455118 449534 440148 429118 417980 407537 398064 389550
          381869 374870 368421 362413 356764 351411 346306 341412 336702 332152 327744 323464
          319300 315240 311277 307403 303611 299896 296253 292676 289163 285708 282310 278965
          275670 272423 269221 266062 262945 259867 256828 253824 250855 247919 245016 242143
          239301 236486 233700 230940 228207 225498 222813 220152 217514 214898 212303 209729
          207175 204641 202126 199629 197151 194690 192246 189819 187409 185014 182635 180271
          177922 175588 173267 170961 168668 166388 164121 161867 159625 157396 155178 152973
          150778 148595 146423 144262 142111 139971 137841 135722 133612 131512 129423 127343
          125274 123217 121172 119143 117134 115152 113215 111363 456505 450506 440601 429167
          417795 407257 397774 389289 381649 374690 368273 362292 356663 351325 346233 341349
          336646 332102 327699 323423 319262 315205 311245 307373 303583 299870 296228 292653
          289140 285687 282290 278946 275652 272405 269204 266046 262930 259853 256813 253810
          250842 247907 245004 242132 239289 236475 233689 230930 228197 225488 222804 220143
          217505 214889 212295 209721 207167 204633 202118 199622 197144 194683 192239 189813
          187402 185008 182629 180265 177916 175582 173262 170955 168662 166383 164116 161862
          159620 157391 155174 152968 150774 148591 146419 144258 142107 139967 137837 135718
          133608 131508 129419 127339 125270 123212 121167 119136 117124 115136 113186 111307
          458135 451629 441106 429203 417567 406926 397437 388989 381397 374483 368105 362154
          356548 351228 346149 341276 336581 332044 327647 323376 319218 315165 311208 307338
          303551 299839 296199 292626 289115 285663 282267 278924 275631 272385 269185 266028
          262912 259836 256797 253795 250827 247892 244990 242118 239276 236463 233677 230918
          228185 225477 222793 220133 217495 214879 212285 209711 207158 204624 202110 199613
          197135 194675 192232 189805 187395 185001 182622 180258 177910 175575 173255 170949
          168656 166377 164110 161856 159615 157386 155168 152963 150769 148586 146414 144253
          142102 139962 137833 135713 133603 131504 129414 127334 125265 123207 121160 119128
          117112 115118 113153 111245 460027 452906 441657 429217 417289 406541 397051 388648
          381113 374252 367917 361999 356419 351119 346055 341194 336509 331979 327588 323322
          319170 315120 311166 307299 303514 299805 296167 292595 289086 285636 282241 278899
          275608 272363 269164 266008 262893 259817 256779 253777 250810 247876 244974 242103
          239262 236449 233664 230905 228172 225465 222781 220121 217484 214868 212274 209701
          207148 204615 202100 199604 197126 194666 192223 189797 187387 184993 182614 180251
          177902 175568 173248 170942 168650 166370 164104 161850 159609 157380 155162 152957
          150763 148580 146408 144247 142097 139957 137828 135708 133599 131499 129409 127330
          125260 123201 121154 119119 117100 115099 113120 111178 462208 454341 442244 429199
          416952 406096 396614 388267 380798 373995 367708 361827 356276 350998 345951 341103
          336429 331908 327524 323263 319115 315070 311119 307256 303474 299767 296131 292562
          289054 285606 282213 278872 275582 272338 269140 265985 262871 259796 256759 253758
          250792 247858 244957 242087 239246 236433 233649 230891 228159 225451 222768 220109
          217472 214857 212263 209690 207137 204604 202090 199594 197117 194657 192214 189788
          187378 184984 182606 180243 177894 175560 173241 170935 168642 166363 164097 161843
          159602 157373 155156 152951 150757 148574 146403 144242 142092 139952 137822 135703
          133594 131494 129404 127324 125254 123195 121147 119111 117088 115080 113086 111110
          464706 455937 442858 429136 416547 405585 396123 387844 380450 373714 367479 361640
          356120 350866 345837 341003 336340 331829 327452 323198 319056 315015 311068 307209
          303430 299726 296092 292525 289020 285573 282181 278842 275553 272311 269114 265960
          262848 259774 256738 253737 250772 247839 244939 242069 239229 236417 233633 230875
          228144 225437 222754 220095 217458 214844 212251 209678 207126 204593 202079 199584
          197107 194647 192204 189779 187369 184975 182597 180234 177886 175552 173233 170927
          168635 166356 164090 161837 159596 157367 155150 152945 150751 148568 146397 144236
          142086 139946 137817 135698 133588 131489 129399 127319 125249 123189 121139 119102
          117076 115061 113053 111043 467558 457696 443484 429013 416064 405004 395576 387379
          380070 373407 367231 361436 355950 350721 345713 340895 336244 331743 327374 323128
          318991 314955 311013 307157 303381 299681 296050 292485 288982 285537 282148 278810
          275523 272282 269087 265934 262822 259750 256714 253715 250750 247819 244919 242050
          239210 236399 233616 230859 228128 225422 222740 220081 217445 214831 212238 209666
          207114 204581 202068 199573 197096 194637 192194 189769 187360 184966 182588 180226
          177878 175544 173225 170919 168627 166349 164083 161830 159589 157360 155143 152938