<?xml version="1.0"?>
<VTKFile type="UnstructuredGrid" version="0.1" byte_order="LittleEndian">
  <UnstructuredGrid>
    <Piece NumberOfCells="120" NumberOfPoints="242">
      <PointData Scalars="Sw">
        <DataArray type="Float32" Name="Sw" NumberOfComponents="1" format="ascii">
          0.005 0.005 0.005 0.005 0.005 0.005 0.005 0.005 0.005 0.005 0.005 0.005
          0.005 0.005 0.005 0.005 0.005 0.005 0.005 0.005 0.005 0.005 0.005 0.005
          0.005 0.005 0.005 0.005 0.005 0.005 0.005 0.005 0.005 0.005 0.005 0.005
          0.005 0.005 0.005 0.005 0.005 0.005 0.005 0.005 0.005 0.005 0.005 0.005
          0.005 0.005 0.005 0.005 0.005 0.005 0.005 0.005 0.005 0.005 0.005 0.005
          0.005 0.005 0.005 0.005 0.005 0.005 0.005 0.005 0.005 0.005 0.005 0.005
          0.005 0.005 0.005 0.005 0.005 0.005 0.005 0.005 0.005 0.005 0.005 0.005
          0.005 0.005 0.005 0.005 0.005 0.005 0.005 0.005 0.005 0.005 0.005 0.005
          0.005 0.005 0.005 0.005 0.005 0.005 0.005 0.005 0.005 0.005 0.005 0.005
          0.005 0.005 0.005 0.005 0.005 0.005 0.005 0.005 0.005 0.005 0.005 0.005
          0.005 0.005 0.005 0.005 0.005 0.005 0.005 0.005 0.005 0.005 0.005 0.005
          0.005 0.005 0.005 0.005 0.005 0.005 0.005 0.005 0.005 0.005 0.005 0.005
          0.005 0.005 0.005 0.005 0.005 0.005 0.005 0.005 0.005 0.005 0.005 0.005
          0.005 0.005 0.005 0.005 0.005 0.005 0.005 0.005 0.005 0.005 0.005 0.005
          0.005 0.005 0.005 0.005 0.005 0.005 0.005 0.005 0.005 0.005 0.00499998 0.00499998
          0.00499998 0.00499998 0.00499999 0.00499999 0.00499999 0.00499999 0.00499999 0.00499999 0.005 0.005 0.005 0.005
          0.005 0.005 0.005 0.005 0.005 0.005 0.00500001 0.00500001 0.00500001 0.00500001 0.00500001 0.00500001
          0.00500001 0.00500001 0.00500001 0.00500001 0.00500001 0.00500001 0.00500001 0.00500001 0.00500001 0.00500001 0.00500001 0.00500001
          0.00500001 0.00500001 0.00500001 0.00500001 0.00500001 0.00500001 0.00500001 0.00500001 0.00500001 0.00500001 0.00500003 0.00500003
          0.00500035 0.00500035 0.00500456 0.00500456 0.00513679 0.00513679 0.0473803 0.0473803 0.0831348 0.0831348 0.15479 0.15479
          0.171898 0.171898
        </DataArray>
        <DataArray type="Float32" Name="Sn" NumberOfComponents="1" format="ascii">
          0.0001 0.0001 0.0001 0.0001 0.0001 0.0001 0.0001 0.0001 9.99999e-05 9.99999e-05 9.99999e-05 9.99999e-05
          9.99998e-05 9.99998e-05 9.99998e-05 9.99998e-05 9.99997e-05 9.99997e-05 9.99996e-05 9.99996e-05 9.99996e-05 9.99996e-05 9.99995e-05 9.99995e-05
          9.99995e-05 9.99995e-05 9.99994e-05 9.99994e-05 9.99993e-05 9.99993e-05 9.99993e-05 9.99993e-05 9.99992e-05 9.99992e-05 9.99992e-05 9.99992e-05
          9.99991e-05 9.99991e-05 9.9999e-05 9.9999e-05 9.9999e-05 9.9999e-05 9.99989e-05 9.99989e-05 9.99989e-05 9.99989e-05 9.99988e-05 9.99988e-05
          9.99987e-05 9.99987e-05 9.99987e-05 9.99987e-05 9.99986e-05 9.99986e-05 9.99986e-05 9.99986e-05 9.99985e-05 9.99985e-05 9.99984e-05 9.99984e-05
          9.99984e-05 9.99984e-05 9.99983e-05 9.99983e-05 9.99983e-05 9.99983e-05 9.99982e-05 9.99982e-05 9.99982e-05 9.99982e-05 9.99981e-05 9.99981e-05
          9.9998e-05 9.9998e-05 9.9998e-05 9.9998e-05 9.99979e-05 9.99979e-05 9.99979e-05 9.99979e-05 9.99978e-05 9.99978e-05 9.99977e-05 9.99977e-05
          9.99977e-05 9.99977e-05 9.99976e-05 9.99976e-05 9.99976e-05 9.99976e-05 9.99975e-05 9.99975e-05 9.99974e-05 9.99974e-05 9.99974e-05 9.99974e-05
          9.99973e-05 9.99973e-05 9.99973e-05 9.99973e-05 9.99972e-05 9.99972e-05 9.99971e-05 9.99971e-05 9.99971e-05 9.99971e-05 9.9997e-05 9.9997e-05
          9.9997e-05 9.9997e-05 9.99969e-05 9.99969e-05 9.99968e-05 9.99968e-05 9.99968e-05 9.99968e-05 9.99967e-05 9.99967e-05 9.99967e-05 9.99967e-05
          9.99966e-05 9.99966e-05 9.99965e-05 9.99965e-05 9.99965e-05 9.99965e-05 9.99964e-05 9.99964e-05 9.99964e-05 9.99964e-05 9.99963e-05 9.99963e-05
          9.99963e-05 9.99963e-05 9.99962e-05 9.99962e-05 9.99961e-05 9.99961e-05 9.99961e-05 9.99961e-05 9.9996e-05 9.9996e-05 9.9996e-05 9.9996e-05
          9.99959e-05 9.99959e-05 9.99958e-05 9.99958e-05 9.99958e-05 9.99958e-05 9.99957e-05 9.99957e-05 9.99957e-05 9.99957e-05 9.99956e-05 9.99956e-05
          9.99955e-05 9.99955e-05 9.99955e-05 9.99955e-05 9.99954e-05 9.99954e-05 9.99954e-05 9.99954e-05 9.99953e-05 9.99953e-05 9.99952e-05 9.99952e-05
          9.99952e-05 9.99952e-05 9.99951e-05 9.99951e-05 9.99951e-05 9.99951e-05 9.9995e-05 9.9995e-05 9.99949e-05 9.99949e-05 9.99531e-05 9.99531e-05
          0.915038 0.915038 0.890308 0.890308 0.863013 0.863013 0.833154 0.833154 0.800828 0.800828 0.766193 0.766193
          0.729443 0.729443 0.690779 0.690779 0.650383 0.650383 0.608384 0.608384 0.564836 0.564836 0.519725 0.519725
          0.473018 0.473018 0.424774 0.424774 0.375401 0.375401 0.3261 0.3261 0.279553 0.279553 0.240298 0.240298
          0.212323 0.212323 0.193721 0.193721 0.179621 0.179621 0.167565 0.167565 0.156847 0.156847 0.147057 0.147057
          0.138112 0.138112 0.131978 0.131978 0.175293 0.175293 0.212127 0.212127 0.121535 0.121535 0 0
          0 0
        </DataArray>
        <DataArray type="Float32" Name="Sg" NumberOfComponents="1" format="ascii">
          0.9949 0.9949 0.9949 0.9949 0.9949 0.9949 0.9949 0.9949 0.9949 0.9949 0.9949 0.9949
          0.9949 0.9949 0.9949 0.9949 0.9949 0.9949 0.9949 0.9949 0.9949 0.9949 0.9949 0.9949
          0.9949 0.9949 0.9949 0.9949 0.9949 0.9949 0.9949 0.9949 0.9949 0.9949 0.9949 0.9949
          0.9949 0.9949 0.9949 0.9949 0.9949 0.9949 0.9949 0.9949 0.9949 0.9949 0.9949 0.9949
          0.9949 0.9949 0.9949 0.9949 0.9949 0.9949 0.9949 0.9949 0.9949 0.9949 0.9949 0.9949
          0.9949 0.9949 0.9949 0.9949 0.9949 0.9949 0.9949 0.9949 0.9949 0.9949 0.9949 0.9949
          0.9949 0.9949 0.9949 0.9949 0.9949 0.9949 0.9949 0.9949 0.9949 0.9949 0.9949 0.9949
          0.9949 0.9949 0.9949 0.9949 0.9949 0.9949 0.9949 0.9949 0.9949 0.9949 0.9949 0.9949
          0.9949 0.9949 0.9949 0.9949 0.9949 0.9949 0.9949 0.9949 0.9949 0.9949 0.9949 0.9949
          0.9949 0.9949 0.9949 0.9949 0.9949 0.9949 0.9949 0.9949 0.9949 0.9949 0.9949 0.9949
          0.9949 0.9949 0.9949 0.9949 0.9949 0.9949 0.9949 0.9949 0.9949 0.9949 0.9949 0.9949
          0.9949 0.9949 0.9949 0.9949 0.9949 0.9949 0.9949 0.9949 0.9949 0.9949 0.9949 0.9949
          0.9949 0.9949 0.9949 0.9949 0.9949 0.9949 0.9949 0.9949 0.9949 0.9949 0.9949 0.9949
          0.9949 0.9949 0.9949 0.9949 0.9949 0.9949 0.9949 0.9949 0.9949 0.9949 0.9949 0.9949
          0.9949 0.9949 0.9949 0.9949 0.9949 0.9949 0.9949 0.9949 0.9949 0.9949 0.9949 0.9949
          0.0799625 0.0799625 0.104692 0.104692 0.131987 0.131987 0.161846 0.161846 0.194172 0.194172 0.228807 0.228807
          0.265557 0.265557 0.304221 0.304221 0.344617 0.344617 0.386616 0.386616 0.430164 0.430164 0.475275 0.475275
          0.521982 0.521982 0.570226 0.570226 0.619599 0.619599 0.6689 0.6689 0.715447 0.715447 0.754702 0.754702
          0.782677 0.782677 0.801279 0.801279 0.815379 0.815379 0.827435 0.827435 0.838153 0.838153 0.847943 0.847943
          0.856888 0.856888 0.863017 0.863017 0.81957 0.81957 0.740493 0.740493 0.79533 0.79533 0.84521 0.84521
          0.828102 0.828102
        </DataArray>
        <DataArray type="Float32" Name="pw" NumberOfComponents="1" format="ascii">
          99987.6 99987.6 99987.5 99987.5 99987.4 99987.4 99987.3 99987.3 99987.2 99987.2 99987 99987
          99986.9 99986.9 99986.8 99986.8 99986.7 99986.7 99986.6 99986.6 99986.5 99986.5 99986.3 99986.3
          99986.2 99986.2 99986.1 99986.1 99986 99986 99985.9 99985.9 99985.8 99985.8 99985.6 99985.6
          99985.5 99985.5 99985.4 99985.4 99985.3 99985.3 99985.2 99985.2 99985.1 99985.1 99984.9 99984.9
          99984.8 99984.8 99984.7 99984.7 99984.6 99984.6 99984.5 99984.5 99984.4 99984.4 99984.2 99984.2
          99984.1 99984.1 99984 99984 99983.9 99983.9 99983.8 99983.8 99983.6 99983.6 99983.5 99983.5
          99983.4 99983.4 99983.3 99983.3 99983.2 99983.2 99983.1 99983.1 99983 99983 99982.8 99982.8
          99982.7 99982.7 99982.6 99982.6 99982.5 99982.5 99982.4 99982.4 99982.2 99982.2 99982.1 99982.1
          99982 99982 99981.9 99981.9 99981.8 99981.8 99981.7 99981.7 99981.5 99981.5 99981.4 99981.4
          99981.3 99981.3 99981.2 99981.2 99981.1 99981.1 99981 99981 99980.9 99980.9 99980.7 99980.7
          99980.6 99980.6 99980.5 99980.5 99980.4 99980.4 99980.3 99980.3 99980.1 99980.1 99980 99980
          99979.9 99979.9 99979.8 99979.8 99979.7 99979.7 99979.6 99979.6 99979.4 99979.4 99979.3 99979.3
          99979.2 99979.2 99979.1 99979.1 99979 99979 99978.9 99978.9 99978.7 99978.7 99978.6 99978.6
          99978.5 99978.5 99978.4 99978.4 99978.3 99978.3 99978.2 99978.2 99978 99978 99977.9 99977.9
          99977.8 99977.8 99977.7 99977.7 99977.6 99977.6 99977.5 99977.5 99977.3 99977.3 99977.2 99977.2
          86408.6 86408.6 86324.2 86324.2 86239.4 86239.4 86153.8 86153.8 86066.8 86066.8 85978 85978
          85886.4 85886.4 85791.3 85791.3 85691.3 85691.3 85584.7 85584.7 85469.3 85469.3 85341.6 85341.6
          85196.7 85196.7 85027.6 85027.6 84824.4 84824.4 84574.3 84574.3 84266.2 84266.2 83909.7 83909.7
          83556.6 83556.6 83240.6 83240.6 82928.5 82928.5 82581.4 82581.4 82171.5 82171.5 81653.2 81653.2
          80953.3 80953.3 80222.1 80222.1 82819.8 82819.8 84057.9 84057.9 83533.9 83533.9 94479.6 94479.6
          95331.6 95331.6
        </DataArray>
        <DataArray type="Float32" Name="pn" NumberOfComponents="1" format="ascii">
          99987.6 99987.6 99987.5 99987.5 99987.4 99987.4 99987.3 99987.3 99987.2 99987.2 99987 99987
          99986.9 99986.9 99986.8 99986.8 99986.7 99986.7 99986.6 99986.6 99986.5 99986.5 99986.3 99986.3
          99986.2 99986.2 99986.1 99986.1 99986 99986 99985.9 99985.9 99985.8 99985.8 99985.6 99985.6
          99985.5 99985.5 99985.4 99985.4 99985.3 99985.3 99985.2 99985.2 99985.1 99985.1 99984.9 99984.9
          99984.8 99984.8 99984.7 99984.7 99984.6 99984.6 99984.5 99984.5 99984.4 99984.4 99984.2 99984.2
          99984.1 99984.1 99984 99984 99983.9 99983.9 99983.8 99983.8 99983.6 99983.6 99983.5 99983.5
          99983.4 99983.4 99983.3 99983.3 99983.2 99983.2 99983.1 99983.1 99983 99983 99982.8 99982.8
          99982.7 99982.7 99982.6 99982.6 99982.5 99982.5 99982.4 99982.4 99982.2 99982.2 99982.1 99982.1
          99982 99982 99981.9 99981.9 99981.8 99981.8 99981.7 99981.7 99981.5 99981.5 99981.4 99981.4
          99981.3 99981.3 99981.2 99981.2 99981.1 99981.1 99981 99981 99980.9 99980.9 99980.7 99980.7
          99980.6 99980.6 99980.5 99980.5 99980.4 99980.4 99980.3 99980.3 99980.1 99980.1 99980 99980
          99979.9 99979.9 99979.8 99979.8 99979.7 99979.7 99979.6 99979.6 99979.4 99979.4 99979.3 99979.3
          99979.2 99979.2 99979.1 99979.1 99979 99979 99978.9 99978.9 99978.7 99978.7 99978.6 99978.6
          99978.5 99978.5 99978.4 99978.4 99978.3 99978.3 99978.2 99978.2 99978 99978 99977.9 99977.9
          99977.8 99977.8 99977.7 99977.7 99977.6 99977.6 99977.5 99977.5 99977.3 99977.3 99977.2 99977.2
          98786.2 98786.2 98701.8 98701.8 98616.9 98616.9 98531.3 98531.3 98444.4 98444.4 98355.6 98355.6
          98264 98264 98168.9 98168.9 98068.8 98068.8 97962.3 97962.3 97846.9 97846.9 97719.1 97719.1
          97574.2 97574.2 97405.2 97405.2 97202 97202 96951.9 96951.9 96643.8 96643.8 96287.2 96287.2
          95934.2 95934.2 95618.2 95618.2 95306.1 95306.1 94959 94959 94549 94549 94030.8 94030.8
          93330.8 93330.8 92599.7 92599.7 95197.4 95197.4 96435.4 96435.4 95911.5 95911.5 94479.6 94479.6
          95331.6 95331.6
        </DataArray>
        <DataArray type="Float32" Name="pg" NumberOfComponents="1" format="ascii">
          100000 100000 99999.9 99999.9 99999.8 99999.8 99999.6 99999.6 99999.5 99999.5 99999.4 99999.4
          99999.3 99999.3 99999.2 99999.2 99999.1 99999.1 99998.9 99998.9 99998.8 99998.8 99998.7 99998.7
          99998.6 99998.6 99998.5 99998.5 99998.4 99998.4 99998.2 99998.2 99998.1 99998.1 99998 99998
          99997.9 99997.9 99997.8 99997.8 99997.7 99997.7 99997.5 99997.5 99997.4 99997.4 99997.3 99997.3
          99997.2 99997.2 99997.1 99997.1 99997 99997 99996.8 99996.8 99996.7 99996.7 99996.6 99996.6
          99996.5 99996.5 99996.4 99996.4 99996.3 99996.3 99996.1 99996.1 99996 99996 99995.9 99995.9
          99995.8 99995.8 99995.7 99995.7 99995.6 99995.6 99995.4 99995.4 99995.3 99995.3 99995.2 99995.2
          99995.1 99995.1 99995 99995 99994.9 99994.9 99994.7 99994.7 99994.6 99994.6 99994.5 99994.5
          99994.4 99994.4 99994.3 99994.3 99994.2 99994.2 99994 99994 99993.9 99993.9 99993.8 99993.8
          99993.7 99993.7 99993.6 99993.6 99993.5 99993.5 99993.3 99993.3 99993.2 99993.2 99993.1 99993.1
          99993 99993 99992.9 99992.9 99992.8 99992.8 99992.6 99992.6 99992.5 99992.5 99992.4 99992.4
          99992.3 99992.3 99992.2 99992.2 99992.1 99992.1 99991.9 99991.9 99991.8 99991.8 99991.7 99991.7
          99991.6 99991.6 99991.5 99991.5 99991.4 99991.4 99991.2 99991.2 99991.1 99991.1 99991 99991
          99990.9 99990.9 99990.8 99990.8 99990.7 99990.7 99990.5 99990.5 99990.4 99990.4 99990.3 99990.3
          99990.2 99990.2 99990.1 99990.1 99990 99990 99989.8 99989.8 99989.7 99989.7 99989.6 99989.6
          99999.5 99999.5 100012 100012 100020 100020 100025 100025 100029 100029 100032 100032
          100035 100035 100037 100037 100038 100038 100039 100039 100040 100040 100041 100041
          100042 100042 100042 100042 100043 100043 100043 100043 100044 100044 100044 100044
          100044 100044 100045 100045 100045 100045 100045 100045 100045 100045 100046 100046
          100046 100046 100046 100046 100047 100047 100049 100049 100227 100227 100331 100331
          100440 100440
        </DataArray>
        <DataArray type="Float32" Name="rhow" NumberOfComponents="1" format="ascii">
          997.662 997.662 997.662 997.662 997.662 997.662 997.662 997.662 997.662 997.662 997.662 997.662
          997.662 997.662 997.662 997.662 997.662 997.662 997.662 997.662 997.662 997.662 997.662 997.662
          997.662 997.662 997.662 997.662 997.662 997.662 997.662 997.662 997.662 997.662 997.662 997.662
          997.662 997.662 997.662 997.662 997.662 997.662 997.662 997.662 997.662 997.662 997.662 997.662
          997.662 997.662 997.662 997.662 997.662 997.662 997.662 997.662 997.662 997.662 997.662 997.662
          997.662 997.662 997.662 997.662 997.662 997.662 997.662 997.662 997.662 997.662 997.662 997.662
          997.662 997.662 997.662 997.662 997.662 997.662 997.662 997.662 997.662 997.662 997.662 997.662
          997.662 997.662 997.662 997.662 997.662 997.662 997.662 997.662 997.662 997.662 997.662 997.662
          997.662 997.662 997.662 997.662 997.662 997.662 997.662 997.662 997.662 997.662 997.662 997.662
          997.662 997.662 997.662 997.662 997.662 997.662 997.662 997.662 997.662 997.662 997.662 997.662
          997.662 997.662 997.662 997.662 997.662 997.662 997.662 997.662 997.662 997.662 997.662 997.662
          997.662 997.662 997.662 997.662 997.662 997.662 997.662 997.662 997.662 997.662 997.662 997.662
          997.662 997.662 997.662 997.662 997.662 997.662 997.662 997.662 997.662 997.662 997.662 997.662
          997.662 997.662 997.662 997.662 997.662 997.662 997.662 997.662 997.662 997.662 997.662 997.662
          997.662 997.662 997.662 997.662 997.662 997.662 997.662 997.662 997.662 997.662 997.662 997.662
          997.655 997.655 997.655 997.655 997.655 997.655 997.655 997.655 997.655 997.655 997.655 997.655
          997.655 997.655 997.655 997.655 997.655 997.655 997.655 997.655 997.655 997.655 997.655 997.655
          997.655 997.655 997.655 997.655 997.655 997.655 997.655 997.655 997.654 997.654 997.654 997.654
          997.654 997.654 997.654 997.654 997.654 997.654 997.654 997.654 997.653 997.653 997.652 997.652
          997.637 997.637 997.46 997.46 995.337 995.337 974.741 974.741 966.776 966.776 959.068 959.068
          958.564 958.564
        </DataArray>
        <DataArray type="Float32" Name="rhon" NumberOfComponents="1" format="ascii">
          860.465 860.465 860.465 860.465 860.465 860.465 860.465 860.465 860.465 860.465 860.465 860.465
          860.465 860.465 860.465 860.465 860.465 860.465 860.465 860.465 860.465 860.465 860.465 860.465
          860.465 860.465 860.465 860.465 860.465 860.465 860.465 860.465 860.465 860.465 860.465 860.465
          860.465 860.465 860.465 860.465 860.465 860.465 860.465 860.465 860.465 860.465 860.465 860.465
          860.465 860.465 860.465 860.465 860.465 860.465 860.465 860.465 860.465 860.465 860.465 860.465
          860.465 860.465 860.465 860.465 860.465 860.465 860.465 860.465 860.465 860.465 860.465 860.465
          860.465 860.465 860.465 860.465 860.465 860.465 860.465 860.465 860.465 860.465 860.465 860.465
          860.465 860.465 860.465 860.465 860.465 860.465 860.465 860.465 860.465 860.465 860.465 860.465
          860.465 860.465 860.465 860.465 860.465 860.465 860.465 860.465 860.465 860.465 860.465 860.465
          860.465 860.465 860.465 860.465 860.465 860.465 860.465 860.465 860.465 860.465 860.465 860.465
          860.465 860.465 860.465 860.465 860.465 860.465 860.465 860.465 860.465 860.465 860.465 860.465
          860.465 860.465 860.465 860.465 860.465 860.465 860.465 860.465 860.465 860.465 860.465 860.465
          860.465 860.465 860.465 860.465 860.465 860.465 860.465 860.465 860.465 860.465 860.465 860.465
          860.465 860.465 860.465 860.465 860.465 860.465 860.465 860.465 860.465 860.465 860.465 860.465
          860.465 860.465 860.465 860.465 860.465 860.465 860.465 860.465 860.465 860.465 860.465 860.465
          860.465 860.465 860.465 860.465 860.465 860.465 860.465 860.465 860.465 860.465 860.465 860.465
          860.465 860.465 860.465 860.465 860.465 860.465 860.465 860.465 860.465 860.465 860.465 860.465
          860.465 860.465 860.465 860.465 860.465 860.465 860.465 860.465 860.465 860.465 860.465 860.465
          860.465 860.465 860.465 860.465 860.465 860.465 860.465 860.465 860.465 860.465 860.461 860.461
          860.405 860.405 859.743 859.743 852.968 852.968 811.405 811.405 798.181 798.181 791.497 791.497
          791.078 791.078
        </DataArray>
        <DataArray type="Float32" Name="rhog" NumberOfComponents="1" format="ascii">
          1.19439 1.19439 1.19439 1.19439 1.19439 1.19439 1.19439 1.19439 1.19439 1.19439 1.19438 1.19438
          1.19438 1.19438 1.19438 1.19438 1.19438 1.19438 1.19438 1.19438 1.19438 1.19438 1.19438 1.19438
          1.19437 1.19437 1.19437 1.19437 1.19437 1.19437 1.19437 1.19437 1.19437 1.19437 1.19437 1.19437
          1.19437 1.19437 1.19437 1.19437 1.19436 1.19436 1.19436 1.19436 1.19436 1.19436 1.19436 1.19436
          1.19436 1.19436 1.19436 1.19436 1.19436 1.19436 1.19435 1.19435 1.19435 1.19435 1.19435 1.19435
          1.19435 1.19435 1.19435 1.19435 1.19435 1.19435 1.19435 1.19435 1.19434 1.19434 1.19434 1.19434
          1.19434 1.19434 1.19434 1.19434 1.19434 1.19434 1.19434 1.19434 1.19434 1.19434 1.19433 1.19433
          1.19433 1.19433 1.19433 1.19433 1.19433 1.19433 1.19433 1.19433 1.19433 1.19433 1.19433 1.19433
          1.19433 1.19433 1.19432 1.19432 1.19432 1.19432 1.19432 1.19432 1.19432 1.19432 1.19432 1.19432
          1.19432 1.19432 1.19432 1.19432 1.19431 1.19431 1.19431 1.19431 1.19431 1.19431 1.19431 1.19431
          1.19431 1.19431 1.19431 1.19431 1.19431 1.19431 1.1943 1.1943 1.1943 1.1943 1.1943 1.1943
          1.1943 1.1943 1.1943 1.1943 1.1943 1.1943 1.1943 1.1943 1.1943 1.1943 1.19429 1.19429
          1.19429 1.19429 1.19429 1.19429 1.19429 1.19429 1.19429 1.19429 1.19429 1.19429 1.19429 1.19429
          1.19428 1.19428 1.19428 1.19428 1.19428 1.19428 1.19428 1.19428 1.19428 1.19428 1.19428 1.19428
          1.19428 1.19428 1.19427 1.19427 1.19427 1.19427 1.19427 1.19427 1.19427 1.19427 1.19427 1.19427
          1.19439 1.19439 1.19453 1.19453 1.19462 1.19462 1.19469 1.19469 1.19474 1.19474 1.19477 1.19477
          1.1948 1.1948 1.19482 1.19482 1.19484 1.19484 1.19485 1.19485 1.19486 1.19486 1.19488 1.19488
          1.19488 1.19488 1.19489 1.19489 1.1949 1.1949 1.1949 1.1949 1.19491 1.19491 1.19491 1.19491
          1.19491 1.19491 1.19492 1.19492 1.19492 1.19492 1.19492 1.19492 1.19492 1.19492 1.19491 1.19491
          1.19472 1.19472 1.19248 1.19248 1.17221 1.17221 1.20022 1.20022 1.28958 1.28958 0.63549 0.63549
          0.592799 0.592799
        </DataArray>
        <DataArray type="Float32" Name="x^H2O_w" NumberOfComponents="1" format="ascii">
          0.99996 0.99996 0.99996 0.99996 0.99996 0.99996 0.99996 0.99996 0.99996 0.99996 0.99996 0.99996
          0.99996 0.99996 0.99996 0.99996 0.99996 0.99996 0.99996 0.99996 0.99996 0.99996 0.99996 0.99996
          0.99996 0.99996 0.99996 0.99996 0.99996 0.99996 0.99996 0.99996 0.99996 0.99996 0.99996 0.99996
          0.99996 0.99996 0.99996 0.99996 0.99996 0.99996 0.99996 0.99996 0.99996 0.99996 0.99996 0.99996
          0.99996 0.99996 0.99996 0.99996 0.99996 0.99996 0.99996 0.99996 0.99996 0.99996 0.99996 0.99996
          0.99996 0.99996 0.99996 0.99996 0.99996 0.99996 0.99996 0.99996 0.99996 0.99996 0.99996 0.99996
          0.99996 0.99996 0.99996 0.99996 0.99996 0.99996 0.99996 0.99996 0.99996 0.99996 0.99996 0.99996
          0.99996 0.99996 0.99996 0.99996 0.99996 0.99996 0.99996 0.99996 0.99996 0.99996 0.99996 0.99996
          0.99996 0.99996 0.99996 0.99996 0.99996 0.99996 0.99996 0.99996 0.99996 0.99996 0.99996 0.99996
          0.99996 0.99996 0.99996 0.99996 0.99996 0.99996 0.99996 0.99996 0.99996 0.99996 0.99996 0.99996
          0.99996 0.99996 0.99996 0.99996 0.99996 0.99996 0.99996 0.99996 0.99996 0.99996 0.99996 0.99996
          0.99996 0.99996 0.99996 0.99996 0.99996 0.99996 0.99996 0.99996 0.99996 0.99996 0.99996 0.99996
          0.99996 0.99996 0.99996 0.99996 0.99996 0.99996 0.99996 0.99996 0.99996 0.99996 0.99996 0.99996
          0.99996 0.99996 0.99996 0.99996 0.99996 0.99996 0.99996 0.99996 0.99996 0.99996 0.99996 0.99996
          0.99996 0.99996 0.99996 0.99996 0.99996 0.99996 0.99996 0.99996 0.99996 0.99996 0.99996 0.99996
          0.99996 0.99996 0.99996 0.99996 0.99996 0.99996 0.99996 0.99996 0.99996 0.99996 0.99996 0.99996
          0.99996 0.99996 0.99996 0.99996 0.99996 0.99996 0.99996 0.99996 0.99996 0.99996 0.99996 0.99996
          0.99996 0.99996 0.99996 0.99996 0.99996 0.99996 0.99996 0.99996 0.99996 0.99996 0.99996 0.99996
          0.99996 0.99996 0.99996 0.99996 0.99996 0.99996 0.99996 0.99996 0.99996 0.99996 0.99996 0.99996
          0.99996 0.99996 0.999959 0.999959 0.999945 0.999945 0.999621 0.999621 0.999365 0.999365 0.99996 0.99996
          1 1
        </DataArray>
        <DataArray type="Float32" Name="x^xylene_w" NumberOfComponents="1" format="ascii">
          2.62566e-05 2.62566e-05 2.62566e-05 2.62566e-05 2.62566e-05 2.62566e-05 2.62566e-05 2.62566e-05 2.62566e-05 2.62566e-05 2.62566e-05 2.62566e-05
          2.62566e-05 2.62566e-05 2.62566e-05 2.62566e-05 2.62566e-05 2.62566e-05 2.62566e-05 2.62566e-05 2.62566e-05 2.62566e-05 2.62566e-05 2.62566e-05
          2.62566e-05 2.62566e-05 2.62566e-05 2.62566e-05 2.62566e-05 2.62566e-05 2.62566e-05 2.62566e-05 2.62566e-05 2.62566e-05 2.62566e-05 2.62566e-05
          2.62566e-05 2.62566e-05 2.62566e-05 2.62566e-05 2.62566e-05 2.62566e-05 2.62566e-05 2.62566e-05 2.62566e-05 2.62566e-05 2.62566e-05 2.62566e-05
          2.62566e-05 2.62566e-05 2.62566e-05 2.62566e-05 2.62566e-05 2.62566e-05 2.62566e-05 2.62566e-05 2.62566e-05 2.62566e-05 2.62566e-05 2.62566e-05
          2.62566e-05 2.62566e-05 2.62566e-05 2.62566e-05 2.62566e-05 2.62566e-05 2.62566e-05 2.62566e-05 2.62566e-05 2.62566e-05 2.62566e-05 2.62566e-05
          2.62566e-05 2.62566e-05 2.62566e-05 2.62566e-05 2.62566e-05 2.62566e-05 2.62566e-05 2.62566e-05 2.62566e-05 2.62566e-05 2.62566e-05 2.62566e-05
          2.62566e-05 2.62566e-05 2.62566e-05 2.62566e-05 2.62566e-05 2.62566e-05 2.62566e-05 2.62566e-05 2.62566e-05 2.62566e-05 2.62566e-05 2.62566e-05
          2.62566e-05 2.62566e-05 2.62566e-05 2.62566e-05 2.62566e-05 2.62566e-05 2.62566e-05 2.62566e-05 2.62566e-05 2.62566e-05 2.62566e-05 2.62566e-05
          2.62566e-05 2.62566e-05 2.62566e-05 2.62566e-05 2.62566e-05 2.62566e-05 2.62566e-05 2.62566e-05 2.62566e-05 2.62566e-05 2.62566e-05 2.62566e-05
          2.62566e-05 2.62566e-05 2.62566e-05 2.62566e-05 2.62566e-05 2.62566e-05 2.62566e-05 2.62566e-05 2.62566e-05 2.62566e-05 2.62566e-05 2.62566e-05
          2.62566e-05 2.62566e-05 2.62566e-05 2.62566e-05 2.62566e-05 2.62566e-05 2.62566e-05 2.62566e-05 2.62566e-05 2.62566e-05 2.62566e-05 2.62566e-05
          2.62566e-05 2.62566e-05 2.62566e-05 2.62566e-05 2.62566e-05 2.62566e-05 2.62566e-05 2.62566e-05 2.62566e-05 2.62566e-05 2.62566e-05 2.62566e-05
          2.62566e-05 2.62566e-05 2.62566e-05 2.62566e-05 2.62566e-05 2.62566e-05 2.62566e-05 2.62566e-05 2.62566e-05 2.62566e-05 2.62566e-05 2.62566e-05
          2.62566e-05 2.62566e-05 2.62566e-05 2.62566e-05 2.62566e-05 2.62566e-05 2.62566e-05 2.62566e-05 2.62566e-05 2.62566e-05 2.62566e-05 2.62566e-05
          2.62565e-05 2.62565e-05 2.62564e-05 2.62564e-05 2.62564e-05 2.62564e-05 2.62565e-05 2.62565e-05 2.62565e-05 2.62565e-05 2.62566e-05 2.62566e-05
          2.62566e-05 2.62566e-05 2.62566e-05 2.62566e-05 2.62566e-05 2.62566e-05 2.62566e-05 2.62566e-05 2.62566e-05 2.62566e-05 2.62566e-05 2.62566e-05
          2.62566e-05 2.62566e-05 2.62566e-05 2.62566e-05 2.62566e-05 2.62566e-05 2.62566e-05 2.62566e-05 2.62566e-05 2.62566e-05 2.62566e-05 2.62566e-05
          2.62567e-05 2.62567e-05 2.62567e-05 2.62567e-05 2.62567e-05 2.62567e-05 2.62567e-05 2.62567e-05 2.62573e-05 2.62573e-05 2.62654e-05 2.62654e-05
          2.63669e-05 2.63669e-05 2.75976e-05 2.75976e-05 4.32004e-05 4.32004e-05 0.000374591 0.000374591 0.00063498 0.00063498 4.02555e-05 4.02555e-05
          -1.23767e-30 1.91117e-31
        </DataArray>
        <DataArray type="Float32" Name="x^Air_w" NumberOfComponents="1" format="ascii">
          1.37483e-05 1.37483e-05 1.37482e-05 1.37482e-05 1.37482e-05 1.37482e-05 1.37482e-05 1.37482e-05 1.37482e-05 1.37482e-05 1.37482e-05 1.37482e-05
          1.37482e-05 1.37482e-05 1.37481e-05 1.37481e-05 1.37481e-05 1.37481e-05 1.37481e-05 1.37481e-05 1.37481e-05 1.37481e-05 1.37481e-05 1.37481e-05
          1.37481e-05 1.37481e-05 1.3748e-05 1.3748e-05 1.3748e-05 1.3748e-05 1.3748e-05 1.3748e-05 1.3748e-05 1.3748e-05 1.3748e-05 1.3748e-05
          1.3748e-05 1.3748e-05 1.37479e-05 1.37479e-05 1.37479e-05 1.37479e-05 1.37479e-05 1.37479e-05 1.37479e-05 1.37479e-05 1.37479e-05 1.37479e-05
          1.37479e-05 1.37479e-05 1.37478e-05 1.37478e-05 1.37478e-05 1.37478e-05 1.37478e-05 1.37478e-05 1.37478e-05 1.37478e-05 1.37478e-05 1.37478e-05
          1.37478e-05 1.37478e-05 1.37477e-05 1.37477e-05 1.37477e-05 1.37477e-05 1.37477e-05 1.37477e-05 1.37477e-05 1.37477e-05 1.37477e-05 1.37477e-05
          1.37477e-05 1.37477e-05 1.37476e-05 1.37476e-05 1.37476e-05 1.37476e-05 1.37476e-05 1.37476e-05 1.37476e-05 1.37476e-05 1.37476e-05 1.37476e-05
          1.37476e-05 1.37476e-05 1.37475e-05 1.37475e-05 1.37475e-05 1.37475e-05 1.37475e-05 1.37475e-05 1.37475e-05 1.37475e-05 1.37475e-05 1.37475e-05
          1.37475e-05 1.37475e-05 1.37474e-05 1.37474e-05 1.37474e-05 1.37474e-05 1.37474e-05 1.37474e-05 1.37474e-05 1.37474e-05 1.37474e-05 1.37474e-05
          1.37474e-05 1.37474e-05 1.37473e-05 1.37473e-05 1.37473e-05 1.37473e-05 1.37473e-05 1.37473e-05 1.37473e-05 1.37473e-05 1.37473e-05 1.37473e-05
          1.37473e-05 1.37473e-05 1.37472e-05 1.37472e-05 1.37472e-05 1.37472e-05 1.37472e-05 1.37472e-05 1.37472e-05 1.37472e-05 1.37472e-05 1.37472e-05
          1.37472e-05 1.37472e-05 1.37471e-05 1.37471e-05 1.37471e-05 1.37471e-05 1.37471e-05 1.37471e-05 1.37471e-05 1.37471e-05 1.37471e-05 1.37471e-05
          1.37471e-05 1.37471e-05 1.3747e-05 1.3747e-05 1.3747e-05 1.3747e-05 1.3747e-05 1.3747e-05 1.3747e-05 1.3747e-05 1.3747e-05 1.3747e-05
          1.3747e-05 1.3747e-05 1.37469e-05 1.37469e-05 1.37469e-05 1.37469e-05 1.37469e-05 1.37469e-05 1.37469e-05 1.37469e-05 1.37469e-05 1.37469e-05
          1.37469e-05 1.37469e-05 1.37468e-05 1.37468e-05 1.37468e-05 1.37468e-05 1.37468e-05 1.37468e-05 1.37468e-05 1.37468e-05 1.37468e-05 1.37468e-05
          1.37482e-05 1.37482e-05 1.37499e-05 1.37499e-05 1.37511e-05 1.37511e-05 1.37519e-05 1.37519e-05 1.37525e-05 1.37525e-05 1.37529e-05 1.37529e-05
          1.37532e-05 1.37532e-05 1.37535e-05 1.37535e-05 1.37537e-05 1.37537e-05 1.37539e-05 1.37539e-05 1.3754e-05 1.3754e-05 1.37541e-05 1.37541e-05
          1.37542e-05 1.37542e-05 1.37543e-05 1.37543e-05 1.37544e-05 1.37544e-05 1.37545e-05 1.37545e-05 1.37545e-05 1.37545e-05 1.37546e-05 1.37546e-05
          1.37546e-05 1.37546e-05 1.37546e-05 1.37546e-05 1.37547e-05 1.37547e-05 1.37547e-05 1.37547e-05 1.37546e-05 1.37546e-05 1.37533e-05 1.37533e-05
          1.37366e-05 1.37366e-05 1.35406e-05 1.35406e-05 1.18069e-05 1.18069e-05 3.9608e-06 3.9608e-06 3.03238e-11 3.03238e-11 2.91325e-11 2.91325e-11
          2.58297e-11 2.58297e-11
        </DataArray>
        <DataArray type="Float32" Name="x^H2O_n" NumberOfComponents="1" format="ascii">
          1e-10 1e-10 1e-10 1e-10 1e-10 1e-10 1e-10 1e-10 1e-10 1e-10 1e-10 1e-10
          1e-10 1e-10 1e-10 1e-10 1e-10 1e-10 1e-10 1e-10 1e-10 1e-10 1e-10 1e-10
          1e-10 1e-10 1e-10 1e-10 1e-10 1e-10 1e-10 1e-10 1e-10 1e-10 1e-10 1e-10
          1e-10 1e-10 1e-10 1e-10 1e-10 1e-10 1e-10 1e-10 1e-10 1e-10 1e-10 1e-10
          1e-10 1e-10 1e-10 1e-10 1e-10 1e-10 1e-10 1e-10 1e-10 1e-10 1e-10 1e-10
          1e-10 1e-10 1e-10 1e-10 1e-10 1e-10 1e-10 1e-10 1e-10 1e-10 1e-10 1e-10
          1e-10 1e-10 1e-10 1e-10 1e-10 1e-10 1e-10 1e-10 1e-10 1e-10 1e-10 1e-10