<?xml version="1.0"?>
<VTKFile type="UnstructuredGrid" version="0.1" byte_order="LittleEndian">
  <UnstructuredGrid>
    <Piece NumberOfCells="120" NumberOfPoints="242">
      <CellData Scalars="Sw">
        <DataArray type="Float32" Name="Sw" NumberOfComponents="1" format="ascii">
          0.005 0.005 0.005 0.005 0.005 0.005 0.005 0.005 0.005 0.005 0.005 0.005
          0.005 0.005 0.005 0.005 0.005 0.005 0.005 0.005 0.005 0.005 0.005 0.005
          0.005 0.005 0.005 0.005 0.005 0.005 0.005 0.005 0.005 0.005 0.005 0.005
          0.005 0.005 0.005 0.005 0.005 0.005 0.005 0.005 0.005 0.005 0.005 0.005
          0.005 0.005 0.005 0.005 0.005 0.005 0.005 0.005 0.005 0.005 0.005 0.005
          0.005 0.005 0.005 0.005 0.005 0.005 0.005 0.005 0.005 0.005 0.005 0.005
          0.005 0.005 0.005 0.005 0.005 0.005 0.005 0.005 0.005 0.005 0.005 0.005
          0.005 0.005 0.005 0.005 0.005 0.00499999 0.00499999 0.00499999 0.005 0.005 0.005 0.005
          0.005 0.005 0.005 0.005 0.005 0.005 0.005 0.005 0.00500001 0.00500001 0.00500001 0.00500001
          0.00500001 0.00500001 0.00500001 0.00500001 0.00500001 0.00500007 0.00500073 0.00500926 0.00578833 0.0621995 0.119084 0.154622
        </DataArray>
        <DataArray type="Float32" Name="Sn" NumberOfComponents="1" format="ascii">
          0.0001 0.0001 0.0001 0.0001 9.99999e-05 9.99998e-05 9.99998e-05 9.99997e-05 9.99997e-05 9.99996e-05 9.99995e-05 9.99995e-05
          9.99994e-05 9.99994e-05 9.99993e-05 9.99992e-05 9.99992e-05 9.99991e-05 9.99991e-05 9.9999e-05 9.99989e-05 9.99989e-05 9.99988e-05 9.99988e-05
          9.99987e-05 9.99987e-05 9.99986e-05 9.99985e-05 9.99985e-05 9.99984e-05 9.99984e-05 9.99983e-05 9.99982e-05 9.99982e-05 9.99981e-05 9.99981e-05
          9.9998e-05 9.99979e-05 9.99979e-05 9.99978e-05 9.99978e-05 9.99977e-05 9.99976e-05 9.99976e-05 9.99975e-05 9.99975e-05 9.99974e-05 9.99973e-05
          9.99973e-05 9.99972e-05 9.99972e-05 9.99971e-05 9.9997e-05 9.9997e-05 9.99969e-05 9.99969e-05 9.99968e-05 9.99967e-05 9.99967e-05 9.99966e-05
          9.99966e-05 9.99965e-05 9.99964e-05 9.99964e-05 9.99963e-05 9.99963e-05 9.99962e-05 9.99962e-05 9.99961e-05 9.9996e-05 9.9996e-05 9.99959e-05
          9.99959e-05 9.99958e-05 9.99957e-05 9.99957e-05 9.99956e-05 9.99956e-05 9.99955e-05 9.99954e-05 9.99954e-05 9.99953e-05 9.99953e-05 9.99952e-05
          9.99951e-05 9.99951e-05 9.9995e-05 9.9995e-05 9.99949e-05 9.9973e-05 0.901517 0.874939 0.84582 0.814268 0.78047 0.744645
          0.707 0.667701 0.626853 0.584484 0.540563 0.495025 0.447853 0.399245 0.349943 0.301804 0.258467 0.224797
          0.202173 0.186288 0.173436 0.162081 0.151753 0.142524 0.133928 0.127641 0.165813 0.175198 0.0633028 0
        </DataArray>
        <DataArray type="Float32" Name="Sg" NumberOfComponents="1" format="ascii">
          0.9949 0.9949 0.9949 0.9949 0.9949 0.9949 0.9949 0.9949 0.9949 0.9949 0.9949 0.9949
          0.9949 0.9949 0.9949 0.9949 0.9949 0.9949 0.9949 0.9949 0.9949 0.9949 0.9949 0.9949
          0.9949 0.9949 0.9949 0.9949 0.9949 0.9949 0.9949 0.9949 0.9949 0.9949 0.9949 0.9949
          0.9949 0.9949 0.9949 0.9949 0.9949 0.9949 0.9949 0.9949 0.9949 0.9949 0.9949 0.9949
          0.9949 0.9949 0.9949 0.9949 0.9949 0.9949 0.9949 0.9949 0.9949 0.9949 0.9949 0.9949
          0.9949 0.9949 0.9949 0.9949 0.9949 0.9949 0.9949 0.9949 0.9949 0.9949 0.9949 0.9949
          0.9949 0.9949 0.9949 0.9949 0.9949 0.9949 0.9949 0.9949 0.9949 0.9949 0.9949 0.9949
          0.9949 0.9949 0.9949 0.9949 0.9949 0.9949 0.0934832 0.120061 0.14918 0.180732 0.21453 0.250355
          0.288 0.327299 0.368147 0.410516 0.454437 0.499975 0.547147 0.595755 0.645057 0.693196 0.736533 0.770203
          0.792827 0.808712 0.821564 0.832919 0.843247 0.852476 0.861071 0.86735 0.828399 0.762603 0.817613 0.845378
        </DataArray>
        <DataArray type="Float32" Name="pw" NumberOfComponents="1" format="ascii">
          99987.6 99987.4 99987.3 99987.2 99987.1 99987 99986.9 99986.8 99986.6 99986.5 99986.4 99986.3
          99986.2 99986 99985.9 99985.8 99985.7 99985.6 99985.5 99985.3 99985.2 99985.1 99985 99984.9
          99984.8 99984.6 99984.5 99984.4 99984.3 99984.2 99984.1 99983.9 99983.8 99983.7 99983.6 99983.5
          99983.4 99983.2 99983.1 99983 99982.9 99982.8 99982.7 99982.5 99982.4 99982.3 99982.2 99982.1
          99982 99981.8 99981.7 99981.6 99981.5 99981.4 99981.3 99981.1 99981 99980.9 99980.8 99980.7
          99980.6 99980.4 99980.3 99980.2 99980.1 99980 99979.9 99979.7 99979.6 99979.5 99979.4 99979.3
          99979.2 99979 99978.9 99978.8 99978.7 99978.6 99978.5 99978.3 99978.2 99978.1 99978 99977.9
          99977.8 99977.6 99977.5 99977.4 99977.3 99977.2 86352.4 86267.7 86182.3 86095.9 86008.2 85918.4
          85825.8 85729.1 85627 85517.3 85397.1 85262.2 85106.9 84922.8 84698.3 84420.6 84085.4 83723.9
          83390.8 83082 82758.1 82383.1 81920.6 81332.4 80484.1 79446.9 82547.1 83838.1 84828.3 94475.1
        </DataArray>
        <DataArray type="Float32" Name="pn" NumberOfComponents="1" format="ascii">
          99987.6 99987.4 99987.3 99987.2 99987.1 99987 99986.9 99986.8 99986.6 99986.5 99986.4 99986.3
          99986.2 99986 99985.9 99985.8 99985.7 99985.6 99985.5 99985.3 99985.2 99985.1 99985 99984.9
          99984.8 99984.6 99984.5 99984.4 99984.3 99984.2 99984.1 99983.9 99983.8 99983.7 99983.6 99983.5
          99983.4 99983.2 99983.1 99983 99982.9 99982.8 99982.7 99982.5 99982.4 99982.3 99982.2 99982.1
          99982 99981.8 99981.7 99981.6 99981.5 99981.4 99981.3 99981.1 99981 99980.9 99980.8 99980.7
          99980.6 99980.4 99980.3 99980.2 99980.1 99980 99979.9 99979.7 99979.6 99979.5 99979.4 99979.3
          99979.2 99979 99978.9 99978.8 99978.7 99978.6 99978.5 99978.3 99978.2 99978.1 99978 99977.9
          99977.8 99977.6 99977.5 99977.4 99977.3 99977.2 98730 98645.3 98559.9 98473.5 98385.8 98296
          98203.3 98106.7 98004.6 97894.9 97774.7 97639.8 97484.5 97300.3 97075.9 96798.2 96463 96101.5
          95768.4 95459.6 95135.7 94760.6 94298.2 93710 92861.7 91824.4 94924.7 96215.6 92663.6 94475.1
        </DataArray>
        <DataArray type="Float32" Name="pg" NumberOfComponents="1" format="ascii">
          99999.9 99999.8 99999.7 99999.6 99999.5 99999.4 99999.2 99999.1 99999 99998.9 99998.8 99998.7
          99998.5 99998.4 99998.3 99998.2 99998.1 99998 99997.8 99997.7 99997.6 99997.5 99997.4 99997.3
          99997.1 99997 99996.9 99996.8 99996.7 99996.6 99996.4 99996.3 99996.2 99996.1 99996 99995.9
          99995.7 99995.6 99995.5 99995.4 99995.3 99995.2 99995 99994.9 99994.8 99994.7 99994.6 99994.5
          99994.3 99994.2 99994.1 99994 99993.9 99993.8 99993.6 99993.5 99993.4 99993.3 99993.2 99993.1
          99992.9 99992.8 99992.7 99992.6 99992.5 99992.4 99992.2 99992.1 99992 99991.9 99991.8 99991.7
          99991.5 99991.4 99991.3 99991.2 99991.1 99991 99990.8 99990.7 99990.6 99990.5 99990.4 99990.2
          99990.1 99990 99989.9 99989.8 99989.7 99989.6 99998 100009 100016 100021 100025 100028
          100030 100032 100034 100035 100036 100037 100038 100038 100039 100039 100040 100040
          100040 100041 100041 100041 100042 100042 100042 100043 100043 100061 100242 100336
        </DataArray>
        <DataArray type="Float32" Name="rhow" NumberOfComponents="1" format="ascii">
          997.662 997.662 997.662 997.662 997.662 997.662 997.662 997.662 997.662 997.662 997.662 997.662
          997.662 997.662 997.662 997.662 997.662 997.662 997.662 997.662 997.662 997.662 997.662 997.662
          997.662 997.662 997.662 997.662 997.662 997.662 997.662 997.662 997.662 997.662 997.662 997.662
          997.662 997.662 997.662 997.662 997.662 997.662 997.662 997.662 997.662 997.662 997.662 997.662
          997.662 997.662 997.662 997.662 997.662 997.662 997.662 997.662 997.662 997.662 997.662 997.662
          997.662 997.662 997.662 997.662 997.662 997.662 997.662 997.662 997.662 997.662 997.662 997.662
          997.662 997.662 997.662 997.662 997.662 997.662 997.662 997.662 997.662 997.662 997.662 997.662
          997.662 997.662 997.662 997.662 997.662 997.662 997.655 997.655 997.655 997.655 997.655 997.655
          997.655 997.655 997.655 997.655 997.655 997.655 997.655 997.655 997.655 997.654 997.654 997.654
          997.654 997.654 997.654 997.654 997.653 997.65 997.623 997.349 994.175 968.071 966.774 958.584
        </DataArray>
        <DataArray type="Float32" Name="rhon" NumberOfComponents="1" format="ascii">
          860.465 860.465 860.465 860.465 860.465 860.465 860.465 860.465 860.465 860.465 860.465 860.465
          860.465 860.465 860.465 860.465 860.465 860.465 860.465 860.465 860.465 860.465 860.465 860.465
          860.465 860.465 860.465 860.465 860.465 860.465 860.465 860.465 860.465 860.465 860.465 860.465
          860.465 860.465 860.465 860.465 860.465 860.465 860.465 860.465 860.465 860.465 860.465 860.465
          860.465 860.465 860.465 860.465 860.465 860.465 860.465 860.465 860.465 860.465 860.465 860.465
          860.465 860.465 860.465 860.465 860.465 860.465 860.465 860.465 860.465 860.465 860.465 860.465
          860.465 860.465 860.465 860.465 860.465 860.465 860.465 860.465 860.465 860.465 860.465 860.465
          860.465 860.465 860.465 860.465 860.465 860.465 860.465 860.465 860.465 860.465 860.465 860.465
          860.465 860.465 860.465 860.465 860.465 860.465 860.465 860.465 860.465 860.465 860.465 860.465
          860.465 860.465 860.465 860.465 860.464 860.455 860.356 859.326 849.793 800.309 798.177 791.105
        </DataArray>
        <DataArray type="Float32" Name="rhog" NumberOfComponents="1" format="ascii">
          1.19439 1.19439 1.19439 1.19439 1.19439 1.19438 1.19438 1.19438 1.19438 1.19438 1.19438 1.19438
          1.19437 1.19437 1.19437 1.19437 1.19437 1.19437 1.19437 1.19436 1.19436 1.19436 1.19436 1.19436
          1.19436 1.19436 1.19436 1.19435 1.19435 1.19435 1.19435 1.19435 1.19435 1.19435 1.19434 1.19434
          1.19434 1.19434 1.19434 1.19434 1.19434 1.19433 1.19433 1.19433 1.19433 1.19433 1.19433 1.19433
          1.19432 1.19432 1.19432 1.19432 1.19432 1.19432 1.19432 1.19432 1.19431 1.19431 1.19431 1.19431
          1.19431 1.19431 1.19431 1.1943 1.1943 1.1943 1.1943 1.1943 1.1943 1.1943 1.19429 1.19429
          1.19429 1.19429 1.19429 1.19429 1.19429 1.19428 1.19428 1.19428 1.19428 1.19428 1.19428 1.19428
          1.19428 1.19427 1.19427 1.19427 1.19427 1.19427 1.19437 1.19449 1.19458 1.19464 1.19469 1.19472
          1.19475 1.19477 1.19479 1.1948 1.19482 1.19483 1.19483 1.19484 1.19485 1.19485 1.19486 1.19486
          1.19487 1.19487 1.19487 1.19488 1.19488 1.19485 1.19451 1.19107 1.16452 1.27029 1.28976 0.592222
        </DataArray>
        <DataArray type="Float32" Name="x^H2O_w" NumberOfComponents="1" format="ascii">
          0.99996 0.99996 0.99996 0.99996 0.99996 0.99996 0.99996 0.99996 0.99996 0.99996 0.99996 0.99996
          0.99996 0.99996 0.99996 0.99996 0.99996 0.99996 0.99996 0.99996 0.99996 0.99996 0.99996 0.99996
          0.99996 0.99996 0.99996 0.99996 0.99996 0.99996 0.99996 0.99996 0.99996 0.99996 0.99996 0.99996
          0.99996 0.99996 0.99996 0.99996 0.99996 0.99996 0.99996 0.99996 0.99996 0.99996 0.99996 0.99996
          0.99996 0.99996 0.99996 0.99996 0.99996 0.99996 0.99996 0.99996 0.99996 0.99996 0.99996 0.99996
          0.99996 0.99996 0.99996 0.99996 0.99996 0.99996 0.99996 0.99996 0.99996 0.99996 0.99996 0.99996
          0.99996 0.99996 0.99996 0.99996 0.99996 0.99996 0.99996 0.99996 0.99996 0.99996 0.99996 0.99996
          0.99996 0.99996 0.99996 0.99996 0.99996 0.99996 0.99996 0.99996 0.99996 0.99996 0.99996 0.99996
          0.99996 0.99996 0.99996 0.99996 0.99996 0.99996 0.99996 0.99996 0.99996 0.99996 0.99996 0.99996
          0.99996 0.99996 0.99996 0.99996 0.99996 0.99996 0.99996 0.999958 0.999936 0.999414 0.999365 1
        </DataArray>
        <DataArray type="Float32" Name="x^xylene_w" NumberOfComponents="1" format="ascii">
          2.62566e-05 2.62566e-05 2.62566e-05 2.62566e-05 2.62566e-05 2.62566e-05 2.62566e-05 2.62566e-05 2.62566e-05 2.62566e-05 2.62566e-05 2.62566e-05
          2.62566e-05 2.62566e-05 2.62566e-05 2.62566e-05 2.62566e-05 2.62566e-05 2.62566e-05 2.62566e-05 2.62566e-05 2.62566e-05 2.62566e-05 2.62566e-05
          2.62566e-05 2.62566e-05 2.62566e-05 2.62566e-05 2.62566e-05 2.62566e-05 2.62566e-05 2.62566e-05 2.62566e-05 2.62566e-05 2.62566e-05 2.62566e-05
          2.62566e-05 2.62566e-05 2.62566e-05 2.62566e-05 2.62566e-05 2.62566e-05 2.62566e-05 2.62566e-05 2.62566e-05 2.62566e-05 2.62566e-05 2.62566e-05
          2.62566e-05 2.62566e-05 2.62566e-05 2.62566e-05 2.62566e-05 2.62566e-05 2.62566e-05 2.62566e-05 2.62566e-05 2.62566e-05 2.62566e-05 2.62566e-05
          2.62566e-05 2.62566e-05 2.62566e-05 2.62566e-05 2.62566e-05 2.62566e-05 2.62566e-05 2.62566e-05 2.62566e-05 2.62566e-05 2.62566e-05 2.62566e-05
          2.62566e-05 2.62566e-05 2.62566e-05 2.62566e-05 2.62566e-05 2.62566e-05 2.62566e-05 2.62566e-05 2.62566e-05 2.62566e-05 2.62566e-05 2.62566e-05
          2.62566e-05 2.62566e-05 2.62566e-05 2.62566e-05 2.62566e-05 2.62566e-05 2.62565e-05 2.62564e-05 2.62565e-05 2.62565e-05 2.62566e-05 2.62566e-05
          2.62566e-05 2.62566e-05 2.62566e-05 2.62566e-05 2.62566e-05 2.62566e-05 2.62566e-05 2.62566e-05 2.62566e-05 2.62566e-05 2.62566e-05 2.62566e-05
          2.62567e-05 2.62567e-05 2.62567e-05 2.62568e-05 2.62583e-05 2.6275e-05 2.64568e-05 2.83975e-05 5.27086e-05 0.000585676 0.000635069 8.7594e-16
        </DataArray>
        <DataArray type="Float32" Name="x^Air_w" NumberOfComponents="1" format="ascii">
          1.37483e-05 1.37482e-05 1.37482e-05 1.37482e-05 1.37482e-05 1.37482e-05 1.37482e-05 1.37481e-05 1.37481e-05 1.37481e-05 1.37481e-05 1.37481e-05
          1.37481e-05 1.3748e-05 1.3748e-05 1.3748e-05 1.3748e-05 1.3748e-05 1.3748e-05 1.37479e-05 1.37479e-05 1.37479e-05 1.37479e-05 1.37479e-05
          1.37478e-05 1.37478e-05 1.37478e-05 1.37478e-05 1.37478e-05 1.37478e-05 1.37477e-05 1.37477e-05 1.37477e-05 1.37477e-05 1.37477e-05 1.37477e-05
          1.37476e-05 1.37476e-05 1.37476e-05 1.37476e-05 1.37476e-05 1.37476e-05 1.37475e-05 1.37475e-05 1.37475e-05 1.37475e-05 1.37475e-05 1.37475e-05
          1.37474e-05 1.37474e-05 1.37474e-05 1.37474e-05 1.37474e-05 1.37474e-05 1.37473e-05 1.37473e-05 1.37473e-05 1.37473e-05 1.37473e-05 1.37473e-05
          1.37472e-05 1.37472e-05 1.37472e-05 1.37472e-05 1.37472e-05 1.37472e-05 1.37471e-05 1.37471e-05 1.37471e-05 1.37471e-05 1.37471e-05 1.37471e-05
          1.3747e-05 1.3747e-05 1.3747e-05 1.3747e-05 1.3747e-05 1.3747e-05 1.37469e-05 1.37469e-05 1.37469e-05 1.37469e-05 1.37469e-05 1.37469e-05
          1.37468e-05 1.37468e-05 1.37468e-05 1.37468e-05 1.37468e-05 1.37468e-05 1.3748e-05 1.37495e-05 1.37506e-05 1.37513e-05 1.37519e-05 1.37523e-05
          1.37526e-05 1.37529e-05 1.37531e-05 1.37533e-05 1.37534e-05 1.37535e-05 1.37536e-05 1.37537e-05 1.37538e-05 1.37539e-05 1.37539e-05 1.3754e-05
          1.3754e-05 1.37541e-05 1.37541e-05 1.37541e-05 1.37539e-05 1.37512e-05 1.37213e-05 1.34198e-05 1.11285e-05 7.20883e-07 2.59006e-11 2.68447e-11
        </DataArray>
        <DataArray type="Float32" Name="x^H2O_n" NumberOfComponents="1" format="ascii">
          1e-10 1e-10 1e-10 1e-10 1e-10 1e-10 1e-10 1e-10 1e-10 1e-10 1e-10 1e-10
          1e-10 1e-10 1e-10 1e-10 1e-10 1e-10 1e-10 1e-10 1e-10 1e-10 1e-10 1e-10
          1e-10 1e-10 1e-10 1e-10 1e-10 1e-10 1e-10 1e-10 1e-10 1e-10 1e-10 1e-10
          1e-10 1e-10 1e-10 1e-10 1e-10 1e-10 1e-10 1e-10 1e-10 1e-10 1e-10 1e-10
          1e-10 1e-10 1e-10 1e-10 1e-10 1e-10 1e-10 1e-10 1e-10 1e-10 1e-10 1e-10
          1e-10 1e-10 1e-10 1e-10 1e-10 1e-10 1e-10 1e-10 1e-10 1e-10 1e-10 1e-10
          1e-10 1e-10 1e-10 1e-10 1e-10 1e-10 1e-10 1e-10 1e-10 1e-10 1e-10 1e-10
          1e-10 1e-10 1e-10 1e-10 1e-10 1e-10 1e-10 1e-10 1e-10 1e-10 1e-10 1e-10
          1e-10 1e-10 1e-10 1e-10 1e-10 1e-10 1e-10 1e-10 1e-10 1e-10 1e-10 1e-10
          1e-10 1e-10 1e-10 1e-10 1e-10 1e-10 1e-10 1e-10 1e-10 1e-10 1e-10 1e-10
        </DataArray>
        <DataArray type="Float32" Name="x^xylene_n" NumberOfComponents="1" format="ascii">
          1 1 1 1 1 1 1 1 1 1 1 1
          1 1 1 1 1 1 1 1 1 1 1 1
          1 1 1 1 1 1 1 1 1 1 1 1
          1 1 1 1 1 1 1 1 1 1 1 1
          1 1 1 1 1 1 1 1 1 1 1 1
          1 1 1 1 1 1 1 1 1 1 1 1
          1 1 1 1 1 1 1 1 1 1 1 1
          1 1 1 1 1 1 1 1 1 1 1 1
          1 1 1 1 1 1 1 1 1 1 1 1
          1 1 1 1 1 1 1 1 1 1 1 1.06525e-12
        </DataArray>
        <DataArray type="Float32" Name="x^Air_n" NumberOfComponents="1" format="ascii">
          1e-10 1e-10 1e-10 1e-10 1e-10 1e-10 1e-10 1e-10 1e-10 1e-10 1e-10 1e-10
          1e-10 1e-10 1e-10 1e-10 1e-10 1e-10 1e-10 1e-10 1e-10 1e-10 1e-10 1e-10
          1e-10 1e-10 1e-10 1e-10 1e-10 1e-10 1e-10 1e-10 1e-10 1e-10 1e-10 1e-10
          1e-10 1e-10 1e-10 1e-10 1e-10 1e-10 1e-10 1e-10 1e-10 1e-10 1e-10 1e-10
          1e-10 1e-10 1e-10 1e-10 1e-10 1e-10 1e-10 1e-10 1e-10 1e-10 1e-10 1e-10
          1e-10 1e-10 1e-10 1e-10 1e-10 1e-10 1e-10 1e-10 1e-10 1e-10 1e-10 1e-10
          1e-10 1e-10 1e-10 1e-10 1e-10 1e-10 1e-10 1e-10 1e-10 1e-10 1e-10 1e-10
          1e-10 1e-10 1e-10 1e-10 1e-10 1e-10 1e-10 1e-10 1e-10 1e-10 1e-10 1e-10
          1e-10 1e-10 1e-10 1e-10 1e-10 1e-10 1e-10 1e-10 1e-10 1e-10 1e-10 1e-10
          1e-10 1e-10 1e-10 1e-10 1e-10 1e-10 1e-10 1e-10 1e-10 1e-10 1e-10 1e-10
        </DataArray>
        <DataArray type="Float32" Name="x^H2O_g" NumberOfComponents="1" format="ascii">
          0.0282497 0.0282498 0.0282498 0.0282498 0.0282499 0.0282499 0.0282499 0.02825 0.02825 0.02825 0.0282501 0.0282501
          0.0282501 0.0282502 0.0282502 0.0282502 0.0282503 0.0282503 0.0282503 0.0282504 0.0282504 0.0282504 0.0282505 0.0282505
          0.0282505 0.0282506 0.0282506 0.0282506 0.0282507 0.0282507 0.0282507 0.0282508 0.0282508 0.0282508 0.0282509 0.0282509
          0.0282509 0.028251 0.028251 0.028251 0.0282511 0.0282511 0.0282511 0.0282512 0.0282512 0.0282512 0.0282513 0.0282513
          0.0282513 0.0282514 0.0282514 0.0282514 0.0282515 0.0282515 0.0282515 0.0282516 0.0282516 0.0282516 0.0282517 0.0282517
          0.0282517 0.0282518 0.0282518 0.0282518 0.0282519 0.0282519 0.0282519 0.028252 0.028252 0.028252 0.0282521 0.0282521
          0.0282521 0.0282522 0.0282522 0.0282522 0.0282523 0.0282523 0.0282523 0.0282524 0.0282524 0.0282524 0.0282525 0.0282525
          0.0282525 0.0282526 0.0282526 0.0282526 0.0282527 0.0282527 0.0282502 0.0282471 0.028245 0.0282436 0.0282426 0.0282418
          0.0282411 0.0282406 0.0282402 0.0282398 0.0282395 0.0282393 0.0282391 0.0282389 0.0282388 0.0282386 0.0282385 0.0282384
          0.0282384 0.0282383 0.0282382 0.0282382 0.0282398 0.028258 0.0284555 0.0304953 0.0573396 0.702481 0.76251 0.999997
        </DataArray>
        <DataArray type="Float32" Name="x^xylene_g" NumberOfComponents="1" format="ascii">
          0.0098426 0.00984261 0.00984262 0.00984263 0.00984264 0.00984265 0.00984266 0.00984268 0.00984269 0.0098427 0.00984271 0.00984272
          0.00984273 0.00984275 0.00984276 0.00984277 0.00984278 0.00984279 0.0098428 0.00984281 0.00984283 0.00984284 0.00984285 0.00984286
          0.00984287 0.00984288 0.00984289 0.00984291 0.00984292 0.00984293 0.00984294 0.00984295 0.00984296 0.00984298 0.00984299 0.009843
          0.00984301 0.00984302 0.00984303 0.00984304 0.00984306 0.00984307 0.00984308 0.00984309 0.0098431 0.00984311 0.00984312 0.00984314
          0.00984315 0.00984316 0.00984317 0.00984318 0.00984319 0.0098432 0.00984322 0.00984323 0.00984324 0.00984325 0.00984326 0.00984327
          0.00984329 0.0098433 0.00984331 0.00984332 0.00984333 0.00984334 0.00984335 0.00984337 0.00984338 0.00984339 0.0098434 0.00984341
          0.00984342 0.00984343 0.00984345 0.00984346 0.00984347 0.00984348 0.00984349 0.0098435 0.00984351 0.00984353 0.00984354 0.00984355
          0.00984356 0.00984357 0.00984358 0.0098436 0.00984361 0.00984362 0.00984274 0.00984166 0.00984095 0.00984045 0.00984009 0.00983981
          0.0098396 0.00983942 0.00983927 0.00983915 0.00983904 0.00983895 0.00983888 0.00983881 0.00983876 0.00983872 0.00983869 0.00983866
          0.00983862 0.00983859 0.00983856 0.00983858 0.00983911 0.00984536 0.00991344 0.0106406 0.0197499 0.219413 0.237488 3.27257e-13
        </DataArray>
        <DataArray type="Float32" Name="x^Air_g" NumberOfComponents="1" format="ascii">
          0.961908 0.961908 0.961908 0.961908 0.961908 0.961907 0.961907 0.961907 0.961907 0.961907 0.961907 0.961907
          0.961907 0.961907 0.961907 0.961907 0.961907 0.961907 0.961907 0.961907 0.961907 0.961907 0.961907 0.961907
          0.961907 0.961907 0.961906 0.961906 0.961906 0.961906 0.961906 0.961906 0.961906 0.961906 0.961906 0.961906
          0.961906 0.961906 0.961906 0.961906 0.961906 0.961906 0.961906 0.961906 0.961906 0.961906 0.961906 0.961906
          0.961906 0.961905 0.961905 0.961905 0.961905 0.961905 0.961905 0.961905 0.961905 0.961905 0.961905 0.961905
          0.961905 0.961905 0.961905 0.961905 0.961905 0.961905 0.961905 0.961905 0.961905 0.961905 0.961905 0.961905
          0.961904 0.961904 0.961904 0.961904 0.961904 0.961904 0.961904 0.961904 0.961904 0.961904 0.961904 0.961904
          0.961904 0.961904 0.961904 0.961904 0.961904 0.961904 0.961907 0.961911 0.961914 0.961916 0.961917 0.961918
          0.961919 0.96192 0.96192 0.961921 0.961921 0.961922 0.961922 0.961922 0.961922 0.961923 0.961923 0.961923
          0.961923 0.961923 0.961923 0.961923 0.961921 0.961897 0.961631 0.958864 0.922911 0.0781063 2.80932e-06 2.93165e-06
        </DataArray>
        <DataArray type="Float32" Name="porosity" NumberOfComponents="1" format="ascii">
          0.46 0.46 0.46 0.46 0.46 0.46 0.46 0.46 0.46 0.46 0.46 0.46
          0.46 0.46 0.46 0.46 0.46 0.46 0.46 0.46 0.46 0.46 0.46 0.46
          0.46 0.46 0.46 0.46 0.46 0.46 0.46 0.46 0.46 0.46 0.46 0.46
          0.46 0.46 0.46 0.46 0.46 0.46 0.46 0.46 0.46 0.46 0.46 0.46
          0.46 0.46 0.46 0.46 0.46 0.46 0.46 0.46 0.46 0.46 0.46 0.46
          0.46 0.46 0.46 0.46 0.46 0.46 0.46 0.46 0.46 0.46 0.46 0.46
          0.46 0.46 0.46 0.46 0.46 0.46 0.46 0.46 0.46 0.46 0.46 0.46
          0.46 0.46 0.46 0.46 0.46 0.46 0.46 0.46 0.46 0.46 0.46 0.46
          0.46 0.46 0.46 0.46 0.46 0.46 0.46 0.46 0.46 0.46 0.46 0.46
          0.46 0.46 0.46 0.46 0.46 0.46 0.46 0.46 0.46 0.46 0.46 0.46
        </DataArray>
        <DataArray type="Float32" Name="temperature" NumberOfComponents="1" format="ascii">
          296.15 296.15 296.15 296.15 296.15 296.15 296.15 296.15 296.15 296.15 296.15 296.15
          296.15 296.15 296.15 296.15 296.15 296.15 296.15 296.15 296.15 296.15 296.15 296.15
          296.15 296.15 296.15 296.15 296.15 296.15 296.15 296.15 296.15 296.15 296.15 296.15
          296.15 296.15 296.15 296.15 296.15 296.15 296.15 296.15 296.15 296.15 296.15 296.15
          296.15 296.15 296.15 296.15 296.15 296.15 296.15 296.15 296.15 296.15 296.15 296.15
          296.15 296.15 296.15 296.15 296.15 296.15 296.15 296.15 296.15 296.15 296.15 296.15
          296.15 296.15 296.15 296.15 296.15 296.15 296.15 296.15 296.15 296.15 296.15 296.15
          296.15 296.15 296.15 296.15 296.15 296.15 296.15 296.15 296.15 296.15 296.15 296.15
          296.15 296.15 296.15 296.15 296.15 296.15 296.15 296.15 296.15 296.15 296.15 296.15
          296.15 296.15 296.15 296.15 296.151 296.162 296.278 297.477 308.493 363.142 365.397 372.82
        </DataArray>
        <DataArray type="Float32" Name="phase presence" NumberOfComponents="1" format="ascii">
          1 1 1 1 1 1 1 1 1 1 1 1
          1 1 1 1 1 1 1 1 1 1 1 1
          1 1 1 1 1 1 1 1 1 1 1 1
          1 1 1 1 1 1 1 1 1 1 1 1
          1 1 1 1 1 1 1 1 1 1 1 1
          1 1 1 1 1 1 1 1 1 1 1 1
          1 1 1 1 1 1 1 1 1 1 1 1
          1 1 1 1 1 1 1 1 1 1 1 1
          1 1 1 1 1 1 1 1 1 1 1 1
          1 1 1 1 1 1 1 1 1 1 1 6
        </DataArray>
        <DataArray type="Float32" Name="process rank" NumberOfComponents="1" format="ascii">
          0 0 0 0 0 0 0 0 0 0 0 0
          0 0 0 0 0 0 0 0 0 0 0 0
          0 0 0 0 0 0 0 0 0 0 0 0
          0 0 0 0 0 0 0 0 0 0 0 0
          0 0 0 0 0 0 0 0 0 0 0 0
          0 0 0 0 0 0 0 0 0 0 0 0
          0 0 0 0 0 0 0 0 0 0 0 0
          0 0 0 0 0 0 0 0 0 0 0 0
          0 0 0 0 0 0 0 0 0 0 0 0
          0 0 0 0 0 0 0 0 0 0 0 0
        </DataArray>
        <DataArray type="Float32" Name="permeability" NumberOfComponents="1" format="ascii">
          1.4e-08 1.4e-08 1.4e-08 1.4e-08 1.4e-08 1.4e-08 1.4e-08 1.4e-08 1.4e-08 1.4e-08 1.4e-08 1.4e-08
          1.4e-08 1.4e-08 1.4e-08 1.4e-08 1.4e-08 1.4e-08 1.4e-08 1.4e-08 1.4e-08 1.4e-08 1.4e-08 1.4e-08
          1.4e-08 1.4e-08 1.4e-08 1.4e-08 1.4e-08 1.4e-08 1.4e-08 1.4e-08 1.4e-08 1.4e-08 1.4e-08 1.4e-08
          1.4e-08 1.4e-08 1.4e-08 1.4e-08 1.4e-08 1.4e-08 1.4e-08 1.4e-08 1.4e-08 1.4e-08 1.4e-08 1.4e-08
          1.4e-08 1.4e-08 1.4e-08 1.4e-08 1.4e-08 1.4e-08 1.4e-08 1.4e-08 1.4e-08 1.4e-08 1.4e-08 1.4e-08
          1.4e-08 1.4e-08 1.4e-08 1.4e-08 1.4e-08 1.4e-08 1.4e-08 1.4e-08 1.4e-08 1.4e-08 1.4e-08 1.4e-08
          1.4e-08 1.4e-08 1.4e-08 1.4e-08 1.4e-08 1.4e-08 1.4e-08 1.4e-08 1.4e-08 1.4e-08 1.4e-08 1.4e-08
          1.4e-08 1.4e-08 1.4e-08 1.4e-08 1.4e-08 1.4e-08 1.4e-11 1.4e-11 1.4e-11 1.4e-11 1.4e-11 1.4e-11
          1.4e-11 1.4e-11 1.4e-11 1.4e-11 1.4e-11 1.4e-11 1.4e-11 1.4e-11 1.4e-11 1.4e-11 1.4e-11 1.4e-11
          1.4e-11 1.4e-11 1.4e-11 1.4e-11 1.4e-11 1.4e-11 1.4e-11 1.4e-11 1.4e-11 1.4e-11 1.4e-11 1.4e-11
        </DataArray>
      </CellData>
      <Points>
        <DataArray type="Float32" Name="Coordinates" NumberOfComponents="3" format="ascii">
          0 0 0 0.1 0 0 0 0.01 0 0.1 0.01 0
          0 0.02 0 0.1 0.02 0 0 0.03 0 0.1 0.03 0
          0 0.04 0 0.1 0.04 0 0 0.05 0 0.1 0.05 0
          0 0.06 0 0.1 0.06 0 0 0.07 0 0.1 0.07 0
          0 0.08 0 0.1 0.08 0 0 0.09 0 0.1 0.09 0
          0 0.1 0 0.1 0.1 0 0 0.11 0 0.1 0.11 0
          0 0.12 0 0.1 0.12 0 0 0.13 0 0.1 0.13 0
          0 0.14 0 0.1 0.14 0 0 0.15 0 0.1 0.15 0
          0 0.16 0 0.1 0.16 0 0 0.17 0 0.1 0.17 0
          0 0.18 0 0.1 0.18 0 0 0.19 0 0.1 0.19 0
          0 0.2 0 0.1 0.2 0 0 0.21 0 0.1 0.21 0
          0 0.22 0 0.1 0.22 0 0 0.23 0 0.1 0.23 0
          0 0.24 0 0.1 0.24 0 0 0.25 0 0.1 0.25 0
          0 0.26 0 0.1 0.26 0 0 0.27 0 0.1 0.27 0
          0 0.28 0 0.1 0.28 0 0 0.29 0 0.1 0.29 0
          0 0.3 0 0.1 0.3 0 0 0.31 0 0.1 0.31 0
          0 0.32 0 0.1 0.32 0 0 0.33 0 0.1 0.33 0
          0 0.34 0 0.1 0.34 0 0 0.35 0 0.1 0.35 0
          0 0.36 0 0.1 0.36 0 0 0.37 0 0.1 0.37 0
          0 0.38 0 0.1 0.38 0 0 0.39 0 0.1 0.39 0
          0 0.4 0 0.1 0.4 0 0 0.41 0 0.1 0.41 0
          0 0.42 0 0.1 0.42 0 0 0.43 0 0.1 0.43 0
          0 0.44 0 0.1 0.44 0 0 0.45 0 0.1 0.45 0
          0 0.46 0 0.1 0.46 0 0 0.47 0 0.1 0.47 0
          0 0.48 0 0.1 0.48 0 0 0.49 0 0.1 0.49 0
          0 0.5 0 0.1 0.5 0 0 0.51 0 0.1 0.51 0
          0 0.52 0 0.1 0.52 0 0 0.53 0 0.1 0.53 0
          0 0.54 0 0.1 0.54 0 0 0.55 0 0.1 0.55 0
          0 0.56 0 0.1 0.56 0 0 0.57 0 0.1 0.57 0
          0 0.58 0 0.1 0.58 0 0 0.59 0 0.1 0.59 0
          0 0.6 0 0.1 0.6 0 0 0.61 0 0.1 0.61 0
          0 0.62 0 0.1 0.62 0 0 0.63 0 0.1 0.63 0
          0 0.64 0 0.1 0.64 0 0 0.65 0 0.1 0.65 0
          0 0.66 0 0.1 0.66 0 0 0.67 0 0.1 0.67 0
          0 0.68 0 0.1 0.68 0 0 0.69 0 0.1 0.69 0
          0 0.7 0 0.1 0.7 0 0 0.71 0 0.1 0.71 0
          0 0.72 0 0.1 0.72 0 0 0.73 0 0.1 0.73 0
          0 0.74 0 0.1 0.74 0 0 0.75 0 0.1 0.75 0
          0 0.76 0 0.1 0.76 0 0 0.77 0 0.1 0.77 0
          0 0.78 0 0.1 0.78 0 0 0.79 0 0.1 0.79 0
          0 0.8 0 0.1 0.8 0 0 0.81 0 0.1 0.81 0
          0 0.82 0 0.1 0.82 0 0 0.83 0 0.1 0.83 0
          0 0.84 0 0.1 0.84 0 0 0.85 0 0.1 0.85 0
          0 0.86 0 0.1 0.86 0 0 0.87 0 0.1 0.87 0
          0 0.88 0 0.1 0.88 0 0 0.89 0 0.1 0.89 0
          0 0.9 0 0.1 0.9 0 0 0.91 0 0.1 0.91 0
          0 0.92 0 0.1 0.92 0 0 0.93 0 0.1 0.93 0
          0 0.94 0 0.1 0.94 0 0 0.95 0 0.1 0.95 0
          0 0.96 0 0.1 0.96 0 0 0.97 0 0.1 0.97 0
          0 0.98 0 0.1 0.98 0 0 0.99 0 0.1 0.99 0
          0 1 0 0.1 1 0 0 1.01 0 0.1 1.01 0
          0 1.02 0 0.1 1.02 0 0 1.03 0 0.1 1.03 0
          0 1.04 0 0.1 1.04 0 0 1.05 0 0.1 1.05 0
          0 1.06 0 0.1 1.06 0 0 1.07 0 0.1 1.07 0
          0 1.08 0 0.1 1.08 0 0 1.09 0 0.1 1.09 0
          0 1.1 0 0.1 1.1 0 0 1.11 0 0.1 1.11 0
          0 1.12 0 0.1 1.12 0 0 1.13 0 0.1 1.13 0
          0 1.14 0 0.1 1.14 0 0 1.15 0 0.1 1.15 0
          0 1.16 0 0.1 1.16 0 0 1.17 0 0.1 1.17 0
          0 1.18 0 0.1 1.18 0 0 1.19 0 0.1 1.19 0
          0 1.2 0 0.1 1.2 0
        </DataArray>
      </Points>
      <Cells>
        <DataArray type="Int32" Name="connectivity" NumberOfComponents="1" format="ascii">
          0 1 3 2 2 3 5 4 4 5 7 6
          6 7 9 8 8 9 11 10 10 11 13 12
          12 13 15 14 14 15 17 16 16 17 19 18
          18 19 21 20 20 21 23 22 22 23 25 24
          24 25 27 26 26 27 29 28 28 29 31 30
          30 31 33 32 32 33 35 34 34 35 37 36
          36 37 39 38 38 39 41 40 40 41 43 42
          42 43 45 44 44 45 47 46 46 47 49 48
          48 49 51 50 50 51 53 52 52 53 55 54
          54 55 57 56 56 57 59 58 58 59 61 60
          60 61 63 62 62 63 65 64 64 65 67 66
          66 67 69 68 68 69 71 70 70 71 73 72
          72 73 75 74 74 75 77 76 76 77 79 78
          78 79 81 80 80 81 83 82 82 83 85 84
          84 85 87 86 86 87 89 88 88 89 91 90
          90 91 93 92 92 93 95 94 94 95 97 96
          96 97 99 98 98 99 101 100 100 101 103 102
          102 103 105 104 104 105 107 106 106 107 109 108
          108 109 111 110 110 111 113 112 112 113 115 114
          114 115 117 116 116 117 119 118 118 119 121 120
          120 121 123 122 122 123 125 124 124 125 127 126
          126 127 129 128 128 129 131 130 130 131 133 132