<?xml version="1.0"?>
<VTKFile type="UnstructuredGrid" version="0.1" byte_order="LittleEndian">
  <UnstructuredGrid>
    <Piece NumberOfCells="120" NumberOfPoints="242">
      <PointData Scalars="S_w">
        <DataArray type="Float32" Name="S_w" NumberOfComponents="1" format="ascii">
          0.005 0.005 0.005 0.005 0.005 0.005 0.005 0.005 0.005 0.005 0.005 0.005
          0.005 0.005 0.005 0.005 0.005 0.005 0.005 0.005 0.005 0.005 0.005 0.005
          0.005 0.005 0.005 0.005 0.005 0.005 0.005 0.005 0.005 0.005 0.005 0.005
          0.005 0.005 0.005 0.005 0.005 0.005 0.005 0.005 0.005 0.005 0.005 0.005
          0.005 0.005 0.005 0.005 0.005 0.005 0.005 0.005 0.005 0.005 0.005 0.005
          0.005 0.005 0.005 0.005 0.005 0.005 0.005 0.005 0.005 0.005 0.005 0.005
          0.005 0.005 0.005 0.005 0.005 0.005 0.005 0.005 0.005 0.005 0.005 0.005
          0.005 0.005 0.005 0.005 0.005 0.005 0.005 0.005 0.005 0.005 0.005 0.005
          0.005 0.005 0.005 0.005 0.005 0.005 0.005 0.005 0.005 0.005 0.005 0.005
          0.005 0.005 0.005 0.005 0.005 0.005 0.005 0.005 0.005 0.005 0.005 0.005
          0.005 0.005 0.005 0.005 0.005 0.005 0.005 0.005 0.005 0.005 0.005 0.005
          0.005 0.005 0.005 0.005 0.005 0.005 0.005 0.005 0.005 0.005 0.005 0.005
          0.005 0.005 0.005 0.005 0.005 0.005 0.005 0.005 0.005 0.005 0.005 0.005
          0.005 0.005 0.005 0.005 0.005 0.005 0.005 0.005 0.005 0.005 0.005 0.005
          0.005 0.005 0.005 0.005 0.005 0.005 0.005 0.005 0.005 0.005 0.00499994 0.00499994
          0.00499998 0.00499998 0.00499999 0.00499999 0.00499999 0.00499999 0.00499999 0.00499999 0.00499999 0.00499999 0.00499999 0.00499999
          0.00499999 0.00499999 0.005 0.005 0.005 0.005 0.00500001 0.00500001 0.00500001 0.00500001 0.00500001 0.00500001
          0.00500001 0.00500001 0.005 0.005 0.005 0.005 0.005 0.005 0.005 0.005 0.005 0.005
          0.005 0.005 0.005 0.005 0.005 0.005 0.005 0.005 0.00500001 0.00500001 0.00500006 0.00500006
          0.00500072 0.00500072 0.00500906 0.00500906 0.00522205 0.00522205 0.033731 0.033731 0.0757099 0.0757099 0.14603 0.14603
          0.165966 0.165966
        </DataArray>
        <DataArray type="Float32" Name="S_n" NumberOfComponents="1" format="ascii">
          0.0001 0.0001 0.0001 0.0001 0.0001 0.0001 0.0001 0.0001 9.99999e-05 9.99999e-05 9.99999e-05 9.99999e-05
          9.99998e-05 9.99998e-05 9.99997e-05 9.99997e-05 9.99997e-05 9.99997e-05 9.99996e-05 9.99996e-05 9.99996e-05 9.99996e-05 9.99995e-05 9.99995e-05
          9.99994e-05 9.99994e-05 9.99994e-05 9.99994e-05 9.99993e-05 9.99993e-05 9.99993e-05 9.99993e-05 9.99992e-05 9.99992e-05 9.99991e-05 9.99991e-05
          9.99991e-05 9.99991e-05 9.9999e-05 9.9999e-05 9.9999e-05 9.9999e-05 9.99989e-05 9.99989e-05 9.99988e-05 9.99988e-05 9.99988e-05 9.99988e-05
          9.99987e-05 9.99987e-05 9.99987e-05 9.99987e-05 9.99986e-05 9.99986e-05 9.99985e-05 9.99985e-05 9.99985e-05 9.99985e-05 9.99984e-05 9.99984e-05
          9.99984e-05 9.99984e-05 9.99983e-05 9.99983e-05 9.99983e-05 9.99983e-05 9.99982e-05 9.99982e-05 9.99981e-05 9.99981e-05 9.99981e-05 9.99981e-05
          9.9998e-05 9.9998e-05 9.9998e-05 9.9998e-05 9.99979e-05 9.99979e-05 9.99978e-05 9.99978e-05 9.99978e-05 9.99978e-05 9.99977e-05 9.99977e-05
          9.99977e-05 9.99977e-05 9.99976e-05 9.99976e-05 9.99975e-05 9.99975e-05 9.99975e-05 9.99975e-05 9.99974e-05 9.99974e-05 9.99974e-05 9.99974e-05
          9.99973e-05 9.99973e-05 9.99972e-05 9.99972e-05 9.99972e-05 9.99972e-05 9.99971e-05 9.99971e-05 9.99971e-05 9.99971e-05 9.9997e-05 9.9997e-05
          9.99969e-05 9.99969e-05 9.99969e-05 9.99969e-05 9.99968e-05 9.99968e-05 9.99968e-05 9.99968e-05 9.99967e-05 9.99967e-05 9.99966e-05 9.99966e-05
          9.99966e-05 9.99966e-05 9.99965e-05 9.99965e-05 9.99965e-05 9.99965e-05 9.99964e-05 9.99964e-05 9.99963e-05 9.99963e-05 9.99963e-05 9.99963e-05
          9.99962e-05 9.99962e-05 9.99962e-05 9.99962e-05 9.99961e-05 9.99961e-05 9.9996e-05 9.9996e-05 9.9996e-05 9.9996e-05 9.99959e-05 9.99959e-05
          9.99959e-05 9.99959e-05 9.99958e-05 9.99958e-05 9.99957e-05 9.99957e-05 9.99957e-05 9.99957e-05 9.99956e-05 9.99956e-05 9.99956e-05 9.99956e-05
          9.99955e-05 9.99955e-05 9.99955e-05 9.99955e-05 9.99954e-05 9.99954e-05 9.99953e-05 9.99953e-05 9.99953e-05 9.99953e-05 9.99952e-05 9.99952e-05
          9.99952e-05 9.99952e-05 9.99951e-05 9.99951e-05 9.9995e-05 9.9995e-05 9.9995e-05 9.9995e-05 9.99948e-05 9.99948e-05 9.98472e-05 9.98472e-05
          0.913522 0.913522 0.89001 0.89001 0.863301 0.863301 0.833614 0.833614 0.801226 0.801226 0.766437 0.766437
          0.729535 0.729535 0.690772 0.690772 0.65034 0.65034 0.608354 0.608354 0.564845 0.564845 0.519776 0.519776
          0.473096 0.473096 0.424859 0.424859 0.375475 0.375475 0.326155 0.326155 0.279588 0.279588 0.240316 0.240316
          0.212329 0.212329 0.193723 0.193723 0.179621 0.179621 0.167565 0.167565 0.156847 0.156847 0.147057 0.147057
          0.138104 0.138104 0.130326 0.130326 0.155334 0.155334 0.207207 0.207207 0.145383 0.145383 0 0
          0 0
        </DataArray>
        <DataArray type="Float32" Name="S_g" NumberOfComponents="1" format="ascii">
          0.9949 0.9949 0.9949 0.9949 0.9949 0.9949 0.9949 0.9949 0.9949 0.9949 0.9949 0.9949
          0.9949 0.9949 0.9949 0.9949 0.9949 0.9949 0.9949 0.9949 0.9949 0.9949 0.9949 0.9949
          0.9949 0.9949 0.9949 0.9949 0.9949 0.9949 0.9949 0.9949 0.9949 0.9949 0.9949 0.9949
          0.9949 0.9949 0.9949 0.9949 0.9949 0.9949 0.9949 0.9949 0.9949 0.9949 0.9949 0.9949
          0.9949 0.9949 0.9949 0.9949 0.9949 0.9949 0.9949 0.9949 0.9949 0.9949 0.9949 0.9949
          0.9949 0.9949 0.9949 0.9949 0.9949 0.9949 0.9949 0.9949 0.9949 0.9949 0.9949 0.9949
          0.9949 0.9949 0.9949 0.9949 0.9949 0.9949 0.9949 0.9949 0.9949 0.9949 0.9949 0.9949
          0.9949 0.9949 0.9949 0.9949 0.9949 0.9949 0.9949 0.9949 0.9949 0.9949 0.9949 0.9949
          0.9949 0.9949 0.9949 0.9949 0.9949 0.9949 0.9949 0.9949 0.9949 0.9949 0.9949 0.9949
          0.9949 0.9949 0.9949 0.9949 0.9949 0.9949 0.9949 0.9949 0.9949 0.9949 0.9949 0.9949
          0.9949 0.9949 0.9949 0.9949 0.9949 0.9949 0.9949 0.9949 0.9949 0.9949 0.9949 0.9949
          0.9949 0.9949 0.9949 0.9949 0.9949 0.9949 0.9949 0.9949 0.9949 0.9949 0.9949 0.9949
          0.9949 0.9949 0.9949 0.9949 0.9949 0.9949 0.9949 0.9949 0.9949 0.9949 0.9949 0.9949
          0.9949 0.9949 0.9949 0.9949 0.9949 0.9949 0.9949 0.9949 0.9949 0.9949 0.9949 0.9949
          0.9949 0.9949 0.9949 0.9949 0.9949 0.9949 0.9949 0.9949 0.9949 0.9949 0.9949 0.9949
          0.0814781 0.0814781 0.10499 0.10499 0.131699 0.131699 0.161386 0.161386 0.193774 0.193774 0.228564 0.228564
          0.265465 0.265465 0.304228 0.304228 0.34466 0.34466 0.386646 0.386646 0.430155 0.430155 0.475224 0.475224
          0.521904 0.521904 0.570141 0.570141 0.619525 0.619525 0.668845 0.668845 0.715412 0.715412 0.754684 0.754684
          0.782671 0.782671 0.801277 0.801277 0.815379 0.815379 0.827435 0.827435 0.838153 0.838153 0.847943 0.847943
          0.856896 0.856896 0.864665 0.864665 0.839444 0.839444 0.759062 0.759062 0.778907 0.778907 0.85397 0.85397
          0.834034 0.834034
        </DataArray>
        <DataArray type="Float32" Name="p_w" NumberOfComponents="1" format="ascii">
          99947.1 99947.1 99947 99947 99946.9 99946.9 99946.8 99946.8 99946.6 99946.6 99946.5 99946.5
          99946.4 99946.4 99946.3 99946.3 99946.2 99946.2 99946.1 99946.1 99945.9 99945.9 99945.8 99945.8
          99945.7 99945.7 99945.6 99945.6 99945.5 99945.5 99945.4 99945.4 99945.2 99945.2 99945.1 99945.1
          99945 99945 99944.9 99944.9 99944.8 99944.8 99944.7 99944.7 99944.5 99944.5 99944.4 99944.4
          99944.3 99944.3 99944.2 99944.2 99944.1 99944.1 99944 99944 99943.8 99943.8 99943.7 99943.7
          99943.6 99943.6 99943.5 99943.5 99943.4 99943.4 99943.3 99943.3 99943.1 99943.1 99943 99943
          99942.9 99942.9 99942.8 99942.8 99942.7 99942.7 99942.6 99942.6 99942.4 99942.4 99942.3 99942.3
          99942.2 99942.2 99942.1 99942.1 99942 99942 99941.9 99941.9 99941.7 99941.7 99941.6 99941.6
          99941.5 99941.5 99941.4 99941.4 99941.3 99941.3 99941.1 99941.1 99941 99941 99940.9 99940.9
          99940.8 99940.8 99940.7 99940.7 99940.6 99940.6 99940.4 99940.4 99940.3 99940.3 99940.2 99940.2
          99940.1 99940.1 99940 99940 99939.9 99939.9 99939.8 99939.8 99939.6 99939.6 99939.5 99939.5
          99939.4 99939.4 99939.3 99939.3 99939.2 99939.2 99939 99939 99938.9 99938.9 99938.8 99938.8
          99938.7 99938.7 99938.6 99938.6 99938.5 99938.5 99938.3 99938.3 99938.2 99938.2 99938.1 99938.1
          99938 99938 99937.9 99937.9 99937.8 99937.8 99937.6 99937.6 99937.5 99937.5 99937.4 99937.4
          99937.3 99937.3 99937.2 99937.2 99937.1 99937.1 99936.9 99936.9 99936.8 99936.8 99936.7 99936.7
          45893.5 45893.5 45807.4 45807.4 45720.1 45720.1 45631.8 45631.8 45542.3 45542.3 45451.2 45451.2
          45357.9 45357.9 45261.4 45261.4 45160.4 45160.4 45053.1 45053.1 44937.2 44937.2 44809 44809
          44663.8 44663.8 44494.4 44494.4 44290.8 44290.8 44040.4 44040.4 43731.9 43731.9 43375.1 43375.1
          43021.6 43021.6 42705.3 42705.3 42392.9 42392.9 42045.6 42045.6 41635.4 41635.4 41116.9 41116.9
          40416.2 40416.2 39429.5 39429.5 41655 41655 53447.5 53447.5 68069 68069 93722 93722
          94949.9 94949.9
        </DataArray>
        <DataArray type="Float32" Name="p_n" NumberOfComponents="1" format="ascii">
          99947.1 99947.1 99947 99947 99946.9 99946.9 99946.8 99946.8 99946.6 99946.6 99946.5 99946.5
          99946.4 99946.4 99946.3 99946.3 99946.2 99946.2 99946.1 99946.1 99945.9 99945.9 99945.8 99945.8
          99945.7 99945.7 99945.6 99945.6 99945.5 99945.5 99945.4 99945.4 99945.2 99945.2 99945.1 99945.1
          99945 99945 99944.9 99944.9 99944.8 99944.8 99944.7 99944.7 99944.5 99944.5 99944.4 99944.4
          99944.3 99944.3 99944.2 99944.2 99944.1 99944.1 99944 99944 99943.8 99943.8 99943.7 99943.7
          99943.6 99943.6 99943.5 99943.5 99943.4 99943.4 99943.3 99943.3 99943.1 99943.1 99943 99943
          99942.9 99942.9 99942.8 99942.8 99942.7 99942.7 99942.6 99942.6 99942.4 99942.4 99942.3 99942.3
          99942.2 99942.2 99942.1 99942.1 99942 99942 99941.9 99941.9 99941.7 99941.7 99941.6 99941.6
          99941.5 99941.5 99941.4 99941.4 99941.3 99941.3 99941.1 99941.1 99941 99941 99940.9 99940.9
          99940.8 99940.8 99940.7 99940.7 99940.6 99940.6 99940.4 99940.4 99940.3 99940.3 99940.2 99940.2
          99940.1 99940.1 99940 99940 99939.9 99939.9 99939.8 99939.8 99939.6 99939.6 99939.5 99939.5
          99939.4 99939.4 99939.3 99939.3 99939.2 99939.2 99939 99939 99938.9 99938.9 99938.8 99938.8
          99938.7 99938.7 99938.6 99938.6 99938.5 99938.5 99938.3 99938.3 99938.2 99938.2 99938.1 99938.1
          99938 99938 99937.9 99937.9 99937.8 99937.8 99937.6 99937.6 99937.5 99937.5 99937.4 99937.4
          99937.3 99937.3 99937.2 99937.2 99937.1 99937.1 99936.9 99936.9 99936.8 99936.8 99936.7 99936.7
          98774.7 98774.7 98688.5 98688.5 98601.2 98601.2 98512.9 98512.9 98423.4 98423.4 98332.3 98332.3
          98239 98239 98142.5 98142.5 98041.5 98041.5 97934.2 97934.2 97818.3 97818.3 97690.1 97690.1
          97544.9 97544.9 97375.5 97375.5 97172 97172 96921.5 96921.5 96613 96613 96256.2 96256.2
          95902.8 95902.8 95586.4 95586.4 95274 95274 94926.7 94926.7 94516.5 94516.5 93998 93998
          93297 93297 92307.4 92307.4 94457.9 94457.9 96209.4 96209.4 96045.8 96045.8 93722 93722
          94949.9 94949.9
        </DataArray>
        <DataArray type="Float32" Name="p_g" NumberOfComponents="1" format="ascii">
          100000 100000 99999.9 99999.9 99999.8 99999.8 99999.6 99999.6 99999.5 99999.5 99999.4 99999.4
          99999.3 99999.3 99999.2 99999.2 99999.1 99999.1 99998.9 99998.9 99998.8 99998.8 99998.7 99998.7
          99998.6 99998.6 99998.5 99998.5 99998.4 99998.4 99998.2 99998.2 99998.1 99998.1 99998 99998
          99997.9 99997.9 99997.8 99997.8 99997.7 99997.7 99997.5 99997.5 99997.4 99997.4 99997.3 99997.3
          99997.2 99997.2 99997.1 99997.1 99997 99997 99996.8 99996.8 99996.7 99996.7 99996.6 99996.6
          99996.5 99996.5 99996.4 99996.4 99996.3 99996.3 99996.1 99996.1 99996 99996 99995.9 99995.9
          99995.8 99995.8 99995.7 99995.7 99995.6 99995.6 99995.4 99995.4 99995.3 99995.3 99995.2 99995.2
          99995.1 99995.1 99995 99995 99994.9 99994.9 99994.7 99994.7 99994.6 99994.6 99994.5 99994.5
          99994.4 99994.4 99994.3 99994.3 99994.1 99994.1 99994 99994 99993.9 99993.9 99993.8 99993.8
          99993.7 99993.7 99993.6 99993.6 99993.4 99993.4 99993.3 99993.3 99993.2 99993.2 99993.1 99993.1
          99993 99993 99992.9 99992.9 99992.7 99992.7 99992.6 99992.6 99992.5 99992.5 99992.4 99992.4
          99992.3 99992.3 99992.2 99992.2 99992 99992 99991.9 99991.9 99991.8 99991.8 99991.7 99991.7
          99991.6 99991.6 99991.5 99991.5 99991.3 99991.3 99991.2 99991.2 99991.1 99991.1 99991 99991
          99990.9 99990.9 99990.8 99990.8 99990.6 99990.6 99990.5 99990.5 99990.4 99990.4 99990.3 99990.3
          99990.2 99990.2 99990.1 99990.1 99989.9 99989.9 99989.8 99989.8 99989.7 99989.7 99989.6 99989.6
          99994.3 99994.3 99999.5 99999.5 100003 100003 100005 100005 100007 100007 100008 100008
          100009 100009 100010 100010 100011 100011 100011 100011 100012 100012 100012 100012
          100012 100012 100012 100012 100013 100013 100013 100013 100013 100013 100013 100013
          100013 100013 100013 100013 100013 100013 100013 100013 100013 100013 100013 100013
          100013 100013 100013 100013 100013 100013 100014 100014 100101 100101 100174 100174
          100274 100274
        </DataArray>
        <DataArray type="Float32" Name="rho_w" NumberOfComponents="1" format="ascii">
          997.661 997.661 997.661 997.661 997.661 997.661 997.661 997.661 997.661 997.661 997.661 997.661
          997.661 997.661 997.661 997.661 997.661 997.661 997.661 997.661 997.661 997.661 997.661 997.661
          997.661 997.661 997.661 997.661 997.661 997.661 997.661 997.661 997.661 997.661 997.661 997.661
          997.661 997.661 997.661 997.661 997.661 997.661 997.661 997.661 997.661 997.661 997.661 997.661
          997.661 997.661 997.661 997.661 997.661 997.661 997.661 997.661 997.661 997.661 997.661 997.661
          997.661 997.661 997.661 997.661 997.661 997.661 997.661 997.661 997.661 997.661 997.661 997.661
          997.661 997.661 997.661 997.661 997.661 997.661 997.661 997.661 997.661 997.661 997.661 997.661
          997.661 997.661 997.661 997.661 997.661 997.661 997.661 997.661 997.661 997.661 997.661 997.661
          997.661 997.661 997.661 997.661 997.661 997.661 997.661 997.661 997.661 997.661 997.661 997.661
          997.661 997.661 997.661 997.661 997.661 997.661 997.661 997.661 997.661 997.661 997.661 997.661
          997.661 997.661 997.661 997.661 997.661 997.661 997.661 997.661 997.661 997.661 997.661 997.661
          997.661 997.661 997.661 997.661 997.661 997.661 997.661 997.661 997.661 997.661 997.661 997.661
          997.661 997.661 997.661 997.661 997.661 997.661 997.661 997.661 997.661 997.661 997.661 997.661
          997.661 997.661 997.661 997.661 997.661 997.661 997.661 997.661 997.661 997.661 997.661 997.661
          997.661 997.661 997.661 997.661 997.661 997.661 997.661 997.661 997.661 997.661 997.661 997.661
          997.637 997.637 997.637 997.637 997.637 997.637 997.637 997.637 997.637 997.637 997.637 997.637
          997.637 997.637 997.637 997.637 997.637 997.637 997.637 997.637 997.637 997.637 997.637 997.637
          997.636 997.636 997.636 997.636 997.636 997.636 997.636 997.636 997.636 997.636 997.636 997.636
          997.636 997.636 997.636 997.636 997.635 997.635 997.635 997.635 997.635 997.635 997.634 997.634
          997.625 997.625 997.519 997.519 996.217 996.217 980.936 980.936 967.239 967.239 964.715 964.715
          958.813 958.813
        </DataArray>
        <DataArray type="Float32" Name="rho_n" NumberOfComponents="1" format="ascii">
          860.465 860.465 860.465 860.465 860.465 860.465 860.465 860.465 860.465 860.465 860.465 860.465
          860.465 860.465 860.465 860.465 860.465 860.465 860.465 860.465 860.465 860.465 860.465 860.465
          860.465 860.465 860.465 860.465 860.465 860.465 860.465 860.465 860.465 860.465 860.465 860.465
          860.465 860.465 860.465 860.465 860.465 860.465 860.465 860.465 860.465 860.465 860.465 860.465
          860.465 860.465 860.465 860.465 860.465 860.465 860.465 860.465 860.465 860.465 860.465 860.465
          860.465 860.465 860.465 860.465 860.465 860.465 860.465 860.465 860.465 860.465 860.465 860.465
          860.465 860.465 860.465 860.465 860.465 860.465 860.465 860.465 860.465 860.465 860.465 860.465
          860.465 860.465 860.465 860.465 860.465 860.465 860.465 860.465 860.465 860.465 860.465 860.465
          860.465 860.465 860.465 860.465 860.465 860.465 860.465 860.465 860.465 860.465 860.465 860.465
          860.465 860.465 860.465 860.465 860.465 860.465 860.465 860.465 860.465 860.465 860.465 860.465
          860.465 860.465 860.465 860.465 860.465 860.465 860.465 860.465 860.465 860.465 860.465 860.465
          860.465 860.465 860.465 860.465 860.465 860.465 860.465 860.465 860.465 860.465 860.465 860.465
          860.465 860.465 860.465 860.465 860.465 860.465 860.465 860.465 860.465 860.465 860.465 860.465
          860.465 860.465 860.465 860.465 860.465 860.465 860.465 860.465 860.465 860.465 860.465 860.465
          860.465 860.465 860.465 860.465 860.465 860.465 860.465 860.465 860.465 860.465 860.465 860.465
          860.465 860.465 860.465 860.465 860.465 860.465 860.465 860.465 860.465 860.465 860.465 860.465
          860.465 860.465 860.465 860.465 860.465 860.465 860.465 860.465 860.465 860.465 860.465 860.465
          860.465 860.465 860.465 860.465 860.465 860.465 860.465 860.465 860.465 860.465 860.465 860.465
          860.465 860.465 860.465 860.465 860.465 860.465 860.465 860.465 860.465 860.465 860.462 860.462
          860.428 860.428 860.036 860.036 855.637 855.637 822.241 822.241 798.951 798.951 796.369 796.369
          791.297 791.297
        </DataArray>
        <DataArray type="Float32" Name="rho_g" NumberOfComponents="1" format="ascii">
          1.19439 1.19439 1.19439 1.19439 1.19439 1.19439 1.19439 1.19439 1.19439 1.19439 1.19438 1.19438
          1.19438 1.19438 1.19438 1.19438 1.19438 1.19438 1.19438 1.19438 1.19438 1.19438 1.19438 1.19438
          1.19437 1.19437 1.19437 1.19437 1.19437 1.19437 1.19437 1.19437 1.19437 1.19437 1.19437 1.19437
          1.19437 1.19437 1.19437 1.19437 1.19436 1.19436 1.19436 1.19436 1.19436 1.19436 1.19436 1.19436
          1.19436 1.19436 1.19436 1.19436 1.19436 1.19436 1.19435 1.19435 1.19435 1.19435 1.19435 1.19435
          1.19435 1.19435 1.19435 1.19435 1.19435 1.19435 1.19435 1.19435 1.19434 1.19434 1.19434 1.19434
          1.19434 1.19434 1.19434 1.19434 1.19434 1.19434 1.19434 1.19434 1.19434 1.19434 1.19433 1.19433
          1.19433 1.19433 1.19433 1.19433 1.19433 1.19433 1.19433 1.19433 1.19433 1.19433 1.19433 1.19433
          1.19433 1.19433 1.19432 1.19432 1.19432 1.19432 1.19432 1.19432 1.19432 1.19432 1.19432 1.19432
          1.19432 1.19432 1.19432 1.19432 1.19431 1.19431 1.19431 1.19431 1.19431 1.19431 1.19431 1.19431
          1.19431 1.19431 1.19431 1.19431 1.19431 1.19431 1.1943 1.1943 1.1943 1.1943 1.1943 1.1943
          1.1943 1.1943 1.1943 1.1943 1.1943 1.1943 1.1943 1.1943 1.1943 1.1943 1.19429 1.19429
          1.19429 1.19429 1.19429 1.19429 1.19429 1.19429 1.19429 1.19429 1.19429 1.19429 1.19429 1.19429
          1.19428 1.19428 1.19428 1.19428 1.19428 1.19428 1.19428 1.19428 1.19428 1.19428 1.19428 1.19428
          1.19428 1.19428 1.19427 1.19427 1.19427 1.19427 1.19427 1.19427 1.19427 1.19427 1.19427 1.19427
          1.19433 1.19433 1.19439 1.19439 1.19443 1.19443 1.19446 1.19446 1.19448 1.19448 1.19449 1.19449
          1.1945 1.1945 1.19451 1.19451 1.19452 1.19452 1.19452 1.19452 1.19453 1.19453 1.19453 1.19453
          1.19454 1.19454 1.19454 1.19454 1.19454 1.19454 1.19454 1.19454 1.19454 1.19454 1.19454 1.19454
          1.19454 1.19454 1.19454 1.19454 1.19454 1.19454 1.19454 1.19454 1.19454 1.19454 1.19453 1.19453
          1.19442 1.19442 1.19308 1.19308 1.17919 1.17919 1.16093 1.16093 1.28186 1.28186 1.11332 1.11332
          0.611265 0.611265
        </DataArray>
        <DataArray type="Float32" Name="x^H2O_w" NumberOfComponents="1" format="ascii">
          0.99996 0.99996 0.99996 0.99996 0.99996 0.99996 0.99996 0.99996 0.99996 0.99996 0.99996 0.99996
          0.99996 0.99996 0.99996 0.99996 0.99996 0.99996 0.99996 0.99996 0.99996 0.99996 0.99996 0.99996
          0.99996 0.99996 0.99996 0.99996 0.99996 0.99996 0.99996 0.99996 0.99996 0.99996 0.99996 0.99996
          0.99996 0.99996 0.99996 0.99996 0.99996 0.99996 0.99996 0.99996 0.99996 0.99996 0.99996 0.99996
          0.99996 0.99996 0.99996 0.99996 0.99996 0.99996 0.99996 0.99996 0.99996 0.99996 0.99996 0.99996
          0.99996 0.99996 0.99996 0.99996 0.99996 0.99996 0.99996 0.99996 0.99996 0.99996 0.99996 0.99996
          0.99996 0.99996 0.99996 0.99996 0.99996 0.99996 0.99996 0.99996 0.99996 0.99996 0.99996 0.99996
          0.99996 0.99996 0.99996 0.99996 0.99996 0.99996 0.99996 0.99996 0.99996 0.99996 0.99996 0.99996
          0.99996 0.99996 0.99996 0.99996 0.99996 0.99996 0.99996 0.99996 0.99996 0.99996 0.99996 0.99996
          0.99996 0.99996 0.99996 0.99996 0.99996 0.99996 0.99996 0.99996 0.99996 0.99996 0.99996 0.99996
          0.99996 0.99996 0.99996 0.99996 0.99996 0.99996 0.99996 0.99996 0.99996 0.99996 0.99996 0.99996
          0.99996 0.99996 0.99996 0.99996 0.99996 0.99996 0.99996 0.99996 0.99996 0.99996 0.99996 0.99996
          0.99996 0.99996 0.99996 0.99996 0.99996 0.99996 0.99996 0.99996 0.99996 0.99996 0.99996 0.99996
          0.99996 0.99996 0.99996 0.99996 0.99996 0.99996 0.99996 0.99996 0.99996 0.99996 0.99996 0.99996
          0.99996 0.99996 0.99996 0.99996 0.99996 0.99996 0.99996 0.99996 0.99996 0.99996 0.99996 0.99996
          0.99996 0.99996 0.99996 0.99996 0.99996 0.99996 0.99996 0.99996 0.99996 0.99996 0.99996 0.99996
          0.99996 0.99996 0.99996 0.99996 0.99996 0.99996 0.99996 0.99996 0.99996 0.99996 0.99996 0.99996
          0.99996 0.99996 0.99996 0.99996 0.99996 0.99996 0.99996 0.99996 0.99996 0.99996 0.99996 0.99996
          0.99996 0.99996 0.99996 0.99996 0.99996 0.99996 0.99996 0.99996 0.99996 0.99996 0.99996 0.99996
          0.99996 0.99996 0.999959 0.999959 0.999951 0.999951 0.999762 0.999762 0.999383 0.999383 0.999523 0.999523
          0.999982 0.999982
        </DataArray>
        <DataArray type="Float32" Name="x^xylene_w" NumberOfComponents="1" format="ascii">
          2.62566e-05 2.62566e-05 2.62566e-05 2.62566e-05 2.62566e-05 2.62566e-05 2.62566e-05 2.62566e-05 2.62566e-05 2.62566e-05 2.62566e-05 2.62566e-05
          2.62566e-05 2.62566e-05 2.62566e-05 2.62566e-05 2.62566e-05 2.62566e-05 2.62566e-05 2.62566e-05 2.62566e-05 2.62566e-05 2.62566e-05 2.62566e-05
          2.62566e-05 2.62566e-05 2.62566e-05 2.62566e-05 2.62566e-05 2.62566e-05 2.62566e-05 2.62566e-05 2.62566e-05 2.62566e-05 2.62566e-05 2.62566e-05
          2.62566e-05 2.62566e-05 2.62566e-05 2.62566e-05 2.62566e-05 2.62566e-05 2.62566e-05 2.62566e-05 2.62566e-05 2.62566e-05 2.62566e-05 2.62566e-05
          2.62566e-05 2.62566e-05 2.62566e-05 2.62566e-05 2.62566e-05 2.62566e-05 2.62566e-05 2.62566e-05 2.62566e-05 2.62566e-05 2.62566e-05 2.62566e-05
          2.62566e-05 2.62566e-05 2.62566e-05 2.62566e-05 2.62566e-05 2.62566e-05 2.62566e-05 2.62566e-05 2.62566e-05 2.62566e-05 2.62566e-05 2.62566e-05
          2.62566e-05 2.62566e-05 2.62566e-05 2.62566e-05 2.62566e-05 2.62566e-05 2.62566e-05 2.62566e-05 2.62566e-05 2.62566e-05 2.62566e-05 2.62566e-05
          2.62566e-05 2.62566e-05 2.62566e-05 2.62566e-05 2.62566e-05 2.62566e-05 2.62566e-05 2.62566e-05 2.62566e-05 2.62566e-05 2.62566e-05 2.62566e-05
          2.62566e-05 2.62566e-05 2.62566e-05 2.62566e-05 2.62566e-05 2.62566e-05 2.62566e-05 2.62566e-05 2.62566e-05 2.62566e-05 2.62566e-05 2.62566e-05
          2.62566e-05 2.62566e-05 2.62566e-05 2.62566e-05 2.62566e-05 2.62566e-05 2.62566e-05 2.62566e-05 2.62566e-05 2.62566e-05 2.62566e-05 2.62566e-05
          2.62566e-05 2.62566e-05 2.62566e-05 2.62566e-05 2.62566e-05 2.62566e-05 2.62566e-05 2.62566e-05 2.62566e-05 2.62566e-05 2.62566e-05 2.62566e-05
          2.62566e-05 2.62566e-05 2.62566e-05 2.62566e-05 2.62566e-05 2.62566e-05 2.62566e-05 2.62566e-05 2.62566e-05 2.62566e-05 2.62566e-05 2.62566e-05
          2.62566e-05 2.62566e-05 2.62566e-05 2.62566e-05 2.62566e-05 2.62566e-05 2.62566e-05 2.62566e-05 2.62566e-05 2.62566e-05 2.62566e-05 2.62566e-05
          2.62566e-05 2.62566e-05 2.62566e-05 2.62566e-05 2.62566e-05 2.62566e-05 2.62566e-05 2.62566e-05 2.62566e-05 2.62566e-05 2.62566e-05 2.62566e-05
          2.62566e-05 2.62566e-05 2.62566e-05 2.62566e-05 2.62566e-05 2.62566e-05 2.62566e-05 2.62566e-05 2.62566e-05 2.62566e-05 2.62566e-05 2.62566e-05
          2.62565e-05 2.62565e-05 2.62564e-05 2.62564e-05 2.62564e-05 2.62564e-05 2.62565e-05 2.62565e-05 2.62565e-05 2.62565e-05 2.62566e-05 2.62566e-05
          2.62566e-05 2.62566e-05 2.62566e-05 2.62566e-05 2.62566e-05 2.62566e-05 2.62566e-05 2.62566e-05 2.62566e-05 2.62566e-05 2.62566e-05 2.62566e-05
          2.62566e-05 2.62566e-05 2.62566e-05 2.62566e-05 2.62566e-05 2.62566e-05 2.62566e-05 2.62566e-05 2.62566e-05 2.62566e-05 2.62566e-05 2.62566e-05
          2.62566e-05 2.62566e-05 2.62566e-05 2.62566e-05 2.62566e-05 2.62566e-05 2.62567e-05 2.62567e-05 2.62571e-05 2.62571e-05 2.62623e-05 2.62623e-05
          2.6324e-05 2.6324e-05 2.70474e-05 2.70474e-05 3.63521e-05 3.63521e-05 0.000231338 0.000231338 0.000616789 0.000616789 0.000477095 0.000477095
          1.8023e-05 1.8023e-05
        </DataArray>
        <DataArray type="Float32" Name="x^Air_w" NumberOfComponents="1" format="ascii">
          1.37483e-05 1.37483e-05 1.37482e-05 1.37482e-05 1.37482e-05 1.37482e-05 1.37482e-05 1.37482e-05 1.37482e-05 1.37482e-05 1.37482e-05 1.37482e-05
          1.37482e-05 1.37482e-05 1.37481e-05 1.37481e-05 1.37481e-05 1.37481e-05 1.37481e-05 1.37481e-05 1.37481e-05 1.37481e-05 1.37481e-05 1.37481e-05
          1.37481e-05 1.37481e-05 1.3748e-05 1.3748e-05 1.3748e-05 1.3748e-05 1.3748e-05 1.3748e-05 1.3748e-05 1.3748e-05 1.3748e-05 1.3748e-05
          1.3748e-05 1.3748e-05 1.37479e-05 1.37479e-05 1.37479e-05 1.37479e-05 1.37479e-05 1.37479e-05 1.37479e-05 1.37479e-05 1.37479e-05 1.37479e-05
          1.37479e-05 1.37479e-05 1.37478e-05 1.37478e-05 1.37478e-05 1.37478e-05 1.37478e-05 1.37478e-05 1.37478e-05 1.37478e-05 1.37478e-05 1.37478e-05
          1.37478e-05 1.37478e-05 1.37477e-05 1.37477e-05 1.37477e-05 1.37477e-05 1.37477e-05 1.37477e-05 1.37477e-05 1.37477e-05 1.37477e-05 1.37477e-05
          1.37477e-05 1.37477e-05 1.37476e-05 1.37476e-05 1.37476e-05 1.37476e-05 1.37476e-05 1.37476e-05 1.37476e-05 1.37476e-05 1.37476e-05 1.37476e-05
          1.37476e-05 1.37476e-05 1.37475e-05 1.37475e-05 1.37475e-05 1.37475e-05 1.37475e-05 1.37475e-05 1.37475e-05 1.37475e-05 1.37475e-05 1.37475e-05
          1.37475e-05 1.37475e-05 1.37474e-05 1.37474e-05 1.37474e-05 1.37474e-05 1.37474e-05 1.37474e-05 1.37474e-05 1.37474e-05 1.37474e-05 1.37474e-05
          1.37474e-05 1.37474e-05 1.37473e-05 1.37473e-05 1.37473e-05 1.37473e-05 1.37473e-05 1.37473e-05 1.37473e-05 1.37473e-05 1.37473e-05 1.37473e-05
          1.37473e-05 1.37473e-05 1.37472e-05 1.37472e-05 1.37472e-05 1.37472e-05 1.37472e-05 1.37472e-05 1.37472e-05 1.37472e-05 1.37472e-05 1.37472e-05
          1.37472e-05 1.37472e-05 1.37471e-05 1.37471e-05 1.37471e-05 1.37471e-05 1.37471e-05 1.37471e-05 1.37471e-05 1.37471e-05 1.37471e-05 1.37471e-05
          1.37471e-05 1.37471e-05 1.3747e-05 1.3747e-05 1.3747e-05 1.3747e-05 1.3747e-05 1.3747e-05 1.3747e-05 1.3747e-05 1.3747e-05 1.3747e-05
          1.3747e-05 1.3747e-05 1.37469e-05 1.37469e-05 1.37469e-05 1.37469e-05 1.37469e-05 1.37469e-05 1.37469e-05 1.37469e-05 1.37469e-05 1.37469e-05
          1.37469e-05 1.37469e-05 1.37468e-05 1.37468e-05 1.37468e-05 1.37468e-05 1.37468e-05 1.37468e-05 1.37468e-05 1.37468e-05 1.37468e-05 1.37468e-05
          1.37475e-05 1.37475e-05 1.37482e-05 1.37482e-05 1.37487e-05 1.37487e-05 1.37491e-05 1.37491e-05 1.37493e-05 1.37493e-05 1.37495e-05 1.37495e-05
          1.37496e-05 1.37496e-05 1.37497e-05 1.37497e-05 1.37498e-05 1.37498e-05 1.37499e-05 1.37499e-05 1.37499e-05 1.37499e-05 1.375e-05 1.375e-05
          1.375e-05 1.375e-05 1.375e-05 1.375e-05 1.37501e-05 1.37501e-05 1.37501e-05 1.37501e-05 1.37501e-05 1.37501e-05 1.37501e-05 1.37501e-05
          1.37501e-05 1.37501e-05 1.37501e-05 1.37501e-05 1.37501e-05 1.37501e-05 1.37501e-05 1.37501e-05 1.375e-05 1.375e-05 1.37492e-05 1.37492e-05
          1.3739e-05 1.3739e-05 1.36218e-05 1.36218e-05 1.2432e-05 1.2432e-05 6.307e-06 6.307e-06 2.61175e-07 2.61175e-07 1.35611e-08 1.35611e-08
          3.01356e-10 3.01356e-10
        </DataArray>
        <DataArray type="Float32" Name="x^H2O_n" NumberOfComponents="1" format="ascii">
          1e-10 1e-10 1e-10 1e-10 1e-10 1e-10 1e-10 1e-10 1e-10 1e-10 1e-10 1e-10
          1e-10 1e-10 1e-10 1e-10 1e-10 1e-10 1e-10 1e-10 1e-10 1e-10 1e-10 1e-10
          1e-10 1e-10 1e-10 1e-10 1e-10 1e-10 1e-10 1e-10 1e-10 1e-10 1e-10 1e-10
          1e-10 1e-10 1e-10 1e-10 1e-10 1e-10 1e-10 1e-10 1e-10 1e-10 1e-10 1e-10
          1e-10 1e-10 1e-10 1e-10 1e-10 1e-10 1e-10 1e-10 1e-10 1e-10 1e-10 1e-10
          1e-10 1e-10 1e-10 1e-10 1e-10 1e-10 1e-10 1e-10 1e-10 1e-10 1e-10 1e-10
          1e-10 1e-10 1e-10 1e-10 1e-10 1e-10 1e-10 1e-10 1e-10 1e-10 1e-10 1e-10
          1e-10 1e-10 1e-10 1e-10 1e-10 1e-10 1e-10 1e-10 1e-10 1e-10 1e-10 1e-10