<?xml version="1.0"?>
<VTKFile type="UnstructuredGrid" version="0.1" byte_order="LittleEndian">
  <UnstructuredGrid>
    <Piece NumberOfCells="120" NumberOfPoints="242">
      <PointData Scalars="Sw">
        <DataArray type="Float32" Name="Sw" NumberOfComponents="1" format="ascii">
          0.005 0.005 0.005 0.005 0.005 0.005 0.005 0.005 0.005 0.005 0.005 0.005
          0.005 0.005 0.005 0.005 0.005 0.005 0.005 0.005 0.005 0.005 0.005 0.005
          0.005 0.005 0.005 0.005 0.005 0.005 0.005 0.005 0.005 0.005 0.005 0.005
          0.005 0.005 0.005 0.005 0.005 0.005 0.005 0.005 0.005 0.005 0.005 0.005
          0.005 0.005 0.005 0.005 0.005 0.005 0.005 0.005 0.005 0.005 0.005 0.005
          0.005 0.005 0.005 0.005 0.005 0.005 0.005 0.005 0.005 0.005 0.005 0.005
          0.005 0.005 0.005 0.005 0.005 0.005 0.005 0.005 0.005 0.005 0.005 0.005
          0.005 0.005 0.005 0.005 0.005 0.005 0.005 0.005 0.005 0.005 0.005 0.005
          0.005 0.005 0.005 0.005 0.005 0.005 0.005 0.005 0.005 0.005 0.005 0.005
          0.005 0.005 0.005 0.005 0.005 0.005 0.005 0.005 0.005 0.005 0.005 0.005
          0.005 0.005 0.005 0.005 0.005 0.005 0.005 0.005 0.005 0.005 0.005 0.005
          0.005 0.005 0.005 0.005 0.005 0.005 0.005 0.005 0.005 0.005 0.005 0.005
          0.005 0.005 0.005 0.005 0.005 0.005 0.005 0.005 0.005 0.005 0.005 0.005
          0.005 0.005 0.005 0.005 0.005 0.005 0.005 0.005 0.005 0.005 0.005 0.005
          0.005 0.005 0.005 0.005 0.005 0.005 0.005 0.005 0.005 0.005 0.00499992 0.00499992
          0.00499997 0.00499997 0.00499999 0.00499999 0.00499999 0.00499999 0.00499999 0.00499999 0.00499999 0.00499999 0.00499999 0.00499999
          0.005 0.005 0.005 0.005 0.00500001 0.00500001 0.00500001 0.00500001 0.00500001 0.00500001 0.00500001 0.00500001
          0.00500001 0.00500001 0.00500001 0.00500001 0.00500001 0.00500001 0.00500001 0.00500001 0.00500001 0.00500001 0.00500001 0.00500001
          0.00500001 0.00500001 0.00500001 0.00500001 0.00500001 0.00500001 0.00500001 0.00500001 0.00500001 0.00500001 0.00500003 0.00500003
          0.00500034 0.00500034 0.00500455 0.00500455 0.00513721 0.00513721 0.047341 0.047341 0.0872238 0.0872238 0.150924 0.150924
          0.170713 0.170713
        </DataArray>
        <DataArray type="Float32" Name="Sn" NumberOfComponents="1" format="ascii">
          0.0001 0.0001 0.0001 0.0001 0.0001 0.0001 0.0001 0.0001 9.99999e-05 9.99999e-05 9.99999e-05 9.99999e-05
          9.99998e-05 9.99998e-05 9.99998e-05 9.99998e-05 9.99997e-05 9.99997e-05 9.99996e-05 9.99996e-05 9.99996e-05 9.99996e-05 9.99995e-05 9.99995e-05
          9.99995e-05 9.99995e-05 9.99994e-05 9.99994e-05 9.99993e-05 9.99993e-05 9.99993e-05 9.99993e-05 9.99992e-05 9.99992e-05 9.99992e-05 9.99992e-05
          9.99991e-05 9.99991e-05 9.9999e-05 9.9999e-05 9.9999e-05 9.9999e-05 9.99989e-05 9.99989e-05 9.99989e-05 9.99989e-05 9.99988e-05 9.99988e-05
          9.99987e-05 9.99987e-05 9.99987e-05 9.99987e-05 9.99986e-05 9.99986e-05 9.99986e-05 9.99986e-05 9.99985e-05 9.99985e-05 9.99984e-05 9.99984e-05
          9.99984e-05 9.99984e-05 9.99983e-05 9.99983e-05 9.99983e-05 9.99983e-05 9.99982e-05 9.99982e-05 9.99981e-05 9.99981e-05 9.99981e-05 9.99981e-05
          9.9998e-05 9.9998e-05 9.9998e-05 9.9998e-05 9.99979e-05 9.99979e-05 9.99979e-05 9.99979e-05 9.99978e-05 9.99978e-05 9.99977e-05 9.99977e-05
          9.99977e-05 9.99977e-05 9.99976e-05 9.99976e-05 9.99976e-05 9.99976e-05 9.99975e-05 9.99975e-05 9.99974e-05 9.99974e-05 9.99974e-05 9.99974e-05
          9.99973e-05 9.99973e-05 9.99973e-05 9.99973e-05 9.99972e-05 9.99972e-05 9.99971e-05 9.99971e-05 9.99971e-05 9.99971e-05 9.9997e-05 9.9997e-05
          9.9997e-05 9.9997e-05 9.99969e-05 9.99969e-05 9.99968e-05 9.99968e-05 9.99968e-05 9.99968e-05 9.99967e-05 9.99967e-05 9.99967e-05 9.99967e-05
          9.99966e-05 9.99966e-05 9.99965e-05 9.99965e-05 9.99965e-05 9.99965e-05 9.99964e-05 9.99964e-05 9.99964e-05 9.99964e-05 9.99963e-05 9.99963e-05
          9.99963e-05 9.99963e-05 9.99962e-05 9.99962e-05 9.99961e-05 9.99961e-05 9.99961e-05 9.99961e-05 9.9996e-05 9.9996e-05 9.9996e-05 9.9996e-05
          9.99959e-05 9.99959e-05 9.99958e-05 9.99958e-05 9.99958e-05 9.99958e-05 9.99957e-05 9.99957e-05 9.99957e-05 9.99957e-05 9.99956e-05 9.99956e-05
          9.99955e-05 9.99955e-05 9.99955e-05 9.99955e-05 9.99954e-05 9.99954e-05 9.99954e-05 9.99954e-05 9.99953e-05 9.99953e-05 9.99952e-05 9.99952e-05
          9.99952e-05 9.99952e-05 9.99951e-05 9.99951e-05 9.99951e-05 9.99951e-05 9.9995e-05 9.9995e-05 9.99949e-05 9.99949e-05 0.00363826 0.00363826
          0.914871 0.914871 0.890214 0.890214 0.862956 0.862956 0.833105 0.833105 0.800762 0.800762 0.766095 0.766095
          0.729305 0.729305 0.690602 0.690602 0.65017 0.65017 0.608137 0.608137 0.56456 0.56456 0.519424 0.519424
          0.472696 0.472696 0.424443 0.424443 0.375079 0.375079 0.325814 0.325814 0.279337 0.279337 0.240178 0.240178
          0.212282 0.212282 0.193711 0.193711 0.179618 0.179618 0.167563 0.167563 0.156846 0.156846 0.147056 0.147056
          0.138112 0.138112 0.132052 0.132052 0.175748 0.175748 0.212477 0.212477 0.120558 0.120558 0 0
          0 0
        </DataArray>
        <DataArray type="Float32" Name="Sg" NumberOfComponents="1" format="ascii">
          0.9949 0.9949 0.9949 0.9949 0.9949 0.9949 0.9949 0.9949 0.9949 0.9949 0.9949 0.9949
          0.9949 0.9949 0.9949 0.9949 0.9949 0.9949 0.9949 0.9949 0.9949 0.9949 0.9949 0.9949
          0.9949 0.9949 0.9949 0.9949 0.9949 0.9949 0.9949 0.9949 0.9949 0.9949 0.9949 0.9949
          0.9949 0.9949 0.9949 0.9949 0.9949 0.9949 0.9949 0.9949 0.9949 0.9949 0.9949 0.9949
          0.9949 0.9949 0.9949 0.9949 0.9949 0.9949 0.9949 0.9949 0.9949 0.9949 0.9949 0.9949
          0.9949 0.9949 0.9949 0.9949 0.9949 0.9949 0.9949 0.9949 0.9949 0.9949 0.9949 0.9949
          0.9949 0.9949 0.9949 0.9949 0.9949 0.9949 0.9949 0.9949 0.9949 0.9949 0.9949 0.9949
          0.9949 0.9949 0.9949 0.9949 0.9949 0.9949 0.9949 0.9949 0.9949 0.9949 0.9949 0.9949
          0.9949 0.9949 0.9949 0.9949 0.9949 0.9949 0.9949 0.9949 0.9949 0.9949 0.9949 0.9949
          0.9949 0.9949 0.9949 0.9949 0.9949 0.9949 0.9949 0.9949 0.9949 0.9949 0.9949 0.9949
          0.9949 0.9949 0.9949 0.9949 0.9949 0.9949 0.9949 0.9949 0.9949 0.9949 0.9949 0.9949
          0.9949 0.9949 0.9949 0.9949 0.9949 0.9949 0.9949 0.9949 0.9949 0.9949 0.9949 0.9949
          0.9949 0.9949 0.9949 0.9949 0.9949 0.9949 0.9949 0.9949 0.9949 0.9949 0.9949 0.9949
          0.9949 0.9949 0.9949 0.9949 0.9949 0.9949 0.9949 0.9949 0.9949 0.9949 0.9949 0.9949
          0.9949 0.9949 0.9949 0.9949 0.9949 0.9949 0.9949 0.9949 0.9949 0.9949 0.991362 0.991362
          0.0801294 0.0801294 0.104786 0.104786 0.132044 0.132044 0.161895 0.161895 0.194238 0.194238 0.228905 0.228905
          0.265695 0.265695 0.304398 0.304398 0.34483 0.34483 0.386863 0.386863 0.43044 0.43044 0.475576 0.475576
          0.522304 0.522304 0.570557 0.570557 0.619921 0.619921 0.669186 0.669186 0.715663 0.715663 0.754822 0.754822
          0.782718 0.782718 0.801289 0.801289 0.815382 0.815382 0.827437 0.827437 0.838154 0.838154 0.847944 0.847944
          0.856888 0.856888 0.862943 0.862943 0.819115 0.819115 0.740182 0.740182 0.792218 0.792218 0.849076 0.849076
          0.829287 0.829287
        </DataArray>
        <DataArray type="Float32" Name="pw" NumberOfComponents="1" format="ascii">
          99947.1 99947.1 99947 99947 99946.9 99946.9 99946.8 99946.8 99946.6 99946.6 99946.5 99946.5
          99946.4 99946.4 99946.3 99946.3 99946.2 99946.2 99946.1 99946.1 99946 99946 99945.8 99945.8
          99945.7 99945.7 99945.6 99945.6 99945.5 99945.5 99945.4 99945.4 99945.2 99945.2 99945.1 99945.1
          99945 99945 99944.9 99944.9 99944.8 99944.8 99944.7 99944.7 99944.5 99944.5 99944.4 99944.4
          99944.3 99944.3 99944.2 99944.2 99944.1 99944.1 99944 99944 99943.8 99943.8 99943.7 99943.7
          99943.6 99943.6 99943.5 99943.5 99943.4 99943.4 99943.3 99943.3 99943.1 99943.1 99943 99943
          99942.9 99942.9 99942.8 99942.8 99942.7 99942.7 99942.6 99942.6 99942.4 99942.4 99942.3 99942.3
          99942.2 99942.2 99942.1 99942.1 99942 99942 99941.9 99941.9 99941.7 99941.7 99941.6 99941.6
          99941.5 99941.5 99941.4 99941.4 99941.3 99941.3 99941.2 99941.2 99941 99941 99940.9 99940.9
          99940.8 99940.8 99940.7 99940.7 99940.6 99940.6 99940.5 99940.5 99940.3 99940.3 99940.2 99940.2
          99940.1 99940.1 99940 99940 99939.9 99939.9 99939.8 99939.8 99939.6 99939.6 99939.5 99939.5
          99939.4 99939.4 99939.3 99939.3 99939.2 99939.2 99939.1 99939.1 99938.9 99938.9 99938.8 99938.8
          99938.7 99938.7 99938.6 99938.6 99938.5 99938.5 99938.4 99938.4 99938.2 99938.2 99938.1 99938.1
          99938 99938 99937.9 99937.9 99937.8 99937.8 99937.7 99937.7 99937.5 99937.5 99937.4 99937.4
          99937.3 99937.3 99937.2 99937.2 99937.1 99937.1 99937 99937 99936.8 99936.8 99934.8 99934.8
          45906.7 45906.7 45822.2 45822.2 45737.3 45737.3 45651.5 45651.5 45564.4 45564.4 45475.4 45475.4
          45383.7 45383.7 45288.4 45288.4 45188.2 45188.2 45081.5 45081.5 44965.9 44965.9 44838 44838
          44693 44693 44523.7 44523.7 44320.2 44320.2 44069.9 44069.9 43761.8 43761.8 43405.6 43405.6
          43053.2 43053.2 42737.6 42737.6 42425.6 42425.6 42078.6 42078.6 41668.6 41668.6 41150.4 41150.4
          40450.5 40450.5 39731.7 39731.7 42377.7 42377.7 58470.5 58470.5 72039.7 72039.7 94236.5 94236.5
          95285.2 95285.2
        </DataArray>
        <DataArray type="Float32" Name="pn" NumberOfComponents="1" format="ascii">
          99947.1 99947.1 99947 99947 99946.9 99946.9 99946.8 99946.8 99946.6 99946.6 99946.5 99946.5
          99946.4 99946.4 99946.3 99946.3 99946.2 99946.2 99946.1 99946.1 99946 99946 99945.8 99945.8
          99945.7 99945.7 99945.6 99945.6 99945.5 99945.5 99945.4 99945.4 99945.2 99945.2 99945.1 99945.1
          99945 99945 99944.9 99944.9 99944.8 99944.8 99944.7 99944.7 99944.5 99944.5 99944.4 99944.4
          99944.3 99944.3 99944.2 99944.2 99944.1 99944.1 99944 99944 99943.8 99943.8 99943.7 99943.7
          99943.6 99943.6 99943.5 99943.5 99943.4 99943.4 99943.3 99943.3 99943.1 99943.1 99943 99943
          99942.9 99942.9 99942.8 99942.8 99942.7 99942.7 99942.6 99942.6 99942.4 99942.4 99942.3 99942.3
          99942.2 99942.2 99942.1 99942.1 99942 99942 99941.9 99941.9 99941.7 99941.7 99941.6 99941.6
          99941.5 99941.5 99941.4 99941.4 99941.3 99941.3 99941.2 99941.2 99941 99941 99940.9 99940.9
          99940.8 99940.8 99940.7 99940.7 99940.6 99940.6 99940.5 99940.5 99940.3 99940.3 99940.2 99940.2
          99940.1 99940.1 99940 99940 99939.9 99939.9 99939.8 99939.8 99939.6 99939.6 99939.5 99939.5
          99939.4 99939.4 99939.3 99939.3 99939.2 99939.2 99939.1 99939.1 99938.9 99938.9 99938.8 99938.8
          99938.7 99938.7 99938.6 99938.6 99938.5 99938.5 99938.4 99938.4 99938.2 99938.2 99938.1 99938.1
          99938 99938 99937.9 99937.9 99937.8 99937.8 99937.7 99937.7 99937.5 99937.5 99937.4 99937.4
          99937.3 99937.3 99937.2 99937.2 99937.1 99937.1 99937 99937 99936.8 99936.8 99936.8 99936.8
          98787.8 98787.8 98703.3 98703.3 98618.4 98618.4 98532.7 98532.7 98445.6 98445.6 98356.5 98356.5
          98264.8 98264.8 98169.5 98169.5 98069.3 98069.3 97962.6 97962.6 97847 97847 97719.1 97719.1
          97574.1 97574.1 97404.8 97404.8 97201.4 97201.4 96951 96951 96642.9 96642.9 96286.7 96286.7
          95934.3 95934.3 95618.7 95618.7 95306.7 95306.7 94959.7 94959.7 94549.7 94549.7 94031.5 94031.5
          93331.5 93331.5 92611.2 92611.2 95210.5 95210.5 96438.9 96438.9 95961.2 95961.2 94236.5 94236.5
          95285.2 95285.2
        </DataArray>
        <DataArray type="Float32" Name="pg" NumberOfComponents="1" format="ascii">
          100000 100000 99999.9 99999.9 99999.8 99999.8 99999.6 99999.6 99999.5 99999.5 99999.4 99999.4
          99999.3 99999.3 99999.2 99999.2 99999.1 99999.1 99998.9 99998.9 99998.8 99998.8 99998.7 99998.7
          99998.6 99998.6 99998.5 99998.5 99998.4 99998.4 99998.2 99998.2 99998.1 99998.1 99998 99998
          99997.9 99997.9 99997.8 99997.8 99997.7 99997.7 99997.5 99997.5 99997.4 99997.4 99997.3 99997.3
          99997.2 99997.2 99997.1 99997.1 99997 99997 99996.8 99996.8 99996.7 99996.7 99996.6 99996.6
          99996.5 99996.5 99996.4 99996.4 99996.3 99996.3 99996.1 99996.1 99996 99996 99995.9 99995.9
          99995.8 99995.8 99995.7 99995.7 99995.6 99995.6 99995.4 99995.4 99995.3 99995.3 99995.2 99995.2
          99995.1 99995.1 99995 99995 99994.9 99994.9 99994.7 99994.7 99994.6 99994.6 99994.5 99994.5
          99994.4 99994.4 99994.3 99994.3 99994.2 99994.2 99994 99994 99993.9 99993.9 99993.8 99993.8
          99993.7 99993.7 99993.6 99993.6 99993.5 99993.5 99993.3 99993.3 99993.2 99993.2 99993.1 99993.1
          99993 99993 99992.9 99992.9 99992.8 99992.8 99992.6 99992.6 99992.5 99992.5 99992.4 99992.4
          99992.3 99992.3 99992.2 99992.2 99992.1 99992.1 99991.9 99991.9 99991.8 99991.8 99991.7 99991.7
          99991.6 99991.6 99991.5 99991.5 99991.4 99991.4 99991.2 99991.2 99991.1 99991.1 99991 99991
          99990.9 99990.9 99990.8 99990.8 99990.7 99990.7 99990.5 99990.5 99990.4 99990.4 99990.3 99990.3
          99990.2 99990.2 99990.1 99990.1 99990 99990 99989.8 99989.8 99989.7 99989.7 99989.6 99989.6
          100002 100002 100014 100014 100021 100021 100027 100027 100031 100031 100034 100034
          100036 100036 100038 100038 100039 100039 100040 100040 100041 100041 100042 100042
          100043 100043 100043 100043 100044 100044 100044 100044 100045 100045 100045 100045
          100045 100045 100045 100045 100046 100046 100046 100046 100046 100046 100046 100046
          100047 100047 100047 100047 100047 100047 100049 100049 100223 100223 100325 100325
          100434 100434
        </DataArray>
        <DataArray type="Float32" Name="rhow" NumberOfComponents="1" format="ascii">
          997.661 997.661 997.661 997.661 997.661 997.661 997.661 997.661 997.661 997.661 997.661 997.661
          997.661 997.661 997.661 997.661 997.661 997.661 997.661 997.661 997.661 997.661 997.661 997.661
          997.661 997.661 997.661 997.661 997.661 997.661 997.661 997.661 997.661 997.661 997.661 997.661
          997.661 997.661 997.661 997.661 997.661 997.661 997.661 997.661 997.661 997.661 997.661 997.661
          997.661 997.661 997.661 997.661 997.661 997.661 997.661 997.661 997.661 997.661 997.661 997.661
          997.661 997.661 997.661 997.661 997.661 997.661 997.661 997.661 997.661 997.661 997.661 997.661
          997.661 997.661 997.661 997.661 997.661 997.661 997.661 997.661 997.661 997.661 997.661 997.661
          997.661 997.661 997.661 997.661 997.661 997.661 997.661 997.661 997.661 997.661 997.661 997.661
          997.661 997.661 997.661 997.661 997.661 997.661 997.661 997.661 997.661 997.661 997.661 997.661
          997.661 997.661 997.661 997.661 997.661 997.661 997.661 997.661 997.661 997.661 997.661 997.661
          997.661 997.661 997.661 997.661 997.661 997.661 997.661 997.661 997.661 997.661 997.661 997.661
          997.661 997.661 997.661 997.661 997.661 997.661 997.661 997.661 997.661 997.661 997.661 997.661
          997.661 997.661 997.661 997.661 997.661 997.661 997.661 997.661 997.661 997.661 997.661 997.661
          997.661 997.661 997.661 997.661 997.661 997.661 997.661 997.661 997.661 997.661 997.661 997.661
          997.661 997.661 997.661 997.661 997.661 997.661 997.661 997.661 997.661 997.661 997.661 997.661
          997.637 997.637 997.637 997.637 997.637 997.637 997.637 997.637 997.637 997.637 997.637 997.637
          997.637 997.637 997.637 997.637 997.637 997.637 997.637 997.637 997.637 997.637 997.637 997.637
          997.636 997.636 997.636 997.636 997.636 997.636 997.636 997.636 997.636 997.636 997.636 997.636
          997.636 997.636 997.636 997.636 997.635 997.635 997.635 997.635 997.635 997.635 997.634 997.634
          997.618 997.618 997.442 997.442 995.319 995.319 974.758 974.758 966.772 966.772 959.213 959.213
          958.565 958.565
        </DataArray>
        <DataArray type="Float32" Name="rhon" NumberOfComponents="1" format="ascii">
          860.465 860.465 860.465 860.465 860.465 860.465 860.465 860.465 860.465 860.465 860.465 860.465
          860.465 860.465 860.465 860.465 860.465 860.465 860.465 860.465 860.465 860.465 860.465 860.465
          860.465 860.465 860.465 860.465 860.465 860.465 860.465 860.465 860.465 860.465 860.465 860.465
          860.465 860.465 860.465 860.465 860.465 860.465 860.465 860.465 860.465 860.465 860.465 860.465
          860.465 860.465 860.465 860.465 860.465 860.465 860.465 860.465 860.465 860.465 860.465 860.465
          860.465 860.465 860.465 860.465 860.465 860.465 860.465 860.465 860.465 860.465 860.465 860.465
          860.465 860.465 860.465 860.465 860.465 860.465 860.465 860.465 860.465 860.465 860.465 860.465
          860.465 860.465 860.465 860.465 860.465 860.465 860.465 860.465 860.465 860.465 860.465 860.465
          860.465 860.465 860.465 860.465 860.465 860.465 860.465 860.465 860.465 860.465 860.465 860.465
          860.465 860.465 860.465 860.465 860.465 860.465 860.465 860.465 860.465 860.465 860.465 860.465
          860.465 860.465 860.465 860.465 860.465 860.465 860.465 860.465 860.465 860.465 860.465 860.465
          860.465 860.465 860.465 860.465 860.465 860.465 860.465 860.465 860.465 860.465 860.465 860.465
          860.465 860.465 860.465 860.465 860.465 860.465 860.465 860.465 860.465 860.465 860.465 860.465
          860.465 860.465 860.465 860.465 860.465 860.465 860.465 860.465 860.465 860.465 860.465 860.465
          860.465 860.465 860.465 860.465 860.465 860.465 860.465 860.465 860.465 860.465 860.465 860.465
          860.465 860.465 860.465 860.465 860.465 860.465 860.465 860.465 860.465 860.465 860.465 860.465
          860.465 860.465 860.465 860.465 860.465 860.465 860.465 860.465 860.465 860.465 860.465 860.465
          860.465 860.465 860.465 860.465 860.465 860.465 860.465 860.465 860.465 860.465 860.465 860.465
          860.465 860.465 860.465 860.465 860.465 860.465 860.465 860.465 860.465 860.465 860.461 860.461
          860.405 860.405 859.744 859.744 852.966 852.966 811.452 811.452 798.182 798.182 791.614 791.614
          791.079 791.079
        </DataArray>
        <DataArray type="Float32" Name="rhog" NumberOfComponents="1" format="ascii">
          1.19439 1.19439 1.19439 1.19439 1.19439 1.19439 1.19439 1.19439 1.19439 1.19439 1.19438 1.19438
          1.19438 1.19438 1.19438 1.19438 1.19438 1.19438 1.19438 1.19438 1.19438 1.19438 1.19438 1.19438
          1.19437 1.19437 1.19437 1.19437 1.19437 1.19437 1.19437 1.19437 1.19437 1.19437 1.19437 1.19437
          1.19437 1.19437 1.19437 1.19437 1.19436 1.19436 1.19436 1.19436 1.19436 1.19436 1.19436 1.19436
          1.19436 1.19436 1.19436 1.19436 1.19436 1.19436 1.19435 1.19435 1.19435 1.19435 1.19435 1.19435
          1.19435 1.19435 1.19435 1.19435 1.19435 1.19435 1.19435 1.19435 1.19434 1.19434 1.19434 1.19434
          1.19434 1.19434 1.19434 1.19434 1.19434 1.19434 1.19434 1.19434 1.19434 1.19434 1.19433 1.19433
          1.19433 1.19433 1.19433 1.19433 1.19433 1.19433 1.19433 1.19433 1.19433 1.19433 1.19433 1.19433
          1.19433 1.19433 1.19432 1.19432 1.19432 1.19432 1.19432 1.19432 1.19432 1.19432 1.19432 1.19432
          1.19432 1.19432 1.19432 1.19432 1.19431 1.19431 1.19431 1.19431 1.19431 1.19431 1.19431 1.19431
          1.19431 1.19431 1.19431 1.19431 1.19431 1.19431 1.1943 1.1943 1.1943 1.1943 1.1943 1.1943
          1.1943 1.1943 1.1943 1.1943 1.1943 1.1943 1.1943 1.1943 1.1943 1.1943 1.19429 1.19429
          1.19429 1.19429 1.19429 1.19429 1.19429 1.19429 1.19429 1.19429 1.19429 1.19429 1.19429 1.19429
          1.19428 1.19428 1.19428 1.19428 1.19428 1.19428 1.19428 1.19428 1.19428 1.19428 1.19428 1.19428
          1.19428 1.19428 1.19427 1.19427 1.19427 1.19427 1.19427 1.19427 1.19427 1.19427 1.19427 1.19427
          1.19441 1.19441 1.19455 1.19455 1.19464 1.19464 1.19471 1.19471 1.19475 1.19475 1.19479 1.19479
          1.19481 1.19481 1.19483 1.19483 1.19485 1.19485 1.19486 1.19486 1.19488 1.19488 1.19489 1.19489
          1.19489 1.19489 1.1949 1.1949 1.19491 1.19491 1.19491 1.19491 1.19492 1.19492 1.19492 1.19492
          1.19492 1.19492 1.19493 1.19493 1.19493 1.19493 1.19493 1.19493 1.19493 1.19493 1.19492 1.19492
          1.19473 1.19473 1.1925 1.1925 1.17221 1.17221 1.20001 1.20001 1.28953 1.28953 0.64835 0.64835
          0.592766 0.592766
        </DataArray>
        <DataArray type="Float32" Name="x^H2O_w" NumberOfComponents="1" format="ascii">
          0.99996 0.99996 0.99996 0.99996 0.99996 0.99996 0.99996 0.99996 0.99996 0.99996 0.99996 0.99996
          0.99996 0.99996 0.99996 0.99996 0.99996 0.99996 0.99996 0.99996 0.99996 0.99996 0.99996 0.99996
          0.99996 0.99996 0.99996 0.99996 0.99996 0.99996 0.99996 0.99996 0.99996 0.99996 0.99996 0.99996
          0.99996 0.99996 0.99996 0.99996 0.99996 0.99996 0.99996 0.99996 0.99996 0.99996 0.99996 0.99996
          0.99996 0.99996 0.99996 0.99996 0.99996 0.99996 0.99996 0.99996 0.99996 0.99996 0.99996 0.99996
          0.99996 0.99996 0.99996 0.99996 0.99996 0.99996 0.99996 0.99996 0.99996 0.99996 0.99996 0.99996
          0.99996 0.99996 0.99996 0.99996 0.99996 0.99996 0.99996 0.99996 0.99996 0.99996 0.99996 0.99996
          0.99996 0.99996 0.99996 0.99996 0.99996 0.99996 0.99996 0.99996 0.99996 0.99996 0.99996 0.99996
          0.99996 0.99996 0.99996 0.99996 0.99996 0.99996 0.99996 0.99996 0.99996 0.99996 0.99996 0.99996
          0.99996 0.99996 0.99996 0.99996 0.99996 0.99996 0.99996 0.99996 0.99996 0.99996 0.99996 0.99996
          0.99996 0.99996 0.99996 0.99996 0.99996 0.99996 0.99996 0.99996 0.99996 0.99996 0.99996 0.99996
          0.99996 0.99996 0.99996 0.99996 0.99996 0.99996 0.99996 0.99996 0.99996 0.99996 0.99996 0.99996
          0.99996 0.99996 0.99996 0.99996 0.99996 0.99996 0.99996 0.99996 0.99996 0.99996 0.99996 0.99996
          0.99996 0.99996 0.99996 0.99996 0.99996 0.99996 0.99996 0.99996 0.99996 0.99996 0.99996 0.99996
          0.99996 0.99996 0.99996 0.99996 0.99996 0.99996 0.99996 0.99996 0.99996 0.99996 0.99996 0.99996
          0.99996 0.99996 0.99996 0.99996 0.99996 0.99996 0.99996 0.99996 0.99996 0.99996 0.99996 0.99996
          0.99996 0.99996 0.99996 0.99996 0.99996 0.99996 0.99996 0.99996 0.99996 0.99996 0.99996 0.99996
          0.99996 0.99996 0.99996 0.99996 0.99996 0.99996 0.99996 0.99996 0.99996 0.99996 0.99996 0.99996
          0.99996 0.99996 0.99996 0.99996 0.99996 0.99996 0.99996 0.99996 0.99996 0.99996 0.99996 0.99996
          0.99996 0.99996 0.999959 0.999959 0.999945 0.999945 0.999622 0.999622 0.999365 0.999365 0.999948 0.999948
          1 1
        </DataArray>
        <DataArray type="Float32" Name="x^xylene_w" NumberOfComponents="1" format="ascii">
          2.62566e-05 2.62566e-05 2.62566e-05 2.62566e-05 2.62566e-05 2.62566e-05 2.62566e-05 2.62566e-05 2.62566e-05 2.62566e-05 2.62566e-05 2.62566e-05
          2.62566e-05 2.62566e-05 2.62566e-05 2.62566e-05 2.62566e-05 2.62566e-05 2.62566e-05 2.62566e-05 2.62566e-05 2.62566e-05 2.62566e-05 2.62566e-05
          2.62566e-05 2.62566e-05 2.62566e-05 2.62566e-05 2.62566e-05 2.62566e-05 2.62566e-05 2.62566e-05 2.62566e-05 2.62566e-05 2.62566e-05 2.62566e-05
          2.62566e-05 2.62566e-05 2.62566e-05 2.62566e-05 2.62566e-05 2.62566e-05 2.62566e-05 2.62566e-05 2.62566e-05 2.62566e-05 2.62566e-05 2.62566e-05
          2.62566e-05 2.62566e-05 2.62566e-05 2.62566e-05 2.62566e-05 2.62566e-05 2.62566e-05 2.62566e-05 2.62566e-05 2.62566e-05 2.62566e-05 2.62566e-05
          2.62566e-05 2.62566e-05 2.62566e-05 2.62566e-05 2.62566e-05 2.62566e-05 2.62566e-05 2.62566e-05 2.62566e-05 2.62566e-05 2.62566e-05 2.62566e-05
          2.62566e-05 2.62566e-05 2.62566e-05 2.62566e-05 2.62566e-05 2.62566e-05 2.62566e-05 2.62566e-05 2.62566e-05 2.62566e-05 2.62566e-05 2.62566e-05
          2.62566e-05 2.62566e-05 2.62566e-05 2.62566e-05 2.62566e-05 2.62566e-05 2.62566e-05 2.62566e-05 2.62566e-05 2.62566e-05 2.62566e-05 2.62566e-05
          2.62566e-05 2.62566e-05 2.62566e-05 2.62566e-05 2.62566e-05 2.62566e-05 2.62566e-05 2.62566e-05 2.62566e-05 2.62566e-05 2.62566e-05 2.62566e-05
          2.62566e-05 2.62566e-05 2.62566e-05 2.62566e-05 2.62566e-05 2.62566e-05 2.62566e-05 2.62566e-05 2.62566e-05 2.62566e-05 2.62566e-05 2.62566e-05
          2.62566e-05 2.62566e-05 2.62566e-05 2.62566e-05 2.62566e-05 2.62566e-05 2.62566e-05 2.62566e-05 2.62566e-05 2.62566e-05 2.62566e-05 2.62566e-05
          2.62566e-05 2.62566e-05 2.62566e-05 2.62566e-05 2.62566e-05 2.62566e-05 2.62566e-05 2.62566e-05 2.62566e-05 2.62566e-05 2.62566e-05 2.62566e-05
          2.62566e-05 2.62566e-05 2.62566e-05 2.62566e-05 2.62566e-05 2.62566e-05 2.62566e-05 2.62566e-05 2.62566e-05 2.62566e-05 2.62566e-05 2.62566e-05
          2.62566e-05 2.62566e-05 2.62566e-05 2.62566e-05 2.62566e-05 2.62566e-05 2.62566e-05 2.62566e-05 2.62566e-05 2.62566e-05 2.62566e-05 2.62566e-05
          2.62566e-05 2.62566e-05 2.62566e-05 2.62566e-05 2.62566e-05 2.62566e-05 2.62566e-05 2.62566e-05 2.62566e-05 2.62566e-05 2.62566e-05 2.62566e-05
          2.62564e-05 2.62564e-05 2.62564e-05 2.62564e-05 2.62564e-05 2.62564e-05 2.62565e-05 2.62565e-05 2.62565e-05 2.62565e-05 2.62566e-05 2.62566e-05
          2.62566e-05 2.62566e-05 2.62566e-05 2.62566e-05 2.62566e-05 2.62566e-05 2.62566e-05 2.62566e-05 2.62566e-05 2.62566e-05 2.62566e-05 2.62566e-05
          2.62566e-05 2.62566e-05 2.62566e-05 2.62566e-05 2.62566e-05 2.62566e-05 2.62566e-05 2.62566e-05 2.62566e-05 2.62566e-05 2.62566e-05 2.62566e-05
          2.62567e-05 2.62567e-05 2.62567e-05 2.62567e-05 2.62567e-05 2.62567e-05 2.62567e-05 2.62567e-05 2.62573e-05 2.62573e-05 2.62654e-05 2.62654e-05
          2.63665e-05 2.63665e-05 2.75953e-05 2.75953e-05 4.32051e-05 4.32051e-05 0.000373835 0.000373835 0.000634955 0.000634955 5.22255e-05 5.22255e-05
          -8.08452e-32 -1.43405e-31
        </DataArray>
        <DataArray type="Float32" Name="x^Air_w" NumberOfComponents="1" format="ascii">
          1.37483e-05 1.37483e-05 1.37482e-05 1.37482e-05 1.37482e-05 1.37482e-05 1.37482e-05 1.37482e-05 1.37482e-05 1.37482e-05 1.37482e-05 1.37482e-05
          1.37482e-05 1.37482e-05 1.37481e-05 1.37481e-05 1.37481e-05 1.37481e-05 1.37481e-05 1.37481e-05 1.37481e-05 1.37481e-05 1.37481e-05 1.37481e-05
          1.37481e-05 1.37481e-05 1.3748e-05 1.3748e-05 1.3748e-05 1.3748e-05 1.3748e-05 1.3748e-05 1.3748e-05 1.3748e-05 1.3748e-05 1.3748e-05
          1.3748e-05 1.3748e-05 1.37479e-05 1.37479e-05 1.37479e-05 1.37479e-05 1.37479e-05 1.37479e-05 1.37479e-05 1.37479e-05 1.37479e-05 1.37479e-05
          1.37479e-05 1.37479e-05 1.37478e-05 1.37478e-05 1.37478e-05 1.37478e-05 1.37478e-05 1.37478e-05 1.37478e-05 1.37478e-05 1.37478e-05 1.37478e-05
          1.37478e-05 1.37478e-05 1.37477e-05 1.37477e-05 1.37477e-05 1.37477e-05 1.37477e-05 1.37477e-05 1.37477e-05 1.37477e-05 1.37477e-05 1.37477e-05
          1.37477e-05 1.37477e-05 1.37476e-05 1.37476e-05 1.37476e-05 1.37476e-05 1.37476e-05 1.37476e-05 1.37476e-05 1.37476e-05 1.37476e-05 1.37476e-05
          1.37476e-05 1.37476e-05 1.37475e-05 1.37475e-05 1.37475e-05 1.37475e-05 1.37475e-05 1.37475e-05 1.37475e-05 1.37475e-05 1.37475e-05 1.37475e-05
          1.37475e-05 1.37475e-05 1.37474e-05 1.37474e-05 1.37474e-05 1.37474e-05 1.37474e-05 1.37474e-05 1.37474e-05 1.37474e-05 1.37474e-05 1.37474e-05
          1.37474e-05 1.37474e-05 1.37473e-05 1.37473e-05 1.37473e-05 1.37473e-05 1.37473e-05 1.37473e-05 1.37473e-05 1.37473e-05 1.37473e-05 1.37473e-05
          1.37473e-05 1.37473e-05 1.37472e-05 1.37472e-05 1.37472e-05 1.37472e-05 1.37472e-05 1.37472e-05 1.37472e-05 1.37472e-05 1.37472e-05 1.37472e-05
          1.37472e-05 1.37472e-05 1.37471e-05 1.37471e-05 1.37471e-05 1.37471e-05 1.37471e-05 1.37471e-05 1.37471e-05 1.37471e-05 1.37471e-05 1.37471e-05
          1.37471e-05 1.37471e-05 1.3747e-05 1.3747e-05 1.3747e-05 1.3747e-05 1.3747e-05 1.3747e-05 1.3747e-05 1.3747e-05 1.3747e-05 1.3747e-05
          1.3747e-05 1.3747e-05 1.37469e-05 1.37469e-05 1.37469e-05 1.37469e-05 1.37469e-05 1.37469e-05 1.37469e-05 1.37469e-05 1.37469e-05 1.37469e-05
          1.37469e-05 1.37469e-05 1.37468e-05 1.37468e-05 1.37468e-05 1.37468e-05 1.37468e-05 1.37468e-05 1.37468e-05 1.37468e-05 1.37468e-05 1.37468e-05
          1.37485e-05 1.37485e-05 1.37502e-05 1.37502e-05 1.37513e-05 1.37513e-05 1.37521e-05 1.37521e-05 1.37526e-05 1.37526e-05 1.37531e-05 1.37531e-05
          1.37534e-05 1.37534e-05 1.37536e-05 1.37536e-05 1.37538e-05 1.37538e-05 1.3754e-05 1.3754e-05 1.37541e-05 1.37541e-05 1.37543e-05 1.37543e-05
          1.37544e-05 1.37544e-05 1.37544e-05 1.37544e-05 1.37545e-05 1.37545e-05 1.37546e-05 1.37546e-05 1.37546e-05 1.37546e-05 1.37547e-05 1.37547e-05
          1.37547e-05 1.37547e-05 1.37547e-05 1.37547e-05 1.37548e-05 1.37548e-05 1.37548e-05 1.37548e-05 1.37547e-05 1.37547e-05 1.37534e-05 1.37534e-05
          1.37367e-05 1.37367e-05 1.35411e-05 1.35411e-05 1.18066e-05 1.18066e-05 3.97317e-06 3.97317e-06 3.13246e-11 3.13246e-11 3.00459e-11 3.00459e-11
          2.58407e-11 2.58407e-11
        </DataArray>
        <DataArray type="Float32" Name="x^H2O_n" NumberOfComponents="1" format="ascii">
          1e-10 1e-10 1e-10 1e-10 1e-10 1e-10 1e-10 1e-10 1e-10 1e-10 1e-10 1e-10
          1e-10 1e-10 1e-10 1e-10 1e-10 1e-10 1e-10 1e-10 1e-10 1e-10 1e-10 1e-10
          1e-10 1e-10 1e-10 1e-10 1e-10 1e-10 1e-10 1e-10 1e-10 1e-10 1e-10 1e-10
          1e-10 1e-10 1e-10 1e-10 1e-10 1e-10 1e-10 1e-10 1e-10 1e-10 1e-10 1e-10
          1e-10 1e-10 1e-10 1e-10 1e-10 1e-10 1e-10 1e-10 1e-10 1e-10 1e-10 1e-10
          1e-10 1e-10 1e-10 1e-10 1e-10 1e-10 1e-10 1e-10 1e-10 1e-10 1e-10 1e-10
          1e-10 1e-10 1e-10 1e-10 1e-10 1e-10 1e-10 1e-10 1e-10 1e-10 1e-10 1e-10