<?xml version="1.0"?>
<VTKFile type="UnstructuredGrid" version="0.1" byte_order="LittleEndian">
  <UnstructuredGrid>
    <Piece NumberOfCells="120" NumberOfPoints="242">
      <CellData Scalars="Sw">
        <DataArray type="Float32" Name="Sw" NumberOfComponents="1" format="ascii">
          0.005 0.005 0.005 0.005 0.005 0.005 0.005 0.005 0.005 0.005 0.005 0.005
          0.005 0.005 0.005 0.005 0.005 0.005 0.005 0.005 0.005 0.005 0.005 0.005
          0.005 0.005 0.005 0.005 0.005 0.005 0.005 0.005 0.005 0.005 0.005 0.005
          0.005 0.005 0.005 0.005 0.005 0.005 0.005 0.005 0.005 0.005 0.005 0.005
          0.005 0.005 0.005 0.005 0.005 0.005 0.005 0.005 0.005 0.005 0.005 0.005
          0.005 0.005 0.005 0.005 0.005 0.005 0.005 0.005 0.005 0.005 0.005 0.005
          0.005 0.005 0.005 0.005 0.005 0.005 0.005 0.005 0.005 0.005 0.005 0.005
          0.005 0.005 0.005 0.005 0.005 0.00499997 0.00499999 0.00499999 0.00499999 0.00499999 0.005 0.005
          0.005 0.005 0.00500001 0.00500001 0.00500001 0.00500001 0.00500001 0.00500001 0.005 0.00500001 0.00500001 0.00500001
          0.00500001 0.00500001 0.00500001 0.00500001 0.00500003 0.00500023 0.00500246 0.0050325 0.00759219 0.0625084 0.120604 0.150832
        </DataArray>
        <DataArray type="Float32" Name="Sn" NumberOfComponents="1" format="ascii">
          0.0001 0.0001 0.0001 0.0001 9.99999e-05 9.99998e-05 9.99998e-05 9.99997e-05 9.99997e-05 9.99996e-05 9.99995e-05 9.99995e-05
          9.99994e-05 9.99994e-05 9.99993e-05 9.99992e-05 9.99992e-05 9.99991e-05 9.99991e-05 9.9999e-05 9.99989e-05 9.99989e-05 9.99988e-05 9.99988e-05
          9.99987e-05 9.99987e-05 9.99986e-05 9.99985e-05 9.99985e-05 9.99984e-05 9.99984e-05 9.99983e-05 9.99982e-05 9.99982e-05 9.99981e-05 9.99981e-05
          9.9998e-05 9.99979e-05 9.99979e-05 9.99978e-05 9.99978e-05 9.99977e-05 9.99976e-05 9.99976e-05 9.99975e-05 9.99975e-05 9.99974e-05 9.99973e-05
          9.99973e-05 9.99972e-05 9.99972e-05 9.99971e-05 9.9997e-05 9.9997e-05 9.99969e-05 9.99969e-05 9.99968e-05 9.99967e-05 9.99967e-05 9.99966e-05
          9.99966e-05 9.99965e-05 9.99964e-05 9.99964e-05 9.99963e-05 9.99963e-05 9.99962e-05 9.99961e-05 9.99961e-05 9.9996e-05 9.9996e-05 9.99959e-05
          9.99959e-05 9.99958e-05 9.99957e-05 9.99957e-05 9.99956e-05 9.99956e-05 9.99955e-05 9.99954e-05 9.99954e-05 9.99953e-05 9.99953e-05 9.99952e-05
          9.99951e-05 9.99951e-05 9.9995e-05 9.9995e-05 9.99948e-05 9.99359e-05 0.901346 0.874911 0.845883 0.814377 0.780593 0.74476
          0.707095 0.667772 0.626895 0.584499 0.540551 0.494987 0.447792 0.399167 0.349857 0.301726 0.258414 0.224775
          0.202168 0.186288 0.173436 0.162081 0.151753 0.142526 0.133945 0.128229 0.168423 0.171855 0.0632864 0
        </DataArray>
        <DataArray type="Float32" Name="Sg" NumberOfComponents="1" format="ascii">
          0.9949 0.9949 0.9949 0.9949 0.9949 0.9949 0.9949 0.9949 0.9949 0.9949 0.9949 0.9949
          0.9949 0.9949 0.9949 0.9949 0.9949 0.9949 0.9949 0.9949 0.9949 0.9949 0.9949 0.9949
          0.9949 0.9949 0.9949 0.9949 0.9949 0.9949 0.9949 0.9949 0.9949 0.9949 0.9949 0.9949
          0.9949 0.9949 0.9949 0.9949 0.9949 0.9949 0.9949 0.9949 0.9949 0.9949 0.9949 0.9949
          0.9949 0.9949 0.9949 0.9949 0.9949 0.9949 0.9949 0.9949 0.9949 0.9949 0.9949 0.9949
          0.9949 0.9949 0.9949 0.9949 0.9949 0.9949 0.9949 0.9949 0.9949 0.9949 0.9949 0.9949
          0.9949 0.9949 0.9949 0.9949 0.9949 0.9949 0.9949 0.9949 0.9949 0.9949 0.9949 0.9949
          0.9949 0.9949 0.9949 0.9949 0.9949 0.9949 0.0936537 0.120089 0.149117 0.180623 0.214407 0.25024
          0.287905 0.327228 0.368105 0.410501 0.454449 0.500013 0.547208 0.595833 0.645143 0.693274 0.736586 0.770225
          0.792832 0.808712 0.821564 0.832919 0.843247 0.852474 0.861053 0.866739 0.823984 0.765637 0.81611 0.849168
        </DataArray>
        <DataArray type="Float32" Name="pw" NumberOfComponents="1" format="ascii">
          99947.1 99946.9 99946.8 99946.7 99946.6 99946.5 99946.4 99946.2 99946.1 99946 99945.9 99945.8
          99945.7 99945.5 99945.4 99945.3 99945.2 99945.1 99945 99944.8 99944.7 99944.6 99944.5 99944.4
          99944.3 99944.1 99944 99943.9 99943.8 99943.7 99943.6 99943.4 99943.3 99943.2 99943.1 99943
          99942.9 99942.7 99942.6 99942.5 99942.4 99942.3 99942.2 99942 99941.9 99941.8 99941.7 99941.6
          99941.5 99941.3 99941.2 99941.1 99941 99940.9 99940.8 99940.6 99940.5 99940.4 99940.3 99940.2
          99940.1 99939.9 99939.8 99939.7 99939.6 99939.5 99939.4 99939.2 99939.1 99939 99938.9 99938.8
          99938.6 99938.5 99938.4 99938.3 99938.2 99938.1 99938 99937.8 99937.7 99937.6 99937.5 99937.4
          99937.2 99937.1 99937 99936.9 99936.8 99936.7 45848.3 45763.5 45678 45591.4 45503.5 45413.5
          45320.7 45223.9 45121.6 45011.8 44891.4 44756.4 44601 44416.6 44192 43914.2 43579.1 43217.7
          42884.8 42576 42252.1 41877 41414.6 40826.5 39981.2 39080.9 43095.5 63575.1 85085.3 94263.8
        </DataArray>
        <DataArray type="Float32" Name="pn" NumberOfComponents="1" format="ascii">
          99947.1 99946.9 99946.8 99946.7 99946.6 99946.5 99946.4 99946.2 99946.1 99946 99945.9 99945.8
          99945.7 99945.5 99945.4 99945.3 99945.2 99945.1 99945 99944.8 99944.7 99944.6 99944.5 99944.4
          99944.3 99944.1 99944 99943.9 99943.8 99943.7 99943.6 99943.4 99943.3 99943.2 99943.1 99943
          99942.9 99942.7 99942.6 99942.5 99942.4 99942.3 99942.2 99942 99941.9 99941.8 99941.7 99941.6
          99941.5 99941.3 99941.2 99941.1 99941 99940.9 99940.8 99940.6 99940.5 99940.4 99940.3 99940.2
          99940.1 99939.9 99939.8 99939.7 99939.6 99939.5 99939.4 99939.2 99939.1 99939 99938.9 99938.8
          99938.6 99938.5 99938.4 99938.3 99938.2 99938.1 99938 99937.8 99937.7 99937.6 99937.5 99937.4
          99937.2 99937.1 99937 99936.9 99936.8 99936.7 98729.4 98644.6 98559.1 98472.6 98384.6 98294.6
          98201.8 98105 98002.7 97892.9 97772.5 97637.5 97482.1 97297.8 97073.2 96795.3 96460.2 96098.8
          95765.9 95457.1 95133.3 94758.2 94295.7 93707.6 92861.4 91950.5 95063.7 96201.5 92784 94263.8
        </DataArray>
        <DataArray type="Float32" Name="pg" NumberOfComponents="1" format="ascii">
          99999.9 99999.8 99999.7 99999.6 99999.5 99999.4 99999.2 99999.1 99999 99998.9 99998.8 99998.7
          99998.5 99998.4 99998.3 99998.2 99998.1 99998 99997.8 99997.7 99997.6 99997.5 99997.4 99997.3
          99997.1 99997 99996.9 99996.8 99996.7 99996.6 99996.4 99996.3 99996.2 99996.1 99996 99995.9
          99995.7 99995.6 99995.5 99995.4 99995.3 99995.2 99995 99994.9 99994.8 99994.7 99994.6 99994.5
          99994.3 99994.2 99994.1 99994 99993.9 99993.8 99993.6 99993.5 99993.4 99993.3 99993.2 99993
          99992.9 99992.8 99992.7 99992.6 99992.5 99992.4 99992.2 99992.1 99992 99991.9 99991.8 99991.6
          99991.5 99991.4 99991.3 99991.2 99991.1 99990.9 99990.8 99990.7 99990.6 99990.5 99990.4 99990.2
          99990.1 99990 99989.9 99989.8 99989.7 99989.5 99998 100008 100015 100020 100024 100026
          100029 100030 100032 100033 100034 100035 100035 100036 100037 100037 100037 100038
          100038 100038 100039 100039 100039 100040 100040 100040 100041 100083 100261 100358
        </DataArray>
        <DataArray type="Float32" Name="rhow" NumberOfComponents="1" format="ascii">
          997.661 997.661 997.661 997.661 997.661 997.661 997.661 997.661 997.661 997.661 997.661 997.661
          997.661 997.661 997.661 997.661 997.661 997.661 997.661 997.661 997.661 997.661 997.661 997.661
          997.661 997.661 997.661 997.661 997.661 997.661 997.661 997.661 997.661 997.661 997.661 997.661
          997.661 997.661 997.661 997.661 997.661 997.661 997.661 997.661 997.661 997.661 997.661 997.661
          997.661 997.661 997.661 997.661 997.661 997.661 997.661 997.661 997.661 997.661 997.661 997.661
          997.661 997.661 997.661 997.661 997.661 997.661 997.661 997.661 997.661 997.661 997.661 997.661
          997.661 997.661 997.661 997.661 997.661 997.661 997.661 997.661 997.661 997.661 997.661 997.661
          997.661 997.661 997.661 997.661 997.661 997.661 997.637 997.637 997.637 997.637 997.637 997.637
          997.637 997.637 997.637 997.637 997.637 997.637 997.636 997.636 997.636 997.636 997.636 997.636
          997.636 997.635 997.635 997.635 997.635 997.632 997.603 997.304 993.633 968.606 966.822 958.85
        </DataArray>
        <DataArray type="Float32" Name="rhon" NumberOfComponents="1" format="ascii">
          860.465 860.465 860.465 860.465 860.465 860.465 860.465 860.465 860.465 860.465 860.465 860.465
          860.465 860.465 860.465 860.465 860.465 860.465 860.465 860.465 860.465 860.465 860.465 860.465
          860.465 860.465 860.465 860.465 860.465 860.465 860.465 860.465 860.465 860.465 860.465 860.465
          860.465 860.465 860.465 860.465 860.465 860.465 860.465 860.465 860.465 860.465 860.465 860.465
          860.465 860.465 860.465 860.465 860.465 860.465 860.465 860.465 860.465 860.465 860.465 860.465
          860.465 860.465 860.465 860.465 860.465 860.465 860.465 860.465 860.465 860.465 860.465 860.465
          860.465 860.465 860.465 860.465 860.465 860.465 860.465 860.465 860.465 860.465 860.465 860.465
          860.465 860.465 860.465 860.465 860.465 860.465 860.465 860.465 860.465 860.465 860.465 860.465
          860.465 860.465 860.465 860.465 860.465 860.465 860.465 860.465 860.465 860.465 860.465 860.465
          860.465 860.465 860.465 860.465 860.464 860.454 860.347 859.226 848.469 801.198 798.254 791.319
        </DataArray>
        <DataArray type="Float32" Name="rhog" NumberOfComponents="1" format="ascii">
          1.19439 1.19439 1.19439 1.19439 1.19439 1.19438 1.19438 1.19438 1.19438 1.19438 1.19438 1.19438
          1.19437 1.19437 1.19437 1.19437 1.19437 1.19437 1.19437 1.19436 1.19436 1.19436 1.19436 1.19436
          1.19436 1.19436 1.19435 1.19435 1.19435 1.19435 1.19435 1.19435 1.19435 1.19435 1.19434 1.19434
          1.19434 1.19434 1.19434 1.19434 1.19434 1.19433 1.19433 1.19433 1.19433 1.19433 1.19433 1.19433
          1.19432 1.19432 1.19432 1.19432 1.19432 1.19432 1.19432 1.19432 1.19431 1.19431 1.19431 1.19431
          1.19431 1.19431 1.19431 1.1943 1.1943 1.1943 1.1943 1.1943 1.1943 1.1943 1.19429 1.19429
          1.19429 1.19429 1.19429 1.19429 1.19429 1.19428 1.19428 1.19428 1.19428 1.19428 1.19428 1.19428
          1.19428 1.19427 1.19427 1.19427 1.19427 1.19427 1.19437 1.19449 1.19457 1.19463 1.19467 1.1947
          1.19473 1.19475 1.19477 1.19478 1.19479 1.1948 1.19481 1.19482 1.19482 1.19483 1.19483 1.19483
          1.19484 1.19484 1.19485 1.19485 1.19485 1.19482 1.19445 1.19071 1.16157 1.26379 1.28932 0.616499
        </DataArray>
        <DataArray type="Float32" Name="x^H2O_w" NumberOfComponents="1" format="ascii">
          0.99996 0.99996 0.99996 0.99996 0.99996 0.99996 0.99996 0.99996 0.99996 0.99996 0.99996 0.99996
          0.99996 0.99996 0.99996 0.99996 0.99996 0.99996 0.99996 0.99996 0.99996 0.99996 0.99996 0.99996
          0.99996 0.99996 0.99996 0.99996 0.99996 0.99996 0.99996 0.99996 0.99996 0.99996 0.99996 0.99996
          0.99996 0.99996 0.99996 0.99996 0.99996 0.99996 0.99996 0.99996 0.99996 0.99996 0.99996 0.99996
          0.99996 0.99996 0.99996 0.99996 0.99996 0.99996 0.99996 0.99996 0.99996 0.99996 0.99996 0.99996
          0.99996 0.99996 0.99996 0.99996 0.99996 0.99996 0.99996 0.99996 0.99996 0.99996 0.99996 0.99996
          0.99996 0.99996 0.99996 0.99996 0.99996 0.99996 0.99996 0.99996 0.99996 0.99996 0.99996 0.99996
          0.99996 0.99996 0.99996 0.99996 0.99996 0.99996 0.99996 0.99996 0.99996 0.99996 0.99996 0.99996
          0.99996 0.99996 0.99996 0.99996 0.99996 0.99996 0.99996 0.99996 0.99996 0.99996 0.99996 0.99996
          0.99996 0.99996 0.99996 0.99996 0.99996 0.99996 0.99996 0.999958 0.999932 0.999433 0.999367 0.999978
        </DataArray>
        <DataArray type="Float32" Name="x^xylene_w" NumberOfComponents="1" format="ascii">
          2.62566e-05 2.62566e-05 2.62566e-05 2.62566e-05 2.62566e-05 2.62566e-05 2.62566e-05 2.62566e-05 2.62566e-05 2.62566e-05 2.62566e-05 2.62566e-05
          2.62566e-05 2.62566e-05 2.62566e-05 2.62566e-05 2.62566e-05 2.62566e-05 2.62566e-05 2.62566e-05 2.62566e-05 2.62566e-05 2.62566e-05 2.62566e-05
          2.62566e-05 2.62566e-05 2.62566e-05 2.62566e-05 2.62566e-05 2.62566e-05 2.62566e-05 2.62566e-05 2.62566e-05 2.62566e-05 2.62566e-05 2.62566e-05
          2.62566e-05 2.62566e-05 2.62566e-05 2.62566e-05 2.62566e-05 2.62566e-05 2.62566e-05 2.62566e-05 2.62566e-05 2.62566e-05 2.62566e-05 2.62566e-05
          2.62566e-05 2.62566e-05 2.62566e-05 2.62566e-05 2.62566e-05 2.62566e-05 2.62566e-05 2.62566e-05 2.62566e-05 2.62566e-05 2.62566e-05 2.62566e-05
          2.62566e-05 2.62566e-05 2.62566e-05 2.62566e-05 2.62566e-05 2.62566e-05 2.62566e-05 2.62566e-05 2.62566e-05 2.62566e-05 2.62566e-05 2.62566e-05
          2.62566e-05 2.62566e-05 2.62566e-05 2.62566e-05 2.62566e-05 2.62566e-05 2.62566e-05 2.62566e-05 2.62566e-05 2.62566e-05 2.62566e-05 2.62566e-05
          2.62566e-05 2.62566e-05 2.62566e-05 2.62566e-05 2.62566e-05 2.62566e-05 2.62565e-05 2.62564e-05 2.62565e-05 2.62565e-05 2.62566e-05 2.62566e-05
          2.62566e-05 2.62566e-05 2.62566e-05 2.62566e-05 2.62566e-05 2.62566e-05 2.62566e-05 2.62566e-05 2.62566e-05 2.62566e-05 2.62566e-05 2.62566e-05
          2.62566e-05 2.62567e-05 2.62567e-05 2.62568e-05 2.62584e-05 2.62764e-05 2.6472e-05 2.85912e-05 5.7154e-05 0.000565966 0.000633245 2.2444e-05
        </DataArray>
        <DataArray type="Float32" Name="x^Air_w" NumberOfComponents="1" format="ascii">
          1.37483e-05 1.37482e-05 1.37482e-05 1.37482e-05 1.37482e-05 1.37482e-05 1.37482e-05 1.37481e-05 1.37481e-05 1.37481e-05 1.37481e-05 1.37481e-05
          1.37481e-05 1.3748e-05 1.3748e-05 1.3748e-05 1.3748e-05 1.3748e-05 1.37479e-05 1.37479e-05 1.37479e-05 1.37479e-05 1.37479e-05 1.37479e-05
          1.37478e-05 1.37478e-05 1.37478e-05 1.37478e-05 1.37478e-05 1.37478e-05 1.37477e-05 1.37477e-05 1.37477e-05 1.37477e-05 1.37477e-05 1.37477e-05
          1.37476e-05 1.37476e-05 1.37476e-05 1.37476e-05 1.37476e-05 1.37476e-05 1.37475e-05 1.37475e-05 1.37475e-05 1.37475e-05 1.37475e-05 1.37475e-05
          1.37474e-05 1.37474e-05 1.37474e-05 1.37474e-05 1.37474e-05 1.37474e-05 1.37473e-05 1.37473e-05 1.37473e-05 1.37473e-05 1.37473e-05 1.37473e-05
          1.37472e-05 1.37472e-05 1.37472e-05 1.37472e-05 1.37472e-05 1.37472e-05 1.37471e-05 1.37471e-05 1.37471e-05 1.37471e-05 1.37471e-05 1.37471e-05
          1.3747e-05 1.3747e-05 1.3747e-05 1.3747e-05 1.3747e-05 1.3747e-05 1.37469e-05 1.37469e-05 1.37469e-05 1.37469e-05 1.37469e-05 1.37469e-05
          1.37468e-05 1.37468e-05 1.37468e-05 1.37468e-05 1.37468e-05 1.37468e-05 1.3748e-05 1.37495e-05 1.37504e-05 1.37511e-05 1.37517e-05 1.3752e-05
          1.37524e-05 1.37526e-05 1.37528e-05 1.3753e-05 1.37531e-05 1.37532e-05 1.37533e-05 1.37534e-05 1.37535e-05 1.37535e-05 1.37536e-05 1.37536e-05
          1.37537e-05 1.37537e-05 1.37538e-05 1.37538e-05 1.37536e-05 1.37506e-05 1.37184e-05 1.33911e-05 1.08612e-05 1.02556e-06 3.0255e-08 6.16671e-10
        </DataArray>
        <DataArray type="Float32" Name="x^H2O_n" NumberOfComponents="1" format="ascii">
          1e-10 1e-10 1e-10 1e-10 1e-10 1e-10 1e-10 1e-10 1e-10 1e-10 1e-10 1e-10
          1e-10 1e-10 1e-10 1e-10 1e-10 1e-10 1e-10 1e-10 1e-10 1e-10 1e-10 1e-10
          1e-10 1e-10 1e-10 1e-10 1e-10 1e-10 1e-10 1e-10 1e-10 1e-10 1e-10 1e-10
          1e-10 1e-10 1e-10 1e-10 1e-10 1e-10 1e-10 1e-10 1e-10 1e-10 1e-10 1e-10
          1e-10 1e-10 1e-10 1e-10 1e-10 1e-10 1e-10 1e-10 1e-10 1e-10 1e-10 1e-10
          1e-10 1e-10 1e-10 1e-10 1e-10 1e-10 1e-10 1e-10 1e-10 1e-10 1e-10 1e-10
          1e-10 1e-10 1e-10 1e-10 1e-10 1e-10 1e-10 1e-10 1e-10 1e-10 1e-10 1e-10
          1e-10 1e-10 1e-10 1e-10 1e-10 1e-10 1e-10 1e-10 1e-10 1e-10 1e-10 1e-10
          1e-10 1e-10 1e-10 1e-10 1e-10 1e-10 1e-10 1e-10 1e-10 1e-10 1e-10 1e-10
          1e-10 1e-10 1e-10 1e-10 1e-10 1e-10 1e-10 1e-10 1e-10 1e-10 1e-10 1e-10
        </DataArray>
        <DataArray type="Float32" Name="x^xylene_n" NumberOfComponents="1" format="ascii">
          1 1 1 1 1 1 1 1 1 1 1 1
          1 1 1 1 1 1 1 1 1 1 1 1
          1 1 1 1 1 1 1 1 1 1 1 1
          1 1 1 1 1 1 1 1 1 1 1 1
          1 1 1 1 1 1 1 1 1 1 1 1
          1 1 1 1 1 1 1 1 1 1 1 1
          1 1 1 1 1 1 1 1 1 1 1 1
          1 1 1 1 1 1 1 1 1 1 1 1
          1 1 1 1 1 1 1 1 1 1 1 1
          1 1 1 1 1 1 1 1 1 1 1 0.0275024
        </DataArray>
        <DataArray type="Float32" Name="x^Air_n" NumberOfComponents="1" format="ascii">
          1e-10 1e-10 1e-10 1e-10 1e-10 1e-10 1e-10 1e-10 1e-10 1e-10 1e-10 1e-10
          1e-10 1e-10 1e-10 1e-10 1e-10 1e-10 1e-10 1e-10 1e-10 1e-10 1e-10 1e-10
          1e-10 1e-10 1e-10 1e-10 1e-10 1e-10 1e-10 1e-10 1e-10 1e-10 1e-10 1e-10
          1e-10 1e-10 1e-10 1e-10 1e-10 1e-10 1e-10 1e-10 1e-10 1e-10 1e-10 1e-10
          1e-10 1e-10 1e-10 1e-10 1e-10 1e-10 1e-10 1e-10 1e-10 1e-10 1e-10 1e-10
          1e-10 1e-10 1e-10 1e-10 1e-10 1e-10 1e-10 1e-10 1e-10 1e-10 1e-10 1e-10
          1e-10 1e-10 1e-10 1e-10 1e-10 1e-10 1e-10 1e-10 1e-10 1e-10 1e-10 1e-10
          1e-10 1e-10 1e-10 1e-10 1e-10 1e-10 1e-10 1e-10 1e-10 1e-10 1e-10 1e-10
          1e-10 1e-10 1e-10 1e-10 1e-10 1e-10 1e-10 1e-10 1e-10 1e-10 1e-10 1e-10
          1e-10 1e-10 1e-10 1e-10 1e-10 1e-10 1e-10 1e-10 1e-10 1e-10 1e-10 1e-10
        </DataArray>
        <DataArray type="Float32" Name="x^H2O_g" NumberOfComponents="1" format="ascii">
          0.0282497 0.0282498 0.0282498 0.0282498 0.0282499 0.0282499 0.0282499 0.02825 0.02825 0.02825 0.0282501 0.0282501
          0.0282501 0.0282502 0.0282502 0.0282502 0.0282503 0.0282503 0.0282503 0.0282504 0.0282504 0.0282504 0.0282505 0.0282505
          0.0282505 0.0282506 0.0282506 0.0282506 0.0282507 0.0282507 0.0282507 0.0282508 0.0282508 0.0282508 0.0282509 0.0282509
          0.0282509 0.028251 0.028251 0.028251 0.0282511 0.0282511 0.0282511 0.0282512 0.0282512 0.0282512 0.0282513 0.0282513
          0.0282513 0.0282514 0.0282514 0.0282514 0.0282515 0.0282515 0.0282515 0.0282516 0.0282516 0.0282516 0.0282517 0.0282517
          0.0282517 0.0282518 0.0282518 0.0282518 0.0282519 0.0282519 0.0282519 0.028252 0.028252 0.028252 0.0282521 0.0282521
          0.0282521 0.0282522 0.0282522 0.0282522 0.0282523 0.0282523 0.0282523 0.0282524 0.0282524 0.0282524 0.0282525 0.0282525
          0.0282525 0.0282526 0.0282526 0.0282526 0.0282527 0.0282527 0.0282501 0.0282472 0.0282453 0.028244 0.028243 0.0282422
          0.0282416 0.0282412 0.0282408 0.0282404 0.0282401 0.0282399 0.0282397 0.0282395 0.0282394 0.0282393 0.0282392 0.0282391
          0.028239 0.0282389 0.0282389 0.0282389 0.0282406 0.0282601 0.0284727 0.0306931 0.0625632 0.677068 0.759958 0.991549
        </DataArray>
        <DataArray type="Float32" Name="x^xylene_g" NumberOfComponents="1" format="ascii">
          0.0098426 0.00984261 0.00984262 0.00984263 0.00984264 0.00984265 0.00984266 0.00984268 0.00984269 0.0098427 0.00984271 0.00984272
          0.00984273 0.00984275 0.00984276 0.00984277 0.00984278 0.00984279 0.0098428 0.00984281 0.00984283 0.00984284 0.00984285 0.00984286
          0.00984287 0.00984288 0.00984289 0.00984291 0.00984292 0.00984293 0.00984294 0.00984295 0.00984296 0.00984298 0.00984299 0.009843
          0.00984301 0.00984302 0.00984303 0.00984304 0.00984306 0.00984307 0.00984308 0.00984309 0.0098431 0.00984311 0.00984312 0.00984314
          0.00984315 0.00984316 0.00984317 0.00984318 0.00984319 0.00984321 0.00984322 0.00984323 0.00984324 0.00984325 0.00984326 0.00984327
          0.00984329 0.0098433 0.00984331 0.00984332 0.00984333 0.00984334 0.00984335 0.00984337 0.00984338 0.00984339 0.0098434 0.00984341
          0.00984342 0.00984343 0.00984345 0.00984346 0.00984347 0.00984348 0.00984349 0.0098435 0.00984352 0.00984353 0.00984354 0.00984355
          0.00984356 0.00984357 0.00984358 0.0098436 0.00984361 0.00984362 0.00984273 0.00984171 0.00984104 0.00984058 0.00984024 0.00983998
          0.00983977 0.0098396 0.00983947 0.00983935 0.00983925 0.00983917 0.00983909 0.00983904 0.00983899 0.00983895 0.00983892 0.00983889
          0.00983886 0.00983883 0.00983881 0.00983883 0.0098394 0.0098461 0.0099194 0.0107135 0.0214161 0.211982 0.236761 0.00838334
        </DataArray>
        <DataArray type="Float32" Name="x^Air_g" NumberOfComponents="1" format="ascii">
          0.961908 0.961908 0.961908 0.961908 0.961908 0.961907 0.961907 0.961907 0.961907 0.961907 0.961907 0.961907
          0.961907 0.961907 0.961907 0.961907 0.961907 0.961907 0.961907 0.961907 0.961907 0.961907 0.961907 0.961907
          0.961907 0.961907 0.961906 0.961906 0.961906 0.961906 0.961906 0.961906 0.961906 0.961906 0.961906 0.961906
          0.961906 0.961906 0.961906 0.961906 0.961906 0.961906 0.961906 0.961906 0.961906 0.961906 0.961906 0.961906
          0.961906 0.961905 0.961905 0.961905 0.961905 0.961905 0.961905 0.961905 0.961905 0.961905 0.961905 0.961905
          0.961905 0.961905 0.961905 0.961905 0.961905 0.961905 0.961905 0.961905 0.961905 0.961905 0.961905 0.961904
          0.961904 0.961904 0.961904 0.961904 0.961904 0.961904 0.961904 0.961904 0.961904 0.961904 0.961904 0.961904
          0.961904 0.961904 0.961904 0.961904 0.961904 0.961904 0.961907 0.961911 0.961914 0.961915 0.961917 0.961918
          0.961919 0.961919 0.96192 0.96192 0.961921 0.961921 0.961921 0.961921 0.961922 0.961922 0.961922 0.961922
          0.961922 0.961922 0.961922 0.961922 0.96192 0.961894 0.961608 0.958593 0.916021 0.11095 0.00328068 6.73168e-05
        </DataArray>
        <DataArray type="Float32" Name="porosity" NumberOfComponents="1" format="ascii">
          0.46 0.46 0.46 0.46 0.46 0.46 0.46 0.46 0.46 0.46 0.46 0.46
          0.46 0.46 0.46 0.46 0.46 0.46 0.46 0.46 0.46 0.46 0.46 0.46
          0.46 0.46 0.46 0.46 0.46 0.46 0.46 0.46 0.46 0.46 0.46 0.46
          0.46 0.46 0.46 0.46 0.46 0.46 0.46 0.46 0.46 0.46 0.46 0.46
          0.46 0.46 0.46 0.46 0.46 0.46 0.46 0.46 0.46 0.46 0.46 0.46
          0.46 0.46 0.46 0.46 0.46 0.46 0.46 0.46 0.46 0.46 0.46 0.46
          0.46 0.46 0.46 0.46 0.46 0.46 0.46 0.46 0.46 0.46 0.46 0.46
          0.46 0.46 0.46 0.46 0.46 0.46 0.46 0.46 0.46 0.46 0.46 0.46
          0.46 0.46 0.46 0.46 0.46 0.46 0.46 0.46 0.46 0.46 0.46 0.46
          0.46 0.46 0.46 0.46 0.46 0.46 0.46 0.46 0.46 0.46 0.46 0.46
        </DataArray>
        <DataArray type="Float32" Name="temperature" NumberOfComponents="1" format="ascii">
          296.15 296.15 296.15 296.15 296.15 296.15 296.15 296.15 296.15 296.15 296.15 296.15
          296.15 296.15 296.15 296.15 296.15 296.15 296.15 296.15 296.15 296.15 296.15 296.15
          296.15 296.15 296.15 296.15 296.15 296.15 296.15 296.15 296.15 296.15 296.15 296.15
          296.15 296.15 296.15 296.15 296.15 296.15 296.15 296.15 296.15 296.15 296.15 296.15
          296.15 296.15 296.15 296.15 296.15 296.15 296.15 296.15 296.15 296.15 296.15 296.15
          296.15 296.15 296.15 296.15 296.15 296.15 296.15 296.15 296.15 296.15 296.15 296.15
          296.15 296.15 296.15 296.15 296.15 296.15 296.15 296.15 296.15 296.15 296.15 296.15
          296.15 296.15 296.15 296.15 296.15 296.15 296.15 296.15 296.15 296.15 296.15 296.15
          296.15 296.15 296.15 296.15 296.15 296.15 296.15 296.15 296.15 296.15 296.15 296.15
          296.15 296.15 296.15 296.15 296.151 296.163 296.288 297.593 310.01 362.198 365.316 372.597
        </DataArray>
        <DataArray type="Float32" Name="phase presence" NumberOfComponents="1" format="ascii">
          1 1 1 1 1 1 1 1 1 1 1 1
          1 1 1 1 1 1 1 1 1 1 1 1
          1 1 1 1 1 1 1 1 1 1 1 1
          1 1 1 1 1 1 1 1 1 1 1 1
          1 1 1 1 1 1 1 1 1 1 1 1
          1 1 1 1 1 1 1 1 1 1 1 1
          1 1 1 1 1 1 1 1 1 1 1 1
          1 1 1 1 1 1 1 1 1 1 1 1
          1 1 1 1 1 1 1 1 1 1 1 1
          1 1 1 1 1 1 1 1 1 1 1 6
        </DataArray>
        <DataArray type="Float32" Name="process rank" NumberOfComponents="1" format="ascii">
          0 0 0 0 0 0 0 0 0 0 0 0
          0 0 0 0 0 0 0 0 0 0 0 0
          0 0 0 0 0 0 0 0 0 0 0 0
          0 0 0 0 0 0 0 0 0 0 0 0
          0 0 0 0 0 0 0 0 0 0 0 0
          0 0 0 0 0 0 0 0 0 0 0 0
          0 0 0 0 0 0 0 0 0 0 0 0
          0 0 0 0 0 0 0 0 0 0 0 0
          0 0 0 0 0 0 0 0 0 0 0 0
          0 0 0 0 0 0 0 0 0 0 0 0
        </DataArray>
        <DataArray type="Float32" Name="permeability" NumberOfComponents="1" format="ascii">
          1.4e-08 1.4e-08 1.4e-08 1.4e-08 1.4e-08 1.4e-08 1.4e-08 1.4e-08 1.4e-08 1.4e-08 1.4e-08 1.4e-08
          1.4e-08 1.4e-08 1.4e-08 1.4e-08 1.4e-08 1.4e-08 1.4e-08 1.4e-08 1.4e-08 1.4e-08 1.4e-08 1.4e-08
          1.4e-08 1.4e-08 1.4e-08 1.4e-08 1.4e-08 1.4e-08 1.4e-08 1.4e-08 1.4e-08 1.4e-08 1.4e-08 1.4e-08
          1.4e-08 1.4e-08 1.4e-08 1.4e-08 1.4e-08 1.4e-08 1.4e-08 1.4e-08 1.4e-08 1.4e-08 1.4e-08 1.4e-08
          1.4e-08 1.4e-08 1.4e-08 1.4e-08 1.4e-08 1.4e-08 1.4e-08 1.4e-08 1.4e-08 1.4e-08 1.4e-08 1.4e-08
          1.4e-08 1.4e-08 1.4e-08 1.4e-08 1.4e-08 1.4e-08 1.4e-08 1.4e-08 1.4e-08 1.4e-08 1.4e-08 1.4e-08
          1.4e-08 1.4e-08 1.4e-08 1.4e-08 1.4e-08 1.4e-08 1.4e-08 1.4e-08 1.4e-08 1.4e-08 1.4e-08 1.4e-08
          1.4e-08 1.4e-08 1.4e-08 1.4e-08 1.4e-08 1.4e-08 1.4e-11 1.4e-11 1.4e-11 1.4e-11 1.4e-11 1.4e-11
          1.4e-11 1.4e-11 1.4e-11 1.4e-11 1.4e-11 1.4e-11 1.4e-11 1.4e-11 1.4e-11 1.4e-11 1.4e-11 1.4e-11
          1.4e-11 1.4e-11 1.4e-11 1.4e-11 1.4e-11 1.4e-11 1.4e-11 1.4e-11 1.4e-11 1.4e-11 1.4e-11 1.4e-11
        </DataArray>
      </CellData>
      <Points>
        <DataArray type="Float32" Name="Coordinates" NumberOfComponents="3" format="ascii">
          0 0 0 0.1 0 0 0 0.01 0 0.1 0.01 0
          0 0.02 0 0.1 0.02 0 0 0.03 0 0.1 0.03 0
          0 0.04 0 0.1 0.04 0 0 0.05 0 0.1 0.05 0
          0 0.06 0 0.1 0.06 0 0 0.07 0 0.1 0.07 0
          0 0.08 0 0.1 0.08 0 0 0.09 0 0.1 0.09 0
          0 0.1 0 0.1 0.1 0 0 0.11 0 0.1 0.11 0
          0 0.12 0 0.1 0.12 0 0 0.13 0 0.1 0.13 0
          0 0.14 0 0.1 0.14 0 0 0.15 0 0.1 0.15 0
          0 0.16 0 0.1 0.16 0 0 0.17 0 0.1 0.17 0
          0 0.18 0 0.1 0.18 0 0 0.19 0 0.1 0.19 0
          0 0.2 0 0.1 0.2 0 0 0.21 0 0.1 0.21 0
          0 0.22 0 0.1 0.22 0 0 0.23 0 0.1 0.23 0
          0 0.24 0 0.1 0.24 0 0 0.25 0 0.1 0.25 0
          0 0.26 0 0.1 0.26 0 0 0.27 0 0.1 0.27 0
          0 0.28 0 0.1 0.28 0 0 0.29 0 0.1 0.29 0
          0 0.3 0 0.1 0.3 0 0 0.31 0 0.1 0.31 0
          0 0.32 0 0.1 0.32 0 0 0.33 0 0.1 0.33 0
          0 0.34 0 0.1 0.34 0 0 0.35 0 0.1 0.35 0
          0 0.36 0 0.1 0.36 0 0 0.37 0 0.1 0.37 0
          0 0.38 0 0.1 0.38 0 0 0.39 0 0.1 0.39 0
          0 0.4 0 0.1 0.4 0 0 0.41 0 0.1 0.41 0
          0 0.42 0 0.1 0.42 0 0 0.43 0 0.1 0.43 0
          0 0.44 0 0.1 0.44 0 0 0.45 0 0.1 0.45 0
          0 0.46 0 0.1 0.46 0 0 0.47 0 0.1 0.47 0
          0 0.48 0 0.1 0.48 0 0 0.49 0 0.1 0.49 0
          0 0.5 0 0.1 0.5 0 0 0.51 0 0.1 0.51 0
          0 0.52 0 0.1 0.52 0 0 0.53 0 0.1 0.53 0
          0 0.54 0 0.1 0.54 0 0 0.55 0 0.1 0.55 0
          0 0.56 0 0.1 0.56 0 0 0.57 0 0.1 0.57 0
          0 0.58 0 0.1 0.58 0 0 0.59 0 0.1 0.59 0
          0 0.6 0 0.1 0.6 0 0 0.61 0 0.1 0.61 0
          0 0.62 0 0.1 0.62 0 0 0.63 0 0.1 0.63 0
          0 0.64 0 0.1 0.64 0 0 0.65 0 0.1 0.65 0
          0 0.66 0 0.1 0.66 0 0 0.67 0 0.1 0.67 0
          0 0.68 0 0.1 0.68 0 0 0.69 0 0.1 0.69 0
          0 0.7 0 0.1 0.7 0 0 0.71 0 0.1 0.71 0
          0 0.72 0 0.1 0.72 0 0 0.73 0 0.1 0.73 0
          0 0.74 0 0.1 0.74 0 0 0.75 0 0.1 0.75 0
          0 0.76 0 0.1 0.76 0 0 0.77 0 0.1 0.77 0
          0 0.78 0 0.1 0.78 0 0 0.79 0 0.1 0.79 0
          0 0.8 0 0.1 0.8 0 0 0.81 0 0.1 0.81 0
          0 0.82 0 0.1 0.82 0 0 0.83 0 0.1 0.83 0
          0 0.84 0 0.1 0.84 0 0 0.85 0 0.1 0.85 0
          0 0.86 0 0.1 0.86 0 0 0.87 0 0.1 0.87 0
          0 0.88 0 0.1 0.88 0 0 0.89 0 0.1 0.89 0
          0 0.9 0 0.1 0.9 0 0 0.91 0 0.1 0.91 0
          0 0.92 0 0.1 0.92 0 0 0.93 0 0.1 0.93 0
          0 0.94 0 0.1 0.94 0 0 0.95 0 0.1 0.95 0
          0 0.96 0 0.1 0.96 0 0 0.97 0 0.1 0.97 0
          0 0.98 0 0.1 0.98 0 0 0.99 0 0.1 0.99 0
          0 1 0 0.1 1 0 0 1.01 0 0.1 1.01 0
          0 1.02 0 0.1 1.02 0 0 1.03 0 0.1 1.03 0
          0 1.04 0 0.1 1.04 0 0 1.05 0 0.1 1.05 0
          0 1.06 0 0.1 1.06 0 0 1.07 0 0.1 1.07 0
          0 1.08 0 0.1 1.08 0 0 1.09 0 0.1 1.09 0
          0 1.1 0 0.1 1.1 0 0 1.11 0 0.1 1.11 0
          0 1.12 0 0.1 1.12 0 0 1.13 0 0.1 1.13 0
          0 1.14 0 0.1 1.14 0 0 1.15 0 0.1 1.15 0
          0 1.16 0 0.1 1.16 0 0 1.17 0 0.1 1.17 0
          0 1.18 0 0.1 1.18 0 0 1.19 0 0.1 1.19 0
          0 1.2 0 0.1 1.2 0
        </DataArray>
      </Points>
      <Cells>
        <DataArray type="Int32" Name="connectivity" NumberOfComponents="1" format="ascii">
          0 1 3 2 2 3 5 4 4 5 7 6
          6 7 9 8 8 9 11 10 10 11 13 12
          12 13 15 14 14 15 17 16 16 17 19 18
          18 19 21 20 20 21 23 22 22 23 25 24
          24 25 27 26 26 27 29 28 28 29 31 30
          30 31 33 32 32 33 35 34 34 35 37 36
          36 37 39 38 38 39 41 40 40 41 43 42
          42 43 45 44 44 45 47 46 46 47 49 48
          48 49 51 50 50 51 53 52 52 53 55 54
          54 55 57 56 56 57 59 58 58 59 61 60
          60 61 63 62 62 63 65 64 64 65 67 66
          66 67 69 68 68 69 71 70 70 71 73 72
          72 73 75 74 74 75 77 76 76 77 79 78
          78 79 81 80 80 81 83 82 82 83 85 84
          84 85 87 86 86 87 89 88 88 89 91 90
          90 91 93 92 92 93 95 94 94 95 97 96
          96 97 99 98 98 99 101 100 100 101 103 102
          102 103 105 104 104 105 107 106 106 107 109 108
          108 109 111 110 110 111 113 112 112 113 115 114
          114 115 117 116 116 117 119 118 118 119 121 120
          120 121 123 122 122 123 125 124 124 125 127 126
          126 127 129 128 128 129 131 130 130 131 133 132