<?xml version="1.0"?>
<VTKFile type="UnstructuredGrid" version="0.1" byte_order="LittleEndian">
  <UnstructuredGrid>
    <Piece NumberOfCells="120" NumberOfPoints="242">
      <PointData Scalars="Sw">
        <DataArray type="Float32" Name="Sw" NumberOfComponents="1" format="ascii">
          0.005 0.005 0.005 0.005 0.005 0.005 0.005 0.005 0.005 0.005 0.005 0.005
          0.005 0.005 0.005 0.005 0.005 0.005 0.005 0.005 0.005 0.005 0.005 0.005
          0.005 0.005 0.005 0.005 0.005 0.005 0.005 0.005 0.005 0.005 0.005 0.005
          0.005 0.005 0.005 0.005 0.005 0.005 0.005 0.005 0.005 0.005 0.005 0.005
          0.005 0.005 0.005 0.005 0.005 0.005 0.005 0.005 0.005 0.005 0.005 0.005
          0.005 0.005 0.005 0.005 0.005 0.005 0.005 0.005 0.005 0.005 0.005 0.005
          0.005 0.005 0.005 0.005 0.005 0.005 0.005 0.005 0.005 0.005 0.005 0.005
          0.005 0.005 0.005 0.005 0.005 0.005 0.005 0.005 0.005 0.005 0.005 0.005
          0.005 0.005 0.005 0.005 0.005 0.005 0.005 0.005 0.005 0.005 0.005 0.005
          0.005 0.005 0.005 0.005 0.005 0.005 0.005 0.005 0.005 0.005 0.005 0.005
          0.005 0.005 0.005 0.005 0.005 0.005 0.005 0.005 0.005 0.005 0.005 0.005
          0.005 0.005 0.005 0.005 0.005 0.005 0.005 0.005 0.005 0.005 0.005 0.005
          0.005 0.005 0.005 0.005 0.005 0.005 0.005 0.005 0.005 0.005 0.005 0.005
          0.005 0.005 0.005 0.005 0.005 0.005 0.005 0.005 0.005 0.005 0.005 0.005
          0.005 0.005 0.005 0.005 0.005 0.005 0.005 0.005 0.005 0.005 0.0049999 0.0049999
          0.00499997 0.00499997 0.00499998 0.00499998 0.00499999 0.00499999 0.00499999 0.00499999 0.00499999 0.00499999 0.00499999 0.00499999
          0.00499999 0.00499999 0.005 0.005 0.00500001 0.00500001 0.00500001 0.00500001 0.00500002 0.00500002 0.00500002 0.00500002
          0.00500001 0.00500001 0.00500001 0.00500001 0.00500001 0.00500001 0.00500001 0.00500001 0.00500001 0.00500001 0.00500001 0.00500001
          0.00500001 0.00500001 0.00500001 0.00500001 0.00500001 0.00500001 0.00500001 0.00500001 0.00500001 0.00500001 0.00500004 0.00500004
          0.00500035 0.00500035 0.00500456 0.00500456 0.0051376 0.0051376 0.0474692 0.0474692 0.0831122 0.0831122 0.154869 0.154869
          0.171598 0.171598
        </DataArray>
        <DataArray type="Float32" Name="Sn" NumberOfComponents="1" format="ascii">
          0.0001 0.0001 0.0001 0.0001 0.0001 0.0001 0.0001 0.0001 9.99999e-05 9.99999e-05 9.99999e-05 9.99999e-05
          9.99998e-05 9.99998e-05 9.99998e-05 9.99998e-05 9.99997e-05 9.99997e-05 9.99996e-05 9.99996e-05 9.99996e-05 9.99996e-05 9.99995e-05 9.99995e-05
          9.99995e-05 9.99995e-05 9.99994e-05 9.99994e-05 9.99993e-05 9.99993e-05 9.99993e-05 9.99993e-05 9.99992e-05 9.99992e-05 9.99992e-05 9.99992e-05
          9.99991e-05 9.99991e-05 9.9999e-05 9.9999e-05 9.9999e-05 9.9999e-05 9.99989e-05 9.99989e-05 9.99989e-05 9.99989e-05 9.99988e-05 9.99988e-05
          9.99987e-05 9.99987e-05 9.99987e-05 9.99987e-05 9.99986e-05 9.99986e-05 9.99986e-05 9.99986e-05 9.99985e-05 9.99985e-05 9.99984e-05 9.99984e-05
          9.99984e-05 9.99984e-05 9.99983e-05 9.99983e-05 9.99983e-05 9.99983e-05 9.99982e-05 9.99982e-05 9.99982e-05 9.99982e-05 9.99981e-05 9.99981e-05
          9.9998e-05 9.9998e-05 9.9998e-05 9.9998e-05 9.99979e-05 9.99979e-05 9.99979e-05 9.99979e-05 9.99978e-05 9.99978e-05 9.99977e-05 9.99977e-05
          9.99977e-05 9.99977e-05 9.99976e-05 9.99976e-05 9.99976e-05 9.99976e-05 9.99975e-05 9.99975e-05 9.99974e-05 9.99974e-05 9.99974e-05 9.99974e-05
          9.99973e-05 9.99973e-05 9.99973e-05 9.99973e-05 9.99972e-05 9.99972e-05 9.99971e-05 9.99971e-05 9.99971e-05 9.99971e-05 9.9997e-05 9.9997e-05
          9.9997e-05 9.9997e-05 9.99969e-05 9.99969e-05 9.99968e-05 9.99968e-05 9.99968e-05 9.99968e-05 9.99967e-05 9.99967e-05 9.99967e-05 9.99967e-05
          9.99966e-05 9.99966e-05 9.99965e-05 9.99965e-05 9.99965e-05 9.99965e-05 9.99964e-05 9.99964e-05 9.99964e-05 9.99964e-05 9.99963e-05 9.99963e-05
          9.99963e-05 9.99963e-05 9.99962e-05 9.99962e-05 9.99961e-05 9.99961e-05 9.99961e-05 9.99961e-05 9.9996e-05 9.9996e-05 9.9996e-05 9.9996e-05
          9.99959e-05 9.99959e-05 9.99958e-05 9.99958e-05 9.99958e-05 9.99958e-05 9.99957e-05 9.99957e-05 9.99957e-05 9.99957e-05 9.99956e-05 9.99956e-05
          9.99955e-05 9.99955e-05 9.99955e-05 9.99955e-05 9.99954e-05 9.99954e-05 9.99954e-05 9.99954e-05 9.99953e-05 9.99953e-05 9.99952e-05 9.99952e-05
          9.99952e-05 9.99952e-05 9.99951e-05 9.99951e-05 9.99951e-05 9.99951e-05 9.9995e-05 9.9995e-05 9.99949e-05 9.99949e-05 0.0185469 0.0185469
          0.915922 0.915922 0.890682 0.890682 0.862972 0.862972 0.832761 0.832761 0.80012 0.80012 0.765198 0.765198
          0.728186 0.728186 0.689293 0.689293 0.648709 0.648709 0.606571 0.606571 0.562942 0.562942 0.517814 0.517814
          0.471159 0.471159 0.423047 0.423047 0.373894 0.373894 0.324913 0.324913 0.278773 0.278773 0.239937 0.239937
          0.212228 0.212228 0.193707 0.193707 0.179619 0.179619 0.167564 0.167564 0.156847 0.156847 0.147057 0.147057
          0.138112 0.138112 0.132027 0.132027 0.175532 0.175532 0.21185 0.21185 0.121502 0.121502 0 0
          0 0
        </DataArray>
        <DataArray type="Float32" Name="Sg" NumberOfComponents="1" format="ascii">
          0.9949 0.9949 0.9949 0.9949 0.9949 0.9949 0.9949 0.9949 0.9949 0.9949 0.9949 0.9949
          0.9949 0.9949 0.9949 0.9949 0.9949 0.9949 0.9949 0.9949 0.9949 0.9949 0.9949 0.9949
          0.9949 0.9949 0.9949 0.9949 0.9949 0.9949 0.9949 0.9949 0.9949 0.9949 0.9949 0.9949
          0.9949 0.9949 0.9949 0.9949 0.9949 0.9949 0.9949 0.9949 0.9949 0.9949 0.9949 0.9949
          0.9949 0.9949 0.9949 0.9949 0.9949 0.9949 0.9949 0.9949 0.9949 0.9949 0.9949 0.9949
          0.9949 0.9949 0.9949 0.9949 0.9949 0.9949 0.9949 0.9949 0.9949 0.9949 0.9949 0.9949
          0.9949 0.9949 0.9949 0.9949 0.9949 0.9949 0.9949 0.9949 0.9949 0.9949 0.9949 0.9949
          0.9949 0.9949 0.9949 0.9949 0.9949 0.9949 0.9949 0.9949 0.9949 0.9949 0.9949 0.9949
          0.9949 0.9949 0.9949 0.9949 0.9949 0.9949 0.9949 0.9949 0.9949 0.9949 0.9949 0.9949
          0.9949 0.9949 0.9949 0.9949 0.9949 0.9949 0.9949 0.9949 0.9949 0.9949 0.9949 0.9949
          0.9949 0.9949 0.9949 0.9949 0.9949 0.9949 0.9949 0.9949 0.9949 0.9949 0.9949 0.9949
          0.9949 0.9949 0.9949 0.9949 0.9949 0.9949 0.9949 0.9949 0.9949 0.9949 0.9949 0.9949
          0.9949 0.9949 0.9949 0.9949 0.9949 0.9949 0.9949 0.9949 0.9949 0.9949 0.9949 0.9949
          0.9949 0.9949 0.9949 0.9949 0.9949 0.9949 0.9949 0.9949 0.9949 0.9949 0.9949 0.9949
          0.9949 0.9949 0.9949 0.9949 0.9949 0.9949 0.9949 0.9949 0.9949 0.9949 0.976453 0.976453
          0.079078 0.079078 0.104318 0.104318 0.132028 0.132028 0.162239 0.162239 0.19488 0.19488 0.229802 0.229802
          0.266814 0.266814 0.305707 0.305707 0.346291 0.346291 0.388429 0.388429 0.432058 0.432058 0.477186 0.477186
          0.523841 0.523841 0.571953 0.571953 0.621106 0.621106 0.670087 0.670087 0.716227 0.716227 0.755063 0.755063
          0.782772 0.782772 0.801293 0.801293 0.815381 0.815381 0.827436 0.827436 0.838153 0.838153 0.847943 0.847943
          0.856887 0.856887 0.862969 0.862969 0.819331 0.819331 0.740681 0.740681 0.795386 0.795386 0.845131 0.845131
          0.828402 0.828402
        </DataArray>
        <DataArray type="Float32" Name="pw" NumberOfComponents="1" format="ascii">
          99987.2 99987.2 99987 99987 99986.9 99986.9 99986.8 99986.8 99986.7 99986.7 99986.6 99986.6
          99986.5 99986.5 99986.3 99986.3 99986.2 99986.2 99986.1 99986.1 99986 99986 99985.9 99985.9
          99985.8 99985.8 99985.6 99985.6 99985.5 99985.5 99985.4 99985.4 99985.3 99985.3 99985.2 99985.2
          99985.1 99985.1 99984.9 99984.9 99984.8 99984.8 99984.7 99984.7 99984.6 99984.6 99984.5 99984.5
          99984.4 99984.4 99984.2 99984.2 99984.1 99984.1 99984 99984 99983.9 99983.9 99983.8 99983.8
          99983.7 99983.7 99983.5 99983.5 99983.4 99983.4 99983.3 99983.3 99983.2 99983.2 99983.1 99983.1
          99983 99983 99982.8 99982.8 99982.7 99982.7 99982.6 99982.6 99982.5 99982.5 99982.4 99982.4
          99982.2 99982.2 99982.1 99982.1 99982 99982 99981.9 99981.9 99981.8 99981.8 99981.7 99981.7
          99981.6 99981.6 99981.4 99981.4 99981.3 99981.3 99981.2 99981.2 99981.1 99981.1 99981 99981
          99980.9 99980.9 99980.7 99980.7 99980.6 99980.6 99980.5 99980.5 99980.4 99980.4 99980.3 99980.3
          99980.1 99980.1 99980 99980 99979.9 99979.9 99979.8 99979.8 99979.7 99979.7 99979.6 99979.6
          99979.5 99979.5 99979.3 99979.3 99979.2 99979.2 99979.1 99979.1 99979 99979 99978.9 99978.9
          99978.8 99978.8 99978.6 99978.6 99978.5 99978.5 99978.4 99978.4 99978.3 99978.3 99978.2 99978.2
          99978 99978 99977.9 99977.9 99977.8 99977.8 99977.7 99977.7 99977.6 99977.6 99977.5 99977.5
          99977.3 99977.3 99977.2 99977.2 99977.1 99977.1 99977 99977 99976.9 99976.9 99974.3 99974.3
          85544.1 85544.1 85459.7 85459.7 85375 85375 85289.4 85289.4 85202.5 85202.5 85113.6 85113.6
          85021.9 85021.9 84926.5 84926.5 84826.3 84826.3 84719.5 84719.5 84603.8 84603.8 84475.7 84475.7
          84330.5 84330.5 84161.2 84161.2 83957.8 83957.8 83707.7 83707.7 83400.5 83400.5 83046.2 83046.2
          82695.7 82695.7 82380.9 82380.9 82069 82069 81722.1 81722.1 81312.1 81312.1 80794 80794
          80094 80094 79370.1 79370.1 81967.2 81967.2 83197.3 83197.3 82698.5 82698.5 94300.9 94300.9
          95182.9 95182.9
        </DataArray>
        <DataArray type="Float32" Name="pn" NumberOfComponents="1" format="ascii">
          99987.2 99987.2 99987 99987 99986.9 99986.9 99986.8 99986.8 99986.7 99986.7 99986.6 99986.6
          99986.5 99986.5 99986.3 99986.3 99986.2 99986.2 99986.1 99986.1 99986 99986 99985.9 99985.9
          99985.8 99985.8 99985.6 99985.6 99985.5 99985.5 99985.4 99985.4 99985.3 99985.3 99985.2 99985.2
          99985.1 99985.1 99984.9 99984.9 99984.8 99984.8 99984.7 99984.7 99984.6 99984.6 99984.5 99984.5
          99984.4 99984.4 99984.2 99984.2 99984.1 99984.1 99984 99984 99983.9 99983.9 99983.8 99983.8
          99983.7 99983.7 99983.5 99983.5 99983.4 99983.4 99983.3 99983.3 99983.2 99983.2 99983.1 99983.1
          99983 99983 99982.8 99982.8 99982.7 99982.7 99982.6 99982.6 99982.5 99982.5 99982.4 99982.4
          99982.2 99982.2 99982.1 99982.1 99982 99982 99981.9 99981.9 99981.8 99981.8 99981.7 99981.7
          99981.6 99981.6 99981.4 99981.4 99981.3 99981.3 99981.2 99981.2 99981.1 99981.1 99981 99981
          99980.9 99980.9 99980.7 99980.7 99980.6 99980.6 99980.5 99980.5 99980.4 99980.4 99980.3 99980.3
          99980.1 99980.1 99980 99980 99979.9 99979.9 99979.8 99979.8 99979.7 99979.7 99979.6 99979.6
          99979.5 99979.5 99979.3 99979.3 99979.2 99979.2 99979.1 99979.1 99979 99979 99978.9 99978.9
          99978.8 99978.8 99978.6 99978.6 99978.5 99978.5 99978.4 99978.4 99978.3 99978.3 99978.2 99978.2
          99978 99978 99977.9 99977.9 99977.8 99977.8 99977.7 99977.7 99977.6 99977.6 99977.5 99977.5
          99977.3 99977.3 99977.2 99977.2 99977.1 99977.1 99977 99977 99976.9 99976.9 99976.8 99976.8
          98795.8 98795.8 98711.5 98711.5 98626.8 98626.8 98541.2 98541.2 98454.3 98454.3 98365.3 98365.3
          98273.7 98273.7 98178.3 98178.3 98078.1 98078.1 97971.3 97971.3 97855.5 97855.5 97727.5 97727.5
          97582.3 97582.3 97412.9 97412.9 97209.5 97209.5 96959.5 96959.5 96652.3 96652.3 96298 96298
          95947.4 95947.4 95632.6 95632.6 95320.8 95320.8 94973.8 94973.8 94563.9 94563.9 94045.7 94045.7
          93345.8 93345.8 92621.8 92621.8 95219 95219 96449.1 96449.1 95950.3 95950.3 94300.9 94300.9
          95182.9 95182.9
        </DataArray>
        <DataArray type="Float32" Name="pg" NumberOfComponents="1" format="ascii">
          100000 100000 99999.9 99999.9 99999.8 99999.8 99999.6 99999.6 99999.5 99999.5 99999.4 99999.4
          99999.3 99999.3 99999.2 99999.2 99999.1 99999.1 99998.9 99998.9 99998.8 99998.8 99998.7 99998.7
          99998.6 99998.6 99998.5 99998.5 99998.4 99998.4 99998.2 99998.2 99998.1 99998.1 99998 99998
          99997.9 99997.9 99997.8 99997.8 99997.7 99997.7 99997.5 99997.5 99997.4 99997.4 99997.3 99997.3
          99997.2 99997.2 99997.1 99997.1 99997 99997 99996.8 99996.8 99996.7 99996.7 99996.6 99996.6
          99996.5 99996.5 99996.4 99996.4 99996.3 99996.3 99996.1 99996.1 99996 99996 99995.9 99995.9
          99995.8 99995.8 99995.7 99995.7 99995.6 99995.6 99995.4 99995.4 99995.3 99995.3 99995.2 99995.2
          99995.1 99995.1 99995 99995 99994.9 99994.9 99994.7 99994.7 99994.6 99994.6 99994.5 99994.5
          99994.4 99994.4 99994.3 99994.3 99994.2 99994.2 99994 99994 99993.9 99993.9 99993.8 99993.8
          99993.7 99993.7 99993.6 99993.6 99993.5 99993.5 99993.3 99993.3 99993.2 99993.2 99993.1 99993.1
          99993 99993 99992.9 99992.9 99992.8 99992.8 99992.6 99992.6 99992.5 99992.5 99992.4 99992.4
          99992.3 99992.3 99992.2 99992.2 99992.1 99992.1 99991.9 99991.9 99991.8 99991.8 99991.7 99991.7
          99991.6 99991.6 99991.5 99991.5 99991.4 99991.4 99991.2 99991.2 99991.1 99991.1 99991 99991
          99990.9 99990.9 99990.8 99990.8 99990.7 99990.7 99990.5 99990.5 99990.4 99990.4 99990.3 99990.3
          99990.2 99990.2 99990.1 99990.1 99990 99990 99989.8 99989.8 99989.7 99989.7 99989.6 99989.6
          100005 100005 100020 100020 100030 100030 100036 100036 100041 100041 100045 100045
          100048 100048 100050 100050 100052 100052 100053 100053 100054 100054 100055 100055
          100056 100056 100057 100057 100057 100057 100058 100058 100058 100058 100059 100059
          100059 100059 100059 100059 100060 100060 100060 100060 100060 100060 100061 100061
          100061 100061 100061 100061 100062 100062 100064 100064 100267 100267 100385 100385
          100511 100511
        </DataArray>
        <DataArray type="Float32" Name="rhow" NumberOfComponents="1" format="ascii">
          997.662 997.662 997.662 997.662 997.662 997.662 997.662 997.662 997.662 997.662 997.662 997.662
          997.662 997.662 997.662 997.662 997.662 997.662 997.662 997.662 997.662 997.662 997.662 997.662
          997.662 997.662 997.662 997.662 997.662 997.662 997.662 997.662 997.662 997.662 997.662 997.662
          997.662 997.662 997.662 997.662 997.662 997.662 997.662 997.662 997.662 997.662 997.662 997.662
          997.662 997.662 997.662 997.662 997.662 997.662 997.662 997.662 997.662 997.662 997.662 997.662
          997.662 997.662 997.662 997.662 997.662 997.662 997.662 997.662 997.662 997.662 997.662 997.662
          997.662 997.662 997.662 997.662 997.662 997.662 997.662 997.662 997.662 997.662 997.662 997.662
          997.662 997.662 997.662 997.662 997.662 997.662 997.662 997.662 997.662 997.662 997.662 997.662
          997.662 997.662 997.662 997.662 997.662 997.662 997.662 997.662 997.662 997.662 997.662 997.662
          997.662 997.662 997.662 997.662 997.662 997.662 997.662 997.662 997.662 997.662 997.662 997.662
          997.662 997.662 997.662 997.662 997.662 997.662 997.662 997.662 997.662 997.662 997.662 997.662
          997.662 997.662 997.662 997.662 997.662 997.662 997.662 997.662 997.662 997.662 997.662 997.662
          997.662 997.662 997.662 997.662 997.662 997.662 997.662 997.662 997.662 997.662 997.662 997.662
          997.662 997.662 997.662 997.662 997.662 997.662 997.662 997.662 997.662 997.662 997.662 997.662
          997.662 997.662 997.662 997.662 997.662 997.662 997.662 997.662 997.662 997.662 997.662 997.662
          997.655 997.655 997.655 997.655 997.655 997.655 997.655 997.655 997.655 997.655 997.655 997.655
          997.655 997.655 997.655 997.655 997.655 997.655 997.655 997.655 997.655 997.655 997.655 997.655
          997.654 997.654 997.654 997.654 997.654 997.654 997.654 997.654 997.654 997.654 997.654 997.654
          997.654 997.654 997.654 997.654 997.653 997.653 997.653 997.653 997.653 997.653 997.652 997.652
          997.636 997.636 997.459 997.459 995.326 995.326 974.73 974.73 966.77 966.77 959.151 959.151
          958.55 958.55
        </DataArray>
        <DataArray type="Float32" Name="rhon" NumberOfComponents="1" format="ascii">
          860.465 860.465 860.465 860.465 860.465 860.465 860.465 860.465 860.465 860.465 860.465 860.465
          860.465 860.465 860.465 860.465 860.465 860.465 860.465 860.465 860.465 860.465 860.465 860.465
          860.465 860.465 860.465 860.465 860.465 860.465 860.465 860.465 860.465 860.465 860.465 860.465
          860.465 860.465 860.465 860.465 860.465 860.465 860.465 860.465 860.465 860.465 860.465 860.465
          860.465 860.465 860.465 860.465 860.465 860.465 860.465 860.465 860.465 860.465 860.465 860.465
          860.465 860.465 860.465 860.465 860.465 860.465 860.465 860.465 860.465 860.465 860.465 860.465
          860.465 860.465 860.465 860.465 860.465 860.465 860.465 860.465 860.465 860.465 860.465 860.465
          860.465 860.465 860.465 860.465 860.465 860.465 860.465 860.465 860.465 860.465 860.465 860.465
          860.465 860.465 860.465 860.465 860.465 860.465 860.465 860.465 860.465 860.465 860.465 860.465
          860.465 860.465 860.465 860.465 860.465 860.465 860.465 860.465 860.465 860.465 860.465 860.465
          860.465 860.465 860.465 860.465 860.465 860.465 860.465 860.465 860.465 860.465 860.465 860.465
          860.465 860.465 860.465 860.465 860.465 860.465 860.465 860.465 860.465 860.465 860.465 860.465
          860.465 860.465 860.465 860.465 860.465 860.465 860.465 860.465 860.465 860.465 860.465 860.465
          860.465 860.465 860.465 860.465 860.465 860.465 860.465 860.465 860.465 860.465 860.465 860.465
          860.465 860.465 860.465 860.465 860.465 860.465 860.465 860.465 860.465 860.465 860.465 860.465
          860.465 860.465 860.465 860.465 860.465 860.465 860.465 860.465 860.465 860.465 860.465 860.465
          860.465 860.465 860.465 860.465 860.465 860.465 860.465 860.465 860.465 860.465 860.465 860.465
          860.465 860.465 860.465 860.465 860.465 860.465 860.465 860.465 860.465 860.465 860.465 860.465
          860.465 860.465 860.465 860.465 860.465 860.465 860.465 860.465 860.465 860.465 860.46 860.46
          860.405 860.405 859.74 859.74 852.937 852.937 811.388 811.388 798.171 798.171 791.559 791.559
          791.06 791.06
        </DataArray>
        <DataArray type="Float32" Name="rhog" NumberOfComponents="1" format="ascii">
          1.19439 1.19439 1.19439 1.19439 1.19439 1.19439 1.19439 1.19439 1.19439 1.19439 1.19438 1.19438
          1.19438 1.19438 1.19438 1.19438 1.19438 1.19438 1.19438 1.19438 1.19438 1.19438 1.19438 1.19438
          1.19437 1.19437 1.19437 1.19437 1.19437 1.19437 1.19437 1.19437 1.19437 1.19437 1.19437 1.19437
          1.19437 1.19437 1.19437 1.19437 1.19436 1.19436 1.19436 1.19436 1.19436 1.19436 1.19436 1.19436
          1.19436 1.19436 1.19436 1.19436 1.19436 1.19436 1.19435 1.19435 1.19435 1.19435 1.19435 1.19435
          1.19435 1.19435 1.19435 1.19435 1.19435 1.19435 1.19435 1.19435 1.19434 1.19434 1.19434 1.19434
          1.19434 1.19434 1.19434 1.19434 1.19434 1.19434 1.19434 1.19434 1.19434 1.19434 1.19433 1.19433
          1.19433 1.19433 1.19433 1.19433 1.19433 1.19433 1.19433 1.19433 1.19433 1.19433 1.19433 1.19433
          1.19433 1.19433 1.19432 1.19432 1.19432 1.19432 1.19432 1.19432 1.19432 1.19432 1.19432 1.19432
          1.19432 1.19432 1.19432 1.19432 1.19431 1.19431 1.19431 1.19431 1.19431 1.19431 1.19431 1.19431
          1.19431 1.19431 1.19431 1.19431 1.19431 1.19431 1.1943 1.1943 1.1943 1.1943 1.1943 1.1943
          1.1943 1.1943 1.1943 1.1943 1.1943 1.1943 1.1943 1.1943 1.1943 1.1943 1.19429 1.19429
          1.19429 1.19429 1.19429 1.19429 1.19429 1.19429 1.19429 1.19429 1.19429 1.19429 1.19429 1.19429
          1.19428 1.19428 1.19428 1.19428 1.19428 1.19428 1.19428 1.19428 1.19428 1.19428 1.19428 1.19428
          1.19428 1.19428 1.19427 1.19427 1.19427 1.19427 1.19427 1.19427 1.19427 1.19427 1.19427 1.19427
          1.19445 1.19445 1.19463 1.19463 1.19474 1.19474 1.19482 1.19482 1.19487 1.19487 1.19492 1.19492
          1.19495 1.19495 1.19498 1.19498 1.195 1.195 1.19501 1.19501 1.19503 1.19503 1.19504 1.19504
          1.19505 1.19505 1.19506 1.19506 1.19507 1.19507 1.19507 1.19507 1.19508 1.19508 1.19508 1.19508
          1.19509 1.19509 1.19509 1.19509 1.19509 1.19509 1.1951 1.1951 1.1951 1.1951 1.19509 1.19509
          1.1949 1.1949 1.19265 1.19265 1.1723 1.1723 1.20045 1.20045 1.29004 1.29004 0.644193 0.644193
          0.593191 0.593191
        </DataArray>
        <DataArray type="Float32" Name="x^w_H2O" NumberOfComponents="1" format="ascii">
          0.99996 0.99996 0.99996 0.99996 0.99996 0.99996 0.99996 0.99996 0.99996 0.99996 0.99996 0.99996
          0.99996 0.99996 0.99996 0.99996 0.99996 0.99996 0.99996 0.99996 0.99996 0.99996 0.99996 0.99996
          0.99996 0.99996 0.99996 0.99996 0.99996 0.99996 0.99996 0.99996 0.99996 0.99996 0.99996 0.99996
          0.99996 0.99996 0.99996 0.99996 0.99996 0.99996 0.99996 0.99996 0.99996 0.99996 0.99996 0.99996
          0.99996 0.99996 0.99996 0.99996 0.99996 0.99996 0.99996 0.99996 0.99996 0.99996 0.99996 0.99996
          0.99996 0.99996 0.99996 0.99996 0.99996 0.99996 0.99996 0.99996 0.99996 0.99996 0.99996 0.99996
          0.99996 0.99996 0.99996 0.99996 0.99996 0.99996 0.99996 0.99996 0.99996 0.99996 0.99996 0.99996
          0.99996 0.99996 0.99996 0.99996 0.99996 0.99996 0.99996 0.99996 0.99996 0.99996 0.99996 0.99996
          0.99996 0.99996 0.99996 0.99996 0.99996 0.99996 0.99996 0.99996 0.99996 0.99996 0.99996 0.99996
          0.99996 0.99996 0.99996 0.99996 0.99996 0.99996 0.99996 0.99996 0.99996 0.99996 0.99996 0.99996
          0.99996 0.99996 0.99996 0.99996 0.99996 0.99996 0.99996 0.99996 0.99996 0.99996 0.99996 0.99996
          0.99996 0.99996 0.99996 0.99996 0.99996 0.99996 0.99996 0.99996 0.99996 0.99996 0.99996 0.99996
          0.99996 0.99996 0.99996 0.99996 0.99996 0.99996 0.99996 0.99996 0.99996 0.99996 0.99996 0.99996
          0.99996 0.99996 0.99996 0.99996 0.99996 0.99996 0.99996 0.99996 0.99996 0.99996 0.99996 0.99996
          0.99996 0.99996 0.99996 0.99996 0.99996 0.99996 0.99996 0.99996 0.99996 0.99996 0.99996 0.99996
          0.99996 0.99996 0.99996 0.99996 0.99996 0.99996 0.99996 0.99996 0.99996 0.99996 0.99996 0.99996
          0.99996 0.99996 0.99996 0.99996 0.99996 0.99996 0.99996 0.99996 0.99996 0.99996 0.99996 0.99996
          0.99996 0.99996 0.99996 0.99996 0.99996 0.99996 0.99996 0.99996 0.99996 0.99996 0.99996 0.99996
          0.99996 0.99996 0.99996 0.99996 0.99996 0.99996 0.99996 0.99996 0.99996 0.99996 0.99996 0.99996
          0.99996 0.99996 0.999959 0.999959 0.999945 0.999945 0.999621 0.999621 0.999365 0.999365 0.999952 0.999952
          1 1
        </DataArray>
        <DataArray type="Float32" Name="x^w_xylene" NumberOfComponents="1" format="ascii">
          2.62566e-05 2.62566e-05 2.62566e-05 2.62566e-05 2.62566e-05 2.62566e-05 2.62566e-05 2.62566e-05 2.62566e-05 2.62566e-05 2.62566e-05 2.62566e-05
          2.62566e-05 2.62566e-05 2.62566e-05 2.62566e-05 2.62566e-05 2.62566e-05 2.62566e-05 2.62566e-05 2.62566e-05 2.62566e-05 2.62566e-05 2.62566e-05
          2.62566e-05 2.62566e-05 2.62566e-05 2.62566e-05 2.62566e-05 2.62566e-05 2.62566e-05 2.62566e-05 2.62566e-05 2.62566e-05 2.62566e-05 2.62566e-05
          2.62566e-05 2.62566e-05 2.62566e-05 2.62566e-05 2.62566e-05 2.62566e-05 2.62566e-05 2.62566e-05 2.62566e-05 2.62566e-05 2.62566e-05 2.62566e-05
          2.62566e-05 2.62566e-05 2.62566e-05 2.62566e-05 2.62566e-05 2.62566e-05 2.62566e-05 2.62566e-05 2.62566e-05 2.62566e-05 2.62566e-05 2.62566e-05
          2.62566e-05 2.62566e-05 2.62566e-05 2.62566e-05 2.62566e-05 2.62566e-05 2.62566e-05 2.62566e-05 2.62566e-05 2.62566e-05 2.62566e-05 2.62566e-05
          2.62566e-05 2.62566e-05 2.62566e-05 2.62566e-05 2.62566e-05 2.62566e-05 2.62566e-05 2.62566e-05 2.62566e-05 2.62566e-05 2.62566e-05 2.62566e-05
          2.62566e-05 2.62566e-05 2.62566e-05 2.62566e-05 2.62566e-05 2.62566e-05 2.62566e-05 2.62566e-05 2.62566e-05 2.62566e-05 2.62566e-05 2.62566e-05
          2.62566e-05 2.62566e-05 2.62566e-05 2.62566e-05 2.62566e-05 2.62566e-05 2.62566e-05 2.62566e-05 2.62566e-05 2.62566e-05 2.62566e-05 2.62566e-05
          2.62566e-05 2.62566e-05 2.62566e-05 2.62566e-05 2.62566e-05 2.62566e-05 2.62566e-05 2.62566e-05 2.62566e-05 2.62566e-05 2.62566e-05 2.62566e-05
          2.62566e-05 2.62566e-05 2.62566e-05 2.62566e-05 2.62566e-05 2.62566e-05 2.62566e-05 2.62566e-05 2.62566e-05 2.62566e-05 2.62566e-05 2.62566e-05
          2.62566e-05 2.62566e-05 2.62566e-05 2.62566e-05 2.62566e-05 2.62566e-05 2.62566e-05 2.62566e-05 2.62566e-05 2.62566e-05 2.62566e-05 2.62566e-05
          2.62566e-05 2.62566e-05 2.62566e-05 2.62566e-05 2.62566e-05 2.62566e-05 2.62566e-05 2.62566e-05 2.62566e-05 2.62566e-05 2.62566e-05 2.62566e-05
          2.62566e-05 2.62566e-05 2.62566e-05 2.62566e-05 2.62566e-05 2.62566e-05 2.62566e-05 2.62566e-05 2.62566e-05 2.62566e-05 2.62566e-05 2.62566e-05
          2.62566e-05 2.62566e-05 2.62566e-05 2.62566e-05 2.62566e-05 2.62566e-05 2.62566e-05 2.62566e-05 2.62566e-05 2.62566e-05 2.62566e-05 2.62566e-05
          2.62564e-05 2.62564e-05 2.62564e-05 2.62564e-05 2.62564e-05 2.62564e-05 2.62565e-05 2.62565e-05 2.62565e-05 2.62565e-05 2.62566e-05 2.62566e-05
          2.62566e-05 2.62566e-05 2.62566e-05 2.62566e-05 2.62566e-05 2.62566e-05 2.62566e-05 2.62566e-05 2.62566e-05 2.62566e-05 2.62566e-05 2.62566e-05
          2.62566e-05 2.62566e-05 2.62566e-05 2.62566e-05 2.62566e-05 2.62566e-05 2.62566e-05 2.62566e-05 2.62566e-05 2.62566e-05 2.62567e-05 2.62567e-05
          2.62567e-05 2.62567e-05 2.62567e-05 2.62567e-05 2.62567e-05 2.62567e-05 2.62567e-05 2.62567e-05 2.62574e-05 2.62574e-05 2.62655e-05 2.62655e-05
          2.63671e-05 2.63671e-05 2.76023e-05 2.76023e-05 4.3287e-05 4.3287e-05 0.000374854 0.000374854 0.000635214 0.000635214 4.80611e-05 4.80611e-05
          -2.3834e-31 8.8195e-30
        </DataArray>
        <DataArray type="Float32" Name="x^w_Air" NumberOfComponents="1" format="ascii">
          1.37483e-05 1.37483e-05 1.37482e-05 1.37482e-05 1.37482e-05 1.37482e-05 1.37482e-05 1.37482e-05 1.37482e-05 1.37482e-05 1.37482e-05 1.37482e-05
          1.37482e-05 1.37482e-05 1.37481e-05 1.37481e-05 1.37481e-05 1.37481e-05 1.37481e-05 1.37481e-05 1.37481e-05 1.37481e-05 1.37481e-05 1.37481e-05
          1.37481e-05 1.37481e-05 1.3748e-05 1.3748e-05 1.3748e-05 1.3748e-05 1.3748e-05 1.3748e-05 1.3748e-05 1.3748e-05 1.3748e-05 1.3748e-05
          1.3748e-05 1.3748e-05 1.37479e-05 1.37479e-05 1.37479e-05 1.37479e-05 1.37479e-05 1.37479e-05 1.37479e-05 1.37479e-05 1.37479e-05 1.37479e-05
          1.37479e-05 1.37479e-05 1.37478e-05 1.37478e-05 1.37478e-05 1.37478e-05 1.37478e-05 1.37478e-05 1.37478e-05 1.37478e-05 1.37478e-05 1.37478e-05
          1.37478e-05 1.37478e-05 1.37477e-05 1.37477e-05 1.37477e-05 1.37477e-05 1.37477e-05 1.37477e-05 1.37477e-05 1.37477e-05 1.37477e-05 1.37477e-05
          1.37477e-05 1.37477e-05 1.37476e-05 1.37476e-05 1.37476e-05 1.37476e-05 1.37476e-05 1.37476e-05 1.37476e-05 1.37476e-05 1.37476e-05 1.37476e-05
          1.37476e-05 1.37476e-05 1.37475e-05 1.37475e-05 1.37475e-05 1.37475e-05 1.37475e-05 1.37475e-05 1.37475e-05 1.37475e-05 1.37475e-05 1.37475e-05
          1.37475e-05 1.37475e-05 1.37474e-05 1.37474e-05 1.37474e-05 1.37474e-05 1.37474e-05 1.37474e-05 1.37474e-05 1.37474e-05 1.37474e-05 1.37474e-05
          1.37474e-05 1.37474e-05 1.37473e-05 1.37473e-05 1.37473e-05 1.37473e-05 1.37473e-05 1.37473e-05 1.37473e-05 1.37473e-05 1.37473e-05 1.37473e-05
          1.37473e-05 1.37473e-05 1.37472e-05 1.37472e-05 1.37472e-05 1.37472e-05 1.37472e-05 1.37472e-05 1.37472e-05 1.37472e-05 1.37472e-05 1.37472e-05
          1.37472e-05 1.37472e-05 1.37471e-05 1.37471e-05 1.37471e-05 1.37471e-05 1.37471e-05 1.37471e-05 1.37471e-05 1.37471e-05 1.37471e-05 1.37471e-05
          1.37471e-05 1.37471e-05 1.3747e-05 1.3747e-05 1.3747e-05 1.3747e-05 1.3747e-05 1.3747e-05 1.3747e-05 1.3747e-05 1.3747e-05 1.3747e-05
          1.3747e-05 1.3747e-05 1.37469e-05 1.37469e-05 1.37469e-05 1.37469e-05 1.37469e-05 1.37469e-05 1.37469e-05 1.37469e-05 1.37469e-05 1.37469e-05
          1.37469e-05 1.37469e-05 1.37468e-05 1.37468e-05 1.37468e-05 1.37468e-05 1.37468e-05 1.37468e-05 1.37468e-05 1.37468e-05 1.37468e-05 1.37468e-05
          1.37491e-05 1.37491e-05 1.37511e-05 1.37511e-05 1.37525e-05 1.37525e-05 1.37535e-05 1.37535e-05 1.37541e-05 1.37541e-05 1.37547e-05 1.37547e-05
          1.3755e-05 1.3755e-05 1.37554e-05 1.37554e-05 1.37556e-05 1.37556e-05 1.37558e-05 1.37558e-05 1.3756e-05 1.3756e-05 1.37561e-05 1.37561e-05
          1.37563e-05 1.37563e-05 1.37564e-05 1.37564e-05 1.37565e-05 1.37565e-05 1.37565e-05 1.37565e-05 1.37566e-05 1.37566e-05 1.37566e-05 1.37566e-05
          1.37567e-05 1.37567e-05 1.37567e-05 1.37567e-05 1.37568e-05 1.37568e-05 1.37568e-05 1.37568e-05 1.37568e-05 1.37568e-05 1.37555e-05 1.37555e-05
          1.37387e-05 1.37387e-05 1.3542e-05 1.3542e-05 1.18018e-05 1.18018e-05 3.95798e-06 3.95798e-06 3.12096e-11 3.12096e-11 2.98917e-11 2.98917e-11
          2.58639e-11 2.58639e-11
        </DataArray>
        <DataArray type="Float32" Name="x^n_H2O" NumberOfComponents="1" format="ascii">
          1e-10 1e-10 1e-10 1e-10 1e-10 1e-10 1e-10 1e-10 1e-10 1e-10 1e-10 1e-10
          1e-10 1e-10 1e-10 1e-10 1e-10 1e-10 1e-10 1e-10 1e-10 1e-10 1e-10 1e-10
          1e-10 1e-10 1e-10 1e-10 1e-10 1e-10 1e-10 1e-10 1e-10 1e-10 1e-10 1e-10
          1e-10 1e-10 1e-10 1e-10 1e-10 1e-10 1e-10 1e-10 1e-10 1e-10 1e-10 1e-10
          1e-10 1e-10 1e-10 1e-10 1e-10 1e-10 1e-10 1e-10 1e-10 1e-10 1e-10 1e-10
          1e-10 1e-10 1e-10 1e-10 1e-10 1e-10 1e-10 1e-10 1e-10 1e-10 1e-10 1e-10
          1e-10 1e-10 1e-10 1e-10 1e-10 1e-10 1e-10 1e-10 1e-10 1e-10 1e-10 1e-10