<?xml version="1.0"?>
<VTKFile type="UnstructuredGrid" version="0.1" byte_order="LittleEndian">
  <UnstructuredGrid>
    <Piece NumberOfCells="120" NumberOfPoints="242">
      <PointData Scalars="Sw">
        <DataArray type="Float32" Name="Sw" NumberOfComponents="1" format="ascii">
          0.005 0.005 0.005 0.005 0.005 0.005 0.005 0.005 0.005 0.005 0.005 0.005
          0.005 0.005 0.005 0.005 0.005 0.005 0.005 0.005 0.005 0.005 0.005 0.005
          0.005 0.005 0.005 0.005 0.005 0.005 0.005 0.005 0.005 0.005 0.005 0.005
          0.005 0.005 0.005 0.005 0.005 0.005 0.005 0.005 0.005 0.005 0.005 0.005
          0.005 0.005 0.005 0.005 0.005 0.005 0.005 0.005 0.005 0.005 0.005 0.005
          0.005 0.005 0.005 0.005 0.005 0.005 0.005 0.005 0.005 0.005 0.005 0.005
          0.005 0.005 0.005 0.005 0.005 0.005 0.005 0.005 0.005 0.005 0.005 0.005
          0.005 0.005 0.005 0.005 0.005 0.005 0.005 0.005 0.005 0.005 0.005 0.005
          0.005 0.005 0.005 0.005 0.005 0.005 0.005 0.005 0.005 0.005 0.005 0.005
          0.005 0.005 0.005 0.005 0.005 0.005 0.005 0.005 0.005 0.005 0.005 0.005
          0.005 0.005 0.005 0.005 0.005 0.005 0.005 0.005 0.005 0.005 0.005 0.005
          0.005 0.005 0.005 0.005 0.005 0.005 0.005 0.005 0.005 0.005 0.005 0.005
          0.005 0.005 0.005 0.005 0.005 0.005 0.005 0.005 0.005 0.005 0.005 0.005
          0.005 0.005 0.005 0.005 0.005 0.005 0.005 0.005 0.005 0.005 0.005 0.005
          0.005 0.005 0.005 0.005 0.005 0.005 0.005 0.005 0.005 0.005 0.00499992 0.00499992
          0.00499997 0.00499997 0.00499999 0.00499999 0.00499999 0.00499999 0.00499999 0.00499999 0.00499999 0.00499999 0.00499999 0.00499999
          0.005 0.005 0.005 0.005 0.00500001 0.00500001 0.00500001 0.00500001 0.00500001 0.00500001 0.00500001 0.00500001
          0.00500001 0.00500001 0.00500001 0.00500001 0.00500001 0.00500001 0.00500001 0.00500001 0.00500001 0.00500001 0.00500001 0.00500001
          0.00500001 0.00500001 0.00500001 0.00500001 0.00500001 0.00500001 0.00500001 0.00500001 0.00500001 0.00500001 0.00500004 0.00500004
          0.00500035 0.00500035 0.00500459 0.00500459 0.00513847 0.00513847 0.0475436 0.0475436 0.0873723 0.0873723 0.150922 0.150922
          0.170775 0.170775
        </DataArray>
        <DataArray type="Float32" Name="Sn" NumberOfComponents="1" format="ascii">
          0.0001 0.0001 0.0001 0.0001 0.0001 0.0001 0.0001 0.0001 9.99999e-05 9.99999e-05 9.99999e-05 9.99999e-05
          9.99998e-05 9.99998e-05 9.99998e-05 9.99998e-05 9.99997e-05 9.99997e-05 9.99996e-05 9.99996e-05 9.99996e-05 9.99996e-05 9.99995e-05 9.99995e-05
          9.99995e-05 9.99995e-05 9.99994e-05 9.99994e-05 9.99993e-05 9.99993e-05 9.99993e-05 9.99993e-05 9.99992e-05 9.99992e-05 9.99992e-05 9.99992e-05
          9.99991e-05 9.99991e-05 9.9999e-05 9.9999e-05 9.9999e-05 9.9999e-05 9.99989e-05 9.99989e-05 9.99989e-05 9.99989e-05 9.99988e-05 9.99988e-05
          9.99987e-05 9.99987e-05 9.99987e-05 9.99987e-05 9.99986e-05 9.99986e-05 9.99986e-05 9.99986e-05 9.99985e-05 9.99985e-05 9.99984e-05 9.99984e-05
          9.99984e-05 9.99984e-05 9.99983e-05 9.99983e-05 9.99983e-05 9.99983e-05 9.99982e-05 9.99982e-05 9.99982e-05 9.99982e-05 9.99981e-05 9.99981e-05
          9.9998e-05 9.9998e-05 9.9998e-05 9.9998e-05 9.99979e-05 9.99979e-05 9.99979e-05 9.99979e-05 9.99978e-05 9.99978e-05 9.99977e-05 9.99977e-05
          9.99977e-05 9.99977e-05 9.99976e-05 9.99976e-05 9.99976e-05 9.99976e-05 9.99975e-05 9.99975e-05 9.99974e-05 9.99974e-05 9.99974e-05 9.99974e-05
          9.99973e-05 9.99973e-05 9.99973e-05 9.99973e-05 9.99972e-05 9.99972e-05 9.99971e-05 9.99971e-05 9.99971e-05 9.99971e-05 9.9997e-05 9.9997e-05
          9.9997e-05 9.9997e-05 9.99969e-05 9.99969e-05 9.99968e-05 9.99968e-05 9.99968e-05 9.99968e-05 9.99967e-05 9.99967e-05 9.99967e-05 9.99967e-05
          9.99966e-05 9.99966e-05 9.99965e-05 9.99965e-05 9.99965e-05 9.99965e-05 9.99964e-05 9.99964e-05 9.99964e-05 9.99964e-05 9.99963e-05 9.99963e-05
          9.99963e-05 9.99963e-05 9.99962e-05 9.99962e-05 9.99961e-05 9.99961e-05 9.99961e-05 9.99961e-05 9.9996e-05 9.9996e-05 9.9996e-05 9.9996e-05
          9.99959e-05 9.99959e-05 9.99958e-05 9.99958e-05 9.99958e-05 9.99958e-05 9.99957e-05 9.99957e-05 9.99957e-05 9.99957e-05 9.99956e-05 9.99956e-05
          9.99955e-05 9.99955e-05 9.99955e-05 9.99955e-05 9.99954e-05 9.99954e-05 9.99954e-05 9.99954e-05 9.99953e-05 9.99953e-05 9.99952e-05 9.99952e-05
          9.99952e-05 9.99952e-05 9.99951e-05 9.99951e-05 9.99951e-05 9.99951e-05 9.9995e-05 9.9995e-05 9.99949e-05 9.99949e-05 0.00363807 0.00363807
          0.914909 0.914909 0.890198 0.890198 0.862912 0.862912 0.833049 0.833049 0.800706 0.800706 0.766044 0.766044
          0.729263 0.729263 0.690569 0.690569 0.650145 0.650145 0.608121 0.608121 0.564553 0.564553 0.519428 0.519428
          0.472714 0.472714 0.424477 0.424477 0.375129 0.375129 0.325876 0.325876 0.2794 0.2794 0.240224 0.240224
          0.212302 0.212302 0.193718 0.193718 0.17962 0.17962 0.167565 0.167565 0.156847 0.156847 0.147057 0.147057
          0.138113 0.138113 0.132074 0.132074 0.176027 0.176027 0.212624 0.212624 0.12014 0.12014 0 0
          0 0
        </DataArray>
        <DataArray type="Float32" Name="Sg" NumberOfComponents="1" format="ascii">
          0.9949 0.9949 0.9949 0.9949 0.9949 0.9949 0.9949 0.9949 0.9949 0.9949 0.9949 0.9949
          0.9949 0.9949 0.9949 0.9949 0.9949 0.9949 0.9949 0.9949 0.9949 0.9949 0.9949 0.9949
          0.9949 0.9949 0.9949 0.9949 0.9949 0.9949 0.9949 0.9949 0.9949 0.9949 0.9949 0.9949
          0.9949 0.9949 0.9949 0.9949 0.9949 0.9949 0.9949 0.9949 0.9949 0.9949 0.9949 0.9949
          0.9949 0.9949 0.9949 0.9949 0.9949 0.9949 0.9949 0.9949 0.9949 0.9949 0.9949 0.9949
          0.9949 0.9949 0.9949 0.9949 0.9949 0.9949 0.9949 0.9949 0.9949 0.9949 0.9949 0.9949
          0.9949 0.9949 0.9949 0.9949 0.9949 0.9949 0.9949 0.9949 0.9949 0.9949 0.9949 0.9949
          0.9949 0.9949 0.9949 0.9949 0.9949 0.9949 0.9949 0.9949 0.9949 0.9949 0.9949 0.9949
          0.9949 0.9949 0.9949 0.9949 0.9949 0.9949 0.9949 0.9949 0.9949 0.9949 0.9949 0.9949
          0.9949 0.9949 0.9949 0.9949 0.9949 0.9949 0.9949 0.9949 0.9949 0.9949 0.9949 0.9949
          0.9949 0.9949 0.9949 0.9949 0.9949 0.9949 0.9949 0.9949 0.9949 0.9949 0.9949 0.9949
          0.9949 0.9949 0.9949 0.9949 0.9949 0.9949 0.9949 0.9949 0.9949 0.9949 0.9949 0.9949
          0.9949 0.9949 0.9949 0.9949 0.9949 0.9949 0.9949 0.9949 0.9949 0.9949 0.9949 0.9949
          0.9949 0.9949 0.9949 0.9949 0.9949 0.9949 0.9949 0.9949 0.9949 0.9949 0.9949 0.9949
          0.9949 0.9949 0.9949 0.9949 0.9949 0.9949 0.9949 0.9949 0.9949 0.9949 0.991362 0.991362
          0.0800912 0.0800912 0.104802 0.104802 0.132088 0.132088 0.161951 0.161951 0.194294 0.194294 0.228956 0.228956
          0.265737 0.265737 0.304431 0.304431 0.344855 0.344855 0.386879 0.386879 0.430447 0.430447 0.475572 0.475572
          0.522286 0.522286 0.570523 0.570523 0.619871 0.619871 0.669124 0.669124 0.7156 0.7156 0.754776 0.754776
          0.782698 0.782698 0.801282 0.801282 0.81538 0.81538 0.827435 0.827435 0.838153 0.838153 0.847943 0.847943
          0.856887 0.856887 0.862921 0.862921 0.818835 0.818835 0.739832 0.739832 0.792488 0.792488 0.849078 0.849078
          0.829225 0.829225
        </DataArray>
        <DataArray type="Float32" Name="pw" NumberOfComponents="1" format="ascii">
          99947.1 99947.1 99947 99947 99946.9 99946.9 99946.8 99946.8 99946.6 99946.6 99946.5 99946.5
          99946.4 99946.4 99946.3 99946.3 99946.2 99946.2 99946.1 99946.1 99946 99946 99945.8 99945.8
          99945.7 99945.7 99945.6 99945.6 99945.5 99945.5 99945.4 99945.4 99945.2 99945.2 99945.1 99945.1
          99945 99945 99944.9 99944.9 99944.8 99944.8 99944.7 99944.7 99944.5 99944.5 99944.4 99944.4
          99944.3 99944.3 99944.2 99944.2 99944.1 99944.1 99944 99944 99943.9 99943.9 99943.7 99943.7
          99943.6 99943.6 99943.5 99943.5 99943.4 99943.4 99943.3 99943.3 99943.1 99943.1 99943 99943
          99942.9 99942.9 99942.8 99942.8 99942.7 99942.7 99942.6 99942.6 99942.4 99942.4 99942.3 99942.3
          99942.2 99942.2 99942.1 99942.1 99942 99942 99941.9 99941.9 99941.7 99941.7 99941.6 99941.6
          99941.5 99941.5 99941.4 99941.4 99941.3 99941.3 99941.2 99941.2 99941 99941 99940.9 99940.9
          99940.8 99940.8 99940.7 99940.7 99940.6 99940.6 99940.5 99940.5 99940.3 99940.3 99940.2 99940.2
          99940.1 99940.1 99940 99940 99939.9 99939.9 99939.8 99939.8 99939.6 99939.6 99939.5 99939.5
          99939.4 99939.4 99939.3 99939.3 99939.2 99939.2 99939.1 99939.1 99938.9 99938.9 99938.8 99938.8
          99938.7 99938.7 99938.6 99938.6 99938.5 99938.5 99938.4 99938.4 99938.2 99938.2 99938.1 99938.1
          99938 99938 99937.9 99937.9 99937.8 99937.8 99937.7 99937.7 99937.5 99937.5 99937.4 99937.4
          99937.3 99937.3 99937.2 99937.2 99937.1 99937.1 99937 99937 99936.8 99936.8 99934.8 99934.8
          45907.2 45907.2 45822.8 45822.8 45738 45738 45652.4 45652.4 45565.4 45565.4 45476.5 45476.5
          45384.8 45384.8 45289.6 45289.6 45189.5 45189.5 45082.9 45082.9 44967.3 44967.3 44839.5 44839.5
          44694.5 44694.5 44525.3 44525.3 44322 44322 44071.8 44071.8 43763.8 43763.8 43407.7 43407.7
          43055.1 43055.1 42739.3 42739.3 42427.3 42427.3 42080.2 42080.2 41670.2 41670.2 41152 41152
          40452.2 40452.2 39736.6 39736.6 42387.4 42387.4 58547 58547 72091.4 72091.4 94241 94241
          95292 95292
        </DataArray>
        <DataArray type="Float32" Name="pn" NumberOfComponents="1" format="ascii">
          99947.1 99947.1 99947 99947 99946.9 99946.9 99946.8 99946.8 99946.6 99946.6 99946.5 99946.5
          99946.4 99946.4 99946.3 99946.3 99946.2 99946.2 99946.1 99946.1 99946 99946 99945.8 99945.8
          99945.7 99945.7 99945.6 99945.6 99945.5 99945.5 99945.4 99945.4 99945.2 99945.2 99945.1 99945.1
          99945 99945 99944.9 99944.9 99944.8 99944.8 99944.7 99944.7 99944.5 99944.5 99944.4 99944.4
          99944.3 99944.3 99944.2 99944.2 99944.1 99944.1 99944 99944 99943.9 99943.9 99943.7 99943.7
          99943.6 99943.6 99943.5 99943.5 99943.4 99943.4 99943.3 99943.3 99943.1 99943.1 99943 99943
          99942.9 99942.9 99942.8 99942.8 99942.7 99942.7 99942.6 99942.6 99942.4 99942.4 99942.3 99942.3
          99942.2 99942.2 99942.1 99942.1 99942 99942 99941.9 99941.9 99941.7 99941.7 99941.6 99941.6
          99941.5 99941.5 99941.4 99941.4 99941.3 99941.3 99941.2 99941.2 99941 99941 99940.9 99940.9
          99940.8 99940.8 99940.7 99940.7 99940.6 99940.6 99940.5 99940.5 99940.3 99940.3 99940.2 99940.2
          99940.1 99940.1 99940 99940 99939.9 99939.9 99939.8 99939.8 99939.6 99939.6 99939.5 99939.5
          99939.4 99939.4 99939.3 99939.3 99939.2 99939.2 99939.1 99939.1 99938.9 99938.9 99938.8 99938.8
          99938.7 99938.7 99938.6 99938.6 99938.5 99938.5 99938.4 99938.4 99938.2 99938.2 99938.1 99938.1
          99938 99938 99937.9 99937.9 99937.8 99937.8 99937.7 99937.7 99937.5 99937.5 99937.4 99937.4
          99937.3 99937.3 99937.2 99937.2 99937.1 99937.1 99937 99937 99936.8 99936.8 99936.8 99936.8
          98788.3 98788.3 98703.9 98703.9 98619.1 98619.1 98533.5 98533.5 98446.5 98446.5 98357.6 98357.6
          98266 98266 98170.7 98170.7 98070.6 98070.6 97964 97964 97848.5 97848.5 97720.6 97720.6
          97575.6 97575.6 97406.4 97406.4 97203.1 97203.1 96952.9 96952.9 96644.9 96644.9 96288.8 96288.8
          95936.2 95936.2 95620.4 95620.4 95308.4 95308.4 94961.3 94961.3 94551.4 94551.4 94033.1 94033.1
          93333.2 93333.2 92616.1 92616.1 95219.8 95219.8 96444 96444 95960.6 95960.6 94241 94241
          95292 95292
        </DataArray>
        <DataArray type="Float32" Name="pg" NumberOfComponents="1" format="ascii">
          100000 100000 99999.9 99999.9 99999.8 99999.8 99999.6 99999.6 99999.5 99999.5 99999.4 99999.4
          99999.3 99999.3 99999.2 99999.2 99999.1 99999.1 99998.9 99998.9 99998.8 99998.8 99998.7 99998.7
          99998.6 99998.6 99998.5 99998.5 99998.4 99998.4 99998.2 99998.2 99998.1 99998.1 99998 99998
          99997.9 99997.9 99997.8 99997.8 99997.7 99997.7 99997.5 99997.5 99997.4 99997.4 99997.3 99997.3
          99997.2 99997.2 99997.1 99997.1 99997 99997 99996.8 99996.8 99996.7 99996.7 99996.6 99996.6
          99996.5 99996.5 99996.4 99996.4 99996.3 99996.3 99996.1 99996.1 99996 99996 99995.9 99995.9
          99995.8 99995.8 99995.7 99995.7 99995.6 99995.6 99995.4 99995.4 99995.3 99995.3 99995.2 99995.2
          99995.1 99995.1 99995 99995 99994.9 99994.9 99994.7 99994.7 99994.6 99994.6 99994.5 99994.5
          99994.4 99994.4 99994.3 99994.3 99994.2 99994.2 99994 99994 99993.9 99993.9 99993.8 99993.8
          99993.7 99993.7 99993.6 99993.6 99993.5 99993.5 99993.3 99993.3 99993.2 99993.2 99993.1 99993.1
          99993 99993 99992.9 99992.9 99992.8 99992.8 99992.6 99992.6 99992.5 99992.5 99992.4 99992.4
          99992.3 99992.3 99992.2 99992.2 99992.1 99992.1 99991.9 99991.9 99991.8 99991.8 99991.7 99991.7
          99991.6 99991.6 99991.5 99991.5 99991.4 99991.4 99991.2 99991.2 99991.1 99991.1 99991 99991
          99990.9 99990.9 99990.8 99990.8 99990.7 99990.7 99990.5 99990.5 99990.4 99990.4 99990.3 99990.3
          99990.2 99990.2 99990.1 99990.1 99990 99990 99989.8 99989.8 99989.7 99989.7 99989.6 99989.6
          100002 100002 100014 100014 100022 100022 100028 100028 100032 100032 100035 100035
          100037 100037 100039 100039 100040 100040 100042 100042 100043 100043 100043 100043
          100044 100044 100045 100045 100045 100045 100046 100046 100046 100046 100046 100046
          100047 100047 100047 100047 100047 100047 100048 100048 100048 100048 100048 100048
          100048 100048 100049 100049 100049 100049 100051 100051 100227 100227 100329 100329
          100439 100439
        </DataArray>
        <DataArray type="Float32" Name="rhow" NumberOfComponents="1" format="ascii">
          997.661 997.661 997.661 997.661 997.661 997.661 997.661 997.661 997.661 997.661 997.661 997.661
          997.661 997.661 997.661 997.661 997.661 997.661 997.661 997.661 997.661 997.661 997.661 997.661
          997.661 997.661 997.661 997.661 997.661 997.661 997.661 997.661 997.661 997.661 997.661 997.661
          997.661 997.661 997.661 997.661 997.661 997.661 997.661 997.661 997.661 997.661 997.661 997.661
          997.661 997.661 997.661 997.661 997.661 997.661 997.661 997.661 997.661 997.661 997.661 997.661
          997.661 997.661 997.661 997.661 997.661 997.661 997.661 997.661 997.661 997.661 997.661 997.661
          997.661 997.661 997.661 997.661 997.661 997.661 997.661 997.661 997.661 997.661 997.661 997.661
          997.661 997.661 997.661 997.661 997.661 997.661 997.661 997.661 997.661 997.661 997.661 997.661
          997.661 997.661 997.661 997.661 997.661 997.661 997.661 997.661 997.661 997.661 997.661 997.661
          997.661 997.661 997.661 997.661 997.661 997.661 997.661 997.661 997.661 997.661 997.661 997.661
          997.661 997.661 997.661 997.661 997.661 997.661 997.661 997.661 997.661 997.661 997.661 997.661
          997.661 997.661 997.661 997.661 997.661 997.661 997.661 997.661 997.661 997.661 997.661 997.661
          997.661 997.661 997.661 997.661 997.661 997.661 997.661 997.661 997.661 997.661 997.661 997.661
          997.661 997.661 997.661 997.661 997.661 997.661 997.661 997.661 997.661 997.661 997.661 997.661
          997.661 997.661 997.661 997.661 997.661 997.661 997.661 997.661 997.661 997.661 997.661 997.661
          997.637 997.637 997.637 997.637 997.637 997.637 997.637 997.637 997.637 997.637 997.637 997.637
          997.637 997.637 997.637 997.637 997.637 997.637 997.637 997.637 997.637 997.637 997.637 997.637
          997.636 997.636 997.636 997.636 997.636 997.636 997.636 997.636 997.636 997.636 997.636 997.636
          997.636 997.636 997.636 997.636 997.635 997.635 997.635 997.635 997.635 997.635 997.634 997.634
          997.618 997.618 997.441 997.441 995.306 995.306 974.664 974.664 966.771 966.771 959.179 959.179
          958.564 958.564
        </DataArray>
        <DataArray type="Float32" Name="rhon" NumberOfComponents="1" format="ascii">
          860.465 860.465 860.465 860.465 860.465 860.465 860.465 860.465 860.465 860.465 860.465 860.465
          860.465 860.465 860.465 860.465 860.465 860.465 860.465 860.465 860.465 860.465 860.465 860.465
          860.465 860.465 860.465 860.465 860.465 860.465 860.465 860.465 860.465 860.465 860.465 860.465
          860.465 860.465 860.465 860.465 860.465 860.465 860.465 860.465 860.465 860.465 860.465 860.465
          860.465 860.465 860.465 860.465 860.465 860.465 860.465 860.465 860.465 860.465 860.465 860.465
          860.465 860.465 860.465 860.465 860.465 860.465 860.465 860.465 860.465 860.465 860.465 860.465
          860.465 860.465 860.465 860.465 860.465 860.465 860.465 860.465 860.465 860.465 860.465 860.465
          860.465 860.465 860.465 860.465 860.465 860.465 860.465 860.465 860.465 860.465 860.465 860.465
          860.465 860.465 860.465 860.465 860.465 860.465 860.465 860.465 860.465 860.465 860.465 860.465
          860.465 860.465 860.465 860.465 860.465 860.465 860.465 860.465 860.465 860.465 860.465 860.465
          860.465 860.465 860.465 860.465 860.465 860.465 860.465 860.465 860.465 860.465 860.465 860.465
          860.465 860.465 860.465 860.465 860.465 860.465 860.465 860.465 860.465 860.465 860.465 860.465
          860.465 860.465 860.465 860.465 860.465 860.465 860.465 860.465 860.465 860.465 860.465 860.465
          860.465 860.465 860.465 860.465 860.465 860.465 860.465 860.465 860.465 860.465 860.465 860.465
          860.465 860.465 860.465 860.465 860.465 860.465 860.465 860.465 860.465 860.465 860.465 860.465
          860.465 860.465 860.465 860.465 860.465 860.465 860.465 860.465 860.465 860.465 860.465 860.465
          860.465 860.465 860.465 860.465 860.465 860.465 860.465 860.465 860.465 860.465 860.465 860.465
          860.465 860.465 860.465 860.465 860.465 860.465 860.465 860.465 860.465 860.465 860.465 860.465
          860.465 860.465 860.465 860.465 860.465 860.465 860.465 860.465 860.465 860.465 860.46 860.46
          860.404 860.404 859.739 859.739 852.928 852.928 811.295 811.295 798.181 798.181 791.586 791.586
          791.078 791.078
        </DataArray>
        <DataArray type="Float32" Name="rhog" NumberOfComponents="1" format="ascii">
          1.19439 1.19439 1.19439 1.19439 1.19439 1.19439 1.19439 1.19439 1.19439 1.19439 1.19438 1.19438
          1.19438 1.19438 1.19438 1.19438 1.19438 1.19438 1.19438 1.19438 1.19438 1.19438 1.19438 1.19438
          1.19437 1.19437 1.19437 1.19437 1.19437 1.19437 1.19437 1.19437 1.19437 1.19437 1.19437 1.19437
          1.19437 1.19437 1.19437 1.19437 1.19436 1.19436 1.19436 1.19436 1.19436 1.19436 1.19436 1.19436
          1.19436 1.19436 1.19436 1.19436 1.19436 1.19436 1.19435 1.19435 1.19435 1.19435 1.19435 1.19435
          1.19435 1.19435 1.19435 1.19435 1.19435 1.19435 1.19435 1.19435 1.19434 1.19434 1.19434 1.19434
          1.19434 1.19434 1.19434 1.19434 1.19434 1.19434 1.19434 1.19434 1.19434 1.19434 1.19433 1.19433
          1.19433 1.19433 1.19433 1.19433 1.19433 1.19433 1.19433 1.19433 1.19433 1.19433 1.19433 1.19433
          1.19433 1.19433 1.19432 1.19432 1.19432 1.19432 1.19432 1.19432 1.19432 1.19432 1.19432 1.19432
          1.19432 1.19432 1.19432 1.19432 1.19431 1.19431 1.19431 1.19431 1.19431 1.19431 1.19431 1.19431
          1.19431 1.19431 1.19431 1.19431 1.19431 1.19431 1.1943 1.1943 1.1943 1.1943 1.1943 1.1943
          1.1943 1.1943 1.1943 1.1943 1.1943 1.1943 1.1943 1.1943 1.1943 1.1943 1.19429 1.19429
          1.19429 1.19429 1.19429 1.19429 1.19429 1.19429 1.19429 1.19429 1.19429 1.19429 1.19429 1.19429
          1.19428 1.19428 1.19428 1.19428 1.19428 1.19428 1.19428 1.19428 1.19428 1.19428 1.19428 1.19428
          1.19428 1.19428 1.19427 1.19427 1.19427 1.19427 1.19427 1.19427 1.19427 1.19427 1.19427 1.19427
          1.19442 1.19442 1.19456 1.19456 1.19465 1.19465 1.19472 1.19472 1.19476 1.19476 1.1948 1.1948
          1.19483 1.19483 1.19485 1.19485 1.19487 1.19487 1.19488 1.19488 1.19489 1.19489 1.1949 1.1949
          1.19491 1.19491 1.19492 1.19492 1.19492 1.19492 1.19493 1.19493 1.19493 1.19493 1.19494 1.19494
          1.19494 1.19494 1.19494 1.19494 1.19495 1.19495 1.19495 1.19495 1.19495 1.19495 1.19494 1.19494
          1.19475 1.19475 1.1925 1.1925 1.17214 1.17214 1.20074 1.20074 1.28958 1.28958 0.645396 0.645396
          0.592792 0.592792
        </DataArray>
        <DataArray type="Float32" Name="x^H2O_w" NumberOfComponents="1" format="ascii">
          0.99996 0.99996 0.99996 0.99996 0.99996 0.99996 0.99996 0.99996 0.99996 0.99996 0.99996 0.99996
          0.99996 0.99996 0.99996 0.99996 0.99996 0.99996 0.99996 0.99996 0.99996 0.99996 0.99996 0.99996
          0.99996 0.99996 0.99996 0.99996 0.99996 0.99996 0.99996 0.99996 0.99996 0.99996 0.99996 0.99996
          0.99996 0.99996 0.99996 0.99996 0.99996 0.99996 0.99996 0.99996 0.99996 0.99996 0.99996 0.99996
          0.99996 0.99996 0.99996 0.99996 0.99996 0.99996 0.99996 0.99996 0.99996 0.99996 0.99996 0.99996
          0.99996 0.99996 0.99996 0.99996 0.99996 0.99996 0.99996 0.99996 0.99996 0.99996 0.99996 0.99996
          0.99996 0.99996 0.99996 0.99996 0.99996 0.99996 0.99996 0.99996 0.99996 0.99996 0.99996 0.99996
          0.99996 0.99996 0.99996 0.99996 0.99996 0.99996 0.99996 0.99996 0.99996 0.99996 0.99996 0.99996
          0.99996 0.99996 0.99996 0.99996 0.99996 0.99996 0.99996 0.99996 0.99996 0.99996 0.99996 0.99996
          0.99996 0.99996 0.99996 0.99996 0.99996 0.99996 0.99996 0.99996 0.99996 0.99996 0.99996 0.99996
          0.99996 0.99996 0.99996 0.99996 0.99996 0.99996 0.99996 0.99996 0.99996 0.99996 0.99996 0.99996
          0.99996 0.99996 0.99996 0.99996 0.99996 0.99996 0.99996 0.99996 0.99996 0.99996 0.99996 0.99996
          0.99996 0.99996 0.99996 0.99996 0.99996 0.99996 0.99996 0.99996 0.99996 0.99996 0.99996 0.99996
          0.99996 0.99996 0.99996 0.99996 0.99996 0.99996 0.99996 0.99996 0.99996 0.99996 0.99996 0.99996
          0.99996 0.99996 0.99996 0.99996 0.99996 0.99996 0.99996 0.99996 0.99996 0.99996 0.99996 0.99996
          0.99996 0.99996 0.99996 0.99996 0.99996 0.99996 0.99996 0.99996 0.99996 0.99996 0.99996 0.99996
          0.99996 0.99996 0.99996 0.99996 0.99996 0.99996 0.99996 0.99996 0.99996 0.99996 0.99996 0.99996
          0.99996 0.99996 0.99996 0.99996 0.99996 0.99996 0.99996 0.99996 0.99996 0.99996 0.99996 0.99996
          0.99996 0.99996 0.99996 0.99996 0.99996 0.99996 0.99996 0.99996 0.99996 0.99996 0.99996 0.99996
          0.99996 0.99996 0.999959 0.999959 0.999945 0.999945 0.99962 0.99962 0.999365 0.999365 0.999951 0.999951
          1 1
        </DataArray>
        <DataArray type="Float32" Name="x^xylene_w" NumberOfComponents="1" format="ascii">
          2.62566e-05 2.62566e-05 2.62566e-05 2.62566e-05 2.62566e-05 2.62566e-05 2.62566e-05 2.62566e-05 2.62566e-05 2.62566e-05 2.62566e-05 2.62566e-05
          2.62566e-05 2.62566e-05 2.62566e-05 2.62566e-05 2.62566e-05 2.62566e-05 2.62566e-05 2.62566e-05 2.62566e-05 2.62566e-05 2.62566e-05 2.62566e-05
          2.62566e-05 2.62566e-05 2.62566e-05 2.62566e-05 2.62566e-05 2.62566e-05 2.62566e-05 2.62566e-05 2.62566e-05 2.62566e-05 2.62566e-05 2.62566e-05
          2.62566e-05 2.62566e-05 2.62566e-05 2.62566e-05 2.62566e-05 2.62566e-05 2.62566e-05 2.62566e-05 2.62566e-05 2.62566e-05 2.62566e-05 2.62566e-05
          2.62566e-05 2.62566e-05 2.62566e-05 2.62566e-05 2.62566e-05 2.62566e-05 2.62566e-05 2.62566e-05 2.62566e-05 2.62566e-05 2.62566e-05 2.62566e-05
          2.62566e-05 2.62566e-05 2.62566e-05 2.62566e-05 2.62566e-05 2.62566e-05 2.62566e-05 2.62566e-05 2.62566e-05 2.62566e-05 2.62566e-05 2.62566e-05
          2.62566e-05 2.62566e-05 2.62566e-05 2.62566e-05 2.62566e-05 2.62566e-05 2.62566e-05 2.62566e-05 2.62566e-05 2.62566e-05 2.62566e-05 2.62566e-05
          2.62566e-05 2.62566e-05 2.62566e-05 2.62566e-05 2.62566e-05 2.62566e-05 2.62566e-05 2.62566e-05 2.62566e-05 2.62566e-05 2.62566e-05 2.62566e-05
          2.62566e-05 2.62566e-05 2.62566e-05 2.62566e-05 2.62566e-05 2.62566e-05 2.62566e-05 2.62566e-05 2.62566e-05 2.62566e-05 2.62566e-05 2.62566e-05
          2.62566e-05 2.62566e-05 2.62566e-05 2.62566e-05 2.62566e-05 2.62566e-05 2.62566e-05 2.62566e-05 2.62566e-05 2.62566e-05 2.62566e-05 2.62566e-05
          2.62566e-05 2.62566e-05 2.62566e-05 2.62566e-05 2.62566e-05 2.62566e-05 2.62566e-05 2.62566e-05 2.62566e-05 2.62566e-05 2.62566e-05 2.62566e-05
          2.62566e-05 2.62566e-05 2.62566e-05 2.62566e-05 2.62566e-05 2.62566e-05 2.62566e-05 2.62566e-05 2.62566e-05 2.62566e-05 2.62566e-05 2.62566e-05
          2.62566e-05 2.62566e-05 2.62566e-05 2.62566e-05 2.62566e-05 2.62566e-05 2.62566e-05 2.62566e-05 2.62566e-05 2.62566e-05 2.62566e-05 2.62566e-05
          2.62566e-05 2.62566e-05 2.62566e-05 2.62566e-05 2.62566e-05 2.62566e-05 2.62566e-05 2.62566e-05 2.62566e-05 2.62566e-05 2.62566e-05 2.62566e-05
          2.62566e-05 2.62566e-05 2.62566e-05 2.62566e-05 2.62566e-05 2.62566e-05 2.62566e-05 2.62566e-05 2.62566e-05 2.62566e-05 2.62566e-05 2.62566e-05
          2.62565e-05 2.62565e-05 2.62564e-05 2.62564e-05 2.62564e-05 2.62564e-05 2.62565e-05 2.62565e-05 2.62565e-05 2.62565e-05 2.62566e-05 2.62566e-05
          2.62566e-05 2.62566e-05 2.62566e-05 2.62566e-05 2.62566e-05 2.62566e-05 2.62566e-05 2.62566e-05 2.62566e-05 2.62566e-05 2.62566e-05 2.62566e-05
          2.62566e-05 2.62566e-05 2.62566e-05 2.62566e-05 2.62566e-05 2.62566e-05 2.62566e-05 2.62566e-05 2.62566e-05 2.62566e-05 2.62566e-05 2.62566e-05
          2.62567e-05 2.62567e-05 2.62567e-05 2.62567e-05 2.62567e-05 2.62567e-05 2.62567e-05 2.62567e-05 2.62573e-05 2.62573e-05 2.62655e-05 2.62655e-05
          2.63674e-05 2.63674e-05 2.76044e-05 2.76044e-05 4.33112e-05 4.33112e-05 0.000376331 0.000376331 0.000634978 0.000634978 4.94601e-05 4.94601e-05
          2.33604e-32 4.61677e-32
        </DataArray>
        <DataArray type="Float32" Name="x^Air_w" NumberOfComponents="1" format="ascii">
          1.37483e-05 1.37483e-05 1.37482e-05 1.37482e-05 1.37482e-05 1.37482e-05 1.37482e-05 1.37482e-05 1.37482e-05 1.37482e-05 1.37482e-05 1.37482e-05
          1.37482e-05 1.37482e-05 1.37481e-05 1.37481e-05 1.37481e-05 1.37481e-05 1.37481e-05 1.37481e-05 1.37481e-05 1.37481e-05 1.37481e-05 1.37481e-05
          1.37481e-05 1.37481e-05 1.3748e-05 1.3748e-05 1.3748e-05 1.3748e-05 1.3748e-05 1.3748e-05 1.3748e-05 1.3748e-05 1.3748e-05 1.3748e-05
          1.3748e-05 1.3748e-05 1.37479e-05 1.37479e-05 1.37479e-05 1.37479e-05 1.37479e-05 1.37479e-05 1.37479e-05 1.37479e-05 1.37479e-05 1.37479e-05
          1.37479e-05 1.37479e-05 1.37478e-05 1.37478e-05 1.37478e-05 1.37478e-05 1.37478e-05 1.37478e-05 1.37478e-05 1.37478e-05 1.37478e-05 1.37478e-05
          1.37478e-05 1.37478e-05 1.37477e-05 1.37477e-05 1.37477e-05 1.37477e-05 1.37477e-05 1.37477e-05 1.37477e-05 1.37477e-05 1.37477e-05 1.37477e-05
          1.37477e-05 1.37477e-05 1.37476e-05 1.37476e-05 1.37476e-05 1.37476e-05 1.37476e-05 1.37476e-05 1.37476e-05 1.37476e-05 1.37476e-05 1.37476e-05
          1.37476e-05 1.37476e-05 1.37475e-05 1.37475e-05 1.37475e-05 1.37475e-05 1.37475e-05 1.37475e-05 1.37475e-05 1.37475e-05 1.37475e-05 1.37475e-05
          1.37475e-05 1.37475e-05 1.37474e-05 1.37474e-05 1.37474e-05 1.37474e-05 1.37474e-05 1.37474e-05 1.37474e-05 1.37474e-05 1.37474e-05 1.37474e-05
          1.37474e-05 1.37474e-05 1.37473e-05 1.37473e-05 1.37473e-05 1.37473e-05 1.37473e-05 1.37473e-05 1.37473e-05 1.37473e-05 1.37473e-05 1.37473e-05
          1.37473e-05 1.37473e-05 1.37472e-05 1.37472e-05 1.37472e-05 1.37472e-05 1.37472e-05 1.37472e-05 1.37472e-05 1.37472e-05 1.37472e-05 1.37472e-05
          1.37472e-05 1.37472e-05 1.37471e-05 1.37471e-05 1.37471e-05 1.37471e-05 1.37471e-05 1.37471e-05 1.37471e-05 1.37471e-05 1.37471e-05 1.37471e-05
          1.37471e-05 1.37471e-05 1.3747e-05 1.3747e-05 1.3747e-05 1.3747e-05 1.3747e-05 1.3747e-05 1.3747e-05 1.3747e-05 1.3747e-05 1.3747e-05
          1.3747e-05 1.3747e-05 1.37469e-05 1.37469e-05 1.37469e-05 1.37469e-05 1.37469e-05 1.37469e-05 1.37469e-05 1.37469e-05 1.37469e-05 1.37469e-05
          1.37469e-05 1.37469e-05 1.37468e-05 1.37468e-05 1.37468e-05 1.37468e-05 1.37468e-05 1.37468e-05 1.37468e-05 1.37468e-05 1.37468e-05 1.37468e-05
          1.37486e-05 1.37486e-05 1.37503e-05 1.37503e-05 1.37515e-05 1.37515e-05 1.37522e-05 1.37522e-05 1.37528e-05 1.37528e-05 1.37532e-05 1.37532e-05
          1.37536e-05 1.37536e-05 1.37538e-05 1.37538e-05 1.3754e-05 1.3754e-05 1.37542e-05 1.37542e-05 1.37544e-05 1.37544e-05 1.37545e-05 1.37545e-05
          1.37546e-05 1.37546e-05 1.37547e-05 1.37547e-05 1.37547e-05 1.37547e-05 1.37548e-05 1.37548e-05 1.37548e-05 1.37548e-05 1.37549e-05 1.37549e-05
          1.37549e-05 1.37549e-05 1.3755e-05 1.3755e-05 1.3755e-05 1.3755e-05 1.3755e-05 1.3755e-05 1.3755e-05 1.3755e-05 1.37537e-05 1.37537e-05
          1.37368e-05 1.37368e-05 1.35399e-05 1.35399e-05 1.17983e-05 1.17983e-05 3.93277e-06 3.93277e-06 3.09556e-11 3.09556e-11 2.97237e-11 2.97237e-11
          2.58443e-11 2.58443e-11
        </DataArray>
        <DataArray type="Float32" Name="x^H2O_n" NumberOfComponents="1" format="ascii">
          1e-10 1e-10 1e-10 1e-10 1e-10 1e-10 1e-10 1e-10 1e-10 1e-10 1e-10 1e-10
          1e-10 1e-10 1e-10 1e-10 1e-10 1e-10 1e-10 1e-10 1e-10 1e-10 1e-10 1e-10
          1e-10 1e-10 1e-10 1e-10 1e-10 1e-10 1e-10 1e-10 1e-10 1e-10 1e-10 1e-10
          1e-10 1e-10 1e-10 1e-10 1e-10 1e-10 1e-10 1e-10 1e-10 1e-10 1e-10 1e-10
          1e-10 1e-10 1e-10 1e-10 1e-10 1e-10 1e-10 1e-10 1e-10 1e-10 1e-10 1e-10
          1e-10 1e-10 1e-10 1e-10 1e-10 1e-10 1e-10 1e-10 1e-10 1e-10 1e-10 1e-10
          1e-10 1e-10 1e-10 1e-10 1e-10 1e-10 1e-10 1e-10 1e-10 1e-10 1e-10 1e-10
          1e-10 1e-10 1e-10 1e-10 1e-10 1e-10 1e-10 1e-10 1e-10 1e-10 1e-10 1e-10