<?xml version="1.0"?>
<VTKFile type="UnstructuredGrid" version="0.1" byte_order="LittleEndian">
  <UnstructuredGrid>
    <Piece NumberOfCells="120" NumberOfPoints="242">
      <CellData Scalars="Sw">
        <DataArray type="Float32" Name="Sw" NumberOfComponents="1" format="ascii">
          0.005 0.005 0.005 0.005 0.005 0.005 0.005 0.005 0.005 0.005 0.005 0.005
          0.005 0.005 0.005 0.005 0.005 0.005 0.005 0.005 0.005 0.005 0.005 0.005
          0.005 0.005 0.005 0.005 0.005 0.005 0.005 0.005 0.005 0.005 0.005 0.005
          0.005 0.005 0.005 0.005 0.005 0.005 0.005 0.005 0.005 0.005 0.005 0.005
          0.005 0.005 0.005 0.005 0.005 0.005 0.005 0.005 0.005 0.005 0.005 0.005
          0.005 0.005 0.005 0.005 0.005 0.005 0.005 0.005 0.005 0.005 0.005 0.005
          0.005 0.005 0.005 0.005 0.005 0.005 0.005 0.005 0.005 0.005 0.005 0.005
          0.005 0.005 0.005 0.005 0.005 0.00499997 0.00499998 0.00499999 0.00499999 0.00499999 0.00499999 0.005
          0.005 0.005 0.00500001 0.00500001 0.00500001 0.00500001 0.00500001 0.00500001 0.00500001 0.00500001 0.00500001 0.00500001
          0.00500001 0.00500001 0.00500001 0.00500001 0.00500002 0.00500009 0.00500083 0.00500993 0.00561012 0.0592896 0.121402 0.155381
        </DataArray>
        <DataArray type="Float32" Name="Sn" NumberOfComponents="1" format="ascii">
          0.0001 0.0001 0.0001 0.0001 9.99999e-05 9.99999e-05 9.99998e-05 9.99998e-05 9.99997e-05 9.99996e-05 9.99996e-05 9.99995e-05
          9.99995e-05 9.99994e-05 9.99993e-05 9.99993e-05 9.99992e-05 9.99992e-05 9.99991e-05 9.9999e-05 9.9999e-05 9.99989e-05 9.99989e-05 9.99988e-05
          9.99987e-05 9.99987e-05 9.99986e-05 9.99986e-05 9.99985e-05 9.99984e-05 9.99984e-05 9.99983e-05 9.99983e-05 9.99982e-05 9.99981e-05 9.99981e-05
          9.9998e-05 9.9998e-05 9.99979e-05 9.99978e-05 9.99978e-05 9.99977e-05 9.99977e-05 9.99976e-05 9.99975e-05 9.99975e-05 9.99974e-05 9.99974e-05
          9.99973e-05 9.99973e-05 9.99972e-05 9.99971e-05 9.99971e-05 9.9997e-05 9.9997e-05 9.99969e-05 9.99968e-05 9.99968e-05 9.99967e-05 9.99967e-05
          9.99966e-05 9.99965e-05 9.99965e-05 9.99964e-05 9.99964e-05 9.99963e-05 9.99962e-05 9.99962e-05 9.99961e-05 9.99961e-05 9.9996e-05 9.99959e-05
          9.99959e-05 9.99958e-05 9.99958e-05 9.99957e-05 9.99956e-05 9.99956e-05 9.99955e-05 9.99955e-05 9.99954e-05 9.99953e-05 9.99953e-05 9.99952e-05
          9.99952e-05 9.99951e-05 9.9995e-05 9.9995e-05 9.99949e-05 9.99178e-05 0.903255 0.876181 0.846685 0.81483 0.780783 0.74475
          0.70693 0.667484 0.626511 0.58404 0.540038 0.494442 0.447239 0.398636 0.349386 0.301358 0.258189 0.224688
          0.202149 0.186285 0.173435 0.162081 0.151753 0.142525 0.13393 0.127376 0.163596 0.177189 0.0639364 0
        </DataArray>
        <DataArray type="Float32" Name="Sg" NumberOfComponents="1" format="ascii">
          0.9949 0.9949 0.9949 0.9949 0.9949 0.9949 0.9949 0.9949 0.9949 0.9949 0.9949 0.9949
          0.9949 0.9949 0.9949 0.9949 0.9949 0.9949 0.9949 0.9949 0.9949 0.9949 0.9949 0.9949
          0.9949 0.9949 0.9949 0.9949 0.9949 0.9949 0.9949 0.9949 0.9949 0.9949 0.9949 0.9949
          0.9949 0.9949 0.9949 0.9949 0.9949 0.9949 0.9949 0.9949 0.9949 0.9949 0.9949 0.9949
          0.9949 0.9949 0.9949 0.9949 0.9949 0.9949 0.9949 0.9949 0.9949 0.9949 0.9949 0.9949
          0.9949 0.9949 0.9949 0.9949 0.9949 0.9949 0.9949 0.9949 0.9949 0.9949 0.9949 0.9949
          0.9949 0.9949 0.9949 0.9949 0.9949 0.9949 0.9949 0.9949 0.9949 0.9949 0.9949 0.9949
          0.9949 0.9949 0.9949 0.9949 0.9949 0.9949 0.0917451 0.118819 0.148315 0.18017 0.214217 0.25025
          0.28807 0.327516 0.368489 0.41096 0.454962 0.500558 0.547761 0.596364 0.645614 0.693642 0.736811 0.770312
          0.792851 0.808715 0.821565 0.832919 0.843247 0.852475 0.861069 0.867614 0.830794 0.763522 0.814662 0.844619
        </DataArray>
        <DataArray type="Float32" Name="pw" NumberOfComponents="1" format="ascii">
          99987.2 99987 99986.9 99986.8 99986.7 99986.6 99986.5 99986.3 99986.2 99986.1 99986 99985.9
          99985.8 99985.6 99985.5 99985.4 99985.3 99985.2 99985.1 99984.9 99984.8 99984.7 99984.6 99984.5
          99984.4 99984.2 99984.1 99984 99983.9 99983.8 99983.7 99983.5 99983.4 99983.3 99983.2 99983.1
          99983 99982.8 99982.7 99982.6 99982.5 99982.4 99982.3 99982.1 99982 99981.9 99981.8 99981.7
          99981.6 99981.4 99981.3 99981.2 99981.1 99981 99980.9 99980.7 99980.6 99980.5 99980.4 99980.3
          99980.2 99980 99979.9 99979.8 99979.7 99979.6 99979.5 99979.3 99979.2 99979.1 99979 99978.9
          99978.8 99978.6 99978.5 99978.4 99978.3 99978.2 99978.1 99977.9 99977.8 99977.7 99977.6 99977.5
          99977.4 99977.2 99977.1 99977 99976.9 99976.8 85488.5 85403.9 85318.7 85232.5 85144.9 85055.3
          84962.7 84866.2 84764.1 84654.3 84534 84399.1 84243.6 84059.2 83834.6 83556.8 83222.2 82861.9
          82529.9 82221.5 81897.7 81522.7 81060.4 80472.3 79624.3 78528.7 81603.5 82963.8 84736.7 94333.7
        </DataArray>
        <DataArray type="Float32" Name="pn" NumberOfComponents="1" format="ascii">
          99987.2 99987 99986.9 99986.8 99986.7 99986.6 99986.5 99986.3 99986.2 99986.1 99986 99985.9
          99985.8 99985.6 99985.5 99985.4 99985.3 99985.2 99985.1 99984.9 99984.8 99984.7 99984.6 99984.5
          99984.4 99984.2 99984.1 99984 99983.9 99983.8 99983.7 99983.5 99983.4 99983.3 99983.2 99983.1
          99983 99982.8 99982.7 99982.6 99982.5 99982.4 99982.3 99982.1 99982 99981.9 99981.8 99981.7
          99981.6 99981.4 99981.3 99981.2 99981.1 99981 99980.9 99980.7 99980.6 99980.5 99980.4 99980.3
          99980.2 99980 99979.9 99979.8 99979.7 99979.6 99979.5 99979.3 99979.2 99979.1 99979 99978.9
          99978.8 99978.6 99978.5 99978.4 99978.3 99978.2 99978.1 99977.9 99977.8 99977.7 99977.6 99977.5
          99977.4 99977.2 99977.1 99977 99976.9 99976.8 98740.3 98655.7 98570.5 98484.3 98396.7 98307
          98214.5 98118 98015.9 97906.1 97785.8 97650.9 97495.4 97311 97086.3 96808.6 96474 96113.7
          95781.6 95473.2 95149.5 94774.5 94312.2 93724.1 92876.1 91780.4 94855.3 96215.6 92813.7 94333.7
        </DataArray>
        <DataArray type="Float32" Name="pg" NumberOfComponents="1" format="ascii">
          100000 99999.9 99999.8 99999.6 99999.5 99999.4 99999.3 99999.2 99999.1 99999 99998.8 99998.7
          99998.6 99998.5 99998.4 99998.2 99998.1 99998 99997.9 99997.8 99997.7 99997.5 99997.4 99997.3
          99997.2 99997.1 99997 99996.9 99996.7 99996.6 99996.5 99996.4 99996.3 99996.1 99996 99995.9
          99995.8 99995.7 99995.6 99995.4 99995.3 99995.2 99995.1 99995 99994.9 99994.8 99994.6 99994.5
          99994.4 99994.3 99994.2 99994 99993.9 99993.8 99993.7 99993.6 99993.5 99993.3 99993.2 99993.1
          99993 99992.9 99992.8 99992.6 99992.5 99992.4 99992.3 99992.2 99992.1 99991.9 99991.8 99991.7
          99991.6 99991.5 99991.4 99991.2 99991.1 99991 99990.9 99990.8 99990.7 99990.5 99990.4 99990.3
          99990.2 99990.1 99990 99989.8 99989.7 99989.6 100001 100015 100024 100031 100035 100039
          100042 100044 100046 100047 100049 100050 100051 100051 100052 100053 100053 100054
          100054 100054 100055 100055 100056 100056 100056 100057 100057 100072 100281 100388
        </DataArray>
        <DataArray type="Float32" Name="rhow" NumberOfComponents="1" format="ascii">
          997.662 997.662 997.662 997.662 997.662 997.662 997.662 997.662 997.662 997.662 997.662 997.662
          997.662 997.662 997.662 997.662 997.662 997.662 997.662 997.662 997.662 997.662 997.662 997.662
          997.662 997.662 997.662 997.662 997.662 997.662 997.662 997.662 997.662 997.662 997.662 997.662
          997.662 997.662 997.662 997.662 997.662 997.662 997.662 997.662 997.662 997.662 997.662 997.662
          997.662 997.662 997.662 997.662 997.662 997.662 997.662 997.662 997.662 997.662 997.662 997.662
          997.662 997.662 997.662 997.662 997.662 997.662 997.662 997.662 997.662 997.662 997.662 997.662
          997.662 997.662 997.662 997.662 997.662 997.662 997.662 997.662 997.662 997.662 997.662 997.662
          997.662 997.662 997.662 997.662 997.662 997.662 997.655 997.655 997.655 997.655 997.655 997.655
          997.655 997.655 997.655 997.655 997.655 997.654 997.654 997.654 997.654 997.654 997.654 997.654
          997.654 997.654 997.653 997.653 997.653 997.649 997.617 997.31 993.931 968.616 966.769 958.574
        </DataArray>
        <DataArray type="Float32" Name="rhon" NumberOfComponents="1" format="ascii">
          860.465 860.465 860.465 860.465 860.465 860.465 860.465 860.465 860.465 860.465 860.465 860.465
          860.465 860.465 860.465 860.465 860.465 860.465 860.465 860.465 860.465 860.465 860.465 860.465
          860.465 860.465 860.465 860.465 860.465 860.465 860.465 860.465 860.465 860.465 860.465 860.465
          860.465 860.465 860.465 860.465 860.465 860.465 860.465 860.465 860.465 860.465 860.465 860.465
          860.465 860.465 860.465 860.465 860.465 860.465 860.465 860.465 860.465 860.465 860.465 860.465
          860.465 860.465 860.465 860.465 860.465 860.465 860.465 860.465 860.465 860.465 860.465 860.465
          860.465 860.465 860.465 860.465 860.465 860.465 860.465 860.465 860.465 860.465 860.465 860.465
          860.465 860.465 860.465 860.465 860.465 860.465 860.465 860.465 860.465 860.465 860.465 860.465
          860.465 860.465 860.465 860.465 860.465 860.465 860.465 860.465 860.465 860.465 860.465 860.465
          860.465 860.465 860.465 860.465 860.464 860.452 860.332 859.181 849.18 801.199 798.168 791.091
        </DataArray>
        <DataArray type="Float32" Name="rhog" NumberOfComponents="1" format="ascii">
          1.19439 1.19439 1.19439 1.19439 1.19439 1.19438 1.19438 1.19438 1.19438 1.19438 1.19438 1.19438
          1.19437 1.19437 1.19437 1.19437 1.19437 1.19437 1.19437 1.19437 1.19436 1.19436 1.19436 1.19436
          1.19436 1.19436 1.19436 1.19435 1.19435 1.19435 1.19435 1.19435 1.19435 1.19435 1.19434 1.19434
          1.19434 1.19434 1.19434 1.19434 1.19434 1.19433 1.19433 1.19433 1.19433 1.19433 1.19433 1.19433
          1.19433 1.19432 1.19432 1.19432 1.19432 1.19432 1.19432 1.19432 1.19431 1.19431 1.19431 1.19431
          1.19431 1.19431 1.19431 1.1943 1.1943 1.1943 1.1943 1.1943 1.1943 1.1943 1.1943 1.19429
          1.19429 1.19429 1.19429 1.19429 1.19429 1.19429 1.19428 1.19428 1.19428 1.19428 1.19428 1.19428
          1.19428 1.19427 1.19427 1.19427 1.19427 1.19427 1.19441 1.19457 1.19467 1.19475 1.19481 1.19485
          1.19488 1.19491 1.19493 1.19495 1.19496 1.19498 1.19499 1.195 1.195 1.19501 1.19502 1.19502
          1.19503 1.19503 1.19504 1.19504 1.19504 1.19501 1.1946 1.19076 1.16328 1.26367 1.2902 0.592509
        </DataArray>
        <DataArray type="Float32" Name="x^w_H2O" NumberOfComponents="1" format="ascii">
          0.99996 0.99996 0.99996 0.99996 0.99996 0.99996 0.99996 0.99996 0.99996 0.99996 0.99996 0.99996
          0.99996 0.99996 0.99996 0.99996 0.99996 0.99996 0.99996 0.99996 0.99996 0.99996 0.99996 0.99996
          0.99996 0.99996 0.99996 0.99996 0.99996 0.99996 0.99996 0.99996 0.99996 0.99996 0.99996 0.99996
          0.99996 0.99996 0.99996 0.99996 0.99996 0.99996 0.99996 0.99996 0.99996 0.99996 0.99996 0.99996
          0.99996 0.99996 0.99996 0.99996 0.99996 0.99996 0.99996 0.99996 0.99996 0.99996 0.99996 0.99996
          0.99996 0.99996 0.99996 0.99996 0.99996 0.99996 0.99996 0.99996 0.99996 0.99996 0.99996 0.99996
          0.99996 0.99996 0.99996 0.99996 0.99996 0.99996 0.99996 0.99996 0.99996 0.99996 0.99996 0.99996
          0.99996 0.99996 0.99996 0.99996 0.99996 0.99996 0.99996 0.99996 0.99996 0.99996 0.99996 0.99996
          0.99996 0.99996 0.99996 0.99996 0.99996 0.99996 0.99996 0.99996 0.99996 0.99996 0.99996 0.99996
          0.99996 0.99996 0.99996 0.99996 0.99996 0.99996 0.99996 0.999958 0.999934 0.999433 0.999365 1
        </DataArray>
        <DataArray type="Float32" Name="x^w_xylene" NumberOfComponents="1" format="ascii">
          2.62566e-05 2.62566e-05 2.62566e-05 2.62566e-05 2.62566e-05 2.62566e-05 2.62566e-05 2.62566e-05 2.62566e-05 2.62566e-05 2.62566e-05 2.62566e-05
          2.62566e-05 2.62566e-05 2.62566e-05 2.62566e-05 2.62566e-05 2.62566e-05 2.62566e-05 2.62566e-05 2.62566e-05 2.62566e-05 2.62566e-05 2.62566e-05
          2.62566e-05 2.62566e-05 2.62566e-05 2.62566e-05 2.62566e-05 2.62566e-05 2.62566e-05 2.62566e-05 2.62566e-05 2.62566e-05 2.62566e-05 2.62566e-05
          2.62566e-05 2.62566e-05 2.62566e-05 2.62566e-05 2.62566e-05 2.62566e-05 2.62566e-05 2.62566e-05 2.62566e-05 2.62566e-05 2.62566e-05 2.62566e-05
          2.62566e-05 2.62566e-05 2.62566e-05 2.62566e-05 2.62566e-05 2.62566e-05 2.62566e-05 2.62566e-05 2.62566e-05 2.62566e-05 2.62566e-05 2.62566e-05
          2.62566e-05 2.62566e-05 2.62566e-05 2.62566e-05 2.62566e-05 2.62566e-05 2.62566e-05 2.62566e-05 2.62566e-05 2.62566e-05 2.62566e-05 2.62566e-05
          2.62566e-05 2.62566e-05 2.62566e-05 2.62566e-05 2.62566e-05 2.62566e-05 2.62566e-05 2.62566e-05 2.62566e-05 2.62566e-05 2.62566e-05 2.62566e-05
          2.62566e-05 2.62566e-05 2.62566e-05 2.62566e-05 2.62566e-05 2.62566e-05 2.62565e-05 2.62564e-05 2.62565e-05 2.62565e-05 2.62566e-05 2.62566e-05
          2.62566e-05 2.62566e-05 2.62566e-05 2.62566e-05 2.62566e-05 2.62566e-05 2.62566e-05 2.62566e-05 2.62566e-05 2.62566e-05 2.62566e-05 2.62567e-05
          2.62567e-05 2.62567e-05 2.62567e-05 2.62569e-05 2.6259e-05 2.62806e-05 2.64991e-05 2.86785e-05 5.47287e-05 0.000565933 0.000635297 2.17307e-15
        </DataArray>
        <DataArray type="Float32" Name="x^w_Air" NumberOfComponents="1" format="ascii">
          1.37483e-05 1.37482e-05 1.37482e-05 1.37482e-05 1.37482e-05 1.37482e-05 1.37482e-05 1.37481e-05 1.37481e-05 1.37481e-05 1.37481e-05 1.37481e-05
          1.37481e-05 1.3748e-05 1.3748e-05 1.3748e-05 1.3748e-05 1.3748e-05 1.3748e-05 1.37479e-05 1.37479e-05 1.37479e-05 1.37479e-05 1.37479e-05
          1.37479e-05 1.37478e-05 1.37478e-05 1.37478e-05 1.37478e-05 1.37478e-05 1.37478e-05 1.37477e-05 1.37477e-05 1.37477e-05 1.37477e-05 1.37477e-05
          1.37477e-05 1.37476e-05 1.37476e-05 1.37476e-05 1.37476e-05 1.37476e-05 1.37476e-05 1.37475e-05 1.37475e-05 1.37475e-05 1.37475e-05 1.37475e-05
          1.37475e-05 1.37474e-05 1.37474e-05 1.37474e-05 1.37474e-05 1.37474e-05 1.37474e-05 1.37473e-05 1.37473e-05 1.37473e-05 1.37473e-05 1.37473e-05
          1.37473e-05 1.37472e-05 1.37472e-05 1.37472e-05 1.37472e-05 1.37472e-05 1.37472e-05 1.37471e-05 1.37471e-05 1.37471e-05 1.37471e-05 1.37471e-05
          1.37471e-05 1.3747e-05 1.3747e-05 1.3747e-05 1.3747e-05 1.3747e-05 1.3747e-05 1.37469e-05 1.37469e-05 1.37469e-05 1.37469e-05 1.37469e-05
          1.37469e-05 1.37468e-05 1.37468e-05 1.37468e-05 1.37468e-05 1.37468e-05 1.37485e-05 1.37504e-05 1.37517e-05 1.37526e-05 1.37533e-05 1.37538e-05
          1.37542e-05 1.37545e-05 1.37548e-05 1.3755e-05 1.37552e-05 1.37554e-05 1.37555e-05 1.37556e-05 1.37557e-05 1.37558e-05 1.37559e-05 1.37559e-05
          1.3756e-05 1.3756e-05 1.37561e-05 1.37561e-05 1.37558e-05 1.37523e-05 1.37163e-05 1.33808e-05 1.10049e-05 1.02505e-06 2.61428e-11 2.70902e-11
        </DataArray>
        <DataArray type="Float32" Name="x^n_H2O" NumberOfComponents="1" format="ascii">
          1e-10 1e-10 1e-10 1e-10 1e-10 1e-10 1e-10 1e-10 1e-10 1e-10 1e-10 1e-10
          1e-10 1e-10 1e-10 1e-10 1e-10 1e-10 1e-10 1e-10 1e-10 1e-10 1e-10 1e-10
          1e-10 1e-10 1e-10 1e-10 1e-10 1e-10 1e-10 1e-10 1e-10 1e-10 1e-10 1e-10
          1e-10 1e-10 1e-10 1e-10 1e-10 1e-10 1e-10 1e-10 1e-10 1e-10 1e-10 1e-10
          1e-10 1e-10 1e-10 1e-10 1e-10 1e-10 1e-10 1e-10 1e-10 1e-10 1e-10 1e-10
          1e-10 1e-10 1e-10 1e-10 1e-10 1e-10 1e-10 1e-10 1e-10 1e-10 1e-10 1e-10
          1e-10 1e-10 1e-10 1e-10 1e-10 1e-10 1e-10 1e-10 1e-10 1e-10 1e-10 1e-10
          1e-10 1e-10 1e-10 1e-10 1e-10 1e-10 1e-10 1e-10 1e-10 1e-10 1e-10 1e-10
          1e-10 1e-10 1e-10 1e-10 1e-10 1e-10 1e-10 1e-10 1e-10 1e-10 1e-10 1e-10
          1e-10 1e-10 1e-10 1e-10 1e-10 1e-10 1e-10 1e-10 1e-10 1e-10 1e-10 1e-10
        </DataArray>
        <DataArray type="Float32" Name="x^n_xylene" NumberOfComponents="1" format="ascii">
          1 1 1 1 1 1 1 1 1 1 1 1
          1 1 1 1 1 1 1 1 1 1 1 1
          1 1 1 1 1 1 1 1 1 1 1 1
          1 1 1 1 1 1 1 1 1 1 1 1
          1 1 1 1 1 1 1 1 1 1 1 1
          1 1 1 1 1 1 1 1 1 1 1 1
          1 1 1 1 1 1 1 1 1 1 1 1
          1 1 1 1 1 1 1 1 1 1 1 1
          1 1 1 1 1 1 1 1 1 1 1 1
          1 1 1 1 1 1 1 1 1 1 1 2.64147e-12
        </DataArray>
        <DataArray type="Float32" Name="x^n_Air" NumberOfComponents="1" format="ascii">
          1e-10 1e-10 1e-10 1e-10 1e-10 1e-10 1e-10 1e-10 1e-10 1e-10 1e-10 1e-10
          1e-10 1e-10 1e-10 1e-10 1e-10 1e-10 1e-10 1e-10 1e-10 1e-10 1e-10 1e-10
          1e-10 1e-10 1e-10 1e-10 1e-10 1e-10 1e-10 1e-10 1e-10 1e-10 1e-10 1e-10
          1e-10 1e-10 1e-10 1e-10 1e-10 1e-10 1e-10 1e-10 1e-10 1e-10 1e-10 1e-10
          1e-10 1e-10 1e-10 1e-10 1e-10 1e-10 1e-10 1e-10 1e-10 1e-10 1e-10 1e-10
          1e-10 1e-10 1e-10 1e-10 1e-10 1e-10 1e-10 1e-10 1e-10 1e-10 1e-10 1e-10
          1e-10 1e-10 1e-10 1e-10 1e-10 1e-10 1e-10 1e-10 1e-10 1e-10 1e-10 1e-10
          1e-10 1e-10 1e-10 1e-10 1e-10 1e-10 1e-10 1e-10 1e-10 1e-10 1e-10 1e-10
          1e-10 1e-10 1e-10 1e-10 1e-10 1e-10 1e-10 1e-10 1e-10 1e-10 1e-10 1e-10
          1e-10 1e-10 1e-10 1e-10 1e-10 1e-10 1e-10 1e-10 1e-10 1e-10 1e-10 1e-10
        </DataArray>
        <DataArray type="Float32" Name="x^g_H2O" NumberOfComponents="1" format="ascii">
          0.0282497 0.0282498 0.0282498 0.0282498 0.0282499 0.0282499 0.0282499 0.02825 0.02825 0.02825 0.0282501 0.0282501
          0.0282501 0.0282502 0.0282502 0.0282502 0.0282503 0.0282503 0.0282503 0.0282504 0.0282504 0.0282504 0.0282505 0.0282505
          0.0282505 0.0282506 0.0282506 0.0282506 0.0282507 0.0282507 0.0282507 0.0282508 0.0282508 0.0282508 0.0282509 0.0282509
          0.0282509 0.028251 0.028251 0.028251 0.0282511 0.0282511 0.0282511 0.0282512 0.0282512 0.0282512 0.0282513 0.0282513
          0.0282513 0.0282513 0.0282514 0.0282514 0.0282514 0.0282515 0.0282515 0.0282515 0.0282516 0.0282516 0.0282516 0.0282517
          0.0282517 0.0282517 0.0282518 0.0282518 0.0282518 0.0282519 0.0282519 0.0282519 0.028252 0.028252 0.028252 0.0282521
          0.0282521 0.0282521 0.0282522 0.0282522 0.0282522 0.0282523 0.0282523 0.0282523 0.0282524 0.0282524 0.0282524 0.0282525
          0.0282525 0.0282525 0.0282526 0.0282526 0.0282526 0.0282527 0.0282492 0.0282453 0.0282428 0.028241 0.0282397 0.0282387
          0.0282379 0.0282373 0.0282368 0.0282364 0.028236 0.0282357 0.0282354 0.0282352 0.028235 0.0282349 0.0282347 0.0282346
          0.0282345 0.0282344 0.0282343 0.0282344 0.0282366 0.0282601 0.0284973 0.0307764 0.0597457 0.6771 0.762516 0.999997
        </DataArray>
        <DataArray type="Float32" Name="x^g_xylene" NumberOfComponents="1" format="ascii">
          0.00984259 0.0098426 0.00984261 0.00984262 0.00984264 0.00984265 0.00984266 0.00984267 0.00984268 0.00984269 0.0098427 0.00984272
          0.00984273 0.00984274 0.00984275 0.00984276 0.00984277 0.00984279 0.0098428 0.00984281 0.00984282 0.00984283 0.00984284 0.00984285
          0.00984287 0.00984288 0.00984289 0.0098429 0.00984291 0.00984292 0.00984293 0.00984295 0.00984296 0.00984297 0.00984298 0.00984299
          0.009843 0.00984302 0.00984303 0.00984304 0.00984305 0.00984306 0.00984307 0.00984308 0.0098431 0.00984311 0.00984312 0.00984313
          0.00984314 0.00984315 0.00984316 0.00984318 0.00984319 0.0098432 0.00984321 0.00984322 0.00984323 0.00984325 0.00984326 0.00984327
          0.00984328 0.00984329 0.0098433 0.00984331 0.00984333 0.00984334 0.00984335 0.00984336 0.00984337 0.00984338 0.00984339 0.00984341
          0.00984342 0.00984343 0.00984344 0.00984345 0.00984346 0.00984347 0.00984349 0.0098435 0.00984351 0.00984352 0.00984353 0.00984354
          0.00984356 0.00984357 0.00984358 0.00984359 0.0098436 0.00984361 0.00984239 0.00984105 0.00984016 0.00983955 0.00983909 0.00983875
          0.00983848 0.00983826 0.00983808 0.00983793 0.0098378 0.00983769 0.0098376 0.00983752 0.00983746 0.00983741 0.00983737 0.00983733
          0.00983729 0.00983725 0.00983721 0.00983725 0.00983799 0.00984607 0.00992789 0.0107444 0.0205039 0.211993 0.237481 8.11455e-13
        </DataArray>
        <DataArray type="Float32" Name="x^g_Air" NumberOfComponents="1" format="ascii">
          0.961908 0.961908 0.961908 0.961908 0.961908 0.961907 0.961907 0.961907 0.961907 0.961907 0.961907 0.961907
          0.961907 0.961907 0.961907 0.961907 0.961907 0.961907 0.961907 0.961907 0.961907 0.961907 0.961907 0.961907
          0.961907 0.961907 0.961906 0.961906 0.961906 0.961906 0.961906 0.961906 0.961906 0.961906 0.961906 0.961906
          0.961906 0.961906 0.961906 0.961906 0.961906 0.961906 0.961906 0.961906 0.961906 0.961906 0.961906 0.961906
          0.961906 0.961905 0.961905 0.961905 0.961905 0.961905 0.961905 0.961905 0.961905 0.961905 0.961905 0.961905
          0.961905 0.961905 0.961905 0.961905 0.961905 0.961905 0.961905 0.961905 0.961905 0.961905 0.961905 0.961905
          0.961904 0.961904 0.961904 0.961904 0.961904 0.961904 0.961904 0.961904 0.961904 0.961904 0.961904 0.961904
          0.961904 0.961904 0.961904 0.961904 0.961904 0.961904 0.961908 0.961914 0.961917 0.961919 0.961921 0.961923
          0.961924 0.961924 0.961925 0.961926 0.961926 0.961927 0.961927 0.961927 0.961928 0.961928 0.961928 0.961928
          0.961928 0.961928 0.961928 0.961928 0.961925 0.961894 0.961575 0.958479 0.91975 0.110907 2.83453e-06 2.95697e-06
        </DataArray>
        <DataArray type="Float32" Name="porosity" NumberOfComponents="1" format="ascii">
          0.46 0.46 0.46 0.46 0.46 0.46 0.46 0.46 0.46 0.46 0.46 0.46
          0.46 0.46 0.46 0.46 0.46 0.46 0.46 0.46 0.46 0.46 0.46 0.46
          0.46 0.46 0.46 0.46 0.46 0.46 0.46 0.46 0.46 0.46 0.46 0.46
          0.46 0.46 0.46 0.46 0.46 0.46 0.46 0.46 0.46 0.46 0.46 0.46
          0.46 0.46 0.46 0.46 0.46 0.46 0.46 0.46 0.46 0.46 0.46 0.46
          0.46 0.46 0.46 0.46 0.46 0.46 0.46 0.46 0.46 0.46 0.46 0.46
          0.46 0.46 0.46 0.46 0.46 0.46 0.46 0.46 0.46 0.46 0.46 0.46
          0.46 0.46 0.46 0.46 0.46 0.46 0.46 0.46 0.46 0.46 0.46 0.46
          0.46 0.46 0.46 0.46 0.46 0.46 0.46 0.46 0.46 0.46 0.46 0.46
          0.46 0.46 0.46 0.46 0.46 0.46 0.46 0.46 0.46 0.46 0.46 0.46
        </DataArray>
        <DataArray type="Float32" Name="permeability" NumberOfComponents="1" format="ascii">
          1.4e-08 1.4e-08 1.4e-08 1.4e-08 1.4e-08 1.4e-08 1.4e-08 1.4e-08 1.4e-08 1.4e-08 1.4e-08 1.4e-08
          1.4e-08 1.4e-08 1.4e-08 1.4e-08 1.4e-08 1.4e-08 1.4e-08 1.4e-08 1.4e-08 1.4e-08 1.4e-08 1.4e-08
          1.4e-08 1.4e-08 1.4e-08 1.4e-08 1.4e-08 1.4e-08 1.4e-08 1.4e-08 1.4e-08 1.4e-08 1.4e-08 1.4e-08
          1.4e-08 1.4e-08 1.4e-08 1.4e-08 1.4e-08 1.4e-08 1.4e-08 1.4e-08 1.4e-08 1.4e-08 1.4e-08 1.4e-08
          1.4e-08 1.4e-08 1.4e-08 1.4e-08 1.4e-08 1.4e-08 1.4e-08 1.4e-08 1.4e-08 1.4e-08 1.4e-08 1.4e-08
          1.4e-08 1.4e-08 1.4e-08 1.4e-08 1.4e-08 1.4e-08 1.4e-08 1.4e-08 1.4e-08 1.4e-08 1.4e-08 1.4e-08
          1.4e-08 1.4e-08 1.4e-08 1.4e-08 1.4e-08 1.4e-08 1.4e-08 1.4e-08 1.4e-08 1.4e-08 1.4e-08 1.4e-08
          1.4e-08 1.4e-08 1.4e-08 1.4e-08 1.4e-08 1.4e-08 1.4e-11 1.4e-11 1.4e-11 1.4e-11 1.4e-11 1.4e-11
          1.4e-11 1.4e-11 1.4e-11 1.4e-11 1.4e-11 1.4e-11 1.4e-11 1.4e-11 1.4e-11 1.4e-11 1.4e-11 1.4e-11
          1.4e-11 1.4e-11 1.4e-11 1.4e-11 1.4e-11 1.4e-11 1.4e-11 1.4e-11 1.4e-11 1.4e-11 1.4e-11 1.4e-11
        </DataArray>
        <DataArray type="Float32" Name="temperature" NumberOfComponents="1" format="ascii">
          296.15 296.15 296.15 296.15 296.15 296.15 296.15 296.15 296.15 296.15 296.15 296.15
          296.15 296.15 296.15 296.15 296.15 296.15 296.15 296.15 296.15 296.15 296.15 296.15
          296.15 296.15 296.15 296.15 296.15 296.15 296.15 296.15 296.15 296.15 296.15 296.15
          296.15 296.15 296.15 296.15 296.15 296.15 296.15 296.15 296.15 296.15 296.15 296.15
          296.15 296.15 296.15 296.15 296.15 296.15 296.15 296.15 296.15 296.15 296.15 296.15
          296.15 296.15 296.15 296.15 296.15 296.15 296.15 296.15 296.15 296.15 296.15 296.15
          296.15 296.15 296.15 296.15 296.15 296.15 296.15 296.15 296.15 296.15 296.15 296.15
          296.15 296.15 296.15 296.15 296.15 296.15 296.15 296.15 296.15 296.15 296.15 296.15
          296.15 296.15 296.15 296.15 296.15 296.15 296.15 296.15 296.15 296.15 296.15 296.15
          296.15 296.15 296.15 296.15 296.151 296.165 296.305 297.645 309.195 362.197 365.407 372.834
        </DataArray>
        <DataArray type="Float32" Name="phase presence" NumberOfComponents="1" format="ascii">
          1 1 1 1 1 1 1 1 1 1 1 1
          1 1 1 1 1 1 1 1 1 1 1 1
          1 1 1 1 1 1 1 1 1 1 1 1
          1 1 1 1 1 1 1 1 1 1 1 1
          1 1 1 1 1 1 1 1 1 1 1 1
          1 1 1 1 1 1 1 1 1 1 1 1
          1 1 1 1 1 1 1 1 1 1 1 1
          1 1 1 1 1 1 1 1 1 1 1 1
          1 1 1 1 1 1 1 1 1 1 1 1
          1 1 1 1 1 1 1 1 1 1 1 6
        </DataArray>
        <DataArray type="Float32" Name="process rank" NumberOfComponents="1" format="ascii">
          0 0 0 0 0 0 0 0 0 0 0 0
          0 0 0 0 0 0 0 0 0 0 0 0
          0 0 0 0 0 0 0 0 0 0 0 0
          0 0 0 0 0 0 0 0 0 0 0 0
          0 0 0 0 0 0 0 0 0 0 0 0
          0 0 0 0 0 0 0 0 0 0 0 0
          0 0 0 0 0 0 0 0 0 0 0 0
          0 0 0 0 0 0 0 0 0 0 0 0
          0 0 0 0 0 0 0 0 0 0 0 0
          0 0 0 0 0 0 0 0 0 0 0 0
        </DataArray>
      </CellData>
      <Points>
        <DataArray type="Float32" Name="Coordinates" NumberOfComponents="3" format="ascii">
          0 0 0 0.1 0 0 0 0.01 0 0.1 0.01 0
          0 0.02 0 0.1 0.02 0 0 0.03 0 0.1 0.03 0
          0 0.04 0 0.1 0.04 0 0 0.05 0 0.1 0.05 0
          0 0.06 0 0.1 0.06 0 0 0.07 0 0.1 0.07 0
          0 0.08 0 0.1 0.08 0 0 0.09 0 0.1 0.09 0
          0 0.1 0 0.1 0.1 0 0 0.11 0 0.1 0.11 0
          0 0.12 0 0.1 0.12 0 0 0.13 0 0.1 0.13 0
          0 0.14 0 0.1 0.14 0 0 0.15 0 0.1 0.15 0
          0 0.16 0 0.1 0.16 0 0 0.17 0 0.1 0.17 0
          0 0.18 0 0.1 0.18 0 0 0.19 0 0.1 0.19 0
          0 0.2 0 0.1 0.2 0 0 0.21 0 0.1 0.21 0
          0 0.22 0 0.1 0.22 0 0 0.23 0 0.1 0.23 0
          0 0.24 0 0.1 0.24 0 0 0.25 0 0.1 0.25 0
          0 0.26 0 0.1 0.26 0 0 0.27 0 0.1 0.27 0
          0 0.28 0 0.1 0.28 0 0 0.29 0 0.1 0.29 0
          0 0.3 0 0.1 0.3 0 0 0.31 0 0.1 0.31 0
          0 0.32 0 0.1 0.32 0 0 0.33 0 0.1 0.33 0
          0 0.34 0 0.1 0.34 0 0 0.35 0 0.1 0.35 0
          0 0.36 0 0.1 0.36 0 0 0.37 0 0.1 0.37 0
          0 0.38 0 0.1 0.38 0 0 0.39 0 0.1 0.39 0
          0 0.4 0 0.1 0.4 0 0 0.41 0 0.1 0.41 0
          0 0.42 0 0.1 0.42 0 0 0.43 0 0.1 0.43 0
          0 0.44 0 0.1 0.44 0 0 0.45 0 0.1 0.45 0
          0 0.46 0 0.1 0.46 0 0 0.47 0 0.1 0.47 0
          0 0.48 0 0.1 0.48 0 0 0.49 0 0.1 0.49 0
          0 0.5 0 0.1 0.5 0 0 0.51 0 0.1 0.51 0
          0 0.52 0 0.1 0.52 0 0 0.53 0 0.1 0.53 0
          0 0.54 0 0.1 0.54 0 0 0.55 0 0.1 0.55 0
          0 0.56 0 0.1 0.56 0 0 0.57 0 0.1 0.57 0
          0 0.58 0 0.1 0.58 0 0 0.59 0 0.1 0.59 0
          0 0.6 0 0.1 0.6 0 0 0.61 0 0.1 0.61 0
          0 0.62 0 0.1 0.62 0 0 0.63 0 0.1 0.63 0
          0 0.64 0 0.1 0.64 0 0 0.65 0 0.1 0.65 0
          0 0.66 0 0.1 0.66 0 0 0.67 0 0.1 0.67 0
          0 0.68 0 0.1 0.68 0 0 0.69 0 0.1 0.69 0
          0 0.7 0 0.1 0.7 0 0 0.71 0 0.1 0.71 0
          0 0.72 0 0.1 0.72 0 0 0.73 0 0.1 0.73 0
          0 0.74 0 0.1 0.74 0 0 0.75 0 0.1 0.75 0
          0 0.76 0 0.1 0.76 0 0 0.77 0 0.1 0.77 0
          0 0.78 0 0.1 0.78 0 0 0.79 0 0.1 0.79 0
          0 0.8 0 0.1 0.8 0 0 0.81 0 0.1 0.81 0
          0 0.82 0 0.1 0.82 0 0 0.83 0 0.1 0.83 0
          0 0.84 0 0.1 0.84 0 0 0.85 0 0.1 0.85 0
          0 0.86 0 0.1 0.86 0 0 0.87 0 0.1 0.87 0
          0 0.88 0 0.1 0.88 0 0 0.89 0 0.1 0.89 0
          0 0.9 0 0.1 0.9 0 0 0.91 0 0.1 0.91 0
          0 0.92 0 0.1 0.92 0 0 0.93 0 0.1 0.93 0
          0 0.94 0 0.1 0.94 0 0 0.95 0 0.1 0.95 0
          0 0.96 0 0.1 0.96 0 0 0.97 0 0.1 0.97 0
          0 0.98 0 0.1 0.98 0 0 0.99 0 0.1 0.99 0
          0 1 0 0.1 1 0 0 1.01 0 0.1 1.01 0
          0 1.02 0 0.1 1.02 0 0 1.03 0 0.1 1.03 0
          0 1.04 0 0.1 1.04 0 0 1.05 0 0.1 1.05 0
          0 1.06 0 0.1 1.06 0 0 1.07 0 0.1 1.07 0
          0 1.08 0 0.1 1.08 0 0 1.09 0 0.1 1.09 0
          0 1.1 0 0.1 1.1 0 0 1.11 0 0.1 1.11 0
          0 1.12 0 0.1 1.12 0 0 1.13 0 0.1 1.13 0
          0 1.14 0 0.1 1.14 0 0 1.15 0 0.1 1.15 0
          0 1.16 0 0.1 1.16 0 0 1.17 0 0.1 1.17 0
          0 1.18 0 0.1 1.18 0 0 1.19 0 0.1 1.19 0
          0 1.2 0 0.1 1.2 0
        </DataArray>
      </Points>
      <Cells>
        <DataArray type="Int32" Name="connectivity" NumberOfComponents="1" format="ascii">
          0 1 3 2 2 3 5 4 4 5 7 6
          6 7 9 8 8 9 11 10 10 11 13 12
          12 13 15 14 14 15 17 16 16 17 19 18
          18 19 21 20 20 21 23 22 22 23 25 24
          24 25 27 26 26 27 29 28 28 29 31 30
          30 31 33 32 32 33 35 34 34 35 37 36
          36 37 39 38 38 39 41 40 40 41 43 42
          42 43 45 44 44 45 47 46 46 47 49 48
          48 49 51 50 50 51 53 52 52 53 55 54
          54 55 57 56 56 57 59 58 58 59 61 60
          60 61 63 62 62 63 65 64 64 65 67 66
          66 67 69 68 68 69 71 70 70 71 73 72
          72 73 75 74 74 75 77 76 76 77 79 78
          78 79 81 80 80 81 83 82 82 83 85 84
          84 85 87 86 86 87 89 88 88 89 91 90
          90 91 93 92 92 93 95 94 94 95 97 96
          96 97 99 98 98 99 101 100 100 101 103 102
          102 103 105 104 104 105 107 106 106 107 109 108
          108 109 111 110 110 111 113 112 112 113 115 114
          114 115 117 116 116 117 119 118 118 119 121 120
          120 121 123 122 122 123 125 124 124 125 127 126