<?xml version="1.0"?>
<VTKFile type="PolyData" version="0.1" byte_order="LittleEndian">
  <PolyData>
    <Piece NumberOfLines="199" NumberOfPoints="200">
      <PointData Scalars="S_w">
        <DataArray type="Float32" Name="S_w" NumberOfComponents="1" format="ascii">
          1 1 1 1 1 1 1 1 1 1 1 1
          1 1 1 1 1 1 1 1 1 1 1 1
          1 1 1 1 1 1 1 1 1 1 1 1
          1 1 1 1 1 1 1 1 1 1 1 1
          1 1 1 1 1 1 1 1 1 1 1 1
          1 1 1 1 1 1 1 1 1 1 1 1
          1 1 1 1 1 1 1 1 1 1 1 1
          1 0.892001 0.782712 0.707405 0.645213 0.588605 0.53415 0.480437 0.427439 0.375605 0.324586 0.27241
          0.214602 0.140417 0.0154366 0 0 0 0 0 0 0 0 0
          0 0 0 0 0 0 0 0 0 0 0 0
          0 0 0 0 0 0 0 0 0 0 0 0
          0 0 0 0 0 0 0 0 0 0 0 0
          0 0 0 0 0 0 0 0 0 0 0 0
          0 0 0 0 0 0 0 0 0 0 0 0
          0 0 0 0.00175038 0.00175116 0.00175043 0.00174967 0.00174887 0.00174802 0.00174714 0.00174622 0.00174525
          0.00174424 0.00174318 0.00174207 0.0017409 0.00173967 0.00173837 0.00173698 0.00173545 0.00173368 0.00173144 0.00172822 0.00172292
          0.00171331 0.00169523 0.00166161 0.00160183 0.00150206 0.00134824 0.00114112 0.001
        </DataArray>
        <DataArray type="Float32" Name="S_n" NumberOfComponents="1" format="ascii">
          0 0 0 0 0 0 0 0 0 0 0 0
          0 0 0 0 0 0 0 0 0 0 0 0
          0 0 0 0 0 0 0 0 0 0 0 0
          0 0 0 0 0 0 0 0 0 0 0 0
          0 0 0 0 0 0 0 0 0 0 0 0
          0 0 0 0 0 0 0 0 0 0 0 0
          0 0 0 0 0 0 0 0 0 0 0 0
          0 0.107999 0.217288 0.292595 0.354787 0.411395 0.46585 0.519563 0.572561 0.624395 0.675414 0.72759
          0.785398 0.859583 0.984563 1 1 1 1 1 1 1 1 1
          1 1 1 1 1 1 1 1 1 1 1 1
          1 1 1 1 1 1 1 1 1 1 1 1
          1 1 1 1 1 1 1 1 1 1 1 1
          1 1 1 1 1 1 1 1 1 1 1 1
          1 1 1 1 1 1 1 1 1 1 1 1
          1 1 1 0.99825 0.998249 0.99825 0.99825 0.998251 0.998252 0.998253 0.998254 0.998255
          0.998256 0.998257 0.998258 0.998259 0.99826 0.998262 0.998263 0.998265 0.998266 0.998269 0.998272 0.998277
          0.998287 0.998305 0.998338 0.998398 0.998498 0.998652 0.998859 0.999
        </DataArray>
        <DataArray type="Float32" Name="p_w" NumberOfComponents="1" format="ascii">
          100295 100284 100273 100262 100251 100240 100229 100218 100207 100196 100185 100174
          100163 100152 100141 100130 100119 100108 100097 100086 100074 100063 100052 100041
          100030 100019 100008 99997.2 99986.2 99975.1 99964.1 99953.1 99942 99931 99920 99908.9
          99897.9 99886.8 99875.8 99864.8 99853.7 99842.7 99831.6 99820.6 99809.6 99798.5 99787.5 99776.5
          99765.4 99754.4 99743.3 99732.3 99721.3 99710.2 99699.2 99688.2 99677.1 99666.1 99655 99644
          99633 99621.9 99610.9 99599.9 99588.8 99577.8 99566.7 99555.7 99544.7 99533.6 99522.6 99511.5
          99500.5 99489.5 99478.4 99467.4 99456.4 99445.3 99434.3 99423.2 99412.2 99401.2 99390.1 99379.1
          99368 99357 99345.5 99333.4 99320.6 99307 99292.4 99276.2 99257.9 99236.1 99208.9 99172.5
          99118.6 99022.5 98771.3 98710.7 98700.1 98700 98699.9 98699.8 98699.7 98699.6 98699.5 98699.3
          98699.2 98699.1 98698.9 98698.8 98698.6 98698.4 98698.3 98698.1 98697.9 98697.7 98697.5 98697.3
          98697 98696.8 98696.5 98696.3 98696 98695.7 98695.4 98695.1 98694.7 98694.4 98694 98693.6
          98693.2 98692.8 98692.3 98691.9 98691.4 98690.9 98690.3 98689.8 98689.2 98688.6 98687.9 98687.2
          98686.5 98685.8 98685 98684.2 98683.3 98682.4 98681.5 98680.5 98679.5 98678.4 98677.3 98676.1
          98674.8 98673.5 98672.2 98670.8 98669.2 98667.7 98666 98664.3 98662.5 98660.6 98658.6 98656.6
          98654.4 98652.1 98649.7 98651.7 98649.1 98646.4 98643.5 98640.5 98637.3 98634 98630.5 98626.9
          98623.1 98619.1 98614.9 98610.5 98606 98601.1 98596.1 98590.8 98585.3 98579.5 98573.4 98567.1
          98560.4 98553.4 98546 98538.1 98529.9 98521.1 98511.7 98502.1
        </DataArray>
        <DataArray type="Float32" Name="p_n" NumberOfComponents="1" format="ascii">
          100295 100284 100273 100262 100251 100240 100229 100218 100207 100196 100185 100174
          100163 100152 100141 100130 100119 100108 100097 100086 100074 100063 100052 100041
          100030 100019 100008 99997.2 99986.2 99975.1 99964.1 99953.1 99942 99931 99920 99908.9
          99897.9 99886.8 99875.8 99864.8 99853.7 99842.7 99831.6 99820.6 99809.6 99798.5 99787.5 99776.5
          99765.4 99754.4 99743.3 99732.3 99721.3 99710.2 99699.2 99688.2 99677.1 99666.1 99655 99644
          99633 99621.9 99610.9 99599.9 99588.8 99577.8 99566.7 99555.7 99544.7 99533.6 99522.6 99511.5
          99500.5 99489.5 99478.4 99467.4 99456.4 99445.3 99434.3 99423.2 99412.2 99401.2 99390.1 99379.1
          99368 99705 99937 100043 100104 100143 100170 100190 100205 100216 100225 100231
          100236 100238 100233 100211 100201 100200 100200 100200 100200 100200 100200 100200
          100200 100200 100199 100199 100199 100199 100199 100199 100198 100198 100198 100198
          100197 100197 100197 100197 100196 100196 100196 100196 100195 100195 100194 100194
          100194 100193 100193 100192 100192 100191 100191 100190 100190 100189 100188 100188
          100187 100186 100185 100185 100184 100183 100182 100181 100180 100179 100178 100177
          100175 100174 100173 100171 100170 100168 100166 100165 100163 100161 100159 100157
          100155 100153 100150 100148 100145 100142 100139 100136 100133 100130 100126 100123
          100119 100115 100111 100107 100102 100097 100092 100087 100081 100075 100069 100063
          100056 100049 100042 100034 100026 100018 100009 100000
        </DataArray>
        <DataArray type="Float32" Name="rho_w" NumberOfComponents="1" format="ascii">
          1044 1044 1044 1044 1044 1044 1044 1044 1044 1044 1044 1044
          1044 1044 1044 1044 1044 1044 1044 1044 1044 1044 1044 1044
          1044 1044 1044 1044 1044 1044 1044 1044 1044 1044 1044 1044
          1044 1044 1044 1044 1044 1044 1044 1044 1044 1044 1044 1044
          1044 1044 1044 1044 1044 1044 1044 1044 1044 1044 1044 1044
          1044 1044 1044 1044 1044 1044 1044 1044 1044 1044 1044 1044
          1044 1044 1044 1044 1044 1044 1044 1044 1044 1044 1044 1044
          1044 1044 1044 1044 1044 1044 1044 1044 1044 1044 1044 1044
          1044 1044 1044 1044 1044 1044 1044 1044 1044 1044 1044 1044
          1044 1044 1044 1044 1044 1044 1044 1044 1044 1044 1044 1044
          1044 1044 1044 1044 1044 1044 1044 1044 1044 1044 1044 1044
          1044 1044 1044 1044 1044 1044 1044 1044 1044 1044 1044 1044
          1044 1044 1044 1044 1044 1044 1044 1044 1044 1044 1044 1044
          1044 1044 1044 1044 1044 1044 1044 1044 1044 1044 1044 1044
          1044 1044 1044 1044 1044 1044 1044 1044 1044 1044 1044 1044
          1044 1044 1044 1044 1044 1044 1044 1044 1044 1044 1044 1044
          1044 1044 1044 1044 1044 1044 1044 1044
        </DataArray>
        <DataArray type="Float32" Name="rho_n" NumberOfComponents="1" format="ascii">
          1.679 1.679 1.679 1.679 1.679 1.679 1.679 1.679 1.679 1.679 1.679 1.679
          1.679 1.679 1.679 1.679 1.679 1.679 1.679 1.679 1.679 1.679 1.679 1.679
          1.679 1.679 1.679 1.679 1.679 1.679 1.679 1.679 1.679 1.679 1.679 1.679
          1.679 1.679 1.679 1.679 1.679 1.679 1.679 1.679 1.679 1.679 1.679 1.679
          1.679 1.679 1.679 1.679 1.679 1.679 1.679 1.679 1.679 1.679 1.679 1.679
          1.679 1.679 1.679 1.679 1.679 1.679 1.679 1.679 1.679 1.679 1.679 1.679
          1.679 1.679 1.679 1.679 1.679 1.679 1.679 1.679 1.679 1.679 1.679 1.679
          1.679 1.679 1.679 1.679 1.679 1.679 1.679 1.679 1.679 1.679 1.679 1.679
          1.679 1.679 1.679 1.679 1.679 1.679 1.679 1.679 1.679 1.679 1.679 1.679
          1.679 1.679 1.679 1.679 1.679 1.679 1.679 1.679 1.679 1.679 1.679 1.679
          1.679 1.679 1.679 1.679 1.679 1.679 1.679 1.679 1.679 1.679 1.679 1.679
          1.679 1.679 1.679 1.679 1.679 1.679 1.679 1.679 1.679 1.679 1.679 1.679
          1.679 1.679 1.679 1.679 1.679 1.679 1.679 1.679 1.679 1.679 1.679 1.679
          1.679 1.679 1.679 1.679 1.679 1.679 1.679 1.679 1.679 1.679 1.679 1.679
          1.679 1.679 1.679 1.679 1.679 1.679 1.679 1.679 1.679 1.679 1.679 1.679
          1.679 1.679 1.679 1.679 1.679 1.679 1.679 1.679 1.679 1.679 1.679 1.679
          1.679 1.679 1.679 1.679 1.679 1.679 1.679 1.679
        </DataArray>
        <DataArray type="Float32" Name="lambda_w" NumberOfComponents="1" format="ascii">
          3555.51 3555.51 3555.51 3555.51 3555.51 3555.51 3555.51 3555.51 3555.51 3555.51 3555.51 3555.51
          3555.51 3555.51 3555.51 3555.51 3555.51 3555.51 3555.51 3555.51 3555.51 3555.51 3555.51 3555.51
          3555.51 3555.51 3555.51 3555.51 3555.51 3555.51 3555.51 3555.51 3555.51 3555.51 3555.51 3555.51
          3555.51 3555.51 3555.51 3555.51 3555.51 3555.51 3555.51 3555.51 3555.51 3555.51 3555.51 3555.51
          3555.51 3555.51 3555.51 3555.51 3555.51 3555.51 3555.51 3555.51 3555.51 3555.51 3555.51 3555.51
          3555.51 3555.51 3555.51 3555.51 3555.51 3555.51 3555.51 3555.51 3555.51 3555.51 3555.51 3555.51
          3555.51 3555.51 3555.51 3555.51 3555.51 3555.51 3555.51 3555.51 3555.51 3555.51 3555.51 3555.51
          3555.51 2523.47 1704.94 1258.65 955.017 725.06 541.865 394.285 277.667 188.406 121.588 71.8736
          35.14 9.84381 0.0130784 0 0 0 0 0 0 0 0 0
          0 0 0 0 0 0 0 0 0 0 0 0
          0 0 0 0 0 0 0 0 0 0 0 0
          0 0 0 0 0 0 0 0 0 0 0 0
          0 0 0 0 0 0 0 0 0 0 0 0
          0 0 0 0 0 0 0 0 0 0 0 0
          0 0 0 1.90676e-05 1.90933e-05 1.90694e-05 1.90444e-05 1.90183e-05 1.89909e-05 1.89622e-05 1.89321e-05 1.89007e-05
          1.88678e-05 1.88334e-05 1.87973e-05 1.87595e-05 1.87198e-05 1.86779e-05 1.8633e-05 1.85838e-05 1.85271e-05 1.84556e-05 1.83528e-05 1.81844e-05
          1.78818e-05 1.73215e-05 1.63113e-05 1.46133e-05 1.20493e-05 8.71372e-06 5.2832e-06 3.55551e-06
        </DataArray>
        <DataArray type="Float32" Name="lambda_n" NumberOfComponents="1" format="ascii">
          0 0 0 0 0 0 0 0 0 0 0 0
          0 0 0 0 0 0 0 0 0 0 0 0
          0 0 0 0 0 0 0 0 0 0 0 0
          0 0 0 0 0 0 0 0 0 0 0 0
          0 0 0 0 0 0 0 0 0 0 0 0
          0 0 0 0 0 0 0 0 0 0 0 0
          0 0 0 0 0 0 0 0 0 0 0 0
          0 104.783 853.378 2083.72 3714.84 5791.79 8409.59 11666.8 15613.6 20249.6 25629.9 32040.3
          40300.1 52832.3 81231.1 83183.3 83183.3 83183.3 83183.3 83183.3 83183.3 83183.3 83183.3 83183.3
          83183.3 83183.3 83183.3 83183.3 83183.3 83183.3 83183.3 83183.3 83183.3 83183.3 83183.3 83183.3
          83183.3 83183.3 83183.3 83183.3 83183.3 83183.3 83183.3 83183.3 83183.3 83183.3 83183.3 83183.3
          83183.3 83183.3 83183.3 83183.3 83183.3 83183.3 83183.3 83183.3 83183.3 83183.3 83183.3 83183.3
          83183.3 83183.3 83183.3 83183.3 83183.3 83183.3 83183.3 83183.3 83183.3 83183.3 83183.3 83183.3
          83183.3 83183.3 83183.3 83183.3 83183.3 83183.3 83183.3 83183.3 83183.3 83183.3 83183.3 83183.3
          83183.3 83183.3 83183.3 83154 83154 83154 83154.1 83154.1 83154.1 83154.1 83154.2 83154.2
          83154.2 83154.3 83154.3 83154.4 83154.4 83154.4 83154.5 83154.5 83154.6 83154.7 83154.8 83154.9
          83155.3 83155.8 83156.9 83158.8 83161.7 83165.9 83170.8 83173.7
        </DataArray>
        <DataArray type="Float32" Name="porosity" NumberOfComponents="1" format="ascii">
          0.35 0.35 0.35 0.35 0.35 0.35 0.35 0.35 0.35 0.35 0.35 0.35
          0.35 0.35 0.35 0.35 0.35 0.35 0.35 0.35 0.35 0.35 0.35 0.35
          0.35 0.35 0.35 0.35 0.35 0.35 0.35 0.35 0.35 0.35 0.35 0.35
          0.35 0.35 0.35 0.35 0.35 0.35 0.35 0.35 0.35 0.35 0.35 0.35
          0.35 0.35 0.35 0.35 0.35 0.35 0.35 0.35 0.35 0.35 0.35 0.35
          0.35 0.35 0.35 0.35 0.35 0.35 0.35 0.35 0.35 0.35 0.35 0.35
          0.35 0.35 0.35 0.35 0.35 0.35 0.35 0.35 0.35 0.35 0.35 0.35
          0.35 0.35 0.35 0.35 0.35 0.35 0.35 0.35 0.35 0.35 0.35 0.35
          0.35 0.35 0.35 0.35 0.35 0.35 0.35 0.35 0.35 0.35 0.35 0.35
          0.35 0.35 0.35 0.35 0.35 0.35 0.35 0.35 0.35 0.35 0.35 0.35
          0.35 0.35 0.35 0.35 0.35 0.35 0.35 0.35 0.35 0.35 0.35 0.35
          0.35 0.35 0.35 0.35 0.35 0.35 0.35 0.35 0.35 0.35 0.35 0.35
          0.35 0.35 0.35 0.35 0.35 0.35 0.35 0.35 0.35 0.35 0.35 0.35
          0.35 0.35 0.35 0.35 0.35 0.35 0.35 0.35 0.35 0.35 0.35 0.35
          0.35 0.35 0.35 0.35 0.35 0.35 0.35 0.35 0.35 0.35 0.35 0.35
          0.35 0.35 0.35 0.35 0.35 0.35 0.35 0.35 0.35 0.35 0.35 0.35
          0.35 0.35 0.35 0.35 0.35 0.35 0.35 0.35
        </DataArray>
        <DataArray type="Float32" Name="boundary types" NumberOfComponents="1" format="ascii">
          0 0 0 0 0 0 0 0 0 0 0 0
          0 0 0 0 0 0 0 0 0 0 0 0
          0 0 0 0 0 0 0 0 0 0 0 0
          0 0 0 0 0 0 0 0 0 0 0 0
          0 0 0 0 0 0 0 0 0 0 0 0
          0 0 0 0 0 0 0 0 0 0 0 0
          0 0 0 0 0 0 0 0 0 0 0 0
          0 0 0 0 0 0 0 0 0 0 0 0
          0 0 0 0 0 0 0 0 0 0 0 0
          0 0 0 0 0 0 0 0 0 0 0 0
          0 0 0 0 0 0 0 0 0 0 0 0
          0 0 0 0 0 0 0 0 0 0 0 0
          0 0 0 0 0 0 0 0 0 0 0 0
          0 0 0 0 0 0 0 0 0 0 0 0
          0 0 0 0 0 0 0 0 0 0 0 0
          0 0 0 0 0 0 0 0 0 0 0 0
          0 0 0 0 0 0 0 63
        </DataArray>
        <DataArray type="Float32" Name="x_w^H2O" NumberOfComponents="1" format="ascii">
          1 1 1 1 1 1 1 1 1 1 1 1
          1 1 1 1 1 1 1 1 1 1 1 1
          1 1 1 1 1 1 1 1 1 1 1 1
          1 1 1 1 1 1 1 1 1 1 1 1
          1 1 1 1 1 1 1 1 1 1 1 1
          1 1 1 1 1 1 1 1 1 1 1 1
          1 1 1 1 1 1 1 1 1 1 1 1
          1 1 1 1 1 1 1 1 1 1 1 1
          1 1 1 0.127405 0.00960322 0.00960059 0.00960058 0.00960056 0.00960055 0.00960053 0.00960051 0.00960049
          0.00960047 0.00960044 0.00960041 0.00960037 0.00960033 0.00960028 0.00960021 0.00960014 0.00960005 0.00959993 0.00959978 0.00959958
          0.00959931 0.00959894 0.00959841 0.00959765 0.00959654 0.00959488 0.00959236 0.00958853 0.0095827 0.00957381 0.00956038 0.00954032
          0.00951081 0.00946818 0.00940798 0.00932505 0.00921404 0.00907 0.0088895 0.00867173 0.00841972 0.00814121 0.00784898 0.00756044
          0.00729686 0.0070823 0.00694312 0.00690835 0.0070116 0.00729492 0.00781524 0.00865486 0.00993784 0.011856 0.0147095 0.0189699
          0.0253755 0.0350635 0.0497294 0.0717803 0.104344 0.150927 0.214668 0.297253 0.396929 0.507976 0.624433 0.736896
          0.834142 0.915099 0.999951 1 1 1 1 1 1 1 1 1
          1 1 1 1 1 1 1 1 1 1 1 1
          1 1 1 1 1 1 1 0.406912
        </DataArray>
        <DataArray type="Float32" Name="x_w^N2" NumberOfComponents="1" format="ascii">
          0 0 0 0 0 0 0 0 0 0 0 0
          0 0 0 0 0 0 0 0 0 0 0 0
          0 0 0 0 0 0 0 0 0 0 0 0
          0 0 0 0 0 0 0 0 0 0 0 0
          0 0 0 0 0 0 0 0 0 0 0 0
          0 0 0 0 0 0 0 0 0 0 0 0
          0 0 0 0 0 0 0 0 0 0 0 0
          0 0 0 0 0 0 0 0 0 0 0 0
          0 0 0 0 0 0 0 0 0 0 0 0
          0 0 0 0 0 0 0 0 0 0 0 0
          0 0 0 0 0 0 0 0 0 0 0 0
          0 0 0 0 0 0 0 0 0 0 0 0
          0 0 0 0 0 0 0 0 0 0 0 0
          0 0 0 0 0 0 0 0 0 0 0 0
          0 0 0 0 0 0 0 0 0 0 0 0
          0 0 0 0 0 0 0 0 0 0 0 0
          0 0 0 0 0 0 0 0
        </DataArray>
        <DataArray type="Float32" Name="x_n^H2O" NumberOfComponents="1" format="ascii">
          0.0352867 0.0352959 0.0353031 0.0353106 0.0353184 0.0353267 0.0353354 0.0353446 0.0353544 0.0353649 0.035376 0.0353879
          0.0354007 0.0354144 0.0354292 0.0354451 0.0354623 0.0354809 0.0355011 0.0355231 0.0355469 0.035573 0.0356013 0.0356323
          0.0356662 0.0357034 0.035744 0.0357887 0.0358377 0.0358915 0.0359508 0.036016 0.0360879 0.0361671 0.0362544 0.0363509
          0.0364574 0.0365751 0.0367053 0.0368494 0.0370089 0.0371856 0.0373815 0.0375988 0.0378401 0.0381081 0.0384061 0.0387376
          0.0391067 0.0395182 0.0399774 0.0404902 0.0410637 0.0417059 0.042426 0.0432346 0.0441442 0.0451692 0.0463266 0.0476364
          0.0491221 0.0508118 0.0527388 0.0549435 0.0574745 0.0603906 0.0637643 0.0676845 0.0722614 0.0776329 0.0839721 0.091499
          0.100495 0.111321 0.124448 0.140494 0.160276 0.184883 0.215785 0.254983 0.305221 0.370306 0.455564 0.568601
          0.737149 1 1 1 1 1 1 1 1 1 1 1
          1 1 1 1 1 1 1 1 1 1 1 1
          1 1 1 1 1 1 1 1 1 1 1 1
          1 1 1 1 1 1 1 1 1 1 1 1
          1 1 1 1 1 1 1 1 1 1 1 1
          1 1 1 1 1 1 1 1 1 1 1 1
          1 1 1 1 1 1 1 1 1 1 1 1
          1 1 1 1 1 1 1 1 1 1 1 1
          1 1 1 1 1 1 1 1 1 1 1 1
          1 1 1 1 1 1 1 1
        </DataArray>
        <DataArray type="Float32" Name="x_n^N2" NumberOfComponents="1" format="ascii">
          0 0 0 0 0 0 0 0 0 0 0 0
          0 0 0 0 0 0 0 0 0 0 0 0
          0 0 0 0 0 0 0 0 0 0 0 0
          0 0 0 0 0 0 0 0 0 0 0 0
          0 0 0 0 0 0 0 0 0 0 0 0
          0 0 0 0 0 0 0 0 0 0 0 0
          0 0 0 0 0 0 0 0 0 0 0 0
          0 0 0 0 0 0 0 0 0 0 0 0
          0 0 0 0 0 0 0 0 0 0 0 0
          0 0 0 0 0 0 0 0 0 0 0 0
          0 0 0 0 0 0 0 0 0 0 0 0
          0 0 0 0 0 0 0 0 0 0 0 0
          0 0 0 0 0 0 0 0 0 0 0 0
          0 0 0 0 0 0 0 0 0 0 0 0
          0 0 0 0 0 0 0 0 0 0 0 0
          0 0 0 0 0 0 0 0 0 0 0 0
          0 0 0 0 0 0 0 0
        </DataArray>
        <DataArray type="Float32" Name="velocity_w" NumberOfComponents="1" format="ascii">
          0.000478927 0.000478927 0.000478927 0.000478927 0.000478927 0.000478927 0.000478927 0.000478927 0.000478927 0.000478927 0.000478927 0.000478927
          0.000478927 0.000478927 0.000478927 0.000478927 0.000478927 0.000478927 0.000478927 0.000478927 0.000478927 0.000478927 0.000478927 0.000478927
          0.000478927 0.000478927 0.000478927 0.000478927 0.000478927 0.000478927 0.000478927 0.000478927 0.000478927 0.000478927 0.000478927 0.000478927
          0.000478927 0.000478927 0.000478927 0.000478927 0.000478927 0.000478927 0.000478927 0.000478927 0.000478927 0.000478927 0.000478927 0.000478927
          0.000478927 0.000478927 0.000478927 0.000478927 0.000478927 0.000478927 0.000478927 0.000478927 0.000478927 0.000478927 0.000478927 0.000478927
          0.000478927 0.000478927 0.000478927 0.000478927 0.000478927 0.000478927 0.000478927 0.000478927 0.000478927 0.000478927 0.000478927 0.000478927
          0.000478927 0.000478927 0.000478927 0.000478927 0.000478927 0.000478927 0.000478927 0.000478927 0.000478927 0.000478927 0.000478927 0.000478927
          0.00048373 0.000510654 0.000535825 0.000539727 0.00054085 0.000541197 0.000541287 0.000541245 0.000540999 0.000540308 0.000538612 0.000534296
          0.000520827 0.000455797 0.000200615 5.5683e-08 0 0 0 0 0 0 0 0
          0 0 0 0 0 0 0 0 0 0 0 0
          0 0 0 0 0 0 0 0 0 0 0 0
          0 0 0 0 0 0 0 0 0 0 0 0
          0 0 0 0 0 0 0 0 0 0 0 0
          0 0 0 0 0 0 0 0 0 0 0 0
          0 0 -9.77959e-08 -1.95378e-07 -1.95042e-07 -1.94792e-07 -1.9453e-07 -1.94256e-07 -1.9397e-07 -1.9367e-07 -1.93356e-07 -1.93027e-07
          -1.92683e-07 -1.92323e-07 -1.91945e-07 -1.91549e-07 -1.91131e-07 -1.90688e-07 -1.90207e-07 -1.89666e-07 -1.8901e-07 -1.88119e-07 -1.86733e-07 -1.84326e-07
          -1.79915e-07 -1.71887e-07 -1.58044e-07 -1.3626e-07 -1.06107e-07 -7.1528e-08 -4.51681e-08 -3.63401e-08
        </DataArray>
        <DataArray type="Float32" Name="velocity_n" NumberOfComponents="1" format="ascii">
          0 0 0 0 0 0 0 0 0 0 0 0
          0 0 0 0 0 0 0 0 0 0 0 0
          0 0 0 0 0 0 0 0 0 0 0 0
          0 0 0 0 0 0 0 0 0 0 0 0
          0 0 0 0 0 0 0 0 0 0 0 0
          0 0 0 0 0 0 0 0 0 0 0 0
          0 0 0 0 0 0 0 0 0 0 0 0
          -0.00298628 -0.0197277 -0.0353787 -0.0378055 -0.0385034 -0.0387194 -0.0387752 -0.0387489 -0.0385963 -0.0381666 -0.0371117 -0.0344282
          -0.0260535 0.0143822 0.173054 0.297762 0.297796 0.297796 0.297796 0.297796 0.297796 0.297796 0.297796 0.297796
          0.297796 0.297796 0.297796 0.297796 0.297796 0.297796 0.297796 0.297796 0.297796 0.297796 0.297796 0.297796
          0.297796 0.297796 0.297796 0.297796 0.297796 0.297796 0.297796 0.297796 0.297796 0.297796 0.297796 0.297796
          0.297796 0.297796 0.297796 0.297796 0.297796 0.297796 0.297796 0.297796 0.297796 0.297796 0.297796 0.297796
          0.297796 0.297796 0.297796 0.297796 0.297796 0.297796 0.297796 0.297796 0.297796 0.297796 0.297796 0.297796
          0.297796 0.297796 0.297796 0.297796 0.297796 0.297796 0.297796 0.297796 0.297796 0.297796 0.297796 0.297796
          0.297796 0.297796 0.29813 0.298464 0.298465 0.298465 0.298465 0.298465 0.298465 0.298466 0.298466 0.298466
          0.298467 0.298467 0.298467 0.298467 0.298468 0.298468 0.298469 0.298469 0.298469 0.29847 0.29847 0.298471
          0.298471 0.298472 0.298472 0.298473 0.298473 0.298474 0.298475 0.298476
        </DataArray>
        <DataArray type="Float32" Name="T_fluid" NumberOfComponents="1" format="ascii">
          300.012 300.015 300.016 300.018 300.02 300.022 300.024 300.027 300.03 300.033 300.036 300.04
          300.044 300.049 300.054 300.06 300.066 300.074 300.081 300.09 300.1 300.11 300.122 300.135
          300.149 300.165 300.182 300.202 300.223 300.247 300.273 300.302 300.334 300.37 300.409 300.453
          300.501 300.554 300.613 300.678 300.75 300.829 300.917 301.015 301.123 301.242 301.374 301.52
          301.681 301.86 302.057 302.276 302.518 302.785 303.081 303.408 303.77 304.17 304.613 305.103
          305.645 306.245 306.908 307.642 308.454 309.351 310.345 311.443 312.659 314.003 315.491 317.136
          318.956 320.969 323.197 325.66 328.386 331.401 334.736 338.425 342.507 347.021 352.016 357.544
          364.28 372.673 372.738 372.768 372.785 372.796 372.804 372.809 372.813 372.816 372.819 372.821
          372.822 372.822 372.821 442.862 587.288 587.308 587.308 587.308 587.308 587.308 587.308 587.308
          587.309 587.309 587.309 587.309 587.309 587.31 587.31 587.31 587.311 587.312 587.313 587.314
          587.316 587.319 587.323 587.328 587.337 587.349 587.368 587.398 587.443 587.511 587.615 587.771
          588.001 588.335 588.81 589.471 590.366 591.548 593.062 594.939 597.185 599.763 602.587 605.502
          608.284 610.64 612.214 612.613 611.433 608.302 602.916 595.08 584.741 572.002 557.128 540.53
          522.729 504.314 485.896 468.048 451.269 435.966 422.4 410.683 400.872 392.913 386.524 381.567
          377.95 375.298 372.799 372.797 372.796 372.796 372.795 372.794 372.793 372.792 372.791 372.79
          372.789 372.788 372.787 372.786 372.784 372.783 372.782 372.78 372.779 372.777 372.775 372.774
          372.772 372.77 372.768 372.766 372.763 372.761 372.758 400
        </DataArray>
        <DataArray type="Float32" Name="T_solid" NumberOfComponents="1" format="ascii">
          300.013 300.015 300.016 300.018 300.02 300.022 300.024 300.027 300.03 300.033 300.036 300.04
          300.045 300.049 300.055 300.06 300.067 300.074 300.082 300.091 300.1 300.111 300.123 300.136
          300.15 300.166 300.184 300.203 300.225 300.248 300.275 300.304 300.336 300.372 300.412 300.455
          300.504 300.557 300.616 300.682 300.754 300.834 300.923 301.021 301.129 301.249 301.382 301.529
          301.691 301.871 302.069 302.289 302.532 302.801 303.099 303.428 303.792 304.195 304.64 305.133
          305.678 306.281 306.948 307.686 308.503 309.406 310.405 311.51 312.733 314.085 315.581 317.236
          319.067 321.092 323.332 325.81 328.551 331.584 334.939 338.649 342.755 347.296 352.319 357.876
          364.016 369.69 371.037 371.655 372.07 372.422 372.757 373.09 373.436 373.83 374.344 375.148
          376.706 380.767 398.046 463.759 602.401 587.309 587.308 587.308 587.308 587.308 587.308 587.309
          587.309 587.309 587.309 587.309 587.309 587.31 587.31 587.31 587.311 587.312 587.313 587.314
          587.316 587.319 587.323 587.328 587.337 587.349 587.369 587.398 587.444 587.513 587.617 587.774
          588.005 588.34 588.816 589.479 590.377 591.561 593.078 594.959 597.207 599.788 602.612 605.527
          608.307 610.659 612.226 612.616 611.425 608.282 602.882 595.033 584.682 571.933 557.051 540.448
          522.645 504.231 485.817 467.975 451.204 435.909 422.352 410.643 400.84 392.888 386.505 381.553
          377.941 375.292 372.799 372.797 372.796 372.796 372.795 372.794 372.793 372.792 372.791 372.79
          372.789 372.788 372.787 372.786 372.784 372.783 372.782 372.78 372.779 372.777 372.775 372.774
          372.772 372.77 372.768 372.766 372.763 372.761 372.758 400
        </DataArray>
        <DataArray type="Float32" Name="qBoil" NumberOfComponents="1" format="ascii">
          -1.19464e+12 -1.19443e+12 -1.1942e+12 -1.19397e+12 -1.19373e+12 -1.19348e+12 -1.19322e+12 -1.19294e+12 -1.19266e+12 -1.19236e+12 -1.19204e+12 -1.19171e+12
          -1.19135e+12 -1.19098e+12 -1.19058e+12 -1.19016e+12 -1.18971e+12 -1.18922e+12 -1.1887e+12 -1.18814e+12 -1.18754e+12 -1.18689e+12 -1.18619e+12 -1.18543e+12
          -1.1846e+12 -1.18371e+12 -1.18273e+12 -1.18167e+12 -1.18051e+12 -1.17925e+12 -1.17786e+12 -1.17635e+12 -1.1747e+12 -1.17289e+12 -1.1709e+12 -1.16872e+12
          -1.16633e+12 -1.1637e+12 -1.16081e+12 -1.15764e+12 -1.15416e+12 -1.15033e+12 -1.14611e+12 -1.14148e+12 -1.13638e+12 -1.13078e+12 -1.12461e+12 -1.11783e+12
          -1.11038e+12 -1.10218e+12 -1.09318e+12 -1.08329e+12 -1.07243e+12 -1.06052e+12 -1.04745e+12 -1.03313e+12 -1.01745e+12 -1.0003e+12 -9.81557e+11 -9.61099e+11
          -9.38801e+11 -9.14538e+11 -8.88182e+11 -8.59611e+11 -8.28711e+11 -7.95381e+11 -7.59537e+11 -7.21123e+11 -6.80118e+11 -6.36548e+11 -5.90497e+11 -5.42124e+11
          -4.91681e+11 -4.39531e+11 -3.86167e+11 -3.32234e+11 -2.78547e+11 -2.26106e+11 -1.76091e+11 -1.29855e+11 -8.88627e+10 -5.45938e+10 -2.83521e+10 -1.09481e+10
          -2.18943e+09 -8.39586e+07 -1.36628e+07 -3.4564e+06 -835195 -108680 -189.902 37763.9 366778 1.38601e+06 4.08346e+06 1.2178e+07
          4.45886e+07 2.49584e+08 8.78364e+08 0 0 0 0 0 0 0 0 0
          0 0 0 0 0 0 0 0 0 0 0 0
          0 0 0 0 0 0 0 0 0 0 0 0
          0 0 0 0 0 0 0 0 0 0 0 0
          0 0 0 0 0 0 0 0 0 0 0 0
          0 0 0 0 0 0 0 0 0 0 0 0
          0 0 0 2.40634e-19 2.2486e-19 2.12265e-19 1.99587e-19 1.86855e-19 1.74116e-19 1.6141e-19 1.4878e-19 1.36275e-19
          1.23949e-19 1.11863e-19 1.00073e-19 8.86484e-20 7.76504e-20 6.71485e-20 5.72128e-20 4.79095e-20 3.93087e-20 3.14684e-20 2.44449e-20 1.82842e-20
          1.30195e-20 8.67632e-21 5.26602e-21 2.78162e-21 1.17724e-21 3.34703e-22 6.69624e-17 7.56171e+07
        </DataArray>
        <DataArray type="Float32" Name="h_w" NumberOfComponents="1" format="ascii">
          -308423 -308412 -308405 -308398 -308390 -308381 -308371 -308360 -308348 -308335 -308321 -308304
          -308286 -308266 -308244 -308220 -308193 -308163 -308130 -308094 -308054 -308009 -307960 -307905
          -307845 -307778 -307704 -307622 -307532 -307432 -307321 -307199 -307064 -306914 -306748 -306565
          -306362 -306138 -305890 -305615 -305312 -304976 -304605 -304194 -303739 -303236 -302680 -302065
          -301384 -300631 -299798 -298876 -297857 -296729 -295482 -294102 -292576 -290887 -289019 -286953
          -284667 -282139 -279342 -276248 -272825 -269038 -264850 -260217 -255091 -249421 -243149 -236211
          -228536 -220045 -210653 -200263 -188770 -176056 -161992 -146434 -129223 -110184 -89123.3 -65808.8
          -37404.3 -2009.97 -1736.12 -1611.45 -1539.58 -1493.11 -1461.04 -1437.92 -1420.69 -1407.49 -1397.23 -1389.35
          -1383.77 -1381.2 -1387.59 293976 903020 903105 903105 903105 903106 903106 903106 903106
          903107 903107 903108 903109 903109 903111 903112 903114 903116 903119 903124 903130
          903138 903149 903165 903189 903225 903278 903359 903483 903673 903962 904401 905058
          906028 907436 909439 912224 916000 920984 927368 935285 944754 955628 967534 979827
          991562 1.0015e+06 1.00813e+06 1.00981e+06 1.00484e+06 991636 968922 935879 892277 838557 775836 705842
          630773 553118 475452 400184 329428 264894 207688 158276 116902 83339.1 56398.4 35494.6
          20243.5 9060.1 -1479.12 -1487.85 -1490.94 -1494.17 -1497.56 -1501.11 -1504.83 -1508.73 -1512.81 -1517.09
          -1521.57 -1526.27 -1531.19 -1536.34 -1541.74 -1547.4 -1553.33 -1559.55 -1566.06 -1572.88 -1580.02 -1587.51
          -1595.36 -1603.58 -1612.19 -1621.22 -1630.67 -1640.58 -1650.96 113226
        </DataArray>
        <DataArray type="Float32" Name="h_n" NumberOfComponents="1" format="ascii">
          2.1086e+06 2.10861e+06 2.10861e+06 2.10862e+06 2.10862e+06 2.10862e+06 2.10863e+06 2.10863e+06 2.10864e+06 2.10865e+06 2.10865e+06 2.10866e+06
          2.10867e+06 2.10868e+06 2.10869e+06 2.1087e+06 2.10871e+06 2.10873e+06 2.10874e+06 2.10876e+06 2.10878e+06 2.1088e+06 2.10883e+06 2.10885e+06
          2.10888e+06 2.10891e+06 2.10895e+06 2.10899e+06 2.10903e+06 2.10908e+06 2.10913e+06 2.10919e+06 2.10926e+06 2.10933e+06 2.10941e+06 2.1095e+06
          2.10959e+06 2.1097e+06 2.10982e+06 2.10995e+06 2.1101e+06 2.11026e+06 2.11044e+06 2.11064e+06 2.11086e+06 2.1111e+06 2.11137e+06 2.11166e+06
          2.11199e+06 2.11235e+06 2.11275e+06 2.1132e+06 2.11369e+06 2.11423e+06 2.11483e+06 2.11549e+06 2.11623e+06 2.11704e+06 2.11794e+06 2.11893e+06
          2.12003e+06 2.12125e+06 2.1226e+06 2.12408e+06 2.12573e+06 2.12755e+06 2.12957e+06 2.1318e+06 2.13426e+06 2.13699e+06 2.14001e+06 2.14335e+06
          2.14704e+06 2.15113e+06 2.15564e+06 2.16064e+06 2.16617e+06 2.17229e+06 2.17906e+06 2.18654e+06 2.19482e+06 2.20398e+06 2.21412e+06 2.22534e+06
          2.239e+06 2.25603e+06 2.25616e+06 2.25622e+06 2.25626e+06 2.25628e+06 2.2563e+06 2.25631e+06 2.25632e+06 2.25632e+06 2.25633e+06 2.25633e+06
          2.25633e+06 2.25634e+06 2.25633e+06 2.39845e+06 2.69149e+06 2.69153e+06 2.69153e+06 2.69153e+06 2.69153e+06 2.69153e+06 2.69153e+06 2.69153e+06