<?xml version="1.0"?>
<VTKFile type="PolyData" version="0.1" byte_order="LittleEndian">
  <PolyData>
    <Piece NumberOfLines="199" NumberOfPoints="200">
      <PointData Scalars="S_w">
        <DataArray type="Float32" Name="S_w" NumberOfComponents="1" format="ascii">
          1 1 1 1 1 1 1 1 1 1 1 1
          1 1 1 1 1 1 1 1 1 1 1 1
          1 1 1 1 1 1 1 1 1 1 1 1
          1 1 1 1 1 1 1 1 1 1 1 1
          1 1 1 1 1 1 1 1 1 1 1 1
          1 1 1 1 1 1 1 1 1 1 1 1
          1 1 1 1 1 1 1 1 1 1 1 1
          1 0.892001 0.782712 0.707404 0.645213 0.588605 0.53415 0.480437 0.427439 0.375604 0.324586 0.27241
          0.214602 0.140417 0.0154365 0 0 0 0 0 0 0 0 0
          0 0 0 0 0 0 0 0 0 0 0 0
          0 0 0 0 0 0 0 0 0 0 0 0
          0 0 0 0 0 0 0 0 0 0 0 0
          0 0 0 0 0 0 0 0 0 0 0 0
          0 0 0 0 0 0 0 0 0 0 0 0
          0 0 0 0.00125753 0.0017509 0.00175044 0.00174967 0.00174887 0.00174803 0.00174715 0.00174623 0.00174526
          0.00174425 0.00174318 0.00174207 0.0017409 0.00173967 0.00173837 0.00173697 0.00173544 0.00173366 0.0017314 0.00172816 0.00172281
          0.00171316 0.00169506 0.00166147 0.00160181 0.00150222 0.00134853 0.0011413 0.001
        </DataArray>
        <DataArray type="Float32" Name="S_n" NumberOfComponents="1" format="ascii">
          0 0 0 0 0 0 0 0 0 0 0 0
          0 0 0 0 0 0 0 0 0 0 0 0
          0 0 0 0 0 0 0 0 0 0 0 0
          0 0 0 0 0 0 0 0 0 0 0 0
          0 0 0 0 0 0 0 0 0 0 0 0
          0 0 0 0 0 0 0 0 0 0 0 0
          0 0 0 0 0 0 0 0 0 0 0 0
          0 0.107999 0.217288 0.292596 0.354787 0.411395 0.46585 0.519563 0.572561 0.624396 0.675414 0.72759
          0.785398 0.859583 0.984564 1 1 1 1 1 1 1 1 1
          1 1 1 1 1 1 1 1 1 1 1 1
          1 1 1 1 1 1 1 1 1 1 1 1
          1 1 1 1 1 1 1 1 1 1 1 1
          1 1 1 1 1 1 1 1 1 1 1 1
          1 1 1 1 1 1 1 1 1 1 1 1
          1 1 1 0.998742 0.998249 0.99825 0.99825 0.998251 0.998252 0.998253 0.998254 0.998255
          0.998256 0.998257 0.998258 0.998259 0.99826 0.998262 0.998263 0.998265 0.998266 0.998269 0.998272 0.998277
          0.998287 0.998305 0.998339 0.998398 0.998498 0.998651 0.998859 0.999
        </DataArray>
        <DataArray type="Float32" Name="p_w" NumberOfComponents="1" format="ascii">
          100295 100284 100273 100262 100251 100240 100229 100218 100207 100196 100185 100174
          100163 100152 100141 100130 100119 100108 100097 100086 100075 100063 100052 100041
          100030 100019 100008 99997.2 99986.2 99975.2 99964.1 99953.1 99942 99931 99920 99908.9
          99897.9 99886.9 99875.8 99864.8 99853.7 99842.7 99831.7 99820.6 99809.6 99798.6 99787.5 99776.5
          99765.4 99754.4 99743.4 99732.3 99721.3 99710.2 99699.2 99688.2 99677.1 99666.1 99655.1 99644
          99633 99621.9 99610.9 99599.9 99588.8 99577.8 99566.8 99555.7 99544.7 99533.6 99522.6 99511.6
          99500.5 99489.5 99478.5 99467.4 99456.4 99445.3 99434.3 99423.3 99412.2 99401.2 99390.1 99379.1
          99368.1 99357 99345.5 99333.4 99320.6 99307 99292.4 99276.2 99257.9 99236.1 99208.9 99172.6
          99118.6 99022.5 98771.3 98710.7 98700.1 98700 98699.9 98699.8 98699.7 98699.6 98699.5 98699.4
          98699.2 98699.1 98699 98698.8 98698.6 98698.5 98698.3 98698.1 98697.9 98697.7 98697.5 98697.3
          98697.1 98696.8 98696.6 98696.3 98696 98695.7 98695.4 98695.1 98694.8 98694.4 98694 98693.6
          98693.2 98692.8 98692.4 98691.9 98691.4 98690.9 98690.4 98689.8 98689.2 98688.6 98687.9 98687.3
          98686.6 98685.8 98685 98684.2 98683.4 98682.5 98681.5 98680.5 98679.5 98678.4 98677.3 98676.1
          98674.9 98673.6 98672.2 98670.8 98669.3 98667.7 98666.1 98664.3 98662.5 98660.6 98658.7 98656.6
          98654.4 98652.1 98649.8 98650.5 98649.1 98646.4 98643.5 98640.5 98637.3 98634 98630.6 98626.9
          98623.1 98619.1 98614.9 98610.6 98606 98601.2 98596.1 98590.8 98585.3 98579.5 98573.4 98567.1
          98560.4 98553.4 98546 98538.1 98529.9 98521.1 98511.7 98502.1
        </DataArray>
        <DataArray type="Float32" Name="p_n" NumberOfComponents="1" format="ascii">
          100295 100284 100273 100262 100251 100240 100229 100218 100207 100196 100185 100174
          100163 100152 100141 100130 100119 100108 100097 100086 100075 100063 100052 100041
          100030 100019 100008 99997.2 99986.2 99975.2 99964.1 99953.1 99942 99931 99920 99908.9
          99897.9 99886.9 99875.8 99864.8 99853.7 99842.7 99831.7 99820.6 99809.6 99798.6 99787.5 99776.5
          99765.4 99754.4 99743.4 99732.3 99721.3 99710.2 99699.2 99688.2 99677.1 99666.1 99655.1 99644
          99633 99621.9 99610.9 99599.9 99588.8 99577.8 99566.8 99555.7 99544.7 99533.6 99522.6 99511.6
          99500.5 99489.5 99478.5 99467.4 99456.4 99445.3 99434.3 99423.3 99412.2 99401.2 99390.1 99379.1
          99368.1 99705.1 99937 100043 100104 100143 100170 100190 100205 100216 100225 100231
          100236 100238 100233 100211 100201 100201 100200 100200 100200 100200 100200 100200
          100200 100200 100199 100199 100199 100199 100199 100199 100198 100198 100198 100198
          100198 100197 100197 100197 100196 100196 100196 100196 100195 100195 100194 100194
          100194 100193 100193 100192 100192 100191 100191 100190 100190 100189 100188 100188
          100187 100186 100185 100185 100184 100183 100182 100181 100180 100179 100178 100177
          100175 100174 100173 100171 100170 100168 100167 100165 100163 100161 100159 100157
          100155 100153 100150 100148 100145 100142 100139 100136 100133 100130 100127 100123
          100119 100115 100111 100107 100102 100097 100092 100087 100081 100076 100069 100063
          100056 100049 100042 100034 100026 100018 100009 100000
        </DataArray>
        <DataArray type="Float32" Name="rho_w" NumberOfComponents="1" format="ascii">
          1044 1044 1044 1044 1044 1044 1044 1044 1044 1044 1044 1044
          1044 1044 1044 1044 1044 1044 1044 1044 1044 1044 1044 1044
          1044 1044 1044 1044 1044 1044 1044 1044 1044 1044 1044 1044
          1044 1044 1044 1044 1044 1044 1044 1044 1044 1044 1044 1044
          1044 1044 1044 1044 1044 1044 1044 1044 1044 1044 1044 1044
          1044 1044 1044 1044 1044 1044 1044 1044 1044 1044 1044 1044
          1044 1044 1044 1044 1044 1044 1044 1044 1044 1044 1044 1044
          1044 1044 1044 1044 1044 1044 1044 1044 1044 1044 1044 1044
          1044 1044 1044 1044 1044 1044 1044 1044 1044 1044 1044 1044
          1044 1044 1044 1044 1044 1044 1044 1044 1044 1044 1044 1044
          1044 1044 1044 1044 1044 1044 1044 1044 1044 1044 1044 1044
          1044 1044 1044 1044 1044 1044 1044 1044 1044 1044 1044 1044
          1044 1044 1044 1044 1044 1044 1044 1044 1044 1044 1044 1044
          1044 1044 1044 1044 1044 1044 1044 1044 1044 1044 1044 1044
          1044 1044 1044 1044 1044 1044 1044 1044 1044 1044 1044 1044
          1044 1044 1044 1044 1044 1044 1044 1044 1044 1044 1044 1044
          1044 1044 1044 1044 1044 1044 1044 1044
        </DataArray>
        <DataArray type="Float32" Name="rho_n" NumberOfComponents="1" format="ascii">
          1.679 1.679 1.679 1.679 1.679 1.679 1.679 1.679 1.679 1.679 1.679 1.679
          1.679 1.679 1.679 1.679 1.679 1.679 1.679 1.679 1.679 1.679 1.679 1.679
          1.679 1.679 1.679 1.679 1.679 1.679 1.679 1.679 1.679 1.679 1.679 1.679
          1.679 1.679 1.679 1.679 1.679 1.679 1.679 1.679 1.679 1.679 1.679 1.679
          1.679 1.679 1.679 1.679 1.679 1.679 1.679 1.679 1.679 1.679 1.679 1.679
          1.679 1.679 1.679 1.679 1.679 1.679 1.679 1.679 1.679 1.679 1.679 1.679
          1.679 1.679 1.679 1.679 1.679 1.679 1.679 1.679 1.679 1.679 1.679 1.679
          1.679 1.679 1.679 1.679 1.679 1.679 1.679 1.679 1.679 1.679 1.679 1.679
          1.679 1.679 1.679 1.679 1.679 1.679 1.679 1.679 1.679 1.679 1.679 1.679
          1.679 1.679 1.679 1.679 1.679 1.679 1.679 1.679 1.679 1.679 1.679 1.679
          1.679 1.679 1.679 1.679 1.679 1.679 1.679 1.679 1.679 1.679 1.679 1.679
          1.679 1.679 1.679 1.679 1.679 1.679 1.679 1.679 1.679 1.679 1.679 1.679
          1.679 1.679 1.679 1.679 1.679 1.679 1.679 1.679 1.679 1.679 1.679 1.679
          1.679 1.679 1.679 1.679 1.679 1.679 1.679 1.679 1.679 1.679 1.679 1.679
          1.679 1.679 1.679 1.679 1.679 1.679 1.679 1.679 1.679 1.679 1.679 1.679
          1.679 1.679 1.679 1.679 1.679 1.679 1.679 1.679 1.679 1.679 1.679 1.679
          1.679 1.679 1.679 1.679 1.679 1.679 1.679 1.679
        </DataArray>
        <DataArray type="Float32" Name="lambda_w" NumberOfComponents="1" format="ascii">
          3555.51 3555.51 3555.51 3555.51 3555.51 3555.51 3555.51 3555.51 3555.51 3555.51 3555.51 3555.51
          3555.51 3555.51 3555.51 3555.51 3555.51 3555.51 3555.51 3555.51 3555.51 3555.51 3555.51 3555.51
          3555.51 3555.51 3555.51 3555.51 3555.51 3555.51 3555.51 3555.51 3555.51 3555.51 3555.51 3555.51
          3555.51 3555.51 3555.51 3555.51 3555.51 3555.51 3555.51 3555.51 3555.51 3555.51 3555.51 3555.51
          3555.51 3555.51 3555.51 3555.51 3555.51 3555.51 3555.51 3555.51 3555.51 3555.51 3555.51 3555.51
          3555.51 3555.51 3555.51 3555.51 3555.51 3555.51 3555.51 3555.51 3555.51 3555.51 3555.51 3555.51
          3555.51 3555.51 3555.51 3555.51 3555.51 3555.51 3555.51 3555.51 3555.51 3555.51 3555.51 3555.51
          3555.51 2523.47 1704.94 1258.65 955.016 725.06 541.865 394.285 277.667 188.406 121.588 71.8736
          35.14 9.84379 0.0130781 0 0 0 0 0 0 0 0 0
          0 0 0 0 0 0 0 0 0 0 0 0
          0 0 0 0 0 0 0 0 0 0 0 0
          0 0 0 0 0 0 0 0 0 0 0 0
          0 0 0 0 0 0 0 0 0 0 0 0
          0 0 0 0 0 0 0 0 0 0 0 0
          0 0 0 7.07053e-06 1.90847e-05 1.90696e-05 1.90446e-05 1.90184e-05 1.8991e-05 1.89623e-05 1.89323e-05 1.89009e-05
          1.8868e-05 1.88335e-05 1.87975e-05 1.87596e-05 1.87199e-05 1.86779e-05 1.86329e-05 1.85836e-05 1.85265e-05 1.84543e-05 1.83506e-05 1.8181e-05
          1.78771e-05 1.73163e-05 1.63073e-05 1.46129e-05 1.20532e-05 8.71939e-06 5.28569e-06 3.55551e-06
        </DataArray>
        <DataArray type="Float32" Name="lambda_n" NumberOfComponents="1" format="ascii">
          0 0 0 0 0 0 0 0 0 0 0 0
          0 0 0 0 0 0 0 0 0 0 0 0
          0 0 0 0 0 0 0 0 0 0 0 0
          0 0 0 0 0 0 0 0 0 0 0 0
          0 0 0 0 0 0 0 0 0 0 0 0
          0 0 0 0 0 0 0 0 0 0 0 0
          0 0 0 0 0 0 0 0 0 0 0 0
          0 104.784 853.38 2083.72 3714.84 5791.79 8409.59 11666.8 15613.6 20249.6 25629.9 32040.3
          40300.1 52832.3 81231.1 83183.3 83183.3 83183.3 83183.3 83183.3 83183.3 83183.3 83183.3 83183.3
          83183.3 83183.3 83183.3 83183.3 83183.3 83183.3 83183.3 83183.3 83183.3 83183.3 83183.3 83183.3
          83183.3 83183.3 83183.3 83183.3 83183.3 83183.3 83183.3 83183.3 83183.3 83183.3 83183.3 83183.3
          83183.3 83183.3 83183.3 83183.3 83183.3 83183.3 83183.3 83183.3 83183.3 83183.3 83183.3 83183.3
          83183.3 83183.3 83183.3 83183.3 83183.3 83183.3 83183.3 83183.3 83183.3 83183.3 83183.3 83183.3
          83183.3 83183.3 83183.3 83183.3 83183.3 83183.3 83183.3 83183.3 83183.3 83183.3 83183.3 83183.3
          83183.3 83183.3 83183.3 83168.1 83154 83154 83154.1 83154.1 83154.1 83154.1 83154.2 83154.2
          83154.2 83154.3 83154.3 83154.4 83154.4 83154.4 83154.5 83154.5 83154.6 83154.7 83154.8 83155
          83155.3 83155.9 83156.9 83158.8 83161.7 83165.9 83170.8 83173.7
        </DataArray>
        <DataArray type="Float32" Name="porosity" NumberOfComponents="1" format="ascii">
          0.35 0.35 0.35 0.35 0.35 0.35 0.35 0.35 0.35 0.35 0.35 0.35
          0.35 0.35 0.35 0.35 0.35 0.35 0.35 0.35 0.35 0.35 0.35 0.35
          0.35 0.35 0.35 0.35 0.35 0.35 0.35 0.35 0.35 0.35 0.35 0.35
          0.35 0.35 0.35 0.35 0.35 0.35 0.35 0.35 0.35 0.35 0.35 0.35
          0.35 0.35 0.35 0.35 0.35 0.35 0.35 0.35 0.35 0.35 0.35 0.35
          0.35 0.35 0.35 0.35 0.35 0.35 0.35 0.35 0.35 0.35 0.35 0.35
          0.35 0.35 0.35 0.35 0.35 0.35 0.35 0.35 0.35 0.35 0.35 0.35
          0.35 0.35 0.35 0.35 0.35 0.35 0.35 0.35 0.35 0.35 0.35 0.35
          0.35 0.35 0.35 0.35 0.35 0.35 0.35 0.35 0.35 0.35 0.35 0.35
          0.35 0.35 0.35 0.35 0.35 0.35 0.35 0.35 0.35 0.35 0.35 0.35
          0.35 0.35 0.35 0.35 0.35 0.35 0.35 0.35 0.35 0.35 0.35 0.35
          0.35 0.35 0.35 0.35 0.35 0.35 0.35 0.35 0.35 0.35 0.35 0.35
          0.35 0.35 0.35 0.35 0.35 0.35 0.35 0.35 0.35 0.35 0.35 0.35
          0.35 0.35 0.35 0.35 0.35 0.35 0.35 0.35 0.35 0.35 0.35 0.35
          0.35 0.35 0.35 0.35 0.35 0.35 0.35 0.35 0.35 0.35 0.35 0.35
          0.35 0.35 0.35 0.35 0.35 0.35 0.35 0.35 0.35 0.35 0.35 0.35
          0.35 0.35 0.35 0.35 0.35 0.35 0.35 0.35
        </DataArray>
<<<<<<< HEAD
        <DataArray type="Float32" Name="boundary types" NumberOfComponents="1" format="ascii">
          0 0 0 0 0 0 0 0 0 0 0 0
          0 0 0 0 0 0 0 0 0 0 0 0
          0 0 0 0 0 0 0 0 0 0 0 0
          0 0 0 0 0 0 0 0 0 0 0 0
          0 0 0 0 0 0 0 0 0 0 0 0
          0 0 0 0 0 0 0 0 0 0 0 0
          0 0 0 0 0 0 0 0 0 0 0 0
          0 0 0 0 0 0 0 0 0 0 0 0
          0 0 0 0 0 0 0 0 0 0 0 0
          0 0 0 0 0 0 0 0 0 0 0 0
          0 0 0 0 0 0 0 0 0 0 0 0
          0 0 0 0 0 0 0 0 0 0 0 0
          0 0 0 0 0 0 0 0 0 0 0 0
          0 0 0 0 0 0 0 0 0 0 0 0
          0 0 0 0 0 0 0 0 0 0 0 0
          0 0 0 0 0 0 0 0 0 0 0 0
          0 0 0 0 0 0 0 63
        </DataArray>
        <DataArray type="Float32" Name="x_w^SimpleH2O" NumberOfComponents="1" format="ascii">
          1 1 1 1 1 1 1 1 1 1 1 1
          1 1 1 1 1 1 1 1 1 1 1 1
          1 1 1 1 1 1 1 1 1 1 1 1
          1 1 1 1 1 1 1 1 1 1 1 1
          1 1 1 1 1 1 1 1 1 1 1 1
          1 1 1 1 1 1 1 1 1 1 1 1
          1 1 1 1 1 1 1 1 1 1 1 1
          1 1 1 1 1 1 1 1 1 1 1 1
          1 1 1 0.127405 0.00960322 0.00960059 0.00960057 0.00960056 0.00960054 0.00960052 0.0096005 0.00960047
          0.00960045 0.00960042 0.00960038 0.00960034 0.00960029 0.00960023 0.00960016 0.00960007 0.00959996 0.00959982 0.00959964 0.0095994
          0.00959907 0.00959861 0.00959797 0.00959703 0.00959566 0.00959362 0.00959054 0.00958589 0.00957885 0.00956825 0.00955243 0.0095291
          0.00949524 0.00944708 0.00938008 0.00928926 0.0091696 0.00901688 0.00882859 0.00860514 0.0083508 0.00807439 0.0077894 0.00751346
          0.00726757 0.00707518 0.00696192 0.00695624 0.00709154 0.00741008 0.00796956 0.0088535 0.0101874 0.0121642 0.0150833 0.019412
          0.0258747 0.0355763 0.0501562 0.0719143 0.103804 0.149217 0.211225 0.291191 0.387681 0.49745 0.611724 0.720261
          0.818136 0.910521 0.976245 1 1 1 1 1 1 1 1 1
          1 1 1 1 1 1 1 1 1 1 1 1
          1 1 1 1 1 1 1 0.406912
        </DataArray>
        <DataArray type="Float32" Name="x_w^N2" NumberOfComponents="1" format="ascii">
          0 0 0 0 0 0 0 0 0 0 0 0
          0 0 0 0 0 0 0 0 0 0 0 0
          0 0 0 0 0 0 0 0 0 0 0 0
          0 0 0 0 0 0 0 0 0 0 0 0
          0 0 0 0 0 0 0 0 0 0 0 0
          0 0 0 0 0 0 0 0 0 0 0 0
          0 0 0 0 0 0 0 0 0 0 0 0
          0 0 0 0 0 0 0 0 0 0 0 0
          0 0 0 0 0 0 0 0 0 0 0 0
          0 0 0 0 0 0 0 0 0 0 0 0
          0 0 0 0 0 0 0 0 0 0 0 0
          0 0 0 0 0 0 0 0 0 0 0 0
          0 0 0 0 0 0 0 0 0 0 0 0
          0 0 0 0 0 0 0 0 0 0 0 0
          0 0 0 0 0 0 0 0 0 0 0 0
          0 0 0 0 0 0 0 0 0 0 0 0
          0 0 0 0 0 0 0 0
        </DataArray>
        <DataArray type="Float32" Name="x_n^SimpleH2O" NumberOfComponents="1" format="ascii">
          0.03529 0.0352982 0.0353048 0.0353116 0.0353187 0.0353262 0.035334 0.0353423 0.035351 0.0353603 0.0353701 0.0353805
          0.0353917 0.0354036 0.0354164 0.0354301 0.0354449 0.0354608 0.0354781 0.0354967 0.0355169 0.0355389 0.0355628 0.0355889
          0.0356173 0.0356483 0.0356822 0.0357194 0.0357601 0.0358048 0.0358539 0.0359078 0.0359671 0.0360324 0.0361043 0.0361836
          0.0362711 0.0363676 0.0364743 0.0365921 0.0367225 0.0368667 0.0370264 0.0372033 0.0373994 0.037617 0.0378585 0.0381268
          0.0384251 0.038757 0.0391266 0.0395386 0.0399983 0.0405117 0.0410859 0.0417288 0.0424498 0.0432594 0.0441701 0.0451964
          0.0463552 0.0476667 0.0491543 0.0508461 0.0527757 0.0549833 0.0575177 0.0604379 0.0638164 0.0677422 0.0723259 0.0777054
          0.0840545 0.0915934 0.100604 0.111448 0.124598 0.140673 0.160491 0.185145 0.216108 0.255385 0.305729 0.370956
          0.456406 0.56971 0.739447 1 1 1 1 1 1 1 1 1
          1 1 1 1 1 1 1 1 1 1 1 1
          1 1 1 1 1 1 1 1 1 1 1 1
          1 1 1 1 1 1 1 1 1 1 1 1
          1 1 1 1 1 1 1 1 1 1 1 1
          1 1 1 1 1 1 1 1 1 1 1 1
          1 1 1 1 1 1 1 1 1 1 1 1
          1 1 1 1 1 1 1 1 1 1 1 1
          1 1 1 1 1 1 1 1 1 1 1 1
          1 1 1 1 1 1 1 1
        </DataArray>
        <DataArray type="Float32" Name="x_n^N2" NumberOfComponents="1" format="ascii">
          0 0 0 0 0 0 0 0 0 0 0 0
          0 0 0 0 0 0 0 0 0 0 0 0
          0 0 0 0 0 0 0 0 0 0 0 0
          0 0 0 0 0 0 0 0 0 0 0 0
          0 0 0 0 0 0 0 0 0 0 0 0
          0 0 0 0 0 0 0 0 0 0 0 0
          0 0 0 0 0 0 0 0 0 0 0 0
          1.65226e-38 0 0 0 0 0 0 0 0 0 0 0
          0 0 0 0 0 0 0 0 0 0 0 0
          0 0 0 0 0 0 0 0 0 0 0 0
          0 0 0 0 0 0 0 0 0 0 0 0
          0 0 0 0 0 0 0 0 0 0 0 0
          0 0 0 0 0 0 0 0 0 0 0 0
          0 0 0 0 0 0 0 0 0 0 0 0
          0 0 0 0 0 0 0 0 0 0 0 0
          0 0 0 0 0 0 0 0 0 0 0 0
          0 0 0 0 0 0 0 0
        </DataArray>
        <DataArray type="Float32" Name="velocity_w" NumberOfComponents="1" format="ascii">
          0.000478927 0.000478927 0.000478927 0.000478927 0.000478927 0.000478927 0.000478927 0.000478927 0.000478927 0.000478927 0.000478927 0.000478927
          0.000478927 0.000478927 0.000478927 0.000478927 0.000478927 0.000478927 0.000478927 0.000478927 0.000478927 0.000478927 0.000478927 0.000478927
          0.000478927 0.000478927 0.000478927 0.000478927 0.000478927 0.000478927 0.000478927 0.000478927 0.000478927 0.000478927 0.000478927 0.000478927
          0.000478927 0.000478927 0.000478927 0.000478927 0.000478927 0.000478927 0.000478927 0.000478927 0.000478927 0.000478927 0.000478927 0.000478927
          0.000478927 0.000478927 0.000478927 0.000478927 0.000478927 0.000478927 0.000478927 0.000478927 0.000478927 0.000478927 0.000478927 0.000478927
          0.000478927 0.000478927 0.000478927 0.000478927 0.000478927 0.000478927 0.000478927 0.000478927 0.000478927 0.000478927 0.000478927 0.000478927
          0.000478927 0.000478927 0.000478927 0.000478927 0.000478927 0.000478927 0.000478927 0.000478927 0.000478927 0.000478927 0.000478927 0.000478927
          0.00048373 0.000510654 0.000535825 0.000539727 0.00054085 0.000541197 0.000541287 0.000541245 0.000540999 0.000540308 0.000538611 0.000534296
          0.000520827 0.000455797 0.000200614 5.56814e-08 0 0 0 0 0 0 0 0
          0 0 0 0 0 0 0 0 0 0 0 0
          0 0 0 0 0 0 0 0 0 0 0 0
          0 0 0 0 0 0 0 0 0 0 0 0
          0 0 0 0 0 0 0 0 0 0 0 0
          0 0 0 0 0 0 0 0 0 0 0 0
          0 0 -3.62281e-08 -1.33859e-07 -1.95091e-07 -1.94794e-07 -1.94532e-07 -1.94258e-07 -1.93971e-07 -1.93671e-07 -1.93357e-07 -1.93028e-07
          -1.92684e-07 -1.92324e-07 -1.91946e-07 -1.9155e-07 -1.91132e-07 -1.90687e-07 -1.90205e-07 -1.89661e-07 -1.89001e-07 -1.88102e-07 -1.86704e-07 -1.84284e-07
          -1.79864e-07 -1.7184e-07 -1.58022e-07 -1.36278e-07 -1.06156e-07 -7.15696e-08 -4.51809e-08 -3.63401e-08
        </DataArray>
        <DataArray type="Float32" Name="velocity_n" NumberOfComponents="1" format="ascii">
          0 0 0 0 0 0 0 0 0 0 0 0
          0 0 0 0 0 0 0 0 0 0 0 0
          0 0 0 0 0 0 0 0 0 0 0 0
          0 0 0 0 0 0 0 0 0 0 0 0
          0 0 0 0 0 0 0 0 0 0 0 0
          0 0 0 0 0 0 0 0 0 0 0 0
          0 0 0 0 0 0 0 0 0 0 0 0
          -0.0029863 -0.0197277 -0.0353787 -0.0378055 -0.0385034 -0.0387194 -0.0387752 -0.0387489 -0.0385963 -0.0381666 -0.0371117 -0.0344282
          -0.0260534 0.0143823 0.173055 0.297762 0.297796 0.297796 0.297796 0.297796 0.297796 0.297796 0.297796 0.297796
          0.297796 0.297796 0.297796 0.297796 0.297796 0.297796 0.297796 0.297796 0.297796 0.297796 0.297796 0.297796
          0.297796 0.297796 0.297796 0.297796 0.297796 0.297796 0.297796 0.297796 0.297796 0.297796 0.297796 0.297796
          0.297796 0.297796 0.297796 0.297796 0.297796 0.297796 0.297796 0.297796 0.297796 0.297796 0.297796 0.297796
          0.297796 0.297796 0.297796 0.297796 0.297796 0.297796 0.297796 0.297796 0.297796 0.297796 0.297796 0.297796
          0.297796 0.297796 0.297796 0.297796 0.297796 0.297796 0.297796 0.297796 0.297796 0.297796 0.297796 0.297796
          0.297796 0.297964 0.298331 0.29862 0.29871 0.298711 0.298711 0.298711 0.298711 0.298712 0.298712 0.298712
          0.298712 0.298713 0.298713 0.298713 0.298714 0.298714 0.298714 0.298715 0.298715 0.298716 0.298716 0.298716
          0.298717 0.298717 0.298718 0.298718 0.298719 0.29872 0.298721 0.298722
        </DataArray>
        <DataArray type="Float32" Name="T_fluid" NumberOfComponents="1" format="ascii">
          300.012 300.015 300.016 300.018 300.02 300.022 300.024 300.027 300.03 300.033 300.036 300.04
          300.044 300.049 300.054 300.06 300.066 300.074 300.081 300.09 300.1 300.11 300.122 300.135
          300.149 300.165 300.182 300.202 300.223 300.247 300.273 300.302 300.334 300.37 300.409 300.453
          300.501 300.554 300.613 300.678 300.75 300.829 300.917 301.015 301.123 301.242 301.374 301.52
          301.681 301.86 302.057 302.276 302.518 302.785 303.081 303.408 303.77 304.17 304.613 305.103
          305.645 306.245 306.908 307.642 308.454 309.351 310.345 311.443 312.659 314.003 315.491 317.136
          318.956 320.969 323.197 325.66 328.386 331.401 334.736 338.425 342.507 347.021 352.016 357.544
          364.28 372.673 372.738 372.768 372.785 372.796 372.804 372.809 372.813 372.816 372.819 372.821
          372.822 372.822 372.821 442.862 587.288 587.308 587.308 587.308 587.308 587.308 587.309 587.309
          587.309 587.309 587.309 587.309 587.31 587.31 587.31 587.311 587.312 587.312 587.314 587.315
          587.318 587.321 587.326 587.333 587.343 587.359 587.383 587.418 587.473 587.555 587.677 587.859
          588.123 588.501 589.032 589.758 590.728 591.99 593.581 595.525 597.813 600.398 603.178 605.989
          608.601 610.72 611.999 612.063 610.535 607.071 601.401 593.361 582.919 570.192 555.446 539.075
          521.579 503.519 485.464 467.961 451.493 436.421 423.002 411.403 401.651 393.574 387.15 382.242
          378.51 375.441 373.471 372.797 372.796 372.796 372.795 372.794 372.793 372.792 372.791 372.79
          372.789 372.788 372.787 372.786 372.784 372.783 372.782 372.78 372.779 372.777 372.775 372.774
          372.772 372.77 372.768 372.766 372.763 372.761 372.758 400
        </DataArray>
        <DataArray type="Float32" Name="T_solid" NumberOfComponents="1" format="ascii">
          300.013 300.015 300.016 300.018 300.02 300.022 300.024 300.027 300.03 300.033 300.036 300.04
          300.045 300.049 300.055 300.06 300.067 300.074 300.082 300.091 300.1 300.111 300.123 300.136
          300.15 300.166 300.184 300.203 300.225 300.248 300.275 300.304 300.336 300.372 300.412 300.455
          300.504 300.557 300.616 300.682 300.754 300.834 300.923 301.021 301.129 301.249 301.382 301.529
          301.691 301.871 302.069 302.289 302.532 302.801 303.099 303.428 303.792 304.195 304.64 305.133
          305.678 306.281 306.948 307.686 308.503 309.406 310.405 311.51 312.733 314.085 315.581 317.236
          319.067 321.092 323.332 325.81 328.551 331.584 334.939 338.649 342.755 347.296 352.319 357.876
          364.016 369.69 371.037 371.655 372.07 372.422 372.757 373.09 373.436 373.83 374.344 375.148
          376.706 380.767 398.046 463.759 602.401 587.31 587.308 587.308 587.308 587.308 587.309 587.309
          587.309 587.309 587.309 587.309 587.31 587.31 587.31 587.311 587.312 587.312 587.314 587.315
          587.318 587.321 587.326 587.333 587.344 587.359 587.383 587.419 587.474 587.556 587.679 587.861
          588.127 588.507 589.039 589.767 590.74 592.004 593.599 595.545 597.836 600.422 603.203 606.013
          608.623 610.736 612.009 612.064 610.524 607.049 601.366 593.313 582.86 570.123 555.369 538.995
          521.497 503.438 485.387 467.889 451.428 436.365 422.954 411.363 401.62 393.549 387.131 382.228
          378.5 375.436 373.47 372.797 372.796 372.796 372.795 372.794 372.793 372.792 372.791 372.79
          372.789 372.788 372.787 372.786 372.784 372.783 372.782 372.78 372.779 372.777 372.775 372.774
          372.772 372.77 372.768 372.766 372.763 372.761 372.758 400
        </DataArray>
        <DataArray type="Float32" Name="qBoil" NumberOfComponents="1" format="ascii">
          -1.19464e+12 -1.19443e+12 -1.1942e+12 -1.19397e+12 -1.19373e+12 -1.19348e+12 -1.19322e+12 -1.19294e+12 -1.19266e+12 -1.19236e+12 -1.19204e+12 -1.19171e+12
          -1.19135e+12 -1.19098e+12 -1.19058e+12 -1.19016e+12 -1.18971e+12 -1.18922e+12 -1.1887e+12 -1.18814e+12 -1.18754e+12 -1.18689e+12 -1.18619e+12 -1.18543e+12
          -1.1846e+12 -1.18371e+12 -1.18273e+12 -1.18167e+12 -1.18051e+12 -1.17925e+12 -1.17786e+12 -1.17635e+12 -1.1747e+12 -1.17289e+12 -1.1709e+12 -1.16872e+12
          -1.16633e+12 -1.1637e+12 -1.16082e+12 -1.15764e+12 -1.15416e+12 -1.15033e+12 -1.14611e+12 -1.14148e+12 -1.13638e+12 -1.13078e+12 -1.12461e+12 -1.11783e+12
          -1.11038e+12 -1.10218e+12 -1.09318e+12 -1.08329e+12 -1.07244e+12 -1.06052e+12 -1.04745e+12 -1.03313e+12 -1.01745e+12 -1.0003e+12 -9.81557e+11 -9.61099e+11
          -9.38802e+11 -9.14538e+11 -8.88182e+11 -8.59611e+11 -8.28711e+11 -7.95381e+11 -7.59537e+11 -7.21123e+11 -6.80118e+11 -6.36548e+11 -5.90497e+11 -5.42124e+11
          -4.91681e+11 -4.39531e+11 -3.86167e+11 -3.32234e+11 -2.78547e+11 -2.26105e+11 -1.76091e+11 -1.29855e+11 -8.88626e+10 -5.45938e+10 -2.8352e+10 -1.09481e+10
          -2.18943e+09 -8.39585e+07 -1.36628e+07 -3.4564e+06 -835194 -108680 -189.899 37764.1 366779 1.38601e+06 4.08346e+06 1.21781e+07
          4.45887e+07 2.49585e+08 8.78363e+08 0 0 0 0 0 0 0 0 0
          0 0 0 0 0 0 0 0 0 0 0 0
          0 0 0 0 0 0 0 0 0 0 0 0
          0 0 0 0 0 0 0 0 0 0 0 0
          0 0 0 0 0 0 0 0 0 0 0 0
          0 0 0 0 0 0 0 0 0 0 0 0
          0 0 0 3.6541e-18 1.20047e-20 1.13351e-20 1.06595e-20 9.98094e-21 9.30158e-21 8.62411e-21 7.95027e-21 7.28331e-21
          6.62613e-21 5.98118e-21 5.35234e-21 4.7423e-21 4.15505e-21 3.59459e-21 3.06408e-21 2.56728e-21 2.10738e-21 1.6882e-21 1.31263e-21 9.82658e-22
          7.00438e-22 4.6734e-22 2.83934e-22 1.50104e-22 6.35031e-23 1.80187e-23 6.58686e-17 7.56171e+07
        </DataArray>
        <DataArray type="Float32" Name="qsf" NumberOfComponents="1" format="ascii">
          49450.1 5590.14 3388.54 3589.33 3961.51 4381.75 4847.11 5361.93 5931.43 6561.42 7258.32 8029.24
          8882.04 9825.42 10869 12023.4 13300.4 14713.1 16275.8 18004.5 19916.8 22032.2 24372.3 26960.9
          29824.5 32992.2 36496.4 40372.7 44660.8 49404.3 54651.6 60456.3 66877.5 73980.7 81838.4 90530.6
          100146 110783 122549 135566 149964 165892 183512 203003 224565 248416 274801 303989
          336276 371993 411503 455210 503559 557043 616208 681656 754057 834147 922744 1.02075e+06
          1.12917e+06 1.2491e+06 1.38177e+06 1.52853e+06 1.69088e+06 1.87047e+06 2.06914e+06 2.28891e+06 2.53202e+06 2.80095e+06 3.09845e+06 3.42754e+06
          3.79159e+06 4.1943e+06 4.63979e+06 5.13259e+06 5.67774e+06 6.28078e+06 6.94788e+06 7.68583e+06 8.50217e+06 9.4052e+06 1.04033e+07 1.137e+07
          -9.08687e+06 -8.43731e+07 -1.4218e+07 -3.95512e+06 -1.22569e+06 -345662 -33588.9 262962 916652 2.3579e+06 5.65264e+06 1.47017e+07
          4.87983e+07 2.57767e+08 9.4446e+08 7.07975e+07 5.12036e+07 4213.77 8.00523 8.62759 9.73314 11.0446 12.6097 14.4891
          16.7611 19.5273 22.9216 27.1222 32.3682 38.9886 47.4393 58.3643 72.6868 91.7498 117.535 153
          202.588 273.009 374.397 521.965 738.337 1056.6 1524.18 2207.31 3195.49 4605.02 6580.32 9290.35
          12918.4 17642 23601.9 30860.5 39351 48823 58795.6 68526.8 77013.9 83034.7 85236 82268.6
          72956.7 56483.4 32562.1 1565.05 -35419.6 -76621.7 -119717 -162038 -200857 -233659 -258409 -273801
          -279299 -275181 -262566 -242950 -218172 -190580 -161951 -133615 -107211 -84759.6 -64345.8 -46918.2
          -34045.1 -15762.3 -4017.79 0.317088 0.0421989 0.0414031 0.0405691 0.0396955 0.03878 0.0378209 0.0368158 0.0357629
          0.0346596 0.0335036 0.0322924 0.0310232 0.0296934 0.0283 0.0268401 0.0253103 0.0237074 0.0220276 0.0202674 0.0184223
          0.0164878 0.0144585 0.0123284 0.0100908 0.00773976 0.00527273 0.858975 7.56171e+07
        </DataArray>
        <DataArray type="Float32" Name="h_w" NumberOfComponents="1" format="ascii">
          -308423 -308412 -308405 -308398 -308390 -308381 -308371 -308360 -308348 -308335 -308321 -308304
          -308286 -308266 -308244 -308220 -308193 -308163 -308130 -308094 -308054 -308009 -307960 -307905
          -307845 -307778 -307704 -307622 -307532 -307432 -307321 -307199 -307064 -306914 -306748 -306565
          -306362 -306138 -305890 -305615 -305312 -304976 -304605 -304194 -303739 -303236 -302680 -302065
          -301384 -300631 -299798 -298876 -297857 -296729 -295482 -294102 -292576 -290887 -289019 -286953
          -284667 -282139 -279342 -276248 -272825 -269038 -264850 -260217 -255091 -249421 -243149 -236211
          -228536 -220045 -210653 -200263 -188770 -176056 -161992 -146434 -129223 -110184 -89123.2 -65808.7
          -37404.2 -2009.95 -1736.09 -1611.42 -1539.55 -1493.08 -1461.01 -1437.9 -1420.66 -1407.46 -1397.2 -1389.33
          -1383.74 -1381.18 -1387.57 293976 903020 903105 903106 903106 903106 903106 903107 903107
          903107 903108 903109 903110 903111 903112 903114 903116 903119 903123 903128 903136
          903146 903160 903180 903210 903253 903319 903419 903570 903798 904144 904661 905427