<?xml version="1.0"?>
<VTKFile type="UnstructuredGrid" version="0.1" byte_order="LittleEndian">
  <UnstructuredGrid>
    <Piece NumberOfCells="64" NumberOfPoints="125">
      <PointData Scalars="T" Vectors="u">
        <DataArray type="Float32" Name="T" NumberOfComponents="1" format="ascii">
          343.15 343.15 343.15 343.15 335.65 335.65 335.65 335.65 343.15 343.15 335.65 335.65
          343.15 343.15 335.65 335.65 343.15 343.15 335.65 335.65 343.15 343.15 335.65 335.65
          343.15 335.65 343.15 335.65 343.15 335.65 343.15 343.15 335.65 335.65 343.15 335.65
          343.15 335.65 343.15 335.65 343.15 343.15 335.65 335.65 343.15 335.65 343.15 335.65
          343.15 335.65 328.15 328.15 328.15 328.15 328.15 328.15 328.15 328.15 328.15 328.15
          328.15 328.15 328.15 328.15 328.15 328.15 328.15 328.15 328.15 328.15 328.15 328.15
          328.15 328.15 328.15 320.65 320.65 320.65 320.65 320.65 320.65 320.65 320.65 320.65
          320.65 320.65 320.65 320.65 320.65 320.65 320.65 320.65 320.65 320.65 320.65 320.65
          320.65 320.65 320.65 320.65 313.15 313.15 313.15 313.15 313.15 313.15 313.15 313.15
          313.15 313.15 313.15 313.15 313.15 313.15 313.15 313.15 313.15 313.15 313.15 313.15
          313.15 313.15 313.15 313.15 313.15
        </DataArray>
        <DataArray type="Float32" Name="pW" NumberOfComponents="1" format="ascii">
          2.08789e+07 2.08789e+07 2.08789e+07 2.11188e+07 1.82817e+07 1.82817e+07 1.82817e+07 1.86687e+07 2.08789e+07 2.12054e+07 1.82817e+07 1.90162e+07
          2.08789e+07 2.11188e+07 1.82817e+07 1.86687e+07 2.08789e+07 2.08789e+07 1.82817e+07 1.82817e+07 2.08789e+07 2.12054e+07 1.82817e+07 1.90162e+07
          2.13659e+07 1.91503e+07 2.12054e+07 1.90162e+07 2.08789e+07 1.82817e+07 2.08789e+07 2.11188e+07 1.82817e+07 1.86687e+07 2.12054e+07 1.90162e+07
          2.11188e+07 1.86687e+07 2.08789e+07 1.82817e+07 2.08789e+07 2.08789e+07 1.82817e+07 1.82817e+07 2.08789e+07 1.82817e+07 2.08789e+07 1.82817e+07
          2.08789e+07 1.82817e+07 1.56845e+07 1.56845e+07 1.56845e+07 1.63659e+07 1.56845e+07 1.65145e+07 1.56845e+07 1.63659e+07 1.56845e+07 1.56845e+07
          1.56845e+07 1.65145e+07 2.44988e+07 1.65145e+07 1.56845e+07 1.56845e+07 1.63659e+07 1.65145e+07 1.63659e+07 1.56845e+07 1.56845e+07 1.56845e+07
          1.56845e+07 1.56845e+07 1.56845e+07 1.30873e+07 1.30873e+07 1.30873e+07 1.34366e+07 1.30873e+07 1.37793e+07 1.30873e+07 1.34366e+07 1.30873e+07
          1.30873e+07 1.30873e+07 1.37793e+07 1.3974e+07 1.37793e+07 1.30873e+07 1.30873e+07 1.34366e+07 1.37793e+07 1.34366e+07 1.30873e+07 1.30873e+07
          1.30873e+07 1.30873e+07 1.30873e+07 1.30873e+07 1.04901e+07 1.04901e+07 1.04901e+07 1.04901e+07 1.04901e+07 1.04901e+07 1.04901e+07 1.04901e+07
          1.04901e+07 1.04901e+07 1.04901e+07 1.04901e+07 1.04901e+07 1.04901e+07 1.04901e+07 1.04901e+07 1.04901e+07 1.04901e+07 1.04901e+07 1.04901e+07
          1.04901e+07 1.04901e+07 1.04901e+07 1.04901e+07 1.04901e+07
        </DataArray>
        <DataArray type="Float32" Name="pN" NumberOfComponents="1" format="ascii">
          2.08964e+07 2.08964e+07 2.08964e+07 2.11364e+07 1.82993e+07 1.82993e+07 1.82993e+07 1.86863e+07 2.08964e+07 2.1223e+07 1.82993e+07 1.90338e+07
          2.08964e+07 2.11364e+07 1.82993e+07 1.86863e+07 2.08964e+07 2.08964e+07 1.82993e+07 1.82993e+07 2.08964e+07 2.1223e+07 1.82993e+07 1.90338e+07
          2.13835e+07 1.91678e+07 2.1223e+07 1.90338e+07 2.08964e+07 1.82993e+07 2.08964e+07 2.11364e+07 1.82993e+07 1.86863e+07 2.1223e+07 1.90338e+07
          2.11364e+07 1.86863e+07 2.08964e+07 1.82993e+07 2.08964e+07 2.08964e+07 1.82993e+07 1.82993e+07 2.08964e+07 1.82993e+07 2.08964e+07 1.82993e+07
          2.08964e+07 1.82993e+07 1.57021e+07 1.57021e+07 1.57021e+07 1.63835e+07 1.57021e+07 1.65321e+07 1.57021e+07 1.63835e+07 1.57021e+07 1.57021e+07
          1.57021e+07 1.65321e+07 2.45192e+07 1.65321e+07 1.57021e+07 1.57021e+07 1.63835e+07 1.65321e+07 1.63835e+07 1.57021e+07 1.57021e+07 1.57021e+07
          1.57021e+07 1.57021e+07 1.57021e+07 1.31049e+07 1.31049e+07 1.31049e+07 1.34541e+07 1.31049e+07 1.37969e+07 1.31049e+07 1.34541e+07 1.31049e+07
          1.31049e+07 1.31049e+07 1.37969e+07 1.39916e+07 1.37969e+07 1.31049e+07 1.31049e+07 1.34541e+07 1.37969e+07 1.34541e+07 1.31049e+07 1.31049e+07
          1.31049e+07 1.31049e+07 1.31049e+07 1.31049e+07 1.05077e+07 1.05077e+07 1.05077e+07 1.05077e+07 1.05077e+07 1.05077e+07 1.05077e+07 1.05077e+07
          1.05077e+07 1.05077e+07 1.05077e+07 1.05077e+07 1.05077e+07 1.05077e+07 1.05077e+07 1.05077e+07 1.05077e+07 1.05077e+07 1.05077e+07 1.05077e+07
          1.05077e+07 1.05077e+07 1.05077e+07 1.05077e+07 1.05077e+07
        </DataArray>
        <DataArray type="Float32" Name="pC" NumberOfComponents="1" format="ascii">
          17569.9 17569.9 17569.9 17569.9 17569.9 17569.9 17569.9 17569.9 17569.9 17569.9 17569.9 17569.9
          17569.9 17569.9 17569.9 17569.9 17569.9 17569.9 17569.9 17569.9 17569.9 17569.9 17569.9 17569.9
          17569.9 17569.8 17569.9 17569.9 17569.9 17569.9 17569.9 17569.9 17569.9 17569.9 17569.9 17569.9
          17569.9 17569.9 17569.9 17569.9 17569.9 17569.9 17569.9 17569.9 17569.9 17569.9 17569.9 17569.9
          17569.9 17569.9 17569.9 17569.9 17569.9 17569.9 17569.9 17569.9 17569.9 17569.9 17569.9 17569.9
          17569.9 17569.9 20468.6 17569.9 17569.9 17569.9 17569.9 17569.9 17569.9 17569.9 17569.9 17569.9
          17569.9 17569.9 17569.9 17569.9 17569.9 17569.9 17569.9 17569.9 17569.9 17569.9 17569.9 17569.9
          17569.9 17569.9 17569.9 17570.1 17569.9 17569.9 17569.9 17569.9 17569.9 17569.9 17569.9 17569.9
          17569.9 17569.9 17569.9 17569.9 17569.9 17569.9 17569.9 17569.9 17569.9 17569.9 17569.9 17569.9
          17569.9 17569.9 17569.9 17569.9 17569.9 17569.9 17569.9 17569.9 17569.9 17569.9 17569.9 17569.9
          17569.9 17569.9 17569.9 17569.9 17569.9
        </DataArray>
        <DataArray type="Float32" Name="SW" NumberOfComponents="1" format="ascii">
          1 1 1 1 1 1 1 1 1 1 1 1
          1 1 1 1 1 1 1 1 1 1 1 1
          1 1 1 1 1 1 1 1 1 1 1 1
          1 1 1 1 1 1 1 1 1 1 1 1
          1 1 1 1 1 1 1 0.999999 1 1 1 1
          1 0.999999 0.938081 0.999999 1 1 1 0.999999 1 1 1 1
          1 1 1 1 1 1 1 1 1 1 1 1
          1 1 1 0.999994 1 1 1 1 1 1 1 1
          1 1 1 1 1 1 1 1 1 1 1 1
          1 1 1 1 1 1 1 1 1 1 1 1
          1 1 1 1 1
        </DataArray>
        <DataArray type="Float32" Name="SN" NumberOfComponents="1" format="ascii">
          0 0 0 0 0 0 0 -2.79107e-16 0 0 0 -3.03227e-11
          0 0 0 -2.79107e-16 0 0 0 0 0 0 0 -3.03227e-11
          0 -1.9951e-06 0 -3.03227e-11 0 0 0 0 0 -2.79107e-16 0 -3.03227e-11
          0 -2.79107e-16 0 0 0 0 0 0 0 0 0 0
          0 0 0 0 0 1.26192e-11 0 1.16498e-06 0 1.26192e-11 0 0
          0 1.16498e-06 0.0619192 1.16498e-06 0 0 1.26192e-11 1.16498e-06 1.26192e-11 0 0 0
          0 0 0 0 0 0 1.73792e-15 0 1.02144e-10 0 1.73792e-15 0
          0 0 1.02144e-10 5.95419e-06 1.02144e-10 0 0 1.73792e-15 1.02144e-10 1.73792e-15 0 0
          0 0 0 0 0 0 0 0 0 0 0 0
          0 0 0 0 0 0 0 0 0 0 0 0
          0 0 0 0 0
        </DataArray>
        <DataArray type="Float32" Name="rhoW" NumberOfComponents="1" format="ascii">
          1056.55 1056.55 1056.55 1056.63 1059.66 1059.66 1059.66 1059.81 1056.55 1056.67 1059.66 1059.94
          1056.55 1056.63 1059.66 1059.81 1056.55 1056.55 1059.66 1059.66 1056.55 1056.67 1059.66 1059.94
          1056.72 1059.99 1056.67 1059.94 1056.55 1059.66 1056.55 1056.63 1059.66 1059.81 1056.67 1059.94
          1056.63 1059.81 1056.55 1059.66 1056.55 1056.55 1059.66 1059.66 1056.55 1059.66 1056.55 1059.66
          1056.55 1059.66 1062.49 1062.49 1062.49 1062.75 1062.49 1062.8 1062.49 1062.75 1062.49 1062.49
          1062.49 1062.8 1065.82 1062.8 1062.49 1062.49 1062.75 1062.8 1062.75 1062.49 1062.49 1062.49
          1062.49 1062.49 1062.49 1064.99 1064.99 1064.99 1065.12 1064.99 1065.26 1064.99 1065.12 1064.99
          1064.99 1064.99 1065.26 1065.33 1065.26 1064.99 1064.99 1065.12 1065.26 1065.12 1064.99 1064.99
          1064.99 1064.99 1064.99 1064.99 1067.12 1067.12 1067.12 1067.12 1067.12 1067.12 1067.12 1067.12
          1067.12 1067.12 1067.12 1067.12 1067.12 1067.12 1067.12 1067.12 1067.12 1067.12 1067.12 1067.12
          1067.12 1067.12 1067.12 1067.12 1067.12
        </DataArray>
        <DataArray type="Float32" Name="rhoN" NumberOfComponents="1" format="ascii">
          695.741 695.741 695.741 699.765 675.345 675.345 675.345 683.412 695.741 701.181 675.345 690.278
          695.741 699.765 675.345 683.412 695.741 695.741 675.345 675.345 695.741 701.181 675.345 690.278
          703.787 692.844 701.181 690.278 695.741 675.345 695.741 699.765 675.345 683.412 701.181 690.278
          699.765 683.412 695.741 675.345 695.741 695.741 675.345 675.345 695.741 675.345 695.741 675.345
          695.741 675.345 673.462 673.462 673.462 690.273 673.462 693.671 673.462 690.273 673.462 673.462
          673.462 693.671 806.172 693.671 673.462 673.462 690.273 693.671 690.273 673.462 673.462 673.462
          673.462 673.462 673.462 669.574 669.574 669.574 681.12 669.574 691.343 669.574 681.12 669.574
          669.574 669.574 691.343 696.773 691.343 669.574 669.574 681.12 691.343 681.12 669.574 669.574
          669.574 669.574 669.574 669.574 660.265 660.265 660.265 660.265 660.265 660.265 660.265 660.265
          660.265 660.265 660.265 660.265 660.265 660.265 660.265 660.265 660.265 660.265 660.265 660.265
          660.265 660.265 660.265 660.265 660.265
        </DataArray>
        <DataArray type="Float32" Name="u" NumberOfComponents="3" format="ascii">
          0 0 0 -0.00277252 0 0 0 -0.00277252 0 -0.0051998 -0.0051998 0
          0 0 0.0145802 -0.00358451 0 0.0138498 0 -0.00358451 0.0138498 -0.00763547 -0.00763547 0.0113756
          -9.79884e-15 0 0 -1.44773e-14 -0.00758703 0 -1.00197e-14 0 0.0124885 -1.53415e-14 -0.0123225 0.00747015
          0.00277252 0 0 0.0051998 -0.0051998 0 0.00358451 0 0.0138498 0.00763547 -0.00763547 0.0113756
          0 0 0 0 -0.00277252 0 0 0 0.0145802 0 -0.00358451 0.0138498
          0 1.83053e-14 0 -0.00758703 2.46317e-14 0 0 2.14797e-14 0.0124885 -0.0123225 3.20727e-14 0.00747015
          -1.88118e-14 2.81335e-14 0 -2.59811e-14 3.94561e-14 -0.0187165 0.00758703 2.19885e-14 0 0.0123225 2.46214e-14 0.00747015
          0 1.53305e-14 0 0 1.68608e-14 0.0124885 0 0.00277252 0 -0.0051998 0.0051998 0
          0 0.00358451 0.0138498 -0.00763547 0.00763547 0.0113756 -1.7079e-14 0.00758703 0 -2.27929e-14 0.0123225 0.00747015
          0.0051998 0.0051998 0 0.00763547 0.00763547 0.0113756 0 0.00277252 0 0 0.00358451 0.0138498
          0 0 0 -0.00277252 0 0 0 0 0.0145802 -0.00358451 0 0.0138498
          -1.27552e-14 0 0 -1.4648e-14 0 0.0124885 0.00277252 0 0 0.00358451 0 0.0138498
          0 0 0 0 0 0.0145802 0 0 0.0313702 -0.00482824 0 0.0322354
          0 -0.00482824 0.0322354 -0.0114511 -0.0114511 0.0332345 -9.62908e-15 0 0.0330174 -1.48717e-14 -0.0385885 0.0340769
          0.00482824 0 0.0322354 0.0114511 -0.0114511 0.0332345 0 0 0.0313702 0 -0.00482824 0.0322354
          0 2.7739e-14 0.0330174 -0.0385885 4.85379e-14 0.0340769 -2.56557e-14 5.45646e-14 0.0347518 0.0385885 3.43301e-14 0.0340769
          0 2.12522e-14 0.0330174 0 0.00482824 0.0322354 -0.0114511 0.0114511 0.0332345 -2.90865e-14 0.0385885 0.0340769
          0.0114511 0.0114511 0.0332345 0 0.00482824 0.0322354 0 0 0.0313702 -0.00482824 0 0.0322354
          -1.61145e-14 0 0.0330174 0.00482824 0 0.0322354 0 0 0.0313702 0 0 0.0449152
          -0.00262126 0 0.0482306 0 -0.00262126 0.0482306 -0.00589184 -0.00589184 0.0548623 -1.02569e-14 0 0.0521098
          -1.52085e-14 -0.0103042 0.0622795 0.00262126 0 0.0482306 0.00589184 -0.00589184 0.0548623 0 0 0.0449152
          0 -0.00262126 0.0482306 0 3.05427e-14 0.0521098 -0.0103042 4.65948e-14 0.0622795 -1.81196e-14 5.82778e-14 0.0930209
          0.0103042 4.24385e-14 0.0622795 0 2.74413e-14 0.0521098 0 0.00262126 0.0482306 -0.00589184 0.00589184 0.0548623
          -1.9367e-14 0.0103042 0.0622795 0.00589184 0.00589184 0.0548623 0 0.00262126 0.0482306 0 0 0.0449152
          -0.00262126 0 0.0482306 -1.33697e-14 0 0.0521098 0.00262126 0 0.0482306 0 0 0.0449152
          0 0 0.0507414 -0.00333445 0 0.0545541 0 -0.00333445 0.0545541 -0.0050437 -0.0050437 0.062298
          -1.53866e-14 0 0.0583753 -1.81421e-14 -0.00717425 0.0708312 0.00333445 0 0.0545541 0.0050437 -0.0050437 0.062298
          0 0 0.0507414 0 -0.00333445 0.0545541 0 4.6039e-14 0.0583753 -0.00717425 5.42861e-14 0.0708312
          -2.0945e-14 6.02261e-14 0.0801422 0.00717425 5.06073e-14 0.0708312 0 4.19774e-14 0.0583753 0 0.00333445 0.0545541
          -0.0050437 0.0050437 0.062298 -2.18319e-14 0.00717425 0.0708312 0.0050437 0.0050437 0.062298 0 0.00333445 0.0545541
          0 0 0.0507414 -0.00333445 0 0.0545541 -1.94665e-14 0 0.0583753 0.00333445 0 0.0545541
          0 0 0.0507414
        </DataArray>
      </PointData>
      <CellData Scalars="principal stress 1" Vectors="effective stress changes X">
        <DataArray type="Float32" Name="effective stress changes X" NumberOfComponents="3" format="ascii">
          70510.4 32391.2 16130.7 -148681 33881.3 21285.8 -148681 -33881.3 -21285.8 70510.4 -32391.2 -16130.7
          111005 33881.3 36659.3 -285539 35371.4 93158.1 -285539 -35371.4 -93158.1 111005 -33881.3 -36659.3
          111005 -33881.3 36659.3 -285539 -35371.4 93158.1 -285539 35371.4 -93158.1 111005 33881.3 -36659.3
          70510.4 -32391.2 16130.7 -148681 -33881.3 21285.8 -148681 33881.3 -21285.8 70510.4 32391.2 -16130.7
          103461 53369.2 15999.4 -212300 106246 21753.9 -212300 -106246 -21753.9 103461 -53369.2 -15999.4
          275185 106246 88789 -797547 159122 146641 -797547 -159122 -146641 275185 -106246 -88789
          275185 -106246 88789 -797547 -159122 146641 -797547 159122 -146641 275185 106246 -88789
          103461 -53369.2 15999.4 -212300 -106246 21753.9 -212300 106246 -21753.9 103461 53369.2 -15999.4
          94665 49467.2 -48944 -196420 103608 -51717.6 -196420 -103608 51717.6 94665 -49467.2 48944
          258720 103608 -131759 -779134 157749 -183799 -779134 -157749 183799 258720 -103608 131759
          258720 -103608 -131759 -779134 -157749 -183799 -779134 157749 183799 258720 103608 131759
          94665 -49467.2 -48944 -196420 -103608 -51717.6 -196420 103608 51717.6 94665 49467.2 48944
          97578.8 24899.1 -54096.7 -112879 28806.9 -59464.3 -112879 -28806.9 59464.3 97578.8 -24899.1 54096.7
          113647 28806.9 -102448 -256217 32714.7 -149952 -256217 -32714.7 149952 113647 -28806.9 102448
          113647 -28806.9 -102448 -256217 -32714.7 -149952 -256217 32714.7 149952 113647 28806.9 102448
          97578.8 -24899.1 -54096.7 -112879 -28806.9 -59464.3 -112879 28806.9 59464.3 97578.8 24899.1 54096.7
        </DataArray>
        <DataArray type="Float32" Name="effective stress changes Y" NumberOfComponents="3" format="ascii">
          32391.2 70510.4 16130.7 33881.3 111005 36659.3 -33881.3 111005 36659.3 -32391.2 70510.4 16130.7
          33881.3 -148681 21285.8 35371.4 -285539 93158.1 -35371.4 -285539 93158.1 -33881.3 -148681 21285.8
          -33881.3 -148681 -21285.8 -35371.4 -285539 -93158.1 35371.4 -285539 -93158.1 33881.3 -148681 -21285.8
          -32391.2 70510.4 -16130.7 -33881.3 111005 -36659.3 33881.3 111005 -36659.3 32391.2 70510.4 -16130.7
          53369.2 103461 15999.4 106246 275185 88789 -106246 275185 88789 -53369.2 103461 15999.4
          106246 -212300 21753.9 159122 -797547 146641 -159122 -797547 146641 -106246 -212300 21753.9
          -106246 -212300 -21753.9 -159122 -797547 -146641 159122 -797547 -146641 106246 -212300 -21753.9
          -53369.2 103461 -15999.4 -106246 275185 -88789 106246 275185 -88789 53369.2 103461 -15999.4
          49467.2 94665 -48944 103608 258720 -131759 -103608 258720 -131759 -49467.2 94665 -48944
          103608 -196420 -51717.6 157749 -779134 -183799 -157749 -779134 -183799 -103608 -196420 -51717.6
          -103608 -196420 51717.6 -157749 -779134 183799 157749 -779134 183799 103608 -196420 51717.6
          -49467.2 94665 48944 -103608 258720 131759 103608 258720 131759 49467.2 94665 48944
          24899.1 97578.8 -54096.7 28806.9 113647 -102448 -28806.9 113647 -102448 -24899.1 97578.8 -54096.7
          28806.9 -112879 -59464.3 32714.7 -256217 -149952 -32714.7 -256217 -149952 -28806.9 -112879 -59464.3
          -28806.9 -112879 59464.3 -32714.7 -256217 149952 32714.7 -256217 149952 28806.9 -112879 59464.3
          -24899.1 97578.8 54096.7 -28806.9 113647 102448 28806.9 113647 102448 24899.1 97578.8 54096.7
        </DataArray>
        <DataArray type="Float32" Name="effective stress changes Z" NumberOfComponents="3" format="ascii">
          16130.7 16130.7 -293728 21285.8 36659.3 -278639 -21285.8 36659.3 -278639 -16130.7 16130.7 -293728
          36659.3 21285.8 -278639 93158.1 93158.1 -159812 -93158.1 93158.1 -159812 -36659.3 21285.8 -278639
          36659.3 -21285.8 -278639 93158.1 -93158.1 -159812 -93158.1 -93158.1 -159812 -36659.3 -21285.8 -278639
          16130.7 -16130.7 -293728 21285.8 -36659.3 -278639 -21285.8 -36659.3 -278639 -16130.7 -16130.7 -293728
          15999.4 15999.4 -411136 21753.9 88789 -511703 -21753.9 88789 -511703 -15999.4 15999.4 -411136
          88789 21753.9 -511703 146641 146641 -1.09026e+06 -146641 146641 -1.09026e+06 -88789 21753.9 -511703
          88789 -21753.9 -511703 146641 -146641 -1.09026e+06 -146641 -146641 -1.09026e+06 -88789 -21753.9 -511703
          15999.4 -15999.4 -411136 21753.9 -88789 -511703 -21753.9 -88789 -511703 -15999.4 -15999.4 -411136
          -48944 -48944 -365113 -51717.6 -131759 -497048 51717.6 -131759 -497048 48944 -48944 -365113
          -131759 -51717.6 -497048 -183799 -183799 -1.12947e+06 183799 -183799 -1.12947e+06 131759 -51717.6 -497048
          -131759 51717.6 -497048 -183799 183799 -1.12947e+06 183799 183799 -1.12947e+06 131759 51717.6 -497048
          -48944 48944 -365113 -51717.6 131759 -497048 51717.6 131759 -497048 48944 48944 -365113
          -54096.7 -54096.7 -116422 -59464.3 -102448 -171305 59464.3 -102448 -171305 54096.7 -54096.7 -116422
          -102448 -59464.3 -171305 -149952 -149952 -172449 149952 -149952 -172449 102448 -59464.3 -171305
          -102448 59464.3 -171305 -149952 149952 -172449 149952 149952 -172449 102448 59464.3 -171305
          -54096.7 54096.7 -116422 -59464.3 102448 -171305 59464.3 102448 -171305 54096.7 54096.7 -116422
        </DataArray>
        <DataArray type="Float32" Name="principal stress 1" NumberOfComponents="1" format="ascii">
          4.30394e+07 4.32126e+07 4.32126e+07 4.30394e+07 4.32126e+07 4.32438e+07 4.32438e+07 4.32126e+07 4.32126e+07 4.32438e+07 4.32438e+07 4.32126e+07
          4.30394e+07 4.32126e+07 4.32126e+07 4.30394e+07 3.74088e+07 3.77761e+07 3.77761e+07 3.74088e+07 3.77761e+07 3.81095e+07 3.81095e+07 3.77761e+07
          3.77761e+07 3.81095e+07 3.81095e+07 3.77761e+07 3.74088e+07 3.77761e+07 3.77761e+07 3.74088e+07 3.16766e+07 3.20309e+07 3.20309e+07 3.16766e+07
          3.20309e+07 3.23961e+07 3.23961e+07 3.20309e+07 3.20309e+07 3.23961e+07 3.23961e+07 3.20309e+07 3.16766e+07 3.20309e+07 3.20309e+07 3.16766e+07
          2.58756e+07 2.59781e+07 2.59781e+07 2.58756e+07 2.59781e+07 2.58894e+07 2.58894e+07 2.59781e+07 2.59781e+07 2.58894e+07 2.58894e+07 2.59781e+07
          2.58756e+07 2.59781e+07 2.59781e+07 2.58756e+07
        </DataArray>
        <DataArray type="Float32" Name="principal stress 2" NumberOfComponents="1" format="ascii">
          4.30394e+07 4.29529e+07 4.29529e+07 4.30394e+07 4.29529e+07 4.31181e+07 4.31181e+07 4.29529e+07 4.29529e+07 4.31181e+07 4.31181e+07 4.29529e+07
          4.30394e+07 4.29529e+07 4.29529e+07 4.30394e+07 3.74088e+07 3.72886e+07 3.72886e+07 3.74088e+07 3.72886e+07 3.81095e+07 3.81095e+07 3.72886e+07
          3.72886e+07 3.81095e+07 3.81095e+07 3.72886e+07 3.74088e+07 3.72886e+07 3.72886e+07 3.74088e+07 3.16766e+07 3.15757e+07 3.15757e+07 3.16766e+07
          3.15757e+07 3.23961e+07 3.23961e+07 3.15757e+07 3.15757e+07 3.23961e+07 3.23961e+07 3.15757e+07 3.16766e+07 3.15757e+07 3.15757e+07 3.16766e+07
          2.58756e+07 2.57516e+07 2.57516e+07 2.58756e+07 2.57516e+07 2.58056e+07 2.58056e+07 2.57516e+07 2.57516e+07 2.58056e+07 2.58056e+07 2.57516e+07
          2.58756e+07 2.57516e+07 2.57516e+07 2.58756e+07
        </DataArray>
        <DataArray type="Float32" Name="principal stress 3" NumberOfComponents="1" format="ascii">
          4.26752e+07 4.28229e+07 4.28229e+07 4.26752e+07 4.28229e+07 4.31181e+07 4.31181e+07 4.28229e+07 4.28229e+07 4.31181e+07 4.31181e+07 4.28229e+07
          4.26752e+07 4.28229e+07 4.28229e+07 4.26752e+07 3.68942e+07 3.69892e+07 3.69892e+07 3.68942e+07 3.69892e+07 3.78168e+07 3.78168e+07 3.69892e+07
          3.69892e+07 3.78168e+07 3.78168e+07 3.69892e+07 3.68942e+07 3.69892e+07 3.69892e+07 3.68942e+07 3.12168e+07 3.12751e+07 3.12751e+07 3.12168e+07
          3.12751e+07 3.20457e+07 3.20457e+07 3.12751e+07 3.12751e+07 3.20457e+07 3.20457e+07 3.12751e+07 3.12168e+07 3.12751e+07 3.12751e+07 3.12168e+07
          2.56616e+07 2.56932e+07 2.56932e+07 2.56616e+07 2.56932e+07 2.58056e+07 2.58056e+07 2.56932e+07 2.56932e+07 2.58056e+07 2.58056e+07 2.56932e+07
          2.56616e+07 2.56932e+07 2.56932e+07 2.56616e+07
        </DataArray>
        <DataArray type="Float32" Name="total stresses X" NumberOfComponents="3" format="ascii">
          4.30394e+07 32391.2 16130.7 4.29529e+07 33881.3 21285.8 4.29529e+07 -33881.3 -21285.8 4.30394e+07 -32391.2 -16130.7
          4.32126e+07 33881.3 36659.3 4.31181e+07 35371.4 93158.1 4.31181e+07 -35371.4 -93158.1 4.32126e+07 -33881.3 -36659.3
          4.32126e+07 -33881.3 36659.3 4.31181e+07 -35371.4 93158.1 4.31181e+07 35371.4 -93158.1 4.32126e+07 33881.3 -36659.3
          4.30394e+07 -32391.2 16130.7 4.29529e+07 -33881.3 21285.8 4.29529e+07 33881.3 -21285.8 4.30394e+07 32391.2 -16130.7
          3.74088e+07 53369.2 15999.4 3.72886e+07 106246 21753.9 3.72886e+07 -106246 -21753.9 3.74088e+07 -53369.2 -15999.4
          3.77761e+07 106246 88789 3.81095e+07 159122 146641 3.81095e+07 -159122 -146641 3.77761e+07 -106246 -88789
          3.77761e+07 -106246 88789 3.81095e+07 -159122 146641 3.81095e+07 159122 -146641 3.77761e+07 106246 -88789
          3.74088e+07 -53369.2 15999.4 3.72886e+07 -106246 21753.9 3.72886e+07 106246 -21753.9 3.74088e+07 53369.2 -15999.4
          3.16766e+07 49467.2 -48944 3.15757e+07 103608 -51717.6 3.15757e+07 -103608 51717.6 3.16766e+07 -49467.2 48944
          3.20309e+07 103608 -131759 3.23961e+07 157749 -183799 3.23961e+07 -157749 183799 3.20309e+07 -103608 131759
          3.20309e+07 -103608 -131759 3.23961e+07 -157749 -183799 3.23961e+07 157749 183799 3.20309e+07 103608 131759
          3.16766e+07 -49467.2 -48944 3.15757e+07 -103608 -51717.6 3.15757e+07 103608 51717.6 3.16766e+07 49467.2 48944
          2.58756e+07 24899.1 -54096.7 2.57516e+07 28806.9 -59464.3 2.57516e+07 -28806.9 59464.3 2.58756e+07 -24899.1 54096.7
          2.59781e+07 28806.9 -102448 2.58056e+07 32714.7 -149952 2.58056e+07 -32714.7 149952 2.59781e+07 -28806.9 102448
          2.59781e+07 -28806.9 -102448 2.58056e+07 -32714.7 -149952 2.58056e+07 32714.7 149952 2.59781e+07 28806.9 102448
          2.58756e+07 -24899.1 -54096.7 2.57516e+07 -28806.9 -59464.3 2.57516e+07 28806.9 59464.3 2.58756e+07 24899.1 54096.7
        </DataArray>
        <DataArray type="Float32" Name="total stresses Y" NumberOfComponents="3" format="ascii">
          32391.2 4.30394e+07 16130.7 33881.3 4.32126e+07 36659.3 -33881.3 4.32126e+07 36659.3 -32391.2 4.30394e+07 16130.7
          33881.3 4.29529e+07 21285.8 35371.4 4.31181e+07 93158.1 -35371.4 4.31181e+07 93158.1 -33881.3 4.29529e+07 21285.8
          -33881.3 4.29529e+07 -21285.8 -35371.4 4.31181e+07 -93158.1 35371.4 4.31181e+07 -93158.1 33881.3 4.29529e+07 -21285.8
          -32391.2 4.30394e+07 -16130.7 -33881.3 4.32126e+07 -36659.3 33881.3 4.32126e+07 -36659.3 32391.2 4.30394e+07 -16130.7
          53369.2 3.74088e+07 15999.4 106246 3.77761e+07 88789 -106246 3.77761e+07 88789 -53369.2 3.74088e+07 15999.4
          106246 3.72886e+07 21753.9 159122 3.81095e+07 146641 -159122 3.81095e+07 146641 -106246 3.72886e+07 21753.9
          -106246 3.72886e+07 -21753.9 -159122 3.81095e+07 -146641 159122 3.81095e+07 -146641 106246 3.72886e+07 -21753.9
          -53369.2 3.74088e+07 -15999.4 -106246 3.77761e+07 -88789 106246 3.77761e+07 -88789 53369.2 3.74088e+07 -15999.4
          49467.2 3.16766e+07 -48944 103608 3.20309e+07 -131759 -103608 3.20309e+07 -131759 -49467.2 3.16766e+07 -48944
          103608 3.15757e+07 -51717.6 157749 3.23961e+07 -183799 -157749 3.23961e+07 -183799 -103608 3.15757e+07 -51717.6
          -103608 3.15757e+07 51717.6 -157749 3.23961e+07 183799 157749 3.23961e+07 183799 103608 3.15757e+07 51717.6
          -49467.2 3.16766e+07 48944 -103608 3.20309e+07 131759 103608 3.20309e+07 131759 49467.2 3.16766e+07 48944
          24899.1 2.58756e+07 -54096.7 28806.9 2.59781e+07 -102448 -28806.9 2.59781e+07 -102448 -24899.1 2.58756e+07 -54096.7
          28806.9 2.57516e+07 -59464.3 32714.7 2.58056e+07 -149952 -32714.7 2.58056e+07 -149952 -28806.9 2.57516e+07 -59464.3
          -28806.9 2.57516e+07 59464.3 -32714.7 2.58056e+07 149952 32714.7 2.58056e+07 149952 28806.9 2.57516e+07 59464.3
          -24899.1 2.58756e+07 54096.7 -28806.9 2.59781e+07 102448 28806.9 2.59781e+07 102448 24899.1 2.58756e+07 54096.7
        </DataArray>
        <DataArray type="Float32" Name="total stresses Z" NumberOfComponents="3" format="ascii">
          16130.7 16130.7 4.26752e+07 21285.8 36659.3 4.28229e+07 -21285.8 36659.3 4.28229e+07 -16130.7 16130.7 4.26752e+07
          36659.3 21285.8 4.28229e+07 93158.1 93158.1 4.32438e+07 -93158.1 93158.1 4.32438e+07 -36659.3 21285.8 4.28229e+07
          36659.3 -21285.8 4.28229e+07 93158.1 -93158.1 4.32438e+07 -93158.1 -93158.1 4.32438e+07 -36659.3 -21285.8 4.28229e+07
          16130.7 -16130.7 4.26752e+07 21285.8 -36659.3 4.28229e+07 -21285.8 -36659.3 4.28229e+07 -16130.7 -16130.7 4.26752e+07
          15999.4 15999.4 3.68942e+07 21753.9 88789 3.69892e+07 -21753.9 88789 3.69892e+07 -15999.4 15999.4 3.68942e+07
          88789 21753.9 3.69892e+07 146641 146641 3.78168e+07 -146641 146641 3.78168e+07 -88789 21753.9 3.69892e+07
          88789 -21753.9 3.69892e+07 146641 -146641 3.78168e+07 -146641 -146641 3.78168e+07 -88789 -21753.9 3.69892e+07
          15999.4 -15999.4 3.68942e+07 21753.9 -88789 3.69892e+07 -21753.9 -88789 3.69892e+07 -15999.4 -15999.4 3.68942e+07
          -48944 -48944 3.12168e+07 -51717.6 -131759 3.12751e+07 51717.6 -131759 3.12751e+07 48944 -48944 3.12168e+07
          -131759 -51717.6 3.12751e+07 -183799 -183799 3.20457e+07 183799 -183799 3.20457e+07 131759 -51717.6 3.12751e+07
          -131759 51717.6 3.12751e+07 -183799 183799 3.20457e+07 183799 183799 3.20457e+07 131759 51717.6 3.12751e+07
          -48944 48944 3.12168e+07 -51717.6 131759 3.12751e+07 51717.6 131759 3.12751e+07 48944 48944 3.12168e+07
          -54096.7 -54096.7 2.56616e+07 -59464.3 -102448 2.56932e+07 59464.3 -102448 2.56932e+07 54096.7 -54096.7 2.56616e+07
          -102448 -59464.3 2.56932e+07 -149952 -149952 2.58894e+07 149952 -149952 2.58894e+07 102448 -59464.3 2.56932e+07
          -102448 59464.3 2.56932e+07 -149952 149952 2.58894e+07 149952 149952 2.58894e+07 102448 59464.3 2.56932e+07
          -54096.7 54096.7 2.56616e+07 -59464.3 102448 2.56932e+07 59464.3 102448 2.56932e+07 54096.7 54096.7 2.56616e+07
        </DataArray>
        <DataArray type="Float32" Name="initial stresses X" NumberOfComponents="3" format="ascii">
          4.28905e+07 0 0 4.28905e+07 0 0 4.28905e+07 0 0 4.28905e+07 0 0
          4.28905e+07 0 0 4.28905e+07 0 0 4.28905e+07 0 0 4.28905e+07 0 0
          4.28905e+07 0 0 4.28905e+07 0 0 4.28905e+07 0 0 4.28905e+07 0 0
          4.28905e+07 0 0 4.28905e+07 0 0 4.28905e+07 0 0 4.28905e+07 0 0
          3.71718e+07 0 0 3.71718e+07 0 0 3.71718e+07 0 0 3.71718e+07 0 0
          3.71718e+07 0 0 3.71718e+07 0 0 3.71718e+07 0 0 3.71718e+07 0 0
          3.71718e+07 0 0 3.71718e+07 0 0 3.71718e+07 0 0 3.71718e+07 0 0
          3.71718e+07 0 0 3.71718e+07 0 0 3.71718e+07 0 0 3.71718e+07 0 0
          3.14531e+07 0 0 3.14531e+07 0 0 3.14531e+07 0 0 3.14531e+07 0 0
          3.14531e+07 0 0 3.14531e+07 0 0 3.14531e+07 0 0 3.14531e+07 0 0
          3.14531e+07 0 0 3.14531e+07 0 0 3.14531e+07 0 0 3.14531e+07 0 0
          3.14531e+07 0 0 3.14531e+07 0 0 3.14531e+07 0 0 3.14531e+07 0 0
          2.57343e+07 0 0 2.57343e+07 0 0 2.57343e+07 0 0 2.57343e+07 0 0
          2.57343e+07 0 0 2.57343e+07 0 0 2.57343e+07 0 0 2.57343e+07 0 0
          2.57343e+07 0 0 2.57343e+07 0 0 2.57343e+07 0 0 2.57343e+07 0 0
          2.57343e+07 0 0 2.57343e+07 0 0 2.57343e+07 0 0 2.57343e+07 0 0
        </DataArray>
        <DataArray type="Float32" Name="initial stresses Y" NumberOfComponents="3" format="ascii">
          0 4.28905e+07 0 0 4.28905e+07 0 0 4.28905e+07 0 0 4.28905e+07 0
          0 4.28905e+07 0 0 4.28905e+07 0 0 4.28905e+07 0 0 4.28905e+07 0
          0 4.28905e+07 0 0 4.28905e+07 0 0 4.28905e+07 0 0 4.28905e+07 0
          0 4.28905e+07 0 0 4.28905e+07 0 0 4.28905e+07 0 0 4.28905e+07 0
          0 3.71718e+07 0 0 3.71718e+07 0 0 3.71718e+07 0 0 3.71718e+07 0
          0 3.71718e+07 0 0 3.71718e+07 0 0 3.71718e+07 0 0 3.71718e+07 0
          0 3.71718e+07 0 0 3.71718e+07 0 0 3.71718e+07 0 0 3.71718e+07 0
          0 3.71718e+07 0 0 3.71718e+07 0 0 3.71718e+07 0 0 3.71718e+07 0
          0 3.14531e+07 0 0 3.14531e+07 0 0 3.14531e+07 0 0 3.14531e+07 0
          0 3.14531e+07 0 0 3.14531e+07 0 0 3.14531e+07 0 0 3.14531e+07 0
          0 3.14531e+07 0 0 3.14531e+07 0 0 3.14531e+07 0 0 3.14531e+07 0
          0 3.14531e+07 0 0 3.14531e+07 0 0 3.14531e+07 0 0 3.14531e+07 0
          0 2.57343e+07 0 0 2.57343e+07 0 0 2.57343e+07 0 0 2.57343e+07 0