<?xml version="1.0"?>
<VTKFile type="UnstructuredGrid" version="0.1" byte_order="LittleEndian">
  <UnstructuredGrid>
    <Piece NumberOfCells="64" NumberOfPoints="125">
      <PointData Scalars="T" Vectors="u">
        <DataArray type="Float32" Name="T" NumberOfComponents="1" format="ascii">
          343.15 343.15 343.15 343.15 335.65 335.65 335.65 335.65 343.15 343.15 335.65 335.65
          343.15 343.15 335.65 335.65 343.15 343.15 335.65 335.65 343.15 343.15 335.65 335.65
          343.15 335.65 343.15 335.65 343.15 335.65 343.15 343.15 335.65 335.65 343.15 335.65
          343.15 335.65 343.15 335.65 343.15 343.15 335.65 335.65 343.15 335.65 343.15 335.65
          343.15 335.65 328.15 328.15 328.15 328.15 328.15 328.15 328.15 328.15 328.15 328.15
          328.15 328.15 328.15 328.15 328.15 328.15 328.15 328.15 328.15 328.15 328.15 328.15
          328.15 328.15 328.15 320.65 320.65 320.65 320.65 320.65 320.65 320.65 320.65 320.65
          320.65 320.65 320.65 320.65 320.65 320.65 320.65 320.65 320.65 320.65 320.65 320.65
          320.65 320.65 320.65 320.65 313.15 313.15 313.15 313.15 313.15 313.15 313.15 313.15
          313.15 313.15 313.15 313.15 313.15 313.15 313.15 313.15 313.15 313.15 313.15 313.15
          313.15 313.15 313.15 313.15 313.15
        </DataArray>
        <DataArray type="Float32" Name="pW" NumberOfComponents="1" format="ascii">
          2.08789e+07 2.08789e+07 2.08789e+07 2.11072e+07 1.82817e+07 1.82817e+07 1.82817e+07 1.87474e+07 2.08789e+07 2.11753e+07 1.82817e+07 1.92781e+07
          2.08789e+07 2.11072e+07 1.82817e+07 1.87474e+07 2.08789e+07 2.08789e+07 1.82817e+07 1.82817e+07 2.08789e+07 2.11753e+07 1.82817e+07 1.92781e+07
          2.13579e+07 1.92894e+07 2.11753e+07 1.92781e+07 2.08789e+07 1.82817e+07 2.08789e+07 2.11072e+07 1.82817e+07 1.87474e+07 2.11753e+07 1.92781e+07
          2.11072e+07 1.87474e+07 2.08789e+07 1.82817e+07 2.08789e+07 2.08789e+07 1.82817e+07 1.82817e+07 2.08789e+07 1.82817e+07 2.08789e+07 1.82817e+07
          2.08789e+07 1.82817e+07 1.56845e+07 1.56845e+07 1.56845e+07 1.66671e+07 1.56845e+07 1.68157e+07 1.56845e+07 1.66671e+07 1.56845e+07 1.56845e+07
          1.56845e+07 1.68157e+07 3.13328e+07 1.68157e+07 1.56845e+07 1.56845e+07 1.66671e+07 1.68157e+07 1.66671e+07 1.56845e+07 1.56845e+07 1.56845e+07
          1.56845e+07 1.56845e+07 1.56845e+07 1.30873e+07 1.30873e+07 1.30873e+07 1.35361e+07 1.30873e+07 1.40853e+07 1.30873e+07 1.35361e+07 1.30873e+07
          1.30873e+07 1.30873e+07 1.40853e+07 1.43972e+07 1.40853e+07 1.30873e+07 1.30873e+07 1.35361e+07 1.40853e+07 1.35361e+07 1.30873e+07 1.30873e+07
          1.30873e+07 1.30873e+07 1.30873e+07 1.30873e+07 1.04901e+07 1.04901e+07 1.04901e+07 1.04901e+07 1.04901e+07 1.04901e+07 1.04901e+07 1.04901e+07
          1.04901e+07 1.04901e+07 1.04901e+07 1.04901e+07 1.04901e+07 1.04901e+07 1.04901e+07 1.04901e+07 1.04901e+07 1.04901e+07 1.04901e+07 1.04901e+07
          1.04901e+07 1.04901e+07 1.04901e+07 1.04901e+07 1.04901e+07
        </DataArray>
        <DataArray type="Float32" Name="pN" NumberOfComponents="1" format="ascii">
          2.08964e+07 2.08964e+07 2.08964e+07 2.11248e+07 1.82993e+07 1.82993e+07 1.82993e+07 1.87649e+07 2.08964e+07 2.11929e+07 1.82993e+07 1.92957e+07
          2.08964e+07 2.11248e+07 1.82993e+07 1.87649e+07 2.08964e+07 2.08964e+07 1.82993e+07 1.82993e+07 2.08964e+07 2.11929e+07 1.82993e+07 1.92957e+07
          2.13754e+07 1.9307e+07 2.11929e+07 1.92957e+07 2.08964e+07 1.82993e+07 2.08964e+07 2.11248e+07 1.82993e+07 1.87649e+07 2.11929e+07 1.92957e+07
          2.11248e+07 1.87649e+07 2.08964e+07 1.82993e+07 2.08964e+07 2.08964e+07 1.82993e+07 1.82993e+07 2.08964e+07 1.82993e+07 2.08964e+07 1.82993e+07
          2.08964e+07 1.82993e+07 1.57021e+07 1.57021e+07 1.57021e+07 1.66847e+07 1.57021e+07 1.68333e+07 1.57021e+07 1.66847e+07 1.57021e+07 1.57021e+07
          1.57021e+07 1.68333e+07 3.13531e+07 1.68333e+07 1.57021e+07 1.57021e+07 1.66847e+07 1.68333e+07 1.66847e+07 1.57021e+07 1.57021e+07 1.57021e+07
          1.57021e+07 1.57021e+07 1.57021e+07 1.31049e+07 1.31049e+07 1.31049e+07 1.35537e+07 1.31049e+07 1.41029e+07 1.31049e+07 1.35537e+07 1.31049e+07
          1.31049e+07 1.31049e+07 1.41029e+07 1.44147e+07 1.41029e+07 1.31049e+07 1.31049e+07 1.35537e+07 1.41029e+07 1.35537e+07 1.31049e+07 1.31049e+07
          1.31049e+07 1.31049e+07 1.31049e+07 1.31049e+07 1.05077e+07 1.05077e+07 1.05077e+07 1.05077e+07 1.05077e+07 1.05077e+07 1.05077e+07 1.05077e+07
          1.05077e+07 1.05077e+07 1.05077e+07 1.05077e+07 1.05077e+07 1.05077e+07 1.05077e+07 1.05077e+07 1.05077e+07 1.05077e+07 1.05077e+07 1.05077e+07
          1.05077e+07 1.05077e+07 1.05077e+07 1.05077e+07 1.05077e+07
        </DataArray>
        <DataArray type="Float32" Name="pC" NumberOfComponents="1" format="ascii">
          17569.9 17569.9 17569.9 17569.9 17569.9 17569.9 17569.9 17569.9 17569.9 17569.9 17569.9 17569.9
          17569.9 17569.9 17569.9 17569.9 17569.9 17569.9 17569.9 17569.9 17569.9 17569.9 17569.9 17569.9
          17569.9 17569.7 17569.9 17569.9 17569.9 17569.9 17569.9 17569.9 17569.9 17569.9 17569.9 17569.9
          17569.9 17569.9 17569.9 17569.9 17569.9 17569.9 17569.9 17569.9 17569.9 17569.9 17569.9 17569.9
          17569.9 17569.9 17569.9 17569.9 17569.9 17569.9 17569.9 17570 17569.9 17569.9 17569.9 17569.9
          17569.9 17570 20280 17570 17569.9 17569.9 17569.9 17570 17569.9 17569.9 17569.9 17569.9
          17569.9 17569.9 17569.9 17569.9 17569.9 17569.9 17569.9 17569.9 17569.9 17569.9 17569.9 17569.9
          17569.9 17569.9 17569.9 17570.4 17569.9 17569.9 17569.9 17569.9 17569.9 17569.9 17569.9 17569.9
          17569.9 17569.9 17569.9 17569.9 17569.9 17569.9 17569.9 17569.9 17569.9 17569.9 17569.9 17569.9
          17569.9 17569.9 17569.9 17569.9 17569.9 17569.9 17569.9 17569.9 17569.9 17569.9 17569.9 17569.9
          17569.9 17569.9 17569.9 17569.9 17569.9
        </DataArray>
        <DataArray type="Float32" Name="SW" NumberOfComponents="1" format="ascii">
          1 1 1 1 1 1 1 1 1 1 1 1
          1 1 1 1 1 1 1 1 1 1 1 1
          1 1 1 1 1 1 1 1 1 1 1 1
          1 1 1 1 1 1 1 1 1 1 1 1
          1 1 1 1 1 1 1 0.999998 1 1 1 1
          1 0.999998 0.941972 0.999998 1 1 1 0.999998 1 1 1 1
          1 1 1 1 1 1 1 1 1 1 1 1
          1 1 1 0.999989 1 1 1 1 1 1 1 1
          1 1 1 1 1 1 1 1 1 1 1 1
          1 1 1 1 1 1 1 1 1 1 1 1
          1 1 1 1 1
        </DataArray>
        <DataArray type="Float32" Name="SN" NumberOfComponents="1" format="ascii">
          0 0 0 0 0 0 0 -1.94152e-15 0 0 0 -8.87281e-11
          0 0 0 -1.94152e-15 0 0 0 0 0 0 0 -8.87281e-11
          0 -3.40119e-06 0 -8.87281e-11 0 0 0 0 0 -1.94152e-15 0 -8.87281e-11
          0 -1.94152e-15 0 0 0 0 0 0 0 0 0 0
          0 0 0 0 0 4.90288e-11 0 2.00586e-06 0 4.90288e-11 0 0
          0 2.00586e-06 0.0580276 2.00586e-06 0 0 4.90288e-11 2.00586e-06 4.90288e-11 0 0 0
          0 0 0 0 0 0 1.10803e-14 0 3.72522e-10 0 1.10803e-14 0
          0 0 3.72522e-10 1.07298e-05 3.72522e-10 0 0 1.10803e-14 3.72522e-10 1.10803e-14 0 0
          0 0 0 0 0 0 0 0 0 0 0 0
          0 0 0 0 0 0 0 0 0 0 0 0
          0 0 0 0 0
        </DataArray>
        <DataArray type="Float32" Name="rhoW" NumberOfComponents="1" format="ascii">
          1056.55 1056.55 1056.55 1056.63 1059.66 1059.66 1059.66 1059.84 1056.55 1056.65 1059.66 1060.03
          1056.55 1056.63 1059.66 1059.84 1056.55 1056.55 1059.66 1059.66 1056.55 1056.65 1059.66 1060.03
          1056.72 1060.04 1056.65 1060.03 1056.55 1059.66 1056.55 1056.63 1059.66 1059.84 1056.65 1060.03
          1056.63 1059.84 1056.55 1059.66 1056.55 1056.55 1059.66 1059.66 1056.55 1059.66 1056.55 1059.66
          1056.55 1059.66 1062.49 1062.49 1062.49 1062.86 1062.49 1062.92 1062.49 1062.86 1062.49 1062.49
          1062.49 1062.92 1068.35 1062.92 1062.49 1062.49 1062.86 1062.92 1062.86 1062.49 1062.49 1062.49
          1062.49 1062.49 1062.49 1064.99 1064.99 1064.99 1065.16 1064.99 1065.38 1064.99 1065.16 1064.99
          1064.99 1064.99 1065.38 1065.5 1065.38 1064.99 1064.99 1065.16 1065.38 1065.16 1064.99 1064.99
          1064.99 1064.99 1064.99 1064.99 1067.12 1067.12 1067.12 1067.12 1067.12 1067.12 1067.12 1067.12
          1067.12 1067.12 1067.12 1067.12 1067.12 1067.12 1067.12 1067.12 1067.12 1067.12 1067.12 1067.12
          1067.12 1067.12 1067.12 1067.12 1067.12
        </DataArray>
        <DataArray type="Float32" Name="rhoN" NumberOfComponents="1" format="ascii">
          695.741 695.741 695.741 699.572 675.345 675.345 675.345 684.99 695.741 700.689 675.345 695.253
          695.741 699.572 675.345 684.99 695.741 695.741 675.345 675.345 695.741 700.689 675.345 695.253
          703.658 695.467 700.689 695.253 695.741 675.345 695.741 699.572 675.345 684.99 700.689 695.253
          699.572 684.99 695.741 675.345 695.741 695.741 675.345 675.345 695.741 675.345 695.741 675.345
          695.741 675.345 673.462 673.462 673.462 697.076 673.462 700.28 673.462 697.076 673.462 673.462
          673.462 700.28 859.258 700.28 673.462 673.462 697.076 700.28 697.076 673.462 673.462 673.462
          673.462 673.462 673.462 669.574 669.574 669.574 684.158 669.574 699.769 669.574 684.158 669.574
          669.574 669.574 699.769 707.751 699.769 669.574 669.574 684.158 699.769 684.158 669.574 669.574
          669.574 669.574 669.574 669.574 660.265 660.265 660.265 660.265 660.265 660.265 660.265 660.265
          660.265 660.265 660.265 660.265 660.265 660.265 660.265 660.265 660.265 660.265 660.265 660.265
          660.265 660.265 660.265 660.265 660.265
        </DataArray>
        <DataArray type="Float32" Name="u" NumberOfComponents="3" format="ascii">
          0 0 0 -0.00382115 0 0 0 -0.00382115 0 -0.0067751 -0.0067751 0
          0 0 0.0203565 -0.00527103 0 0.0189789 0 -0.00527103 0.0189789 -0.0110335 -0.0110335 0.0145686
          3.48739e-13 0 0 4.85866e-13 -0.0103242 0 3.74261e-13 0 0.0164223 6.03203e-13 -0.0184832 0.00743526
          0.00382115 0 0 0.0067751 -0.0067751 0 0.00527103 0 0.0189789 0.0110335 -0.0110335 0.0145686
          0 0 0 0 -0.00382115 0 0 0 0.0203565 0 -0.00527103 0.0189789
          0 2.18023e-13 0 -0.0103242 3.30304e-13 0 0 2.32456e-13 0.0164223 -0.0184832 3.31876e-13 0.00743526
          4.87043e-13 2.58885e-13 0 6.31368e-13 2.60689e-13 -0.0405875 0.0103242 1.38219e-13 0 0.0184832 2.9843e-14 0.00743526
          0 7.54867e-14 0 0 5.75832e-14 0.0164223 0 0.00382115 0 -0.0067751 0.0067751 0
          0 0.00527103 0.0189789 -0.0110335 0.0110335 0.0145686 2.93769e-13 0.0103242 0 3.01169e-13 0.0184832 0.00743526
          0.0067751 0.0067751 0 0.0110335 0.0110335 0.0145686 0 0.00382115 0 0 0.00527103 0.0189789
          0 0 0 -0.00382115 0 0 0 0 0.0203565 -0.00527103 0 0.0189789
          2.06145e-13 0 0 1.99407e-13 0 0.0164223 0.00382115 0 0 0.00527103 0 0.0189789
          0 0 0 0 0 0.0203565 0 0 0.0450503 -0.00768024 0 0.0462246
          0 -0.00768024 0.0462246 -0.0181328 -0.0181328 0.0474489 3.28303e-13 0 0.0472792 6.1191e-13 -0.0671215 0.0484509
          0.00768024 0 0.0462246 0.0181328 -0.0181328 0.0474489 0 0 0.0450503 0 -0.00768024 0.0462246
          0 3.25863e-13 0.0472792 -0.0671215 5.6743e-13 0.0484509 1.14433e-13 5.50302e-13 0.0486735 0.0671215 2.22489e-13 0.0484509
          0 1.31186e-13 0.0472792 0 0.00768024 0.0462246 -0.0181328 0.0181328 0.0474489 2.66967e-13 0.0671215 0.0484509
          0.0181328 0.0181328 0.0474489 0 0.00768024 0.0462246 0 0 0.0450503 -0.00768024 0 0.0462246
          1.3361e-13 0 0.0472792 0.00768024 0 0.0462246 0 0 0.0450503 0 0 0.0653913
          -0.00407681 0 0.070467 0 -0.00407681 0.070467 -0.00901904 -0.00901904 0.0806141 2.21408e-13 0 0.0767479
          3.74144e-13 -0.0167696 0.0927709 0.00407681 0 0.070467 0.00901904 -0.00901904 0.0806141 0 0 0.0653913
          0 -0.00407681 0.070467 0 4.36282e-13 0.0767479 -0.0167696 7.79721e-13 0.0927709 -1.96712e-13 4.57692e-13 0.147466
          0.0167696 2.07738e-13 0.0927709 0 1.58935e-13 0.0767479 0 0.00407681 0.070467 -0.00901904 0.00901904 0.0806141
          -1.97841e-13 0.0167696 0.0927709 0.00901904 0.00901904 0.0806141 0 0.00407681 0.070467 0 0 0.0653913
          -0.00407681 0 0.070467 -5.59479e-14 0 0.0767479 0.00407681 0 0.070467 0 0 0.0653913
          0 0 0.0741398 -0.0052205 0 0.0799183 0 -0.0052205 0.0799183 -0.0079145 -0.0079145 0.0915437
          2.94662e-13 0 0.0859793 2.79308e-13 -0.0116159 0.105516 0.0052205 0 0.0799183 0.0079145 -0.0079145 0.0915437
          0 0 0.0741398 0 -0.0052205 0.0799183 0 6.50191e-13 0.0859793 -0.0116159 7.48741e-13 0.105516
          -6.37543e-14 5.43461e-13 0.120824 0.0116159 3.23641e-13 0.105516 0 2.509e-13 0.0859793 0 0.0052205 0.0799183
          -0.0079145 0.0079145 0.0915437 -1.458e-13 0.0116159 0.105516 0.0079145 0.0079145 0.0915437 0 0.0052205 0.0799183
          0 0 0.0741398 -0.0052205 0 0.0799183 -1.04686e-13 0 0.0859793 0.0052205 0 0.0799183
          0 0 0.0741398
        </DataArray>
      </PointData>
      <CellData Scalars="principal stress 1" Vectors="effective stress changes X">
        <DataArray type="Float32" Name="effective stress changes X" NumberOfComponents="3" format="ascii">
          102702 43582.3 28740.6 -197321 49288.1 38495.5 -197321 -49288.1 -38495.5 102702 -43582.3 -28740.6
          170264 49288.1 64537.3 -369886 54993.9 168934 -369886 -54993.9 -168934 170264 -49288.1 -64537.3
          170264 -49288.1 64537.3 -369886 -54993.9 168934 -369886 54993.9 -168934 170264 49288.1 -64537.3
          102702 -43582.3 28740.6 -197321 -49288.1 38495.5 -197321 49288.1 -38495.5 102702 43582.3 -28740.6
          164204 81075.2 32244.4 -309496 181634 42854.3 -309496 -181634 -42854.3 164204 -81075.2 -32244.4
          474947 181634 166847 -1.29671e+06 282192 274172 -1.29671e+06 -282192 -274172 474947 -181634 -166847
          474947 -181634 166847 -1.29671e+06 -282192 274172 -1.29671e+06 282192 -274172 474947 181634 -166847
          164204 -81075.2 32244.4 -309496 -181634 42854.3 -309496 181634 -42854.3 164204 81075.2 -32244.4
          154255 76973.9 -75846.6 -292981 180335 -83028.4 -292981 -180335 83028.4 154255 -76973.9 75846.6
          456778 180335 -220079 -1.29302e+06 283696 -318854 -1.29302e+06 -283696 318854 456778 -180335 220079
          456778 -180335 -220079 -1.29302e+06 -283696 -318854 -1.29302e+06 283696 318854 456778 180335 220079
          154255 -76973.9 -75846.6 -292981 -180335 -83028.4 -292981 180335 83028.4 154255 76973.9 75846.6
          154289 38181.1 -81469 -169936 47720.5 -96079.1 -169936 -47720.5 96079.1 154289 -38181.1 81469
          187814 47720.5 -158976 -393956 57259.9 -255977 -393956 -57259.9 255977 187814 -47720.5 158976
          187814 -47720.5 -158976 -393956 -57259.9 -255977 -393956 57259.9 255977 187814 47720.5 158976
          154289 -38181.1 -81469 -169936 -47720.5 -96079.1 -169936 47720.5 96079.1 154289 38181.1 81469
        </DataArray>
        <DataArray type="Float32" Name="effective stress changes Y" NumberOfComponents="3" format="ascii">
          43582.3 102702 28740.6 49288.1 170264 64537.3 -49288.1 170264 64537.3 -43582.3 102702 28740.6
          49288.1 -197321 38495.5 54993.9 -369886 168934 -54993.9 -369886 168934 -49288.1 -197321 38495.5
          -49288.1 -197321 -38495.5 -54993.9 -369886 -168934 54993.9 -369886 -168934 49288.1 -197321 -38495.5
          -43582.3 102702 -28740.6 -49288.1 170264 -64537.3 49288.1 170264 -64537.3 43582.3 102702 -28740.6
          81075.2 164204 32244.4 181634 474947 166847 -181634 474947 166847 -81075.2 164204 32244.4
          181634 -309496 42854.3 282192 -1.29671e+06 274172 -282192 -1.29671e+06 274172 -181634 -309496 42854.3
          -181634 -309496 -42854.3 -282192 -1.29671e+06 -274172 282192 -1.29671e+06 -274172 181634 -309496 -42854.3
          -81075.2 164204 -32244.4 -181634 474947 -166847 181634 474947 -166847 81075.2 164204 -32244.4
          76973.9 154255 -75846.6 180335 456778 -220079 -180335 456778 -220079 -76973.9 154255 -75846.6
          180335 -292981 -83028.4 283696 -1.29302e+06 -318854 -283696 -1.29302e+06 -318854 -180335 -292981 -83028.4
          -180335 -292981 83028.4 -283696 -1.29302e+06 318854 283696 -1.29302e+06 318854 180335 -292981 83028.4
          -76973.9 154255 75846.6 -180335 456778 220079 180335 456778 220079 76973.9 154255 75846.6
          38181.1 154289 -81469 47720.5 187814 -158976 -47720.5 187814 -158976 -38181.1 154289 -81469
          47720.5 -169936 -96079.1 57259.9 -393956 -255977 -57259.9 -393956 -255977 -47720.5 -169936 -96079.1
          -47720.5 -169936 96079.1 -57259.9 -393956 255977 57259.9 -393956 255977 47720.5 -169936 96079.1
          -38181.1 154289 81469 -47720.5 187814 158976 47720.5 187814 158976 38181.1 154289 81469
        </DataArray>
        <DataArray type="Float32" Name="effective stress changes Z" NumberOfComponents="3" format="ascii">
          28740.6 28740.6 -396217 38495.5 64537.3 -349842 -38495.5 64537.3 -349842 -28740.6 28740.6 -396217
          64537.3 38495.5 -349842 168934 168934 -81064.2 -168934 168934 -81064.2 -64537.3 38495.5 -349842
          64537.3 -38495.5 -349842 168934 -168934 -81064.2 -168934 -168934 -81064.2 -64537.3 -38495.5 -349842
          28740.6 -28740.6 -396217 38495.5 -64537.3 -349842 -38495.5 -64537.3 -349842 -28740.6 -28740.6 -396217
          32244.4 32244.4 -606711 42854.3 166847 -758901 -42854.3 166847 -758901 -32244.4 32244.4 -606711
          166847 42854.3 -758901 274172 274172 -1.74372e+06 -274172 274172 -1.74372e+06 -166847 42854.3 -758901
          166847 -42854.3 -758901 274172 -274172 -1.74372e+06 -274172 -274172 -1.74372e+06 -166847 -42854.3 -758901
          32244.4 -32244.4 -606711 42854.3 -166847 -758901 -42854.3 -166847 -758901 -32244.4 -32244.4 -606711
          -75846.6 -75846.6 -550244 -83028.4 -220079 -754419 83028.4 -220079 -754419 75846.6 -75846.6 -550244
          -220079 -83028.4 -754419 -318854 -318854 -1.84079e+06 318854 -318854 -1.84079e+06 220079 -83028.4 -754419
          -220079 83028.4 -754419 -318854 318854 -1.84079e+06 318854 318854 -1.84079e+06 220079 83028.4 -754419
          -75846.6 75846.6 -550244 -83028.4 220079 -754419 83028.4 220079 -754419 75846.6 75846.6 -550244
          -81469 -81469 -169768 -96079.1 -158976 -250568 96079.1 -158976 -250568 81469 -81469 -169768
          -158976 -96079.1 -250568 -255977 -255977 -216252 255977 -255977 -216252 158976 -96079.1 -250568
          -158976 96079.1 -250568 -255977 255977 -216252 255977 255977 -216252 158976 96079.1 -250568
          -81469 81469 -169768 -96079.1 158976 -250568 96079.1 158976 -250568 81469 81469 -169768
        </DataArray>
        <DataArray type="Float32" Name="principal stress 1" NumberOfComponents="1" format="ascii">
          4.308e+07 4.33092e+07 4.33092e+07 4.308e+07 4.33092e+07 4.34053e+07 4.34053e+07 4.33092e+07 4.33092e+07 4.34053e+07 4.34053e+07 4.33092e+07
          4.308e+07 4.33092e+07 4.33092e+07 4.308e+07 3.75171e+07 3.80938e+07 3.80938e+07 3.75171e+07 3.80938e+07 3.912e+07 3.912e+07 3.80938e+07
          3.80938e+07 3.912e+07 3.912e+07 3.80938e+07 3.75171e+07 3.80938e+07 3.80938e+07 3.75171e+07 3.17863e+07 3.23549e+07 3.23549e+07 3.17863e+07
          3.23549e+07 3.34725e+07 3.34725e+07 3.23549e+07 3.23549e+07 3.34725e+07 3.34725e+07 3.23549e+07 3.17863e+07 3.23549e+07 3.23549e+07 3.17863e+07
          2.59447e+07 2.6103e+07 2.6103e+07 2.59447e+07 2.6103e+07 2.62942e+07 2.62942e+07 2.6103e+07 2.6103e+07 2.62942e+07 2.62942e+07 2.6103e+07
          2.59447e+07 2.6103e+07 2.6103e+07 2.59447e+07
        </DataArray>
        <DataArray type="Float32" Name="principal stress 2" NumberOfComponents="1" format="ascii">
          4.308e+07 4.29416e+07 4.29416e+07 4.308e+07 4.29416e+07 4.31165e+07 4.31165e+07 4.29416e+07 4.29416e+07 4.31165e+07 4.31165e+07 4.29416e+07
          4.308e+07 4.29416e+07 4.29416e+07 4.308e+07 3.75171e+07 3.73093e+07 3.73093e+07 3.75171e+07 3.73093e+07 3.8388e+07 3.8388e+07 3.73093e+07
          3.73093e+07 3.8388e+07 3.8388e+07 3.73093e+07 3.75171e+07 3.73093e+07 3.73093e+07 3.75171e+07 3.17863e+07 3.16052e+07 3.16052e+07 3.17863e+07
          3.16052e+07 3.27075e+07 3.27075e+07 3.16052e+07 3.16052e+07 3.27075e+07 3.27075e+07 3.16052e+07 3.17863e+07 3.16052e+07 3.16052e+07 3.17863e+07
          2.59447e+07 2.57452e+07 2.57452e+07 2.59447e+07 2.57452e+07 2.57524e+07 2.57524e+07 2.57452e+07 2.57452e+07 2.57524e+07 2.57524e+07 2.57452e+07
          2.59447e+07 2.57452e+07 2.57452e+07 2.59447e+07
        </DataArray>
        <DataArray type="Float32" Name="principal stress 3" NumberOfComponents="1" format="ascii">
          4.25811e+07 4.27891e+07 4.27891e+07 4.25811e+07 4.27891e+07 4.31165e+07 4.31165e+07 4.27891e+07 4.27891e+07 4.31165e+07 4.31165e+07 4.27891e+07
          4.25811e+07 4.27891e+07 4.27891e+07 4.25811e+07 3.67461e+07 3.68599e+07 3.68599e+07 3.67461e+07 3.68599e+07 3.80556e+07 3.80556e+07 3.68599e+07
          3.68599e+07 3.80556e+07 3.80556e+07 3.68599e+07 3.67461e+07 3.68599e+07 3.68599e+07 3.67461e+07 3.10818e+07 3.11437e+07 3.11437e+07 3.10818e+07
          3.11437e+07 3.22458e+07 3.22458e+07 3.11437e+07 3.11437e+07 3.22458e+07 3.22458e+07 3.11437e+07 3.10818e+07 3.11437e+07 3.11437e+07 3.10818e+07
          2.56207e+07 2.56646e+07 2.56646e+07 2.56207e+07 2.56646e+07 2.55602e+07 2.55602e+07 2.56646e+07 2.56646e+07 2.55602e+07 2.55602e+07 2.56646e+07
          2.56207e+07 2.56646e+07 2.56646e+07 2.56207e+07
        </DataArray>
        <DataArray type="Float32" Name="total stresses X" NumberOfComponents="3" format="ascii">
          4.308e+07 43582.3 28740.6 4.29416e+07 49288.1 38495.5 4.29416e+07 -49288.1 -38495.5 4.308e+07 -43582.3 -28740.6
          4.33092e+07 49288.1 64537.3 4.31165e+07 54993.9 168934 4.31165e+07 -54993.9 -168934 4.33092e+07 -49288.1 -64537.3
          4.33092e+07 -49288.1 64537.3 4.31165e+07 -54993.9 168934 4.31165e+07 54993.9 -168934 4.33092e+07 49288.1 -64537.3
          4.308e+07 -43582.3 28740.6 4.29416e+07 -49288.1 38495.5 4.29416e+07 49288.1 -38495.5 4.308e+07 43582.3 -28740.6
          3.75171e+07 81075.2 32244.4 3.73093e+07 181634 42854.3 3.73093e+07 -181634 -42854.3 3.75171e+07 -81075.2 -32244.4
          3.80938e+07 181634 166847 3.86702e+07 282192 274172 3.86702e+07 -282192 -274172 3.80938e+07 -181634 -166847
          3.80938e+07 -181634 166847 3.86702e+07 -282192 274172 3.86702e+07 282192 -274172 3.80938e+07 181634 -166847
          3.75171e+07 -81075.2 32244.4 3.73093e+07 -181634 42854.3 3.73093e+07 181634 -42854.3 3.75171e+07 81075.2 -32244.4
          3.17863e+07 76973.9 -75846.6 3.16052e+07 180335 -83028.4 3.16052e+07 -180335 83028.4 3.17863e+07 -76973.9 75846.6
          3.23549e+07 180335 -220079 3.29912e+07 283696 -318854 3.29912e+07 -283696 318854 3.23549e+07 -180335 220079
          3.23549e+07 -180335 -220079 3.29912e+07 -283696 -318854 3.29912e+07 283696 318854 3.23549e+07 180335 220079
          3.17863e+07 -76973.9 -75846.6 3.16052e+07 -180335 -83028.4 3.16052e+07 180335 83028.4 3.17863e+07 76973.9 75846.6
          2.59447e+07 38181.1 -81469 2.57452e+07 47720.5 -96079.1 2.57452e+07 -47720.5 96079.1 2.59447e+07 -38181.1 81469
          2.6103e+07 47720.5 -158976 2.58097e+07 57259.9 -255977 2.58097e+07 -57259.9 255977 2.6103e+07 -47720.5 158976
          2.6103e+07 -47720.5 -158976 2.58097e+07 -57259.9 -255977 2.58097e+07 57259.9 255977 2.6103e+07 47720.5 158976
          2.59447e+07 -38181.1 -81469 2.57452e+07 -47720.5 -96079.1 2.57452e+07 47720.5 96079.1 2.59447e+07 38181.1 81469
        </DataArray>
        <DataArray type="Float32" Name="total stresses Y" NumberOfComponents="3" format="ascii">
          43582.3 4.308e+07 28740.6 49288.1 4.33092e+07 64537.3 -49288.1 4.33092e+07 64537.3 -43582.3 4.308e+07 28740.6
          49288.1 4.29416e+07 38495.5 54993.9 4.31165e+07 168934 -54993.9 4.31165e+07 168934 -49288.1 4.29416e+07 38495.5
          -49288.1 4.29416e+07 -38495.5 -54993.9 4.31165e+07 -168934 54993.9 4.31165e+07 -168934 49288.1 4.29416e+07 -38495.5
          -43582.3 4.308e+07 -28740.6 -49288.1 4.33092e+07 -64537.3 49288.1 4.33092e+07 -64537.3 43582.3 4.308e+07 -28740.6
          81075.2 3.75171e+07 32244.4 181634 3.80938e+07 166847 -181634 3.80938e+07 166847 -81075.2 3.75171e+07 32244.4
          181634 3.73093e+07 42854.3 282192 3.86702e+07 274172 -282192 3.86702e+07 274172 -181634 3.73093e+07 42854.3
          -181634 3.73093e+07 -42854.3 -282192 3.86702e+07 -274172 282192 3.86702e+07 -274172 181634 3.73093e+07 -42854.3
          -81075.2 3.75171e+07 -32244.4 -181634 3.80938e+07 -166847 181634 3.80938e+07 -166847 81075.2 3.75171e+07 -32244.4
          76973.9 3.17863e+07 -75846.6 180335 3.23549e+07 -220079 -180335 3.23549e+07 -220079 -76973.9 3.17863e+07 -75846.6
          180335 3.16052e+07 -83028.4 283696 3.29912e+07 -318854 -283696 3.29912e+07 -318854 -180335 3.16052e+07 -83028.4
          -180335 3.16052e+07 83028.4 -283696 3.29912e+07 318854 283696 3.29912e+07 318854 180335 3.16052e+07 83028.4
          -76973.9 3.17863e+07 75846.6 -180335 3.23549e+07 220079 180335 3.23549e+07 220079 76973.9 3.17863e+07 75846.6
          38181.1 2.59447e+07 -81469 47720.5 2.6103e+07 -158976 -47720.5 2.6103e+07 -158976 -38181.1 2.59447e+07 -81469
          47720.5 2.57452e+07 -96079.1 57259.9 2.58097e+07 -255977 -57259.9 2.58097e+07 -255977 -47720.5 2.57452e+07 -96079.1
          -47720.5 2.57452e+07 96079.1 -57259.9 2.58097e+07 255977 57259.9 2.58097e+07 255977 47720.5 2.57452e+07 96079.1
          -38181.1 2.59447e+07 81469 -47720.5 2.6103e+07 158976 47720.5 2.6103e+07 158976 38181.1 2.59447e+07 81469
        </DataArray>
        <DataArray type="Float32" Name="total stresses Z" NumberOfComponents="3" format="ascii">
          28740.6 28740.6 4.25811e+07 38495.5 64537.3 4.27891e+07 -38495.5 64537.3 4.27891e+07 -28740.6 28740.6 4.25811e+07
          64537.3 38495.5 4.27891e+07 168934 168934 4.34053e+07 -168934 168934 4.34053e+07 -64537.3 38495.5 4.27891e+07
          64537.3 -38495.5 4.27891e+07 168934 -168934 4.34053e+07 -168934 -168934 4.34053e+07 -64537.3 -38495.5 4.27891e+07
          28740.6 -28740.6 4.25811e+07 38495.5 -64537.3 4.27891e+07 -38495.5 -64537.3 4.27891e+07 -28740.6 -28740.6 4.25811e+07
          32244.4 32244.4 3.67461e+07 42854.3 166847 3.68599e+07 -42854.3 166847 3.68599e+07 -32244.4 32244.4 3.67461e+07
          166847 42854.3 3.68599e+07 274172 274172 3.82232e+07 -274172 274172 3.82232e+07 -166847 42854.3 3.68599e+07
          166847 -42854.3 3.68599e+07 274172 -274172 3.82232e+07 -274172 -274172 3.82232e+07 -166847 -42854.3 3.68599e+07
          32244.4 -32244.4 3.67461e+07 42854.3 -166847 3.68599e+07 -42854.3 -166847 3.68599e+07 -32244.4 -32244.4 3.67461e+07
          -75846.6 -75846.6 3.10818e+07 -83028.4 -220079 3.11437e+07 83028.4 -220079 3.11437e+07 75846.6 -75846.6 3.10818e+07
          -220079 -83028.4 3.11437e+07 -318854 -318854 3.24434e+07 318854 -318854 3.24434e+07 220079 -83028.4 3.11437e+07
          -220079 83028.4 3.11437e+07 -318854 318854 3.24434e+07 318854 318854 3.24434e+07 220079 83028.4 3.11437e+07
          -75846.6 75846.6 3.10818e+07 -83028.4 220079 3.11437e+07 83028.4 220079 3.11437e+07 75846.6 75846.6 3.10818e+07
          -81469 -81469 2.56207e+07 -96079.1 -158976 2.56646e+07 96079.1 -158976 2.56646e+07 81469 -81469 2.56207e+07
          -158976 -96079.1 2.56646e+07 -255977 -255977 2.59874e+07 255977 -255977 2.59874e+07 158976 -96079.1 2.56646e+07
          -158976 96079.1 2.56646e+07 -255977 255977 2.59874e+07 255977 255977 2.59874e+07 158976 96079.1 2.56646e+07
          -81469 81469 2.56207e+07 -96079.1 158976 2.56646e+07 96079.1 158976 2.56646e+07 81469 81469 2.56207e+07
        </DataArray>
        <DataArray type="Float32" Name="initial stresses X" NumberOfComponents="3" format="ascii">
          4.28905e+07 0 0 4.28905e+07 0 0 4.28905e+07 0 0 4.28905e+07 0 0
          4.28905e+07 0 0 4.28905e+07 0 0 4.28905e+07 0 0 4.28905e+07 0 0
          4.28905e+07 0 0 4.28905e+07 0 0 4.28905e+07 0 0 4.28905e+07 0 0
          4.28905e+07 0 0 4.28905e+07 0 0 4.28905e+07 0 0 4.28905e+07 0 0
          3.71718e+07 0 0 3.71718e+07 0 0 3.71718e+07 0 0 3.71718e+07 0 0
          3.71718e+07 0 0 3.71718e+07 0 0 3.71718e+07 0 0 3.71718e+07 0 0
          3.71718e+07 0 0 3.71718e+07 0 0 3.71718e+07 0 0 3.71718e+07 0 0
          3.71718e+07 0 0 3.71718e+07 0 0 3.71718e+07 0 0 3.71718e+07 0 0
          3.14531e+07 0 0 3.14531e+07 0 0 3.14531e+07 0 0 3.14531e+07 0 0
          3.14531e+07 0 0 3.14531e+07 0 0 3.14531e+07 0 0 3.14531e+07 0 0
          3.14531e+07 0 0 3.14531e+07 0 0 3.14531e+07 0 0 3.14531e+07 0 0
          3.14531e+07 0 0 3.14531e+07 0 0 3.14531e+07 0 0 3.14531e+07 0 0
          2.57343e+07 0 0 2.57343e+07 0 0 2.57343e+07 0 0 2.57343e+07 0 0
          2.57343e+07 0 0 2.57343e+07 0 0 2.57343e+07 0 0 2.57343e+07 0 0
          2.57343e+07 0 0 2.57343e+07 0 0 2.57343e+07 0 0 2.57343e+07 0 0
          2.57343e+07 0 0 2.57343e+07 0 0 2.57343e+07 0 0 2.57343e+07 0 0
        </DataArray>
        <DataArray type="Float32" Name="initial stresses Y" NumberOfComponents="3" format="ascii">
          0 4.28905e+07 0 0 4.28905e+07 0 0 4.28905e+07 0 0 4.28905e+07 0
          0 4.28905e+07 0 0 4.28905e+07 0 0 4.28905e+07 0 0 4.28905e+07 0
          0 4.28905e+07 0 0 4.28905e+07 0 0 4.28905e+07 0 0 4.28905e+07 0
          0 4.28905e+07 0 0 4.28905e+07 0 0 4.28905e+07 0 0 4.28905e+07 0
          0 3.71718e+07 0 0 3.71718e+07 0 0 3.71718e+07 0 0 3.71718e+07 0
          0 3.71718e+07 0 0 3.71718e+07 0 0 3.71718e+07 0 0 3.71718e+07 0
          0 3.71718e+07 0 0 3.71718e+07 0 0 3.71718e+07 0 0 3.71718e+07 0
          0 3.71718e+07 0 0 3.71718e+07 0 0 3.71718e+07 0 0 3.71718e+07 0
          0 3.14531e+07 0 0 3.14531e+07 0 0 3.14531e+07 0 0 3.14531e+07 0
          0 3.14531e+07 0 0 3.14531e+07 0 0 3.14531e+07 0 0 3.14531e+07 0
          0 3.14531e+07 0 0 3.14531e+07 0 0 3.14531e+07 0 0 3.14531e+07 0
          0 3.14531e+07 0 0 3.14531e+07 0 0 3.14531e+07 0 0 3.14531e+07 0
          0 2.57343e+07 0 0 2.57343e+07 0 0 2.57343e+07 0 0 2.57343e+07 0