<?xml version="1.0"?>
<VTKFile type="UnstructuredGrid" version="0.1" byte_order="LittleEndian">
  <UnstructuredGrid>
    <Piece NumberOfCells="100" NumberOfPoints="121">
      <CellData Scalars="porosity">
        <DataArray type="Float32" Name="porosity" NumberOfComponents="1" format="ascii">
          0.2 0.2 0.2 0.2 0.2 0.2 0.2 0.2 0.2 0.2 0.2 0.2
          0.2 0.2 0.2 0.2 0.2 0.2 0.2 0.2 0.2 0.2 0.2 0.2
          0.2 0.2 0.2 0.2 0.2 0.2 0.2 0.2 0.2 0.2 0.2 0.2
          0.2 0.2 0.2 0.2 0.2 0.2 0.2 0.2 0.2 0.2 0.2 0.2
          0.2 0.2 0.2 0.2 0.2 0.2 0.2 0.2 0.2 0.2 0.2 0.2
          0.2 0.2 0.2 0.2 0.2 0.2 0.2 0.2 0.2 0.2 0.2 0.2
          0.2 0.2 0.2 0.2 0.2 0.2 0.2 0.2 0.2 0.2 0.2 0.2
          0.2 0.2 0.2 0.2 0.2 0.2 0.2 0.2 0.2 0.2 0.2 0.2
          0.2 0.2 0.2 0.2
        </DataArray>
        <DataArray type="Float32" Name="pc" NumberOfComponents="1" format="ascii">
          2224.57 2232.34 2239.89 2246.52 2250.75 2250.75 2246.52 2239.89 2232.34 2224.57 2232.34 2255.16
          2277.37 2297.28 2310.5 2310.5 2297.28 2277.37 2255.16 2232.34 2239.89 2277.37 2314.96 2351.09
          2378.15 2378.15 2351.09 2314.96 2277.37 2239.89 2246.52 2297.28 2351.09 2409.57 2465.11 2465.11
          2409.57 2351.09 2297.28 2246.52 2250.75 2310.5 2378.15 2465.11 2593.14 2593.14 2465.11 2378.15
          2310.5 2250.75 2250.75 2310.5 2378.15 2465.11 2593.14 2593.14 2465.11 2378.15 2310.5 2250.75
          2246.52 2297.28 2351.09 2409.57 2465.11 2465.11 2409.57 2351.09 2297.28 2246.52 2239.89 2277.37
          2314.96 2351.09 2378.15 2378.15 2351.09 2314.96 2277.37 2239.89 2232.34 2255.16 2277.37 2297.28
          2310.5 2310.5 2297.28 2277.37 2255.16 2232.34 2224.57 2232.34 2239.89 2246.52 2250.75 2250.75
          2246.52 2239.89 2232.34 2224.57
        </DataArray>
        <DataArray type="Float32" Name="S_w" NumberOfComponents="1" format="ascii">
          0.498403 0.495253 0.492203 0.489533 0.48784 0.48784 0.489533 0.492203 0.495253 0.498403 0.495253 0.486075
          0.477261 0.469461 0.464334 0.464334 0.469461 0.477261 0.486075 0.495253 0.492203 0.477261 0.462615 0.448868
          0.438789 0.438789 0.448868 0.462615 0.477261 0.492203 0.489533 0.469461 0.448868 0.427324 0.407692 0.407692
          0.427324 0.448868 0.469461 0.489533 0.48784 0.464334 0.438789 0.407692 0.365541 0.365541 0.407692 0.438789
          0.464334 0.48784 0.48784 0.464334 0.438789 0.407692 0.365541 0.365541 0.407692 0.438789 0.464334 0.48784
          0.489533 0.469461 0.448868 0.427324 0.407692 0.407692 0.427324 0.448868 0.469461 0.489533 0.492203 0.477261
          0.462615 0.448868 0.438789 0.438789 0.448868 0.462615 0.477261 0.492203 0.495253 0.486075 0.477261 0.469461
          0.464334 0.464334 0.469461 0.477261 0.486075 0.495253 0.498403 0.495253 0.492203 0.489533 0.48784 0.48784
          0.489533 0.492203 0.495253 0.498403
        </DataArray>
        <DataArray type="Float32" Name="p_w" NumberOfComponents="1" format="ascii">
          100000 100000 100000 100000 100000 100000 100000 100000 100000 100000 100000 100000
          100001 100001 100001 100001 100001 100001 100000 100000 100000 100001 100001 100001
          100001 100001 100001 100001 100001 100000 100000 100001 100001 100002 100002 100002
          100002 100001 100001 100000 100000 100001 100001 100002 100002 100002 100002 100001
          100001 100000 100000 100001 100001 100002 100002 100002 100002 100001 100001 100000
          100000 100001 100001 100002 100002 100002 100002 100001 100001 100000 100000 100001
          100001 100001 100001 100001 100001 100001 100001 100000 100000 100000 100001 100001
          100001 100001 100001 100001 100000 100000 100000 100000 100000 100000 100000 100000
          100000 100000 100000 100000
        </DataArray>
        <DataArray type="Float32" Name="rho_w" NumberOfComponents="1" format="ascii">
          999.701 999.701 999.701 999.701 999.701 999.701 999.701 999.701 999.701 999.701 999.701 999.701
          999.701 999.701 999.701 999.701 999.701 999.701 999.701 999.701 999.701 999.701 999.701 999.701
          999.701 999.701 999.701 999.701 999.701 999.701 999.701 999.701 999.701 999.701 999.701 999.701
          999.701 999.701 999.701 999.701 999.701 999.701 999.701 999.701 999.701 999.701 999.701 999.701
          999.701 999.701 999.701 999.701 999.701 999.701 999.701 999.701 999.701 999.701 999.701 999.701
          999.701 999.701 999.701 999.701 999.701 999.701 999.701 999.701 999.701 999.701 999.701 999.701
          999.701 999.701 999.701 999.701 999.701 999.701 999.701 999.701 999.701 999.701 999.701 999.701
          999.701 999.701 999.701 999.701 999.701 999.701 999.701 999.701 999.701 999.701 999.701 999.701
          999.701 999.701 999.701 999.701
        </DataArray>
        <DataArray type="Float32" Name="mob_w" NumberOfComponents="1" format="ascii">
          53.3522 52.2303 51.1605 50.2377 49.6586 49.6586 50.2377 51.1605 52.2303 53.3522 52.2303 49.0602
          46.1507 43.6825 42.1135 42.1135 43.6825 46.1507 49.0602 52.2303 51.1605 46.1507 41.5964 37.6277
          34.8976 34.8976 37.6277 41.5964 46.1507 51.1605 50.2377 43.6825 37.6277 31.9691 27.3715 27.3715
          31.9691 37.6277 43.6825 50.2377 49.6586 42.1135 34.8976 27.3715 19.1256 19.1256 27.3715 34.8976
          42.1135 49.6586 49.6586 42.1135 34.8976 27.3715 19.1256 19.1256 27.3715 34.8976 42.1135 49.6586
          50.2377 43.6825 37.6277 31.9691 27.3715 27.3715 31.9691 37.6277 43.6825 50.2377 51.1605 46.1507
          41.5964 37.6277 34.8976 34.8976 37.6277 41.5964 46.1507 51.1605 52.2303 49.0602 46.1507 43.6825
          42.1135 42.1135 43.6825 46.1507 49.0602 52.2303 53.3522 52.2303 51.1605 50.2377 49.6586 49.6586
          50.2377 51.1605 52.2303 53.3522
        </DataArray>
        <DataArray type="Float32" Name="S_n" NumberOfComponents="1" format="ascii">
          0.501597 0.504747 0.507797 0.510467 0.51216 0.51216 0.510467 0.507797 0.504747 0.501597 0.504747 0.513925
          0.522739 0.530539 0.535666 0.535666 0.530539 0.522739 0.513925 0.504747 0.507797 0.522739 0.537385 0.551132
          0.561211 0.561211 0.551132 0.537385 0.522739 0.507797 0.510467 0.530539 0.551132 0.572676 0.592308 0.592308
          0.572676 0.551132 0.530539 0.510467 0.51216 0.535666 0.561211 0.592308 0.634459 0.634459 0.592308 0.561211
          0.535666 0.51216 0.51216 0.535666 0.561211 0.592308 0.634459 0.634459 0.592308 0.561211 0.535666 0.51216
          0.510467 0.530539 0.551132 0.572676 0.592308 0.592308 0.572676 0.551132 0.530539 0.510467 0.507797 0.522739
          0.537385 0.551132 0.561211 0.561211 0.551132 0.537385 0.522739 0.507797 0.504747 0.513925 0.522739 0.530539
          0.535666 0.535666 0.530539 0.522739 0.513925 0.504747 0.501597 0.504747 0.507797 0.510467 0.51216 0.51216
          0.510467 0.507797 0.504747 0.501597
        </DataArray>
        <DataArray type="Float32" Name="p_n" NumberOfComponents="1" format="ascii">
          102225 102232 102240 102247 102251 102251 102247 102240 102232 102225 102232 102256
          102278 102298 102311 102311 102298 102278 102256 102232 102240 102278 102316 102352
          102380 102380 102352 102316 102278 102240 102247 102298 102352 102411 102467 102467
          102411 102352 102298 102247 102251 102311 102380 102467 102596 102596 102467 102380
          102311 102251 102251 102311 102380 102467 102596 102596 102467 102380 102311 102251
          102247 102298 102352 102411 102467 102467 102411 102352 102298 102247 102240 102278
          102316 102352 102380 102380 102352 102316 102278 102240 102232 102256 102278 102298
          102311 102311 102298 102278 102256 102232 102225 102232 102240 102247 102251 102251
          102247 102240 102232 102225
        </DataArray>
        <DataArray type="Float32" Name="rho_n" NumberOfComponents="1" format="ascii">
          1.25748 1.25758 1.25768 1.25776 1.25781 1.25781 1.25776 1.25768 1.25758 1.25748 1.25758 1.25787
          1.25814 1.25839 1.25855 1.25855 1.25839 1.25814 1.25787 1.25758 1.25768 1.25814 1.25861 1.25906
          1.25939 1.25939 1.25906 1.25861 1.25814 1.25768 1.25776 1.25839 1.25906 1.25978 1.26047 1.26047
          1.25978 1.25906 1.25839 1.25776 1.25781 1.25855 1.25939 1.26047 1.26205 1.26205 1.26047 1.25939
          1.25855 1.25781 1.25781 1.25855 1.25939 1.26047 1.26205 1.26205 1.26047 1.25939 1.25855 1.25781
          1.25776 1.25839 1.25906 1.25978 1.26047 1.26047 1.25978 1.25906 1.25839 1.25776 1.25768 1.25814
          1.25861 1.25906 1.25939 1.25939 1.25906 1.25861 1.25814 1.25768 1.25758 1.25787 1.25814 1.25839
          1.25855 1.25855 1.25839 1.25814 1.25787 1.25758 1.25748 1.25758 1.25768 1.25776 1.25781 1.25781
          1.25776 1.25768 1.25758 1.25748
        </DataArray>
        <DataArray type="Float32" Name="mob_n" NumberOfComponents="1" format="ascii">
          21138.7 21357.8 21570.7 21757.4 21876.1 21876.1 21757.4 21570.7 21357.8 21138.7 21357.8 22000
          22621.8 23175.9 23542.2 23542.2 23175.9 22621.8 22000 21357.8 21570.7 22621.8 23665.3 24656
          25388.7 25388.7 24656 23665.3 22621.8 21570.7 21757.4 23175.9 24656 26228.6 27681 27681
          26228.6 24656 23175.9 21757.4 21876.1 23542.2 25388.7 27681 30851.6 30851.6 27681 25388.7
          23542.2 21876.1 21876.1 23542.2 25388.7 27681 30851.6 30851.6 27681 25388.7 23542.2 21876.1
          21757.4 23175.9 24656 26228.6 27681 27681 26228.6 24656 23175.9 21757.4 21570.7 22621.8
          23665.3 24656 25388.7 25388.7 24656 23665.3 22621.8 21570.7 21357.8 22000 22621.8 23175.9
          23542.2 23542.2 23175.9 22621.8 22000 21357.8 21138.7 21357.8 21570.7 21757.4 21876.1 21876.1
          21757.4 21570.7 21357.8 21138.7
        </DataArray>
        <DataArray type="Float32" Name="process rank" NumberOfComponents="1" format="ascii">
          0 0 0 0 0 0 0 0 0 0 0 0
          0 0 0 0 0 0 0 0 0 0 0 0
          0 0 0 0 0 0 0 0 0 0 0 0
          0 0 0 0 0 0 0 0 0 0 0 0
          0 0 0 0 0 0 0 0 0 0 0 0
          0 0 0 0 0 0 0 0 0 0 0 0
          0 0 0 0 0 0 0 0 0 0 0 0
          0 0 0 0 0 0 0 0 0 0 0 0
          0 0 0 0
        </DataArray>
      </CellData>
      <Points>
        <DataArray type="Float32" Name="Coordinates" NumberOfComponents="3" format="ascii">
          0 0 0 0.1 0 0 0 0.1 0 0.1 0.1 0
          0.2 0 0 0.2 0.1 0 0.3 0 0 0.3 0.1 0
          0.4 0 0 0.4 0.1 0 0.5 0 0 0.5 0.1 0
          0.6 0 0 0.6 0.1 0 0.7 0 0 0.7 0.1 0
          0.8 0 0 0.8 0.1 0 0.9 0 0 0.9 0.1 0
          1 0 0 1 0.1 0 0 0.2 0 0.1 0.2 0
          0.2 0.2 0 0.3 0.2 0 0.4 0.2 0 0.5 0.2 0
          0.6 0.2 0 0.7 0.2 0 0.8 0.2 0 0.9 0.2 0
          1 0.2 0 0 0.3 0 0.1 0.3 0 0.2 0.3 0
          0.3 0.3 0 0.4 0.3 0 0.5 0.3 0 0.6 0.3 0
          0.7 0.3 0 0.8 0.3 0 0.9 0.3 0 1 0.3 0
          0 0.4 0 0.1 0.4 0 0.2 0.4 0 0.3 0.4 0
          0.4 0.4 0 0.5 0.4 0 0.6 0.4 0 0.7 0.4 0
          0.8 0.4 0 0.9 0.4 0 1 0.4 0 0 0.5 0
          0.1 0.5 0 0.2 0.5 0 0.3 0.5 0 0.4 0.5 0
          0.5 0.5 0 0.6 0.5 0 0.7 0.5 0 0.8 0.5 0
          0.9 0.5 0 1 0.5 0 0 0.6 0 0.1 0.6 0
          0.2 0.6 0 0.3 0.6 0 0.4 0.6 0 0.5 0.6 0
          0.6 0.6 0 0.7 0.6 0 0.8 0.6 0 0.9 0.6 0
          1 0.6 0 0 0.7 0 0.1 0.7 0 0.2 0.7 0
          0.3 0.7 0 0.4 0.7 0 0.5 0.7 0 0.6 0.7 0
          0.7 0.7 0 0.8 0.7 0 0.9 0.7 0 1 0.7 0
          0 0.8 0 0.1 0.8 0 0.2 0.8 0 0.3 0.8 0
          0.4 0.8 0 0.5 0.8 0 0.6 0.8 0 0.7 0.8 0
          0.8 0.8 0 0.9 0.8 0 1 0.8 0 0 0.9 0
          0.1 0.9 0 0.2 0.9 0 0.3 0.9 0 0.4 0.9 0
          0.5 0.9 0 0.6 0.9 0 0.7 0.9 0 0.8 0.9 0
          0.9 0.9 0 1 0.9 0 0 1 0 0.1 1 0
          0.2 1 0 0.3 1 0 0.4 1 0 0.5 1 0
          0.6 1 0 0.7 1 0 0.8 1 0 0.9 1 0
          1 1 0
        </DataArray>
      </Points>
      <Cells>
        <DataArray type="Int32" Name="connectivity" NumberOfComponents="1" format="ascii">
          0 1 3 2 1 4 5 3 4 6 7 5
          6 8 9 7 8 10 11 9 10 12 13 11
          12 14 15 13 14 16 17 15 16 18 19 17
          18 20 21 19 2 3 23 22 3 5 24 23
          5 7 25 24 7 9 26 25 9 11 27 26
          11 13 28 27 13 15 29 28 15 17 30 29
          17 19 31 30 19 21 32 31 22 23 34 33
          23 24 35 34 24 25 36 35 25 26 37 36
          26 27 38 37 27 28 39 38 28 29 40 39
          29 30 41 40 30 31 42 41 31 32 43 42
          33 34 45 44 34 35 46 45 35 36 47 46
          36 37 48 47 37 38 49 48 38 39 50 49
          39 40 51 50 40 41 52 51 41 42 53 52
          42 43 54 53 44 45 56 55 45 46 57 56
          46 47 58 57 47 48 59 58 48 49 60 59
          49 50 61 60 50 51 62 61 51 52 63 62
          52 53 64 63 53 54 65 64 55 56 67 66
          56 57 68 67 57 58 69 68 58 59 70 69
          59 60 71 70 60 61 72 71 61 62 73 72
          62 63 74 73 63 64 75 74 64 65 76 75
          66 67 78 77 67 68 79 78 68 69 80 79
          69 70 81 80 70 71 82 81 71 72 83 82
          72 73 84 83 73 74 85 84 74 75 86 85
          75 76 87 86 77 78 89 88 78 79 90 89
          79 80 91 90 80 81 92 91 81 82 93 92
          82 83 94 93 83 84 95 94 84 85 96 95
          85 86 97 96 86 87 98 97 88 89 100 99
          89 90 101 100 90 91 102 101 91 92 103 102
          92 93 104 103 93 94 105 104 94 95 106 105
          95 96 107 106 96 97 108 107 97 98 109 108
          99 100 111 110 100 101 112 111 101 102 113 112
          102 103 114 113 103 104 115 114 104 105 116 115
          105 106 117 116 106 107 118 117 107 108 119 118
          108 109 120 119
        </DataArray>
        <DataArray type="Int32" Name="offsets" NumberOfComponents="1" format="ascii">
          4 8 12 16 20 24 28 32 36 40 44 48
          52 56 60 64 68 72 76 80 84 88 92 96
          100 104 108 112 116 120 124 128 132 136 140 144
          148 152 156 160 164 168 172 176 180 184 188 192
          196 200 204 208 212 216 220 224 228 232 236 240
          244 248 252 256 260 264 268 272 276 280 284 288
          292 296 300 304 308 312 316 320 324 328 332 336
          340 344 348 352 356 360 364 368 372 376 380 384
          388 392 396 400
        </DataArray>
        <DataArray type="UInt8" Name="types" NumberOfComponents="1" format="ascii">
          9 9 9 9 9 9 9 9 9 9 9 9
          9 9 9 9 9 9 9 9 9 9 9 9
          9 9 9 9 9 9 9 9 9 9 9 9
          9 9 9 9 9 9 9 9 9 9 9 9
          9 9 9 9 9 9 9 9 9 9 9 9
          9 9 9 9 9 9 9 9 9 9 9 9
          9 9 9 9 9 9 9 9 9 9 9 9
          9 9 9 9 9 9 9 9 9 9 9 9
          9 9 9 9
        </DataArray>
      </Cells>
    </Piece>
  </UnstructuredGrid>
</VTKFile>
