<?xml version="1.0"?>
<VTKFile type="UnstructuredGrid" version="0.1" byte_order="LittleEndian">
  <UnstructuredGrid>
    <Piece NumberOfCells="100" NumberOfPoints="121">
      <PointData Vectors="u">
        <DataArray type="Float32" Name="u" NumberOfComponents="3" format="ascii">
          0 0 0 0 0 0 -0.0167977 0 0 0.0409281 0.363294 0
          0 0 0 0.0911066 0.588056 0 0 0 0 0.130874 0.588076 0
          0 0 0 0.156692 0.363309 0 0 0 0 0.165728 -0.000415497 0
          0 0 0 0.157041 -0.364207 0 0 0 0 0.132098 -0.589139 0
          0 0 0 0.0944587 -0.589224 0 0 0 0 0.0488348 -0.364026 0
          0 0 0 0 0 0 -0.00961956 0 0 0.0803135 0.58624 0
          0.152524 0.948628 0 0.205857 0.948544 0 0.238681 0.585951 0 0.249691 -0.00076681 0
          0.238514 -0.587702 0 0.205986 -0.950914 0 0.154006 -0.95181 0 0.0849515 -0.589675 0
          0 0 0 0.00730444 0 0 0.0938215 0.585801 0 0.157096 0.947604 0
          0.19936 0.947384 0 0.223104 0.585208 0 0.230294 -0.000762067 0 0.221677 -0.587025 0
          0.196515 -0.950047 0 0.152848 -0.951428 0 0.0881119 -0.59 0 0 0 0
          0.0225539 0 0 0.0722235 0.362433 0 0.101357 0.585937 0 0.115071 0.585665 0
          0.119493 0.361814 0 0.119495 -0.000262609 0 0.116801 -0.362566 0 0.109235 -0.587066 0
          0.0914051 -0.588219 0 0.056676 -0.365044 0 0 0 0 0.0282842 0 0
          0.0221021 0.00107396 0 0.00586941 0.00118698 0 -0.0143626 0.00100342 0 -0.0311378 0.000792992 0
          -0.038495 0.000591673 0 -0.034339 0.000328459 0 -0.0213882 -5.23562e-05 0 -0.00630706 -0.000480133 0
          0.00279812 -0.000666758 0 0 0 0 0.0217288 0 0 -0.0378753 -0.360865 0
          -0.0931049 -0.584272 0 -0.139371 -0.584245 0 -0.170833 -0.360546 0 -0.182769 0.00146279 0
          -0.173488 0.36356 0 -0.145081 0.58753 0 -0.102756 0.587909 0 -0.0528684 0.364228 0
          0 0 0 0.00585659 0 0 -0.0844141 -0.585792 0 -0.157583 -0.94787 0
          -0.212287 -0.947578 0 -0.246536 -0.584814 0 -0.258645 0.00202466 0 -0.247931 0.588974 0
          -0.214971 0.952086 0 -0.161368 0.952873 0 -0.0891822 0.590539 0 0 0 0
          -0.0113062 0 0 -0.0981222 -0.588299 0 -0.162233 -0.951533 0 -0.205688 -0.950996 0
          -0.230703 -0.586782 0 -0.238948 0.00216631 0 -0.230896 0.591086 0 -0.205508 0.955218 0
          -0.160375 0.955605 0 -0.0924721 0.591866 0 0 0 0 -0.0181253 0 0
          -0.0696093 -0.367307 0 -0.103544 -0.593653 0 -0.123354 -0.59295 0 -0.133074 -0.365463 0
          -0.13587 0.00205104 0 -0.132799 0.369326 0 -0.122239 0.596046 0 -0.100158 0.595378 0
          -0.0610389 0.367376 0 0 0 0 0 0 0 0 -0.00525857 0
          0 -0.00773072 0 0 -0.00697102 0 0 -0.00330957 0 0 0.00196536 0
          0 0.00689845 0 0 0.00944745 0 0 0.00816588 0 0 0.00313597 0
          0 0 0
        </DataArray>
        <DataArray type="Float32" Name="u_exact" NumberOfComponents="3" format="ascii">
          0 0 0 0 0 0 0 0 0 0.0529007 0.345491 0
          0 0 0 0.0940456 0.559017 0 0 0 0 0.123435 0.559017 0
          0 0 0 0.141068 0.345491 0 0 0 0 0.146946 7.19829e-17 0
          0 0 0 0.141068 -0.345491 0 0 -0 0 0.123435 -0.559017 0
          0 -0 0 0.0940456 -0.559017 0 0 -0 0 0.0529007 -0.345491 0
          0 -0 0 0 -1.43966e-16 0 0 0 0 0.0855951 0.559017 0
          0.152169 0.904508 0 0.199722 0.904508 0 0.228254 0.559017 0 0.237764 1.16471e-16 0
          0.228254 -0.559017 0 0.199722 -0.904508 0 0.152169 -0.904508 0 0.0855951 -0.559017 0
          0 -2.32942e-16 0 0 0 0 0.0855951 0.559017 0 0.152169 0.904508 0
          0.199722 0.904508 0 0.228254 0.559017 0 0.237764 1.16471e-16 0 0.228254 -0.559017 0
          0.199722 -0.904508 0 0.152169 -0.904508 0 0.0855951 -0.559017 0 0 -2.32942e-16 0
          0 0 0 0.0529007 0.345491 0 0.0940456 0.559017 0 0.123435 0.559017 0
          0.141068 0.345491 0 0.146946 7.19829e-17 0 0.141068 -0.345491 0 0.123435 -0.559017 0
          0.0940456 -0.559017 0 0.0529007 -0.345491 0 0 -1.43966e-16 0 0 0 0
          1.10218e-17 7.19829e-17 0 1.95943e-17 1.16471e-16 0 2.57176e-17 1.16471e-16 0 2.93915e-17 7.19829e-17 0
          3.06162e-17 1.49976e-32 0 2.93915e-17 -7.19829e-17 0 2.57176e-17 -1.16471e-16 0 1.95943e-17 -1.16471e-16 0
          1.10218e-17 -7.19829e-17 0 0 -2.99952e-32 0 0 0 0 -0.0529007 -0.345491 0
          -0.0940456 -0.559017 0 -0.123435 -0.559017 0 -0.141068 -0.345491 0 -0.146946 -7.19829e-17 0
          -0.141068 0.345491 0 -0.123435 0.559017 0 -0.0940456 0.559017 0 -0.0529007 0.345491 0
          0 1.43966e-16 0 -0 -0 0 -0.0855951 -0.559017 0 -0.152169 -0.904508 0
          -0.199722 -0.904508 0 -0.228254 -0.559017 0 -0.237764 -1.16471e-16 0 -0.228254 0.559017 0
          -0.199722 0.904508 0 -0.152169 0.904508 0 -0.0855951 0.559017 0 -0 2.32942e-16 0
          -0 -0 0 -0.0855951 -0.559017 0 -0.152169 -0.904508 0 -0.199722 -0.904508 0
          -0.228254 -0.559017 0 -0.237764 -1.16471e-16 0 -0.228254 0.559017 0 -0.199722 0.904508 0
          -0.152169 0.904508 0 -0.0855951 0.559017 0 -0 2.32942e-16 0 -0 -0 0
          -0.0529007 -0.345491 0 -0.0940456 -0.559017 0 -0.123435 -0.559017 0 -0.141068 -0.345491 0
          -0.146946 -7.19829e-17 0 -0.141068 0.345491 0 -0.123435 0.559017 0 -0.0940456 0.559017 0
          -0.0529007 0.345491 0 -0 1.43966e-16 0 -0 -0 0 -2.20436e-17 -1.43966e-16 0
          -3.91887e-17 -2.32942e-16 0 -5.14352e-17 -2.32942e-16 0 -5.8783e-17 -1.43966e-16 0 -6.12323e-17 -2.99952e-32 0
          -5.8783e-17 1.43966e-16 0 -5.14352e-17 2.32942e-16 0 -3.91887e-17 2.32942e-16 0 -2.20436e-17 1.43966e-16 0
          -0 5.99904e-32 0
        </DataArray>
      </PointData>
      <CellData Scalars="process rank">
        <DataArray type="Float32" Name="process rank" NumberOfComponents="1" format="ascii">
          0 0 0 0 0 0 0 0 0 0 0 0
          0 0 0 0 0 0 0 0 0 0 0 0
          0 0 0 0 0 0 0 0 0 0 0 0
          0 0 0 0 0 0 0 0 0 0 0 0
          0 0 0 0 0 0 0 0 0 0 0 0
          0 0 0 0 0 0 0 0 0 0 0 0
          0 0 0 0 0 0 0 0 0 0 0 0
          0 0 0 0 0 0 0 0 0 0 0 0
          0 0 0 0
        </DataArray>
      </CellData>
      <Points>
        <DataArray type="Float32" Name="Coordinates" NumberOfComponents="3" format="ascii">
          0 0 0 0.1 0 0 0 0.1 0 0.1 0.1 0
          0.2 0 0 0.2 0.1 0 0.3 0 0 0.3 0.1 0
          0.4 0 0 0.4 0.1 0 0.5 0 0 0.5 0.1 0
          0.6 0 0 0.6 0.1 0 0.7 0 0 0.7 0.1 0
          0.8 0 0 0.8 0.1 0 0.9 0 0 0.9 0.1 0
          1 0 0 1 0.1 0 0 0.2 0 0.1 0.2 0
          0.2 0.2 0 0.3 0.2 0 0.4 0.2 0 0.5 0.2 0
          0.6 0.2 0 0.7 0.2 0 0.8 0.2 0 0.9 0.2 0
          1 0.2 0 0 0.3 0 0.1 0.3 0 0.2 0.3 0
          0.3 0.3 0 0.4 0.3 0 0.5 0.3 0 0.6 0.3 0
          0.7 0.3 0 0.8 0.3 0 0.9 0.3 0 1 0.3 0
          0 0.4 0 0.1 0.4 0 0.2 0.4 0 0.3 0.4 0
          0.4 0.4 0 0.5 0.4 0 0.6 0.4 0 0.7 0.4 0
          0.8 0.4 0 0.9 0.4 0 1 0.4 0 0 0.5 0
          0.1 0.5 0 0.2 0.5 0 0.3 0.5 0 0.4 0.5 0
          0.5 0.5 0 0.6 0.5 0 0.7 0.5 0 0.8 0.5 0
          0.9 0.5 0 1 0.5 0 0 0.6 0 0.1 0.6 0
          0.2 0.6 0 0.3 0.6 0 0.4 0.6 0 0.5 0.6 0
          0.6 0.6 0 0.7 0.6 0 0.8 0.6 0 0.9 0.6 0
          1 0.6 0 0 0.7 0 0.1 0.7 0 0.2 0.7 0
          0.3 0.7 0 0.4 0.7 0 0.5 0.7 0 0.6 0.7 0
          0.7 0.7 0 0.8 0.7 0 0.9 0.7 0 1 0.7 0
          0 0.8 0 0.1 0.8 0 0.2 0.8 0 0.3 0.8 0
          0.4 0.8 0 0.5 0.8 0 0.6 0.8 0 0.7 0.8 0
          0.8 0.8 0 0.9 0.8 0 1 0.8 0 0 0.9 0
          0.1 0.9 0 0.2 0.9 0 0.3 0.9 0 0.4 0.9 0
          0.5 0.9 0 0.6 0.9 0 0.7 0.9 0 0.8 0.9 0
          0.9 0.9 0 1 0.9 0 0 1 0 0.1 1 0
          0.2 1 0 0.3 1 0 0.4 1 0 0.5 1 0
          0.6 1 0 0.7 1 0 0.8 1 0 0.9 1 0
          1 1 0
        </DataArray>
      </Points>
      <Cells>
        <DataArray type="Int32" Name="connectivity" NumberOfComponents="1" format="ascii">
          0 1 3 2 1 4 5 3 4 6 7 5
          6 8 9 7 8 10 11 9 10 12 13 11
          12 14 15 13 14 16 17 15 16 18 19 17
          18 20 21 19 2 3 23 22 3 5 24 23
          5 7 25 24 7 9 26 25 9 11 27 26
          11 13 28 27 13 15 29 28 15 17 30 29
          17 19 31 30 19 21 32 31 22 23 34 33
          23 24 35 34 24 25 36 35 25 26 37 36
          26 27 38 37 27 28 39 38 28 29 40 39
          29 30 41 40 30 31 42 41 31 32 43 42
          33 34 45 44 34 35 46 45 35 36 47 46
          36 37 48 47 37 38 49 48 38 39 50 49
          39 40 51 50 40 41 52 51 41 42 53 52
          42 43 54 53 44 45 56 55 45 46 57 56
          46 47 58 57 47 48 59 58 48 49 60 59
          49 50 61 60 50 51 62 61 51 52 63 62
          52 53 64 63 53 54 65 64 55 56 67 66
          56 57 68 67 57 58 69 68 58 59 70 69
          59 60 71 70 60 61 72 71 61 62 73 72
          62 63 74 73 63 64 75 74 64 65 76 75
          66 67 78 77 67 68 79 78 68 69 80 79
          69 70 81 80 70 71 82 81 71 72 83 82
          72 73 84 83 73 74 85 84 74 75 86 85
          75 76 87 86 77 78 89 88 78 79 90 89
          79 80 91 90 80 81 92 91 81 82 93 92
          82 83 94 93 83 84 95 94 84 85 96 95
          85 86 97 96 86 87 98 97 88 89 100 99
          89 90 101 100 90 91 102 101 91 92 103 102
          92 93 104 103 93 94 105 104 94 95 106 105
          95 96 107 106 96 97 108 107 97 98 109 108
          99 100 111 110 100 101 112 111 101 102 113 112
          102 103 114 113 103 104 115 114 104 105 116 115
          105 106 117 116 106 107 118 117 107 108 119 118
          108 109 120 119
        </DataArray>
        <DataArray type="Int32" Name="offsets" NumberOfComponents="1" format="ascii">
          4 8 12 16 20 24 28 32 36 40 44 48
          52 56 60 64 68 72 76 80 84 88 92 96
          100 104 108 112 116 120 124 128 132 136 140 144
          148 152 156 160 164 168 172 176 180 184 188 192
          196 200 204 208 212 216 220 224 228 232 236 240
          244 248 252 256 260 264 268 272 276 280 284 288
          292 296 300 304 308 312 316 320 324 328 332 336
          340 344 348 352 356 360 364 368 372 376 380 384
          388 392 396 400
        </DataArray>
        <DataArray type="UInt8" Name="types" NumberOfComponents="1" format="ascii">
          9 9 9 9 9 9 9 9 9 9 9 9
          9 9 9 9 9 9 9 9 9 9 9 9
          9 9 9 9 9 9 9 9 9 9 9 9
          9 9 9 9 9 9 9 9 9 9 9 9
          9 9 9 9 9 9 9 9 9 9 9 9
          9 9 9 9 9 9 9 9 9 9 9 9
          9 9 9 9 9 9 9 9 9 9 9 9
          9 9 9 9 9 9 9 9 9 9 9 9
          9 9 9 9
        </DataArray>
      </Cells>
    </Piece>
  </UnstructuredGrid>
</VTKFile>
