<?xml version="1.0"?>
<VTKFile type="UnstructuredGrid" version="0.1" byte_order="LittleEndian">
  <UnstructuredGrid>
    <Piece NumberOfCells="1000" NumberOfPoints="1331">
      <PointData Scalars="ux">
        <DataArray type="Float32" Name="ux" NumberOfComponents="1" format="ascii">
          0 -1e-07 0 -1e-07 -1.12526e-29 -1e-07 -4.15191e-30 -1e-07 -2e-07 -2e-07 -2e-07 -2e-07
          -3e-07 -3e-07 -3e-07 -3e-07 -4e-07 -4e-07 -4e-07 -4e-07 -5e-07 -5e-07 -5e-07 -5e-07
          -6e-07 -6e-07 -6e-07 -6e-07 -7e-07 -7e-07 -7e-07 -7e-07 -8e-07 -8e-07 -8e-07 -8e-07
          -9e-07 -9e-07 -9e-07 -9e-07 -1e-06 -1e-06 -1e-06 -1e-06 0 -1e-07 -5.31896e-30 -1e-07
          -2e-07 -2e-07 -3e-07 -3e-07 -4e-07 -4e-07 -5e-07 -5e-07 -6e-07 -6e-07 -7e-07 -7e-07
          -8e-07 -8e-07 -9e-07 -9e-07 -1e-06 -1e-06 0 -1e-07 2.96509e-30 -1e-07 -2e-07 -2e-07
          -3e-07 -3e-07 -4e-07 -4e-07 -5e-07 -5e-07 -6e-07 -6e-07 -7e-07 -7e-07 -8e-07 -8e-07
          -9e-07 -9e-07 -1e-06 -1e-06 0 -1e-07 -2.6928e-30 -1e-07 -2e-07 -2e-07 -3e-07 -3e-07
          -4e-07 -4e-07 -5e-07 -5e-07 -6e-07 -6e-07 -7e-07 -7e-07 -8e-07 -8e-07 -9e-07 -9e-07
          -1e-06 -1e-06 0 -1e-07 -1.05258e-30 -1e-07 -2e-07 -2e-07 -3e-07 -3e-07 -4e-07 -4e-07
          -5e-07 -5e-07 -6e-07 -6e-07 -7e-07 -7e-07 -8e-07 -8e-07 -9e-07 -9e-07 -1e-06 -1e-06
          0 -1e-07 2.41096e-30 -1e-07 -2e-07 -2e-07 -3e-07 -3e-07 -4e-07 -4e-07 -5e-07 -5e-07
          -6e-07 -6e-07 -7e-07 -7e-07 -8e-07 -8e-07 -9e-07 -9e-07 -1e-06 -1e-06 0 -1e-07
          -3.16032e-30 -1e-07 -2e-07 -2e-07 -3e-07 -3e-07 -4e-07 -4e-07 -5e-07 -5e-07 -6e-07 -6e-07
          -7e-07 -7e-07 -8e-07 -8e-07 -9e-07 -9e-07 -1e-06 -1e-06 0 -1e-07 -1.88941e-31 -1e-07
          -2e-07 -2e-07 -3e-07 -3e-07 -4e-07 -4e-07 -5e-07 -5e-07 -6e-07 -6e-07 -7e-07 -7e-07
          -8e-07 -8e-07 -9e-07 -9e-07 -1e-06 -1e-06 0 -1e-07 2.50818e-29 -1e-07 -2e-07 -2e-07
          -3e-07 -3e-07 -4e-07 -4e-07 -5e-07 -5e-07 -6e-07 -6e-07 -7e-07 -7e-07 -8e-07 -8e-07
          -9e-07 -9e-07 -1e-06 -1e-06 0 -1e-07 4.40396e-30 -1e-07 -2e-07 -2e-07 -3e-07 -3e-07
          -4e-07 -4e-07 -5e-07 -5e-07 -6e-07 -6e-07 -7e-07 -7e-07 -8e-07 -8e-07 -9e-07 -9e-07
          -1e-06 -1e-06 -8.01221e-30 -1e-07 1.05274e-29 -1e-07 -2e-07 -2e-07 -3e-07 -3e-07 -4e-07 -4e-07
          -5e-07 -5e-07 -6e-07 -6e-07 -7e-07 -7e-07 -8e-07 -8e-07 -9e-07 -9e-07 -1e-06 -1e-06
          3.89633e-29 -1e-07 -2e-07 -3e-07 -4e-07 -5e-07 -6e-07 -7e-07 -8e-07 -9e-07 -1e-06 4.49982e-29
          -1e-07 -2e-07 -3e-07 -4e-07 -5e-07 -6e-07 -7e-07 -8e-07 -9e-07 -1e-06 -1.72007e-31 -1e-07
          -2e-07 -3e-07 -4e-07 -5e-07 -6e-07 -7e-07 -8e-07 -9e-07 -1e-06 3.83351e-29 -1e-07 -2e-07
          -3e-07 -4e-07 -5e-07 -6e-07 -7e-07 -8e-07 -9e-07 -1e-06 -7.03305e-29 -1e-07 -2e-07 -3e-07
          -4e-07 -5e-07 -6e-07 -7e-07 -8e-07 -9e-07 -1e-06 -8.47752e-30 -1e-07 -2e-07 -3e-07 -4e-07
          -5e-07 -6e-07 -7e-07 -8e-07 -9e-07 -1e-06 3.13851e-29 -1e-07 -2e-07 -3e-07 -4e-07 -5e-07
          -6e-07 -7e-07 -8e-07 -9e-07 -1e-06 1.7998e-30 -1e-07 -2e-07 -3e-07 -4e-07 -5e-07 -6e-07
          -7e-07 -8e-07 -9e-07 -1e-06 -2.8068e-30 -1e-07 -2e-07 -3e-07 -4e-07 -5e-07 -6e-07 -7e-07
          -8e-07 -9e-07 -1e-06 5.6218e-29 -1e-07 1.64983e-28 -1e-07 -2e-07 -2e-07 -3e-07 -3e-07 -4e-07
          -4e-07 -5e-07 -5e-07 -6e-07 -6e-07 -7e-07 -7e-07 -8e-07 -8e-07 -9e-07 -9e-07 -1e-06
          -1e-06 3.99584e-29 -1e-07 -2e-07 -3e-07 -4e-07 -5e-07 -6e-07 -7e-07 -8e-07 -9e-07 -1e-06
          -1.41432e-29 -1e-07 -2e-07 -3e-07 -4e-07 -5e-07 -6e-07 -7e-07 -8e-07 -9e-07 -1e-06 -2.46551e-29
          -1e-07 -2e-07 -3e-07 -4e-07 -5e-07 -6e-07 -7e-07 -8e-07 -9e-07 -1e-06 -7.58931e-29 -1e-07
          -2e-07 -3e-07 -4e-07 -5e-07 -6e-07 -7e-07 -8e-07 -9e-07 -1e-06 -8.37454e-29 -1e-07 -2e-07
          -3e-07 -4e-07 -5e-07 -6e-07 -7e-07 -8e-07 -9e-07 -1e-06 -1.15215e-28 -1e-07 -2e-07 -3e-07
          -4e-07 -5e-07 -6e-07 -7e-07 -8e-07 -9e-07 -1e-06 -1.27453e-28 -1e-07 -2e-07 -3e-07 -4e-07
          -5e-07 -6e-07 -7e-07 -8e-07 -9e-07 -1e-06 3.39259e-29 -1e-07 -2e-07 -3e-07 -4e-07 -5e-07
          -6e-07 -7e-07 -8e-07 -9e-07 -1e-06 -1.39886e-31 -1e-07 -2e-07 -3e-07 -4e-07 -5e-07 -6e-07
          -7e-07 -8e-07 -9e-07 -1e-06 -1.23715e-28 -1e-07 1.06737e-28 -1e-07 -2e-07 -2e-07 -3e-07 -3e-07
          -4e-07 -4e-07 -5e-07 -5e-07 -6e-07 -6e-07 -7e-07 -7e-07 -8e-07 -8e-07 -9e-07 -9e-07
          -1e-06 -1e-06 -3.70822e-29 -1e-07 -2e-07 -3e-07 -4e-07 -5e-07 -6e-07 -7e-07 -8e-07 -9e-07
          -1e-06 -1.20497e-29 -1e-07 -2e-07 -3e-07 -4e-07 -5e-07 -6e-07 -7e-07 -8e-07 -9e-07 -1e-06
          2.34441e-29 -1e-07 -2e-07 -3e-07 -4e-07 -5e-07 -6e-07 -7e-07 -8e-07 -9e-07 -1e-06 2.68488e-31
          -1e-07 -2e-07 -3e-07 -4e-07 -5e-07 -6e-07 -7e-07 -8e-07 -9e-07 -1e-06 2.78404e-29 -1e-07
          -2e-07 -3e-07 -4e-07 -5e-07 -6e-07 -7e-07 -8e-07 -9e-07 -1e-06 1.60245e-29 -1e-07 -2e-07
          -3e-07 -4e-07 -5e-07 -6e-07 -7e-07 -8e-07 -9e-07 -1e-06 -2.21781e-31 -1e-07 -2e-07 -3e-07
          -4e-07 -5e-07 -6e-07 -7e-07 -8e-07 -9e-07 -1e-06 -8.59685e-31 -1e-07 -2e-07 -3e-07 -4e-07
          -5e-07 -6e-07 -7e-07 -8e-07 -9e-07 -1e-06 -1.97504e-29 -1e-07 -2e-07 -3e-07 -4e-07 -5e-07
          -6e-07 -7e-07 -8e-07 -9e-07 -1e-06 3.45757e-29 -1e-07 7.63101e-29 -1e-07 -2e-07 -2e-07 -3e-07
          -3e-07 -4e-07 -4e-07 -5e-07 -5e-07 -6e-07 -6e-07 -7e-07 -7e-07 -8e-07 -8e-07 -9e-07
          -9e-07 -1e-06 -1e-06 -1.79102e-29 -1e-07 -2e-07 -3e-07 -4e-07 -5e-07 -6e-07 -7e-07 -8e-07
          -9e-07 -1e-06 -3.71828e-29 -1e-07 -2e-07 -3e-07 -4e-07 -5e-07 -6e-07 -7e-07 -8e-07 -9e-07
          -1e-06 -4.68162e-29 -1e-07 -2e-07 -3e-07 -4e-07 -5e-07 -6e-07 -7e-07 -8e-07 -9e-07 -1e-06
          -1.04025e-29 -1e-07 -2e-07 -3e-07 -4e-07 -5e-07 -6e-07 -7e-07 -8e-07 -9e-07 -1e-06 1.60034e-30
          -1e-07 -2e-07 -3e-07 -4e-07 -5e-07 -6e-07 -7e-07 -8e-07 -9e-07 -1e-06 -8.59377e-29 -1e-07
          -2e-07 -3e-07 -4e-07 -5e-07 -6e-07 -7e-07 -8e-07 -9e-07 -1e-06 1.38548e-29 -1e-07 -2e-07
          -3e-07 -4e-07 -5e-07 -6e-07 -7e-07 -8e-07 -9e-07 -1e-06 -6.41972e-31 -1e-07 -2e-07 -3e-07
          -4e-07 -5e-07 -6e-07 -7e-07 -8e-07 -9e-07 -1e-06 -1.27368e-33 -1e-07 -2e-07 -3e-07 -4e-07
          -5e-07 -6e-07 -7e-07 -8e-07 -9e-07 -1e-06 1.65875e-29 -1e-07 7.99728e-31 -1e-07 -2e-07 -2e-07
          -3e-07 -3e-07 -4e-07 -4e-07 -5e-07 -5e-07 -6e-07 -6e-07 -7e-07 -7e-07 -8e-07 -8e-07
          -9e-07 -9e-07 -1e-06 -1e-06 1.12236e-29 -1e-07 -2e-07 -3e-07 -4e-07 -5e-07 -6e-07 -7e-07
          -8e-07 -9e-07 -1e-06 7.03127e-30 -1e-07 -2e-07 -3e-07 -4e-07 -5e-07 -6e-07 -7e-07 -8e-07
          -9e-07 -1e-06 7.74756e-30 -1e-07 -2e-07 -3e-07 -4e-07 -5e-07 -6e-07 -7e-07 -8e-07 -9e-07
          -1e-06 6.58314e-30 -1e-07 -2e-07 -3e-07 -4e-07 -5e-07 -6e-07 -7e-07 -8e-07 -9e-07 -1e-06
          3.51868e-31 -1e-07 -2e-07 -3e-07 -4e-07 -5e-07 -6e-07 -7e-07 -8e-07 -9e-07 -1e-06 3.31982e-30
          -1e-07 -2e-07 -3e-07 -4e-07 -5e-07 -6e-07 -7e-07 -8e-07 -9e-07 -1e-06 1.77064e-29 -1e-07
          -2e-07 -3e-07 -4e-07 -5e-07 -6e-07 -7e-07 -8e-07 -9e-07 -1e-06 -1.22796e-30 -1e-07 -2e-07
          -3e-07 -4e-07 -5e-07 -6e-07 -7e-07 -8e-07 -9e-07 -1e-06 -2.67997e-30 -1e-07 -2e-07 -3e-07
          -4e-07 -5e-07 -6e-07 -7e-07 -8e-07 -9e-07 -1e-06 -2.89282e-29 -1e-07 -3.68639e-29 -1e-07 -2e-07
          -2e-07 -3e-07 -3e-07 -4e-07 -4e-07 -5e-07 -5e-07 -6e-07 -6e-07 -7e-07 -7e-07 -8e-07
          -8e-07 -9e-07 -9e-07 -1e-06 -1e-06 2.62489e-29 -1e-07 -2e-07 -3e-07 -4e-07 -5e-07 -6e-07
          -7e-07 -8e-07 -9e-07 -1e-06 -7.55676e-30 -1e-07 -2e-07 -3e-07 -4e-07 -5e-07 -6e-07 -7e-07
          -8e-07 -9e-07 -1e-06 8.6136e-30 -1e-07 -2e-07 -3e-07 -4e-07 -5e-07 -6e-07 -7e-07 -8e-07
          -9e-07 -1e-06 9.3882e-30 -1e-07 -2e-07 -3e-07 -4e-07 -5e-07 -6e-07 -7e-07 -8e-07 -9e-07
          -1e-06 1.39848e-30 -1e-07 -2e-07 -3e-07 -4e-07 -5e-07 -6e-07 -7e-07 -8e-07 -9e-07 -1e-06
          2.16187e-29 -1e-07 -2e-07 -3e-07 -4e-07 -5e-07 -6e-07 -7e-07 -8e-07 -9e-07 -1e-06 2.0206e-29
          -1e-07 -2e-07 -3e-07 -4e-07 -5e-07 -6e-07 -7e-07 -8e-07 -9e-07 -1e-06 -9.35061e-31 -1e-07
          -2e-07 -3e-07 -4e-07 -5e-07 -6e-07 -7e-07 -8e-07 -9e-07 -1e-06 4.60068e-30 -1e-07 -2e-07
          -3e-07 -4e-07 -5e-07 -6e-07 -7e-07 -8e-07 -9e-07 -1e-06 4.91868e-30 -1e-07 -4.02156e-30 -1e-07
          -2e-07 -2e-07 -3e-07 -3e-07 -4e-07 -4e-07 -5e-07 -5e-07 -6e-07 -6e-07 -7e-07 -7e-07
          -8e-07 -8e-07 -9e-07 -9e-07 -1e-06 -1e-06 -1.48345e-30 -1e-07 -2e-07 -3e-07 -4e-07 -5e-07
          -6e-07 -7e-07 -8e-07 -9e-07 -1e-06 4.80056e-30 -1e-07 -2e-07 -3e-07 -4e-07 -5e-07 -6e-07
          -7e-07 -8e-07 -9e-07 -1e-06 5.53508e-30 -1e-07 -2e-07 -3e-07 -4e-07 -5e-07 -6e-07 -7e-07
          -8e-07 -9e-07 -1e-06 -8.01983e-30 -1e-07 -2e-07 -3e-07 -4e-07 -5e-07 -6e-07 -7e-07 -8e-07
          -9e-07 -1e-06 4.45829e-30 -1e-07 -2e-07 -3e-07 -4e-07 -5e-07 -6e-07 -7e-07 -8e-07 -9e-07
          -1e-06 -7.36373e-30 -1e-07 -2e-07 -3e-07 -4e-07 -5e-07 -6e-07 -7e-07 -8e-07 -9e-07 -1e-06
          -1.73354e-29 -1e-07 -2e-07 -3e-07 -4e-07 -5e-07 -6e-07 -7e-07 -8e-07 -9e-07 -1e-06 1.51944e-30
          -1e-07 -2e-07 -3e-07 -4e-07 -5e-07 -6e-07 -7e-07 -8e-07 -9e-07 -1e-06 -3.97586e-30 -1e-07
          -2e-07 -3e-07 -4e-07 -5e-07 -6e-07 -7e-07 -8e-07 -9e-07 -1e-06 -1.0056e-29 -1e-07 -1.33152e-29
          -1e-07 -2e-07 -2e-07 -3e-07 -3e-07 -4e-07 -4e-07 -5e-07 -5e-07 -6e-07 -6e-07 -7e-07
          -7e-07 -8e-07 -8e-07 -9e-07 -9e-07 -1e-06 -1e-06 -5.17666e-30 -1e-07 -2e-07 -3e-07 -4e-07
          -5e-07 -6e-07 -7e-07 -8e-07 -9e-07 -1e-06 -1.56927e-30 -1e-07 -2e-07 -3e-07 -4e-07 -5e-07
          -6e-07 -7e-07 -8e-07 -9e-07 -1e-06 1.90753e-30 -1e-07 -2e-07 -3e-07 -4e-07 -5e-07 -6e-07
          -7e-07 -8e-07 -9e-07 -1e-06 -3.93589e-30 -1e-07 -2e-07 -3e-07 -4e-07 -5e-07 -6e-07 -7e-07
          -8e-07 -9e-07 -1e-06 -2.3213e-30 -1e-07 -2e-07 -3e-07 -4e-07 -5e-07 -6e-07 -7e-07 -8e-07
          -9e-07 -1e-06 -1.71264e-30 -1e-07 -2e-07 -3e-07 -4e-07 -5e-07 -6e-07 -7e-07 -8e-07 -9e-07
          -1e-06 4.41339e-30 -1e-07 -2e-07 -3e-07 -4e-07 -5e-07 -6e-07 -7e-07 -8e-07 -9e-07 -1e-06
          -7.02639e-31 -1e-07 -2e-07 -3e-07 -4e-07 -5e-07 -6e-07 -7e-07 -8e-07 -9e-07 -1e-06 5.59738e-31
          -1e-07 -2e-07 -3e-07 -4e-07 -5e-07 -6e-07 -7e-07 -8e-07 -9e-07 -1e-06 -3.37655e-33 -1e-07
          -6.40209e-33 -1e-07 -2e-07 -2e-07 -3e-07 -3e-07 -4e-07 -4e-07 -5e-07 -5e-07 -6e-07 -6e-07
          -7e-07 -7e-07 -8e-07 -8e-07 -9e-07 -9e-07 -1e-06 -1e-06 -1.53309e-32 -1e-07 -2e-07 -3e-07
          -4e-07 -5e-07 -6e-07 -7e-07 -8e-07 -9e-07 -1e-06 2.02064e-32 -1e-07 -2e-07 -3e-07 -4e-07
          -5e-07 -6e-07 -7e-07 -8e-07 -9e-07 -1e-06 4.0754e-33 -1e-07 -2e-07 -3e-07 -4e-07 -5e-07
          -6e-07 -7e-07 -8e-07 -9e-07 -1e-06 -7.04247e-33 -1e-07 -2e-07 -3e-07 -4e-07 -5e-07 -6e-07
          -7e-07 -8e-07 -9e-07 -1e-06 2.32845e-32 -1e-07 -2e-07 -3e-07 -4e-07 -5e-07 -6e-07 -7e-07
          -8e-07 -9e-07 -1e-06 6.67698e-33 -1e-07 -2e-07 -3e-07 -4e-07 -5e-07 -6e-07 -7e-07 -8e-07
          -9e-07 -1e-06 -8.54852e-33 -1e-07 -2e-07 -3e-07 -4e-07 -5e-07 -6e-07 -7e-07 -8e-07 -9e-07
          -1e-06 9.12462e-33 -1e-07 -2e-07 -3e-07 -4e-07 -5e-07 -6e-07 -7e-07 -8e-07 -9e-07 -1e-06
          -2.12727e-34 -1e-07 -2e-07 -3e-07 -4e-07 -5e-07 -6e-07 -7e-07 -8e-07 -9e-07 -1e-06
        </DataArray>
        <DataArray type="Float32" Name="uy" NumberOfComponents="1" format="ascii">
          0 2.7405e-32 0 0 0 -1.88981e-30 0 1.12181e-22 -2.18747e-32 0 1.1467e-30 1.382e-22
          -1.07283e-32 0 8.60802e-31 7.56934e-23 -7.80483e-33 0 8.61029e-33 8.79356e-23 -4.80833e-34 0 -1.06907e-30 1.22301e-22
          2.14761e-33 0 -1.16418e-30 1.26659e-22 -2.70502e-33 0 -1.13066e-30 1.48258e-22 -1.54035e-32 0 9.15827e-32 2.93043e-22
          -5.75374e-32 4.39184e-28 -1.29344e-30 1.90753e-22 -3.16295e-32 -5.22048e-32 4.44377e-31 3.73685e-31 0 0 0 2.12332e-22
          0 2.62506e-22 0 1.46714e-22 0 1.73337e-22 0 2.35588e-22 0 2.508e-22 0 2.94018e-22
          -6.00781e-25 5.78832e-22 -1.02826e-29 3.87724e-22 -8.14222e-30 1.60293e-30 0 0 0 2.82099e-22 0 3.54085e-22
          0 2.08229e-22 0 2.40171e-22 0 3.14948e-22 0 3.49949e-22 0 4.13285e-22 -2.73132e-28 7.99314e-22
          6.56837e-29 5.59421e-22 -4.5427e-29 1.55649e-31 0 0 0 3.14114e-22 0 4.03596e-22 0 2.55574e-22
          0 2.80855e-22 0 3.51487e-22 0 4.04121e-22 0 4.92372e-22 1.49284e-26 9.37253e-22 2.29691e-29 6.89317e-22
          -9.18728e-30 -2.30467e-30 0 0 0 3.15061e-22 0 4.16922e-22 0 2.84695e-22 0 2.98451e-22
          0 3.48849e-22 0 4.17196e-22 7.38221e-25 5.32502e-22 5.27176e-27 9.901e-22 1.02025e-30 7.6569e-22 -1.72746e-29 -2.92408e-31
          0 0 0 2.90861e-22 0 3.93696e-22 0 2.89215e-22 0 2.91937e-22 0 3.17057e-22
          0 3.96713e-22 1.95793e-25 5.23115e-22 1.65579e-27 9.6468e-22 -2.42401e-29 7.77767e-22 -8.23072e-30 -9.58151e-31 0 0
          -9.25857e-31 2.44091e-22 0 3.36294e-22 0 2.63695e-22 0 2.58649e-22 0 2.5911e-22 0 3.37636e-22
          -1.64617e-26 4.65438e-22 -8.52446e-28 8.51583e-22 1.18687e-29 7.06277e-22 1.76516e-29 1.72953e-30 0 0 -1.89469e-30 1.77853e-22
          0 2.4701e-22 0 2.04282e-22 0 1.95828e-22 0 1.84749e-22 0 2.45277e-22 -3.00299e-25 3.54814e-22
          2.25832e-27 6.45451e-22 -2.63034e-29 5.44171e-22 -8.71069e-30 -4.42573e-31 0 0 1.56262e-30 9.2751e-23 0 1.2475e-22
          0 1.05533e-22 0 9.85536e-23 0 9.41498e-23 0 1.22917e-22 1.45658e-25 1.82713e-22 -2.91496e-28 3.34908e-22
          2.99448e-30 2.83317e-22 -2.9611e-30 4.51898e-31 0 9.32078e-33 3.49565e-32 -2.70869e-32 9.83279e-33 -2.48496e-32 2.59998e-33 -6.8077e-33
          -1.09223e-34 -4.12212e-32 -1.48818e-33 -2.06021e-33 -4.16614e-33 3.15048e-32 1.08826e-33 3.27187e-32 -1.88283e-32 1.23082e-31 -2.13373e-32 -9.5012e-33
          2.91588e-32 1.53691e-31 -4.28507e-30 -2.75272e-31 -1.54334e-30 1.86517e-22 1.83405e-30 2.09939e-22 6.47351e-31 1.75411e-22 4.13669e-31 1.19848e-22
          -3.80237e-32 8.35629e-23 1.19503e-31 4.58162e-23 -2.14224e-31 1.73907e-23 1.38398e-30 2.98166e-23 1.08388e-30 -1.86638e-24 5.30536e-32 3.10682e-31
          -1.52913e-30 3.68197e-22 4.07548e-22 3.31443e-22 2.31943e-22 1.73064e-22 9.74458e-23 2.83089e-23 5.27259e-23 -1.83173e-23 3.00113e-30 -8.67774e-31
          5.02494e-22 5.49779e-22 4.37946e-22 3.11509e-22 2.43908e-22 1.39929e-22 2.84927e-23 6.53877e-23 -4.22693e-23 -8.83256e-31 1.16233e-31 5.74271e-22
          6.23123e-22 4.8648e-22 3.49967e-22 2.82762e-22 1.62747e-22 1.83874e-23 6.63421e-23 -6.92776e-23 1.1363e-30 -2.47383e-30 5.90773e-22 6.36788e-22
          4.83031e-22 3.53881e-22 2.95228e-22 1.70344e-22 4.43281e-24 5.67058e-23 -8.9704e-23 3.48608e-30 -1.00967e-30 5.56249e-22 5.9427e-22 4.38768e-22
          3.25223e-22 2.83321e-22 1.58801e-22 -1.1055e-23 4.37922e-23 -9.99834e-23 -9.87614e-31 -2.43045e-30 4.74857e-22 5.03583e-22 3.62947e-22 2.71865e-22
          2.46535e-22 1.30855e-22 -2.24499e-23 2.90036e-23 -9.40296e-23 7.38042e-31 2.42215e-30 3.49695e-22 3.68072e-22 2.6078e-22 1.95712e-22 1.82261e-22
          9.45877e-23 -3.02932e-23 1.50938e-23 -7.77273e-23 2.91075e-30 -1.63185e-30 1.83321e-22 1.93811e-22 1.36941e-22 1.02449e-22 9.18754e-23 4.76363e-23
          -2.27598e-23 6.62709e-24 -4.80015e-23 -1.64786e-30 4.68483e-33 -3.01375e-32 2.57757e-32 8.73082e-33 8.70011e-33 1.18127e-32 4.33361e-33 1.07041e-31
          -7.11968e-32 9.51007e-34 8.19746e-32 1.41274e-30 1.07773e-30 -2.10245e-31 7.21733e-23 3.67765e-31 1.676e-24 9.7594e-33 -1.14492e-23 -8.6166e-31
          -2.60249e-23 -6.70303e-31 -1.2835e-23 3.87304e-32 -1.88671e-23 2.11873e-31 6.7031e-23 1.41929e-30 9.28308e-23 2.19055e-30 2.2627e-22 -4.55426e-30
          -7.99141e-33 -1.34275e-30 1.41229e-22 -2.6829e-24 -2.00919e-23 -4.70285e-23 -2.21862e-23 -3.97422e-23 1.3894e-22 1.85844e-22 4.61383e-22 4.60048e-30
          9.06857e-31 1.89763e-22 -3.38997e-24 -1.99124e-23 -5.97564e-23 -3.086e-23 -5.04691e-23 2.07832e-22 2.64645e-22 6.51203e-22 -1.95748e-31 1.60416e-30
          2.12251e-22 3.85244e-24 -1.34024e-23 -6.06976e-23 -3.78446e-23 -4.48711e-23 2.63222e-22 3.13849e-22 7.64244e-22 7.59734e-31 -1.39865e-30 2.13527e-22
          1.20665e-23 -3.54637e-24 -5.96859e-23 -4.02524e-23 -3.3922e-23 2.92025e-22 3.41039e-22 8.00606e-22 6.47027e-30 -6.10266e-31 1.98304e-22 1.92909e-23
          2.88572e-24 -5.47938e-23 -3.77727e-23 -1.92078e-23 2.89481e-22 3.3644e-22 7.62075e-22 -1.3683e-30 -1.80691e-30 1.67486e-22 2.22919e-23 5.79961e-24
          -4.48985e-23 -3.53479e-23 -5.33196e-24 2.58594e-22 2.97136e-22 6.5308e-22 1.80286e-30 -1.81368e-30 1.22052e-22 2.03177e-23 2.59463e-24 -3.17821e-23
          -2.82876e-23 3.76208e-25 1.99784e-22 2.23392e-22 4.81594e-22 -3.0905e-32 1.1266e-30 6.14396e-23 1.21217e-23 -1.17468e-24 -1.98377e-23 -1.72249e-23
          -1.53517e-24 1.05989e-22 1.18485e-22 2.46766e-22 3.80497e-31 -6.11627e-31 3.12869e-33 6.70529e-33 7.82862e-33 -3.39134e-32 -9.34421e-32 -7.17865e-32
          2.22026e-31 -8.67198e-32 -1.55062e-31 -2.45674e-30 -1.14988e-30 6.52468e-31 1.06907e-31 2.10815e-22 1.19442e-30 2.25658e-22 7.99321e-31 1.89831e-22
          5.38283e-31 1.23281e-22 -1.46456e-31 5.92731e-23 -4.35619e-31 1.70457e-23 5.09396e-31 -7.16662e-23 -2.0446e-31 -3.83081e-23 -1.53498e-30 -2.15817e-22
          2.49685e-30 2.77392e-31 2.433e-31 4.12233e-22 4.38964e-22 3.79014e-22 2.42213e-22 1.12273e-22 3.13163e-23 -1.32231e-22 -6.28866e-23 -4.06583e-22
          -8.4045e-31 4.94596e-31 5.59487e-22 5.9154e-22 5.14055e-22 3.29526e-22 1.53617e-22 3.65838e-23 -1.81793e-22 -8.79625e-23 -5.3233e-22 1.5578e-30
          1.15251e-30 6.36109e-22 6.622e-22 5.79259e-22 3.71722e-22 1.77217e-22 3.11204e-23 -2.1611e-22 -1.14888e-22 -5.84076e-22 4.67855e-31 9.09699e-31
          6.53866e-22 6.66629e-22 5.85327e-22 3.77654e-22 1.79098e-22 1.93015e-23 -2.29852e-22 -1.42482e-22 -5.76662e-22 5.81852e-31 -1.58723e-32 6.1603e-22
          6.13287e-22 5.42982e-22 3.51647e-22 1.63864e-22 3.66735e-24 -2.18989e-22 -1.60391e-22 -5.18101e-22 6.11334e-31 2.21568e-30 5.26095e-22 5.12982e-22
          4.58141e-22 2.93671e-22 1.35777e-22 -6.55178e-24 -1.92001e-22 -1.55732e-22 -4.22876e-22 -1.11626e-30 2.65741e-30 3.89451e-22 3.72853e-22 3.33536e-22
          2.12116e-22 1.00073e-22 -1.33027e-23 -1.45456e-22 -1.28796e-22 -3.01948e-22 -1.5875e-30 1.74677e-30 2.08512e-22 1.93631e-22 1.7236e-22 1.12175e-22
          5.49528e-23 -1.11075e-23 -8.13197e-23 -7.94744e-23 -1.61802e-22 1.77111e-31 2.96324e-31 -6.20381e-32 -3.53022e-32 -5.92445e-32 4.11146e-32 4.32249e-33
          1.45653e-32 -1.0871e-31 -7.67754e-32 4.42174e-32 -1.12886e-30 -1.02952e-30 8.96739e-31 -1.3178e-30 4.93652e-23 4.29837e-31 6.16037e-24 -1.69307e-31
          -8.87488e-23 5.54492e-31 -1.34232e-22 1.38567e-30 -1.3734e-22 -9.04254e-32 -1.13733e-22 -5.72553e-31 -3.20136e-23 5.27683e-31 2.9105e-23 -4.20013e-30
          2.70207e-23 8.96009e-31 1.27841e-30 -2.49162e-30 9.50427e-23 1.3694e-23 -1.75606e-22 -2.60315e-22 -2.65558e-22 -2.10666e-22 -5.74625e-23 7.3115e-23
          4.62614e-23 -3.24957e-30 -7.38509e-31 1.2568e-22 2.1774e-23 -2.37197e-22 -3.43297e-22 -3.57885e-22 -2.6982e-22 -6.84735e-23 1.10482e-22 5.41247e-23
          3.45591e-31 1.90399e-30 1.40126e-22 2.55342e-23 -2.64304e-22 -3.80053e-22 -4.02458e-22 -2.90753e-22 -6.66915e-23 1.37903e-22 5.36228e-23 1.55487e-30
          -3.62468e-31 1.38848e-22 2.67123e-23 -2.64496e-22 -3.79933e-22 -4.06556e-22 -2.82202e-22 -6.32229e-23 1.55375e-22 4.44642e-23 -3.20886e-30 1.93206e-30
          1.27272e-22 2.63562e-23 -2.40205e-22 -3.4684e-22 -3.78277e-22 -2.50512e-22 -5.64947e-23 1.56904e-22 3.24248e-23 -1.9251e-30 2.54358e-30 1.0488e-22
          2.27784e-23 -1.99176e-22 -2.86841e-22 -3.22964e-22 -2.02173e-22 -4.70276e-23 1.42359e-22 1.76806e-23 1.29061e-31 -1.6441e-30 7.53326e-23 1.54808e-23
          -1.42915e-22 -2.05256e-22 -2.4211e-22 -1.43994e-22 -3.48527e-23 1.06079e-22 4.57816e-24 1.17562e-31 -5.94525e-31 3.83188e-23 5.58197e-24 -7.52814e-23
          -1.08146e-22 -1.32693e-22 -7.58117e-23 -2.40801e-23 5.40482e-23 -6.97854e-24 -7.22014e-31 2.70509e-31 7.26356e-32 -4.90138e-32 9.70687e-32 -1.74973e-35
          -4.10242e-32 -1.52689e-31 1.22898e-31 -6.27199e-32 7.88005e-32 2.82676e-31 -1.43269e-30 5.11289e-32 -2.29979e-32 2.60733e-22 -4.36557e-31 2.12227e-22
          -7.15219e-31 2.0485e-22 -9.7171e-31 1.15988e-22 2.36843e-31 3.75229e-23 1.39577e-31 -8.48388e-23 8.60787e-31 -1.04548e-22 -4.78759e-31 -2.29559e-22
          7.55092e-31 -2.71552e-22 2.14785e-30 -8.6243e-31 4.02499e-32 5.11923e-22 4.11255e-22 3.91314e-22 2.29083e-22 7.98547e-23 -1.62018e-22 -2.0122e-22
          -4.50636e-22 -5.17919e-22 -7.10647e-31 1.9964e-31 6.98184e-22 5.55517e-22 5.20614e-22 3.12379e-22 1.11951e-22 -2.1421e-22 -2.76242e-22 -6.11828e-22
          -6.81819e-22 3.754e-31 -3.01485e-31 7.93656e-22 6.34379e-22 5.80431e-22 3.50198e-22 1.3111e-22 -2.41111e-22 -3.18258e-22 -6.95933e-22 -7.50169e-22
          6.54805e-31 -1.5321e-31 8.11862e-22 6.53116e-22 5.82015e-22 3.47374e-22 1.41016e-22 -2.47989e-22 -3.33922e-22 -7.13225e-22 -7.42715e-22 4.13829e-31
          -2.76574e-31 7.63262e-22 6.14377e-22 5.31782e-22 3.13658e-22 1.36897e-22 -2.3414e-22 -3.19902e-22 -6.7953e-22 -6.70044e-22 2.34714e-31 1.2571e-31
          6.51141e-22 5.23193e-22 4.39672e-22 2.58959e-22 1.21761e-22 -1.99774e-22 -2.82672e-22 -5.8554e-22 -5.52772e-22 -1.4636e-31 9.16264e-31 4.81348e-22
          3.87221e-22 3.15243e-22 1.82936e-22 9.31569e-23 -1.47148e-22 -2.17272e-22 -4.30514e-22 -3.99936e-22 -9.60026e-31 1.42197e-31 2.51561e-22 2.07437e-22
          1.65616e-22 9.34691e-23 5.00018e-23 -7.70933e-23 -1.16175e-22 -2.23208e-22 -2.1093e-22 4.45869e-31 -1.0009e-32 -1.11548e-32 4.43327e-32 6.79134e-32
          1.66974e-33 -4.94561e-32 -1.22895e-31 -9.22815e-32 7.29587e-32 4.03458e-32 -6.30627e-32 -9.55629e-31 -5.37492e-31 4.32958e-32 6.2699e-23 8.75073e-32
          -1.84331e-23 3.3974e-31 -1.30678e-22 -2.97849e-30 -2.02396e-22 -2.52048e-30 -2.2086e-22 -1.59408e-30 -2.17906e-22 -7.71583e-31 -2.53866e-22 7.33344e-31
          -1.3322e-22 -2.43927e-31 -2.70225e-22 4.25781e-30 3.44744e-31 -3.7579e-31 1.2225e-22 -4.12312e-23 -2.47353e-22 -3.87012e-22 -4.28337e-22 -4.2446e-22
          -4.93953e-22 -2.49196e-22 -5.1093e-22 1.10432e-30 6.40203e-31 1.63591e-22 -6.10855e-23 -3.19325e-22 -5.11334e-22 -5.82608e-22 -5.71393e-22 -6.45035e-22
          -3.22353e-22 -6.73771e-22 6.523e-31 -5.8777e-31 1.84808e-22 -7.19276e-23 -3.41752e-22 -5.65725e-22 -6.69571e-22 -6.4487e-22 -6.9395e-22 -3.50572e-22
          -7.52167e-22 6.79374e-31 -1.28072e-30 1.86951e-22 -7.50112e-23 -3.29507e-22 -5.58425e-22 -6.98036e-22 -6.57571e-22 -6.69539e-22 -3.44619e-22 -7.58048e-22
          9.69358e-31 4.33855e-31 1.75624e-22 -7.21268e-23 -2.92356e-22 -5.06471e-22 -6.65915e-22 -6.21209e-22 -5.91912e-22 -3.06566e-22 -7.08114e-22 1.2317e-30
          -5.05163e-31 1.50672e-22 -6.21183e-23 -2.36346e-22 -4.18573e-22 -5.74024e-22 -5.33968e-22 -4.82553e-22 -2.44908e-22 -6.01662e-22 1.06377e-30 -1.45094e-31
          1.10492e-22 -4.66067e-23 -1.66102e-22 -3.02622e-22 -4.24849e-22 -3.96434e-22 -3.42765e-22 -1.6885e-22 -4.47822e-22 3.23157e-30 -1.0988e-31 5.91506e-23
          -2.57598e-23 -8.64541e-23 -1.58207e-22 -2.23392e-22 -2.10292e-22 -1.75546e-22 -9.1352e-23 -2.40697e-22 4.74061e-31 -3.94065e-32 -2.53512e-33 -6.27723e-33
          8.95635e-32 1.24719e-31 -2.00371e-31 2.82169e-32 -1.70001e-31 1.40099e-31 2.53026e-31 -3.98255e-31 -3.4308e-32 4.85013e-33 2.07817e-32 2.18342e-22
          2.53379e-31 2.08789e-22 -1.03278e-30 1.44402e-22 -4.4126e-31 8.04176e-23 -4.95118e-31 -2.61891e-23 -1.91001e-31 -1.17114e-22 -1.19585e-31 -1.73686e-22
          2.1262e-32 -2.64187e-22 2.3308e-32 -4.02984e-22 -9.01509e-31 2.02831e-31 -1.56374e-31 4.20473e-22 4.09145e-22 2.83218e-22 1.4962e-22 -5.0773e-23
          -2.16929e-22 -3.31673e-22 -5.04296e-22 -7.7477e-22 -5.29234e-31 -1.60542e-31 5.70737e-22 5.56209e-22 3.7602e-22 1.90071e-22 -6.3065e-23 -2.80282e-22
          -4.63884e-22 -6.86289e-22 -1.03527e-21 2.22962e-31 9.309e-31 6.47277e-22 6.33281e-22 4.12561e-22 1.95993e-22 -6.38157e-23 -3.06943e-22 -5.59712e-22
          -7.9669e-22 -1.16613e-21 -6.20463e-32 6.04475e-32 6.64453e-22 6.4403e-22 4.08307e-22 1.76025e-22 -5.89699e-23 -3.0212e-22 -6.08727e-22 -8.3835e-22
          -1.18048e-21 -4.56847e-31 -2.62674e-32 6.25496e-22 6.0028e-22 3.70308e-22 1.40812e-22 -5.18995e-23 -2.72996e-22 -6.09335e-22 -8.0928e-22 -1.09749e-21
          -4.09986e-31 1.51467e-31 5.3478e-22 5.06131e-22 3.06286e-22 9.83324e-23 -4.66094e-23 -2.23881e-22 -5.48774e-22 -7.02338e-22 -9.2576e-22 1.73889e-31
          1.51548e-31 3.93436e-22 3.66153e-22 2.18836e-22 5.90503e-23 -3.5559e-23 -1.60779e-22 -4.26828e-22 -5.23869e-22 -6.77979e-22 -4.92838e-31 -2.14933e-31
          2.07475e-22 1.86898e-22 1.09643e-22 2.66775e-23 -1.72881e-23 -8.55745e-23 -2.37412e-22 -2.77725e-22 -3.60279e-22 2.46371e-31 4.14098e-32 7.53593e-34
          4.18902e-32 -2.91193e-32 -1.83106e-32 1.67594e-32 -5.22091e-32 -5.70254e-32 -1.51851e-32 7.61028e-33 -4.5689e-31 -9.0401e-32 -6.43516e-32 2.34104e-32
          1.3126e-22 4.42623e-31 2.97412e-23 -1.07604e-30 -1.13171e-22 -5.76226e-31 -2.73021e-22 1.88483e-30 -3.44664e-22 2.61981e-30 -4.08097e-22 4.50946e-32
          -3.54324e-22 -5.98249e-31 -3.89907e-22 -9.62572e-31 -4.1318e-22 -2.76553e-30 3.49015e-31 1.88816e-31 2.54253e-22 5.5998e-23 -2.24421e-22 -5.24997e-22
          -6.56555e-22 -7.84682e-22 -6.76312e-22 -7.51046e-22 -7.69823e-22 -6.52794e-31 -4.85486e-32 3.44344e-22 7.5132e-23 -2.97389e-22 -6.84851e-22 -8.72958e-22
          -1.04871e-21 -8.83327e-22 -9.97076e-22 -1.02084e-21 -2.51642e-31 5.77076e-33 3.93301e-22 8.49658e-23 -3.23641e-22 -7.42351e-22 -9.73645e-22 -1.17809e-21
          -9.62062e-22 -1.1061e-21 -1.15277e-21 -1.19521e-30 1.95505e-32 4.05114e-22 8.92069e-23 -3.19675e-22 -7.27008e-22 -9.76734e-22 -1.20121e-21 -9.45203e-22
          -1.1086e-21 -1.1802e-21 4.00829e-32 -1.36729e-31 3.83145e-22 8.69633e-23 -2.92675e-22 -6.53747e-22 -9.01077e-22 -1.12564e-21 -8.55406e-22 -1.01881e-21
          -1.11743e-21 -8.58219e-32 -7.7406e-32 3.30072e-22 7.61191e-23 -2.45204e-22 -5.35836e-22 -7.54648e-22 -9.60426e-22 -7.03127e-22 -8.53246e-22 -9.6486e-22
          -1.49356e-30 5.30793e-33 2.44704e-22 5.92836e-23 -1.77313e-22 -3.80517e-22 -5.50491e-22 -7.07699e-22 -5.01501e-22 -6.18971e-22 -7.21431e-22 -9.45412e-31
          8.07764e-32 1.28333e-22 3.35412e-23 -9.05659e-23 -1.98092e-22 -2.89275e-22 -3.74625e-22 -2.56455e-22 -3.21725e-22 -3.86266e-22 -6.92494e-31 1.48577e-32
          -1.62555e-32 -8.17739e-32 1.38355e-31 4.19873e-32 7.90707e-32 1.97748e-33 9.40254e-32 -3.56355e-32 1.13125e-33 2.02205e-31 -1.69931e-33 -3.95846e-33
          0 4.09556e-32 1.75142e-32 4.25035e-31 5.87544e-32 -2.75296e-32 2.11385e-32 1.35574e-31 5.9618e-34 -1.65672e-31 5.1097e-33 -4.67604e-32
          2.55335e-33 6.75178e-32 -3.71658e-33 -3.69379e-32 1.75489e-32 1.42636e-31 3.62335e-33 3.23081e-33 0 -3.68663e-32 -1.07211e-31 3.39463e-32
          -2.95089e-32 1.22128e-31 7.20394e-32 -1.81963e-31 -5.68429e-33 -6.91901e-32 1.31937e-31 0 -1.43548e-32 -7.08203e-31 -5.99687e-32 1.99996e-31
          1.8795e-31 1.60908e-31 -4.88193e-32 -3.28959e-33 1.22932e-31 -2.40498e-31 0 -4.43645e-33 -2.33288e-31 -4.66403e-31 1.29388e-32 -1.79075e-31
          -2.50913e-31 -1.17617e-31 2.10265e-32 -1.18423e-31 -2.32957e-32 0 2.54737e-33 9.76998e-32 2.446e-31 3.4182e-31 -1.60911e-31 -2.89407e-31
          3.8911e-32 -7.41731e-33 2.88127e-32 -1.60738e-31 0 -1.35669e-32 1.22051e-30 -1.18953e-30 5.77664e-31 -1.23861e-31 -2.08784e-32 -4.49952e-31
          1.10477e-31 1.13947e-32 1.03379e-31 0 -6.2476e-32 2.04781e-31 1.41907e-31 1.9292e-31 -4.4377e-31 2.58296e-31 2.11422e-31 2.60645e-32
          -4.72134e-32 4.63534e-31 0 4.43401e-32 9.93856e-32 -2.50561e-31 -5.93506e-31 1.66295e-31 6.07697e-31 -3.73397e-31 -1.75201e-31 1.4422e-31
          -2.69358e-31 0 -3.8767e-33 6.33918e-31 -1.19242e-30 2.78865e-30 3.30724e-30 5.74805e-31 2.96301e-31 -2.78017e-31 1.69571e-31 2.39846e-31
          -9.67379e-35 -5.3262e-34 8.64239e-33 -1.25387e-32 -5.93681e-33 1.29734e-32 1.07671e-33 -5.24262e-34 1.61097e-33 3.86095e-33 7.89046e-33
        </DataArray>
        <DataArray type="Float32" Name="uz" NumberOfComponents="1" format="ascii">
          0 -8.10597e-20 0 -8.11284e-20 3e-08 3e-08 3e-08 3e-08 -9.43577e-20 -9.44341e-20 3e-08 3e-08
          -8.60309e-20 -8.61295e-20 3e-08 3e-08 -6.3936e-20 -6.40025e-20 3e-08 3e-08 -3.60094e-20 -3.60337e-20 3e-08 3e-08
          -8.3891e-21 -8.43168e-21 3e-08 3e-08 1.61188e-20 1.60387e-20 3e-08 3e-08 3.77314e-20 3.7654e-20 3e-08 3e-08
          5.68075e-20 5.66844e-20 3e-08 3e-08 7.90167e-20 7.90312e-20 3e-08 3e-08 0 -8.13304e-20 3e-08 3e-08
          -9.46685e-20 3e-08 -8.64188e-20 3e-08 -6.42026e-20 3e-08 -3.61112e-20 3e-08 -8.54677e-21 3e-08 1.58013e-20 3e-08
          3.74323e-20 3e-08 5.63092e-20 3e-08 7.9095e-20 3e-08 0 -8.15752e-20 3e-08 3e-08 -9.49208e-20 3e-08
          -8.66947e-20 3e-08 -6.44045e-20 3e-08 -3.62465e-20 3e-08 -8.69153e-21 3e-08 1.55751e-20 3e-08 3.72532e-20 3e-08
          5.5988e-20 3e-08 7.9085e-20 3e-08 0 -8.1789e-20 3e-08 3e-08 -9.50933e-20 3e-08 -8.67963e-20 3e-08
          -6.45186e-20 3e-08 -3.64273e-20 3e-08 -8.83281e-21 3e-08 1.54915e-20 3e-08 3.72409e-20 3e-08 5.59111e-20 3e-08
          7.89861e-20 3e-08 0 -8.19829e-20 3e-08 3e-08 -9.52117e-20 3e-08 -8.67976e-20 3e-08 -6.45781e-20 3e-08
          -3.66332e-20 3e-08 -8.96338e-21 3e-08 1.55041e-20 3e-08 3.7336e-20 3e-08 5.59933e-20 3e-08 7.88474e-20 3e-08
          0 -8.21567e-20 3e-08 3e-08 -9.53002e-20 3e-08 -8.67345e-20 3e-08 -6.46077e-20 3e-08 -3.684e-20 3e-08
          -9.08172e-21 3e-08 1.55704e-20 3e-08 3.7481e-20 3e-08 5.61648e-20 3e-08 7.86907e-20 3e-08 0 -8.23056e-20
          3e-08 3e-08 -9.53771e-20 3e-08 -8.66571e-20 3e-08 -6.46247e-20 3e-08 -3.70307e-20 3e-08 -9.1842e-21 3e-08
          1.56557e-20 3e-08 3.76113e-20 3e-08 5.63634e-20 3e-08 7.85195e-20 3e-08 0 -8.24348e-20 3e-08 3e-08
          -9.54519e-20 3e-08 -8.6598e-20 3e-08 -6.46478e-20 3e-08 -3.7205e-20 3e-08 -9.2872e-21 3e-08 1.5724e-20 3e-08