<?xml version="1.0"?>
<VTKFile type="UnstructuredGrid" version="0.1" byte_order="LittleEndian">
  <UnstructuredGrid>
    <Piece NumberOfCells="420" NumberOfPoints="465">
      <PointData Scalars="S_w" Vectors="velocity_w">
        <DataArray type="Float32" Name="S_w" NumberOfComponents="1" format="ascii">
          0.999025 0.999025 0.99902 0.99902 0.999025 0.99902 0.999025 0.99902 0.999025 0.99902 0.999025 0.99902
          0.999025 0.99902 0.999025 0.99902 0.999025 0.99902 0.999025 0.99902 0.999025 0.99902 0.999025 0.99902
          0.999025 0.99902 0.999025 0.99902 0.999025 0.99902 0.999017 0.999017 0.999017 0.999017 0.999017 0.999017
          0.999017 0.999017 0.999017 0.999017 0.999017 0.999017 0.999017 0.999017 0.999017 0.999014 0.999014 0.999014
          0.999014 0.999014 0.999014 0.999014 0.999014 0.999014 0.999014 0.999014 0.999014 0.999014 0.999014 0.999014
          0.999011 0.999011 0.999011 0.999011 0.999011 0.999011 0.999011 0.999011 0.999011 0.999011 0.999011 0.999011
          0.999011 0.999011 0.999011 0.999009 0.999009 0.999009 0.999009 0.999009 0.999009 0.999009 0.999009 0.999009
          0.999009 0.999009 0.999009 0.999009 0.999009 0.999009 0.999007 0.999007 0.999007 0.999007 0.999007 0.999007
          0.999007 0.999007 0.999007 0.999007 0.999007 0.999007 0.999007 0.999007 0.999007 0.999006 0.999006 0.999006
          0.999006 0.999006 0.999006 0.999006 0.999006 0.999006 0.999006 0.999006 0.999006 0.999006 0.999006 0.999006
          0.999005 0.999005 0.999005 0.999005 0.999005 0.999005 0.999005 0.999005 0.999005 0.999005 0.999005 0.999005
          0.999005 0.999005 0.999005 0.999004 0.999004 0.999004 0.999004 0.999004 0.999004 0.999004 0.999004 0.999004
          0.999004 0.999004 0.999004 0.999004 0.999004 0.999004 0.999003 0.999003 0.999003 0.999003 0.999003 0.999003
          0.999003 0.999003 0.999003 0.999003 0.999003 0.999003 0.999003 0.999003 0.999003 0.999002 0.999002 0.999002
          0.999002 0.999002 0.999002 0.999002 0.999002 0.999002 0.999002 0.999002 0.999002 0.999002 0.999002 0.999002
          0.999001 0.999001 0.999001 0.999001 0.999001 0.999001 0.999001 0.999001 0.999001 0.999001 0.999001 0.999001
          0.999001 0.999001 0.999001 0.999001 0.999001 0.999001 0.999001 0.999001 0.999001 0.999001 0.999001 0.999001
          0.999001 0.999001 0.999001 0.999001 0.999001 0.999001 0.999 0.999 0.999 0.999 0.999 0.999
          0.999 0.999 0.999 0.999 0.999 0.999 0.999 0.999 0.999 0.997153 0.99766 0.997896
          0.997992 0.998026 0.998033 0.998028 0.99802 0.99801 0.998 0.99799 0.997983 0.997978 0.997976 0.997982
          1e-05 1e-05 1e-05 1e-05 1e-05 1e-05 1e-05 1e-05 1e-05 1e-05 1e-05 1e-05
          1e-05 1e-05 1e-05 1e-05 1e-05 1e-05 1e-05 1e-05 1e-05 1e-05 1e-05 1e-05
          1e-05 1e-05 1e-05 1e-05 1e-05 1e-05 1e-05 1e-05 1e-05 1e-05 1e-05 1e-05
          1e-05 1e-05 1e-05 1e-05 1e-05 1e-05 1e-05 1e-05 1e-05 1e-05 1e-05 1e-05
          1e-05 1e-05 1e-05 1e-05 1e-05 1e-05 1e-05 1e-05 1e-05 1e-05 1e-05 1e-05
          1e-05 1e-05 1e-05 1e-05 1e-05 1e-05 1e-05 1e-05 1e-05 1e-05 1e-05 1e-05
          1e-05 1e-05 1e-05 1e-05 1e-05 1e-05 1e-05 1e-05 1e-05 1e-05 1e-05 1e-05
          1e-05 1e-05 1e-05 1e-05 1e-05 1e-05 1e-05 1e-05 1e-05 1e-05 1e-05 1e-05
          1e-05 1e-05 1e-05 1e-05 1e-05 1e-05 1e-05 1e-05 1e-05 1e-05 1e-05 1e-05
          1e-05 1e-05 1e-05 1e-05 1e-05 1e-05 1e-05 1e-05 1e-05 1e-05 1e-05 1e-05
          1e-05 1e-05 1e-05 1e-05 1e-05 1e-05 1e-05 1e-05 1e-05 1e-05 1e-05 1e-05
          1e-05 1e-05 1e-05 1e-05 1e-05 1e-05 1e-05 1e-05 1e-05 1e-05 1e-05 1e-05
          1e-05 1e-05 1e-05 1e-05 1e-05 1e-05 1e-05 1e-05 1e-05 1e-05 1e-05 1e-05
          1e-05 1e-05 1e-05 1e-05 1e-05 1e-05 1e-05 1e-05 1e-05 1e-05 1e-05 1e-05
          1e-05 1e-05 1e-05 1e-05 1e-05 1e-05 1e-05 1e-05 1e-05 1e-05 1e-05 1e-05
          1e-05 1e-05 1e-05 1e-05 1e-05 1e-05 1e-05 1e-05 1e-05 1e-05 1e-05 1e-05
          1e-05 1e-05 1e-05 1e-05 1e-05 1e-05 1e-05 1e-05 1e-05 1e-05 1e-05 1e-05
          1e-05 1e-05 1e-05 1e-05 1e-05 1e-05 1e-05 1e-05 1e-05 1e-05 1e-05 1e-05
          1e-05 1e-05 1e-05 1e-05 1e-05 1e-05 1e-05 1e-05 1e-05
        </DataArray>
        <DataArray type="Float32" Name="S_n" NumberOfComponents="1" format="ascii">
          0.000975241 0.000975241 0.000979567 0.000979568 0.000975242 0.000979568 0.000975243 0.000979569 0.000975244 0.00097957 0.000975245 0.000979571
          0.000975246 0.000979572 0.000975247 0.000979573 0.000975247 0.000979574 0.000975248 0.000979574 0.000975248 0.000979574 0.000975248 0.000979575
          0.000975249 0.000979575 0.000975249 0.000979575 0.000975249 0.000979575 0.000983193 0.000983193 0.000983194 0.000983195 0.000983196 0.000983197
          0.000983198 0.000983199 0.0009832 0.0009832 0.000983201 0.000983201 0.000983201 0.000983201 0.000983201 0.000986235 0.000986235 0.000986236
          0.000986237 0.000986239 0.00098624 0.000986241 0.000986242 0.000986242 0.000986243 0.000986243 0.000986243 0.000986243 0.000986243 0.000986243
          0.000988784 0.000988784 0.000988786 0.000988787 0.000988788 0.00098879 0.000988791 0.000988791 0.000988792 0.000988792 0.000988793 0.000988793
          0.000988793 0.000988793 0.000988793 0.000990918 0.000990919 0.00099092 0.000990922 0.000990923 0.000990925 0.000990925 0.000990926 0.000990927
          0.000990927 0.000990927 0.000990928 0.000990928 0.000990928 0.000990928 0.000992704 0.000992705 0.000992706 0.000992708 0.00099271 0.000992711
          0.000992712 0.000992712 0.000992713 0.000992713 0.000992714 0.000992714 0.000992714 0.000992714 0.000992714 0.000994197 0.000994198 0.000994199
          0.000994201 0.000994203 0.000994204 0.000994205 0.000994206 0.000994206 0.000994207 0.000994207 0.000994207 0.000994207 0.000994207 0.000994207
          0.000995444 0.000995445 0.000995447 0.000995449 0.000995451 0.000995452 0.000995453 0.000995454 0.000995454 0.000995455 0.000995455 0.000995455
          0.000995455 0.000995455 0.000995455 0.000996486 0.000996487 0.000996489 0.000996492 0.000996493 0.000996494 0.000996495 0.000996496 0.000996497
          0.000996497 0.000996497 0.000996497 0.000996497 0.000996498 0.000996498 0.000997355 0.000997357 0.00099736 0.000997362 0.000997363 0.000997365
          0.000997366 0.000997366 0.000997367 0.000997367 0.000997367 0.000997368 0.000997368 0.000997368 0.000997368 0.000998081 0.000998083 0.000998086
          0.000998088 0.00099809 0.000998091 0.000998092 0.000998093 0.000998093 0.000998094 0.000998094 0.000998094 0.000998094 0.000998094 0.000998094
          0.000998687 0.000998689 0.000998692 0.000998694 0.000998696 0.000998697 0.000998698 0.000998699 0.000998699 0.000998699 0.0009987 0.0009987
          0.0009987 0.0009987 0.0009987 0.000999192 0.00099919 0.000999192 0.000999195 0.000999197 0.000999199 0.0009992 0.000999201 0.000999201
          0.000999201 0.000999202 0.000999202 0.000999202 0.000999203 0.000999206 0.000999616 0.000999576 0.000999577 0.000999583 0.000999588 0.000999592
          0.000999595 0.000999597 0.000999598 0.000999599 0.000999599 0.000999599 0.000999598 0.000999601 0.000999629 0.00284697 0.00234045 0.00210396
          0.00200797 0.00197398 0.00196729 0.00197175 0.0019803 0.00199026 0.00200042 0.00200968 0.00201705 0.00202193 0.00202384 0.00201846
          0.99999 0.99999 0.99999 0.99999 0.99999 0.99999 0.99999 0.99999 0.99999 0.99999 0.99999 0.99999
          0.99999 0.99999 0.99999 0.99999 0.99999 0.99999 0.99999 0.99999 0.99999 0.99999 0.99999 0.99999
          0.99999 0.99999 0.99999 0.99999 0.99999 0.99999 0.99999 0.99999 0.99999 0.99999 0.99999 0.99999
          0.99999 0.99999 0.99999 0.99999 0.99999 0.99999 0.99999 0.99999 0.99999 0.99999 0.99999 0.99999
          0.99999 0.99999 0.99999 0.99999 0.99999 0.99999 0.99999 0.99999 0.99999 0.99999 0.99999 0.99999
          0.99999 0.99999 0.99999 0.99999 0.99999 0.99999 0.99999 0.99999 0.99999 0.99999 0.99999 0.99999
          0.99999 0.99999 0.99999 0.99999 0.99999 0.99999 0.99999 0.99999 0.99999 0.99999 0.99999 0.99999
          0.99999 0.99999 0.99999 0.99999 0.99999 0.99999 0.99999 0.99999 0.99999 0.99999 0.99999 0.99999
          0.99999 0.99999 0.99999 0.99999 0.99999 0.99999 0.99999 0.99999 0.99999 0.99999 0.99999 0.99999
          0.99999 0.99999 0.99999 0.99999 0.99999 0.99999 0.99999 0.99999 0.99999 0.99999 0.99999 0.99999
          0.99999 0.99999 0.99999 0.99999 0.99999 0.99999 0.99999 0.99999 0.99999 0.99999 0.99999 0.99999
          0.99999 0.99999 0.99999 0.99999 0.99999 0.99999 0.99999 0.99999 0.99999 0.99999 0.99999 0.99999
          0.99999 0.99999 0.99999 0.99999 0.99999 0.99999 0.99999 0.99999 0.99999 0.99999 0.99999 0.99999
          0.99999 0.99999 0.99999 0.99999 0.99999 0.99999 0.99999 0.99999 0.99999 0.99999 0.99999 0.99999
          0.99999 0.99999 0.99999 0.99999 0.99999 0.99999 0.99999 0.99999 0.99999 0.99999 0.99999 0.99999
          0.99999 0.99999 0.99999 0.99999 0.99999 0.99999 0.99999 0.99999 0.99999 0.99999 0.99999 0.99999
          0.99999 0.99999 0.99999 0.99999 0.99999 0.99999 0.99999 0.99999 0.99999 0.99999 0.99999 0.99999
          0.99999 0.99999 0.99999 0.99999 0.99999 0.99999 0.99999 0.99999 0.99999 0.99999 0.99999 0.99999
          0.99999 0.99999 0.99999 0.99999 0.99999 0.99999 0.99999 0.99999 0.99999
        </DataArray>
        <DataArray type="Float32" Name="p_w" NumberOfComponents="1" format="ascii">
          100160 100160 99723.7 99723.7 100160 99723.6 100160 99723.5 100160 99723.4 100160 99723.3
          100160 99723.2 100160 99723.1 100159 99723.1 100159 99723 100159 99723 100159 99723
          100159 99723 100159 99723 100159 99723 99360.1 99360.1 99360 99359.9 99359.8 99359.7
          99359.6 99359.5 99359.5 99359.4 99359.4 99359.4 99359.4 99359.3 99359.3 99057.2 99057.1 99057
          99056.9 99056.8 99056.7 99056.6 99056.5 99056.4 99056.4 99056.4 99056.3 99056.3 99056.3 99056.3
          98804.7 98804.6 98804.5 98804.4 98804.2 98804.1 98804 98804 98803.9 98803.9 98803.8 98803.8
          98803.8 98803.8 98803.8 98594.3 98594.2 98594.1 98593.9 98593.8 98593.7 98593.6 98593.5 98593.5
          98593.4 98593.4 98593.4 98593.4 98593.4 98593.4 98419 98418.9 98418.8 98418.6 98418.4 98418.3
          98418.2 98418.2 98418.1 98418.1 98418.1 98418 98418 98418 98418 98272.9 98272.8 98272.6
          98272.5 98272.3 98272.2 98272.1 98272 98272 98271.9 98271.9 98271.9 98271.9 98271.9 98271.9
          98151.2 98151.1 98150.9 98150.7 98150.5 98150.4 98150.3 98150.2 98150.2 98150.2 98150.1 98150.1
          98150.1 98150.1 98150.1 98049.8 98049.6 98049.4 98049.2 98049 98048.9 98048.8 98048.8 98048.7
          98048.7 98048.7 98048.6 98048.6 98048.6 98048.6 97965.2 97965.1 97964.8 97964.6 97964.5 97964.3
          97964.2 97964.2 97964.1 97964.1 97964.1 97964.1 97964.1 97964 97964 97894.8 97894.6 97894.4
          97894.2 97894 97893.9 97893.8 97893.7 97893.7 97893.6 97893.6 97893.6 97893.6 97893.6 97893.6
          97836.1 97835.9 97835.7 97835.4 97835.3 97835.1 97835 97835 97834.9 97834.9 97834.9 97834.9
          97834.9 97834.8 97834.8 97787.2 97787 97786.7 97786.5 97786.3 97786.2 97786.1 97786 97786
          97786 97785.9 97785.9 97785.9 97785.9 97785.9 97746.5 97746.2 97745.9 97745.7 97745.5 97745.4
          97745.3 97745.3 97745.2 97745.2 97745.2 97745.1 97745.1 97745.1 97745.1 97712.5 97712.2 97712
          97711.7 97711.5 97711.4 97711.3 97711.3 97711.2 97711.2 97711.2 97711.2 97711.1 97711.1 97711.1
          100005 100004 100004 100003 100003 100003 100003 100003 100003 100003 100003 100003
          100003 100003 100003 100005 100004 100004 100003 100003 100003 100003 100003 100003
          100003 100003 100003 100003 100003 100003 100005 100004 100004 100003 100003 100003
          100003 100003 100003 100003 100003 100003 100003 100003 100003 100005 100004 100004
          100003 100003 100003 100003 100003 100003 100003 100003 100003 100003 100003 100003
          100005 100004 100003 100003 100003 100003 100003 100003 100003 100003 100003 100003
          100003 100003 100003 100004 100004 100003 100003 100003 100003 100003 100003 100002
          100002 100002 100002 100002 100002 100002 100004 100004 100003 100003 100003 100003
          100002 100002 100002 100002 100002 100002 100002 100002 100002 100004 100003 100003
          100003 100003 100002 100002 100002 100002 100002 100002 100002 100002 100002 100002
          100004 100003 100003 100003 100002 100002 100002 100002 100002 100002 100002 100002
          100002 100002 100002 100004 100003 100003 100002 100002 100002 100002 100002 100002
          100002 100002 100002 100002 100002 100002 100003 100003 100002 100002 100002 100002
          100002 100002 100002 100002 100002 100002 100002 100002 100002 100003 100002 100002
          100002 100002 100001 100001 100001 100001 100001 100001 100001 100001 100001 100001
          100002 100002 100001 100001 100001 100001 100001 100001 100001 100001 100001 100001
          100001 100001 100001 100001 100001 100001 100001 100001 100001 100001 100001 100001
          100001 100001 100001 100001 100000 100000 100000 100000 100000 100000 100000 100000
          100000 100000 100000 100000 100000 100000 100000 100000 100000
        </DataArray>
        <DataArray type="Float32" Name="p_n" NumberOfComponents="1" format="ascii">
          102451 102451 102015 102015 102451 102014 102451 102014 102451 102014 102450 102014
          102450 102014 102450 102014 102450 102014 102450 102014 102450 102014 102450 102014
          102450 102014 102450 102014 102450 102014 101651 101651 101651 101651 101651 101651
          101650 101650 101650 101650 101650 101650 101650 101650 101650 101348 101348 101348
          101348 101348 101347 101347 101347 101347 101347 101347 101347 101347 101347 101347
          101096 101095 101095 101095 101095 101095 101095 101095 101095 101095 101095 101095
          101095 101095 101095 100885 100885 100885 100885 100885 100885 100884 100884 100884
          100884 100884 100884 100884 100884 100884 100710 100710 100710 100709 100709 100709
          100709 100709 100709 100709 100709 100709 100709 100709 100709 100564 100564 100563
          100563 100563 100563 100563 100563 100563 100563 100563 100563 100563 100563 100563
          100442 100442 100442 100442 100441 100441 100441 100441 100441 100441 100441 100441
          100441 100441 100441 100341 100340 100340 100340 100340 100340 100340 100340 100340
          100340 100339 100339 100339 100339 100339 100256 100256 100256 100255 100255 100255
          100255 100255 100255 100255 100255 100255 100255 100255 100255 100186 100185 100185
          100185 100185 100185 100185 100185 100184 100184 100184 100184 100184 100184 100184
          100127 100127 100126 100126 100126 100126 100126 100126 100126 100126 100126 100126
          100126 100126 100126 100078 100078 100078 100077 100077 100077 100077 100077 100077
          100077 100077 100077 100077 100077 100077 100037 100037 100037 100037 100036 100036
          100036 100036 100036 100036 100036 100036 100036 100036 100036 100005 100004 100004
          100003 100003 100003 100003 100003 100003 100003 100003 100003 100003 100003 100003
          100005 100004 100004 100003 100003 100003 100003 100003 100003 100003 100003 100003
          100003 100003 100003 100005 100004 100004 100003 100003 100003 100003 100003 100003
          100003 100003 100003 100003 100003 100003 100005 100004 100004 100003 100003 100003
          100003 100003 100003 100003 100003 100003 100003 100003 100003 100005 100004 100004
          100003 100003 100003 100003 100003 100003 100003 100003 100003 100003 100003 100003
          100005 100004 100003 100003 100003 100003 100003 100003 100003 100003 100003 100003
          100003 100003 100003 100004 100004 100003 100003 100003 100003 100003 100003 100002
          100002 100002 100002 100002 100002 100002 100004 100004 100003 100003 100003 100003
          100002 100002 100002 100002 100002 100002 100002 100002 100002 100004 100003 100003
          100003 100003 100002 100002 100002 100002 100002 100002 100002 100002 100002 100002
          100004 100003 100003 100003 100002 100002 100002 100002 100002 100002 100002 100002
          100002 100002 100002 100004 100003 100003 100002 100002 100002 100002 100002 100002
          100002 100002 100002 100002 100002 100002 100003 100003 100002 100002 100002 100002
          100002 100002 100002 100002 100002 100002 100002 100002 100002 100003 100002 100002
          100002 100002 100001 100001 100001 100001 100001 100001 100001 100001 100001 100001
          100002 100002 100001 100001 100001 100001 100001 100001 100001 100001 100001 100001
          100001 100001 100001 100001 100001 100001 100001 100001 100001 100001 100001 100001
          100001 100001 100001 100001 100000 100000 100000 100000 100000 100000 100000 100000
          100000 100000 100000 100000 100000 100000 100000 100000 100000
        </DataArray>
        <DataArray type="Float32" Name="rho_w" NumberOfComponents="1" format="ascii">
          998.232 998.232 998.232 998.232 998.232 998.232 998.232 998.232 998.232 998.232 998.232 998.232
          998.232 998.232 998.232 998.232 998.232 998.232 998.232 998.232 998.232 998.232 998.232 998.232
          998.232 998.232 998.232 998.232 998.232 998.232 998.232 998.232 998.232 998.232 998.232 998.232
          998.232 998.232 998.232 998.232 998.232 998.232 998.232 998.232 998.232 998.232 998.232 998.232
          998.232 998.232 998.232 998.232 998.232 998.232 998.232 998.232 998.232 998.232 998.232 998.232
          998.232 998.232 998.232 998.232 998.232 998.232 998.232 998.232 998.232 998.232 998.232 998.232
          998.232 998.232 998.232 998.232 998.232 998.232 998.232 998.232 998.232 998.232 998.232 998.232
          998.232 998.232 998.232 998.232 998.232 998.232 998.232 998.232 998.232 998.232 998.232 998.232
          998.232 998.232 998.232 998.232 998.232 998.232 998.232 998.232 998.232 998.232 998.232 998.232
          998.232 998.232 998.232 998.232 998.232 998.232 998.232 998.232 998.232 998.232 998.232 998.232
          998.232 998.232 998.232 998.232 998.232 998.232 998.232 998.232 998.232 998.232 998.232 998.232
          998.232 998.232 998.232 998.232 998.232 998.232 998.232 998.232 998.232 998.232 998.232 998.232
          998.232 998.232 998.232 998.232 998.232 998.232 998.232 998.232 998.232 998.232 998.232 998.232
          998.232 998.232 998.232 998.232 998.232 998.232 998.232 998.232 998.232 998.231 998.231 998.231
          998.231 998.231 998.231 998.231 998.231 998.231 998.231 998.231 998.231 998.231 998.231 998.231
          998.231 998.231 998.231 998.231 998.231 998.231 998.231 998.231 998.231 998.231 998.231 998.231
          998.231 998.231 998.231 998.231 998.232 998.232 998.232 998.232 998.232 998.232 998.232 998.232
          998.232 998.232 998.232 998.232 998.232 998.231 998.231 998.233 998.233 998.233 998.233 998.233
          998.233 998.233 998.233 998.233 998.233 998.233 998.233 998.233 998.231 998.231 998.241 998.24
          998.239 998.238 998.238 998.237 998.237 998.237 998.237 998.237 998.237 998.237 998.237 998.231
          998.233 998.233 998.233 998.233 998.233 998.233 998.233 998.233 998.233 998.233 998.233 998.233
          998.233 998.233 998.233 998.232 998.232 998.232 998.232 998.232 998.232 998.232 998.232 998.232
          998.232 998.232 998.232 998.232 998.232 998.232 998.232 998.232 998.232 998.232 998.232 998.232
          998.232 998.232 998.232 998.232 998.232 998.232 998.232 998.232 998.232 998.232 998.232 998.232
          998.232 998.232 998.232 998.232 998.232 998.232 998.232 998.232 998.232 998.232 998.232 998.232
          998.232 998.232 998.232 998.232 998.232 998.232 998.232 998.232 998.232 998.232 998.232 998.232
          998.232 998.232 998.232 998.232 998.232 998.232 998.232 998.232 998.232 998.232 998.232 998.232
          998.232 998.232 998.232 998.232 998.232 998.232 998.232 998.232 998.232 998.232 998.232 998.232
          998.232 998.232 998.232 998.232 998.232 998.232 998.232 998.232 998.232 998.232 998.232 998.232
          998.232 998.232 998.232 998.232 998.232 998.232 998.232 998.232 998.232 998.232 998.232 998.232
          998.232 998.232 998.232 998.232 998.232 998.232 998.232 998.232 998.232 998.232 998.232 998.232
          998.232 998.232 998.232 998.232 998.232 998.232 998.232 998.232 998.232 998.232 998.232 998.232
          998.232 998.232 998.232 998.232 998.232 998.232 998.232 998.232 998.232 998.232 998.232 998.232
          998.232 998.232 998.232 998.232 998.232 998.232 998.232 998.232 998.232 998.232 998.232 998.232
          998.232 998.232 998.232 998.232 998.232 998.232 998.232 998.232 998.232 998.232 998.232 998.232
          998.232 998.232 998.232 998.232 998.232 998.232 998.232 998.232 998.232 998.232 998.232 998.232
          998.232 998.232 998.232 998.232 998.232 998.232 998.232 998.232 998.232 998.232 998.232 998.232
          998.232 998.232 998.232 998.232 998.232 998.232 998.232 998.232 998.232 998.232 998.232 998.232
          998.232 998.232 998.232 998.232 998.232 998.232 998.232 998.232 998.232
        </DataArray>
        <DataArray type="Float32" Name="rho_n" NumberOfComponents="1" format="ascii">
          1.16857 1.16857 1.16355 1.16355 1.16857 1.16355 1.16857 1.16355 1.16856 1.16355 1.16856 1.16355
          1.16856 1.16354 1.16856 1.16354 1.16856 1.16354 1.16856 1.16354 1.16856 1.16354 1.16856 1.16354
          1.16856 1.16354 1.16856 1.16354 1.16856 1.16354 1.15937 1.15937 1.15937 1.15937 1.15937 1.15936
          1.15936 1.15936 1.15936 1.15936 1.15936 1.15936 1.15936 1.15936 1.15936 1.15589 1.15589 1.15588
          1.15588 1.15588 1.15588 1.15588 1.15588 1.15588 1.15588 1.15588 1.15588 1.15588 1.15588 1.15588
          1.15298 1.15298 1.15298 1.15298 1.15298 1.15298 1.15298 1.15297 1.15297 1.15297 1.15297 1.15297
          1.15297 1.15297 1.15297 1.15056 1.15056 1.15056 1.15056 1.15056 1.15056 1.15056 1.15055 1.15055
          1.15055 1.15055 1.15055 1.15055 1.15055 1.15055 1.14855 1.14855 1.14854 1.14854 1.14854 1.14854
          1.14854 1.14854 1.14854 1.14854 1.14854 1.14854 1.14854 1.14854 1.14854 1.14687 1.14687 1.14686
          1.14686 1.14686 1.14686 1.14686 1.14686 1.14686 1.14686 1.14686 1.14686 1.14686 1.14686 1.14686
          1.14547 1.14547 1.14546 1.14546 1.14546 1.14546 1.14546 1.14546 1.14546 1.14546 1.14546 1.14546
          1.14546 1.14546 1.14546 1.1443 1.1443 1.1443 1.1443 1.14429 1.14429 1.14429 1.14429 1.14429
          1.14429 1.14429 1.14429 1.14429 1.14429 1.14429 1.14333 1.14333 1.14333 1.14332 1.14332 1.14332
          1.14332 1.14332 1.14332 1.14332 1.14332 1.14332 1.14332 1.14332 1.14332 1.14252 1.14252 1.14251
          1.14251 1.14251 1.14251 1.14251 1.14251 1.14251 1.14251 1.14251 1.14251 1.14251 1.14251 1.14251
          1.14184 1.14184 1.14184 1.14184 1.14184 1.14183 1.14183 1.14183 1.14183 1.14183 1.14183 1.14183
          1.14183 1.14183 1.14183 1.14128 1.14128 1.14128 1.14128 1.14128 1.14127 1.14127 1.14127 1.14127
          1.14127 1.14127 1.14127 1.14127 1.14127 1.14127 1.14081 1.14085 1.14085 1.14084 1.14084 1.14083
          1.14083 1.14083 1.14083 1.14083 1.14083 1.14083 1.14083 1.14082 1.1408 1.14464 1.14528 1.1452
          1.14497 1.14465 1.14425 1.14381 1.14337 1.14303 1.14286 1.14284 1.1429 1.14296 1.14301 1.14285
          1.15105 1.15452 1.15795 1.16156 1.16539 1.16937 1.17337 1.177 1.17944 1.18008 1.17939 1.17835
          1.17754 1.17701 1.17669 1.14945 1.15115 1.15378 1.15724 1.16145 1.16621 1.17119 1.17574 1.17888
          1.17992 1.17943 1.17849 1.17774 1.17724 1.177 1.14912 1.14988 1.1515 1.15407 1.15766 1.16223
          1.16751 1.17278 1.17673 1.17837 1.17815 1.17729 1.17655 1.17606 1.1758 1.14904 1.14939 1.15035
          1.15213 1.15491 1.15881 1.16373 1.16906 1.17338 1.17539 1.17528 1.17433 1.17342 1.17277 1.17237
          1.14902 1.14919 1.14975 1.15096 1.15303 1.15618 1.16043 1.16533 1.16947 1.17134 1.17098 1.16965
          1.16834 1.16732 1.16666 1.14901 1.14909 1.14943 1.15024 1.15177 1.15423 1.15777 1.16199 1.16554
          1.16684 1.1659 1.164 1.16221 1.16082 1.15996 1.14901 1.14905 1.14925 1.1498 1.15092 1.15283
          1.15569 1.15918 1.16197 1.16253 1.16093 1.15859 1.15658 1.15511 1.1543 1.14901 1.14902 1.14915
          1.14952 1.15034 1.15181 1.1541 1.15691 1.15896 1.15884 1.15683 1.15443 1.15262 1.15146 1.15091
          1.149 1.14901 1.14909 1.14934 1.14994 1.15108 1.1529 1.15512 1.15654 1.15595 1.15386 1.15178
          1.15045 1.14976 1.14949 1.149 1.149 1.14905 1.14923 1.14967 1.15055 1.152 1.15374 1.15466
          1.15381 1.1519 1.15032 1.1495 1.14917 1.14908 1.149 1.14899 1.14902 1.14915 1.14949 1.15018
          1.15134 1.15269 1.15322 1.15226 1.15068 1.14959 1.14915 1.14901 1.14899 1.14899 1.14899 1.14901
          1.1491 1.14936 1.14992 1.15086 1.1519 1.15212 1.15115 1.14993 1.14924 1.14902 1.14898 1.14897
          1.14898 1.14898 1.14899 1.14907 1.14928 1.14975 1.15053 1.1513 1.15126 1.15035 1.14946 1.14908
          1.14898 1.14897 1.14896 1.14897 1.14897 1.14898 1.14905 1.14923 1.14964 1.1503 1.15081 1.15054
          1.14973 1.14918 1.149 1.14896 1.14896 1.14896 1.14896 1.14896 1.14896 1.14896 1.14896 1.14896
          1.14896 1.14896 1.14896 1.14896 1.14896 1.14896 1.14896 1.14896 1.14896
        </DataArray>
        <DataArray type="Float32" Name="lambda_w" NumberOfComponents="1" format="ascii">
          990.751 990.751 990.735 990.735 990.751 990.735 990.751 990.735 990.751 990.735 990.751 990.735
          990.751 990.735 990.751 990.735 990.751 990.735 990.751 990.735 990.751 990.735 990.751 990.735
          990.751 990.735 990.751 990.735 990.751 990.734 990.721 990.721 990.721 990.721 990.721 990.721
          990.721 990.721 990.721 990.721 990.721 990.721 990.721 990.721 990.721 990.71 990.71 990.71
          990.71 990.71 990.71 990.71 990.71 990.71 990.71 990.71 990.71 990.71 990.71 990.71
          990.7 990.7 990.7 990.7 990.7 990.7 990.7 990.7 990.7 990.7 990.7 990.7
          990.7 990.7 990.7 990.692 990.692 990.692 990.692 990.692 990.692 990.692 990.692 990.692
          990.692 990.692 990.692 990.692 990.692 990.692 990.686 990.686 990.686 990.686 990.686 990.686
          990.686 990.686 990.686 990.686 990.686 990.686 990.686 990.686 990.685 990.68 990.68 990.68
          990.68 990.68 990.68 990.68 990.68 990.68 990.68 990.68 990.68 990.68 990.68 990.68
          990.675 990.675 990.675 990.675 990.675 990.675 990.675 990.675 990.675 990.675 990.675 990.675
          990.675 990.675 990.675 990.671 990.672 990.672 990.672 990.672 990.672 990.672 990.672 990.671
          990.671 990.671 990.671 990.671 990.671 990.671 990.668 990.668 990.668 990.668 990.668 990.668
          990.668 990.668 990.668 990.668 990.668 990.668 990.668 990.668 990.668 990.666 990.665 990.665
          990.665 990.665 990.665 990.665 990.665 990.665 990.665 990.665 990.665 990.665 990.665 990.665
          990.663 990.662 990.661 990.661 990.661 990.661 990.662 990.662 990.662 990.662 990.662 990.662
          990.662 990.662 990.663 990.661 990.638 990.635 990.636 990.638 990.639 990.64 990.641 990.642
          990.642 990.641 990.641 990.641 990.645 990.661 990.66 990.452 990.448 990.464 990.477 990.49
          990.501 990.509 990.513 990.514 990.513 990.512 990.51 990.522 990.66 983.844 984.617 985.612
          986.035 986.227 986.319 986.366 986.387 986.381 986.352 986.313 986.277 986.253 986.222 986.896
          5.74704e-13 5.74677e-13 5.74675e-13 5.74678e-13 5.7468e-13 5.74683e-13 5.74685e-13 5.74686e-13 5.74687e-13 5.74687e-13 5.74687e-13 5.74686e-13
          5.74686e-13 5.74689e-13 5.74707e-13 5.74711e-13 5.7471e-13 5.7471e-13 5.7471e-13 5.7471e-13 5.7471e-13 5.7471e-13 5.7471e-13 5.7471e-13
          5.7471e-13 5.7471e-13 5.7471e-13 5.7471e-13 5.74711e-13 5.74711e-13 5.74711e-13 5.74711e-13 5.74711e-13 5.74711e-13 5.74711e-13 5.74711e-13
          5.74711e-13 5.74711e-13 5.74711e-13 5.74711e-13 5.74711e-13 5.74711e-13 5.74711e-13 5.74711e-13 5.74711e-13 5.74711e-13 5.74711e-13 5.74711e-13
          5.74711e-13 5.74711e-13 5.74711e-13 5.74711e-13 5.74711e-13 5.74711e-13 5.74711e-13 5.74711e-13 5.74711e-13 5.74711e-13 5.74711e-13 5.74711e-13
          5.74711e-13 5.74711e-13 5.74711e-13 5.74711e-13 5.74711e-13 5.74711e-13 5.74711e-13 5.74711e-13 5.74711e-13 5.74711e-13 5.74711e-13 5.74711e-13
          5.74711e-13 5.74711e-13 5.74711e-13 5.74711e-13 5.74711e-13 5.74711e-13 5.74711e-13 5.74711e-13 5.74711e-13 5.74711e-13 5.74711e-13 5.74711e-13
          5.74711e-13 5.74711e-13 5.74711e-13 5.74711e-13 5.74711e-13 5.74711e-13 5.74711e-13 5.74711e-13 5.74711e-13 5.74711e-13 5.74711e-13 5.74711e-13
          5.74711e-13 5.74711e-13 5.74711e-13 5.74711e-13 5.74711e-13 5.74711e-13 5.74711e-13 5.74711e-13 5.74711e-13 5.74711e-13 5.74711e-13 5.74711e-13
          5.74711e-13 5.74711e-13 5.74711e-13 5.74711e-13 5.74711e-13 5.74711e-13 5.74711e-13 5.74711e-13 5.74711e-13 5.74711e-13 5.74711e-13 5.74711e-13
          5.74711e-13 5.74711e-13 5.74711e-13 5.74711e-13 5.74711e-13 5.74711e-13 5.74711e-13 5.74711e-13 5.74711e-13 5.74711e-13 5.74711e-13 5.74711e-13
          5.74711e-13 5.74711e-13 5.74711e-13 5.74711e-13 5.74711e-13 5.74711e-13 5.74711e-13 5.74711e-13 5.74711e-13 5.74711e-13 5.74711e-13 5.74711e-13
          5.74711e-13 5.74711e-13 5.74711e-13 5.74711e-13 5.74711e-13 5.74711e-13 5.74711e-13 5.74711e-13 5.74711e-13 5.74711e-13 5.74711e-13 5.74711e-13
          5.74711e-13 5.74711e-13 5.74711e-13 5.74711e-13 5.74711e-13 5.74711e-13 5.74711e-13 5.74711e-13 5.74711e-13 5.74711e-13 5.74711e-13 5.74711e-13
          5.74711e-13 5.74711e-13 5.74711e-13 5.74711e-13 5.74711e-13 5.74711e-13 5.74711e-13 5.74711e-13 5.74711e-13 5.74711e-13 5.74711e-13 5.74711e-13
          5.74711e-13 5.74711e-13 5.74711e-13 5.74711e-13 5.74711e-13 5.74711e-13 5.74711e-13 5.74711e-13 5.74711e-13 5.74711e-13 5.74711e-13 5.74711e-13