<?xml version="1.0"?>
<VTKFile type="UnstructuredGrid" version="0.1" byte_order="LittleEndian">
  <UnstructuredGrid>
    <Piece NumberOfCells="420" NumberOfPoints="465">
      <PointData Scalars="S_w" Vectors="velocity_w">
        <DataArray type="Float32" Name="S_w" NumberOfComponents="1" format="ascii">
          0.999025 0.999025 0.999024 0.999024 0.999025 0.999024 0.999025 0.999024 0.999025 0.999024 0.999025 0.999024
          0.999025 0.999024 0.999025 0.999024 0.999025 0.999024 0.999025 0.999024 0.999025 0.999024 0.999025 0.999024
          0.999025 0.999024 0.999025 0.999024 0.999025 0.999024 0.999024 0.999024 0.999024 0.999024 0.999024 0.999024
          0.999024 0.999024 0.999024 0.999024 0.999024 0.999024 0.999024 0.999024 0.999024 0.999024 0.999024 0.999024
          0.999024 0.999024 0.999024 0.999024 0.999024 0.999024 0.999024 0.999024 0.999024 0.999024 0.999024 0.999024
          0.999023 0.999023 0.999023 0.999023 0.999023 0.999023 0.999023 0.999023 0.999023 0.999023 0.999023 0.999023
          0.999023 0.999023 0.999023 0.999022 0.999022 0.999022 0.999022 0.999022 0.999022 0.999022 0.999022 0.999022
          0.999022 0.999022 0.999022 0.999022 0.999022 0.999022 0.999021 0.999021 0.999021 0.999021 0.999021 0.999021
          0.999021 0.999021 0.999021 0.999021 0.999021 0.999021 0.999021 0.999021 0.999021 0.99902 0.99902 0.99902
          0.99902 0.99902 0.99902 0.99902 0.99902 0.99902 0.99902 0.99902 0.99902 0.99902 0.99902 0.99902
          0.999019 0.999019 0.999019 0.999019 0.999019 0.999019 0.999019 0.999019 0.999019 0.999019 0.999019 0.999019
          0.999019 0.999019 0.999019 0.999018 0.999018 0.999018 0.999018 0.999018 0.999018 0.999018 0.999018 0.999018
          0.999018 0.999018 0.999018 0.999018 0.999018 0.999018 0.999016 0.999016 0.999016 0.999016 0.999016 0.999016
          0.999016 0.999016 0.999016 0.999016 0.999016 0.999016 0.999016 0.999016 0.999016 0.999014 0.999014 0.999014
          0.999014 0.999014 0.999014 0.999014 0.999014 0.999014 0.999014 0.999014 0.999014 0.999014 0.999014 0.999014
          0.999011 0.999011 0.999011 0.999011 0.999011 0.999011 0.999011 0.999011 0.999011 0.999011 0.999011 0.999011
          0.999011 0.999011 0.999011 0.999008 0.999008 0.999008 0.999008 0.999008 0.999008 0.999008 0.999008 0.999008
          0.999008 0.999008 0.999008 0.999008 0.999008 0.999008 0.999005 0.999005 0.999005 0.999005 0.999005 0.999005
          0.999005 0.999005 0.999005 0.999005 0.999005 0.999005 0.999005 0.999005 0.999005 0.998828 0.998924 0.998929
          0.998929 0.998929 0.998929 0.998929 0.998928 0.998928 0.998928 0.998927 0.998927 0.998927 0.998927 0.998927
          1e-05 1e-05 1e-05 1e-05 1e-05 1e-05 1e-05 1e-05 1e-05 1e-05 1e-05 1e-05
          1e-05 1e-05 1e-05 1e-05 1e-05 1e-05 1e-05 1e-05 1e-05 1e-05 1e-05 1e-05
          1e-05 1e-05 1e-05 1e-05 1e-05 1e-05 1e-05 1e-05 1e-05 1e-05 1e-05 1e-05
          1e-05 1e-05 1e-05 1e-05 1e-05 1e-05 1e-05 1e-05 1e-05 1e-05 1e-05 1e-05
          1e-05 1e-05 1e-05 1e-05 1e-05 1e-05 1e-05 1e-05 1e-05 1e-05 1e-05 1e-05
          1e-05 1e-05 1e-05 1e-05 1e-05 1e-05 1e-05 1e-05 1e-05 1e-05 1e-05 1e-05
          1e-05 1e-05 1e-05 1e-05 1e-05 1e-05 1e-05 1e-05 1e-05 1e-05 1e-05 1e-05
          1e-05 1e-05 1e-05 1e-05 1e-05 1e-05 1e-05 1e-05 1e-05 1e-05 1e-05 1e-05
          1e-05 1e-05 1e-05 1e-05 1e-05 1e-05 1e-05 1e-05 1e-05 1e-05 1e-05 1e-05
          1e-05 1e-05 1e-05 1e-05 1e-05 1e-05 1e-05 1e-05 1e-05 1e-05 1e-05 1e-05
          1e-05 1e-05 1e-05 1e-05 1e-05 1e-05 1e-05 1e-05 1e-05 1e-05 1e-05 1e-05
          1e-05 1e-05 1e-05 1e-05 1e-05 1e-05 1e-05 1e-05 1e-05 1e-05 1e-05 1e-05
          1e-05 1e-05 1e-05 1e-05 1e-05 1e-05 1e-05 1e-05 1e-05 1e-05 1e-05 1e-05
          1e-05 1e-05 1e-05 1e-05 1e-05 1e-05 1e-05 1e-05 1e-05 1e-05 1e-05 1e-05
          1e-05 1e-05 1e-05 1e-05 1e-05 1e-05 1e-05 1e-05 1e-05 1e-05 1e-05 1e-05
          1e-05 1e-05 1e-05 1e-05 1e-05 1e-05 1e-05 1e-05 1e-05 1e-05 1e-05 1e-05
          1e-05 1e-05 1e-05 1e-05 1e-05 1e-05 1e-05 1e-05 1e-05 1e-05 1e-05 1e-05
          1e-05 1e-05 1e-05 1e-05 1e-05 1e-05 1e-05 1e-05 1e-05 1e-05 1e-05 1e-05
          1e-05 1e-05 1e-05 1e-05 1e-05 1e-05 1e-05 1e-05 1e-05
        </DataArray>
        <DataArray type="Float32" Name="S_n" NumberOfComponents="1" format="ascii">
          0.000975111 0.000975111 0.000975576 0.000975576 0.000975112 0.000975576 0.000975113 0.000975577 0.000975114 0.000975578 0.000975114 0.000975579
          0.000975115 0.00097558 0.000975116 0.000975581 0.000975117 0.000975582 0.000975117 0.000975582 0.000975118 0.000975583 0.000975118 0.000975583
          0.000975119 0.000975584 0.000975119 0.000975584 0.000975119 0.000975584 0.000975978 0.000975978 0.000975979 0.000975979 0.00097598 0.000975981
          0.000975982 0.000975983 0.000975984 0.000975984 0.000975985 0.000975985 0.000975986 0.000975986 0.000975986 0.000976461 0.000976461 0.000976461
          0.000976462 0.000976463 0.000976464 0.000976465 0.000976466 0.000976467 0.000976467 0.000976468 0.000976468 0.000976468 0.000976469 0.000976469
          0.000977041 0.000977041 0.000977042 0.000977042 0.000977043 0.000977044 0.000977045 0.000977046 0.000977047 0.000977047 0.000977048 0.000977048
          0.000977049 0.000977049 0.000977049 0.000977738 0.000977738 0.000977739 0.000977739 0.00097774 0.000977741 0.000977742 0.000977743 0.000977744
          0.000977744 0.000977745 0.000977745 0.000977746 0.000977746 0.000977746 0.000978575 0.000978576 0.000978576 0.000978577 0.000978578 0.000978579
          0.00097858 0.000978581 0.000978581 0.000978582 0.000978583 0.000978583 0.000978583 0.000978583 0.000978583 0.000979582 0.000979583 0.000979583
          0.000979584 0.000979585 0.000979586 0.000979587 0.000979588 0.000979589 0.000979589 0.00097959 0.00097959 0.000979591 0.000979591 0.000979591
          0.000980794 0.000980794 0.000980795 0.000980796 0.000980797 0.000980798 0.000980799 0.000980799 0.0009808 0.000980801 0.000980801 0.000980802
          0.000980802 0.000980802 0.000980802 0.000982251 0.000982252 0.000982252 0.000982253 0.000982254 0.000982255 0.000982256 0.000982257 0.000982258
          0.000982258 0.000982259 0.000982259 0.00098226 0.00098226 0.00098226 0.000984006 0.000984006 0.000984007 0.000984008 0.000984009 0.00098401
          0.000984011 0.000984012 0.000984013 0.000984013 0.000984014 0.000984014 0.000984015 0.000984015 0.000984015 0.00098612 0.00098612 0.000986121
          0.000986123 0.000986124 0.000986125 0.000986126 0.000986126 0.000986127 0.000986128 0.000986128 0.000986129 0.000986129 0.000986129 0.000986129
          0.000988669 0.000988669 0.00098867 0.000988672 0.000988673 0.000988674 0.000988675 0.000988676 0.000988676 0.000988677 0.000988677 0.000988678
          0.000988678 0.000988678 0.000988678 0.000991744 0.000991745 0.000991747 0.000991748 0.000991749 0.00099175 0.000991751 0.000991752 0.000991753
          0.000991753 0.000991754 0.000991754 0.000991754 0.000991755 0.000991755 0.00099546 0.000995461 0.000995463 0.000995465 0.000995466 0.000995467
          0.000995468 0.000995469 0.00099547 0.00099547 0.000995471 0.000995471 0.000995472 0.000995472 0.000995472 0.00117159 0.00107565 0.00107113
          0.0010706 0.00107072 0.00107103 0.00107135 0.00107162 0.00107184 0.00107201 0.00107263 0.00107298 0.00107316 0.00107325 0.00107312
          0.99999 0.99999 0.99999 0.99999 0.99999 0.99999 0.99999 0.99999 0.99999 0.99999 0.99999 0.99999
          0.99999 0.99999 0.99999 0.99999 0.99999 0.99999 0.99999 0.99999 0.99999 0.99999 0.99999 0.99999
          0.99999 0.99999 0.99999 0.99999 0.99999 0.99999 0.99999 0.99999 0.99999 0.99999 0.99999 0.99999
          0.99999 0.99999 0.99999 0.99999 0.99999 0.99999 0.99999 0.99999 0.99999 0.99999 0.99999 0.99999
          0.99999 0.99999 0.99999 0.99999 0.99999 0.99999 0.99999 0.99999 0.99999 0.99999 0.99999 0.99999
          0.99999 0.99999 0.99999 0.99999 0.99999 0.99999 0.99999 0.99999 0.99999 0.99999 0.99999 0.99999
          0.99999 0.99999 0.99999 0.99999 0.99999 0.99999 0.99999 0.99999 0.99999 0.99999 0.99999 0.99999
          0.99999 0.99999 0.99999 0.99999 0.99999 0.99999 0.99999 0.99999 0.99999 0.99999 0.99999 0.99999
          0.99999 0.99999 0.99999 0.99999 0.99999 0.99999 0.99999 0.99999 0.99999 0.99999 0.99999 0.99999
          0.99999 0.99999 0.99999 0.99999 0.99999 0.99999 0.99999 0.99999 0.99999 0.99999 0.99999 0.99999
          0.99999 0.99999 0.99999 0.99999 0.99999 0.99999 0.99999 0.99999 0.99999 0.99999 0.99999 0.99999
          0.99999 0.99999 0.99999 0.99999 0.99999 0.99999 0.99999 0.99999 0.99999 0.99999 0.99999 0.99999
          0.99999 0.99999 0.99999 0.99999 0.99999 0.99999 0.99999 0.99999 0.99999 0.99999 0.99999 0.99999
          0.99999 0.99999 0.99999 0.99999 0.99999 0.99999 0.99999 0.99999 0.99999 0.99999 0.99999 0.99999
          0.99999 0.99999 0.99999 0.99999 0.99999 0.99999 0.99999 0.99999 0.99999 0.99999 0.99999 0.99999
          0.99999 0.99999 0.99999 0.99999 0.99999 0.99999 0.99999 0.99999 0.99999 0.99999 0.99999 0.99999
          0.99999 0.99999 0.99999 0.99999 0.99999 0.99999 0.99999 0.99999 0.99999 0.99999 0.99999 0.99999
          0.99999 0.99999 0.99999 0.99999 0.99999 0.99999 0.99999 0.99999 0.99999 0.99999 0.99999 0.99999
          0.99999 0.99999 0.99999 0.99999 0.99999 0.99999 0.99999 0.99999 0.99999
        </DataArray>
        <DataArray type="Float32" Name="p_w" NumberOfComponents="1" format="ascii">
          100161 100161 100127 100127 100161 100127 100161 100127 100161 100127 100161 100127
          100161 100127 100161 100127 100161 100127 100160 100126 100160 100126 100160 100126
          100160 100126 100160 100126 100160 100126 100086 100086 100086 100086 100086 100086
          100086 100086 100086 100086 100086 100086 100086 100086 100086 100037 100037 100037
          100037 100037 100037 100037 100037 100037 100037 100037 100037 100037 100037 100037
          99978.7 99978.7 99978.6 99978.5 99978.4 99978.3 99978.2 99978.1 99978.1 99978 99978 99977.9
          99977.9 99977.9 99977.9 99908.2 99908.2 99908.1 99908 99907.9 99907.8 99907.8 99907.7 99907.6
          99907.5 99907.5 99907.5 99907.4 99907.4 99907.4 99823.7 99823.6 99823.6 99823.5 99823.4 99823.3
          99823.2 99823.1 99823 99823 99822.9 99822.9 99822.9 99822.8 99822.8 99722.2 99722.1 99722.1
          99722 99721.9 99721.8 99721.7 99721.6 99721.6 99721.5 99721.4 99721.4 99721.4 99721.4 99721.4
          99600.4 99600.4 99600.3 99600.2 99600.1 99600 99599.9 99599.8 99599.8 99599.7 99599.7 99599.6
          99599.6 99599.6 99599.6 99454.3 99454.3 99454.2 99454.1 99454 99453.9 99453.8 99453.7 99453.6
          99453.6 99453.5 99453.5 99453.5 99453.5 99453.5 99278.9 99278.9 99278.8 99278.7 99278.6 99278.5
          99278.4 99278.4 99278.3 99278.2 99278.2 99278.1 99278.1 99278.1 99278.1 99068.5 99068.5 99068.4
          99068.3 99068.2 99068.1 99068 99067.9 99067.9 99067.8 99067.7 99067.7 99067.7 99067.7 99067.7
          98816.1 98816 98815.9 98815.8 98815.7 98815.6 98815.5 98815.4 98815.3 98815.3 98815.2 98815.2
          98815.2 98815.1 98815.1 98513.1 98513 98512.9 98512.8 98512.7 98512.5 98512.5 98512.4 98512.3
          98512.2 98512.2 98512.2 98512.1 98512.1 98512.1 98149.7 98149.5 98149.3 98149.1 98149 98148.9
          98148.8 98148.7 98148.7 98148.6 98148.6 98148.5 98148.5 98148.5 98148.5 97713.7 97713.2 97713
          97712.8 97712.7 97712.6 97712.5 97712.4 97712.3 97712.2 97712.2 97712.2 97712.1 97712.1 97712.1
          100004 100004 100003 100003 100003 100002 100002 100002 100002 100002 100002 100002
          100002 100002 100002 100004 100003 100003 100002 100002 100002 100002 100002 100002
          100002 100002 100002 100002 100002 100002 100003 100003 100002 100002 100002 100002
          100002 100002 100002 100002 100002 100002 100002 100002 100002 100003 100002 100002
          100002 100001 100001 100001 100001 100001 100001 100001 100001 100001 100001 100001
          100002 100002 100001 100001 100001 100001 100001 100001 100001 100001 100001 100001
          100001 100001 100001 100002 100001 100001 100001 100001 100001 100001 100001 100001
          100001 100001 100001 100001 100001 100001 100002 100001 100001 100001 100001 100001
          100001 100001 100001 100001 100001 100001 100001 100001 100001 100001 100001 100001
          100001 100001 100001 100001 100001 100001 100001 100001 100001 100001 100001 100001
          100001 100001 100001 100000 100000 100000 100000 100000 100000 100000 100000 100000
          100000 100000 100000 100001 100001 100000 100000 100000 100000 100000 100000 100000
          100000 100000 100000 100000 100000 100000 100001 100000 100000 100000 100000 100000
          100000 100000 100000 100000 100000 100000 100000 100000 100000 100000 100000 100000
          100000 100000 100000 100000 100000 100000 100000 100000 100000 100000 100000 100000
          100000 100000 100000 100000 100000 100000 100000 100000 100000 100000 100000 100000
          100000 100000 100000 100000 100000 100000 100000 100000 100000 100000 100000 100000
          100000 100000 100000 100000 100000 100000 100000 100000 100000 100000 100000 100000
          100000 100000 100000 100000 100000 100000 100000 100000 100000
        </DataArray>
        <DataArray type="Float32" Name="p_n" NumberOfComponents="1" format="ascii">
          102452 102452 102418 102418 102452 102418 102452 102418 102452 102418 102452 102418
          102451 102417 102451 102417 102451 102417 102451 102417 102451 102417 102451 102417
          102451 102417 102451 102417 102451 102417 102377 102377 102377 102377 102377 102377
          102377 102377 102377 102376 102376 102376 102376 102376 102376 102328 102328 102328
          102328 102328 102328 102328 102328 102328 102328 102328 102327 102327 102327 102327
          102270 102269 102269 102269 102269 102269 102269 102269 102269 102269 102269 102269
          102269 102269 102269 102199 102199 102199 102199 102199 102199 102199 102198 102198
          102198 102198 102198 102198 102198 102198 102114 102114 102114 102114 102114 102114
          102114 102114 102114 102114 102114 102114 102114 102114 102114 102013 102013 102013
          102013 102013 102013 102013 102012 102012 102012 102012 102012 102012 102012 102012
          101891 101891 101891 101891 101891 101891 101891 101891 101891 101891 101890 101890
          101890 101890 101890 101745 101745 101745 101745 101745 101745 101745 101745 101744
          101744 101744 101744 101744 101744 101744 101570 101570 101570 101570 101569 101569
          101569 101569 101569 101569 101569 101569 101569 101569 101569 101359 101359 101359
          101359 101359 101359 101359 101359 101359 101359 101359 101359 101358 101358 101358
          101107 101107 101107 101107 101106 101106 101106 101106 101106 101106 101106 101106
          101106 101106 101106 100804 100804 100804 100804 100803 100803 100803 100803 100803
          100803 100803 100803 100803 100803 100803 100440 100440 100440 100440 100440 100440
          100440 100440 100440 100439 100439 100439 100439 100439 100439 100005 100004 100004
          100004 100004 100003 100003 100003 100003 100003 100003 100003 100003 100003 100003
          100004 100004 100003 100003 100003 100002 100002 100002 100002 100002 100002 100002
          100002 100002 100002 100004 100003 100003 100002 100002 100002 100002 100002 100002
          100002 100002 100002 100002 100002 100002 100003 100003 100002 100002 100002 100002
          100002 100002 100002 100002 100002 100002 100002 100002 100002 100003 100002 100002
          100002 100001 100001 100001 100001 100001 100001 100001 100001 100001 100001 100001
          100002 100002 100001 100001 100001 100001 100001 100001 100001 100001 100001 100001
          100001 100001 100001 100002 100001 100001 100001 100001 100001 100001 100001 100001
          100001 100001 100001 100001 100001 100001 100002 100001 100001 100001 100001 100001
          100001 100001 100001 100001 100001 100001 100001 100001 100001 100001 100001 100001
          100001 100001 100001 100001 100001 100001 100001 100001 100001 100001 100001 100001
          100001 100001 100001 100000 100000 100000 100000 100000 100000 100000 100000 100000
          100000 100000 100000 100001 100001 100000 100000 100000 100000 100000 100000 100000
          100000 100000 100000 100000 100000 100000 100001 100000 100000 100000 100000 100000
          100000 100000 100000 100000 100000 100000 100000 100000 100000 100000 100000 100000
          100000 100000 100000 100000 100000 100000 100000 100000 100000 100000 100000 100000
          100000 100000 100000 100000 100000 100000 100000 100000 100000 100000 100000 100000
          100000 100000 100000 100000 100000 100000 100000 100000 100000 100000 100000 100000
          100000 100000 100000 100000 100000 100000 100000 100000 100000 100000 100000 100000
          100000 100000 100000 100000 100000 100000 100000 100000 100000
        </DataArray>
        <DataArray type="Float32" Name="rho_w" NumberOfComponents="1" format="ascii">
          998.232 998.232 998.232 998.232 998.232 998.232 998.232 998.232 998.232 998.232 998.232 998.232
          998.232 998.232 998.232 998.232 998.232 998.232 998.232 998.232 998.232 998.232 998.232 998.232
          998.232 998.232 998.232 998.232 998.232 998.232 998.232 998.232 998.232 998.232 998.232 998.232
          998.232 998.232 998.232 998.232 998.232 998.232 998.232 998.232 998.232 998.232 998.232 998.232
          998.232 998.232 998.232 998.232 998.232 998.232 998.232 998.232 998.232 998.232 998.232 998.232
          998.232 998.232 998.232 998.232 998.232 998.232 998.232 998.232 998.232 998.232 998.232 998.232
          998.232 998.232 998.232 998.232 998.232 998.232 998.232 998.232 998.232 998.232 998.232 998.232
          998.232 998.232 998.232 998.232 998.232 998.232 998.232 998.232 998.232 998.232 998.232 998.232
          998.232 998.232 998.232 998.232 998.232 998.232 998.232 998.232 998.232 998.232 998.232 998.232
          998.232 998.232 998.232 998.232 998.232 998.232 998.232 998.232 998.232 998.232 998.232 998.232
          998.232 998.232 998.232 998.232 998.232 998.232 998.232 998.232 998.232 998.232 998.232 998.232
          998.232 998.232 998.232 998.232 998.232 998.232 998.232 998.232 998.232 998.232 998.232 998.232
          998.232 998.232 998.232 998.232 998.232 998.232 998.232 998.232 998.232 998.232 998.232 998.232
          998.232 998.232 998.232 998.232 998.232 998.232 998.232 998.232 998.232 998.232 998.232 998.232
          998.232 998.232 998.232 998.232 998.232 998.232 998.232 998.232 998.232 998.232 998.232 998.232
          998.232 998.232 998.232 998.232 998.232 998.232 998.232 998.232 998.232 998.232 998.232 998.232
          998.232 998.232 998.232 998.232 998.232 998.232 998.232 998.232 998.232 998.232 998.232 998.232
          998.232 998.232 998.232 998.232 998.232 998.232 998.232 998.232 998.232 998.232 998.232 998.232
          998.232 998.232 998.232 998.232 998.232 998.232 998.232 998.232 998.232 998.231 998.232 998.232
          998.232 998.232 998.232 998.232 998.232 998.232 998.232 998.232 998.232 998.232 998.232 998.231
          998.232 998.232 998.232 998.232 998.232 998.232 998.232 998.232 998.232 998.232 998.232 998.232
          998.232 998.232 998.232 998.232 998.232 998.232 998.232 998.232 998.232 998.232 998.232 998.232
          998.232 998.232 998.232 998.232 998.232 998.232 998.232 998.232 998.232 998.232 998.232 998.232
          998.232 998.232 998.232 998.232 998.232 998.232 998.232 998.232 998.232 998.232 998.232 998.232
          998.232 998.232 998.232 998.232 998.232 998.232 998.232 998.232 998.232 998.232 998.232 998.232
          998.232 998.232 998.232 998.232 998.232 998.232 998.232 998.232 998.232 998.232 998.232 998.232
          998.232 998.232 998.232 998.232 998.232 998.232 998.232 998.232 998.232 998.232 998.232 998.232
          998.232 998.232 998.232 998.232 998.232 998.232 998.232 998.232 998.232 998.232 998.232 998.232
          998.232 998.232 998.232 998.232 998.232 998.232 998.232 998.232 998.232 998.232 998.232 998.232
          998.232 998.232 998.232 998.232 998.232 998.232 998.232 998.232 998.232 998.232 998.232 998.232
          998.232 998.232 998.232 998.232 998.232 998.232 998.232 998.232 998.232 998.232 998.232 998.232
          998.232 998.232 998.232 998.232 998.232 998.232 998.232 998.232 998.232 998.232 998.232 998.232
          998.232 998.232 998.232 998.232 998.232 998.232 998.232 998.232 998.232 998.232 998.232 998.232
          998.232 998.232 998.232 998.232 998.232 998.232 998.232 998.232 998.232 998.232 998.232 998.232
          998.232 998.232 998.232 998.232 998.232 998.232 998.232 998.232 998.232 998.232 998.232 998.232
          998.232 998.232 998.232 998.232 998.232 998.232 998.232 998.232 998.232 998.232 998.232 998.232
          998.232 998.232 998.232 998.232 998.232 998.232 998.232 998.232 998.232 998.232 998.232 998.232
          998.232 998.232 998.232 998.232 998.232 998.232 998.232 998.232 998.232 998.232 998.232 998.232
          998.232 998.232 998.232 998.232 998.232 998.232 998.232 998.232 998.232
        </DataArray>
        <DataArray type="Float32" Name="rho_n" NumberOfComponents="1" format="ascii">
          1.16858 1.16858 1.16819 1.16819 1.16858 1.16819 1.16858 1.16819 1.16858 1.16819 1.16858 1.16819
          1.16857 1.16818 1.16857 1.16818 1.16857 1.16818 1.16857 1.16818 1.16857 1.16818 1.16857 1.16818
          1.16857 1.16818 1.16857 1.16818 1.16857 1.16818 1.16772 1.16772 1.16772 1.16772 1.16772 1.16772
          1.16772 1.16771 1.16771 1.16771 1.16771 1.16771 1.16771 1.16771 1.16771 1.16716 1.16716 1.16716
          1.16716 1.16715 1.16715 1.16715 1.16715 1.16715 1.16715 1.16715 1.16715 1.16715 1.16715 1.16715
          1.16648 1.16648 1.16648 1.16648 1.16648 1.16648 1.16648 1.16648 1.16648 1.16647 1.16647 1.16647
          1.16647 1.16647 1.16647 1.16567 1.16567 1.16567 1.16567 1.16567 1.16567 1.16567 1.16567 1.16566
          1.16566 1.16566 1.16566 1.16566 1.16566 1.16566 1.1647 1.1647 1.1647 1.1647 1.1647 1.1647
          1.16469 1.16469 1.16469 1.16469 1.16469 1.16469 1.16469 1.16469 1.16469 1.16353 1.16353 1.16353
          1.16353 1.16353 1.16353 1.16353 1.16353 1.16353 1.16352 1.16352 1.16352 1.16352 1.16352 1.16352
          1.16213 1.16213 1.16213 1.16213 1.16213 1.16213 1.16213 1.16213 1.16213 1.16212 1.16212 1.16212
          1.16212 1.16212 1.16212 1.16045 1.16045 1.16045 1.16045 1.16045 1.16045 1.16045 1.16045 1.16044
          1.16044 1.16044 1.16044 1.16044 1.16044 1.16044 1.15844 1.15844 1.15843 1.15843 1.15843 1.15843
          1.15843 1.15843 1.15843 1.15843 1.15843 1.15843 1.15843 1.15843 1.15843 1.15602 1.15602 1.15602
          1.15601 1.15601 1.15601 1.15601 1.15601 1.15601 1.15601 1.15601 1.15601 1.15601 1.15601 1.15601
          1.15311 1.15311 1.15311 1.15311 1.15311 1.15311 1.15311 1.15311 1.1531 1.1531 1.1531 1.1531
          1.1531 1.1531 1.1531 1.14963 1.14963 1.14963 1.14963 1.14962 1.14962 1.14962 1.14962 1.14962
          1.14962 1.14962 1.14962 1.14962 1.14962 1.14962 1.14545 1.14545 1.14545 1.14544 1.14544 1.14544
          1.14544 1.14544 1.14544 1.14544 1.14544 1.14544 1.14544 1.14544 1.14544 1.14057 1.14058 1.14058
          1.14058 1.14057 1.14057 1.14057 1.14057 1.14056 1.14056 1.14056 1.14056 1.14056 1.14056 1.14055
          1.14904 1.14912 1.14925 1.14946 1.14979 1.15031 1.15106 1.15202 1.15303 1.15385 1.15432 1.15449
          1.15451 1.15448 1.15444 1.14901 1.14903 1.14909 1.14921 1.14939 1.14968 1.15011 1.15062 1.15106
          1.15123 1.1511 1.15085 1.15062 1.15039 1.15009 1.149 1.14901 1.14905 1.14913 1.14927 1.14948
          1.1498 1.15014 1.15036 1.1503 1.15003 1.14973 1.1495 1.14932 1.14919 1.14899 1.149 1.14903
          1.14909 1.14921 1.14939 1.14965 1.14991 1.15001 1.14987 1.14958 1.14932 1.14916 1.14906 1.14902
          1.14898 1.14899 1.14901 1.14907 1.14917 1.14934 1.14956 1.14977 1.14981 1.14963 1.14936 1.14916
          1.14905 1.149 1.14898 1.14898 1.14898 1.149 1.14906 1.14916 1.14931 1.14951 1.14968 1.14968
          1.14948 1.14924 1.14908 1.149 1.14898 1.14897 1.14898 1.14898 1.149 1.14905 1.14914 1.14929
          1.14948 1.14962 1.14959 1.14938 1.14916 1.14903 1.14898 1.14897 1.14896 1.14897 1.14897 1.14899
          1.14904 1.14913 1.14928 1.14945 1.14958 1.14952 1.14931 1.14911 1.14901 1.14897 1.14896 1.14896
          1.14897 1.14897 1.14899 1.14904 1.14913 1.14927 1.14944 1.14955 1.14947 1.14926 1.14908 1.14899
          1.14897 1.14896 1.14896 1.14897 1.14897 1.14899 1.14904 1.14913 1.14926 1.14942 1.14952 1.14943
          1.14922 1.14905 1.14898 1.14896 1.14896 1.14896 1.14896 1.14897 1.14899 1.14904 1.14912 1.14926
          1.14942 1.1495 1.1494 1.14919 1.14903 1.14898 1.14896 1.14896 1.14896 1.14896 1.14896 1.14899
          1.14903 1.14912 1.14925 1.14941 1.14947 1.14936 1.14915 1.14901 1.14897 1.14896 1.14896 1.14896
          1.14896 1.14896 1.14899 1.14903 1.14912 1.14925 1.14938 1.14942 1.14929 1.1491 1.14899 1.14896
          1.14896 1.14896 1.14896 1.14896 1.14896 1.14898 1.14903 1.1491 1.1492 1.14929 1.14928 1.14915
          1.14903 1.14897 1.14896 1.14896 1.14896 1.14896 1.14896 1.14896 1.14896 1.14896 1.14896 1.14896
          1.14896 1.14896 1.14896 1.14896 1.14896 1.14896 1.14896 1.14896 1.14896
        </DataArray>
        <DataArray type="Float32" Name="lambda_w" NumberOfComponents="1" format="ascii">
          990.751 990.751 990.749 990.75 990.751 990.75 990.751 990.75 990.751 990.75 990.751 990.75
          990.751 990.75 990.751 990.75 990.751 990.75 990.751 990.75 990.751 990.75 990.751 990.75
          990.751 990.75 990.751 990.75 990.751 990.749 990.748 990.748 990.748 990.748 990.748 990.748
          990.748 990.748 990.748 990.748 990.748 990.748 990.748 990.748 990.748 990.746 990.747 990.747
          990.747 990.747 990.747 990.747 990.747 990.747 990.747 990.747 990.747 990.747 990.747 990.746
          990.744 990.744 990.744 990.744 990.744 990.744 990.744 990.744 990.744 990.744 990.744 990.744
          990.744 990.744 990.744 990.741 990.742 990.742 990.742 990.742 990.742 990.742 990.742 990.742
          990.742 990.742 990.742 990.742 990.742 990.741 990.738 990.739 990.739 990.739 990.739 990.739
          990.739 990.739 990.739 990.739 990.739 990.739 990.739 990.739 990.738 990.734 990.735 990.735
          990.735 990.735 990.735 990.735 990.735 990.735 990.735 990.735 990.735 990.735 990.735 990.734
          990.73 990.73 990.73 990.73 990.73 990.73 990.73 990.73 990.73 990.73 990.73 990.73
          990.73 990.73 990.73 990.725 990.725 990.725 990.725 990.725 990.725 990.725 990.725 990.725
          990.725 990.725 990.725 990.725 990.725 990.724 990.718 990.718 990.718 990.718 990.718 990.718
          990.718 990.718 990.718 990.718 990.718 990.718 990.718 990.718 990.718 990.71 990.71 990.71
          990.71 990.71 990.71 990.71 990.71 990.71 990.71 990.71 990.71 990.71 990.71 990.71
          990.701 990.701 990.701 990.701 990.701 990.701 990.701 990.701 990.701 990.701 990.701 990.701
          990.701 990.701 990.701 990.689 990.689 990.689 990.689 990.689 990.689 990.689 990.689 990.689
          990.689 990.689 990.689 990.689 990.689 990.689 990.675 990.675 990.675 990.675 990.675 990.675
          990.675 990.675 990.675 990.675 990.675 990.675 990.675 990.675 990.675 990.024 990.358 990.374
          990.376 990.376 990.375 990.374 990.373 990.372 990.372 990.37 990.368 990.368 990.367 990.388
          5.74711e-13 5.74711e-13 5.74711e-13 5.74711e-13 5.74711e-13 5.74711e-13 5.74711e-13 5.74711e-13 5.74711e-13 5.74711e-13 5.74711e-13 5.74711e-13
          5.74711e-13 5.74711e-13 5.74711e-13 5.74711e-13 5.74711e-13 5.74711e-13 5.74711e-13 5.74711e-13 5.74711e-13 5.74711e-13 5.74711e-13 5.74711e-13
          5.74711e-13 5.74711e-13 5.74711e-13 5.74711e-13 5.74711e-13 5.74711e-13 5.74711e-13 5.74711e-13 5.74711e-13 5.74711e-13 5.74711e-13 5.74711e-13
          5.74711e-13 5.74711e-13 5.74711e-13 5.74711e-13 5.74711e-13 5.74711e-13 5.74711e-13 5.74711e-13 5.74711e-13 5.74711e-13 5.74711e-13 5.74711e-13
          5.74711e-13 5.74711e-13 5.74711e-13 5.74711e-13 5.74711e-13 5.74711e-13 5.74711e-13 5.74711e-13 5.74711e-13 5.74711e-13 5.74711e-13 5.74711e-13
          5.74711e-13 5.74711e-13 5.74711e-13 5.74711e-13 5.74711e-13 5.74711e-13 5.74711e-13 5.74711e-13 5.74711e-13 5.74711e-13 5.74711e-13 5.74711e-13
          5.74711e-13 5.74711e-13 5.74711e-13 5.74711e-13 5.74711e-13 5.74711e-13 5.74711e-13 5.74711e-13 5.74711e-13 5.74711e-13 5.74711e-13 5.74711e-13
          5.74711e-13 5.74711e-13 5.74711e-13 5.74711e-13 5.74711e-13 5.74711e-13 5.74711e-13 5.74711e-13 5.74711e-13 5.74711e-13 5.74711e-13 5.74711e-13
          5.74711e-13 5.74711e-13 5.74711e-13 5.74711e-13 5.74711e-13 5.74711e-13 5.74711e-13 5.74711e-13 5.74711e-13 5.74711e-13 5.74711e-13 5.74711e-13
          5.74711e-13 5.74711e-13 5.74711e-13 5.74711e-13 5.74711e-13 5.74711e-13 5.74711e-13 5.74711e-13 5.74711e-13 5.74711e-13 5.74711e-13 5.74711e-13
          5.74711e-13 5.74711e-13 5.74711e-13 5.74711e-13 5.74711e-13 5.74711e-13 5.74711e-13 5.74711e-13 5.74711e-13 5.74711e-13 5.74711e-13 5.74711e-13
          5.74711e-13 5.74711e-13 5.74711e-13 5.74711e-13 5.74711e-13 5.74711e-13 5.74711e-13 5.74711e-13 5.74711e-13 5.74711e-13 5.74711e-13 5.74711e-13
          5.74711e-13 5.74711e-13 5.74711e-13 5.74711e-13 5.74711e-13 5.74711e-13 5.74711e-13 5.74711e-13 5.74711e-13 5.74711e-13 5.74711e-13 5.74711e-13
          5.74711e-13 5.74711e-13 5.74711e-13 5.74711e-13 5.74711e-13 5.74711e-13 5.74711e-13 5.74711e-13 5.74711e-13 5.74711e-13 5.74711e-13 5.74711e-13
          5.74711e-13 5.74711e-13 5.74711e-13 5.74711e-13 5.74711e-13 5.74711e-13 5.74711e-13 5.74711e-13 5.74711e-13 5.74711e-13 5.74711e-13 5.74711e-13