<?xml version="1.0"?>
<VTKFile type="UnstructuredGrid" version="0.1" byte_order="LittleEndian">
  <UnstructuredGrid>
    <Piece NumberOfCells="420" NumberOfPoints="465">
      <PointData Scalars="porosity" Vectors="velocity_liq (m/s)">
        <DataArray type="Float32" Name="porosity" NumberOfComponents="1" format="ascii">
          0.4 0.4 0.4 0.4 0.4 0.4 0.4 0.4 0.4 0.4 0.4 0.4
          0.4 0.4 0.4 0.4 0.4 0.4 0.4 0.4 0.4 0.4 0.4 0.4
          0.4 0.4 0.4 0.4 0.4 0.4 0.4 0.4 0.4 0.4 0.4 0.4
          0.4 0.4 0.4 0.4 0.4 0.4 0.4 0.4 0.4 0.4 0.4 0.4
          0.4 0.4 0.4 0.4 0.4 0.4 0.4 0.4 0.4 0.4 0.4 0.4
          0.4 0.4 0.4 0.4 0.4 0.4 0.4 0.4 0.4 0.4 0.4 0.4
          0.4 0.4 0.4 0.4 0.4 0.4 0.4 0.4 0.4 0.4 0.4 0.4
          0.4 0.4 0.4 0.4 0.4 0.4 0.4 0.4 0.4 0.4 0.4 0.4
          0.4 0.4 0.4 0.4 0.4 0.4 0.4 0.4 0.4 0.4 0.4 0.4
          0.4 0.4 0.4 0.4 0.4 0.4 0.4 0.4 0.4 0.4 0.4 0.4
          0.4 0.4 0.4 0.4 0.4 0.4 0.4 0.4 0.4 0.4 0.4 0.4
          0.4 0.4 0.4 0.4 0.4 0.4 0.4 0.4 0.4 0.4 0.4 0.4
          0.4 0.4 0.4 0.4 0.4 0.4 0.4 0.4 0.4 0.4 0.4 0.4
          0.4 0.4 0.4 0.4 0.4 0.4 0.4 0.4 0.4 0.4 0.4 0.4
          0.4 0.4 0.4 0.4 0.4 0.4 0.4 0.4 0.4 0.4 0.4 0.4
          0.4 0.4 0.4 0.4 0.4 0.4 0.4 0.4 0.4 0.4 0.4 0.4
          0.4 0.4 0.4 0.4 0.4 0.4 0.4 0.4 0.4 0.4 0.4 0.4
          0.4 0.4 0.4 0.4 0.4 0.4 0.4 0.4 0.4 0.4 0.4 0.4
          0.4 0.4 0.4 0.4 0.4 0.4 0.4 0.4 0.4 0.4 0.4 0.4
          0.4 0.4 0.4 0.4 0.4 0.4 0.4 0.4 0.4 0.4 0.4 0.4
          0.99 0.99 0.99 0.99 0.99 0.99 0.99 0.99 0.99 0.99 0.99 0.99
          0.99 0.99 0.99 0.99 0.99 0.99 0.99 0.99 0.99 0.99 0.99 0.99
          0.99 0.99 0.99 0.99 0.99 0.99 0.99 0.99 0.99 0.99 0.99 0.99
          0.99 0.99 0.99 0.99 0.99 0.99 0.99 0.99 0.99 0.99 0.99 0.99
          0.99 0.99 0.99 0.99 0.99 0.99 0.99 0.99 0.99 0.99 0.99 0.99
          0.99 0.99 0.99 0.99 0.99 0.99 0.99 0.99 0.99 0.99 0.99 0.99
          0.99 0.99 0.99 0.99 0.99 0.99 0.99 0.99 0.99 0.99 0.99 0.99
          0.99 0.99 0.99 0.99 0.99 0.99 0.99 0.99 0.99 0.99 0.99 0.99
          0.99 0.99 0.99 0.99 0.99 0.99 0.99 0.99 0.99 0.99 0.99 0.99
          0.99 0.99 0.99 0.99 0.99 0.99 0.99 0.99 0.99 0.99 0.99 0.99
          0.99 0.99 0.99 0.99 0.99 0.99 0.99 0.99 0.99 0.99 0.99 0.99
          0.99 0.99 0.99 0.99 0.99 0.99 0.99 0.99 0.99 0.99 0.99 0.99
          0.99 0.99 0.99 0.99 0.99 0.99 0.99 0.99 0.99 0.99 0.99 0.99
          0.99 0.99 0.99 0.99 0.99 0.99 0.99 0.99 0.99 0.99 0.99 0.99
          0.99 0.99 0.99 0.99 0.99 0.99 0.99 0.99 0.99 0.99 0.99 0.99
          0.99 0.99 0.99 0.99 0.99 0.99 0.99 0.99 0.99 0.99 0.99 0.99
          0.99 0.99 0.99 0.99 0.99 0.99 0.99 0.99 0.99 0.99 0.99 0.99
          0.99 0.99 0.99 0.99 0.99 0.99 0.99 0.99 0.99 0.99 0.99 0.99
          0.99 0.99 0.99 0.99 0.99 0.99 0.99 0.99 0.99
        </DataArray>
        <DataArray type="Float32" Name="S_liq" NumberOfComponents="1" format="ascii">
          0.826778 0.826778 0.802471 0.802471 0.826778 0.802471 0.826778 0.802471 0.826777 0.80247 0.826777 0.80247
          0.826776 0.802469 0.826776 0.802468 0.826775 0.802468 0.826774 0.802467 0.826774 0.802467 0.826773 0.802466
          0.826773 0.802466 0.826773 0.802466 0.826773 0.802465 0.800574 0.800574 0.800574 0.800573 0.800573 0.800572
          0.800572 0.800571 0.80057 0.80057 0.800569 0.800568 0.800568 0.800568 0.800568 0.800364 0.800364 0.800363
          0.800363 0.800362 0.800362 0.800361 0.80036 0.80036 0.800359 0.800358 0.800358 0.800357 0.800357 0.800357
          0.800283 0.800283 0.800283 0.800282 0.800282 0.800281 0.80028 0.80028 0.800279 0.800278 0.800278 0.800277
          0.800276 0.800276 0.800276 0.800223 0.800223 0.800222 0.800222 0.800221 0.800221 0.80022 0.800219 0.800219
          0.800218 0.800217 0.800217 0.800216 0.800215 0.800215 0.800171 0.800171 0.800171 0.80017 0.80017 0.800169
          0.800168 0.800168 0.800167 0.800166 0.800166 0.800165 0.800164 0.800164 0.800163 0.800113 0.800112 0.800112
          0.800111 0.800111 0.80011 0.800109 0.800109 0.800108 0.800107 0.800107 0.800106 0.800105 0.800105 0.800104
          0.799969 0.799969 0.799968 0.799968 0.799968 0.799967 0.799966 0.799966 0.799965 0.799965 0.799964 0.799963
          0.799963 0.799963 0.799962 0.799436 0.799437 0.799438 0.799438 0.799438 0.799437 0.799437 0.799437 0.799437
          0.799436 0.799436 0.799436 0.799436 0.799437 0.799439 0.797666 0.79767 0.797673 0.797675 0.797676 0.797677
          0.797678 0.797678 0.797679 0.797679 0.79768 0.797681 0.797682 0.797688 0.797697 0.793036 0.793049 0.793058
          0.793063 0.793067 0.79307 0.793073 0.793076 0.793078 0.793081 0.793083 0.793087 0.793092 0.793106 0.793136
          0.783646 0.783676 0.783695 0.783706 0.783714 0.783721 0.783727 0.783733 0.783738 0.783744 0.78375 0.783756
          0.783766 0.783794 0.783866 0.768712 0.768766 0.768796 0.768813 0.768826 0.768837 0.768847 0.768856 0.768865
          0.768874 0.768883 0.768894 0.76891 0.768949 0.769085 0.749465 0.749547 0.749585 0.749608 0.749625 0.74964
          0.749652 0.749664 0.749675 0.749687 0.749699 0.749713 0.749733 0.749779 0.749988 0.728238 0.728347 0.72839
          0.728417 0.728437 0.728453 0.728467 0.72848 0.728493 0.728506 0.728519 0.728536 0.728559 0.728606 0.728885
          0.000100017 0.000100017 0.000100017 0.000100017 0.000100017 0.000100017 0.000100017 0.000100017 0.000100017 0.000100017 0.000100017 0.000100017
          0.000100017 0.000100017 0.0001 0.0001 0.0001 0.0001 0.0001 0.0001 0.0001 0.0001 0.0001 0.0001
          0.0001 0.0001 0.0001 0.0001 0.0001 0.0001 0.0001 0.0001 0.0001 0.0001 0.0001 0.0001
          0.0001 0.0001 0.0001 0.0001 0.0001 0.0001 0.0001 0.0001 0.0001 0.0001 0.0001 0.0001
          0.0001 0.0001 0.0001 0.0001 0.0001 0.0001 0.0001 0.0001 0.0001 0.0001 0.0001 0.0001
          0.0001 0.0001 0.0001 0.0001 0.0001 0.0001 0.0001 0.0001 0.0001 0.0001 0.0001 0.0001
          0.0001 0.0001 0.0001 0.0001 0.0001 0.0001 0.0001 0.0001 0.0001 0.0001 0.0001 0.0001
          0.0001 0.0001 0.0001 0.0001 0.0001 0.0001 0.0001 0.0001 0.0001 0.0001 0.0001 0.0001
          0.0001 0.0001 0.0001 0.0001 0.0001 0.0001 0.0001 0.0001 0.0001 0.0001 0.0001 0.0001
          0.0001 0.0001 0.0001 0.0001 0.0001 0.0001 0.0001 0.0001 0.0001 0.0001 0.0001 0.0001
          0.0001 0.0001 0.0001 0.0001 0.0001 0.0001 0.0001 0.0001 0.0001 0.0001 0.0001 0.0001
          0.0001 0.0001 0.0001 0.0001 0.0001 0.0001 0.0001 0.0001 0.0001 0.0001 0.0001 0.0001
          0.0001 0.0001 0.0001 0.0001 0.0001 0.0001 0.0001 0.0001 0.0001 0.0001 0.0001 0.0001
          0.0001 0.0001 0.0001 0.0001 0.0001 0.0001 0.0001 0.0001 0.0001 0.0001 0.0001 0.0001
          0.0001 0.0001 0.0001 0.0001 0.0001 0.0001 0.0001 0.0001 0.0001 0.0001 0.0001 0.0001
          0.0001 0.0001 0.0001 0.0001 0.0001 0.0001 0.0001 0.0001 0.0001 0.0001 0.0001 0.0001
          0.0001 0.0001 0.0001 0.0001 0.0001 0.0001 0.0001 0.0001 0.0001 0.0001 0.0001 0.0001
          0.0001 0.0001 0.0001 0.0001 0.0001 0.0001 9.99972e-05 9.99972e-05 9.99972e-05 9.99972e-05 9.99972e-05 9.99972e-05
          9.99972e-05 9.99972e-05 9.99972e-05 9.99972e-05 9.99972e-05 9.99972e-05 9.99972e-05 9.99972e-05 0.0001
        </DataArray>
        <DataArray type="Float32" Name="p_liq" NumberOfComponents="1" format="ascii">
          98451.4 98451.3 98230.6 98230.5 98450.9 98230.1 98450.4 98229.6 98449.7 98228.9 98449 98228.2
          98448.2 98227.4 98447.4 98226.5 98446.5 98225.7 98445.7 98224.9 98444.9 98224.1 98444.2 98223.3
          98443.6 98222.7 98443.1 98222.3 98443 98222.1 98092.4 98092.2 98091.8 98091.3 98090.6 98089.8
          98089 98088.1 98087.3 98086.5 98085.7 98084.9 98084.2 98083.8 98083.6 97980.5 97980.3 97979.9
          97979.3 97978.5 97977.8 97976.9 97976.1 97975.2 97974.4 97973.6 97972.8 97972.1 97971.5 97971.3
          97887.7 97887.5 97887 97886.4 97885.6 97884.8 97884 97883.1 97882.2 97881.4 97880.5 97879.7
          97879 97878.4 97878.1 97810.5 97810.3 97809.8 97809.1 97808.3 97807.5 97806.6 97805.8 97804.9
          97804 97803.1 97802.3 97801.5 97800.8 97800.5 97746.3 97746 97745.5 97744.7 97743.9 97743.1
          97742.2 97741.4 97740.5 97739.6 97738.7 97737.8 97737 97736.2 97735.8 97692.8 97692.5 97691.9
          97691.1 97690.3 97689.5 97688.6 97687.7 97686.8 97685.9 97685 97684.1 97683.2 97682.4 97681.9
          97648.3 97647.9 97647.2 97646.4 97645.6 97644.7 97643.9 97643 97642.1 97641.2 97640.3 97639.4
          97638.4 97637.5 97636.8 97610.9 97610.5 97609.8 97609 97608.1 97607.3 97606.4 97605.5 97604.6
          97603.7 97602.8 97601.8 97600.9 97599.9 97599.1 97579.2 97578.7 97578 97577.1 97576.3 97575.4
          97574.5 97573.6 97572.7 97571.8 97570.8 97569.9 97568.9 97567.9 97566.9 97551.2 97550.6 97549.9
          97549 97548.1 97547.2 97546.3 97545.4 97544.5 97543.6 97542.7 97541.7 97540.8 97539.7 97538.5
          97524.8 97524.2 97523.4 97522.6 97521.7 97520.8 97519.9 97519 97518.1 97517.1 97516.2 97515.3
          97514.3 97513.2 97511.9 97498.5 97497.8 97497 97496.1 97495.2 97494.3 97493.4 97492.5 97491.6
          97490.7 97489.8 97488.8 97487.8 97486.7 97485.3 97471.2 97470.5 97469.7 97468.8 97467.9 97467
          97466.1 97465.2 97464.3 97463.4 97462.4 97461.5 97460.5 97459.4 97457.9 97443.2 97442.5 97441.7
          97440.8 97440 97439 97438.1 97437.2 97436.3 97435.4 97434.5 97433.5 97432.5 97431.4 97429.9
          100014 100013 100012 100012 100011 100010 100009 100008 100007 100006 100005 100004
          100003 100002 100000 100014 100013 100012 100012 100011 100010 100009 100008 100007
          100006 100005 100004 100003 100002 100000 100014 100013 100012 100011 100011 100010
          100009 100008 100007 100006 100005 100004 100003 100002 100000 100014 100013 100012
          100011 100010 100010 100009 100008 100007 100006 100005 100004 100003 100002 100000
          100014 100013 100012 100011 100010 100009 100009 100008 100007 100006 100005 100004
          100003 100002 100000 100014 100013 100012 100011 100010 100009 100008 100008 100007
[...]
      <CellData Scalars="process rank">
        <DataArray type="Float32" Name="process rank" NumberOfComponents="1" format="ascii">
          0 0 0 0 0 0 0 0 0 0 0 0
          0 0 0 0 0 0 0 0 0 0 0 0
          0 0 0 0 0 0 0 0 0 0 0 0
          0 0 0 0 0 0 0 0 0 0 0 0
          0 0 0 0 0 0 0 0 0 0 0 0
          0 0 0 0 0 0 0 0 0 0 0 0
          0 0 0 0 0 0 0 0 0 0 0 0
          0 0 0 0 0 0 0 0 0 0 0 0
          0 0 0 0 0 0 0 0 0 0 0 0
          0 0 0 0 0 0 0 0 0 0 0 0
          0 0 0 0 0 0 0 0 0 0 0 0
          0 0 0 0 0 0 0 0 0 0 0 0
          0 0 0 0 0 0 0 0 0 0 0 0
          0 0 0 0 0 0 0 0 0 0 0 0
          0 0 0 0 0 0 0 0 0 0 0 0
          0 0 0 0 0 0 0 0 0 0 0 0
          0 0 0 0 0 0 0 0 0 0 0 0
          0 0 0 0 0 0 0 0 0 0 0 0
          0 0 0 0 0 0 0 0 0 0 0 0
          0 0 0 0 0 0 0 0 0 0 0 0
          0 0 0 0 0 0 0 0 0 0 0 0
          0 0 0 0 0 0 0 0 0 0 0 0
          0 0 0 0 0 0 0 0 0 0 0 0
          0 0 0 0 0 0 0 0 0 0 0 0
          0 0 0 0 0 0 0 0 0 0 0 0
          0 0 0 0 0 0 0 0 0 0 0 0
          0 0 0 0 0 0 0 0 0 0 0 0
          0 0 0 0 0 0 0 0 0 0 0 0
          0 0 0 0 0 0 0 0 0 0 0 0
          0 0 0 0 0 0 0 0 0 0 0 0
          0 0 0 0 0 0 0 0 0 0 0 0
          0 0 0 0 0 0 0 0 0 0 0 0
          0 0 0 0 0 0 0 0 0 0 0 0
          0 0 0 0 0 0 0 0 0 0 0 0
          0 0 0 0 0 0 0 0 0 0 0 0
        </DataArray>
      </CellData>
      <Points>
        <DataArray type="Float32" Name="Coordinates" NumberOfComponents="3" format="ascii">
          0 0 0 0.0714286 0 0 0 0.0445588 0 0.0714286 0.0445588 0
          0.142857 0 0 0.142857 0.0445588 0 0.214286 0 0 0.214286 0.0445588 0
          0.285714 0 0 0.285714 0.0445588 0 0.357143 0 0 0.357143 0.0445588 0
          0.428571 0 0 0.428571 0.0445588 0 0.5 0 0 0.5 0.0445588 0
          0.571429 0 0 0.571429 0.0445588 0 0.642857 0 0 0.642857 0.0445588 0
          0.714286 0 0 0.714286 0.0445588 0 0.785714 0 0 0.785714 0.0445588 0
          0.857143 0 0 0.857143 0.0445588 0 0.928571 0 0 0.928571 0.0445588 0
          1 0 0 1 0.0445588 0 0 0.0816912 0 0.0714286 0.0816912 0
          0.142857 0.0816912 0 0.214286 0.0816912 0 0.285714 0.0816912 0 0.357143 0.0816912 0
          0.428571 0.0816912 0 0.5 0.0816912 0 0.571429 0.0816912 0 0.642857 0.0816912 0
          0.714286 0.0816912 0 0.785714 0.0816912 0 0.857143 0.0816912 0 0.928571 0.0816912 0
          1 0.0816912 0 0 0.112635 0 0.0714286 0.112635 0 0.142857 0.112635 0
          0.214286 0.112635 0 0.285714 0.112635 0 0.357143 0.112635 0 0.428571 0.112635 0
          0.5 0.112635 0 0.571429 0.112635 0 0.642857 0.112635 0 0.714286 0.112635 0
          0.785714 0.112635 0 0.857143 0.112635 0 0.928571 0.112635 0 1 0.112635 0
          0 0.138421 0 0.0714286 0.138421 0 0.142857 0.138421 0 0.214286 0.138421 0
          0.285714 0.138421 0 0.357143 0.138421 0 0.428571 0.138421 0 0.5 0.138421 0
          0.571429 0.138421 0 0.642857 0.138421 0 0.714286 0.138421 0 0.785714 0.138421 0
          0.857143 0.138421 0 0.928571 0.138421 0 1 0.138421 0 0 0.15991 0
          0.0714286 0.15991 0 0.142857 0.15991 0 0.214286 0.15991 0 0.285714 0.15991 0
          0.357143 0.15991 0 0.428571 0.15991 0 0.5 0.15991 0 0.571429 0.15991 0
          0.642857 0.15991 0 0.714286 0.15991 0 0.785714 0.15991 0 0.857143 0.15991 0
          0.928571 0.15991 0 1 0.15991 0 0 0.177817 0 0.0714286 0.177817 0
          0.142857 0.177817 0 0.214286 0.177817 0 0.285714 0.177817 0 0.357143 0.177817 0
          0.428571 0.177817 0 0.5 0.177817 0 0.571429 0.177817 0 0.642857 0.177817 0
          0.714286 0.177817 0 0.785714 0.177817 0 0.857143 0.177817 0 0.928571 0.177817 0
          1 0.177817 0 0 0.19274 0 0.0714286 0.19274 0 0.142857 0.19274 0
          0.214286 0.19274 0 0.285714 0.19274 0 0.357143 0.19274 0 0.428571 0.19274 0
          0.5 0.19274 0 0.571429 0.19274 0 0.642857 0.19274 0 0.714286 0.19274 0
          0.785714 0.19274 0 0.857143 0.19274 0 0.928571 0.19274 0 1 0.19274 0
          0 0.205175 0 0.0714286 0.205175 0 0.142857 0.205175 0 0.214286 0.205175 0
          0.285714 0.205175 0 0.357143 0.205175 0 0.428571 0.205175 0 0.5 0.205175 0
          0.571429 0.205175 0 0.642857 0.205175 0 0.714286 0.205175 0 0.785714 0.205175 0
          0.857143 0.205175 0 0.928571 0.205175 0 1 0.205175 0 0 0.215538 0
          0.0714286 0.215538 0 0.142857 0.215538 0 0.214286 0.215538 0 0.285714 0.215538 0
          0.357143 0.215538 0 0.428571 0.215538 0 0.5 0.215538 0 0.571429 0.215538 0
          0.642857 0.215538 0 0.714286 0.215538 0 0.785714 0.215538 0 0.857143 0.215538 0
          0.928571 0.215538 0 1 0.215538 0 0 0.224174 0 0.0714286 0.224174 0
          0.142857 0.224174 0 0.214286 0.224174 0 0.285714 0.224174 0 0.357143 0.224174 0
          0.428571 0.224174 0 0.5 0.224174 0 0.571429 0.224174 0 0.642857 0.224174 0
          0.714286 0.224174 0 0.785714 0.224174 0 0.857143 0.224174 0 0.928571 0.224174 0
          1 0.224174 0 0 0.23137 0 0.0714286 0.23137 0 0.142857 0.23137 0
          0.214286 0.23137 0 0.285714 0.23137 0 0.357143 0.23137 0 0.428571 0.23137 0
          0.5 0.23137 0 0.571429 0.23137 0 0.642857 0.23137 0 0.714286 0.23137 0
          0.785714 0.23137 0 0.857143 0.23137 0 0.928571 0.23137 0 1 0.23137 0
          0 0.237367 0 0.0714286 0.237367 0 0.142857 0.237367 0 0.214286 0.237367 0
          0.285714 0.237367 0 0.357143 0.237367 0 0.428571 0.237367 0 0.5 0.237367 0
          0.571429 0.237367 0 0.642857 0.237367 0 0.714286 0.237367 0 0.785714 0.237367 0
          0.857143 0.237367 0 0.928571 0.237367 0 1 0.237367 0 0 0.242365 0
          0.0714286 0.242365 0 0.142857 0.242365 0 0.214286 0.242365 0 0.285714 0.242365 0
          0.357143 0.242365 0 0.428571 0.242365 0 0.5 0.242365 0 0.571429 0.242365 0
          0.642857 0.242365 0 0.714286 0.242365 0 0.785714 0.242365 0 0.857143 0.242365 0
          0.928571 0.242365 0 1 0.242365 0 0 0.246529 0 0.0714286 0.246529 0
          0.142857 0.246529 0 0.214286 0.246529 0 0.285714 0.246529 0 0.357143 0.246529 0
          0.428571 0.246529 0 0.5 0.246529 0 0.571429 0.246529 0 0.642857 0.246529 0
          0.714286 0.246529 0 0.785714 0.246529 0 0.857143 0.246529 0 0.928571 0.246529 0
          1 0.246529 0 0 0.25 0 0.0714286 0.25 0 0.142857 0.25 0
          0.214286 0.25 0 0.285714 0.25 0 0.357143 0.25 0 0.428571 0.25 0
          0.5 0.25 0 0.571429 0.25 0 0.642857 0.25 0 0.714286 0.25 0
          0.785714 0.25 0 0.857143 0.25 0 0.928571 0.25 0 1 0.25 0
          0 0.253471 0 0.0714286 0.253471 0 0.142857 0.253471 0 0.214286 0.253471 0
          0.285714 0.253471 0 0.357143 0.253471 0 0.428571 0.253471 0 0.5 0.253471 0
          0.571429 0.253471 0 0.642857 0.253471 0 0.714286 0.253471 0 0.785714 0.253471 0
          0.857143 0.253471 0 0.928571 0.253471 0 1 0.253471 0 0 0.257635 0
          0.0714286 0.257635 0 0.142857 0.257635 0 0.214286 0.257635 0 0.285714 0.257635 0
          0.357143 0.257635 0 0.428571 0.257635 0 0.5 0.257635 0 0.571429 0.257635 0
          0.642857 0.257635 0 0.714286 0.257635 0 0.785714 0.257635 0 0.857143 0.257635 0
          0.928571 0.257635 0 1 0.257635 0 0 0.262633 0 0.0714286 0.262633 0
          0.142857 0.262633 0 0.214286 0.262633 0 0.285714 0.262633 0 0.357143 0.262633 0
          0.428571 0.262633 0 0.5 0.262633 0 0.571429 0.262633 0 0.642857 0.262633 0
          0.714286 0.262633 0 0.785714 0.262633 0 0.857143 0.262633 0 0.928571 0.262633 0
          1 0.262633 0 0 0.26863 0 0.0714286 0.26863 0 0.142857 0.26863 0
          0.214286 0.26863 0 0.285714 0.26863 0 0.357143 0.26863 0 0.428571 0.26863 0
          0.5 0.26863 0 0.571429 0.26863 0 0.642857 0.26863 0 0.714286 0.26863 0
          0.785714 0.26863 0 0.857143 0.26863 0 0.928571 0.26863 0 1 0.26863 0
          0 0.275826 0 0.0714286 0.275826 0 0.142857 0.275826 0 0.214286 0.275826 0
          0.285714 0.275826 0 0.357143 0.275826 0 0.428571 0.275826 0 0.5 0.275826 0
          0.571429 0.275826 0 0.642857 0.275826 0 0.714286 0.275826 0 0.785714 0.275826 0
          0.857143 0.275826 0 0.928571 0.275826 0 1 0.275826 0 0 0.284462 0
          0.0714286 0.284462 0 0.142857 0.284462 0 0.214286 0.284462 0 0.285714 0.284462 0
          0.357143 0.284462 0 0.428571 0.284462 0 0.5 0.284462 0 0.571429 0.284462 0
          0.642857 0.284462 0 0.714286 0.284462 0 0.785714 0.284462 0 0.857143 0.284462 0
          0.928571 0.284462 0 1 0.284462 0 0 0.294825 0 0.0714286 0.294825 0
          0.142857 0.294825 0 0.214286 0.294825 0 0.285714 0.294825 0 0.357143 0.294825 0
          0.428571 0.294825 0 0.5 0.294825 0 0.571429 0.294825 0 0.642857 0.294825 0
          0.714286 0.294825 0 0.785714 0.294825 0 0.857143 0.294825 0 0.928571 0.294825 0
          1 0.294825 0 0 0.30726 0 0.0714286 0.30726 0 0.142857 0.30726 0
          0.214286 0.30726 0 0.285714 0.30726 0 0.357143 0.30726 0 0.428571 0.30726 0
          0.5 0.30726 0 0.571429 0.30726 0 0.642857 0.30726 0 0.714286 0.30726 0
          0.785714 0.30726 0 0.857143 0.30726 0 0.928571 0.30726 0 1 0.30726 0
          0 0.322183 0 0.0714286 0.322183 0 0.142857 0.322183 0 0.214286 0.322183 0
          0.285714 0.322183 0 0.357143 0.322183 0 0.428571 0.322183 0 0.5 0.322183 0
          0.571429 0.322183 0 0.642857 0.322183 0 0.714286 0.322183 0 0.785714 0.322183 0
          0.857143 0.322183 0 0.928571 0.322183 0 1 0.322183 0 0 0.34009 0
          0.0714286 0.34009 0 0.142857 0.34009 0 0.214286 0.34009 0 0.285714 0.34009 0
          0.357143 0.34009 0 0.428571 0.34009 0 0.5 0.34009 0 0.571429 0.34009 0
          0.642857 0.34009 0 0.714286 0.34009 0 0.785714 0.34009 0 0.857143 0.34009 0
          0.928571 0.34009 0 1 0.34009 0 0 0.361579 0 0.0714286 0.361579 0
          0.142857 0.361579 0 0.214286 0.361579 0 0.285714 0.361579 0 0.357143 0.361579 0
          0.428571 0.361579 0 0.5 0.361579 0 0.571429 0.361579 0 0.642857 0.361579 0
          0.714286 0.361579 0 0.785714 0.361579 0 0.857143 0.361579 0 0.928571 0.361579 0
          1 0.361579 0 0 0.387365 0 0.0714286 0.387365 0 0.142857 0.387365 0
          0.214286 0.387365 0 0.285714 0.387365 0 0.357143 0.387365 0 0.428571 0.387365 0
          0.5 0.387365 0 0.571429 0.387365 0 0.642857 0.387365 0 0.714286 0.387365 0
          0.785714 0.387365 0 0.857143 0.387365 0 0.928571 0.387365 0 1 0.387365 0
          0 0.418309 0 0.0714286 0.418309 0 0.142857 0.418309 0 0.214286 0.418309 0
          0.285714 0.418309 0 0.357143 0.418309 0 0.428571 0.418309 0 0.5 0.418309 0
          0.571429 0.418309 0 0.642857 0.418309 0 0.714286 0.418309 0 0.785714 0.418309 0
          0.857143 0.418309 0 0.928571 0.418309 0 1 0.418309 0 0 0.455441 0
          0.0714286 0.455441 0 0.142857 0.455441 0 0.214286 0.455441 0 0.285714 0.455441 0
          0.357143 0.455441 0 0.428571 0.455441 0 0.5 0.455441 0 0.571429 0.455441 0
          0.642857 0.455441 0 0.714286 0.455441 0 0.785714 0.455441 0 0.857143 0.455441 0
          0.928571 0.455441 0 1 0.455441 0 0 0.5 0 0.0714286 0.5 0
          0.142857 0.5 0 0.214286 0.5 0 0.285714 0.5 0 0.357143 0.5 0
          0.428571 0.5 0 0.5 0.5 0 0.571429 0.5 0 0.642857 0.5 0
          0.714286 0.5 0 0.785714 0.5 0 0.857143 0.5 0 0.928571 0.5 0
          1 0.5 0
        </DataArray>
      </Points>
      <Cells>
        <DataArray type="Int32" Name="connectivity" NumberOfComponents="1" format="ascii">
          0 1 3 2 1 4 5 3 4 6 7 5
          6 8 9 7 8 10 11 9 10 12 13 11
          12 14 15 13 14 16 17 15 16 18 19 17
          18 20 21 19 20 22 23 21 22 24 25 23
          24 26 27 25 26 28 29 27 2 3 31 30
          3 5 32 31 5 7 33 32 7 9 34 33
          9 11 35 34 11 13 36 35 13 15 37 36
          15 17 38 37 17 19 39 38 19 21 40 39
          21 23 41 40 23 25 42 41 25 27 43 42
          27 29 44 43 30 31 46 45 31 32 47 46
          32 33 48 47 33 34 49 48 34 35 50 49
          35 36 51 50 36 37 52 51 37 38 53 52
          38 39 54 53 39 40 55 54 40 41 56 55
          41 42 57 56 42 43 58 57 43 44 59 58
          45 46 61 60 46 47 62 61 47 48 63 62
          48 49 64 63 49 50 65 64 50 51 66 65
          51 52 67 66 52 53 68 67 53 54 69 68
          54 55 70 69 55 56 71 70 56 57 72 71
          57 58 73 72 58 59 74 73 60 61 76 75
          61 62 77 76 62 63 78 77 63 64 79 78
          64 65 80 79 65 66 81 80 66 67 82 81
          67 68 83 82 68 69 84 83 69 70 85 84
          70 71 86 85 71 72 87 86 72 73 88 87
          73 74 89 88 75 76 91 90 76 77 92 91
          77 78 93 92 78 79 94 93 79 80 95 94
          80 81 96 95 81 82 97 96 82 83 98 97
          83 84 99 98 84 85 100 99 85 86 101 100
          86 87 102 101 87 88 103 102 88 89 104 103
          90 91 106 105 91 92 107 106 92 93 108 107
          93 94 109 108 94 95 110 109 95 96 111 110
          96 97 112 111 97 98 113 112 98 99 114 113
          99 100 115 114 100 101 116 115 101 102 117 116
          102 103 118 117 103 104 119 118 105 106 121 120
          106 107 122 121 107 108 123 122 108 109 124 123
          109 110 125 124 110 111 126 125 111 112 127 126
          112 113 128 127 113 114 129 128 114 115 130 129
          115 116 131 130 116 117 132 131 117 118 133 132
          118 119 134 133 120 121 136 135 121 122 137 136
          122 123 138 137 123 124 139 138 124 125 140 139
          125 126 141 140 126 127 142 141 127 128 143 142
          128 129 144 143 129 130 145 144 130 131 146 145
          131 132 147 146 132 133 148 147 133 134 149 148
          135 136 151 150 136 137 152 151 137 138 153 152
          138 139 154 153 139 140 155 154 140 141 156 155
          141 142 157 156 142 143 158 157 143 144 159 158
          144 145 160 159 145 146 161 160 146 147 162 161
          147 148 163 162 148 149 164 163 150 151 166 165
          151 152 167 166 152 153 168 167 153 154 169 168
          154 155 170 169 155 156 171 170 156 157 172 171
          157 158 173 172 158 159 174 173 159 160 175 174
          160 161 176 175 161 162 177 176 162 163 178 177
          163 164 179 178 165 166 181 180 166 167 182 181
          167 168 183 182 168 169 184 183 169 170 185 184
          170 171 186 185 171 172 187 186 172 173 188 187
          173 174 189 188 174 175 190 189 175 176 191 190
          176 177 192 191 177 178 193 192 178 179 194 193
          180 181 196 195 181 182 197 196 182 183 198 197
          183 184 199 198 184 185 200 199 185 186 201 200
          186 187 202 201 187 188 203 202 188 189 204 203
          189 190 205 204 190 191 206 205 191 192 207 206
          192 193 208 207 193 194 209 208 195 196 211 210
          196 197 212 211 197 198 213 212 198 199 214 213
          199 200 215 214 200 201 216 215 201 202 217 216
          202 203 218 217 203 204 219 218 204 205 220 219
          205 206 221 220 206 207 222 221 207 208 223 222
          208 209 224 223 210 211 226 225 211 212 227 226
          212 213 228 227 213 214 229 228 214 215 230 229
          215 216 231 230 216 217 232 231 217 218 233 232
          218 219 234 233 219 220 235 234 220 221 236 235
          221 222 237 236 222 223 238 237 223 224 239 238
          225 226 241 240 226 227 242 241 227 228 243 242
          228 229 244 243 229 230 245 244 230 231 246 245
          231 232 247 246 232 233 248 247 233 234 249 248
          234 235 250 249 235 236 251 250 236 237 252 251
          237 238 253 252 238 239 254 253 240 241 256 255
          241 242 257 256 242 243 258 257 243 244 259 258
          244 245 260 259 245 246 261 260 246 247 262 261
          247 248 263 262 248 249 264 263 249 250 265 264
          250 251 266 265 251 252 267 266 252 253 268 267
          253 254 269 268 255 256 271 270 256 257 272 271
          257 258 273 272 258 259 274 273 259 260 275 274
          260 261 276 275 261 262 277 276 262 263 278 277
          263 264 279 278 264 265 280 279 265 266 281 280
          266 267 282 281 267 268 283 282 268 269 284 283
          270 271 286 285 271 272 287 286 272 273 288 287
          273 274 289 288 274 275 290 289 275 276 291 290
          276 277 292 291 277 278 293 292 278 279 294 293
          279 280 295 294 280 281 296 295 281 282 297 296
          282 283 298 297 283 284 299 298 285 286 301 300
          286 287 302 301 287 288 303 302 288 289 304 303
          289 290 305 304 290 291 306 305 291 292 307 306
          292 293 308 307 293 294 309 308 294 295 310 309
          295 296 311 310 296 297 312 311 297 298 313 312
          298 299 314 313 300 301 316 315 301 302 317 316
          302 303 318 317 303 304 319 318 304 305 320 319
          305 306 321 320 306 307 322 321 307 308 323 322
          308 309 324 323 309 310 325 324 310 311 326 325
          311 312 327 326 312 313 328 327 313 314 329 328
          315 316 331 330 316 317 332 331 317 318 333 332
          318 319 334 333 319 320 335 334 320 321 336 335
          321 322 337 336 322 323 338 337 323 324 339 338
          324 325 340 339 325 326 341 340 326 327 342 341
          327 328 343 342 328 329 344 343 330 331 346 345
          331 332 347 346 332 333 348 347 333 334 349 348
          334 335 350 349 335 336 351 350 336 337 352 351
          337 338 353 352 338 339 354 353 339 340 355 354
          340 341 356 355 341 342 357 356 342 343 358 357
          343 344 359 358 345 346 361 360 346 347 362 361
          347 348 363 362 348 349 364 363 349 350 365 364
          350 351 366 365 351 352 367 366 352 353 368 367
          353 354 369 368 354 355 370 369 355 356 371 370
          356 357 372 371 357 358 373 372 358 359 374 373
          360 361 376 375 361 362 377 376 362 363 378 377
          363 364 379 378 364 365 380 379 365 366 381 380
          366 367 382 381 367 368 383 382 368 369 384 383
          369 370 385 384 370 371 386 385 371 372 387 386
          372 373 388 387 373 374 389 388 375 376 391 390
          376 377 392 391 377 378 393 392 378 379 394 393
          379 380 395 394 380 381 396 395 381 382 397 396
          382 383 398 397 383 384 399 398 384 385 400 399
          385 386 401 400 386 387 402 401 387 388 403 402
          388 389 404 403 390 391 406 405 391 392 407 406
          392 393 408 407 393 394 409 408 394 395 410 409
          395 396 411 410 396 397 412 411 397 398 413 412
          398 399 414 413 399 400 415 414 400 401 416 415
          401 402 417 416 402 403 418 417 403 404 419 418
          405 406 421 420 406 407 422 421 407 408 423 422
          408 409 424 423 409 410 425 424 410 411 426 425
          411 412 427 426 412 413 428 427 413 414 429 428
          414 415 430 429 415 416 431 430 416 417 432 431
          417 418 433 432 418 419 434 433 420 421 436 435
          421 422 437 436 422 423 438 437 423 424 439 438
          424 425 440 439 425 426 441 440 426 427 442 441
          427 428 443 442 428 429 444 443 429 430 445 444
          430 431 446 445 431 432 447 446 432 433 448 447
          433 434 449 448 435 436 451 450 436 437 452 451
          437 438 453 452 438 439 454 453 439 440 455 454
          440 441 456 455 441 442 457 456 442 443 458 457
          443 444 459 458 444 445 460 459 445 446 461 460
          446 447 462 461 447 448 463 462 448 449 464 463
        </DataArray>
        <DataArray type="Int32" Name="offsets" NumberOfComponents="1" format="ascii">
          4 8 12 16 20 24 28 32 36 40 44 48
          52 56 60 64 68 72 76 80 84 88 92 96
          100 104 108 112 116 120 124 128 132 136 140 144
          148 152 156 160 164 168 172 176 180 184 188 192
          196 200 204 208 212 216 220 224 228 232 236 240
          244 248 252 256 260 264 268 272 276 280 284 288
          292 296 300 304 308 312 316 320 324 328 332 336
          340 344 348 352 356 360 364 368 372 376 380 384
          388 392 396 400 404 408 412 416 420 424 428 432
          436 440 444 448 452 456 460 464 468 472 476 480
          484 488 492 496 500 504 508 512 516 520 524 528
          532 536 540 544 548 552 556 560 564 568 572 576
          580 584 588 592 596 600 604 608 612 616 620 624
          628 632 636 640 644 648 652 656 660 664 668 672
          676 680 684 688 692 696 700 704 708 712 716 720
          724 728 732 736 740 744 748 752 756 760 764 768