<?xml version="1.0"?>
<VTKFile type="UnstructuredGrid" version="0.1" byte_order="LittleEndian">
  <UnstructuredGrid>
    <Piece NumberOfCells="1885" NumberOfPoints="1980">
      <PointData Scalars="S_w" Vectors="velocity_w">
        <DataArray type="Float32" Name="S_w" NumberOfComponents="1" format="ascii">
          0.999014 0.999014 0.999011 0.999011 0.999014 0.999011 0.999014 0.999011 0.999014 0.999011 0.999014 0.999011
          0.999014 0.999011 0.999014 0.999011 0.999014 0.999011 0.999014 0.999011 0.999014 0.999011 0.999014 0.999011
          0.999014 0.999011 0.999014 0.999011 0.999014 0.999011 0.999014 0.999011 0.999014 0.999011 0.999014 0.999011
          0.999014 0.999011 0.999014 0.999011 0.999014 0.999011 0.999014 0.999011 0.999014 0.999011 0.999014 0.999011
          0.999014 0.999011 0.999014 0.999011 0.999014 0.999011 0.999014 0.999011 0.999014 0.999011 0.999014 0.999011
          0.999009 0.999009 0.999009 0.999009 0.999009 0.999009 0.999009 0.999009 0.999009 0.999009 0.999009 0.999009
          0.999009 0.999009 0.999009 0.999009 0.999009 0.999009 0.999009 0.999009 0.999009 0.999009 0.999009 0.999009
          0.999009 0.999009 0.999009 0.999009 0.999009 0.999009 0.999008 0.999008 0.999008 0.999008 0.999008 0.999008
          0.999008 0.999008 0.999008 0.999008 0.999008 0.999008 0.999008 0.999008 0.999008 0.999008 0.999008 0.999008
          0.999008 0.999008 0.999008 0.999008 0.999008 0.999008 0.999008 0.999008 0.999008 0.999008 0.999008 0.999008
          0.999007 0.999007 0.999007 0.999007 0.999007 0.999007 0.999007 0.999007 0.999007 0.999007 0.999007 0.999007
          0.999007 0.999007 0.999007 0.999007 0.999007 0.999007 0.999007 0.999007 0.999007 0.999007 0.999007 0.999007
          0.999007 0.999007 0.999007 0.999007 0.999007 0.999007 0.999006 0.999006 0.999006 0.999006 0.999006 0.999006
          0.999006 0.999006 0.999006 0.999006 0.999006 0.999006 0.999006 0.999006 0.999006 0.999006 0.999006 0.999006
          0.999006 0.999006 0.999006 0.999006 0.999006 0.999006 0.999006 0.999006 0.999006 0.999006 0.999006 0.999006
          0.999005 0.999005 0.999005 0.999005 0.999005 0.999005 0.999005 0.999005 0.999005 0.999005 0.999005 0.999005
          0.999005 0.999005 0.999005 0.999005 0.999005 0.999005 0.999005 0.999005 0.999005 0.999005 0.999005 0.999005
          0.999005 0.999005 0.999005 0.999005 0.999005 0.999005 0.999004 0.999004 0.999004 0.999004 0.999004 0.999004
          0.999004 0.999004 0.999004 0.999004 0.999004 0.999004 0.999004 0.999004 0.999004 0.999004 0.999004 0.999004
          0.999004 0.999004 0.999004 0.999004 0.999004 0.999004 0.999004 0.999004 0.999004 0.999004 0.999004 0.999004
          0.999004 0.999004 0.999004 0.999004 0.999004 0.999004 0.999004 0.999004 0.999004 0.999004 0.999004 0.999004
          0.999004 0.999004 0.999004 0.999004 0.999004 0.999004 0.999004 0.999004 0.999004 0.999004 0.999004 0.999004
          0.999004 0.999004 0.999004 0.999004 0.999004 0.999004 0.999003 0.999003 0.999003 0.999003 0.999003 0.999003
          0.999003 0.999003 0.999003 0.999003 0.999003 0.999003 0.999003 0.999003 0.999003 0.999003 0.999003 0.999003
          0.999003 0.999003 0.999003 0.999003 0.999003 0.999003 0.999003 0.999003 0.999003 0.999003 0.999003 0.999003
          0.999003 0.999003 0.999003 0.999003 0.999003 0.999003 0.999003 0.999003 0.999003 0.999003 0.999003 0.999003
          0.999003 0.999003 0.999003 0.999003 0.999003 0.999003 0.999003 0.999003 0.999003 0.999003 0.999003 0.999003
          0.999003 0.999003 0.999003 0.999003 0.999003 0.999003 0.999002 0.999002 0.999002 0.999002 0.999002 0.999002
          0.999002 0.999002 0.999002 0.999002 0.999002 0.999002 0.999002 0.999002 0.999002 0.999002 0.999002 0.999002
          0.999002 0.999002 0.999002 0.999002 0.999002 0.999002 0.999002 0.999002 0.999002 0.999002 0.999002 0.999002
          0.999002 0.999002 0.999002 0.999002 0.999002 0.999002 0.999002 0.999002 0.999002 0.999002 0.999002 0.999002
          0.999002 0.999002 0.999002 0.999002 0.999002 0.999002 0.999002 0.999002 0.999002 0.999002 0.999002 0.999002
          0.999002 0.999002 0.999002 0.999002 0.999002 0.999002 0.999002 0.999002 0.999002 0.999002 0.999002 0.999002
          0.999002 0.999002 0.999002 0.999002 0.999002 0.999002 0.999002 0.999002 0.999002 0.999002 0.999002 0.999002
          0.999002 0.999002 0.999002 0.999002 0.999002 0.999002 0.999002 0.999002 0.999002 0.999002 0.999002 0.999002
          0.999002 0.999002 0.999002 0.999002 0.999002 0.999002 0.999002 0.999002 0.999002 0.999002 0.999002 0.999002
          0.999002 0.999002 0.999002 0.999002 0.999002 0.999002 0.999002 0.999002 0.999002 0.999002 0.999002 0.999002
          0.999002 0.999002 0.999002 0.999002 0.999002 0.999002 0.999001 0.999001 0.999001 0.999001 0.999001 0.999001
          0.999001 0.999001 0.999001 0.999001 0.999001 0.999001 0.999001 0.999001 0.999001 0.999001 0.999001 0.999001
          0.999001 0.999001 0.999001 0.999001 0.999001 0.999001 0.999001 0.999001 0.999001 0.999001 0.999001 0.999001
          0.999001 0.999001 0.999001 0.999001 0.999001 0.999001 0.999001 0.999001 0.999001 0.999001 0.999001 0.999001
          0.999001 0.999001 0.999001 0.999001 0.999001 0.999001 0.999001 0.999001 0.999001 0.999001 0.999001 0.999001
          0.999001 0.999001 0.999001 0.999001 0.999001 0.999001 0.999001 0.999001 0.999001 0.999001 0.999001 0.999001
          0.999001 0.999001 0.999001 0.999001 0.999001 0.999001 0.999001 0.999001 0.999001 0.999001 0.999001 0.999001
          0.999001 0.999001 0.999001 0.999001 0.999001 0.999001 0.999001 0.999001 0.999001 0.999001 0.999001 0.999001
          0.999001 0.999001 0.999001 0.999001 0.999001 0.999001 0.999001 0.999001 0.999001 0.999001 0.999001 0.999001
          0.999001 0.999001 0.999001 0.999001 0.999001 0.999001 0.999001 0.999001 0.999001 0.999001 0.999001 0.999001
          0.999001 0.999001 0.999001 0.999001 0.999001 0.999001 0.999001 0.999001 0.999001 0.999001 0.999001 0.999001
          0.999001 0.999001 0.999001 0.999001 0.999001 0.999001 0.999001 0.999001 0.999001 0.999001 0.999001 0.999001
          0.999001 0.999001 0.999001 0.999001 0.999001 0.999001 0.999001 0.999001 0.999001 0.999001 0.999001 0.999001
          0.999001 0.999001 0.999001 0.999001 0.999001 0.999001 0.999001 0.999001 0.999001 0.999001 0.999001 0.999001
          0.999001 0.999001 0.999001 0.999001 0.999001 0.999001 0.999001 0.999001 0.999001 0.999001 0.999001 0.999001
          0.999001 0.999001 0.999001 0.999001 0.999001 0.999001 0.999001 0.999001 0.999001 0.999001 0.999001 0.999001
          0.999001 0.999001 0.999001 0.999001 0.999001 0.999001 0.999001 0.999001 0.999001 0.999001 0.999001 0.999001
          0.999001 0.999001 0.999001 0.999001 0.999001 0.999001 0.999001 0.999001 0.999001 0.999001 0.999001 0.999001
          0.999 0.999 0.999 0.999 0.999 0.999 0.999 0.999 0.999 0.999 0.999 0.999
          0.999 0.999 0.999 0.999 0.999 0.999 0.999 0.999 0.999 0.999 0.999 0.999
          0.999 0.999 0.999 0.999 0.999 0.999 0.999 0.999 0.999 0.999 0.999 0.999
          0.999 0.999 0.999 0.999 0.999 0.999 0.999 0.999 0.999 0.999 0.999 0.999
          0.999 0.999 0.999 0.999 0.999 0.999 0.999 0.999 0.999 0.999 0.999 0.999
          0.999 0.999 0.999 0.999 0.999 0.999 0.999 0.999 0.999 0.999 0.999 0.999
          0.999 0.999 0.999 0.999 0.999 0.999 0.999 0.999 0.999 0.999 0.999 0.999
          0.999 0.999 0.999 0.999 0.999 0.999 0.999 0.999 0.999 0.999 0.999 0.999
          0.999 0.999 0.999 0.999 0.999 0.999 0.999 0.999 0.999 0.999 0.999 0.999
          0.999 0.999 0.999 0.999 0.999 0.999 0.999 0.999 0.999 0.999 0.999 0.999
          0.999 0.999 0.999 0.999 0.999 0.999 0.999 0.999 0.999 0.999 0.999 0.999
          0.999 0.999 0.999 0.999 0.999 0.999 0.999 0.999 0.999 0.999 0.999 0.999
          0.999 0.999 0.999 0.999 0.999 0.999 0.999 0.999 0.999 0.999 0.999 0.999
          0.999 0.999 0.999 0.999 0.999 0.999 0.999 0.999 0.999 0.999 0.999 0.999
          0.999 0.999 0.999 0.999 0.999 0.999 0.999 0.999 0.999 0.999 0.999 0.999
          0.999 0.999 0.999 0.999 0.999 0.999 0.999 0.999 0.999 0.999 0.999 0.999
          0.999 0.999 0.999 0.999 0.999 0.999 0.999 0.999 0.999 0.999 0.999 0.999
          0.999 0.999 0.999 0.999 0.999 0.999 0.999 0.999 0.999 0.999 0.999 0.999
          0.999 0.999 0.999 0.999 0.999 0.999 0.999 0.999 0.999 0.999 0.999 0.999
          0.999 0.999 0.999 0.999 0.999 0.999 0.999 0.999 0.999 0.999 0.999 0.999
          0.999 0.999 0.999 0.999 0.999 0.999 0.999 0.999 0.999 0.999 0.999 0.999
          0.999 0.999 0.999 0.999 0.999 0.999 0.999 0.999 0.999 0.999 0.999 0.999
          0.999 0.999 0.999 0.999 0.999 0.999 0.999 0.999 0.999 0.999 0.999 0.999
          0.999 0.999 0.999 0.999 0.999 0.999 0.999 0.999 0.999 0.999 0.999 0.999
          0.999 0.999 0.999 0.999 0.999 0.999 0.999 0.999 0.999 0.999 0.999 0.999
          0.996565 0.99657 0.996572 0.996573 0.996574 0.996574 0.996575 0.996575 0.996575 0.996575 0.996575 0.996575
          0.996575 0.996575 0.996575 0.996575 0.996575 0.996575 0.996575 0.996576 0.996576 0.996576 0.996576 0.996576
          0.996576 0.996576 0.996576 0.996576 0.996576 0.996576 1e-05 1e-05 1e-05 1e-05 1e-05 1e-05
          1e-05 1e-05 1e-05 1e-05 1e-05 1e-05 1e-05 1e-05 1e-05 1e-05 1e-05 1e-05
          1e-05 1e-05 1e-05 1e-05 1e-05 1e-05 1e-05 1e-05 1e-05 1e-05 1e-05 1e-05
          1e-05 1e-05 1e-05 1e-05 1e-05 1e-05 1e-05 1e-05 1e-05 1e-05 1e-05 1e-05
          1e-05 1e-05 1e-05 1e-05 1e-05 1e-05 1e-05 1e-05 1e-05 1e-05 1e-05 1e-05
          1e-05 1e-05 1e-05 1e-05 1e-05 1e-05 1e-05 1e-05 1e-05 1e-05 1e-05 1e-05
          1e-05 1e-05 1e-05 1e-05 1e-05 1e-05 1e-05 1e-05 1e-05 1e-05 1e-05 1e-05
          1e-05 1e-05 1e-05 1e-05 1e-05 1e-05 1e-05 1e-05 1e-05 1e-05 1e-05 1e-05
          1e-05 1e-05 1e-05 1e-05 1e-05 1e-05 1e-05 1e-05 1e-05 1e-05 1e-05 1e-05
          1e-05 1e-05 1e-05 1e-05 1e-05 1e-05 1e-05 1e-05 1e-05 1e-05 1e-05 1e-05
          1e-05 1e-05 1e-05 1e-05 1e-05 1e-05 1e-05 1e-05 1e-05 1e-05 1e-05 1e-05
          1e-05 1e-05 1e-05 1e-05 1e-05 1e-05 1e-05 1e-05 1e-05 1e-05 1e-05 1e-05
          1e-05 1e-05 1e-05 1e-05 1e-05 1e-05 1e-05 1e-05 1e-05 1e-05 1e-05 1e-05
          1e-05 1e-05 1e-05 1e-05 1e-05 1e-05 1e-05 1e-05 1e-05 1e-05 1e-05 1e-05
          1e-05 1e-05 1e-05 1e-05 1e-05 1e-05 1e-05 1e-05 1e-05 1e-05 1e-05 1e-05
          1e-05 1e-05 1e-05 1e-05 1e-05 1e-05 1e-05 1e-05 1e-05 1e-05 1e-05 1e-05
          1e-05 1e-05 1e-05 1e-05 1e-05 1e-05 1e-05 1e-05 1e-05 1e-05 1e-05 1e-05
          1e-05 1e-05 1e-05 1e-05 1e-05 1e-05 1e-05 1e-05 1e-05 1e-05 1e-05 1e-05
          1e-05 1e-05 1e-05 1e-05 1e-05 1e-05 1e-05 1e-05 1e-05 1e-05 1e-05 1e-05
          1e-05 1e-05 1e-05 1e-05 1e-05 1e-05 1e-05 1e-05 1e-05 1e-05 1e-05 1e-05
          1e-05 1e-05 1e-05 1e-05 1e-05 1e-05 1e-05 1e-05 1e-05 1e-05 1e-05 1e-05
          1e-05 1e-05 1e-05 1e-05 1e-05 1e-05 1e-05 1e-05 1e-05 1e-05 1e-05 1e-05
          1e-05 1e-05 1e-05 1e-05 1e-05 1e-05 1e-05 1e-05 1e-05 1e-05 1e-05 1e-05
          1e-05 1e-05 1e-05 1e-05 1e-05 1e-05 1e-05 1e-05 1e-05 1e-05 1e-05 1e-05
          1e-05 1e-05 1e-05 1e-05 1e-05 1e-05 1e-05 1e-05 1e-05 1e-05 1e-05 1e-05
          1e-05 1e-05 1e-05 1e-05 1e-05 1e-05 1e-05 1e-05 1e-05 1e-05 1e-05 1e-05
          1e-05 1e-05 1e-05 1e-05 1e-05 1e-05 1e-05 1e-05 1e-05 1e-05 1e-05 1e-05
          1e-05 1e-05 1e-05 1e-05 1e-05 1e-05 1e-05 1e-05 1e-05 1e-05 1e-05 1e-05
          1e-05 1e-05 1e-05 1e-05 1e-05 1e-05 1e-05 1e-05 1e-05 1e-05 1e-05 1e-05
          1e-05 1e-05 1e-05 1e-05 1e-05 1e-05 1e-05 1e-05 1e-05 1e-05 1e-05 1e-05
          1e-05 1e-05 1e-05 1e-05 1e-05 1e-05 1e-05 1e-05 1e-05 1e-05 1e-05 1e-05
          1e-05 1e-05 1e-05 1e-05 1e-05 1e-05 1e-05 1e-05 1e-05 1e-05 1e-05 1e-05
          1e-05 1e-05 1e-05 1e-05 1e-05 1e-05 1e-05 1e-05 1e-05 1e-05 1e-05 1e-05
          1e-05 1e-05 1e-05 1e-05 1e-05 1e-05 1e-05 1e-05 1e-05 1e-05 1e-05 1e-05
          1e-05 1e-05 1e-05 1e-05 1e-05 1e-05 1e-05 1e-05 1e-05 1e-05 1e-05 1e-05
          1e-05 1e-05 1e-05 1e-05 1e-05 1e-05 1e-05 1e-05 1e-05 1e-05 1e-05 1e-05
          1e-05 1e-05 1e-05 1e-05 1e-05 1e-05 1e-05 1e-05 1e-05 1e-05 1e-05 1e-05
          1e-05 1e-05 1e-05 1e-05 1e-05 1e-05 1e-05 1e-05 1e-05 1e-05 1e-05 1e-05
          1e-05 1e-05 1e-05 1e-05 1e-05 1e-05 1e-05 1e-05 1e-05 1e-05 1e-05 1e-05
          1e-05 1e-05 1e-05 1e-05 1e-05 1e-05 1e-05 1e-05 1e-05 1e-05 1e-05 1e-05
          1e-05 1e-05 1e-05 1e-05 1e-05 1e-05 1e-05 1e-05 1e-05 1e-05 1e-05 1e-05
          1e-05 1e-05 1e-05 1e-05 1e-05 1e-05 1e-05 1e-05 1e-05 1e-05 1e-05 1e-05
          1e-05 1e-05 1e-05 1e-05 1e-05 1e-05 1e-05 1e-05 1e-05 1e-05 1e-05 1e-05
          1e-05 1e-05 1e-05 1e-05 1e-05 1e-05 1e-05 1e-05 1e-05 1e-05 1e-05 1e-05
          1e-05 1e-05 1e-05 1e-05 1e-05 1e-05 1e-05 1e-05 1e-05 1e-05 1e-05 1e-05
          1e-05 1e-05 1e-05 1e-05 1e-05 1e-05 1e-05 1e-05 1e-05 1e-05 1e-05 1e-05
          1e-05 1e-05 1e-05 1e-05 1e-05 1e-05 1e-05 1e-05 1e-05 1e-05 1e-05 1e-05
          1e-05 1e-05 1e-05 1e-05 1e-05 1e-05 1e-05 1e-05 1e-05 1e-05 1e-05 1e-05
          1e-05 1e-05 1e-05 1e-05 1e-05 1e-05 1e-05 1e-05 1e-05 1e-05 1e-05 1e-05
          1e-05 1e-05 1e-05 1e-05 1e-05 1e-05 1e-05 1e-05 1e-05 1e-05 1e-05 1e-05
          1e-05 1e-05 1e-05 1e-05 1e-05 1e-05 1e-05 1e-05 1e-05 1e-05 1e-05 1e-05
          1e-05 1e-05 1e-05 1e-05 1e-05 1e-05 1e-05 1e-05 1e-05 1e-05 1e-05 1e-05
          1e-05 1e-05 1e-05 1e-05 1e-05 1e-05 1e-05 1e-05 1e-05 1e-05 1e-05 1e-05
          1e-05 1e-05 1e-05 1e-05 1e-05 1e-05 1e-05 1e-05 1e-05 1e-05 1e-05 1e-05
          1e-05 1e-05 1e-05 1e-05 1e-05 1e-05 1e-05 1e-05 1e-05 1e-05 1e-05 1e-05
          1e-05 1e-05 1e-05 1e-05 1e-05 1e-05 1e-05 1e-05 1e-05 1e-05 1e-05 1e-05
          1e-05 1e-05 1e-05 1e-05 1e-05 1e-05 1e-05 1e-05 1e-05 1e-05 1e-05 1e-05
          1e-05 1e-05 1e-05 1e-05 1e-05 1e-05 1e-05 1e-05 1e-05 1e-05 1e-05 1e-05
          1e-05 1e-05 1e-05 1e-05 1e-05 1e-05 1e-05 1e-05 1e-05 1e-05 1e-05 1e-05
          1e-05 1e-05 1e-05 1e-05 1e-05 1e-05 1e-05 1e-05 1e-05 1e-05 1e-05 1e-05
          1e-05 1e-05 1e-05 1e-05 1e-05 1e-05 1e-05 1e-05 1e-05 1e-05 1e-05 1e-05
          1e-05 1e-05 1e-05 1e-05 1e-05 1e-05 1e-05 1e-05 1e-05 1e-05 1e-05 1e-05
          1e-05 1e-05 1e-05 1e-05 1e-05 1e-05 1e-05 1e-05 1e-05 1e-05 1e-05 1e-05
          1e-05 1e-05 1e-05 1e-05 1e-05 1e-05 1e-05 1e-05 1e-05 1e-05 1e-05 1e-05
          1e-05 1e-05 1e-05 1e-05 1e-05 1e-05 1e-05 1e-05 1e-05 1e-05 1e-05 1e-05
          1e-05 1e-05 1e-05 1e-05 1e-05 1e-05 1e-05 1e-05 1e-05 1e-05 1e-05 1e-05
          1e-05 1e-05 1e-05 1e-05 1e-05 1e-05 1e-05 1e-05 1e-05 1e-05 1e-05 1e-05
          1e-05 1e-05 1e-05 1e-05 1e-05 1e-05 1e-05 1e-05 1e-05 1e-05 1e-05 1e-05
          1e-05 1e-05 1e-05 1e-05 1e-05 1e-05 1e-05 1e-05 1e-05 1e-05 1e-05 1e-05
          1e-05 1e-05 1e-05 1e-05 1e-05 1e-05 1e-05 1e-05 1e-05 1e-05 1e-05 1e-05
          1e-05 1e-05 1e-05 1e-05 1e-05 1e-05 1e-05 1e-05 1e-05 1e-05 1e-05 1e-05
          1e-05 1e-05 1e-05 1e-05 1e-05 1e-05 1e-05 1e-05 1e-05 1e-05 1e-05 1e-05
          1e-05 1e-05 1e-05 1e-05 1e-05 1e-05 1e-05 1e-05 1e-05 1e-05 1e-05 1e-05
          1e-05 1e-05 1e-05 1e-05 1e-05 1e-05 1e-05 1e-05 1e-05 1e-05 1e-05 1e-05
          1e-05 1e-05 1e-05 1e-05 1e-05 1e-05 1e-05 1e-05 1e-05 1e-05 1e-05 1e-05
          1e-05 1e-05 1e-05 1e-05 1e-05 1e-05 1e-05 1e-05 1e-05 1e-05 1e-05 1e-05
          1e-05 1e-05 1e-05 1e-05 1e-05 1e-05 1e-05 1e-05 1e-05 1e-05 1e-05 1e-05
          1e-05 1e-05 1e-05 1e-05 1e-05 1e-05 1e-05 1e-05 1e-05 1e-05 1e-05 1e-05
          1e-05 1e-05 1e-05 1e-05 1e-05 1e-05 1e-05 1e-05 1e-05 1e-05 1e-05 1e-05
          1e-05 1e-05 1e-05 1e-05 1e-05 1e-05 1e-05 1e-05 1e-05 1e-05 1e-05 1e-05
          1e-05 1e-05 1e-05 1e-05 1e-05 1e-05 1e-05 1e-05 1e-05 1e-05 1e-05 1e-05
          1e-05 1e-05 1e-05 1e-05 1e-05 1e-05 1e-05 1e-05 1e-05 1e-05 1e-05 1e-05
          1e-05 1e-05 1e-05 1e-05 1e-05 1e-05 1e-05 1e-05 1e-05 1e-05 1e-05 1e-05
        </DataArray>
        <DataArray type="Float32" Name="S_n" NumberOfComponents="1" format="ascii">
          0.000986049 0.000986049 0.000988658 0.000988659 0.000986049 0.000988659 0.000986049 0.000988659 0.00098605 0.00098866 0.00098605 0.00098866
          0.00098605 0.00098866 0.000986051 0.000988661 0.000986051 0.000988661 0.000986051 0.000988661 0.000986052 0.000988662 0.000986052 0.000988662
          0.000986052 0.000988662 0.000986052 0.000988662 0.000986052 0.000988662 0.000986052 0.000988662 0.000986053 0.000988663 0.000986053 0.000988663
          0.000986053 0.000988663 0.000986053 0.000988663 0.000986053 0.000988663 0.000986053 0.000988663 0.000986053 0.000988663 0.000986053 0.000988663
          0.000986053 0.000988663 0.000986053 0.000988663 0.000986053 0.000988663 0.000986053 0.000988663 0.000986053 0.000988663 0.000986053 0.000988662
          0.000990633 0.000990634 0.000990634 0.000990634 0.000990635 0.000990635 0.000990636 0.000990636 0.000990636 0.000990637 0.000990637 0.000990637
          0.000990637 0.000990638 0.000990638 0.000990638 0.000990638 0.000990638 0.000990638 0.000990638 0.000990638 0.000990638 0.000990638 0.000990638
          0.000990638 0.000990638 0.000990639 0.000990639 0.000990639 0.000990638 0.000992164 0.000992165 0.000992165 0.000992165 0.000992166 0.000992166
          0.000992167 0.000992167 0.000992168 0.000992168 0.000992168 0.000992168 0.000992169 0.000992169 0.000992169 0.000992169 0.000992169 0.000992169
          0.000992169 0.000992169 0.00099217 0.00099217 0.00099217 0.00099217 0.00099217 0.00099217 0.00099217 0.00099217 0.00099217 0.000992169
          0.000993376 0.000993377 0.000993377 0.000993377 0.000993378 0.000993378 0.000993379 0.000993379 0.00099338 0.00099338 0.00099338 0.000993381
          0.000993381 0.000993381 0.000993381 0.000993381 0.000993382 0.000993382 0.000993382 0.000993382 0.000993382 0.000993382 0.000993382 0.000993382
          0.000993382 0.000993382 0.000993382 0.000993382 0.000993382 0.000993382 0.000994354 0.000994354 0.000994355 0.000994355 0.000994356 0.000994356
          0.000994357 0.000994357 0.000994358 0.000994358 0.000994359 0.000994359 0.000994359 0.000994359 0.000994359 0.00099436 0.00099436 0.00099436
          0.00099436 0.00099436 0.00099436 0.00099436 0.00099436 0.00099436 0.00099436 0.00099436 0.00099436 0.00099436 0.00099436 0.00099436
          0.000995155 0.000995156 0.000995156 0.000995157 0.000995157 0.000995158 0.000995159 0.000995159 0.00099516 0.00099516 0.000995161 0.000995161
          0.000995161 0.000995161 0.000995162 0.000995162 0.000995162 0.000995162 0.000995162 0.000995162 0.000995162 0.000995162 0.000995162 0.000995162
          0.000995162 0.000995163 0.000995163 0.000995163 0.000995163 0.000995162 0.000995822 0.000995822 0.000995823 0.000995824 0.000995824 0.000995825
          0.000995826 0.000995826 0.000995827 0.000995827 0.000995828 0.000995828 0.000995828 0.000995829 0.000995829 0.000995829 0.000995829 0.000995829
          0.000995829 0.000995829 0.000995829 0.00099583 0.00099583 0.00099583 0.00099583 0.00099583 0.00099583 0.00099583 0.00099583 0.000995829
          0.000996383 0.000996383 0.000996384 0.000996385 0.000996386 0.000996386 0.000996387 0.000996388 0.000996388 0.000996389 0.000996389 0.00099639
          0.00099639 0.00099639 0.00099639 0.000996391 0.000996391 0.000996391 0.000996391 0.000996391 0.000996391 0.000996391 0.000996391 0.000996391
          0.000996391 0.000996391 0.000996391 0.000996391 0.000996392 0.000996391 0.000996859 0.00099686 0.000996861 0.000996862 0.000996863 0.000996864
          0.000996865 0.000996865 0.000996866 0.000996866 0.000996867 0.000996867 0.000996868 0.000996868 0.000996868 0.000996868 0.000996868 0.000996868
          0.000996869 0.000996869 0.000996869 0.000996869 0.000996869 0.000996869 0.000996869 0.000996869 0.000996869 0.000996869 0.000996869 0.000996869
          0.000997268 0.000997269 0.00099727 0.000997271 0.000997272 0.000997273 0.000997274 0.000997274 0.000997275 0.000997276 0.000997276 0.000997277
          0.000997277 0.000997277 0.000997277 0.000997278 0.000997278 0.000997278 0.000997278 0.000997278 0.000997278 0.000997278 0.000997278 0.000997278
          0.000997278 0.000997278 0.000997278 0.000997278 0.000997278 0.000997278 0.000997621 0.000997621 0.000997622 0.000997623 0.000997625 0.000997626
          0.000997627 0.000997628 0.000997628 0.000997629 0.000997629 0.00099763 0.00099763 0.00099763 0.000997631 0.000997631 0.000997631 0.000997631
          0.000997631 0.000997631 0.000997631 0.000997631 0.000997631 0.000997631 0.000997631 0.000997631 0.000997632 0.000997632 0.000997632 0.000997631
          0.000997926 0.000997927 0.000997928 0.000997929 0.000997931 0.000997932 0.000997933 0.000997934 0.000997935 0.000997935 0.000997936 0.000997936
          0.000997937 0.000997937 0.000997937 0.000997937 0.000997937 0.000997938 0.000997938 0.000997938 0.000997938 0.000997938 0.000997938 0.000997938
          0.000997938 0.000997938 0.000997938 0.000997938 0.000997938 0.000997938 0.000998193 0.000998193 0.000998195 0.000998196 0.000998198 0.000998199
          0.0009982 0.000998201 0.000998202 0.000998202 0.000998203 0.000998203 0.000998204 0.000998204 0.000998204 0.000998204 0.000998204 0.000998205
          0.000998205 0.000998205 0.000998205 0.000998205 0.000998205 0.000998205 0.000998205 0.000998205 0.000998205 0.000998205 0.000998205 0.000998205
          0.000998425 0.000998426 0.000998428 0.000998429 0.000998431 0.000998432 0.000998433 0.000998434 0.000998435 0.000998436 0.000998436 0.000998437
          0.000998437 0.000998437 0.000998438 0.000998438 0.000998438 0.000998438 0.000998438 0.000998438 0.000998438 0.000998438 0.000998438 0.000998438
          0.000998438 0.000998439 0.000998439 0.000998439 0.000998439 0.000998438 0.000998629 0.00099863 0.000998632 0.000998634 0.000998635 0.000998637
          0.000998638 0.000998639 0.00099864 0.00099864 0.000998641 0.000998641 0.000998642 0.000998642 0.000998642 0.000998643 0.000998643 0.000998643
          0.000998643 0.000998643 0.000998643 0.000998643 0.000998643 0.000998643 0.000998643 0.000998643 0.000998643 0.000998643 0.000998643 0.000998643
          0.000998809 0.00099881 0.000998811 0.000998813 0.000998815 0.000998816 0.000998818 0.000998819 0.000998819 0.00099882 0.000998821 0.000998821
          0.000998822 0.000998822 0.000998822 0.000998822 0.000998823 0.000998823 0.000998823 0.000998823 0.000998823 0.000998823 0.000998823 0.000998823
          0.000998823 0.000998823 0.000998823 0.000998823 0.000998823 0.000998823 0.000998966 0.000998967 0.000998969 0.000998971 0.000998973 0.000998975
          0.000998976 0.000998977 0.000998978 0.000998979 0.000998979 0.00099898 0.00099898 0.00099898 0.00099898 0.000998981 0.000998981 0.000998981
          0.000998981 0.000998981 0.000998981 0.000998981 0.000998981 0.000998981 0.000998981 0.000998981 0.000998981 0.000998981 0.000998982 0.000998981
          0.000999105 0.000999107 0.000999109 0.000999111 0.000999112 0.000999114 0.000999115 0.000999116 0.000999117 0.000999118 0.000999119 0.000999119
          0.000999119 0.00099912 0.00099912 0.00099912 0.00099912 0.00099912 0.000999121 0.000999121 0.000999121 0.000999121 0.000999121 0.000999121
          0.000999121 0.000999121 0.000999121 0.000999121 0.000999121 0.000999121 0.000999228 0.000999229 0.000999231 0.000999234 0.000999235 0.000999237
          0.000999238 0.000999239 0.00099924 0.000999241 0.000999242 0.000999242 0.000999242 0.000999243 0.000999243 0.000999243 0.000999243 0.000999243
          0.000999244 0.000999244 0.000999244 0.000999244 0.000999244 0.000999244 0.000999244 0.000999244 0.000999244 0.000999244 0.000999244 0.000999244
          0.000999336 0.000999337 0.00099934 0.000999342 0.000999344 0.000999345 0.000999347 0.000999348 0.000999349 0.00099935 0.00099935 0.000999351
          0.000999351 0.000999351 0.000999352 0.000999352 0.000999352 0.000999352 0.000999352 0.000999352 0.000999352 0.000999352 0.000999353 0.000999353
          0.000999353 0.000999353 0.000999353 0.000999353 0.000999353 0.000999353 0.000999431 0.000999433 0.000999436 0.000999438 0.00099944 0.000999441
          0.000999443 0.000999444 0.000999445 0.000999446 0.000999446 0.000999447 0.000999447 0.000999447 0.000999448 0.000999448 0.000999448 0.000999448
          0.000999448 0.000999448 0.000999448 0.000999448 0.000999448 0.000999449 0.000999449 0.000999449 0.000999449 0.000999449 0.000999449 0.000999449
          0.000999515 0.000999518 0.00099952 0.000999523 0.000999524 0.000999526 0.000999528 0.000999529 0.00099953 0.00099953 0.000999531 0.000999531
          0.000999532 0.000999532 0.000999532 0.000999533 0.000999533 0.000999533 0.000999533 0.000999533 0.000999533 0.000999533 0.000999533 0.000999533
          0.000999533 0.000999533 0.000999533 0.000999533 0.000999533 0.000999533 0.00099959 0.000999592 0.000999595 0.000999597 0.000999599 0.000999601
          0.000999602 0.000999604 0.000999604 0.000999605 0.000999606 0.000999606 0.000999607 0.000999607 0.000999607 0.000999608 0.000999608 0.000999608
          0.000999608 0.000999608 0.000999608 0.000999608 0.000999608 0.000999608 0.000999608 0.000999608 0.000999608 0.000999608 0.000999608 0.000999608
          0.000999656 0.000999658 0.000999661 0.000999663 0.000999666 0.000999667 0.000999669 0.00099967 0.000999671 0.000999672 0.000999672 0.000999673
          0.000999673 0.000999673 0.000999674 0.000999674 0.000999674 0.000999674 0.000999674 0.000999674 0.000999675 0.000999675 0.000999675 0.000999675
          0.000999675 0.000999675 0.000999675 0.000999675 0.000999675 0.000999675 0.000999714 0.000999717 0.00099972 0.000999722 0.000999724 0.000999726
          0.000999727 0.000999728 0.000999729 0.00099973 0.000999731 0.000999731 0.000999732 0.000999732 0.000999732 0.000999733 0.000999733 0.000999733
          0.000999733 0.000999733 0.000999733 0.000999733 0.000999733 0.000999733 0.000999733 0.000999733 0.000999733 0.000999733 0.000999733 0.000999733
          0.000999766 0.000999768 0.000999771 0.000999774 0.000999776 0.000999778 0.000999779 0.00099978 0.000999781 0.000999782 0.000999783 0.000999783
          0.000999784 0.000999784 0.000999784 0.000999784 0.000999785 0.000999785 0.000999785 0.000999785 0.000999785 0.000999785 0.000999785 0.000999785
          0.000999785 0.000999785 0.000999785 0.000999785 0.000999785 0.000999785 0.000999811 0.000999814 0.000999817 0.00099982 0.000999822 0.000999824
          0.000999825 0.000999826 0.000999827 0.000999828 0.000999829 0.000999829 0.000999829 0.00099983 0.00099983 0.00099983 0.000999831 0.000999831
          0.000999831 0.000999831 0.000999831 0.000999831 0.000999831 0.000999831 0.000999831 0.000999831 0.000999831 0.000999831 0.000999831 0.000999831
          0.000999852 0.000999855 0.000999858 0.00099986 0.000999862 0.000999864 0.000999866 0.000999867 0.000999868 0.000999869 0.000999869 0.00099987
          0.00099987 0.00099987 0.000999871 0.000999871 0.000999871 0.000999871 0.000999871 0.000999872 0.000999872 0.000999872 0.000999872 0.000999872
          0.000999872 0.000999872 0.000999872 0.000999872 0.000999872 0.000999872 0.000999887 0.000999891 0.000999894 0.000999896 0.000999898 0.0009999
          0.000999902 0.000999903 0.000999904 0.000999905 0.000999905 0.000999906 0.000999906 0.000999906 0.000999907 0.000999907 0.000999907 0.000999907
          0.000999907 0.000999907 0.000999907 0.000999908 0.000999908 0.000999908 0.000999908 0.000999908 0.000999908 0.000999908 0.000999908 0.000999908
          0.000999919 0.000999922 0.000999925 0.000999928 0.00099993 0.000999932 0.000999933 0.000999935 0.000999936 0.000999936 0.000999937 0.000999938
          0.000999938 0.000999938 0.000999938 0.000999939 0.000999939 0.000999939 0.000999939 0.000999939 0.000999939 0.000999939 0.000999939 0.00099994
          0.00099994 0.00099994 0.00099994 0.00099994 0.00099994 0.00099994 0.000999947 0.000999951 0.000999954 0.000999956 0.000999959 0.00099996
          0.000999962 0.000999963 0.000999964 0.000999965 0.000999966 0.000999966 0.000999967 0.000999967 0.000999967 0.000999967 0.000999968 0.000999968
          0.000999968 0.000999968 0.000999968 0.000999968 0.000999968 0.000999968 0.000999968 0.000999968 0.000999968 0.000999968 0.000999968 0.000999968
          0.00343509 0.00343041 0.00342823 0.00342709 0.00342634 0.00342582 0.00342546 0.00342519 0.003425 0.00342487 0.00342476 0.00342469
          0.00342463 0.00342459 0.00342456 0.00342454 0.00342452 0.00342451 0.0034245 0.00342449 0.00342449 0.00342449 0.00342448 0.00342448
          0.00342448 0.00342448 0.00342448 0.00342448 0.00342448 0.00342443 0.99999 0.99999 0.99999 0.99999 0.99999 0.99999
          0.99999 0.99999 0.99999 0.99999 0.99999 0.99999 0.99999 0.99999 0.99999 0.99999 0.99999 0.99999
          0.99999 0.99999 0.99999 0.99999 0.99999 0.99999 0.99999 0.99999 0.99999 0.99999 0.99999 0.99999
          0.99999 0.99999 0.99999 0.99999 0.99999 0.99999 0.99999 0.99999 0.99999 0.99999 0.99999 0.99999
          0.99999 0.99999 0.99999 0.99999 0.99999 0.99999 0.99999 0.99999 0.99999 0.99999 0.99999 0.99999
          0.99999 0.99999 0.99999 0.99999 0.99999 0.99999 0.99999 0.99999 0.99999 0.99999 0.99999 0.99999
          0.99999 0.99999 0.99999 0.99999 0.99999 0.99999 0.99999 0.99999 0.99999 0.99999 0.99999 0.99999
          0.99999 0.99999 0.99999 0.99999 0.99999 0.99999 0.99999 0.99999 0.99999 0.99999 0.99999 0.99999
          0.99999 0.99999 0.99999 0.99999 0.99999 0.99999 0.99999 0.99999 0.99999 0.99999 0.99999 0.99999
          0.99999 0.99999 0.99999 0.99999 0.99999 0.99999 0.99999 0.99999 0.99999 0.99999 0.99999 0.99999
          0.99999 0.99999 0.99999 0.99999 0.99999 0.99999 0.99999 0.99999 0.99999 0.99999 0.99999 0.99999
          0.99999 0.99999 0.99999 0.99999 0.99999 0.99999 0.99999 0.99999 0.99999 0.99999 0.99999 0.99999
          0.99999 0.99999 0.99999 0.99999 0.99999 0.99999 0.99999 0.99999 0.99999 0.99999 0.99999 0.99999