<?xml version="1.0"?>
<VTKFile type="UnstructuredGrid" version="0.1" byte_order="LittleEndian">
  <UnstructuredGrid>
    <Piece NumberOfCells="420" NumberOfPoints="465">
      <PointData Scalars="S_w" Vectors="velocity_w">
        <DataArray type="Float32" Name="S_w" NumberOfComponents="1" format="ascii">
          0.999025 0.999025 0.999021 0.999021 0.999025 0.999021 0.999025 0.999021 0.999025 0.999021 0.999025 0.999021
          0.999025 0.999021 0.999025 0.999021 0.999025 0.999021 0.999025 0.999021 0.999025 0.999021 0.999025 0.999021
          0.999025 0.999021 0.999025 0.999021 0.999025 0.999021 0.999018 0.999018 0.999018 0.999018 0.999018 0.999018
          0.999018 0.999018 0.999018 0.999018 0.999018 0.999018 0.999018 0.999018 0.999018 0.999016 0.999016 0.999016
          0.999016 0.999016 0.999016 0.999016 0.999016 0.999016 0.999016 0.999016 0.999016 0.999016 0.999016 0.999016
          0.999014 0.999014 0.999014 0.999014 0.999014 0.999014 0.999014 0.999014 0.999014 0.999014 0.999014 0.999014
          0.999014 0.999014 0.999014 0.999011 0.999011 0.999011 0.999011 0.999011 0.999011 0.999011 0.999011 0.999011
          0.999011 0.999011 0.999011 0.999011 0.999011 0.999011 0.99901 0.99901 0.99901 0.99901 0.99901 0.99901
          0.99901 0.99901 0.99901 0.99901 0.99901 0.99901 0.99901 0.99901 0.99901 0.999008 0.999008 0.999008
          0.999008 0.999008 0.999008 0.999008 0.999008 0.999008 0.999008 0.999008 0.999008 0.999008 0.999008 0.999008
          0.999007 0.999007 0.999007 0.999007 0.999007 0.999007 0.999007 0.999007 0.999007 0.999007 0.999007 0.999007
          0.999007 0.999007 0.999007 0.999005 0.999005 0.999005 0.999005 0.999005 0.999005 0.999005 0.999005 0.999005
          0.999005 0.999005 0.999005 0.999005 0.999005 0.999005 0.999004 0.999004 0.999004 0.999004 0.999004 0.999004
          0.999004 0.999004 0.999004 0.999004 0.999004 0.999004 0.999004 0.999004 0.999004 0.999003 0.999003 0.999003
          0.999003 0.999003 0.999003 0.999003 0.999003 0.999003 0.999003 0.999003 0.999003 0.999003 0.999003 0.999003
          0.999002 0.999002 0.999002 0.999002 0.999002 0.999002 0.999002 0.999002 0.999002 0.999002 0.999002 0.999002
          0.999002 0.999002 0.999002 0.999001 0.999001 0.999001 0.999001 0.999001 0.999001 0.999001 0.999001 0.999001
          0.999001 0.999001 0.999001 0.999001 0.999001 0.999001 0.999001 0.999001 0.999001 0.999001 0.999001 0.999001
          0.999001 0.999001 0.999001 0.999001 0.999001 0.999001 0.999001 0.999001 0.999001 0.997911 0.998257 0.998399
          0.998449 0.998464 0.998463 0.998458 0.998452 0.998446 0.99844 0.998435 0.998431 0.998428 0.998427 0.998431
          1e-05 1e-05 1e-05 1e-05 1e-05 1e-05 1e-05 1e-05 1e-05 1e-05 1e-05 1e-05
          1e-05 1e-05 1e-05 1e-05 1e-05 1e-05 1e-05 1e-05 1e-05 1e-05 1e-05 1e-05
          1e-05 1e-05 1e-05 1e-05 1e-05 1e-05 1e-05 1e-05 1e-05 1e-05 1e-05 1e-05
          1e-05 1e-05 1e-05 1e-05 1e-05 1e-05 1e-05 1e-05 1e-05 1e-05 1e-05 1e-05
          1e-05 1e-05 1e-05 1e-05 1e-05 1e-05 1e-05 1e-05 1e-05 1e-05 1e-05 1e-05
          1e-05 1e-05 1e-05 1e-05 1e-05 1e-05 1e-05 1e-05 1e-05 1e-05 1e-05 1e-05
          1e-05 1e-05 1e-05 1e-05 1e-05 1e-05 1e-05 1e-05 1e-05 1e-05 1e-05 1e-05
          1e-05 1e-05 1e-05 1e-05 1e-05 1e-05 1e-05 1e-05 1e-05 1e-05 1e-05 1e-05
          1e-05 1e-05 1e-05 1e-05 1e-05 1e-05 1e-05 1e-05 1e-05 1e-05 1e-05 1e-05
          1e-05 1e-05 1e-05 1e-05 1e-05 1e-05 1e-05 1e-05 1e-05 1e-05 1e-05 1e-05
          1e-05 1e-05 1e-05 1e-05 1e-05 1e-05 1e-05 1e-05 1e-05 1e-05 1e-05 1e-05
          1e-05 1e-05 1e-05 1e-05 1e-05 1e-05 1e-05 1e-05 1e-05 1e-05 1e-05 1e-05
          1e-05 1e-05 1e-05 1e-05 1e-05 1e-05 1e-05 1e-05 1e-05 1e-05 1e-05 1e-05
          1e-05 1e-05 1e-05 1e-05 1e-05 1e-05 1e-05 1e-05 1e-05 1e-05 1e-05 1e-05
          1e-05 1e-05 1e-05 1e-05 1e-05 1e-05 1e-05 1e-05 1e-05 1e-05 1e-05 1e-05
          1e-05 1e-05 1e-05 1e-05 1e-05 1e-05 1e-05 1e-05 1e-05 1e-05 1e-05 1e-05
          1e-05 1e-05 1e-05 1e-05 1e-05 1e-05 1e-05 1e-05 1e-05 1e-05 1e-05 1e-05
          1e-05 1e-05 1e-05 1e-05 1e-05 1e-05 1e-05 1e-05 1e-05 1e-05 1e-05 1e-05
          1e-05 1e-05 1e-05 1e-05 1e-05 1e-05 1e-05 1e-05 1e-05
        </DataArray>
        <DataArray type="Float32" Name="S_n" NumberOfComponents="1" format="ascii">
          0.000975234 0.000975234 0.000978559 0.00097856 0.000975235 0.000978561 0.000975236 0.000978562 0.000975237 0.000978563 0.000975238 0.000978564
          0.000975239 0.000978565 0.00097524 0.000978566 0.00097524 0.000978566 0.000975241 0.000978567 0.000975241 0.000978567 0.000975242 0.000978567
          0.000975242 0.000978568 0.000975242 0.000978568 0.000975242 0.000978568 0.000981509 0.00098151 0.000981511 0.000981512 0.000981513 0.000981514
          0.000981515 0.000981516 0.000981517 0.000981517 0.000981518 0.000981518 0.000981518 0.000981518 0.000981518 0.000984135 0.000984135 0.000984136
          0.000984138 0.000984139 0.00098414 0.000984141 0.000984142 0.000984143 0.000984143 0.000984143 0.000984144 0.000984144 0.000984144 0.000984144
          0.00098647 0.000986471 0.000986472 0.000986473 0.000986475 0.000986476 0.000986477 0.000986478 0.000986478 0.000986479 0.000986479 0.000986479
          0.000986479 0.00098648 0.00098648 0.000988546 0.000988546 0.000988548 0.000988549 0.000988551 0.000988552 0.000988553 0.000988554 0.000988555
          0.000988555 0.000988555 0.000988555 0.000988556 0.000988556 0.000988556 0.00099039 0.000990391 0.000990392 0.000990394 0.000990396 0.000990397
          0.000990398 0.000990399 0.000990399 0.0009904 0.0009904 0.0009904 0.0009904 0.0009904 0.0009904 0.000992027 0.000992028 0.00099203
          0.000992032 0.000992034 0.000992035 0.000992036 0.000992037 0.000992037 0.000992038 0.000992038 0.000992038 0.000992038 0.000992039 0.000992038
          0.000993481 0.000993482 0.000993484 0.000993486 0.000993488 0.00099349 0.00099349 0.000993491 0.000993492 0.000993492 0.000993492 0.000993492
          0.000993493 0.000993493 0.000993493 0.000994771 0.000994772 0.000994775 0.000994777 0.000994779 0.00099478 0.000994781 0.000994782 0.000994782
          0.000994783 0.000994783 0.000994783 0.000994783 0.000994783 0.000994783 0.000995915 0.000995917 0.000995919 0.000995922 0.000995924 0.000995925
          0.000995926 0.000995927 0.000995927 0.000995927 0.000995928 0.000995928 0.000995928 0.000995928 0.000995928 0.000996929 0.000996932 0.000996935
          0.000996937 0.000996939 0.00099694 0.000996941 0.000996942 0.000996942 0.000996943 0.000996943 0.000996943 0.000996943 0.000996943 0.000996943
          0.000997829 0.000997832 0.000997835 0.000997837 0.000997839 0.000997841 0.000997842 0.000997842 0.000997843 0.000997843 0.000997843 0.000997843
          0.000997843 0.000997844 0.000997844 0.000998626 0.000998629 0.000998632 0.000998635 0.000998637 0.000998638 0.000998639 0.00099864 0.00099864
          0.000998641 0.000998641 0.000998641 0.000998641 0.000998641 0.000998642 0.000999333 0.000999327 0.000999329 0.000999333 0.000999335 0.000999337
          0.000999339 0.00099934 0.00099934 0.000999341 0.000999341 0.000999341 0.000999341 0.000999342 0.000999349 0.00208914 0.00174334 0.00160134
          0.00155095 0.00153648 0.00153657 0.00154165 0.0015479 0.00155409 0.00155986 0.00156492 0.00156894 0.00157164 0.00157268 0.00156896
          0.99999 0.99999 0.99999 0.99999 0.99999 0.99999 0.99999 0.99999 0.99999 0.99999 0.99999 0.99999
          0.99999 0.99999 0.99999 0.99999 0.99999 0.99999 0.99999 0.99999 0.99999 0.99999 0.99999 0.99999
          0.99999 0.99999 0.99999 0.99999 0.99999 0.99999 0.99999 0.99999 0.99999 0.99999 0.99999 0.99999
          0.99999 0.99999 0.99999 0.99999 0.99999 0.99999 0.99999 0.99999 0.99999 0.99999 0.99999 0.99999
          0.99999 0.99999 0.99999 0.99999 0.99999 0.99999 0.99999 0.99999 0.99999 0.99999 0.99999 0.99999
          0.99999 0.99999 0.99999 0.99999 0.99999 0.99999 0.99999 0.99999 0.99999 0.99999 0.99999 0.99999
          0.99999 0.99999 0.99999 0.99999 0.99999 0.99999 0.99999 0.99999 0.99999 0.99999 0.99999 0.99999
          0.99999 0.99999 0.99999 0.99999 0.99999 0.99999 0.99999 0.99999 0.99999 0.99999 0.99999 0.99999
          0.99999 0.99999 0.99999 0.99999 0.99999 0.99999 0.99999 0.99999 0.99999 0.99999 0.99999 0.99999
          0.99999 0.99999 0.99999 0.99999 0.99999 0.99999 0.99999 0.99999 0.99999 0.99999 0.99999 0.99999
          0.99999 0.99999 0.99999 0.99999 0.99999 0.99999 0.99999 0.99999 0.99999 0.99999 0.99999 0.99999
          0.99999 0.99999 0.99999 0.99999 0.99999 0.99999 0.99999 0.99999 0.99999 0.99999 0.99999 0.99999
          0.99999 0.99999 0.99999 0.99999 0.99999 0.99999 0.99999 0.99999 0.99999 0.99999 0.99999 0.99999
          0.99999 0.99999 0.99999 0.99999 0.99999 0.99999 0.99999 0.99999 0.99999 0.99999 0.99999 0.99999
          0.99999 0.99999 0.99999 0.99999 0.99999 0.99999 0.99999 0.99999 0.99999 0.99999 0.99999 0.99999
          0.99999 0.99999 0.99999 0.99999 0.99999 0.99999 0.99999 0.99999 0.99999 0.99999 0.99999 0.99999
          0.99999 0.99999 0.99999 0.99999 0.99999 0.99999 0.99999 0.99999 0.99999 0.99999 0.99999 0.99999
          0.99999 0.99999 0.99999 0.99999 0.99999 0.99999 0.99999 0.99999 0.99999 0.99999 0.99999 0.99999
          0.99999 0.99999 0.99999 0.99999 0.99999 0.99999 0.99999 0.99999 0.99999
        </DataArray>
        <DataArray type="Float32" Name="p_w" NumberOfComponents="1" format="ascii">
          100161 100160 99825.3 99825.2 100160 99825.1 100160 99825 100160 99824.9 100160 99824.8
          100160 99824.7 100160 99824.6 100160 99824.6 100160 99824.5 100160 99824.5 100160 99824.5
          100160 99824.4 100160 99824.4 100160 99824.4 99528.6 99528.6 99528.5 99528.4 99528.2 99528.1
          99528 99527.9 99527.9 99527.8 99527.8 99527.8 99527.8 99527.8 99527.8 99266.1 99266 99265.9
          99265.8 99265.7 99265.6 99265.5 99265.4 99265.3 99265.3 99265.2 99265.2 99265.2 99265.2 99265.2
          99033.8 99033.7 99033.6 99033.5 99033.3 99033.2 99033.1 99033 99033 99032.9 99032.9 99032.9
          99032.9 99032.9 99032.9 98828.2 98828.1 98828 98827.8 98827.7 98827.6 98827.5 98827.4 98827.4
          98827.3 98827.3 98827.3 98827.2 98827.2 98827.2 98646.3 98646.2 98646.1 98645.9 98645.7 98645.6
          98645.5 98645.4 98645.4 98645.4 98645.3 98645.3 98645.3 98645.3 98645.3 98485.3 98485.2 98485
          98484.9 98484.7 98484.6 98484.5 98484.4 98484.4 98484.3 98484.3 98484.3 98484.3 98484.2 98484.2
          98342.9 98342.8 98342.6 98342.4 98342.2 98342.1 98342 98341.9 98341.9 98341.8 98341.8 98341.8
          98341.8 98341.8 98341.8 98216.8 98216.7 98216.5 98216.2 98216.1 98215.9 98215.8 98215.8 98215.7
          98215.7 98215.7 98215.7 98215.6 98215.6 98215.6 98105.3 98105.1 98104.9 98104.6 98104.5 98104.3
          98104.2 98104.2 98104.1 98104.1 98104.1 98104.1 98104 98104 98104 98006.6 98006.4 98006.1
          98005.9 98005.7 98005.6 98005.5 98005.4 98005.4 98005.3 98005.3 98005.3 98005.3 98005.3 98005.3
          97919.3 97919 97918.7 97918.5 97918.3 97918.2 97918.1 97918 97918 97917.9 97917.9 97917.9
          97917.9 97917.9 97917.9 97842 97841.7 97841.4 97841.1 97840.9 97840.8 97840.7 97840.7 97840.6
          97840.6 97840.6 97840.5 97840.5 97840.5 97840.5 97773.6 97773.3 97772.9 97772.7 97772.5 97772.3
          97772.3 97772.2 97772.2 97772.1 97772.1 97772.1 97772.1 97772.1 97772.1 97713.1 97712.7 97712.4
          97712.1 97711.9 97711.8 97711.7 97711.6 97711.6 97711.6 97711.5 97711.5 97711.5 97711.5 97711.5
          100005 100004 100004 100003 100003 100003 100003 100003 100003 100003 100003 100003
          100003 100003 100003 100005 100004 100004 100003 100003 100003 100003 100003 100003
          100003 100003 100003 100003 100003 100003 100005 100004 100003 100003 100003 100003
          100003 100003 100003 100003 100003 100003 100003 100003 100003 100005 100004 100003
          100003 100003 100003 100003 100003 100003 100003 100003 100002 100002 100002 100002
          100004 100004 100003 100003 100003 100003 100003 100002 100002 100002 100002 100002
          100002 100002 100002 100004 100004 100003 100003 100003 100002 100002 100002 100002
          100002 100002 100002 100002 100002 100002 100004 100003 100003 100003 100002 100002
          100002 100002 100002 100002 100002 100002 100002 100002 100002 100004 100003 100003
          100002 100002 100002 100002 100002 100002 100002 100002 100002 100002 100002 100002
          100004 100003 100002 100002 100002 100002 100002 100002 100002 100002 100002 100002
          100002 100002 100002 100003 100003 100002 100002 100002 100002 100002 100002 100002
          100002 100002 100002 100002 100002 100002 100003 100002 100002 100002 100002 100001
          100001 100001 100001 100001 100001 100001 100001 100001 100001 100002 100002 100002
          100001 100001 100001 100001 100001 100001 100001 100001 100001 100001 100001 100001
          100002 100001 100001 100001 100001 100001 100001 100001 100001 100001 100001 100001
          100001 100001 100001 100001 100001 100001 100001 100000 100000 100000 100000 100000
          100000 100000 100000 100000 100000 100000 100000 100000 100000 100000 100000 100000
          100000 100000 100000 100000 100000 100000 100000 100000 100000
        </DataArray>
        <DataArray type="Float32" Name="p_n" NumberOfComponents="1" format="ascii">
          102451 102451 102116 102116 102451 102116 102451 102116 102451 102116 102451 102116
          102451 102116 102451 102115 102451 102115 102451 102115 102451 102115 102451 102115
          102451 102115 102451 102115 102450 102115 101819 101819 101819 101819 101819 101819
          101819 101819 101819 101819 101819 101819 101819 101819 101819 101557 101557 101557
          101557 101556 101556 101556 101556 101556 101556 101556 101556 101556 101556 101556
          101325 101325 101324 101324 101324 101324 101324 101324 101324 101324 101324 101324
          101324 101324 101324 101119 101119 101119 101119 101119 101118 101118 101118 101118
          101118 101118 101118 101118 101118 101118 100937 100937 100937 100937 100937 100936
          100936 100936 100936 100936 100936 100936 100936 100936 100936 100776 100776 100776
          100776 100776 100775 100775 100775 100775 100775 100775 100775 100775 100775 100775
          100634 100634 100633 100633 100633 100633 100633 100633 100633 100633 100633 100633
          100633 100633 100633 100508 100508 100507 100507 100507 100507 100507 100507 100507
          100507 100507 100506 100506 100506 100506 100396 100396 100396 100395 100395 100395
          100395 100395 100395 100395 100395 100395 100395 100395 100395 100297 100297 100297
          100297 100297 100296 100296 100296 100296 100296 100296 100296 100296 100296 100296
          100210 100210 100210 100209 100209 100209 100209 100209 100209 100209 100209 100209
          100209 100209 100209 100133 100133 100132 100132 100132 100132 100132 100131 100131
          100131 100131 100131 100131 100131 100131 100064 100064 100064 100064 100063 100063
          100063 100063 100063 100063 100063 100063 100063 100063 100063 100005 100004 100004
          100003 100003 100003 100003 100003 100003 100003 100003 100003 100003 100003 100003
          100005 100004 100004 100003 100003 100003 100003 100003 100003 100003 100003 100003
          100003 100003 100003 100005 100004 100004 100003 100003 100003 100003 100003 100003
          100003 100003 100003 100003 100003 100003 100005 100004 100003 100003 100003 100003
          100003 100003 100003 100003 100003 100003 100003 100003 100003 100005 100004 100003
          100003 100003 100003 100003 100003 100003 100003 100003 100002 100002 100002 100002
          100004 100004 100003 100003 100003 100003 100003 100002 100002 100002 100002 100002
          100002 100002 100002 100004 100004 100003 100003 100003 100002 100002 100002 100002
          100002 100002 100002 100002 100002 100002 100004 100003 100003 100003 100002 100002
          100002 100002 100002 100002 100002 100002 100002 100002 100002 100004 100003 100003
          100002 100002 100002 100002 100002 100002 100002 100002 100002 100002 100002 100002
          100004 100003 100002 100002 100002 100002 100002 100002 100002 100002 100002 100002
          100002 100002 100002 100003 100003 100002 100002 100002 100002 100002 100002 100002
          100002 100002 100002 100002 100002 100002 100003 100002 100002 100002 100002 100001
          100001 100001 100001 100001 100001 100001 100001 100001 100001 100002 100002 100002
          100001 100001 100001 100001 100001 100001 100001 100001 100001 100001 100001 100001
          100002 100001 100001 100001 100001 100001 100001 100001 100001 100001 100001 100001
          100001 100001 100001 100001 100001 100001 100001 100000 100000 100000 100000 100000
          100000 100000 100000 100000 100000 100000 100000 100000 100000 100000 100000 100000
          100000 100000 100000 100000 100000 100000 100000 100000 100000
        </DataArray>
        <DataArray type="Float32" Name="rho_w" NumberOfComponents="1" format="ascii">
          998.232 998.232 998.232 998.232 998.232 998.232 998.232 998.232 998.232 998.232 998.232 998.232
          998.232 998.232 998.232 998.232 998.232 998.232 998.232 998.232 998.232 998.232 998.232 998.232
          998.232 998.232 998.232 998.232 998.232 998.232 998.232 998.232 998.232 998.232 998.232 998.232
          998.232 998.232 998.232 998.232 998.232 998.232 998.232 998.232 998.232 998.232 998.232 998.232
          998.232 998.232 998.232 998.232 998.232 998.232 998.232 998.232 998.232 998.232 998.232 998.232
          998.232 998.232 998.232 998.232 998.232 998.232 998.232 998.232 998.232 998.232 998.232 998.232
          998.232 998.232 998.232 998.232 998.232 998.232 998.232 998.232 998.232 998.232 998.232 998.232
          998.232 998.232 998.232 998.232 998.232 998.232 998.232 998.232 998.232 998.232 998.232 998.232
          998.232 998.232 998.232 998.232 998.232 998.232 998.232 998.232 998.232 998.232 998.232 998.232
          998.232 998.232 998.232 998.232 998.232 998.232 998.232 998.232 998.232 998.232 998.232 998.232
          998.232 998.232 998.232 998.232 998.232 998.232 998.232 998.232 998.232 998.232 998.232 998.232
          998.232 998.232 998.232 998.232 998.232 998.232 998.232 998.232 998.232 998.232 998.232 998.232
          998.232 998.232 998.232 998.232 998.232 998.232 998.232 998.232 998.232 998.232 998.232 998.232
          998.232 998.232 998.232 998.232 998.232 998.232 998.232 998.232 998.232 998.232 998.232 998.232
          998.232 998.232 998.232 998.232 998.232 998.232 998.232 998.232 998.232 998.232 998.232 998.232
          998.231 998.231 998.231 998.231 998.231 998.231 998.231 998.231 998.231 998.231 998.231 998.231
          998.231 998.231 998.231 998.231 998.231 998.231 998.231 998.231 998.231 998.231 998.231 998.231
          998.231 998.231 998.231 998.231 998.231 998.231 998.231 998.232 998.232 998.232 998.232 998.232
          998.232 998.232 998.232 998.232 998.232 998.232 998.232 998.232 998.231 998.231 998.237 998.236
          998.236 998.236 998.236 998.235 998.235 998.235 998.235 998.235 998.235 998.235 998.235 998.231
          998.232 998.233 998.233 998.233 998.233 998.233 998.233 998.233 998.233 998.232 998.232 998.232
          998.233 998.232 998.232 998.232 998.232 998.232 998.232 998.232 998.232 998.232 998.232 998.232
          998.232 998.232 998.232 998.232 998.232 998.232 998.232 998.232 998.232 998.232 998.232 998.232
          998.232 998.232 998.232 998.232 998.232 998.232 998.232 998.232 998.232 998.232 998.232 998.232
          998.232 998.232 998.232 998.232 998.232 998.232 998.232 998.232 998.232 998.232 998.232 998.232
          998.232 998.232 998.232 998.232 998.232 998.232 998.232 998.232 998.232 998.232 998.232 998.232
          998.232 998.232 998.232 998.232 998.232 998.232 998.232 998.232 998.232 998.232 998.232 998.232
          998.232 998.232 998.232 998.232 998.232 998.232 998.232 998.232 998.232 998.232 998.232 998.232
          998.232 998.232 998.232 998.232 998.232 998.232 998.232 998.232 998.232 998.232 998.232 998.232
          998.232 998.232 998.232 998.232 998.232 998.232 998.232 998.232 998.232 998.232 998.232 998.232
          998.232 998.232 998.232 998.232 998.232 998.232 998.232 998.232 998.232 998.232 998.232 998.232
          998.232 998.232 998.232 998.232 998.232 998.232 998.232 998.232 998.232 998.232 998.232 998.232
          998.232 998.232 998.232 998.232 998.232 998.232 998.232 998.232 998.232 998.232 998.232 998.232
          998.232 998.232 998.232 998.232 998.232 998.232 998.232 998.232 998.232 998.232 998.232 998.232
          998.232 998.232 998.232 998.232 998.232 998.232 998.232 998.232 998.232 998.232 998.232 998.232
          998.232 998.232 998.232 998.232 998.232 998.232 998.232 998.232 998.232 998.232 998.232 998.232
          998.232 998.232 998.232 998.232 998.232 998.232 998.232 998.232 998.232 998.232 998.232 998.232
          998.232 998.232 998.232 998.232 998.232 998.232 998.232 998.232 998.232 998.232 998.232 998.232
          998.232 998.232 998.232 998.232 998.232 998.232 998.232 998.232 998.232
        </DataArray>
        <DataArray type="Float32" Name="rho_n" NumberOfComponents="1" format="ascii">
          1.16857 1.16857 1.16472 1.16472 1.16857 1.16472 1.16857 1.16472 1.16857 1.16471 1.16857 1.16471
          1.16857 1.16471 1.16857 1.16471 1.16857 1.16471 1.16856 1.16471 1.16856 1.16471 1.16856 1.16471
          1.16856 1.16471 1.16856 1.16471 1.16856 1.16471 1.16131 1.16131 1.16131 1.1613 1.1613 1.1613
          1.1613 1.1613 1.1613 1.1613 1.1613 1.1613 1.1613 1.1613 1.1613 1.15829 1.15829 1.15829
          1.15828 1.15828 1.15828 1.15828 1.15828 1.15828 1.15828 1.15828 1.15828 1.15828 1.15828 1.15828
          1.15562 1.15562 1.15561 1.15561 1.15561 1.15561 1.15561 1.15561 1.15561 1.15561 1.15561 1.15561
          1.15561 1.15561 1.15561 1.15325 1.15325 1.15325 1.15325 1.15325 1.15325 1.15324 1.15324 1.15324
          1.15324 1.15324 1.15324 1.15324 1.15324 1.15324 1.15116 1.15116 1.15116 1.15116 1.15115 1.15115
          1.15115 1.15115 1.15115 1.15115 1.15115 1.15115 1.15115 1.15115 1.15115 1.14931 1.14931 1.14931
          1.1493 1.1493 1.1493 1.1493 1.1493 1.1493 1.1493 1.1493 1.1493 1.1493 1.1493 1.1493
          1.14767 1.14767 1.14767 1.14767 1.14766 1.14766 1.14766 1.14766 1.14766 1.14766 1.14766 1.14766
          1.14766 1.14766 1.14766 1.14622 1.14622 1.14622 1.14622 1.14621 1.14621 1.14621 1.14621 1.14621
          1.14621 1.14621 1.14621 1.14621 1.14621 1.14621 1.14494 1.14494 1.14494 1.14493 1.14493 1.14493
          1.14493 1.14493 1.14493 1.14493 1.14493 1.14493 1.14493 1.14493 1.14493 1.14381 1.1438 1.1438
          1.1438 1.14379 1.14379 1.14379 1.14379 1.14379 1.14379 1.14379 1.14379 1.14379 1.14379 1.14379
          1.1428 1.1428 1.14279 1.14279 1.14279 1.14279 1.14279 1.14279 1.14279 1.14279 1.14279 1.14279
          1.14279 1.14279 1.14279 1.14191 1.14191 1.14191 1.1419 1.1419 1.1419 1.1419 1.1419 1.1419
          1.1419 1.1419 1.1419 1.1419 1.1419 1.1419 1.14113 1.14113 1.14113 1.14112 1.14112 1.14112
          1.14112 1.14112 1.14112 1.14112 1.14112 1.14112 1.14112 1.14112 1.14111 1.14304 1.14353 1.14358
          1.14351 1.14335 1.14312 1.14286 1.14259 1.14236 1.14224 1.1422 1.14221 1.14224 1.14227 1.14217
          1.15006 1.1522 1.1548 1.15809 1.16215 1.16686 1.1718 1.17617 1.17893 1.17964 1.17894 1.17784
          1.17693 1.17631 1.17595 1.14918 1.14997 1.15141 1.15362 1.15678 1.16105 1.16624 1.17154 1.17553
          1.17724 1.17711 1.17628 1.17552 1.175 1.17474 1.14905 1.14938 1.15017 1.1516 1.15386 1.15718
          1.16158 1.16649 1.17055 1.17256 1.17263 1.17182 1.17096 1.17032 1.16991 1.14902 1.14917 1.14963
          1.15057 1.1522 1.15473 1.15827 1.16238 1.16583 1.16744 1.16719 1.16603 1.16481 1.16382 1.16315
          1.14901 1.14908 1.14936 1.15 1.15119 1.15314 1.15595 1.15926 1.16195 1.16291 1.16214 1.16057
          1.15901 1.15774 1.15694 1.14901 1.14904 1.14922 1.14966 1.15055 1.15206 1.1543 1.15693 1.15894
          1.15931 1.15813 1.15632 1.15467 1.15341 1.15271 1.149 1.14902 1.14913 1.14945 1.15012 1.15131
          1.1531 1.1552 1.15666 1.15661 1.15521 1.15342 1.15194 1.15093 1.15045 1.149 1.14901 1.14908
          1.14931 1.14983 1.15078 1.15223 1.15389 1.15494 1.15462 1.1532 1.15159 1.15043 1.14975 1.14947
          1.149 1.149 1.14905 1.14922 1.14963 1.15039 1.15158 1.15291 1.15364 1.15317 1.15183 1.1505
          1.14966 1.14925 1.14912 1.14899 1.14899 1.14903 1.14916 1.14948 1.15011 1.15109 1.15216 1.15265
          1.1521 1.15091 1.14987 1.1493 1.14907 1.14901 1.14899 1.14899 1.14901 1.14911 1.14938 1.1499
          1.15072 1.15158 1.15189 1.1513 1.15028 1.14949 1.14912 1.149 1.14898 1.14899 1.14898 1.149
          1.14908 1.14931 1.14975 1.15045 1.15114 1.15129 1.15069 1.14983 1.14926 1.14904 1.14898 1.14897
          1.14898 1.14897 1.14899 1.14906 1.14926 1.14965 1.15025 1.1508 1.15081 1.1502 1.14951 1.14912
          1.14899 1.14897 1.14896 1.14897 1.14897 1.14898 1.14905 1.14923 1.14958 1.1501 1.15049 1.15035
          1.14978 1.14926 1.14903 1.14897 1.14896 1.14896 1.14896 1.14896 1.14896 1.14896 1.14896 1.14896
          1.14896 1.14896 1.14896 1.14896 1.14896 1.14896 1.14896 1.14896 1.14896
        </DataArray>
        <DataArray type="Float32" Name="lambda_w" NumberOfComponents="1" format="ascii">
          990.751 990.751 990.738 990.739 990.751 990.739 990.751 990.739 990.751 990.739 990.751 990.739
          990.751 990.739 990.751 990.739 990.751 990.739 990.751 990.739 990.751 990.739 990.751 990.739
          990.751 990.739 990.751 990.739 990.751 990.738 990.727 990.728 990.728 990.728 990.728 990.728
          990.728 990.728 990.728 990.728 990.728 990.728 990.728 990.728 990.727 990.718 990.718 990.718
          990.718 990.718 990.718 990.718 990.718 990.718 990.718 990.718 990.718 990.718 990.718 990.717
          990.709 990.709 990.709 990.709 990.709 990.709 990.709 990.709 990.709 990.709 990.709 990.709
          990.709 990.709 990.709 990.701 990.701 990.701 990.701 990.701 990.701 990.701 990.701 990.701
          990.701 990.701 990.701 990.701 990.701 990.701 990.694 990.694 990.694 990.694 990.694 990.694
          990.694 990.694 990.694 990.694 990.694 990.694 990.694 990.694 990.694 990.688 990.688 990.688
          990.688 990.688 990.688 990.688 990.688 990.688 990.688 990.688 990.688 990.688 990.688 990.688
          990.683 990.683 990.683 990.683 990.683 990.683 990.683 990.683 990.683 990.683 990.683 990.683
          990.683 990.683 990.683 990.678 990.678 990.678 990.678 990.678 990.678 990.678 990.678 990.678
          990.678 990.678 990.678 990.678 990.678 990.678 990.674 990.674 990.674 990.674 990.674 990.674
          990.674 990.674 990.674 990.674 990.674 990.674 990.674 990.674 990.674 990.67 990.67 990.67
          990.67 990.67 990.67 990.67 990.67 990.67 990.67 990.67 990.67 990.67 990.67 990.67
          990.666 990.666 990.666 990.666 990.666 990.666 990.666 990.666 990.666 990.666 990.666 990.666
          990.666 990.666 990.666 990.663 990.661 990.66 990.661 990.661 990.661 990.661 990.661 990.661
          990.661 990.661 990.661 990.661 990.662 990.663 990.661 990.612 990.608 990.61 990.613 990.616
          990.618 990.621 990.622 990.623 990.623 990.622 990.622 990.626 990.661 986.636 987.295 987.856
          988.068 988.151 988.184 988.2 988.208 988.208 988.196 988.178 988.161 988.147 988.136 988.556
          5.74711e-13 5.74705e-13 5.74705e-13 5.74705e-13 5.74705e-13 5.74706e-13 5.74706e-13 5.74707e-13 5.74707e-13 5.74707e-13 5.74707e-13 5.74707e-13
          5.74707e-13 5.74707e-13 5.74711e-13 5.74711e-13 5.74711e-13 5.74711e-13 5.74711e-13 5.74711e-13 5.74711e-13 5.74711e-13 5.74711e-13 5.74711e-13
          5.74711e-13 5.74711e-13 5.74711e-13 5.74711e-13 5.74711e-13 5.74711e-13 5.74711e-13 5.74711e-13 5.74711e-13 5.74711e-13 5.74711e-13 5.74711e-13
          5.74711e-13 5.74711e-13 5.74711e-13 5.74711e-13 5.74711e-13 5.74711e-13 5.74711e-13 5.74711e-13 5.74711e-13 5.74711e-13 5.74711e-13 5.74711e-13
          5.74711e-13 5.74711e-13 5.74711e-13 5.74711e-13 5.74711e-13 5.74711e-13 5.74711e-13 5.74711e-13 5.74711e-13 5.74711e-13 5.74711e-13 5.74711e-13
          5.74711e-13 5.74711e-13 5.74711e-13 5.74711e-13 5.74711e-13 5.74711e-13 5.74711e-13 5.74711e-13 5.74711e-13 5.74711e-13 5.74711e-13 5.74711e-13
          5.74711e-13 5.74711e-13 5.74711e-13 5.74711e-13 5.74711e-13 5.74711e-13 5.74711e-13 5.74711e-13 5.74711e-13 5.74711e-13 5.74711e-13 5.74711e-13
          5.74711e-13 5.74711e-13 5.74711e-13 5.74711e-13 5.74711e-13 5.74711e-13 5.74711e-13 5.74711e-13 5.74711e-13 5.74711e-13 5.74711e-13 5.74711e-13
          5.74711e-13 5.74711e-13 5.74711e-13 5.74711e-13 5.74711e-13 5.74711e-13 5.74711e-13 5.74711e-13 5.74711e-13 5.74711e-13 5.74711e-13 5.74711e-13
          5.74711e-13 5.74711e-13 5.74711e-13 5.74711e-13 5.74711e-13 5.74711e-13 5.74711e-13 5.74711e-13 5.74711e-13 5.74711e-13 5.74711e-13 5.74711e-13
          5.74711e-13 5.74711e-13 5.74711e-13 5.74711e-13 5.74711e-13 5.74711e-13 5.74711e-13 5.74711e-13 5.74711e-13 5.74711e-13 5.74711e-13 5.74711e-13
          5.74711e-13 5.74711e-13 5.74711e-13 5.74711e-13 5.74711e-13 5.74711e-13 5.74711e-13 5.74711e-13 5.74711e-13 5.74711e-13 5.74711e-13 5.74711e-13
          5.74711e-13 5.74711e-13 5.74711e-13 5.74711e-13 5.74711e-13 5.74711e-13 5.74711e-13 5.74711e-13 5.74711e-13 5.74711e-13 5.74711e-13 5.74711e-13
          5.74711e-13 5.74711e-13 5.74711e-13 5.74711e-13 5.74711e-13 5.74711e-13 5.74711e-13 5.74711e-13 5.74711e-13 5.74711e-13 5.74711e-13 5.74711e-13
          5.74711e-13 5.74711e-13 5.74711e-13 5.74711e-13 5.74711e-13 5.74711e-13 5.74711e-13 5.74711e-13 5.74711e-13 5.74711e-13 5.74711e-13 5.74711e-13