<?xml version="1.0"?>
<VTKFile type="UnstructuredGrid" version="0.1" byte_order="LittleEndian">
  <UnstructuredGrid>
    <Piece NumberOfCells="420" NumberOfPoints="465">
      <PointData Scalars="S_w" Vectors="velocity_w">
        <DataArray type="Float32" Name="S_w" NumberOfComponents="1" format="ascii">
          0.999025 0.999025 0.99902 0.99902 0.999025 0.99902 0.999025 0.99902 0.999025 0.99902 0.999025 0.99902
          0.999025 0.99902 0.999025 0.99902 0.999025 0.99902 0.999025 0.99902 0.999025 0.99902 0.999025 0.99902
          0.999025 0.99902 0.999025 0.99902 0.999025 0.99902 0.999017 0.999017 0.999017 0.999017 0.999017 0.999017
          0.999017 0.999017 0.999017 0.999017 0.999017 0.999017 0.999017 0.999017 0.999017 0.999014 0.999014 0.999014
          0.999014 0.999014 0.999014 0.999014 0.999014 0.999014 0.999014 0.999014 0.999014 0.999014 0.999014 0.999014
          0.999011 0.999011 0.999011 0.999011 0.999011 0.999011 0.999011 0.999011 0.999011 0.999011 0.999011 0.999011
          0.999011 0.999011 0.999011 0.999009 0.999009 0.999009 0.999009 0.999009 0.999009 0.999009 0.999009 0.999009
          0.999009 0.999009 0.999009 0.999009 0.999009 0.999009 0.999007 0.999007 0.999007 0.999007 0.999007 0.999007
          0.999007 0.999007 0.999007 0.999007 0.999007 0.999007 0.999007 0.999007 0.999007 0.999006 0.999006 0.999006
          0.999006 0.999006 0.999006 0.999006 0.999006 0.999006 0.999006 0.999006 0.999006 0.999006 0.999006 0.999006
          0.999005 0.999005 0.999005 0.999005 0.999005 0.999005 0.999005 0.999005 0.999005 0.999005 0.999005 0.999005
          0.999005 0.999005 0.999005 0.999004 0.999004 0.999004 0.999004 0.999004 0.999003 0.999003 0.999003 0.999003
          0.999003 0.999003 0.999003 0.999003 0.999003 0.999003 0.999003 0.999003 0.999003 0.999003 0.999003 0.999003
          0.999003 0.999003 0.999003 0.999003 0.999003 0.999003 0.999003 0.999003 0.999003 0.999002 0.999002 0.999002
          0.999002 0.999002 0.999002 0.999002 0.999002 0.999002 0.999002 0.999002 0.999002 0.999002 0.999002 0.999002
          0.999001 0.999001 0.999001 0.999001 0.999001 0.999001 0.999001 0.999001 0.999001 0.999001 0.999001 0.999001
          0.999001 0.999001 0.999001 0.999001 0.999001 0.999001 0.999001 0.999001 0.999001 0.999001 0.999001 0.999001
          0.999001 0.999001 0.999001 0.999001 0.999001 0.999001 0.999 0.999 0.999 0.999 0.999 0.999
          0.999 0.999 0.999 0.999 0.999 0.999 0.999 0.999 0.999 0.997265 0.997722 0.997928
          0.998009 0.998036 0.99804 0.998035 0.998027 0.998017 0.998008 0.997999 0.997993 0.997989 0.997987 0.997992
          1e-05 1e-05 1e-05 1e-05 1e-05 1e-05 1e-05 1e-05 1e-05 1e-05 1e-05 1e-05
          1e-05 1e-05 1e-05 1e-05 1e-05 1e-05 1e-05 1e-05 1e-05 1e-05 1e-05 1e-05
          1e-05 1e-05 1e-05 1e-05 1e-05 1e-05 1e-05 1e-05 1e-05 1e-05 1e-05 1e-05
          1e-05 1e-05 1e-05 1e-05 1e-05 1e-05 1e-05 1e-05 1e-05 1e-05 1e-05 1e-05
          1e-05 1e-05 1e-05 1e-05 1e-05 1e-05 1e-05 1e-05 1e-05 1e-05 1e-05 1e-05
          1e-05 1e-05 1e-05 1e-05 1e-05 1e-05 1e-05 1e-05 1e-05 1e-05 1e-05 1e-05
          1e-05 1e-05 1e-05 1e-05 1e-05 1e-05 1e-05 1e-05 1e-05 1e-05 1e-05 1e-05
          1e-05 1e-05 1e-05 1e-05 1e-05 1e-05 1e-05 1e-05 1e-05 1e-05 1e-05 1e-05
          1e-05 1e-05 1e-05 1e-05 1e-05 1e-05 1e-05 1e-05 1e-05 1e-05 1e-05 1e-05
          1e-05 1e-05 1e-05 1e-05 1e-05 1e-05 1e-05 1e-05 1e-05 1e-05 1e-05 1e-05
          1e-05 1e-05 1e-05 1e-05 1e-05 1e-05 1e-05 1e-05 1e-05 1e-05 1e-05 1e-05
          1e-05 1e-05 1e-05 1e-05 1e-05 1e-05 1e-05 1e-05 1e-05 1e-05 1e-05 1e-05
          1e-05 1e-05 1e-05 1e-05 1e-05 1e-05 1e-05 1e-05 1e-05 1e-05 1e-05 1e-05
          1e-05 1e-05 1e-05 1e-05 1e-05 1e-05 1e-05 1e-05 1e-05 1e-05 1e-05 1e-05
          1e-05 1e-05 1e-05 1e-05 1e-05 1e-05 1e-05 1e-05 1e-05 1e-05 1e-05 1e-05
          1e-05 1e-05 1e-05 1e-05 1e-05 1e-05 1e-05 1e-05 1e-05 1e-05 1e-05 1e-05
          1e-05 1e-05 1e-05 1e-05 1e-05 1e-05 1e-05 1e-05 1e-05 1e-05 1e-05 1e-05
          1e-05 1e-05 1e-05 1e-05 1e-05 1e-05 1e-05 1e-05 1e-05 1e-05 1e-05 1e-05
          1e-05 1e-05 1e-05 1e-05 1e-05 1e-05 1e-05 1e-05 1e-05
        </DataArray>
        <DataArray type="Float32" Name="S_n" NumberOfComponents="1" format="ascii">
          0.000975285 0.000975285 0.000979602 0.000979602 0.000975286 0.000979603 0.000975287 0.000979604 0.000975288 0.000979605 0.000975289 0.000979606
          0.00097529 0.000979607 0.00097529 0.000979608 0.000975291 0.000979609 0.000975291 0.000979609 0.000975292 0.000979609 0.000975292 0.00097961
          0.000975292 0.00097961 0.000975292 0.00097961 0.000975293 0.00097961 0.000983221 0.000983222 0.000983223 0.000983224 0.000983225 0.000983226
          0.000983227 0.000983228 0.000983229 0.000983229 0.000983229 0.00098323 0.00098323 0.00098323 0.00098323 0.000986258 0.000986259 0.00098626
          0.000986261 0.000986262 0.000986264 0.000986265 0.000986265 0.000986266 0.000986266 0.000986267 0.000986267 0.000986267 0.000986267 0.000986267
          0.000988803 0.000988804 0.000988805 0.000988806 0.000988808 0.000988809 0.00098881 0.000988811 0.000988811 0.000988812 0.000988812 0.000988812
          0.000988812 0.000988813 0.000988813 0.000990934 0.000990934 0.000990936 0.000990937 0.000990939 0.00099094 0.000990941 0.000990942 0.000990942
          0.000990943 0.000990943 0.000990943 0.000990944 0.000990944 0.000990944 0.000992716 0.000992717 0.000992719 0.00099272 0.000992722 0.000992723
          0.000992724 0.000992725 0.000992725 0.000992726 0.000992726 0.000992726 0.000992727 0.000992727 0.000992727 0.000994206 0.000994207 0.000994209
          0.000994211 0.000994213 0.000994214 0.000994215 0.000994216 0.000994216 0.000994217 0.000994217 0.000994217 0.000994217 0.000994217 0.000994217
          0.000995451 0.000995453 0.000995455 0.000995457 0.000995459 0.00099546 0.000995461 0.000995462 0.000995462 0.000995462 0.000995463 0.000995463
          0.000995463 0.000995463 0.000995463 0.000996491 0.000996493 0.000996495 0.000996497 0.000996499 0.0009965 0.000996501 0.000996502 0.000996503
          0.000996503 0.000996503 0.000996503 0.000996504 0.000996504 0.000996504 0.000997359 0.000997361 0.000997364 0.000997366 0.000997368 0.000997369
          0.00099737 0.000997371 0.000997371 0.000997372 0.000997372 0.000997372 0.000997372 0.000997372 0.000997372 0.000998084 0.000998086 0.000998089
          0.000998091 0.000998093 0.000998094 0.000998095 0.000998096 0.000998097 0.000998097 0.000998097 0.000998097 0.000998097 0.000998097 0.000998097
          0.000998689 0.000998691 0.000998694 0.000998696 0.000998698 0.000998699 0.0009987 0.000998701 0.000998701 0.000998702 0.000998702 0.000998702
          0.000998702 0.000998702 0.000998702 0.000999193 0.000999192 0.000999195 0.000999198 0.0009992 0.000999201 0.000999202 0.000999203 0.000999204
          0.000999204 0.000999204 0.000999204 0.000999204 0.000999205 0.000999207 0.000999615 0.000999586 0.000999588 0.000999593 0.000999597 0.0009996
          0.000999602 0.000999604 0.000999605 0.000999605 0.000999605 0.000999605 0.000999605 0.000999607 0.00099963 0.00273532 0.00227807 0.00207158
          0.00199096 0.00196383 0.0019597 0.00196486 0.00197339 0.00198298 0.00199245 0.00200075 0.00200716 0.00201129 0.00201287 0.0020078
          0.99999 0.99999 0.99999 0.99999 0.99999 0.99999 0.99999 0.99999 0.99999 0.99999 0.99999 0.99999
          0.99999 0.99999 0.99999 0.99999 0.99999 0.99999 0.99999 0.99999 0.99999 0.99999 0.99999 0.99999
          0.99999 0.99999 0.99999 0.99999 0.99999 0.99999 0.99999 0.99999 0.99999 0.99999 0.99999 0.99999
          0.99999 0.99999 0.99999 0.99999 0.99999 0.99999 0.99999 0.99999 0.99999 0.99999 0.99999 0.99999
          0.99999 0.99999 0.99999 0.99999 0.99999 0.99999 0.99999 0.99999 0.99999 0.99999 0.99999 0.99999
          0.99999 0.99999 0.99999 0.99999 0.99999 0.99999 0.99999 0.99999 0.99999 0.99999 0.99999 0.99999
          0.99999 0.99999 0.99999 0.99999 0.99999 0.99999 0.99999 0.99999 0.99999 0.99999 0.99999 0.99999
          0.99999 0.99999 0.99999 0.99999 0.99999 0.99999 0.99999 0.99999 0.99999 0.99999 0.99999 0.99999
          0.99999 0.99999 0.99999 0.99999 0.99999 0.99999 0.99999 0.99999 0.99999 0.99999 0.99999 0.99999
          0.99999 0.99999 0.99999 0.99999 0.99999 0.99999 0.99999 0.99999 0.99999 0.99999 0.99999 0.99999
          0.99999 0.99999 0.99999 0.99999 0.99999 0.99999 0.99999 0.99999 0.99999 0.99999 0.99999 0.99999
          0.99999 0.99999 0.99999 0.99999 0.99999 0.99999 0.99999 0.99999 0.99999 0.99999 0.99999 0.99999
          0.99999 0.99999 0.99999 0.99999 0.99999 0.99999 0.99999 0.99999 0.99999 0.99999 0.99999 0.99999
          0.99999 0.99999 0.99999 0.99999 0.99999 0.99999 0.99999 0.99999 0.99999 0.99999 0.99999 0.99999
          0.99999 0.99999 0.99999 0.99999 0.99999 0.99999 0.99999 0.99999 0.99999 0.99999 0.99999 0.99999
          0.99999 0.99999 0.99999 0.99999 0.99999 0.99999 0.99999 0.99999 0.99999 0.99999 0.99999 0.99999
          0.99999 0.99999 0.99999 0.99999 0.99999 0.99999 0.99999 0.99999 0.99999 0.99999 0.99999 0.99999
          0.99999 0.99999 0.99999 0.99999 0.99999 0.99999 0.99999 0.99999 0.99999 0.99999 0.99999 0.99999
          0.99999 0.99999 0.99999 0.99999 0.99999 0.99999 0.99999 0.99999 0.99999
        </DataArray>
        <DataArray type="Float32" Name="p_w" NumberOfComponents="1" format="ascii">
          100160 100160 99723.8 99723.7 100160 99723.7 100160 99723.5 100160 99723.4 100160 99723.3
          100160 99723.2 100160 99723.2 100159 99723.1 100159 99723.1 100159 99723 100159 99723
          100159 99723 100159 99723 100159 99723 99360.2 99360.1 99360 99359.9 99359.8 99359.7
          99359.6 99359.5 99359.5 99359.4 99359.4 99359.4 99359.4 99359.3 99359.3 99057.2 99057.1 99057
          99056.9 99056.8 99056.7 99056.6 99056.5 99056.4 99056.4 99056.4 99056.4 99056.3 99056.3 99056.3
          98804.7 98804.7 98804.5 98804.4 98804.3 98804.1 98804.1 98804 98803.9 98803.9 98803.9 98803.8
          98803.8 98803.8 98803.8 98594.4 98594.3 98594.1 98594 98593.8 98593.7 98593.6 98593.5 98593.5
          98593.4 98593.4 98593.4 98593.4 98593.4 98593.4 98419 98419 98418.8 98418.6 98418.5 98418.3
          98418.2 98418.2 98418.1 98418.1 98418.1 98418 98418 98418 98418 98273 98272.9 98272.7
          98272.5 98272.3 98272.2 98272.1 98272 98272 98272 98271.9 98271.9 98271.9 98271.9 98271.9
          98151.2 98151.1 98150.9 98150.7 98150.5 98150.4 98150.3 98150.2 98150.2 98150.2 98150.1 98150.1
          98150.1 98150.1 98150.1 98049.8 98049.7 98049.4 98049.2 98049 98048.9 98048.8 98048.8 98048.7
          98048.7 98048.7 98048.6 98048.6 98048.6 98048.6 97965.3 97965.1 97964.9 97964.6 97964.5 97964.4
          97964.3 97964.2 97964.1 97964.1 97964.1 97964.1 97964.1 97964.1 97964.1 97894.9 97894.7 97894.4
          97894.2 97894 97893.9 97893.8 97893.7 97893.7 97893.6 97893.6 97893.6 97893.6 97893.6 97893.6
          97836.2 97836 97835.7 97835.4 97835.3 97835.1 97835 97835 97834.9 97834.9 97834.9 97834.9
          97834.9 97834.9 97834.9 97787.3 97787 97786.7 97786.5 97786.3 97786.2 97786.1 97786 97786
          97786 97785.9 97785.9 97785.9 97785.9 97785.9 97746.6 97746.3 97746 97745.7 97745.5 97745.4
          97745.3 97745.3 97745.2 97745.2 97745.2 97745.1 97745.1 97745.1 97745.1 97712.6 97712.3 97712
          97711.7 97711.5 97711.4 97711.3 97711.3 97711.2 97711.2 97711.2 97711.2 97711.1 97711.1 97711.1
          100005 100004 100004 100003 100003 100003 100003 100003 100003 100003 100003 100003
          100003 100003 100003 100005 100004 100004 100003 100003 100003 100003 100003 100003
          100003 100003 100003 100003 100003 100003 100005 100004 100004 100003 100003 100003
          100003 100003 100003 100003 100003 100003 100003 100003 100003 100005 100004 100004
          100003 100003 100003 100003 100003 100003 100003 100003 100003 100003 100003 100003
          100005 100004 100003 100003 100003 100003 100003 100003 100003 100003 100003 100003
          100003 100003 100003 100004 100004 100003 100003 100003 100003 100003 100003 100002
          100002 100002 100002 100002 100002 100002 100004 100004 100003 100003 100003 100003
          100002 100002 100002 100002 100002 100002 100002 100002 100002 100004 100003 100003
          100003 100003 100002 100002 100002 100002 100002 100002 100002 100002 100002 100002
          100004 100003 100003 100003 100002 100002 100002 100002 100002 100002 100002 100002
          100002 100002 100002 100004 100003 100003 100002 100002 100002 100002 100002 100002
          100002 100002 100002 100002 100002 100002 100003 100003 100002 100002 100002 100002
          100002 100002 100002 100002 100002 100002 100002 100002 100002 100003 100002 100002
          100002 100002 100001 100001 100001 100001 100001 100001 100001 100001 100001 100001
          100002 100002 100001 100001 100001 100001 100001 100001 100001 100001 100001 100001
          100001 100001 100001 100001 100001 100001 100001 100001 100001 100001 100001 100001
          100001 100001 100001 100001 100000 100000 100000 100000 100000 100000 100000 100000
          100000 100000 100000 100000 100000 100000 100000 100000 100000
        </DataArray>
        <DataArray type="Float32" Name="p_n" NumberOfComponents="1" format="ascii">
          102451 102451 102015 102015 102451 102014 102451 102014 102451 102014 102450 102014
          102450 102014 102450 102014 102450 102014 102450 102014 102450 102014 102450 102014
          102450 102014 102450 102014 102450 102014 101651 101651 101651 101651 101651 101651
          101650 101650 101650 101650 101650 101650 101650 101650 101650 101348 101348 101348
          101348 101348 101347 101347 101347 101347 101347 101347 101347 101347 101347 101347
          101096 101096 101095 101095 101095 101095 101095 101095 101095 101095 101095 101095
          101095 101095 101095 100885 100885 100885 100885 100885 100885 100884 100884 100884
          100884 100884 100884 100884 100884 100884 100710 100710 100710 100709 100709 100709
          100709 100709 100709 100709 100709 100709 100709 100709 100709 100564 100564 100564
          100563 100563 100563 100563 100563 100563 100563 100563 100563 100563 100563 100563
          100442 100442 100442 100442 100441 100441 100441 100441 100441 100441 100441 100441
          100441 100441 100441 100341 100340 100340 100340 100340 100340 100340 100340 100340
          100340 100339 100339 100339 100339 100339 100256 100256 100256 100255 100255 100255
          100255 100255 100255 100255 100255 100255 100255 100255 100255 100186 100186 100185
          100185 100185 100185 100185 100185 100185 100184 100184 100184 100184 100184 100184
          100127 100127 100127 100126 100126 100126 100126 100126 100126 100126 100126 100126
          100126 100126 100126 100078 100078 100078 100077 100077 100077 100077 100077 100077
          100077 100077 100077 100077 100077 100077 100037 100037 100037 100037 100036 100036
          100036 100036 100036 100036 100036 100036 100036 100036 100036 100005 100004 100004
          100003 100003 100003 100003 100003 100003 100003 100003 100003 100003 100003 100003
          100005 100004 100004 100003 100003 100003 100003 100003 100003 100003 100003 100003
          100003 100003 100003 100005 100004 100004 100003 100003 100003 100003 100003 100003
          100003 100003 100003 100003 100003 100003 100005 100004 100004 100003 100003 100003
          100003 100003 100003 100003 100003 100003 100003 100003 100003 100005 100004 100004
          100003 100003 100003 100003 100003 100003 100003 100003 100003 100003 100003 100003
          100005 100004 100003 100003 100003 100003 100003 100003 100003 100003 100003 100003
          100003 100003 100003 100004 100004 100003 100003 100003 100003 100003 100003 100002
          100002 100002 100002 100002 100002 100002 100004 100004 100003 100003 100003 100003
          100002 100002 100002 100002 100002 100002 100002 100002 100002 100004 100003 100003
          100003 100003 100002 100002 100002 100002 100002 100002 100002 100002 100002 100002
          100004 100003 100003 100003 100002 100002 100002 100002 100002 100002 100002 100002
          100002 100002 100002 100004 100003 100003 100002 100002 100002 100002 100002 100002
          100002 100002 100002 100002 100002 100002 100003 100003 100002 100002 100002 100002
          100002 100002 100002 100002 100002 100002 100002 100002 100002 100003 100002 100002
          100002 100002 100001 100001 100001 100001 100001 100001 100001 100001 100001 100001
          100002 100002 100001 100001 100001 100001 100001 100001 100001 100001 100001 100001
          100001 100001 100001 100001 100001 100001 100001 100001 100001 100001 100001 100001
          100001 100001 100001 100001 100000 100000 100000 100000 100000 100000 100000 100000
          100000 100000 100000 100000 100000 100000 100000 100000 100000
        </DataArray>
        <DataArray type="Float32" Name="rho_w" NumberOfComponents="1" format="ascii">
          998.232 998.232 998.232 998.232 998.232 998.232 998.232 998.232 998.232 998.232 998.232 998.232
          998.232 998.232 998.232 998.232 998.232 998.232 998.232 998.232 998.232 998.232 998.232 998.232
          998.232 998.232 998.232 998.232 998.232 998.232 998.232 998.232 998.232 998.232 998.232 998.232
          998.232 998.232 998.232 998.232 998.232 998.232 998.232 998.232 998.232 998.232 998.232 998.232
          998.232 998.232 998.232 998.232 998.232 998.232 998.232 998.232 998.232 998.232 998.232 998.232
          998.232 998.232 998.232 998.232 998.232 998.232 998.232 998.232 998.232 998.232 998.232 998.232
          998.232 998.232 998.232 998.232 998.232 998.232 998.232 998.232 998.232 998.232 998.232 998.232
          998.232 998.232 998.232 998.232 998.232 998.232 998.232 998.232 998.232 998.232 998.232 998.232
          998.232 998.232 998.232 998.232 998.232 998.232 998.232 998.232 998.232 998.232 998.232 998.232
          998.232 998.232 998.232 998.232 998.232 998.232 998.232 998.232 998.232 998.232 998.232 998.232
          998.232 998.232 998.232 998.232 998.232 998.232 998.232 998.232 998.232 998.232 998.232 998.232
          998.232 998.232 998.232 998.232 998.232 998.232 998.232 998.232 998.232 998.232 998.232 998.232
          998.232 998.232 998.232 998.232 998.232 998.232 998.232 998.232 998.232 998.232 998.232 998.232
          998.232 998.232 998.232 998.232 998.232 998.232 998.232 998.232 998.232 998.231 998.231 998.231
          998.231 998.231 998.231 998.231 998.231 998.231 998.231 998.231 998.231 998.231 998.231 998.231
          998.231 998.231 998.231 998.231 998.231 998.231 998.231 998.231 998.231 998.231 998.231 998.231
          998.231 998.231 998.231 998.231 998.232 998.232 998.232 998.232 998.232 998.232 998.232 998.232
          998.232 998.232 998.232 998.232 998.232 998.231 998.231 998.233 998.233 998.233 998.233 998.232
          998.232 998.232 998.232 998.232 998.232 998.232 998.232 998.232 998.231 998.231 998.239 998.239
          998.238 998.238 998.237 998.237 998.236 998.236 998.236 998.236 998.236 998.236 998.236 998.231
          998.233 998.233 998.233 998.233 998.233 998.233 998.233 998.233 998.233 998.233 998.233 998.233
          998.233 998.233 998.232 998.232 998.232 998.232 998.232 998.232 998.232 998.232 998.232 998.232
          998.232 998.232 998.232 998.232 998.232 998.232 998.232 998.232 998.232 998.232 998.232 998.232
          998.232 998.232 998.232 998.232 998.232 998.232 998.232 998.232 998.232 998.232 998.232 998.232
          998.232 998.232 998.232 998.232 998.232 998.232 998.232 998.232 998.232 998.232 998.232 998.232
          998.232 998.232 998.232 998.232 998.232 998.232 998.232 998.232 998.232 998.232 998.232 998.232
          998.232 998.232 998.232 998.232 998.232 998.232 998.232 998.232 998.232 998.232 998.232 998.232
          998.232 998.232 998.232 998.232 998.232 998.232 998.232 998.232 998.232 998.232 998.232 998.232
          998.232 998.232 998.232 998.232 998.232 998.232 998.232 998.232 998.232 998.232 998.232 998.232
          998.232 998.232 998.232 998.232 998.232 998.232 998.232 998.232 998.232 998.232 998.232 998.232
          998.232 998.232 998.232 998.232 998.232 998.232 998.232 998.232 998.232 998.232 998.232 998.232
          998.232 998.232 998.232 998.232 998.232 998.232 998.232 998.232 998.232 998.232 998.232 998.232
          998.232 998.232 998.232 998.232 998.232 998.232 998.232 998.232 998.232 998.232 998.232 998.232
          998.232 998.232 998.232 998.232 998.232 998.232 998.232 998.232 998.232 998.232 998.232 998.232
          998.232 998.232 998.232 998.232 998.232 998.232 998.232 998.232 998.232 998.232 998.232 998.232
          998.232 998.232 998.232 998.232 998.232 998.232 998.232 998.232 998.232 998.232 998.232 998.232
          998.232 998.232 998.232 998.232 998.232 998.232 998.232 998.232 998.232 998.232 998.232 998.232
          998.232 998.232 998.232 998.232 998.232 998.232 998.232 998.232 998.232 998.232 998.232 998.232
          998.232 998.232 998.232 998.232 998.232 998.232 998.232 998.232 998.232
        </DataArray>
        <DataArray type="Float32" Name="rho_n" NumberOfComponents="1" format="ascii">
          1.16857 1.16857 1.16355 1.16355 1.16857 1.16355 1.16857 1.16355 1.16856 1.16355 1.16856 1.16355
          1.16856 1.16354 1.16856 1.16354 1.16856 1.16354 1.16856 1.16354 1.16856 1.16354 1.16856 1.16354
          1.16856 1.16354 1.16856 1.16354 1.16856 1.16354 1.15937 1.15937 1.15937 1.15937 1.15937 1.15936
          1.15936 1.15936 1.15936 1.15936 1.15936 1.15936 1.15936 1.15936 1.15936 1.15589 1.15589 1.15588
          1.15588 1.15588 1.15588 1.15588 1.15588 1.15588 1.15588 1.15588 1.15588 1.15588 1.15588 1.15588
          1.15298 1.15298 1.15298 1.15298 1.15298 1.15298 1.15298 1.15297 1.15297 1.15297 1.15297 1.15297
          1.15297 1.15297 1.15297 1.15056 1.15056 1.15056 1.15056 1.15056 1.15056 1.15056 1.15055 1.15055
          1.15055 1.15055 1.15055 1.15055 1.15055 1.15055 1.14855 1.14855 1.14855 1.14854 1.14854 1.14854
          1.14854 1.14854 1.14854 1.14854 1.14854 1.14854 1.14854 1.14854 1.14854 1.14687 1.14687 1.14686
          1.14686 1.14686 1.14686 1.14686 1.14686 1.14686 1.14686 1.14686 1.14686 1.14686 1.14686 1.14686
          1.14547 1.14547 1.14546 1.14546 1.14546 1.14546 1.14546 1.14546 1.14546 1.14546 1.14546 1.14546
          1.14546 1.14546 1.14546 1.1443 1.1443 1.1443 1.1443 1.14429 1.14429 1.14429 1.14429 1.14429
          1.14429 1.14429 1.14429 1.14429 1.14429 1.14429 1.14333 1.14333 1.14333 1.14332 1.14332 1.14332
          1.14332 1.14332 1.14332 1.14332 1.14332 1.14332 1.14332 1.14332 1.14332 1.14252 1.14252 1.14252
          1.14251 1.14251 1.14251 1.14251 1.14251 1.14251 1.14251 1.14251 1.14251 1.14251 1.14251 1.14251
          1.14185 1.14184 1.14184 1.14184 1.14184 1.14183 1.14183 1.14183 1.14183 1.14183 1.14183 1.14183
          1.14183 1.14183 1.14183 1.14128 1.14128 1.14128 1.14128 1.14128 1.14127 1.14127 1.14127 1.14127
          1.14127 1.14127 1.14127 1.14127 1.14127 1.14127 1.14082 1.14084 1.14084 1.14083 1.14083 1.14083
          1.14082 1.14082 1.14082 1.14082 1.14082 1.14082 1.14082 1.14082 1.1408 1.14473 1.14531 1.14521
          1.14498 1.14464 1.14425 1.14381 1.1434 1.14311 1.14299 1.143 1.14306 1.14311 1.14315 1.14299
          1.15101 1.15444 1.15785 1.16146 1.1653 1.16928 1.17322 1.17661 1.17854 1.17869 1.17782 1.17686
          1.17618 1.17576 1.17551 1.14944 1.15112 1.15372 1.15716 1.16136 1.16612 1.17104 1.17533 1.17793
          1.17845 1.17776 1.17689 1.17628 1.17589 1.1757 1.14912 1.14987 1.15146 1.15402 1.15759 1.16215
          1.16736 1.17233 1.17567 1.17668 1.17618 1.17535 1.17474 1.17435 1.17413 1.14904 1.14939 1.15033
          1.15209 1.15486 1.15873 1.16357 1.16856 1.17217 1.17338 1.17285 1.17185 1.17104 1.17048 1.17013
          1.14902 1.14918 1.14974 1.15093 1.15299 1.15611 1.16027 1.16479 1.16809 1.16901 1.16809 1.16666
          1.16546 1.16458 1.16401 1.14901 1.14909 1.14942 1.15023 1.15174 1.15418 1.1576 1.16142 1.16405
          1.16433 1.16281 1.16088 1.15933 1.1582 1.15753 1.14901 1.14905 1.14925 1.14979 1.15089 1.15278
          1.15553 1.1586 1.16047 1.16005 1.15805 1.1559 1.15431 1.15324 1.15267 1.14901 1.14902 1.14914
          1.14952 1.15032 1.15177 1.15395 1.15634 1.15752 1.15661 1.15447 1.1525 1.15123 1.15048 1.15015
          1.149 1.14901 1.14908 1.14934 1.14993 1.15105 1.15276 1.15458 1.15523 1.15408 1.15212 1.15059
          1.14977 1.14939 1.14924 1.149 1.149 1.14905 1.14922 1.14966 1.15053 1.15187 1.15324 1.15351
          1.15232 1.15071 1.14967 1.14922 1.14906 1.14902 1.149 1.14899 1.14902 1.14915 1.14948 1.15016
          1.15122 1.15222 1.15223 1.15112 1.14991 1.14926 1.14904 1.14899 1.14898 1.14899 1.14899 1.14901
          1.1491 1.14936 1.1499 1.15074 1.15146 1.15128 1.15032 1.14946 1.14909 1.14899 1.14897 1.14897
          1.14898 1.14898 1.14899 1.14907 1.14928 1.14973 1.15041 1.15088 1.15056 1.14976 1.1492 1.14901
          1.14897 1.14896 1.14896 1.14897 1.14897 1.14898 1.14904 1.14923 1.14962 1.15016 1.15041 1.14998
          1.14937 1.14905 1.14897 1.14896 1.14896 1.14896 1.14896 1.14896 1.14896 1.14896 1.14896 1.14896
          1.14896 1.14896 1.14896 1.14896 1.14896 1.14896 1.14896 1.14896 1.14896
        </DataArray>
        <DataArray type="Float32" Name="lambda_w" NumberOfComponents="1" format="ascii">
          990.751 990.751 990.734 990.735 990.751 990.735 990.75 990.735 990.75 990.735 990.75 990.735
          990.75 990.735 990.75 990.735 990.75 990.735 990.75 990.735 990.75 990.735 990.75 990.735
          990.75 990.735 990.75 990.735 990.75 990.734 990.721 990.721 990.721 990.721 990.721 990.721
          990.721 990.721 990.721 990.721 990.721 990.721 990.721 990.721 990.721 990.71 990.71 990.71
          990.71 990.71 990.71 990.71 990.71 990.71 990.71 990.71 990.71 990.71 990.71 990.71
          990.7 990.7 990.7 990.7 990.7 990.7 990.7 990.7 990.7 990.7 990.7 990.7
          990.7 990.7 990.7 990.692 990.692 990.692 990.692 990.692 990.692 990.692 990.692 990.692
          990.692 990.692 990.692 990.692 990.692 990.692 990.685 990.686 990.686 990.686 990.686 990.686
          990.686 990.686 990.686 990.686 990.686 990.686 990.686 990.686 990.685 990.68 990.68 990.68
          990.68 990.68 990.68 990.68 990.68 990.68 990.68 990.68 990.68 990.68 990.68 990.68
          990.675 990.675 990.675 990.675 990.675 990.675 990.675 990.675 990.675 990.675 990.675 990.675
          990.675 990.675 990.675 990.671 990.672 990.672 990.671 990.671 990.671 990.671 990.671 990.671
          990.671 990.671 990.671 990.671 990.671 990.671 990.668 990.668 990.668 990.668 990.668 990.668
          990.668 990.668 990.668 990.668 990.668 990.668 990.668 990.668 990.668 990.665 990.665 990.665
          990.665 990.665 990.665 990.665 990.665 990.665 990.665 990.665 990.665 990.665 990.665 990.665
          990.663 990.662 990.662 990.662 990.662 990.662 990.662 990.662 990.662 990.662 990.662 990.662
          990.662 990.663 990.663 990.661 990.646 990.644 990.645 990.646 990.646 990.647 990.648 990.648
          990.648 990.648 990.648 990.648 990.65 990.661 990.66 990.503 990.498 990.509 990.519 990.528
          990.536 990.541 990.543 990.543 990.543 990.542 990.54 990.551 990.66 984.255 984.999 985.859
          986.214 986.371 986.442 986.475 986.483 986.468 986.436 986.399 986.369 986.349 986.325 986.936
          5.74706e-13 5.74686e-13 5.74685e-13 5.74687e-13 5.74689e-13 5.7469e-13 5.74691e-13 5.74692e-13 5.74693e-13 5.74693e-13 5.74692e-13 5.74692e-13
          5.74692e-13 5.74694e-13 5.74708e-13 5.74711e-13 5.74711e-13 5.74711e-13 5.74711e-13 5.74711e-13 5.74711e-13 5.74711e-13 5.74711e-13 5.74711e-13
          5.74711e-13 5.74711e-13 5.74711e-13 5.74711e-13 5.74711e-13 5.74711e-13 5.74711e-13 5.74711e-13 5.74711e-13 5.74711e-13 5.74711e-13 5.74711e-13
          5.74711e-13 5.74711e-13 5.74711e-13 5.74711e-13 5.74711e-13 5.74711e-13 5.74711e-13 5.74711e-13 5.74711e-13 5.74711e-13 5.74711e-13 5.74711e-13
          5.74711e-13 5.74711e-13 5.74711e-13 5.74711e-13 5.74711e-13 5.74711e-13 5.74711e-13 5.74711e-13 5.74711e-13 5.74711e-13 5.74711e-13 5.74711e-13
          5.74711e-13 5.74711e-13 5.74711e-13 5.74711e-13 5.74711e-13 5.74711e-13 5.74711e-13 5.74711e-13 5.74711e-13 5.74711e-13 5.74711e-13 5.74711e-13
          5.74711e-13 5.74711e-13 5.74711e-13 5.74711e-13 5.74711e-13 5.74711e-13 5.74711e-13 5.74711e-13 5.74711e-13 5.74711e-13 5.74711e-13 5.74711e-13
          5.74711e-13 5.74711e-13 5.74711e-13 5.74711e-13 5.74711e-13 5.74711e-13 5.74711e-13 5.74711e-13 5.74711e-13 5.74711e-13 5.74711e-13 5.74711e-13
          5.74711e-13 5.74711e-13 5.74711e-13 5.74711e-13 5.74711e-13 5.74711e-13 5.74711e-13 5.74711e-13 5.74711e-13 5.74711e-13 5.74711e-13 5.74711e-13
          5.74711e-13 5.74711e-13 5.74711e-13 5.74711e-13 5.74711e-13 5.74711e-13 5.74711e-13 5.74711e-13 5.74711e-13 5.74711e-13 5.74711e-13 5.74711e-13
          5.74711e-13 5.74711e-13 5.74711e-13 5.74711e-13 5.74711e-13 5.74711e-13 5.74711e-13 5.74711e-13 5.74711e-13 5.74711e-13 5.74711e-13 5.74711e-13
          5.74711e-13 5.74711e-13 5.74711e-13 5.74711e-13 5.74711e-13 5.74711e-13 5.74711e-13 5.74711e-13 5.74711e-13 5.74711e-13 5.74711e-13 5.74711e-13
          5.74711e-13 5.74711e-13 5.74711e-13 5.74711e-13 5.74711e-13 5.74711e-13 5.74711e-13 5.74711e-13 5.74711e-13 5.74711e-13 5.74711e-13 5.74711e-13
          5.74711e-13 5.74711e-13 5.74711e-13 5.74711e-13 5.74711e-13 5.74711e-13 5.74711e-13 5.74711e-13 5.74711e-13 5.74711e-13 5.74711e-13 5.74711e-13
          5.74711e-13 5.74711e-13 5.74711e-13 5.74711e-13 5.74711e-13 5.74711e-13 5.74711e-13 5.74711e-13 5.74711e-13 5.74711e-13 5.74711e-13 5.74711e-13
          5.74711e-13 5.74711e-13 5.74711e-13 5.74711e-13 5.74711e-13 5.74711e-13 5.74711e-13 5.74711e-13 5.74711e-13 5.74711e-13 5.74711e-13 5.74711e-13