<?xml version="1.0"?>
<VTKFile type="PolyData" version="0.1" byte_order="LittleEndian">
  <PolyData>
    <Piece NumberOfLines="1600" NumberOfPoints="1601">
      <PointData Scalars="p">
        <DataArray type="Float32" Name="p" NumberOfComponents="1" format="ascii">
          100000 100188 100374 100557 100739 100918 101095 101271 101444 101616 101786 101954
          102120 102285 102448 102609 102769 102927 103083 103238 103391 103543 103694 103843
          103991 104137 104282 104426 104569 104710 104850 104989 105126 105262 105398 105532
          105665 105797 105927 106057 106186 106313 106440 106565 106690 106814 106936 107058
          107179 107299 107418 107536 107653 107770 107885 108000 108114 108227 108339 108451
          108562 108672 108781 108889 108997 109104 109211 109316 109421 109525 109629 109732
          109834 109935 110036 110137 110236 110335 110434 110532 110629 110725 110821 110917
          111012 111106 111200 111293 111386 111478 111570 111661 111751 111841 111931 112020
          112109 112197 112284 112371 112458 112544 112630 112715 112800 112884 112968 113052
          113135 113217 113299 113381 113462 113543 113624 113704 113784 113863 113942 114020
          114098 114176 114254 114331 114407 114483 114559 114635 114710 114785 114859 114933
          115007 115081 115154 115227 115299 115371 115443 115514 115585 115656 115727 115797
          115867 115936 116006 116075 116143 116212 116280 116348 116415 116482 116549 116616
          116683 116749 116814 116880 116945 117010 117075 117140 117204 117268 117332 117395
          117458 117521 117584 117647 117709 117771 117833 117894 117955 118016 118077 118138
          118198 118258 118318 118378 118437 118497 118556 118614 118673 118731 118789 118847
          118905 118963 119020 119077 119134 119191 119247 119303 119359 119415 119471 119527
          119582 119637 119692 119747 119801 119856 119910 119964 120018 120071 120125 120178
          120231 120284 120337 120389 120442 120494 120546 120598 120650 120701 120753 120804
          120855 120906 120957 121007 121058 121108 121158 121208 121258 121307 121357 121406
          121455 121504 121553 121602 121650 121699 121747 121795 121843 121891 121939 121986
          122034 122081 122128 122175 122222 122269 122315 122362 122408 122454 122500 122546
          122592 122637 122683 122728 122774 122819 122864 122909 122953 122998 123042 123087
          123131 123175 123219 123263 123307 123350 123394 123437 123481 123524 123567 123610
          123653 123695 123738 123780 123823 123865 123907 123949 123991 124033 124075 124116
          124158 124199 124240 124281 124322 124363 124404 124445 124486 124526 124567 124607
          124647 124687 124727 124767 124807 124847 124886 124926 124965 125005 125044 125083
          125122 125161 125200 125239 125277 125316 125354 125393 125431 125469 125507 125545
          125583 125621 125659 125696 125734 125771 125809 125846 125883 125920 125957 125994
          126031 126068 126105 126141 126178 126214 126251 126287 126323 126359 126395 126431
          126467 126503 126539 126574 126610 126645 126681 126716 126751 126786 126821 126856
          126891 126926 126961 126996 127030 127065 127099 127134 127168 127202 127236 127271
          127305 127339 127372 127406 127440 127474 127507 127541 127574 127608 127641 127674
          127707 127740 127773 127806 127839 127872 127905 127938 127970 128003 128035 128068
          128100 128132 128165 128197 128229 128261 128293 128325 128357 128389 128420 128452
          128484 128515 128547 128578 128609 128641 128672 128703 128734 128765 128796 128827
          128858 128889 128919 128950 128981 129011 129042 129072 129103 129133 129163 129193
          129224 129254 129284 129314 129344 129374 129403 129433 129463 129492 129522 129552
          129581 129611 129640 129669 129699 129728 129757 129786 129815 129844 129873 129902
          129931 129960 129988 130017 130046 130074 130103 130131 130160 130188 130216 130245
          130273 130301 130329 130357 130385 130413 130441 130469 130497 130525 130553 130580
          130608 130636 130663 130691 130718 130745 130773 130800 130827 130855 130882 130909
          130936 130963 130990 131017 131044 131071 131097 131124 131151 131178 131204 131231
          131257 131284 131310 131337 131363 131389 131416 131442 131468 131494 131520 131546
          131572 131598 131624 131650 131676 131702 131728 131753 131779 131805 131830 131856
          131881 131907 131932 131958 131983 132008 132034 132059 132084 132109 132134 132159
          132184 132209 132234 132259 132284 132309 132334 132359 132383 132408 132433 132457
          132482 132506 132531 132555 132580 132604 132628 132653 132677 132701 132725 132750
          132774 132798 132822 132846 132870 132894 132918 132942 132965 132989 133013 133037
          133060 133084 133108 133131 133155 133178 133202 133225 133249 133272 133295 133319
          133342 133365 133389 133412 133435 133458 133481 133504 133527 133550 133573 133596
          133619 133642 133664 133687 133710 133733 133755 133778 133801 133823 133846 133868
          133891 133913 133936 133958 133980 134003 134025 134047 134070 134092 134114 134136
          134158 134180 134202 134224 134246 134268 134290 134312 134334 134356 134378 134399
          134421 134443 134465 134486 134508 134530 134551 134573 134594 134616 134637 134658
          134680 134701 134723 134744 134765 134786 134808 134829 134850 134871 134892 134913
          134934 134956 134977 134998 135018 135039 135060 135081 135102 135123 135144 135164
          135185 135206 135226 135247 135268 135288 135309 135329 135350 135370 135391 135411
          135432 135452 135472 135493 135513 135533 135554 135574 135594 135614 135634 135655
          135675 135695 135715 135735 135755 135775 135795 135815 135835 135854 135874 135894
          135914 135934 135953 135973 135993 136013 136032 136052 136071 136091 136111 136130
          136150 136169 136189 136208 136227 136247 136266 136286 136305 136324 136343 136363
          136382 136401 136420 136440 136459 136478 136497 136516 136535 136554 136573 136592
          136611 136630 136649 136668 136686 136705 136724 136743 136762 136780 136799 136818
          136837 136855 136874 136893 136911 136930 136948 136967 136985 137004 137022 137041
          137059 137078 137096 137114 137133 137151 137169 137188 137206 137224 137242 137260
          137279 137297 137315 137333 137351 137369 137387 137405 137423 137441 137459 137477
          137495 137513 137531 137549 137567 137584 137602 137620 137638 137656 137673 137691
          137709 137726 137744 137762 137779 137797 137814 137832 137850 137867 137885 137902
          137919 137937 137954 137972 137989 138006 138024 138041 138058 138076 138093 138110
          138127 138145 138162 138179 138196 138213 138230 138248 138265 138282 138299 138316
          138333 138350 138367 138384 138401 138418 138434 138451 138468 138485 138502 138519
          138535 138552 138569 138586 138602 138619 138636 138653 138669 138686 138702 138719
          138736 138752 138769 138785 138802 138818 138835 138851 138868 138884 138901 138917
          138933 138950 138966 138982 138999 139015 139031 139047 139064 139080 139096 139112
          139129 139145 139161 139177 139193 139209 139225 139241 139257 139273 139289 139305
          139321 139337 139353 139369 139385 139401 139417 139433 139449 139465 139480 139496
          139512 139528 139544 139559 139575 139591 139606 139622 139638 139653 139669 139685
          139700 139716 139731 139747 139763 139778 139794 139809 139825 139840 139856 139871
          139886 139902 139917 139933 139948 139963 139979 139994 140009 140025 140040 140055
          140070 140086 140101 140116 140131 140146 140162 140177 140192 140207 140222 140237
          140252 140267 140282 140297 140312 140327 140342 140357 140372 140387 140402 140417
          140432 140447 140462 140477 140492 140506 140521 140536 140551 140566 140580 140595
          140610 140625 140639 140654 140669 140683 140698 140713 140727 140742 140756 140771
          140786 140800 140815 140829 140844 140858 140873 140887 140902 140916 140931 140945
          140960 140974 140988 141003 141017 141031 141046 141060 141074 141089 141103 141117
          141132 141146 141160 141174 141189 141203 141217 141231 141245 141259 141274 141288
          141302 141316 141330 141344 141358 141372 141386 141400 141414 141428 141442 141456
          141470 141484 141498 141512 141526 141540 141554 141568 141581 141595 141609 141623
          141637 141651 141664 141678 141692 141706 141719 141733 141747 141761 141774 141788
          141802 141815 141829 141843 141856 141870 141884 141897 141911 141924 141938 141951
          141965 141978 141992 142005 142019 142032 142046 142059 142073 142086 142100 142113
          142126 142140 142153 142167 142180 142193 142207 142220 142233 142247 142260 142273
          142286 142300 142313 142326 142339 142353 142366 142379 142392 142405 142418 142432
          142445 142458 142471 142484 142497 142510 142523 142536 142549 142562 142575 142588
          142602 142614 142627 142640 142653 142666 142679 142692 142705 142718 142731 142744
          142757 142770 142782 142795 142808 142821 142834 142847 142859 142872 142885 142898
          142910 142923 142936 142949 142961 142974 142987 143000 143012 143025 143037 143050
          143063 143075 143088 143101 143113 143126 143138 143151 143163 143176 143189 143201
          143214 143226 143239 143251 143264 143276 143288 143301 143313 143326 143338 143351
          143363 143375 143388 143400 143413 143425 143437 143450 143462 143474 143486 143499
          143511 143523 143536 143548 143560 143572 143585 143597 143609 143621 143633 143646
          143658 143670 143682 143694 143706 143718 143731 143743 143755 143767 143779 143791
          143803 143815 143827 143839 143851 143863 143875 143887 143899 143911 143923 143935
          143947 143959 143971 143983 143995 144007 144019 144030 144042 144054 144066 144078
          144090 144102 144113 144125 144137 144149 144161 144172 144184 144196 144208 144219
          144231 144243 144255 144266 144278 144290 144301 144313 144325 144336 144348 144360
          144371 144383 144395 144406 144418 144429 144441 144453 144464 144476 144487 144499
          144510 144522 144533 144545 144556 144568 144579 144591 144602 144614 144625 144637
          144648 144660 144671 144682 144694 144705 144717 144728 144739 144751 144762 144773
          144785 144796 144807 144819 144830 144841 144853 144864 144875 144886 144898 144909
          144920 144931 144943 144954 144965 144976 144987 144999 145010 145021 145032 145043
          145054 145066 145077 145088 145099 145110 145121 145132 145143 145154 145166 145177
          145188 145199 145210 145221 145232 145243 145254 145265 145276 145287 145298 145309
          145320 145331 145342 145353 145364 145374 145385 145396 145407 145418 145429 145440
          145451 145462 145472 145483 145494 145505 145516 145527 145537 145548 145559 145570
          145581 145591 145602 145613 145624 145634 145645 145656 145667 145677 145688 145699
          145709 145720 145731 145742 145752 145763 145773 145784 145795 145805 145816 145827
          145837 145848 145858 145869 145880 145890 145901 145911 145922 145932 145943 145954
          145964 145975 145985 145996 146006 146017 146027 146038 146048 146059 146069 146079
          146090 146100 146111 146121 146132 146142 146152 146163 146173 146184 146194 146204
          146215 146225 146235 146246 146256 146266 146277 146287 146297 146308 146318 146328
          146339 146349 146359 146369 146380 146390 146400 146410 146421 146431 146441 146451
          146461 146472 146482 146492 146502 146512 146522 146533 146543 146553 146563 146573
          146583 146593 146604 146614 146624 146634 146644 146654 146664 146674 146684 146694
          146704 146714 146724 146734 146744 146755 146765 146775 146785 146795 146804 146814
          146824 146834 146844 146854 146864 146874 146884 146894 146904 146914 146924 146934
          146944 146954 146963 146973 146983 146993 147003 147013 147023 147032 147042 147052
          147062 147072 147082 147091 147101 147111 147121 147131 147140 147150 147160 147170
          147179 147189 147199 147209 147218 147228 147238 147248 147257 147267 147277 147286
          147296 147306 147315 147325 147335 147344 147354 147364 147373 147383 147393 147402
          147412 147421 147431 147441 147450 147460 147469 147479 147488 147498 147508 147517
          147527 147536 147546 147555 147565 147574 147584 147593 147603 147612 147622 147631
          147641 147650 147660 147669 147679
        </DataArray>
        <DataArray type="Float32" Name="pExact" NumberOfComponents="1" format="ascii">
          100000 100188 100374 100557 100739 100918 101095 101271 101444 101616 101786 101954
          102120 102285 102448 102609 102769 102927 103083 103238 103391 103543 103694 103843
          103991 104137 104282 104426 104569 104710 104850 104989 105126 105262 105398 105532
          105665 105797 105927 106057 106186 106313 106440 106566 106690 106814 106936 107058
          107179 107299 107418 107536 107653 107770 107885 108000 108114 108227 108340 108451
          108562 108672 108781 108890 108997 109104 109211 109316 109421 109525 109629 109732
          109834 109936 110036 110137 110236 110335 110434 110532 110629 110725 110822 110917
          111012 111106 111200 111293 111386 111478 111570 111661 111751 111841 111931 112020
          112109 112197 112284 112371 112458 112544 112630 112715 112800 112884 112968 113052
          113135 113217 113299 113381 113462 113543 113624 113704 113784 113863 113942 114020
          114098 114176 114254 114331 114407 114483 114559 114635 114710 114785 114859 114933
          115007 115081 115154 115227 115299 115371 115443 115514 115585 115656 115727 115797
          115867 115937 116006 116075 116143 116212 116280 116348 116415 116483 116549 116616
          116683 116749 116815 116880 116945 117010 117075 117140 117204 117268 117332 117395
          117458 117521 117584 117647 117709 117771 117833 117894 117955 118016 118077 118138
          118198 118258 118318 118378 118437 118497 118556 118614 118673 118731 118789 118847
          118905 118963 119020 119077 119134 119191 119247 119303 119360 119415 119471 119527
          119582 119637 119692 119747 119801 119856 119910 119964 120018 120071 120125 120178
          120231 120284 120337 120389 120442 120494 120546 120598 120650 120701 120753 120804
          120855 120906 120957 121007 121058 121108 121158 121208 121258 121307 121357 121406
          121455 121504 121553 121602 121650 121699 121747 121795 121843 121891 121939 121986
          122034 122081 122128 122175 122222 122269 122315 122362 122408 122454 122500 122546
          122592 122637 122683 122728 122774 122819 122864 122909 122953 122998 123042 123087
          123131 123175 123219 123263 123307 123350 123394 123437 123481 123524 123567 123610
          123653 123695 123738 123780 123823 123865 123907 123949 123991 124033 124075 124116
          124158 124199 124240 124281 124322 124363 124404 124445 124486 124526 124567 124607
          124647 124687 124727 124767 124807 124847 124886 124926 124965 125005 125044 125083
          125122 125161 125200 125239 125277 125316 125354 125393 125431 125469 125507 125545
          125583 125621 125659 125696 125734 125771 125809 125846 125883 125920 125957 125994
          126031 126068 126105 126141 126178 126214 126251 126287 126323 126359 126395 126431
          126467 126503 126539 126574 126610 126645 126681 126716 126751 126786 126821 126856
          126891 126926 126961 126996 127030 127065 127099 127134 127168 127202 127236 127271
          127305 127339 127372 127406 127440 127474 127507 127541 127574 127608 127641 127674
          127707 127740 127774 127806 127839 127872 127905 127938 127970 128003 128035 128068
          128100 128132 128165 128197 128229 128261 128293 128325 128357 128389 128420 128452
          128484 128515 128547 128578 128609 128641 128672 128703 128734 128765 128796 128827
          128858 128889 128919 128950 128981 129011 129042 129072 129103 129133 129163 129193
          129224 129254 129284 129314 129344 129374 129403 129433 129463 129493 129522 129552
          129581 129611 129640 129669 129699 129728 129757 129786 129815 129844 129873 129902
          129931 129960 129988 130017 130046 130074 130103 130131 130160 130188 130216 130245
          130273 130301 130329 130357 130385 130413 130441 130469 130497 130525 130553 130580
          130608 130636 130663 130691 130718 130745 130773 130800 130827 130855 130882 130909
          130936 130963 130990 131017 131044 131071 131098 131124 131151 131178 131204 131231
          131257 131284 131310 131337 131363 131389 131416 131442 131468 131494 131520 131546
          131572 131598 131624 131650 131676 131702 131728 131753 131779 131805 131830 131856
          131881 131907 131932 131958 131983 132008 132034 132059 132084 132109 132134 132159
          132184 132209 132234 132259 132284 132309 132334 132359 132383 132408 132433 132457
          132482 132506 132531 132555 132580 132604 132628 132653 132677 132701 132726 132750
          132774 132798 132822 132846 132870 132894 132918 132942 132966 132989 133013 133037
          133060 133084 133108 133131 133155 133178 133202 133225 133249 133272 133296 133319
          133342 133365 133389 133412 133435 133458 133481 133504 133527 133550 133573 133596
          133619 133642 133664 133687 133710 133733 133755 133778 133801 133823 133846 133868
          133891 133913 133936 133958 133980 134003 134025 134047 134070 134092 134114 134136
          134158 134180 134202 134224 134246 134268 134290 134312 134334 134356 134378 134399
          134421 134443 134465 134486 134508 134530 134551 134573 134594 134616 134637 134659
          134680 134701 134723 134744 134765 134786 134808 134829 134850 134871 134892 134913
          134935 134956 134977 134998 135018 135039 135060 135081 135102 135123 135144 135164
          135185 135206 135226 135247 135268 135288 135309 135329 135350 135370 135391 135411
          135432 135452 135473 135493 135513 135533 135554 135574 135594 135614 135634 135655
          135675 135695 135715 135735 135755 135775 135795 135815 135835 135854 135874 135894
          135914 135934 135954 135973 135993 136013 136032 136052 136072 136091 136111 136130
          136150 136169 136189 136208 136228 136247 136266 136286 136305 136324 136344 136363
          136382 136401 136420 136440 136459 136478 136497 136516 136535 136554 136573 136592
          136611 136630 136649 136668 136687 136705 136724 136743 136762 136780 136799 136818
          136837 136855 136874 136893 136911 136930 136948 136967 136985 137004 137022 137041
          137059 137078 137096 137114 137133 137151 137169 137188 137206 137224 137242 137260
          137279 137297 137315 137333 137351 137369 137387 137405 137423 137441 137459 137477
          137495 137513 137531 137549 137567 137584 137602 137620 137638 137656 137673 137691
          137709 137726 137744 137762 137779 137797 137814 137832 137850 137867 137885 137902
          137919 137937 137954 137972 137989 138006 138024 138041 138058 138076 138093 138110
          138127 138145 138162 138179 138196 138213 138230 138248 138265 138282 138299 138316
          138333 138350 138367 138384 138401 138418 138434 138451 138468 138485 138502 138519
          138536 138552 138569 138586 138602 138619 138636 138653 138669 138686 138702 138719
          138736 138752 138769 138785 138802 138818 138835 138851 138868 138884 138901 138917
          138933 138950 138966 138982 138999 139015 139031 139048 139064 139080 139096 139112
          139129 139145 139161 139177 139193 139209 139225 139241 139257 139273 139289 139305
          139321 139337 139353 139369 139385 139401 139417 139433 139449 139465 139480 139496
          139512 139528 139544 139559 139575 139591 139606 139622 139638 139653 139669 139685
          139700 139716 139731 139747 139763 139778 139794 139809 139825 139840 139856 139871
          139886 139902 139917 139933 139948 139963 139979 139994 140009 140025 140040 140055
          140070 140086 140101 140116 140131 140146 140162 140177 140192 140207 140222 140237
          140252 140267 140282 140297 140312 140327 140342 140357 140372 140387 140402 140417
          140432 140447 140462 140477 140492 140506 140521 140536 140551 140566 140580 140595
          140610 140625 140639 140654 140669 140683 140698 140713 140727 140742 140756 140771
          140786 140800 140815 140829 140844 140858 140873 140887 140902 140916 140931 140945
          140960 140974 140988 141003 141017 141031 141046 141060 141074 141089 141103 141117
          141132 141146 141160 141174 141189 141203 141217 141231 141245 141259 141274 141288
          141302 141316 141330 141344 141358 141372 141386 141400 141414 141428 141442 141456
          141470 141484 141498 141512 141526 141540 141554 141568 141581 141595 141609 141623
          141637 141651 141664 141678 141692 141706 141719 141733 141747 141761 141774 141788
          141802 141815 141829 141843 141856 141870 141884 141897 141911 141924 141938 141951
          141965 141978 141992 142005 142019 142032 142046 142059 142073 142086 142100 142113
          142126 142140 142153 142167 142180 142193 142207 142220 142233 142247 142260 142273
          142286 142300 142313 142326 142339 142353 142366 142379 142392 142405 142418 142432
          142445 142458 142471 142484 142497 142510 142523 142536 142549 142562 142575 142588
          142602 142614 142627 142640 142653 142666 142679 142692 142705 142718 142731 142744
          142757 142770 142782 142795 142808 142821 142834 142847 142859 142872 142885 142898
          142910 142923 142936 142949 142961 142974 142987 143000 143012 143025 143038 143050
          143063 143075 143088 143101 143113 143126 143138 143151 143164 143176 143189 143201
          143214 143226 143239 143251 143264 143276 143288 143301 143313 143326 143338 143351
          143363 143375 143388 143400 143413 143425 143437 143450 143462 143474 143486 143499
          143511 143523 143536 143548 143560 143572 143585 143597 143609 143621 143633 143646
          143658 143670 143682 143694 143706 143718 143731 143743 143755 143767 143779 143791
          143803 143815 143827 143839 143851 143863 143875 143887 143899 143911 143923 143935
          143947 143959 143971 143983 143995 144007 144019 144030 144042 144054 144066 144078
          144090 144102 144113 144125 144137 144149 144161 144172 144184 144196 144208 144219
          144231 144243 144255 144266 144278 144290 144301 144313 144325 144336 144348 144360
          144371 144383 144395 144406 144418 144429 144441 144453 144464 144476 144487 144499
          144510 144522 144533 144545 144556 144568 144579 144591 144602 144614 144625 144637
          144648 144660 144671 144682 144694 144705 144717 144728 144739 144751 144762 144773
          144785 144796 144807 144819 144830 144841 144853 144864 144875 144886 144898 144909
          144920 144931 144943 144954 144965 144976 144988 144999 145010 145021 145032 145043
          145054 145066 145077 145088 145099 145110 145121 145132 145143 145154 145166 145177
          145188 145199 145210 145221 145232 145243 145254 145265 145276 145287 145298 145309
          145320 145331 145342 145353 145364 145374 145385 145396 145407 145418 145429 145440
          145451 145462 145472 145483 145494 145505 145516 145527 145537 145548 145559 145570
          145581 145591 145602 145613 145624 145634 145645 145656 145667 145677 145688 145699
          145709 145720 145731 145742 145752 145763 145774 145784 145795 145805 145816 145827
          145837 145848 145858 145869 145880 145890 145901 145911 145922 145932 145943 145954
          145964 145975 145985 145996 146006 146017 146027 146038 146048 146059 146069 146079
          146090 146100 146111 146121 146132 146142 146152 146163 146173 146184 146194 146204
          146215 146225 146235 146246 146256 146266 146277 146287 146297 146308 146318 146328
          146339 146349 146359 146369 146380 146390 146400 146410 146421 146431 146441 146451
          146461 146472 146482 146492 146502 146512 146522 146533 146543 146553 146563 146573
          146583 146593 146604 146614 146624 146634 146644 146654 146664 146674 146684 146694
          146704 146714 146724 146734 146744 146755 146765 146775 146785 146795 146805 146814
          146824 146834 146844 146854 146864 146874 146884 146894 146904 146914 146924 146934
          146944 146954 146963 146973 146983 146993 147003 147013 147023 147032 147042 147052
          147062 147072 147082 147091 147101 147111 147121 147131 147140 147150 147160 147170
          147179 147189 147199 147209 147218 147228 147238 147248 147257 147267 147277 147286
          147296 147306 147315 147325 147335 147344 147354 147364 147373 147383 147393 147402
          147412 147421 147431 147441 147450 147460 147469 147479 147488 147498 147508 147517
          147527 147536 147546 147555 147565 147574 147584 147593 147603 147612 147622 147631
          147641 147650 147660 147669 147679
        </DataArray>
      </PointData>
      <CellData Scalars="velocity_liq (m/s)">
        <DataArray type="Float32" Name="velocity_liq (m/s)" NumberOfComponents="1" format="ascii">
          -0.0316432 -0.031274 -0.0309133 -0.0305609 -0.0302164 -0.0298795 -0.0295501 -0.0292279 -0.0289127 -0.0286041 -0.0283021 -0.0280064
          -0.0277168 -0.0274332 -0.0271553 -0.0268829 -0.026616 -0.0263543 -0.0260977 -0.0258461 -0.0255992 -0.0253571 -0.0251194 -0.0248862
          -0.0246573 -0.0244326 -0.0242119 -0.0239951 -0.0237822 -0.0235731 -0.0233676 -0.0231657 -0.0229672 -0.022772 -0.0225802 -0.0223916
          -0.0222061 -0.0220236 -0.0218442 -0.0216676 -0.0214939 -0.0213229 -0.0211546 -0.0209889 -0.0208259 -0.0206653 -0.0205072 -0.0203515
          -0.0201982 -0.0200471 -0.0198983 -0.0197517 -0.0196072 -0.0194648 -0.0193245 -0.0191862 -0.0190498 -0.0189154 -0.0187828 -0.0186521
          -0.0185233 -0.0183961 -0.0182707 -0.018147 -0.018025 -0.0179046 -0.0177858 -0.0176686 -0.0175529 -0.0174387 -0.017326 -0.0172147
          -0.0171048 -0.0169964 -0.0168893 -0.0167836 -0.0166791 -0.016576 -0.0164741 -0.0163735 -0.0162741 -0.0161759 -0.0160788 -0.015983
          -0.0158882 -0.0157946 -0.0157021 -0.0156106 -0.0155202 -0.0154309 -0.0153426 -0.0152553 -0.0151689 -0.0150836 -0.0149992 -0.0149157
          -0.0148332 -0.0147515 -0.0146708 -0.0145909 -0.0145119 -0.0144338 -0.0143565 -0.01428 -0.0142043 -0.0141295 -0.0140554 -0.0139821
          -0.0139095 -0.0138377 -0.0137666 -0.0136963 -0.0136267 -0.0135577 -0.0134895 -0.013422 -0.0133551 -0.0132889 -0.0132233 -0.0131584
          -0.0130941 -0.0130305 -0.0129675 -0.012905 -0.0128432 -0.012782 -0.0127213 -0.0126612 -0.0126017 -0.0125427 -0.0124843 -0.0124264
          -0.0123691 -0.0123123 -0.012256 -0.0122002 -0.0121449 -0.0120901 -0.0120358 -0.011982 -0.0119287 -0.0118759 -0.0118235 -0.0117716
          -0.0117201 -0.0116691 -0.0116185 -0.0115684 -0.0115186 -0.0114694 -0.0114205 -0.011372 -0.011324 -0.0112764 -0.0112291 -0.0111823
          -0.0111358 -0.0110898 -0.0110441 -0.0109987 -0.0109538 -0.0109092 -0.010865 -0.0108211 -0.0107776 -0.0107345 -0.0106917 -0.0106492
          -0.010607 -0.0105652 -0.0105237 -0.0104826 -0.0104418 -0.0104012 -0.010361 -0.0103211 -0.0102816 -0.0102423 -0.0102033 -0.0101646
          -0.0101262 -0.0100881 -0.0100503 -0.0100127 -0.00997545 -0.00993847 -0.00990176 -0.00986531 -0.00982914 -0.00979323 -0.00975758 -0.00972219
          -0.00968705 -0.00965217 -0.00961754 -0.00958316 -0.00954902 -0.00951512 -0.00948146 -0.00944804 -0.00941486 -0.00938191 -0.00934918 -0.00931669
          -0.00928442 -0.00925237 -0.00922055 -0.00918894 -0.00915754 -0.00912637 -0.0090954 -0.00906464 -0.00903409 -0.00900374 -0.0089736 -0.00894366
          -0.00891392 -0.00888437 -0.00885503 -0.00882587 -0.00879691 -0.00876813 -0.00873954 -0.00871114 -0.00868292 -0.00865489 -0.00862703 -0.00859935
          -0.00857186 -0.00854453 -0.00851738 -0.0084904 -0.0084636 -0.00843696 -0.00841048 -0.00838418 -0.00835803 -0.00833205 -0.00830624 -0.00828058
          -0.00825507 -0.00822973 -0.00820454 -0.0081795 -0.00815462 -0.00812989 -0.00810531 -0.00808087 -0.00805658 -0.00803244 -0.00800844 -0.00798459
          -0.00796087 -0.0079373 -0.00791387 -0.00789057 -0.00786741 -0.00784439 -0.0078215 -0.00779874 -0.00777612 -0.00775362 -0.00773126 -0.00770903
          -0.00768692 -0.00766494 -0.00764308 -0.00762135 -0.00759974 -0.00757826 -0.00755689 -0.00753565 -0.00751452 -0.00749352 -0.00747263 -0.00745185
          -0.00743119 -0.00741065 -0.00739022 -0.0073699 -0.00734969 -0.00732959 -0.00730961 -0.00728973 -0.00726996 -0.00725029 -0.00723073 -0.00721128
          -0.00719193 -0.00717269 -0.00715355 -0.00713451 -0.00711557 -0.00709673 -0.00707799 -0.00705935 -0.00704081 -0.00702236 -0.00700401 -0.00698576
          -0.0069676 -0.00694954 -0.00693157 -0.00691369 -0.0068959 -0.00687821 -0.0068606 -0.00684309 -0.00682566 -0.00680833 -0.00679108 -0.00677392
          -0.00675684 -0.00673985 -0.00672295 -0.00670613 -0.00668939 -0.00667274 -0.00665617 -0.00663968 -0.00662328 -0.00660695 -0.00659071 -0.00657454
          -0.00655846 -0.00654245 -0.00652652 -0.00651067 -0.00649489 -0.00647919 -0.00646357 -0.00644802 -0.00643255 -0.00641715 -0.00640182 -0.00638657
          -0.00637139 -0.00635628 -0.00634124 -0.00632628 -0.00631138 -0.00629655 -0.0062818 -0.00626711 -0.00625249 -0.00623794 -0.00622346 -0.00620904