<?xml version="1.0"?>
<VTKFile type="PolyData" version="0.1" byte_order="LittleEndian">
  <PolyData>
    <Piece NumberOfLines="56" NumberOfPoints="57">
      <PointData Scalars="S_w">
        <DataArray type="Float32" Name="S_w" NumberOfComponents="1" format="ascii">
          1 1 1 1 1 1 1 1 1 1 1 1
          1 1 1 1 1 1 1 1 1 1 1 1
          1 1 1 1 1 1 1 1 1 1 1 1
          1 1 1 1 1 1 1 1 1 1 1 1
          1 1 1 1 1 1 1 1 1
        </DataArray>
        <DataArray type="Float32" Name="p_w" NumberOfComponents="1" format="ascii">
          108299 108154 108008 107863 107716 107570 107423 107276 107128 106981 106833 106685
          106537 106389 106241 106093 105945 105796 105648 105499 105351 105202 105054 104905
          104756 104608 104459 104310 104161 104013 103864 103715 103566 103417 103269 103120
          102971 102822 102674 102525 102376 102228 102079 101930 101781 101633 101484 101336
          101187 101038 100890 100741 100593 100444 100296 100147 100000
        </DataArray>
        <DataArray type="Float32" Name="rho_w" NumberOfComponents="1" format="ascii">
          1002.37 1004.45 1006.29 1007.93 1009.39 1010.68 1011.83 1012.85 1013.76 1014.57 1015.28 1015.92
          1016.48 1016.98 1017.43 1017.82 1018.17 1018.48 1018.75 1018.99 1019.2 1019.39 1019.55 1019.69
          1019.81 1019.91 1020 1020.08 1020.14 1020.19 1020.23 1020.26 1020.28 1020.29 1020.29 1020.29
          1020.28 1020.26 1020.24 1020.21 1020.18 1020.14 1020.09 1020.04 1019.99 1019.93 1019.87 1019.81
          1019.74 1019.67 1019.59 1019.51 1019.43 1019.34 1019.25 1019.16 1001.47
        </DataArray>
        <DataArray type="Float32" Name="mob_w" NumberOfComponents="1" format="ascii">
          1094.28 1080.56 1069.63 1060.68 1053.23 1046.95 1041.61 1037.03 1033.09 1029.67 1026.7 1024.11
          1021.85 1019.88 1018.14 1016.62 1015.29 1014.12 1013.1 1012.2 1011.41 1010.73 1010.13 1009.61
          1009.17 1008.79 1008.46 1008.19 1007.97 1007.79 1007.65 1007.54 1007.47 1007.43 1007.42 1007.43
          1007.47 1007.53 1007.62 1007.72 1007.85 1007.99 1008.15 1008.33 1008.53 1008.74 1008.96 1009.2
          1009.46 1009.72 1010 1010.3 1010.61 1010.92 1011.26 1011.6 1103.12
        </DataArray>
        <DataArray type="Float32" Name="S_n" NumberOfComponents="1" format="ascii">
          0 0 0 0 0 0 0 0 0 0 0 0
          0 0 0 0 0 0 0 0 0 0 0 0
          0 0 0 0 0 0 0 0 0 0 0 0
          0 0 0 0 0 0 0 0 0 0 0 0
          0 0 0 0 0 0 0 0 0
        </DataArray>
        <DataArray type="Float32" Name="p_n" NumberOfComponents="1" format="ascii">
          117966 117821 117675 117529 117383 117236 117089 116942 116795 116648 116500 116352
          116204 116056 115908 115760 115611 115463 115314 115166 115017 114869 114720 114572
          114423 114274 114125 113977 113828 113679 113530 113382 113233 113084 112935 112787
          112638 112489 112340 112192 112043 111894 111746 111597 111448 111299 111151 111002
          110854 110705 110556 110408 110259 110111 109962 109814 109667
        </DataArray>
        <DataArray type="Float32" Name="rho_n" NumberOfComponents="1" format="ascii">
          1.7176 1.71751 1.71744 1.71737 1.7173 1.71725 1.7172 1.71716 1.71712 1.71708 1.71705 1.71703
          1.717 1.71698 1.71696 1.71694 1.71693 1.71692 1.7169 1.71689 1.71688 1.71688 1.71687 1.71686
          1.71686 1.71685 1.71685 1.71685 1.71684 1.71684 1.71684 1.71684 1.71684 1.71684 1.71684 1.71683
          1.71684 1.71684 1.71684 1.71684 1.71684 1.71684 1.71684 1.71684 1.71684 1.71685 1.71685 1.71685
          1.71685 1.71686 1.71686 1.71686 1.71687 1.71687 1.71687 1.71688 1.71765
        </DataArray>
        <DataArray type="Float32" Name="mob_n" NumberOfComponents="1" format="ascii">
          0 0 0 0 0 0 0 0 0 0 0 0
          0 0 0 0 0 0 0 0 0 0 0 0
          0 0 0 0 0 0 0 0 0 0 0 0
          0 0 0 0 0 0 0 0 0 0 0 0
          0 0 0 0 0 0 0 0 0
        </DataArray>
        <DataArray type="Float32" Name="pc" NumberOfComponents="1" format="ascii">
          9666.67 9666.67 9666.67 9666.67 9666.67 9666.67 9666.67 9666.67 9666.67 9666.67 9666.67 9666.67
          9666.67 9666.67 9666.67 9666.67 9666.67 9666.67 9666.67 9666.67 9666.67 9666.67 9666.67 9666.67
          9666.67 9666.67 9666.67 9666.67 9666.67 9666.67 9666.67 9666.67 9666.67 9666.67 9666.67 9666.67
          9666.67 9666.67 9666.67 9666.67 9666.67 9666.67 9666.67 9666.67 9666.67 9666.67 9666.67 9666.67
          9666.67 9666.67 9666.67 9666.67 9666.67 9666.67 9666.67 9666.67 9666.67
        </DataArray>
        <DataArray type="Float32" Name="porosity" NumberOfComponents="1" format="ascii">
          0.398721 0.398721 0.39872 0.39872 0.39872 0.39872 0.39872 0.398721 0.398721 0.398722 0.398723 0.398724
          0.398726 0.398728 0.39873 0.398733 0.398736 0.39874 0.398745 0.39875 0.398757 0.398763 0.398771 0.398779
          0.398788 0.398798 0.398808 0.398819 0.398831 0.398844 0.398857 0.39887 0.398885 0.398899 0.398915 0.39893
          0.398947 0.398963 0.39898 0.398997 0.399014 0.399032 0.39905 0.399068 0.399085 0.399103 0.399121 0.399139
          0.399157 0.399175 0.399193 0.39921 0.399228 0.399245 0.399266 0.399343 0.4
        </DataArray>
        <DataArray type="Float32" Name="x^H2O_w" NumberOfComponents="1" format="ascii">
          0.994858 0.992255 0.989943 0.987889 0.986064 0.984443 0.983002 0.981722 0.980585 0.979575 0.978678 0.977881
          0.977174 0.976547 0.97599 0.975497 0.975061 0.974675 0.974335 0.974035 0.973771 0.97354 0.973339 0.973163
          0.973012 0.972882 0.972772 0.972679 0.972603 0.972541 0.972493 0.972457 0.972433 0.972419 0.972416 0.972421
          0.972435 0.972457 0.972486 0.972522 0.972566 0.972615 0.972671 0.972732 0.972799 0.972871 0.972948 0.97303
          0.973117 0.973208 0.973304 0.973404 0.973507 0.973615 0.973727 0.973844 0.996655
        </DataArray>
        <DataArray type="Float32" Name="x^TotalC_w" NumberOfComponents="1" format="ascii">
          2.38252e-07 2.41189e-07 2.43797e-07 2.46115e-07 2.48174e-07 2.50004e-07 2.51631e-07 2.53076e-07 2.5436e-07 2.55502e-07 2.56516e-07 2.57416e-07
          2.58216e-07 2.58926e-07 2.59556e-07 2.60115e-07 2.6061e-07 2.61048e-07 2.61436e-07 2.61779e-07 2.62081e-07 2.62348e-07 2.62584e-07 2.62792e-07
          2.62976e-07 2.63138e-07 2.63283e-07 2.63413e-07 2.63532e-07 2.63641e-07 2.63744e-07 2.63845e-07 2.63947e-07 2.64053e-07 2.64167e-07 2.64293e-07
          2.64435e-07 2.64599e-07 2.64789e-07 2.65012e-07 2.65273e-07 2.65579e-07 2.65938e-07 2.66358e-07 2.66848e-07 2.67417e-07 2.68075e-07 2.68833e-07
          2.69704e-07 2.70699e-07 2.71834e-07 2.73122e-07 2.74579e-07 2.76222e-07 2.78068e-07 2.8013e-07 2.3864e-07
        </DataArray>
        <DataArray type="Float32" Name="x^Na+_w" NumberOfComponents="1" format="ascii">
          2.80172e-06 2.50118e-06 2.2342e-06 1.997e-06 1.78623e-06 1.59894e-06 1.43251e-06 1.28461e-06 1.15318e-06 1.03641e-06 9.32667e-07 8.40527e-07
          7.58717e-07 6.8611e-07 6.21707e-07 5.64625e-07 5.14077e-07 4.6937e-07 4.29886e-07 3.95081e-07 3.64471e-07 3.37627e-07 3.14172e-07 2.93768e-07
          2.76118e-07 2.6096e-07 2.48061e-07 2.37213e-07 2.28236e-07 2.20966e-07 2.15261e-07 2.10994e-07 2.08053e-07 2.06338e-07 2.0576e-07 2.06242e-07
          2.07714e-07 2.10112e-07 2.13383e-07 2.17476e-07 2.22348e-07 2.27958e-07 2.3427e-07 2.41253e-07 2.48876e-07 2.57114e-07 2.6594e-07 2.75334e-07
          2.85275e-07 2.95742e-07 3.06717e-07 3.18185e-07 3.30127e-07 3.42531e-07 3.5538e-07 3.6894e-07 2.9466e-06
        </DataArray>
        <DataArray type="Float32" Name="x^Cl-_w" NumberOfComponents="1" format="ascii">
          0.00410809 0.00542141 0.00658811 0.00762468 0.00854574 0.0093642 0.0100915 0.0107379 0.0113122 0.0118225 0.0122759 0.0126785
          0.0130361 0.0133534 0.0136348 0.0138843 0.0141052 0.0143006 0.0144732 0.0146253 0.0147591 0.0148764 0.014979 0.0150681
          0.0151453 0.0152116 0.015268 0.0153154 0.0153546 0.0153864 0.0154114 0.01543 0.0154429 0.0154504 0.015453 0.0154509
          0.0154445 0.015434 0.0154197 0.0154019 0.0153806 0.0153561 0.0153285 0.015298 0.0152647 0.0152287 0.0151902 0.0151491
          0.0151057 0.01506 0.015012 0.0149619 0.0149097 0.0148555 0.0147994 0.0147401 0.00334164
        </DataArray>
        <DataArray type="Float32" Name="x^Ca2+_w" NumberOfComponents="1" format="ascii">
          0.000367046 0.001019 0.00159799 0.00211227 0.00256909 0.0029749 0.00333541 0.00365566 0.00394013 0.00419278 0.00441714 0.00461631
          0.00479305 0.00494982 0.00508879 0.00521187 0.00532077 0.005417 0.0055019 0.00557665 0.0056423 0.00569979 0.00574993 0.00579346
          0.00583102 0.00586319 0.00589047 0.0059133 0.00593209 0.00594718 0.00595889 0.0059675 0.00597324 0.00597633 0.00597697 0.00597533
          0.00597155 0.00596578 0.00595813 0.00594871 0.00593762 0.00592494 0.00591075 0.00589513 0.00587813 0.00585982 0.00584024 0.00581945
          0.0057975 0.00577441 0.00575024 0.00572502 0.00569878 0.00567156 0.00564339 0.00561373 0
        </DataArray>
        <DataArray type="Float32" Name="x^Urea_w" NumberOfComponents="1" format="ascii">
          0.000358807 0.000996118 0.00156211 0.00206483 0.00251139 0.00290808 0.00326047 0.00357352 0.00385159 0.00409855 0.00431785 0.00451254
          0.0046853 0.00483853 0.00497436 0.00509466 0.0052011 0.00529515 0.00537812 0.00545118 0.00551534 0.00557152 0.00562053 0.00566307
          0.00569977 0.0057312 0.00575786 0.00578017 0.00579853 0.00581328 0.00582472 0.00583313 0.00583875 0.00584178 0.00584241 0.00584082
          0.00583715 0.00583154 0.00582409 0.00581493 0.00580413 0.0057918 0.00577801 0.00576282 0.0057463 0.00572851 0.0057095 0.00568932
          0.00566802 0.00564563 0.00562221 0.00559779 0.0055724 0.00554608 0.00551886 0.00549021 0
        </DataArray>
        <DataArray type="Float32" Name="x^O2_w" NumberOfComponents="1" format="ascii">
          4.50823e-06 4.51269e-06 4.51582e-06 4.51778e-06 4.5187e-06 4.51869e-06 4.51786e-06 4.5163e-06 4.51409e-06 4.51131e-06 4.50801e-06 4.50427e-06
          4.50012e-06 4.49563e-06 4.49082e-06 4.48574e-06 4.48042e-06 4.47489e-06 4.46919e-06 4.46333e-06 4.45733e-06 4.45123e-06 4.44504e-06 4.43878e-06
          4.43246e-06 4.42609e-06 4.4197e-06 4.41329e-06 4.40688e-06 4.40047e-06 4.39408e-06 4.38771e-06 4.38138e-06 4.37508e-06 4.36882e-06 4.36262e-06
          4.35647e-06 4.35039e-06 4.34437e-06 4.33841e-06 4.33253e-06 4.32673e-06 4.321e-06 4.31535e-06 4.30978e-06 4.30429e-06 4.29889e-06 4.29357e-06
          4.28834e-06 4.28319e-06 4.27813e-06 4.27315e-06 4.26826e-06 4.26345e-06 4.25876e-06 4.25385e-06 0
        </DataArray>
        <DataArray type="Float32" Name="x^Glucose_w" NumberOfComponents="1" format="ascii">
          0.000300524 0.000301306 0.000302001 0.000302618 0.000303166 0.000303653 0.000304085 0.000304469 0.00030481 0.000305113 0.000305382 0.00030562
          0.000305832 0.000306019 0.000306185 0.000306332 0.000306462 0.000306576 0.000306677 0.000306766 0.000306844 0.000306912 0.000306971 0.000307023
          0.000307067 0.000307104 0.000307136 0.000307162 0.000307184 0.000307201 0.000307214 0.000307223 0.000307229 0.000307231 0.000307231 0.000307228
          0.000307222 0.000307214 0.000307204 0.000307191 0.000307177 0.000307161 0.000307142 0.000307123 0.000307101 0.000307078 0.000307053 0.000307027
          0.000307 0.000306971 0.000306941 0.000306909 0.000306877 0.000306843 0.000306808 0.000306739 0
        </DataArray>
        <DataArray type="Float32" Name="x^Suspended_Biomass_w" NumberOfComponents="1" format="ascii">
          1.1151e-11 3.35495e-11 5.60484e-11 7.86329e-11 1.0129e-10 1.2401e-10 1.46782e-10 1.69597e-10 1.92447e-10 2.15323e-10 2.38217e-10 2.61119e-10
          2.84021e-10 3.06913e-10 3.29783e-10 3.5262e-10 3.75414e-10 3.9815e-10 4.20817e-10 4.434e-10 4.65886e-10 4.88261e-10 5.10509e-10 5.32618e-10
          5.54572e-10 5.76358e-10 5.9796e-10 6.19367e-10 6.40564e-10 6.61538e-10 6.82278e-10 7.02772e-10 7.2301e-10 7.4298e-10 7.62674e-10 7.82083e-10
          8.01199e-10 8.20015e-10 8.38525e-10 8.56724e-10 8.74606e-10 8.92167e-10 9.09406e-10 9.26318e-10 9.42902e-10 9.59158e-10 9.75084e-10 9.90681e-10
          1.00595e-09 1.02089e-09 1.03551e-09 1.0498e-09 1.06377e-09 1.07742e-09 1.09069e-09 1.10242e-09 0
        </DataArray>
        <DataArray type="Float32" Name="rhoMolar_w" NumberOfComponents="1" format="ascii">
          55431.9 55467.6 55499.2 55527.3 55552.1 55574.2 55593.7 55611.1 55626.4 55640.1 55652.2 55663
          55672.5 55680.9 55688.4 55695.1 55700.9 55706.1 55710.7 55714.7 55718.3 55721.4 55724.1 55726.4
          55728.5 55730.2 55731.7 55732.9 55734 55734.8 55735.4 55735.9 55736.2 55736.4 55736.5 55736.4
          55736.2 55735.9 55735.6 55735.1 55734.5 55733.8 55733.1 55732.3 55731.4 55730.4 55729.4 55728.3
          55727.1 55725.9 55724.6 55723.3 55721.9 55720.4 55718.9 55717.3 55411
        </DataArray>
        <DataArray type="Float32" Name="x^H2O_n" NumberOfComponents="1" format="ascii">
          0.026815 0.0267443 0.0266854 0.0266367 0.0265973 0.026566 0.0265419 0.0265242 0.0265123 0.0265054 0.0265031 0.0265048
          0.0265101 0.0265187 0.0265301 0.0265441 0.0265604 0.0265789 0.0265991 0.0266211 0.0266446 0.0266694 0.0266956 0.0267228
          0.0267511 0.0267803 0.0268104 0.0268413 0.0268729 0.0269053 0.0269382 0.0269718 0.0270058 0.0270405 0.0270756 0.0271111
          0.0271471 0.0271836 0.0272204 0.0272576 0.0272952 0.0273332 0.0273715 0.0274101 0.027449 0.0274883 0.0275279 0.0275678
          0.027608 0.0276485 0.0276892 0.0277303 0.0277716 0.0278132 0.027855 0.0278972 0.0288955
        </DataArray>
        <DataArray type="Float32" Name="x^TotalC_n" NumberOfComponents="1" format="ascii">
          0.000352141 0.000362127 0.000371228 0.000379512 0.000387044 0.000393889 0.000400105 0.00040575 0.000410876 0.000415531 0.000419762 0.000423608
          0.000427108 0.000430295 0.000433201 0.000435854 0.000438279 0.000440499 0.000442535 0.000444406 0.000446128 0.000447716 0.000449185 0.000450547
          0.000451813 0.000452994 0.000454099 0.000455139 0.00045612 0.000457053 0.000457945 0.000458803 0.000459636 0.000460453 0.000461261 0.000462069
          0.000462886 0.000463723 0.00046459 0.000465497 0.000466458 0.000467484 0.00046859 0.000469792 0.000471104 0.000472546 0.000474136 0.000475894
          0.000477842 0.000480004 0.000482405 0.000485072 0.000488033 0.000491319 0.000494961 0.000498978 0.000376053
        </DataArray>
        <DataArray type="Float32" Name="x^Na+_n" NumberOfComponents="1" format="ascii">
          2.57213e-26 2.29597e-26 2.05067e-26 1.83275e-26 1.63913e-26 1.4671e-26 1.31424e-26 1.17842e-26 1.05774e-26 9.50519e-27 8.55278e-27 7.70695e-27
          6.95601e-27 6.28961e-27 5.69857e-27 5.17475e-27 4.71093e-27 4.30073e-27 3.93849e-27 3.61919e-27 3.33839e-27 3.09215e-27 2.87699e-27 2.68982e-27
          2.52791e-27 2.38885e-27 2.27049e-27 2.17095e-27 2.08853e-27 2.02176e-27 1.96932e-27 1.93005e-27 1.90291e-27 1.88699e-27 1.88148e-27 1.88566e-27
          1.89888e-27 1.92057e-27 1.95022e-27 1.98738e-27 2.03165e-27 2.08264e-27 2.14004e-27 2.20355e-27 2.27289e-27 2.34783e-27 2.42812e-27 2.51357e-27
          2.60398e-27 2.69918e-27 2.79899e-27 2.90326e-27 3.01184e-27 3.1246e-27 3.24139e-27 3.36463e-27 2.68687e-26
        </DataArray>
        <DataArray type="Float32" Name="x^Cl-_n" NumberOfComponents="1" format="ascii">
          3.77146e-23 4.97661e-23 6.04691e-23 6.99756e-23 7.84198e-23 8.59208e-23 9.25839e-23 9.85025e-23 1.03759e-22 1.08428e-22 1.12573e-22 1.16252e-22
          1.19516e-22 1.22411e-22 1.24977e-22 1.27249e-22 1.29258e-22 1.31034e-22 1.32599e-22 1.33977e-22 1.35187e-22 1.36245e-22 1.37168e-22 1.37968e-22
          1.38658e-22 1.39248e-22 1.39747e-22 1.40164e-22 1.40507e-22 1.4078e-22 1.40992e-22 1.41145e-22 1.41246e-22 1.41297e-22 1.41303e-22 1.41266e-22
          1.4119e-22 1.41077e-22 1.40929e-22 1.40748e-22 1.40536e-22 1.40295e-22 1.40025e-22 1.39729e-22 1.39407e-22 1.39061e-22 1.38691e-22 1.38299e-22
          1.37885e-22 1.3745e-22 1.36994e-22 1.36519e-22 1.36026e-22 1.35514e-22 1.34984e-22 1.34426e-22 3.04709e-23
        </DataArray>
        <DataArray type="Float32" Name="x^Ca2+_n" NumberOfComponents="1" format="ascii">
          3.36969e-24 9.35392e-24 1.46672e-23 1.93853e-23 2.35752e-23 2.72961e-23 3.06004e-23 3.35347e-23 3.61402e-23 3.84532e-23 4.05062e-23 4.23278e-23
          4.39433e-23 4.53754e-23 4.66438e-23 4.77664e-23 4.87588e-23 4.96348e-23 5.04068e-23 5.10856e-23 5.16809e-23 5.22013e-23 5.26542e-23 5.30465e-23
          5.33841e-23 5.36721e-23 5.39153e-23 5.41178e-23 5.42831e-23 5.44147e-23 5.45152e-23 5.45872e-23 5.4633e-23 5.46546e-23 5.46538e-23 5.4632e-23
          5.45907e-23 5.45311e-23 5.44544e-23 5.43616e-23 5.42534e-23 5.41308e-23 5.39944e-23 5.38449e-23 5.36828e-23 5.35088e-23 5.33232e-23 5.31266e-23
          5.29194e-23 5.27019e-23 5.24746e-23 5.22377e-23 5.19916e-23 5.17365e-23 5.14729e-23 5.11956e-23 0
        </DataArray>
        <DataArray type="Float32" Name="x^Urea_n" NumberOfComponents="1" format="ascii">
          3.29405e-24 9.14391e-24 1.43379e-23 1.895e-23 2.30457e-23 2.66829e-23 2.9913e-23 3.27813e-23 3.53281e-23 3.7589e-23 3.95958e-23 4.13763e-23
          4.29554e-23 4.43552e-23 4.5595e-23 4.66922e-23 4.76621e-23 4.85183e-23 4.92728e-23 4.99362e-23 5.0518e-23 5.10266e-23 5.14693e-23 5.18526e-23
          5.21824e-23 5.24639e-23 5.27015e-23 5.28994e-23 5.3061e-23 5.31895e-23 5.32877e-23 5.33581e-23 5.34029e-23 5.34241e-23 5.34233e-23 5.34022e-23
          5.3362e-23 5.33041e-23 5.32294e-23 5.3139e-23 5.30337e-23 5.29144e-23 5.27817e-23 5.26363e-23 5.24788e-23 5.23097e-23 5.21295e-23 5.19386e-23
          5.17375e-23 5.15266e-23 5.13063e-23 5.10768e-23 5.08386e-23 5.05919e-23 5.0337e-23 5.00692e-23 0
        </DataArray>
        <DataArray type="Float32" Name="x^O2_n" NumberOfComponents="1" format="ascii">
          0.16953 0.169907 0.170235 0.17052 0.170767 0.170981 0.171164 0.17132 0.171452 0.171563 0.171655 0.17173
          0.171791 0.171838 0.171873 0.171899 0.171915 0.171924 0.171926 0.171922 0.171913 0.171899 0.171883 0.171863
          0.171841 0.171818 0.171793 0.171768 0.171743 0.171718 0.171693 0.171669 0.171646 0.171625 0.171605 0.171588
          0.171572 0.171559 0.171548 0.171541 0.171535 0.171533 0.171534 0.171538 0.171545 0.171556 0.171569 0.171587
          0.171607 0.171631 0.171659 0.17169 0.171724 0.171762 0.171805 0.171839 0
        </DataArray>
        <DataArray type="Float32" Name="x^Glucose_n" NumberOfComponents="1" format="ascii">
          2.75898e-24 2.76585e-24 2.77192e-24 2.77728e-24 2.782e-24 2.78615e-24 2.78981e-24 2.79301e-24 2.79582e-24 2.79828e-24 2.80042e-24 2.80229e-24
          2.8039e-24 2.8053e-24 2.80649e-24 2.80751e-24 2.80837e-24 2.8091e-24 2.80969e-24 2.81017e-24 2.81055e-24 2.81084e-24 2.81105e-24 2.81118e-24
          2.81125e-24 2.81126e-24 2.81121e-24 2.81111e-24 2.81097e-24 2.81078e-24 2.81056e-24 2.8103e-24 2.81001e-24 2.80968e-24 2.80934e-24 2.80896e-24
          2.80856e-24 2.80814e-24 2.8077e-24 2.80723e-24 2.80675e-24 2.80625e-24 2.80573e-24 2.80519e-24 2.80464e-24 2.80407e-24 2.80349e-24 2.8029e-24
          2.80229e-24 2.80166e-24 2.80103e-24 2.80038e-24 2.79972e-24 2.79905e-24 2.79837e-24 2.79737e-24 0
        </DataArray>
        <DataArray type="Float32" Name="x^Suspended_Biomass_n" NumberOfComponents="1" format="ascii">
          1.02372e-31 3.07969e-31 5.14442e-31 7.21654e-31 9.2949e-31 1.13785e-30 1.34664e-30 1.55578e-30 1.76519e-30 1.97479e-30 2.18451e-30 2.39425e-30
          2.60394e-30 2.81349e-30 3.02279e-30 3.23174e-30 3.44024e-30 3.64817e-30 3.8554e-30 4.06182e-30 4.26731e-30 4.47172e-30 4.67492e-30 4.8768e-30
          5.07721e-30 5.27602e-30 5.47312e-30 5.66837e-30 5.86165e-30 6.05284e-30 6.24185e-30 6.42856e-30 6.61287e-30 6.79469e-30 6.97393e-30 7.15053e-30
          7.3244e-30 7.49548e-30 7.66372e-30 7.82907e-30 7.99148e-30 8.15092e-30 8.30736e-30 8.46079e-30 8.61118e-30 8.75852e-30 8.90282e-30 9.04407e-30
          9.18229e-30 9.31748e-30 9.44966e-30 9.57886e-30 9.7051e-30 9.82837e-30 9.94806e-30 1.00537e-29 0
        </DataArray>
        <DataArray type="Float32" Name="rhoMolar_n" NumberOfComponents="1" format="ascii">
          39.7913 39.7863 39.7819 39.778 39.7746 39.7715 39.7688 39.7664 39.7642 39.7623 39.7606 39.7591
          39.7578 39.7566 39.7556 39.7546 39.7538 39.7531 39.7524 39.7518 39.7513 39.7509 39.7505 39.7501
          39.7498 39.7496 39.7494 39.7492 39.749 39.7489 39.7488 39.7487 39.7486 39.7486 39.7486 39.7486
          39.7486 39.7486 39.7486 39.7487 39.7488 39.7488 39.7489 39.749 39.7491 39.7492 39.7494 39.7495
          39.7496 39.7498 39.75 39.7501 39.7503 39.7505 39.7507 39.7509 39.7935
        </DataArray>
        <DataArray type="Float32" Name="phase presence" NumberOfComponents="1" format="ascii">
          1 1 1 1 1 1 1 1 1 1 1 1
          1 1 1 1 1 1 1 1 1 1 1 1
          1 1 1 1 1 1 1 1 1 1 1 1
          1 1 1 1 1 1 1 1 1 1 1 1
          1 1 1 1 1 1 1 1 1
        </DataArray>
        <DataArray type="Float32" Name="precipitateVolumeFraction^Biofilm" NumberOfComponents="1" format="ascii">
          0.00120713 0.00120714 0.00120714 0.00120713 0.00120711 0.00120705 0.00120695 0.00120677 0.00120648 0.00120604 0.00120539 0.0012045
          0.00120331 0.00120176 0.00119981 0.00119739 0.00119447 0.001191 0.00118693 0.00118224 0.00117689 0.00117087 0.00116416 0.00115675
          0.00114864 0.00113983 0.00113033 0.00112015 0.00110932 0.00109786 0.00108578 0.00107313 0.00105994 0.00104623 0.00103205 0.00101744
          0.00100243 0.000987064 0.000971379 0.000955416 0.000939213 0.000922811 0.000906246 0.000889555 0.000872774 0.000855936 0.000839074 0.000822219
          0.000805401 0.000788649 0.000771987 0.00075544 0.000739023 0.000722556 0.000702465 0.000629157 0
        </DataArray>
        <DataArray type="Float32" Name="precipitateVolumeFraction^Calcite" NumberOfComponents="1" format="ascii">
          7.18412e-05 7.23394e-05 7.26286e-05 7.27719e-05 7.28079e-05 7.27617e-05 7.26499e-05 7.24835e-05 7.22697e-05 7.20132e-05 7.17168e-05 7.13819e-05
          7.10088e-05 7.05976e-05 7.01476e-05 6.96582e-05 6.91285e-05 6.8558e-05 6.79462e-05 6.72927e-05 6.65977e-05 6.58614e-05 6.50846e-05 6.42682e-05
          6.34135e-05 6.25219e-05 6.15955e-05 6.06361e-05 5.96461e-05 5.86278e-05 5.75839e-05 5.6517e-05 5.54298e-05 5.43251e-05 5.32057e-05 5.20743e-05
          5.09338e-05 4.97868e-05 4.86359e-05 4.74836e-05 4.63324e-05 4.51846e-05 4.40423e-05 4.29077e-05 4.17827e-05 4.06691e-05 3.95685e-05 3.84824e-05
          3.74123e-05 3.63594e-05 3.53248e-05 3.43094e-05 3.33139e-05 3.23299e-05 3.11987e-05 2.77353e-05 0
        </DataArray>
        <DataArray type="Float32" Name="Permeability" NumberOfComponents="1" format="ascii">
          1.97246e-10 1.97245e-10 1.97244e-10 1.97244e-10 1.97244e-10 1.97244e-10 1.97245e-10 1.97246e-10 1.97247e-10 1.97248e-10 1.97251e-10 1.97253e-10
          1.97257e-10 1.97261e-10 1.97267e-10 1.97273e-10 1.97281e-10 1.9729e-10 1.973e-10 1.97312e-10 1.97325e-10 1.9734e-10 1.97357e-10 1.97375e-10
          1.97394e-10 1.97416e-10 1.97438e-10 1.97462e-10 1.97488e-10 1.97515e-10 1.97544e-10 1.97573e-10 1.97604e-10 1.97636e-10 1.97669e-10 1.97703e-10
          1.97738e-10 1.97774e-10 1.9781e-10 1.97847e-10 1.97884e-10 1.97922e-10 1.9796e-10 1.97998e-10 1.98037e-10 1.98075e-10 1.98114e-10 1.98152e-10
          1.98191e-10 1.98229e-10 1.98267e-10 1.98305e-10 1.98342e-10 1.98382e-10 1.98457e-10 1.98935e-10 1.99644e-10
        </DataArray>
      </PointData>
      <CellData Scalars="process rank">
        <DataArray type="Float32" Name="process rank" NumberOfComponents="1" format="ascii">
          0 0 0 0 0 0 0 0 0 0 0 0
          0 0 0 0 0 0 0 0 0 0 0 0
          0 0 0 0 0 0 0 0 0 0 0 0
          0 0 0 0 0 0 0 0 0 0 0 0
          0 0 0 0 0 0 0 0
        </DataArray>
      </CellData>
      <Points>
        <DataArray type="Float32" Name="Coordinates" NumberOfComponents="3" format="ascii">
          0 0 0 0.0127 0 0 0.0254 0 0 0.0381 0 0
          0.0508 0 0 0.0635 0 0 0.0762 0 0 0.0889 0 0
          0.1016 0 0 0.1143 0 0 0.127 0 0 0.1397 0 0
          0.1524 0 0 0.1651 0 0 0.1778 0 0 0.1905 0 0
          0.2032 0 0 0.2159 0 0 0.2286 0 0 0.2413 0 0
          0.254 0 0 0.2667 0 0 0.2794 0 0 0.2921 0 0
          0.3048 0 0 0.3175 0 0 0.3302 0 0 0.3429 0 0
          0.3556 0 0 0.3683 0 0 0.381 0 0 0.3937 0 0
          0.4064 0 0 0.4191 0 0 0.4318 0 0 0.4445 0 0
          0.4572 0 0 0.4699 0 0 0.4826 0 0 0.4953 0 0
          0.508 0 0 0.5207 0 0 0.5334 0 0 0.5461 0 0
          0.5588 0 0 0.5715 0 0 0.5842 0 0 0.5969 0 0
          0.6096 0 0 0.6223 0 0 0.635 0 0 0.6477 0 0
          0.6604 0 0 0.6731 0 0 0.6858 0 0 0.6985 0 0
          0.7112 0 0
        </DataArray>
      </Points>
      <Lines>
        <DataArray type="Int32" Name="connectivity" NumberOfComponents="1" format="ascii">
          0 1 1 2 2 3 3 4 4 5 5 6
          6 7 7 8 8 9 9 10 10 11 11 12
          12 13 13 14 14 15 15 16 16 17 17 18
          18 19 19 20 20 21 21 22 22 23 23 24
          24 25 25 26 26 27 27 28 28 29 29 30
          30 31 31 32 32 33 33 34 34 35 35 36
          36 37 37 38 38 39 39 40 40 41 41 42
          42 43 43 44 44 45 45 46 46 47 47 48
          48 49 49 50 50 51 51 52 52 53 53 54
          54 55 55 56
        </DataArray>
        <DataArray type="Int32" Name="offsets" NumberOfComponents="1" format="ascii">
          2 4 6 8 10 12 14 16 18 20 22 24
          26 28 30 32 34 36 38 40 42 44 46 48
          50 52 54 56 58 60 62 64 66 68 70 72
          74 76 78 80 82 84 86 88 90 92 94 96
          98 100 102 104 106 108 110 112
        </DataArray>
      </Lines>
    </Piece>
  </PolyData>
</VTKFile>
