<?xml version="1.0"?>
<VTKFile type="UnstructuredGrid" version="0.1" byte_order="LittleEndian">
  <UnstructuredGrid>
    <Piece NumberOfCells="36" NumberOfPoints="49">
      <PointData Scalars="c">
        <DataArray type="Float32" Name="c" NumberOfComponents="1" format="ascii">
          0.573644 0.594092 0.709256 0.498368 0.674927 0.61297 0.741987 0.615632 0.593599 0.452598 0.69915 0.477316
          0.53875 0.41387 0.720189 0.302494 0.751592 0.392863 0.425794 0.517298 0.702481 0.653806 0.501159 0.476217
          0.514364 0.429345 0.763388 0.774239 0.286512 0.388567 0.2551 0.561912 0.2726 0.487823 0.757131 0.805291
          0.667609 0.310247 0.716878 0.767391 0.81094 0.548676 0.790928 0.732083 0.4973 0.571787 0.768192 0.682043
          0.356806
        </DataArray>
      </PointData>
      <CellData Scalars="process rank">
        <DataArray type="Float32" Name="process rank" NumberOfComponents="1" format="ascii">
          0 0 0 0 0 0 0 0 0 0 0 0
          0 0 0 0 0 0 0 0 0 0 0 0
          0 0 0 0 0 0 0 0 0 0 0 0
        </DataArray>
      </CellData>
      <Points>
        <DataArray type="Float32" Name="Coordinates" NumberOfComponents="3" format="ascii">
          0 0 0 0.166667 0 0 0 0.166667 0 0.166667 0.166667 0
          0.333333 0 0 0.333333 0.166667 0 0.5 0 0 0.5 0.166667 0
          0.666667 0 0 0.666667 0.166667 0 0.833333 0 0 0.833333 0.166667 0
          1 0 0 1 0.166667 0 0 0.333333 0 0.166667 0.333333 0
          0.333333 0.333333 0 0.5 0.333333 0 0.666667 0.333333 0 0.833333 0.333333 0
          1 0.333333 0 0 0.5 0 0.166667 0.5 0 0.333333 0.5 0
          0.5 0.5 0 0.666667 0.5 0 0.833333 0.5 0 1 0.5 0
          0 0.666667 0 0.166667 0.666667 0 0.333333 0.666667 0 0.5 0.666667 0
          0.666667 0.666667 0 0.833333 0.666667 0 1 0.666667 0 0 0.833333 0
          0.166667 0.833333 0 0.333333 0.833333 0 0.5 0.833333 0 0.666667 0.833333 0
          0.833333 0.833333 0 1 0.833333 0 0 1 0 0.166667 1 0
          0.333333 1 0 0.5 1 0 0.666667 1 0 0.833333 1 0
          1 1 0
        </DataArray>
      </Points>
      <Cells>
        <DataArray type="Int32" Name="connectivity" NumberOfComponents="1" format="ascii">
          0 1 3 2 1 4 5 3 4 6 7 5
          6 8 9 7 8 10 11 9 10 12 13 11
          2 3 15 14 3 5 16 15 5 7 17 16
          7 9 18 17 9 11 19 18 11 13 20 19
          14 15 22 21 15 16 23 22 16 17 24 23
          17 18 25 24 18 19 26 25 19 20 27 26
          21 22 29 28 22 23 30 29 23 24 31 30
          24 25 32 31 25 26 33 32 26 27 34 33
          28 29 36 35 29 30 37 36 30 31 38 37
          31 32 39 38 32 33 40 39 33 34 41 40
          35 36 43 42 36 37 44 43 37 38 45 44
          38 39 46 45 39 40 47 46 40 41 48 47
        </DataArray>
        <DataArray type="Int32" Name="offsets" NumberOfComponents="1" format="ascii">
          4 8 12 16 20 24 28 32 36 40 44 48
          52 56 60 64 68 72 76 80 84 88 92 96
          100 104 108 112 116 120 124 128 132 136 140 144
        </DataArray>
        <DataArray type="UInt8" Name="types" NumberOfComponents="1" format="ascii">
          9 9 9 9 9 9 9 9 9 9 9 9
          9 9 9 9 9 9 9 9 9 9 9 9
          9 9 9 9 9 9 9 9 9 9 9 9
        </DataArray>
      </Cells>
    </Piece>
  </UnstructuredGrid>
</VTKFile>
