<?xml version="1.0"?>
<VTKFile type="UnstructuredGrid" version="0.1" byte_order="LittleEndian">
  <UnstructuredGrid>
    <Piece NumberOfCells="5679" NumberOfPoints="5970">
      <CellData Scalars="S_aq">
        <DataArray type="Float32" Name="S_aq" NumberOfComponents="1" format="ascii">
          1 1 1 1 1 1 1 1 1 1 1 1
          1 1 1 1 1 1 1 1 1 1 1 1
          1 1 1 1 1 1 1 1 1 1 1 1
          1 1 1 1 1 1 1 1 1 1 1 1
          1 1 1 1 1 1 1 1 1 1 1 1
          1 1 1 1 1 1 1 1 1 1 1 1
          1 1 1 1 1 1 1 1 1 1 1 1
          1 1 1 1 1 1 1 1 1 1 1 1
          1 1 1 1 1 1 1 1 1 1 1 1
          1 1 1 1 1 1 1 1 1 1 1 1
          1 1 1 1 1 1 1 1 1 1 1 1
          1 1 1 1 1 1 1 1 1 1 1 1
          1 1 1 1 1 1 1 1 1 1 1 1
          1 1 1 1 1 1 1 1 1 1 1 1
          1 1 1 1 1 1 1 1 1 1 1 1
          1 1 1 1 1 1 1 1 1 1 1 1
          1 1 1 1 1 1 1 1 1 1 1 1
          1 1 1 1 1 1 1 1 1 1 1 1
          1 1 1 1 1 1 1 1 1 1 1 1
          1 1 1 1 1 1 1 1 1 1 1 1
          1 1 1 1 1 1 1 1 1 1 1 1
          1 1 1 1 1 1 1 1 1 1 1 1
          1 1 1 1 1 1 1 1 1 1 1 1
          1 1 1 1 1 1 1 1 1 1 1 1
          1 1 1 1 1 1 1 1 1 1 1 1
          1 1 1 1 1 1 1 1 1 1 1 1
          1 1 1 1 1 1 1 1 1 1 1 1
          1 1 1 1 1 1 1 1 1 1 1 1
          1 1 1 1 1 1 1 1 1 1 1 1
          1 1 1 1 1 1 1 1 1 1 1 1
          1 1 1 1 1 1 1 1 1 1 1 1
          1 1 1 1 1 1 1 1 1 1 1 1
          1 1 1 1 1 1 1 1 1 1 1 1
          1 1 1 1 1 1 1 1 1 1 1 1
          1 1 1 1 1 1 1 1 1 1 1 1
          1 1 1 1 1 1 1 1 1 1 1 1
          1 1 1 1 1 1 1 1 1 1 1 1
          1 1 1 1 1 1 1 1 1 1 1 1
          1 1 1 1 1 1 1 1 1 1 1 1
          1 1 1 1 1 1 1 1 1 1 1 1
          1 1 1 0.999983 0.999983 1 1 0.999996 0.999996 1 1 1
          1 0.999999 0.999999 1 1 1 0.999999 0.999999 1 1 0.999961 0.999963
          0.999371 0.999344 0.998723 0.998858 0.999899 0.999899 0.999832 0.999837 0.999795 0.999793 0.999558 0.999581
          0.999583 0.999578 0.999182 0.999208 0.997694 0.997609 0.996066 0.996242 0.998366 0.998246 0.996997 0.997312
          1 1 1 1 1 1 1 1 1 1 1 1
          1 1 1 1 1 1 1 1 1 1 1 1
          1 1 1 1 1 1 1 1 1 1 1 1
          1 1 1 1 1 1 1 1 1 1 1 1
          1 1 1 1 1 1 1 1 1 1 1 1
          1 1 1 1 0.999999 0.999999 1 1 0.99999 0.99999 1 1
          1 1 1 0.999682 0.999686 0.999366 0.99934 0.999895 0.999898 0.999799 0.999775 0.998766
          0.998917 0.998193 0.997768 0.997819 0.997922 0.996589 0.996343 0.999999 1 0.999997 0.999994 1
          0.999998 1 0.999999 0.999995 0.999752 0.999796 0.99966 0.999506 1 1 1 1
          1 1 1 1 1 1 1 1 1 1 1 1
          1 1 1 1 1 1 1 1 1 1 1 1
          1 1 1 1 1 1 1 1 1 1 1 1
          1 1 1 1 1 1 1 1 1 1 1 1
          1 1 1 1 1 1 1 1 1 1 1 1
          1 1 1 1 1 1 1 1 1 0.999969 0.99998 1
          1 1 1 1 0.9999 0.999899 0.999849 0.999853 0.999262 0.999215 0.998484 0.998703
          1 1 0.999991 0.999992 0.999148 0.999089 0.998229 0.998475 0.997222 0.996821 0.99495 0.995731
          0.993373 0.992136 0.988956 0.990828 0.996701 0.996097 0.994067 0.995141 0.995197 0.994611 0.992055 0.992987
          0.993745 0.993464 0.990564 0.990986 0.987245 0.986724 0.982869 0.983436 0.989811 0.988472 0.984705 0.98632
          0.999689 0.99968 0.999301 0.999397 0.99705 0.996474 0.994575 0.995632 0.993504 0.991858 0.988897 0.991416
          0.998079 0.997758 0.996344 0.997081 0.992839 0.991167 0.987911 0.990358 0.987454 0.985152 0.981471 0.984104
          0.980504 0.977666 0.97402 0.97701 0.987192 0.984255 0.98077 0.984112 0.982497 0.980705 0.976869 0.978787
          0.979409 0.97882 0.974941 0.975538 0.971662 0.971077 0.967389 0.967948 0.974986 0.973 0.969289 0.97132
          1 1 1 1 1 1 1 1 1 0.999479 0.999355 0.998676
          0.999055 0.997553 0.997013 0.995474 0.996482 1 1 0.999964 0.999997 1 1 1
          1 1 1 1 1 0.999999 1 1 0.999794 0.999458 0.998932 0.999585
          0.994778 0.99316 0.990896 0.993289 0.991262 0.988037 0.98541 0.989262 0.998406 0.997675 0.996744 0.997584
          0.995263 0.994017 0.991714 0.993628 0.988665 0.985474 0.982241 0.985947 0.98296 0.978893 0.975695 0.98005
          0.991363 0.988636 0.985646 0.989108 0.980795 0.977194 0.97377 0.977568 0.973461 0.97039 0.966898 0.970029
          0.966632 0.963477 0.960174 0.963344 0.97427 0.970359 0.96707 0.971069 0.967697 0.965655 0.962174 0.964213
          0.964331 0.963813 0.960415 0.960878 0.957545 0.957155 0.954054 0.954353 0.960813 0.958798 0.95555 0.957533
          0.986535 0.98251 0.979572 0.984087 0.977031 0.972491 0.969401 0.9741 0.971146 0.966336 0.963344 0.968262
          0.981466 0.976597 0.973749 0.978927 0.967881 0.963829 0.96068 0.964778 0.960114 0.956945 0.953803 0.956968
          0.953865 0.950712 0.947671 0.950808 0.961703 0.957572 0.954516 0.958682 0.954333 0.952396 0.949341 0.951223
          0.951271 0.951084 0.948258 0.948306 0.94544 0.945562 0.943007 0.942677 0.948174 0.946362 0.943459 0.945182
          1 1 1 1 1 1 1 1 1 1 1 1
          1 1 1 1 1 1 1 1 1 1 1 1
          1 1 1 0.999871 0.999774 1 1 0.999353 0.999195 1 1 0.996029
          0.994907 0.993295 0.995013 0.987147 0.982687 0.980166 0.985235 0.983152 0.977588 0.975091 0.981132 0.993695
          0.991209 0.989194 0.992651 1 1 1 1 1 1 0.998612 0.99848 0.999999
          0.9999 0.997906 0.9976 0.999897 1 1 1 1 0.991299 0.986943 0.984948 0.990141
          0.978962 0.972513 0.969912 0.976793 0.974454 0.967169 0.964297 0.972036 0.988691 0.982757 0.980657 0.98743
          0.976306 0.970897 0.968106 0.97374 0.965372 0.960364 0.957401 0.962506 0.959601 0.954401 0.951347 0.956652
          0.971113 0.965286 0.962448 0.96848 0.955669 0.951471 0.948427 0.95266 0.947764 0.944651 0.941642 0.944721
          0.941646 0.938617 0.935568 0.938522 0.949609 0.945344 0.942202 0.946496 0.942226 0.940615 0.93783 0.939299
          0.940008 0.940591 0.938331 0.937441 0.934979 0.936242 0.934355 0.932644 0.936384 0.935098 0.932428 0.933481
          0.96575 0.959518 0.956483 0.962934 0.953599 0.948188 0.944895 0.950419 0.947054 0.941418 0.937716 0.943463
          0.959953 0.953273 0.949854 0.956787 0.943278 0.938964 0.935608 0.939927 0.935323 0.932477 0.929343 0.932035
          0.92864 0.926169 0.922979 0.925143 0.9364 0.932102 0.92843 0.932667 0.930585 0.929831 0.927336 0.927711
          0.93046 0.932708 0.931355 0.928472 0.926733 0.93036 0.929801 0.92532 0.924881 0.924983 0.922836 0.92214
          1 1 1 1 1 1 1 1 0.999801 0.997278 0.997123 0.999801
          0.999801 0.996891 0.996645 0.999804 1 1 1 1 0.986014 0.978403 0.976084 0.984665
          0.969413 0.96119 0.957793 0.966567 0.963334 0.953956 0.949541 0.959602 0.983105 0.973493 0.97062 0.981518
          1 1 1 1 1 1 1 1 0.999899 0.996332 0.99694 1
          1 0.997521 0.999271 1 1 0.979773 0.967198 0.962829 0.977789 0.955092 0.944301 0.937916
          0.949391 0.941716 0.929925 0.919945 0.931093 0.974132 0.956312 0.945805 0.96672 0.953347 0.946146 0.942078
          0.949566 0.939579 0.933736 0.929432 0.93534 0.930665 0.924756 0.91969 0.925488 0.945315 0.937546 0.932443
          0.940464 0.928692 0.924578 0.920557 0.924453 0.921557 0.919814 0.916751 0.917927 0.914334 0.913901 0.911415
          0.910911 0.919945 0.916405 0.912215 0.915203 0.919555 0.920978 0.919515 0.917222 0.924322 0.929764 0.930343
          0.923845 0.923999 0.931623 0.933672 0.924894 0.915266 0.918569 0.918276 0.913836 0.934824 0.926641 0.920036
          0.928182 0.91975 0.914254 0.908571 0.913461 0.906775 0.902921 0.897772 0.900136 0.920316 0.912604 0.904609
          0.911216 0.910327 0.908145 0.904433 0.905525 0.907841 0.909472 0.908261 0.905349 0.903654 0.907942 0.908627
          0.902934 0.901121 0.901364 0.89918 0.897458 0.913088 0.918761 0.920129 0.913168 0.926621 0.936523 0.940156
          0.929233 0.932731 0.944484 0.949344 0.937044 0.914187 0.922443 0.925711 0.916205 0.993781 0.99419 0.991593
          0.990972 0.995578 0.996387 0.994712 0.993401 0.990267 0.992168 0.989285 0.986783 0.987174 0.987975 0.98428
          0.983323 0.99821 0.998707 0.998041 0.997049 0.999832 0.999899 0.999851 0.999686 0.99876 0.999265 0.998957
          0.998045 0.994947 0.996479 0.995211 0.992969 0.999999 1 1 0.999999 1 1 0.99998
          1 0.999997 0.999963 0.979271 0.980367 0.976633 0.975401 0.982978 0.985814 0.982574 0.979372 0.975743
          0.97925 0.976162 0.972348 0.971555 0.972905 0.969381 0.967905 0.990282 0.993334 0.9915 0.987467 0.996493
          0.997843 0.997251 0.995341 0.993742 0.996143 0.995373 0.992365 0.984411 0.989084 0.986781 0.981612 0.999609
          0.999797 0.999755 0.999442 0.999998 1 1 0.999998 0.999978 1 0.999999 0.999976 0.998695
          0.999279 0.999188 0.998361 1 1 1 1 1 1 1 1 1
          0.964383 0.965986 0.96281 0.961062 0.969088 0.973176 0.970462 0.966081 0.963277 0.967953 0.965736 0.960731
          0.957899 0.959812 0.957029 0.954923 0.978867 0.984426 0.982468 0.976453 0.990726 0.994328 0.99359 0.989319
          0.987883 0.992731 0.992142 0.986784 0.974232 0.98064 0.979166 0.972348 0.997589 0.998722 0.99856 0.997173
          0.999835 0.9999 0.9999 0.999822 0.999741 0.999899 0.999896 0.999721 0.996488 0.998064 0.997923 0.99616
          0.952108 0.954441 0.952075 0.949474 0.95842 0.963779 0.962138 0.956383 0.954614 0.960801 0.959808 0.953147
          0.947011 0.949927 0.948024 0.944738 0.970734 0.977916 0.977023 0.969475 0.985808 0.991541 0.991203 0.985188
          0.98477 0.990939 0.990916 0.984685 0.968536 0.976412 0.976157 0.967966 0.99573 0.997614 0.997536 0.995553
          0.999563 0.999798 0.999793 0.999548 0.999428 0.999697 0.999701 0.999436 0.995368 0.997394 0.997393 0.995362
          0.999999 1 1 1 1 1 1 1 1 1 1 1
          0.999999 1 1 0.999999 1 1 0.999997 1 1 0.999997 1 1
          1 1 1 1 1 1 1 1 1 1 1 1
          1 1 1 1 1 1 1 1 1 1 1 1
          0.94266 0.946377 0.945018 0.940804 0.951993 0.959158 0.958889 0.951188 0.950757 0.95901 0.959548 0.950741
          0.939192 0.943977 0.943297 0.937867 0.967741 0.976198 0.976568 0.967895 0.984819 0.991008 0.991259 0.985222
          0.985848 0.991641 0.992107 0.986676 0.968414 0.977233 0.978189 0.969308 0.995408 0.997415 0.997481 0.995546
          0.999525 0.999797 0.999797 0.999539 0.999581 0.999798 0.999801 0.999605 0.995795 0.997648 0.997768 0.996058
          0.93687 0.943022 0.943206 0.936263 0.951169 0.960509 0.961895 0.952076 0.953483 0.963696 0.965874 0.955397
          0.936107 0.943897 0.945141 0.936476 0.970559 0.979411 0.980843 0.972142 0.987713 0.992722 0.993294 0.988812
          0.990084 0.99405 0.994616 0.991194 0.974031 0.982492 0.98422 0.976148 0.996513 0.998091 0.998218 0.996832
          0.999761 0.999899 0.999899 0.999776 0.999837 0.9999 0.999901 0.999843 0.99744 0.998637 0.998728 0.997724
          0.999999 1 1 0.999999 1 1 0.999999 1 1 0.999999 1 1
          1 1 1 1 1 1 1 1 1 1 1 1
          0.937436 0.946971 0.949396 0.93905 0.957805 0.96839 0.971151 0.960662 0.963907 0.974112 0.977122 0.967425
          0.941358 0.952394 0.955897 0.944365 0.97848 0.98613 0.987904 0.980872 0.992432 0.995437 0.995945 0.993385
          0.994584 0.996815 0.997195 0.995352 0.983389 0.989829 0.991291 0.985757 0.998393 0.999174 0.99922 0.998593
          0.999976 1 1 0.999981 0.999995 1 1 0.999996 0.999208 0.999594 0.999609 0.999302
          0.948031 0.959811 0.963975 0.952253 0.971135 0.9802 0.983099 0.974852 0.978556 0.98605 0.988487 0.981957
          0.956885 0.968256 0.97244 0.961719 0.988255 0.992876 0.993875 0.990248 0.996564 0.998098 0.998306 0.997105
          0.99831 0.999168 0.999224 0.99858 0.992287 0.995239 0.995945 0.993588 0.999771 0.9999 0.9999 0.999791
          1 1 1 1 1 0.999977 1 1 0.999982 1 1 1
          1 1 1 1 1 1 1 1 1 1 1 1
          1 1 1 1 1 1 1 1 1 1 1 1
          1 1 1 1 1 1 1 1 1 1 1 1
          1 1 1 1 1 1 1 1 1 1 1 1
          1 1 1 1 1 1 1 1 1 1 1 1
          1 1 1 1 1 1 1 1 1 1 1 1
          1 1 1 1 1 1 1 1 1 1 1 1
          1 1 1 1 1 1 1 1 1 1 1 1
          1 1 1 1 1 1 1 1 0.999979 0.999756 0.995695 0.998628
          0.999984 0.999984 0.999864 0.999983 1 1 1 0.999998 1 0.999993 1 0.999983
          0.999163 0.999378 0.999821 0.996225 0.993505 1 1 1 1 1 1 1
          1 1 1 1 1 1 0.999895 0.999891 0.999271 0.99989 0.999125 0.992452
          0.977419 0.995006 0.999992 0.99999 0.999808 0.999992 1 1 1 1 0.999998 1
          0.999988 0.999951 0.999922 0.999988 1 0.999903 0.99689 0.991357 0.999186 0.983748 0.954747 0.931614
          0.966413 0.949512 0.90954 0.890238 0.937062 0.997158 0.983216 0.977514 0.996201 0.999403 0.995876 0.982005
          0.993926 0.98952 0.980878 0.953528 0.966312 0.93661 0.922494 0.889081 0.905101 0.976542 0.955487 0.926192
          0.950972 0.975477 0.982913 0.957079 0.947362 0.992579 0.998384 0.990569 0.973997 0.947047 0.971156 0.945606
          0.91779 0.916169 0.927254 0.895204 0.882101 0.999957 1 0.999991 0.998389 1 0.999986 0.99999
          0.99999 0.999753 0.991545 0.999065 0.994613 0.975434 0.923922 0.895634 0.864524 0.896349 0.871637 0.854167
          0.817597 0.838216 0.803293 0.776017 0.723993 0.765066 0.869328 0.834172 0.804332 0.845177 0.84614 0.861153
          0.825513 0.806164 0.886314 0.917938 0.888976 0.854073 0.820945 0.860815 0.835269 0.785921 0.755781 0.785241
          0.735399 0.680457 0.951563 0.98215 0.963576 0.927298 0.996436 0.999878 0.998982 0.990257 0.981562 0.996663
          0.99503 0.975816 0.904671 0.946775 0.935723 0.886161 1 1 1 1 1 1
          1 1 1 1 1 1 1 1 1 1 1 1
          1 1 1 0.999997 1 1 0.999896 1 1 0.999763 1 1
          1 1 1 1 1 1 1 1 1 1 1 1
          1 1 1 1 1 1 1 1 1 1 1 1
          1 1 1 1 1 1 1 1 1 1 1 1
          1 1 1 1 1 1 1 1 1 1 1 1
          1 1 1 1 1 1 1 1 1 1 1 1
          1 1 1 1 1 1 1 1 1 1 1 1
          1 1 1 1 1 1 1 1 1 1 1 1
          1 0.999501 0.999498 0.99923 0.999358 1 1 0.999886 0.99995 1 1 1
          1 1 1 1 1 1 1 1 1 1 1 0.999996
          0.999996 1 1 0.999993 0.999993 0.998707 0.998706 0.998702 0.998704 0.998906 0.998903 0.998901
          0.998903 1 1 0.999991 0.999991 1 1 0.99999 0.99999 0.99851 0.998509 0.998502
          0.998504 0.998608 0.998607 0.998602 0.998604 1 1 0.999987 0.999987 1 1 0.999985
          0.999985 0.998314 0.998314 0.998304 0.998306 0.998412 0.998411 0.998403 0.998405 1 1 1
          1 1 1 1 1 1 1 1 1 1 1 1
          1 1 1 1 1 1 1 1 1 1 1 1
          1 1 1 1 1 1 1 1 0.999985 0.999985 1 1
          0.999982 0.999982 0.998217 0.998215 0.998204 0.998206 0.998314 0.998313 0.998303 0.998304 1 1
          0.999979 0.999979 0.9999 0.9999 0.99988 0.99988 0.998118 0.998117 0.998106 0.998107 0.998119 0.998119
          0.998107 0.998108 0.9999 0.9999 0.999877 0.999877 0.9999 0.9999 0.999877 0.999877 0.99802 0.99802
          0.998008 0.998008 0.998021 0.99802 0.998009 0.99801 1 1 1 1 1 1
          1 1 1 1 1 1 1 1 1 1 1 1
          1 1 1 1 1 1 1 1 1 1 1 1
          0.9999 0.9999 0.999877 0.999877 0.9999 0.9999 0.999873 0.999873 0.997924 0.997923 0.99791 0.997912
          0.99802 0.998019 0.998007 0.998008 0.9999 0.9999 0.999873 0.999873 0.9999 0.9999 0.999873 0.999873
          0.997923 0.997922 0.997909 0.99791 0.997923 0.997923 0.99791 0.99791 0.9999 0.9999 0.999869 0.999869
          0.9999 0.9999 0.999869 0.999869 0.997827 0.997827 0.997813 0.997813 0.997828 0.997827 0.997813 0.997814
          1 1 1 0.999819 0.999984 1 1 1 1 1 1 0.995571
          0.97602 0.98456 0.997922 0.931887 0.878458 0.883413 0.942069 0.971443 0.916118 0.969686 0.994328 0.999723
          0.994957 0.999669 0.999932 1 1 1 1 1 1 1 1 1
          0.999781 0.996489 0.999998 0.999998 1 1 0.826528 0.777192 0.768018 0.823726 0.724031 0.654348
          0.649907 0.712505 0.724523 0.669596 0.730835 0.777406 0.848484 0.783559 0.841607 0.912403 0.539921 0.669718
          0.67254 0.579761 0.751216 0.816935 0.828705 0.754257 0.79574 0.881822 0.959466 0.887698 0.633541 0.708751
          0.79686 0.722664 0.878915 0.935616 0.957602 0.899643 0.97724 0.994581 0.997155 0.989757 0.997298 0.997946
          0.998032 0.997997 0.952179 0.990329 0.997716 0.99279 0.983092 0.942998 0.994927 0.999114 0.892965 0.860611
          0.980695 0.987788 0.999604 0.999288 1 1 1 0.999985 1 1 0.867725 0.925873
          0.993253 0.982807 0.977555 0.995737 0.999992 0.99865 1 1 1 1 0.999406 0.999894
          1 1 0.999839 1 1 1 1 1 1 1 1 1
          1 1 1 1 1 1 1 1 1 1 1 1
          1 1 1 1 1 1 0.999533 0.999988 0.99999 0.999846 0.999998 0.999999
          0.999911 0.999996 0.999996 0.999963 1 1 1 1 1 1 1 1
          1 1 1 1 1 1 1 1 1 1 1 1
          1 1 1 1 1 1 1 1 1 1 1 1
          1 1 1 1 1 1 1 1 1 1 1 1
          1 1 1 1 1 1 1 1 1 1 1 1
          1 1 1 1 1 1 1 1 1 1 1 1
          1 1 1 1 1 1 1 1 1 1 1 1
          1 1 0.999899 0.999735 0.999815 0.999901 1 1 1 1 1 0.996898
          0.994648 0.996935 0.997761 0.985949 0.968481 0.99213 0.993923 0.998861 0.998284 0.998427 0.998912 1
          0.999993 0.999992 1 1 1 1 1 1 1 0.999988 0.999992 1
          0.998909 0.998444 0.998401 0.998876 0.998716 0.998239 0.99817 0.998659 1 0.999983 0.999987 1
          0.937124 0.897127 0.982021 0.985832 0.847694 0.794038 0.965179 0.973256 0.986491 0.982397 0.983939 0.987601
          0.994976 0.993199 0.993724 0.995353 0.738742 0.685161 0.935988 0.949865 0.634925 0.589901 0.900397 0.919073
          0.957422 0.95156 0.956715 0.96125 0.970949 0.964751 0.967554 0.973 0.55072 0.517347 0.854791 0.878859
          0.489178 0.465509 0.79855 0.827897 0.934641 0.929173 0.943582 0.946052 0.945612 0.940162 0.949063 0.952446
          0.99542 0.993807 0.993737 0.995365 0.98771 0.984019 0.983753 0.987521 0.987272 0.983424 0.983106 0.987047
          0.995253 0.993623 0.993535 0.995175 0.972998 0.967539 0.96703 0.972598 0.961355 0.956969 0.956491 0.960864
          0.960257 0.955878 0.955232 0.959617 0.972116 0.96642 0.965782 0.971619 0.95295 0.949864 0.949544 0.952547
          0.94723 0.94519 0.945102 0.947024 0.9466 0.944755 0.944367 0.946139 0.951987 0.949041 0.948503 0.951394
          1 1 1 1 1 1 0.999969 0.999974 1 0.998438 0.997958 0.997902
          0.998393 0.998251 0.997755 0.997698 0.998206 1 0.999958 0.999965 1 1 1 1
          1 1 1 1 1 1 0.999944 0.999951 0.999999 0.998069 0.997556 0.997499
          0.998021 0.997885 0.997365 0.997304 0.997837 0.9999 0.999833 0.999825 0.9999 0.995055 0.993428 0.993352
          0.994981 0.986817 0.982787 0.982498 0.986633 0.986441 0.982199 0.98191 0.986275 0.994871 0.993257 0.993184
          0.994799 0.971111 0.965128 0.964466 0.970605 0.958961 0.954573 0.953908 0.958296 0.95762 0.953237 0.952563
          0.956936 0.97009 0.963791 0.963109 0.969574 0.950792 0.94796 0.947419 0.950187 0.945674 0.943977 0.943596
          0.945215 0.944764 0.943224 0.942865 0.944322 0.949581 0.946882 0.94635 0.948975 0.9947 0.993097 0.993042
          0.994651 0.986111 0.981614 0.981331 0.985983 0.985858 0.98104 0.980756 0.985757 0.994584 0.992979 0.992931
          0.994542 0.969049 0.962413 0.961707 0.968521 0.95624 0.951882 0.951197 0.955534 0.954814 0.950505 0.949808
          0.954083 0.967983 0.960985 0.960252 0.967444 0.948369 0.945824 0.945304 0.947764 0.943888 0.942516 0.942181
          0.943465 0.943053 0.941861 0.941558 0.942657 0.947158 0.944791 0.944288 0.946555 0.44554 0.42868 0.734828
          0.76725 0.414342 0.402235 0.67029 0.702179 0.911086 0.90421 0.93642 0.937892 0.923459 0.917495 0.939554
          0.941403 0.392002 0.383486 0.612224 0.640062 0.376166 0.369603 0.564871 0.587128 0.880757 0.872251 0.931373
          0.932545 0.896827 0.889001 0.933775 0.935049 0.363527 0.35804 0.528216 0.545306 0.353038 0.34856 0.499624
          0.513151 0.846751 0.838226 0.927302 0.928237 0.863647 0.855143 0.929201 0.930244 0.943514 0.942223 0.942402
          0.943559 0.941185 0.940389 0.940847 0.941505 0.94139 0.940796 0.940664 0.941206 0.943296 0.942214 0.941969
          0.942983 0.939755 0.939264 0.940003 0.940354 0.938865 0.938545 0.939559 0.939744 0.939847 0.939701 0.939697
          0.939822 0.940362 0.940061 0.940008 0.940274 0.938274 0.938061 0.939322 0.939419 0.937899 0.937772 0.939231
          0.939261 0.939482 0.939468 0.939511 0.939517 0.939595 0.939525 0.939553 0.939607 0.344425 0.340649 0.475092
          0.487053 0.33708 0.333773 0.452198 0.463467 0.807232 0.793745 0.922042 0.923719 0.829104 0.81892 0.925118
          0.926284 0.330623 0.327713 0.43109 0.441321 0.324959 0.322439 0.413278 0.421657 0.743207 0.72524 0.912309
          0.914998 0.778342 0.761269 0.917652 0.920022 0.320068 0.317908 0.399733 0.405956 0.315874 0.314012 0.39002
          0.394437 0.680462 0.669823 0.905561 0.906284 0.708386 0.693347 0.907756 0.909829 0.937634 0.937481 0.939171
          0.939199 0.937292 0.93707 0.939105 0.939138 0.939435 0.939431 0.93949 0.93949 0.939451 0.939444 0.939494
          0.939497 0.936797 0.936478 0.939019 0.939064 0.93613 0.935859 0.939019 0.938978 0.939442 0.93954 0.939649
          0.939532 0.93943 0.93943 0.939507 0.939501 0.935752 0.935884 0.939588 0.939201 0.93639 0.937369 0.941528
          0.940331 0.941016 0.942298 0.942561 0.941206 0.939772 0.940209 0.940355 0.939897 0.942669 0.941722 0.941483
          0.942365 0.941018 0.940525 0.940391 0.940839 0.94067 0.940268 0.940156 0.940514 0.942072 0.941257 0.941044
          0.941791 0.940175 0.939938 0.939871 0.940079 0.939777 0.939668 0.939637 0.93973 0.939687 0.939607 0.939576
          0.939647 0.939992 0.939809 0.939754 0.939912 0.939586 0.939547 0.939535 0.93956 0.939521 0.939513 0.939539
          0.941524 0.940844 0.940657 0.941271 0.94037 0.940053 0.93996 0.940236 0.940114 0.939875 0.939798 0.940002
          0.941032 0.940484 0.940324 0.94081 0.939841 0.939705 0.939662 0.939778 0.939611 0.939558 0.939538 0.93958
          0.939556 0.93953 0.939523 0.939537 0.939721 0.939627 0.939596 0.939669 0.939525 0.939508 0.939504 0.939511
          0.939504 0.939502 0.939504 0.939504 0.939522 0.939557 0.939682 0.939675 0.939551 0.939561 0.939687 0.939675
          0.939552 0.939524 0.939935 0.94041 0.940439 0.939942 0.941304 0.942735 0.942891 0.941379 0.941448 0.943045
          0.943197 0.94151 0.939952 0.940464 0.94048 0.93995 0.939504 0.939524 0.939561 0.939684 0.939666 0.939549
          0.939549 0.939664 0.939647 0.939538 0.939515 0.939954 0.940494 0.940497 0.939941 0.941568 0.943349 0.9435
          0.941617 0.941662 0.94365 0.943801 0.941701 0.939933 0.940498 0.940493 0.939917 1 1 1
          1 1 1 1 1 1 1 1 0.9999 0.999807 0.999808 0.9999
          0.99772 0.997188 0.99718 0.997715 0.997715 0.997181 0.997184 0.997716 0.9999 0.999808 0.99981 0.9999
          1 1 1 1 1 1 1 1 1 1 1 0.9999
          0.99981 0.999813 0.9999 0.997721 0.997193 0.997226 0.997743 0.997811 0.997305 0.997369 0.997857 0.9999
          0.999822 0.999827 0.9999 0.994492 0.992883 0.992863 0.994486 0.985661 0.980467 0.980185 0.985587 0.985524
          0.979904 0.97963 0.985484 0.994486 0.99285 0.992849 0.994491 0.966896 0.959504 0.958739 0.966343 0.953337
          0.949106 0.948398 0.952577 0.951796 0.947682 0.946958 0.950991 0.965774 0.957948 0.957128 0.965191 0.945955
          0.943796 0.943319 0.94536 0.942278 0.941274 0.941011 0.941918 0.941578 0.940769 0.940548 0.941258 0.94477
          0.942856 0.942411 0.944187 0.994506 0.992858 0.99289 0.994545 0.985463 0.979354 0.979083 0.985475 0.985532
          0.978813 0.978549 0.985653 0.994614 0.992947 0.993026 0.994693 0.964582 0.956266 0.955356 0.963943 0.950155
          0.946224 0.94548 0.949286 0.948375 0.944728 0.943971 0.94742 0.963257 0.95438 0.953323 0.962502 0.94361
          0.941982 0.941574 0.943042 0.940961 0.940348 0.940169 0.940685 0.940432 0.94001 0.939869 0.940204 0.942487
          0.941188 0.940829 0.941951 1 1 1 1 1 1 1 1 1
          1 1 0.9999 0.999843 0.999849 0.9999 0.997989 0.99752 0.997615 0.998055 0.998261 0.997853
          0.997971 0.998339 0.9999 0.999867 0.99987 0.999901 1 1 1 1 1 1
          0.999979 0.999989 1 0.998635 0.998314 0.99847 0.998725 0.999207 0.999046 0.999156 0.999261 1
          0.999999 1 1 0.994826 0.993151 0.993306 0.994966 0.985855 0.978279 0.978006 0.986159 0.986609
          0.977734 0.977504 0.987221 0.995197 0.993541 0.99381 0.995403 0.961639 0.952162 0.950881 0.960622 0.946419
          0.943219 0.942485 0.945379 0.944313 0.941786 0.941144 0.943244 0.959385 0.949464 0.947909 0.957856 0.941443
          0.940504 0.94022 0.940975 0.940004 0.939748 0.939652 0.939837 0.939705 0.939583 0.939535 0.939606 0.94056
          0.939983 0.939796 0.940207 0.995767 0.99423 0.994729 0.996114 0.988064 0.977432 0.977714 0.989182 0.990853
          0.978856 0.982158 0.993042 0.996811 0.995576 0.996517 0.997334 0.955944 0.946226 0.944453 0.95354 0.942208
          0.940581 0.940119 0.941253 0.940442 0.939778 0.93957 0.939845 0.95047 0.942659 0.940973 0.946374 0.939923
          0.939658 0.939565 0.939712 0.939536 0.939502 0.939486 0.939496 0.93948 0.93957 0.939504 0.939475 0.939495
          0.940605 0.940178 0.940049 0.940419 0.939901 0.939728 0.939669 0.939813 0.93974 0.939622 0.939586 0.939678
          0.940253 0.939937 0.939841 0.940106 0.93962 0.939565 0.939539 0.939579 0.939526 0.939509 0.939548 0.939525
          0.939518 0.939528 0.939504 0.939977 0.939758 0.939689 0.939864 0.939624 0.939556 0.939529 0.939579 0.939546
          0.939517 0.939508 0.939521 0.939767 0.939633 0.939588 0.939684 0.939517 0.939499 0.939492 0.939499 0.939493
          0.9395 0.939515 0.939544 0.93965 0.939627 0.939533 0.93953 0.939619 0.9396 0.93952 0.939506 0.939908
          0.940486 0.940466 0.939883 0.941734 0.943951 0.944098 0.941755 0.941768 0.944242 0.944382 0.941768 0.939862
          0.940443 0.940411 0.939835 0.939493 0.939502 0.93952 0.939595 0.939573 0.939512 0.939508 0.939561 0.939543
          0.939501 0.939495 0.939812 0.940374 0.94032 0.939775 0.941755 0.944517 0.944642 0.94172 0.941667 0.944761
          0.944872 0.941593 0.939741 0.940259 0.940187 0.939701 0.93961 0.939546 0.939514 0.939554 0.939507 0.939488
          0.939516 0.939497 0.939488 0.939494 0.939488 0.939483 0.939483 0.939475 0.939469 0.939469 0.939473 0.939472
          0.939484 0.939489 0.939498 0.939533 0.939515 0.939492 0.939488 0.939502 0.939491 0.939485 0.939483 0.939665
          0.94011 0.940022 0.939622 0.941498 0.944976 0.945072 0.941377 0.941233 0.945154 0.945198 0.941058 0.939585
          0.939935 0.939847 0.939551 0.939472 0.939474 0.939483 0.939471 0.93947 0.939527 0.93976 0.939647 0.939499
          0.94083 0.945143 0.944882 0.940519 0.94019 0.944304 0.94299 0.939827 0.939482 0.93957 0.939503 0.939471
          1 1 1 1 1 1 1 1 1 1 1 1
          1 1 1 1 1 1 1 1 1 1 1 1
          1 1 1 1 1 1 0.999848 0.999714 1 0.9999 0.999624 0.99958
          0.9999 1 1 1 1 0.937536 0.926741 0.910151 0.917884 0.916736 0.908219 0.897106
          0.902997 0.89187 0.88824 0.881655 0.883776 0.902881 0.896713 0.88723 0.892429 1 1 1
          1 1 1 1 1 0.9998 0.999555 0.999541 0.9998 0.9997 0.99953 0.999521
          0.9997 1 1 1 1 0.8854 0.880562 0.875654 0.880324 0.877931 0.87689 0.87344
          0.873605 0.870249 0.870884 0.868916 0.867491 0.876319 0.87179 0.868528 0.872892 0.901508 0.896849 0.890242
          0.892831 0.894196 0.893504 0.890405 0.889409 0.886005 0.88861 0.88808 0.883978 0.885954 0.885159 0.881618
          0.880894 0.894789 0.898063 0.898119 0.893304 0.903305 0.910365 0.913123 0.904794 0.907323 0.916797 0.921223
          0.910731 0.89306 0.899338 0.901601 0.893983 0.91922 0.929866 0.934762 0.923158 0.942022 0.954529 0.959778
          0.947437 0.953036 0.964892 0.969645 0.958546 0.927873 0.940179 0.945844 0.933154 0.877363 0.879414 0.878264
          0.874995 0.883157 0.888654 0.89011 0.883307 0.884192 0.892228 0.894817 0.885612 0.873459 0.877899 0.878101
          0.872504 0.895897 0.904708 0.908422 0.89858 0.914825 0.926201 0.931507 0.919412 0.924312 0.936927 0.942265
          0.929355 0.901815 0.912538 0.916909 0.905412 0.938752 0.951497 0.956898 0.944411 0.96379 0.974018 0.977829
          0.968588 0.972958 0.981305 0.98416 0.976761 0.949923 0.961922 0.966448 0.955116 1 1 1
          1 1 1 1 1 0.9997 0.999512 0.999505 0.9997 0.9997 0.999496 0.999489
          0.9997 1 1 1 1 0.869753 0.865597 0.862839 0.86675 0.865094 0.867333 0.866005
          0.862911 0.860853 0.864852 0.863826 0.858862 0.863776 0.860155 0.857482 0.860775 1 1 1
          1 1 1 1 1 0.9996 0.99948 0.999473 0.9996 0.9996 0.999464 0.999456
          0.9996 1 1 1 1 0.857694 0.854779 0.852022 0.854514 0.856906 0.862901 0.862071
          0.854967 0.853046 0.861346 0.860751 0.851156 0.851203 0.849195 0.846299 0.847759 0.871952 0.878711 0.879623
          0.871689 0.887419 0.897728 0.900858 0.889508 0.891808 0.904133 0.907499 0.894276 0.871641 0.880768 0.882104
          0.871766 0.909216 0.921421 0.925978 0.913142 0.934399 0.947383 0.952174 0.939324 0.944055 0.956611 0.960663
          0.948534 0.917138 0.930506 0.934942 0.921168 0.959924 0.970522 0.974076 0.964279 0.980213 0.986916 0.988941
          0.983072 0.985754 0.991009 0.992159 0.987822 0.968239 0.977283 0.980026 0.971768 0.872046 0.883614 0.885294
          0.872478 0.89689 0.910933 0.914435 0.899643 0.902536 0.918005 0.921645 0.905576 0.873077 0.887155 0.889219
          0.873872 0.925206 0.939249 0.943395 0.929229 0.952751 0.964375 0.96773 0.956687 0.960371 0.970811 0.973581
          0.963793 0.933222 0.947373 0.951171 0.93717 0.974992 0.982578 0.984713 0.977825 0.989882 0.993451 0.99417
          0.991247 0.99263 0.995156 0.995655 0.993489 0.980452 0.986815 0.988431 0.982698 1 1 1
          1 1 1 1 1 1 1 1 1 1 1 1
          1 1 1 1 1 1 1 1 1 1 1 1
          1 1 1 1 1 1 1 1 1 1 1 1
          1 1 1 0.9999 0.9999 0.999869 0.999869 0.9999 0.9999 0.999869 0.999869 0.997827
          0.997827 0.997812 0.997813 0.997827 0.997827 0.997813 0.997813 0.9999 0.9999 0.999869 0.999869 0.9999
          0.9999 0.999865 0.999865 0.997732 0.99773 0.997716 0.997717 0.997827 0.997826 0.997811 0.997812 0.9999
          0.9999 0.999864 0.999865 0.9999 0.9999 0.999864 0.999864 0.99773 0.99773 0.997716 0.997716 0.99773
          0.99773 0.997716 0.997716 1 1 1 1 1 1 1 1 1
          1 1 1 1 1 1 1 1 1 1 1 1