<?xml version="1.0"?>
<VTKFile type="UnstructuredGrid" version="0.1" byte_order="LittleEndian">
  <UnstructuredGrid>
    <Piece NumberOfCells="5802" NumberOfPoints="6087">
      <CellData Scalars="S_aq">
        <DataArray type="Float32" Name="S_aq" NumberOfComponents="1" format="ascii">
          1 1 1 1 1 1 1 1 1 1 1 1
          1 1 1 1 1 1 1 1 1 1 1 1
          1 1 1 1 1 1 1 1 1 1 1 1
          1 1 1 1 1 1 1 1 1 1 1 1
          1 1 1 1 1 1 1 1 1 1 1 1
          1 1 1 1 1 1 1 1 1 1 1 1
          1 1 1 1 1 1 1 1 1 1 1 1
          1 1 1 1 1 1 1 1 1 1 1 1
          1 1 1 1 1 1 1 1 1 1 1 1
          1 1 1 1 1 1 1 1 1 1 1 1
          1 1 1 1 1 1 1 1 1 1 1 1
          1 1 1 1 1 1 1 1 1 1 1 1
          1 1 1 1 1 1 1 1 1 1 1 1
          1 1 1 1 1 1 1 1 1 1 1 1
          1 1 1 1 1 1 1 1 1 1 1 1
          1 1 1 1 1 1 1 1 1 1 1 1
          1 1 1 1 1 1 1 1 1 1 1 1
          1 1 1 1 1 1 1 1 1 1 1 1
          1 1 1 1 1 1 1 1 1 1 1 1
          1 1 1 1 1 1 1 1 1 1 1 1
          1 1 1 1 1 1 1 1 1 1 1 1
          1 1 1 1 1 1 1 1 1 1 1 1
          1 1 1 1 1 1 1 1 1 1 1 1
          1 1 1 1 1 1 1 1 1 1 1 1
          1 1 1 1 1 1 1 1 1 1 1 1
          1 1 1 1 1 1 1 1 1 1 1 1
          1 1 1 1 1 1 1 1 1 1 1 1
          1 1 1 1 1 1 1 1 1 1 1 1
          1 1 1 1 1 1 1 1 1 1 1 1
          1 1 1 1 1 1 1 1 1 1 1 1
          1 1 1 1 1 1 1 1 1 1 1 1
          1 1 1 1 1 1 1 1 1 1 1 1
          1 1 1 1 1 1 1 1 1 1 1 1
          1 1 1 1 1 1 1 1 1 1 1 1
          1 1 1 1 1 1 1 1 1 1 1 1
          1 1 1 1 1 1 1 1 1 1 1 1
          1 1 1 1 1 1 1 1 1 1 1 1
          1 1 1 1 1 1 1 1 1 1 1 1
          1 1 1 1 1 1 1 1 1 1 1 1
          1 1 1 1 1 1 1 1 1 1 1 1
          1 1 1 0.999995 0.999995 1 1 0.999999 0.999999 1 1 1
          1 1 1 1 1 1 1 1 1 1 0.999989 0.999989
          0.999399 0.999394 0.999174 0.999194 0.9999 0.9999 0.999881 0.999881 0.9998 0.999799 0.999724 0.999727
          0.999599 0.999598 0.999461 0.999465 0.997974 0.997951 0.997193 0.997244 0.998497 0.998469 0.997919 0.997992
          1 1 1 1 1 1 1 1 1 1 1 1
          1 1 1 1 1 1 1 1 1 1 1 1
          1 1 1 1 1 1 1 1 1 1 1 1
          1 1 1 1 1 1 1 1 1 1 1 1
          1 1 1 1 1 1 1 1 1 1 1 1
          1 1 1 1 1 1 1 1 0.999998 0.999997 1 1
          1 1 1 0.999698 0.999699 0.999589 0.999586 0.999899 0.9999 0.999869 0.999866 0.998956
          0.998994 0.998693 0.998596 0.998148 0.998172 0.997538 0.997472 1 1 0.999999 0.999999 1
          0.999999 1 1 0.999999 0.999787 0.9998 0.999756 0.999729 1 1 1 1
          1 1 1 1 1 1 1 1 1 1 1 1
          1 1 1 1 1 1 1 1 1 1 1 1
          1 1 1 1 1 1 1 1 1 1 1 1
          1 1 1 1 1 1 1 1 1 1 1 1
          1 1 1 1 1 1 1 1 1 1 1 1
          1 1 1 1 1 1 1 1 1 0.999993 0.999994 1
          1 1 1 1 0.9999 0.9999 0.999886 0.999886 0.999299 0.99929 0.999029 0.999064
          1 1 0.999998 0.999998 0.999198 0.999187 0.998865 0.998906 0.997492 0.997385 0.996384 0.996623
          0.994146 0.993659 0.991551 0.992355 0.996999 0.996821 0.995645 0.996007 0.995839 0.995638 0.994091 0.994451
          0.994816 0.994709 0.992958 0.993127 0.989867 0.98962 0.986681 0.986974 0.991509 0.990918 0.988067 0.988939
          0.999699 0.999698 0.999583 0.999592 0.997298 0.997135 0.996051 0.996391 0.993953 0.993297 0.99119 0.992291
          0.998203 0.998123 0.997434 0.997637 0.9935 0.992826 0.990524 0.991641 0.989105 0.987874 0.98476 0.986385
          0.982771 0.980823 0.977411 0.979655 0.98843 0.986782 0.983691 0.985837 0.985187 0.984088 0.980751 0.982051
          0.983066 0.982759 0.979418 0.979727 0.97586 0.975583 0.972116 0.972347 0.978252 0.976832 0.973294 0.97483
          1 1 1 1 1 1 1 1 1 0.999499 0.99946 0.999203
          0.999331 0.997703 0.997506 0.99667 0.997009 1 1 0.999997 0.999999 1 1 1
          1 1 1 1 1 1 1 1 0.9998 0.999652 0.999453 0.999727
          0.994854 0.994167 0.992534 0.993638 0.991251 0.989553 0.987205 0.989473 0.998499 0.998106 0.997572 0.998036
          0.995498 0.995024 0.993457 0.99426 0.989354 0.987631 0.984753 0.987046 0.983909 0.98111 0.977982 0.981278
          0.99168 0.990406 0.987873 0.989743 0.982435 0.97988 0.976563 0.979504 0.976037 0.973613 0.970138 0.972733
          0.969197 0.966517 0.963126 0.965884 0.976104 0.972915 0.969574 0.972999 0.971109 0.969525 0.966041 0.967657
          0.968632 0.968469 0.965109 0.965192 0.961726 0.961741 0.958613 0.958482 0.964108 0.962508 0.959192 0.960766
          0.986859 0.984385 0.98154 0.984636 0.978135 0.974485 0.971312 0.97531 0.972191 0.967968 0.964825 0.969276
          0.981807 0.978181 0.975233 0.979389 0.969661 0.9661 0.96283 0.966522 0.962486 0.959703 0.956443 0.959247
          0.955973 0.953179 0.95002 0.9528 0.963267 0.959503 0.956302 0.96014 0.957409 0.955887 0.952739 0.954201
          0.95527 0.955539 0.952662 0.952229 0.949256 0.949882 0.947291 0.946435 0.951007 0.949632 0.946651 0.947922
          1 1 1 1 1 1 1 1 1 1 1 1
          1 1 1 1 1 1 1 1 1 1 1 1
          1 1 1 0.999944 0.99992 1 1 0.999634 0.999566 1 1 0.996048
          0.995611 0.994457 0.995195 0.986826 0.984028 0.981457 0.984954 0.982542 0.978409 0.975729 0.980523 0.993329
          0.992049 0.99035 0.992281 1 1 1 1 1 1 0.999073 0.998993 1
          0.9999 0.998393 0.998139 0.999899 1 1 1 1 0.9904 0.987629 0.98567 0.98923
          0.978103 0.97275 0.969946 0.97591 0.973358 0.966865 0.963778 0.97087 0.987375 0.983008 0.98079 0.986059
          0.976581 0.972028 0.969066 0.974019 0.966196 0.961595 0.958476 0.963235 0.960149 0.955274 0.95209 0.957093
          0.971193 0.965945 0.962937 0.968495 0.956949 0.953069 0.9499 0.953825 0.949609 0.946865 0.943771 0.946469
          0.943293 0.940666 0.937581 0.940116 0.950628 0.94668 0.943454 0.947422 0.944859 0.943722 0.940897 0.941872
          0.943701 0.944829 0.942564 0.941113 0.938637 0.94047 0.938611 0.936326 0.938904 0.938133 0.935473 0.935991
          0.965573 0.959768 0.956578 0.962658 0.953887 0.948782 0.945394 0.950609 0.947121 0.941815 0.938056 0.943451
          0.959494 0.953174 0.949622 0.956208 0.944103 0.940137 0.936747 0.940696 0.936873 0.934472 0.931363 0.933584
          0.930207 0.928234 0.925124 0.926766 0.937116 0.93322 0.929567 0.933369 0.933103 0.932901 0.930467 0.930278
          0.934178 0.936991 0.935683 0.932253 0.93058 0.934721 0.934189 0.929243 0.927513 0.928187 0.926134 0.924868
          1 1 1 1 1 1 1 1 0.9998 0.997683 0.997504 0.9998
          0.9998 0.997119 0.996812 0.999801 1 1 1 1 0.984237 0.978045 0.975433 0.982729
          0.96803 0.960377 0.956773 0.96506 0.961579 0.952677 0.948067 0.957655 0.980717 0.972269 0.968933 0.978801
          1 1 0.999961 0.996279 0.996814 1 1 0.997325 0.999215 1 1 0.976442
          0.964904 0.960258 0.974344 0.952897 0.942625 0.936145 0.947104 0.9394 0.92812 0.918244 0.928887 0.970751
          0.953618 0.943249 0.963856 0.9526 0.945762 0.94159 0.948699 0.939479 0.934023 0.929705 0.935188 0.930462
          0.925027 0.919999 0.925269 0.944295 0.936942 0.931762 0.939331 0.929392 0.925753 0.921807 0.925189 0.923255
          0.922056 0.919111 0.919731 0.916257 0.916379 0.91401 0.912968 0.920733 0.917749 0.913683 0.916082 0.922385
          0.924365 0.922989 0.920165 0.928306 0.934147 0.934683 0.927874 0.928035 0.935858 0.937732 0.928893 0.91831
          0.922105 0.921844 0.916965 0.933576 0.925897 0.919298 0.92689 0.919538 0.914631 0.909073 0.913323 0.906782
          0.903594 0.898655 0.900377 0.919044 0.911948 0.904168 0.910106 0.911324 0.90975 0.906187 0.906676 0.910029
          0.912163 0.911025 0.907662 0.906073 0.910746 0.911439 0.90544 0.902434 0.903257 0.901216 0.898955 0.916269
          0.922317 0.923624 0.91637 0.930524 0.940329 0.943615 0.932976 0.936247 0.947529 0.951885 0.940253 0.917368
          0.925821 0.928904 0.919324 0.995069 0.995229 0.993724 0.993446 0.996585 0.996869 0.99599 0.995467 0.992834
          0.99368 0.99201 0.990738 0.990269 0.990699 0.98807 0.987465 0.998639 0.998795 0.998517 0.998219 0.999879
          0.9999 0.999886 0.999853 0.999125 0.999298 0.999185 0.998911 0.996281 0.996899 0.99625 0.995264 1
          1 1 1 1 1 0.999994 1 0.999999 0.999992 0.983615 0.984412 0.981388
          0.980359 0.987296 0.988997 0.986671 0.984545 0.981087 0.983598 0.981131 0.978157 0.976575 0.977809 0.974657
          0.973192 0.993003 0.994435 0.993399 0.991428 0.997457 0.998005 0.997755 0.996957 0.995436 0.996598 0.996207
          0.994695 0.988759 0.991386 0.989939 0.986712 0.999736 0.9998 0.999787 0.999702 0.999999 1 1
          1 0.999994 1 1 0.999994 0.999081 0.999299 0.99927 0.998995 1 1 1
          1 1 1 1 1 1 0.969623 0.971297 0.968279 0.966372 0.974935 0.978289
          0.975918 0.972136 0.969298 0.973447 0.971383 0.966826 0.963119 0.965252 0.962524 0.960137 0.984062 0.987717
          0.986276 0.982086 0.993194 0.995089 0.994666 0.992409 0.991122 0.993756 0.993395 0.990402 0.979864 0.984454
          0.983241 0.97817 0.998319 0.998796 0.998738 0.998171 0.99988 0.9999 0.9999 0.999878 0.999846 0.9999
          0.999899 0.999844 0.997457 0.998197 0.998142 0.997317 0.957231 0.959884 0.957518 0.95456 0.96445 0.969389
          0.967781 0.962415 0.960567 0.966355 0.965315 0.959067 0.952021 0.955312 0.953392 0.949719 0.976461 0.981905
          0.981064 0.975222 0.989391 0.992736 0.992505 0.988896 0.988312 0.99214 0.992091 0.988165 0.974122 0.980271
          0.979921 0.973465 0.996837 0.997794 0.997761 0.996751 0.999717 0.9998 0.999799 0.999715 0.999603 0.9997
          0.999701 0.999605 0.996506 0.99759 0.997588 0.996497 1 1 1 1 1 1
          1 1 1 1 1 1 1 1 1 1 1 1
          0.999999 1 1 0.999999 1 1 1 1 1 1 1 1
          1 1 1 1 1 1 1 1 1 1 1 1
          1 1 1 1 1 1 0.947597 0.951694 0.950311 0.945733 0.957822 0.964523
          0.964112 0.956943 0.95639 0.964015 0.964314 0.956246 0.944105 0.949216 0.94849 0.942787 0.973033 0.979721
          0.979864 0.972989 0.988087 0.992063 0.992172 0.988271 0.988644 0.992427 0.992686 0.989132 0.973235 0.980231
          0.98085 0.973834 0.996494 0.997592 0.997619 0.996553 0.999701 0.9998 0.9998 0.999704 0.999722 0.9998
          0.999801 0.999727 0.996771 0.997791 0.997839 0.996888 0.941785 0.948133 0.948216 0.941176 0.956497 0.964972
          0.966004 0.957192 0.958338 0.967414 0.969129 0.959933 0.940993 0.948757 0.949803 0.941311 0.974765 0.981763
          0.982787 0.97596 0.989948 0.993251 0.993594 0.990624 0.991747 0.994416 0.994749 0.99241 0.977521 0.984196
          0.985445 0.979172 0.997349 0.998192 0.998239 0.997481 0.999852 0.9999 0.9999 0.999855 0.999879 0.9999
          0.9999 0.99988 0.998105 0.998694 0.998725 0.998204 1 1 1 1 1 1
          1 1 1 1 1 1 1 1 1 1 1 1
          1 1 1 1 1 1 0.942172 0.951371 0.953453 0.94363 0.961991 0.971205
          0.973419 0.964415 0.967258 0.975975 0.978403 0.970265 0.945713 0.956048 0.959052 0.948409 0.981229 0.987202
          0.988425 0.983088 0.993651 0.995691 0.995961 0.994217 0.995551 0.996981 0.997154 0.995953 0.985469 0.99036
          0.991316 0.987229 0.998853 0.999197 0.999211 0.99891 0.999993 1 1 0.999994 0.999999 1
          1 0.999999 0.999449 0.999599 0.999603 0.99947 0.951711 0.962467 0.96604 0.955484 0.973635 0.981241
          0.983564 0.976821 0.980408 0.986589 0.988385 0.983237 0.959688 0.969867 0.973453 0.964013 0.989759 0.993118
          0.99375 0.991091 0.997329 0.998187 0.998264 0.997551 0.998802 0.999196 0.999212 0.998881 0.993299 0.995411
          0.995801 0.994106 0.999856 0.9999 0.9999 0.999858 1 1 1 1 1 0.999993
          1 1 0.999994 1 1 1 1 1 1 1 1 1
          1 1 1 1 1 1 1 1 1 1 1 1
          1 1 1 1 1 1 1 1 1 1 1 1
          1 1 1 1 1 1 1 1 1 1 1 1
          1 1 1 1 1 1 1 1 1 1 1 1
          1 1 1 1 1 1 1 1 1 1 1 1
          1 1 1 1 1 1 1 1 1 1 1 1
          1 1 1 1 1 1 1 1 1 1 1 1
          1 1 1 0.999999 0.999656 0.99998 1 1 1 0.999997 0.999994 1
          0.999801 0.99911 1 1 1 1 0.999997 0.999981 0.998812 0.99222 0.999438 1
          1 1 1 0.999999 1 0.999999 0.999623 0.996926 0.999952 0.994157 0.973001 0.947119
          0.981241 0.962904 0.920461 0.896866 0.948168 0.999322 0.991541 0.986237 0.998711 0.999989 0.999719 0.994897
          0.999386 0.99791 0.994096 0.973148 0.985658 0.955936 0.938352 0.898227 0.918533 0.992336 0.976024 0.944182
          0.971262 0.990866 0.994871 0.975278 0.965151 0.998537 0.999912 0.997466 0.989028 0.96222 0.983971 0.956657
          0.926939 0.928403 0.941272 0.902073 0.88719 0.999963 1 0.999999 0.996043 0.99987 0.998151 0.984713
          0.940626 0.907732 0.869615 0.907689 0.877993 0.855725 0.812985 0.837838 0.797587 0.766657 0.710872 0.755129
          0.8743 0.83323 0.798602 0.845049 0.843881 0.860491 0.818892 0.798123 0.888628 0.923702 0.889023 0.850035
          0.811964 0.85551 0.82535 0.772961 0.743285 0.774171 0.720845 0.664507 0.960683 0.989729 0.97257 0.93292
          0.998814 0.999991 0.999827 0.99478 0.987564 0.998648 0.998102 0.982163 0.905238 0.952967 0.93854 0.88176
          1 1 1 1 1 1 1 1 1 1 1 1
          1 1 1 1 1 1 0.999996 1 1 1 1 1
          1 1 1 1 1 1 1 1 1 1 1 1
          1 1 1 1 1 1 1 1 1 1 1 1
          1 1 1 1 1 1 1 1 1 1 1 1
          1 1 1 1 1 1 1 1 1 1 1 1
          1 1 1 1 1 1 1 1 1 1 1 1
          1 1 1 1 1 1 1 1 1 1 1 1
          1 1 1 1 1 1 1 1 1 1 0.9995 0.999499
          0.999307 0.999415 1 1 0.999968 0.999982 1 1 1 1 1 1
          1 1 1 1 1 1 1 1 0.999999 0.999999 1 1
          0.999998 0.999998 0.998702 0.998702 0.998701 0.998701 0.998902 0.998901 0.9989 0.998901 1 1
          0.999997 0.999997 1 1 0.999996 0.999996 0.998504 0.998503 0.998501 0.998501 0.998603 0.998603
          0.998601 0.998601 1 1 0.999995 0.999996 1 1 0.999995 0.999995 0.998305 0.998305
          0.998302 0.998302 0.998404 0.998404 0.998401 0.998402 1 1 1 1 1 1
          1 1 1 1 1 1 1 1 1 1 1 1
          1 1 1 1 1 1 1 1 1 1 1 1
          1 1 1 1 1 0.999995 0.999995 1 1 0.999993 0.999994 0.998206
          0.998206 0.998202 0.998202 0.998305 0.998305 0.998301 0.998302 1 1 0.999992 0.999992 0.9999
          0.9999 0.999893 0.999893 0.998106 0.998106 0.998102 0.998102 0.998107 0.998107 0.998103 0.998103 0.9999
          0.9999 0.999891 0.999892 0.9999 0.9999 0.999891 0.999891 0.998008 0.998008 0.998003 0.998003 0.998008
          0.998008 0.998003 0.998004 1 1 1 1 1 1 1 1 1
          1 1 1 1 1 1 1 1 1 1 1 1
          1 1 1 1 1 1 1 1 1 0.9999 0.9999 0.999891
          0.999891 0.9999 0.9999 0.99989 0.99989 0.997909 0.997909 0.997904 0.997904 0.998008 0.998007 0.998003
          0.998003 0.9999 0.9999 0.99989 0.99989 0.9999 0.9999 0.99989 0.99989 0.997909 0.997908 0.997903
          0.997904 0.997909 0.997909 0.997904 0.997904 0.9999 0.9999 0.999888 0.999888 0.9999 0.9999 0.999888
          0.999888 0.99781 0.99781 0.997805 0.997805 0.997811 0.99781 0.997805 0.997805 1 1 0.999989
          1 1 0.997767 0.983301 0.990783 0.999483 0.940604 0.881382 0.886623 0.951065 0.977184 0.919779
          0.970009 0.995341 0.999949 0.99713 0.999912 0.999984 1 1 1 0.999851 0.996683 0.999999
          0.999999 1 1 0.822298 0.767259 0.757173 0.818896 0.709965 0.637369 0.632229 0.697619 0.709895
          0.651433 0.711957 0.763893 0.845186 0.773724 0.834552 0.910523 0.52178 0.651489 0.652986 0.559549 0.734225
          0.802591 0.812165 0.735274 0.775244 0.865708 0.95128 0.871232 0.611778 0.687296 0.775263 0.699537 0.86971
          0.933693 0.95489 0.889276 0.979852 0.996342 0.998187 0.990973 0.998044 0.998639 0.998654 0.998651 0.944771
          0.989393 0.998268 0.991806 0.982625 0.939932 0.995337 0.999312 0.880132 0.839618 0.969865 0.981778 0.998959
          0.998509 1 1 0.999998 0.84408 0.910452 0.989893 0.971622 0.972095 0.995364 1 0.998373
          1 0.998612 0.999657 1 1 0.999808 1 1 1 1 1 1
          1 1 1 1 1 1 1 1 1 1 1 1
          1 1 1 1 1 1 1 1 1 0.999886 0.999999 0.999999
          0.999979 1 1 0.99999 1 1 0.999998 1 1 1 1 1
          1 1 1 1 1 1 1 1 1 1 1 1
          1 1 1 1 1 1 1 1 1 1 1 1
          1 1 1 1 1 1 1 1 1 1 1 1
          1 1 1 1 1 1 1 1 1 1 1 1
          1 1 1 1 1 1 1 1 1 1 1 1
          1 1 1 1 1 1 1 1 1 1 1 1
          1 1 1 1 1 0.9999 0.999842 0.999857 0.9999 1 1 1
          1 1 0.997077 0.995839 0.996825 0.997458 0.987715 0.975709 0.990425 0.992277 0.998886 0.998617
          0.998664 0.998905 1 0.999998 0.999997 1 1 1 1 1 1 1
          0.999996 0.999997 1 0.998904 0.998681 0.998663 0.998891 0.998708 0.998476 0.998446 0.998682 1
          0.999994 0.999996 1 0.945567 0.910054 0.977764 0.981385 0.862967 0.811581 0.961058 0.967975 0.985797
          0.982715 0.984293 0.98688 0.994863 0.993702 0.994081 0.995115 0.757781 0.705211 0.934924 0.946497 0.655195
          0.609855 0.904032 0.919639 0.956287 0.951245 0.956412 0.960334 0.969417 0.964402 0.96752 0.971787 0.569745
          0.535041 0.86546 0.885624 0.505312 0.480071 0.817446 0.842595 0.935374 0.930694 0.943349 0.945635 0.945274
          0.940511 0.948744 0.951831 0.99523 0.99423 0.994179 0.995192 0.987189 0.984625 0.984399 0.987027 0.986744
          0.98405 0.983745 0.986527 0.995053 0.994036 0.993967 0.994999 0.972064 0.967802 0.967334 0.971696 0.960744
          0.956946 0.956529 0.960326 0.959735 0.95592 0.955265 0.959102 0.971189 0.966706 0.966046 0.97067 0.95261
          0.949771 0.949528 0.952293 0.947007 0.945081 0.945075 0.946891 0.946504 0.944762 0.944382 0.946057 0.951763
          0.949047 0.948512 0.951182 1 1 1 1 1 1 0.999989 0.999991 1
          0.998417 0.998183 0.998157 0.998395 0.998222 0.997979 0.997952 0.998199 1 0.999984 0.999987 1
          1 1 1 1 1 1 1 1 1 0.999978 0.999982 1
          0.99803 0.997777 0.997748 0.998005 0.997838 0.997581 0.997548 0.997811 0.9999 0.999874 0.999871 0.9999
          0.994854 0.993826 0.993766 0.9948 0.986241 0.983386 0.983122 0.986074 0.985854 0.98281 0.982543 0.985697
          0.994664 0.993639 0.993579 0.99461 0.970112 0.965343 0.964645 0.969577 0.958437 0.954584 0.9539 0.957769
          0.95708 0.953204 0.952513 0.956393 0.969008 0.963914 0.96319 0.968458 0.950581 0.947963 0.947419 0.949981
          0.945597 0.943991 0.943609 0.945144 0.944698 0.943238 0.942881 0.944264 0.949376 0.946876 0.946344 0.948778
          0.994479 0.993457 0.993415 0.994445 0.985497 0.982235 0.981981 0.985378 0.985233 0.981694 0.981446 0.985143
          0.99437 0.993341 0.993303 0.994339 0.967879 0.962435 0.961686 0.967319 0.95569 0.951814 0.951119 0.954987
          0.954261 0.950409 0.949697 0.953529 0.966728 0.960901 0.960114 0.966148 0.948179 0.945816 0.945298 0.947586
          0.943837 0.942532 0.942194 0.943419 0.943006 0.941864 0.941545 0.942602 0.946985 0.944779 0.944265 0.946383
          0.458614 0.440436 0.761127 0.790059 0.424935 0.411834 0.701455 0.73129 0.915419 0.909924 0.936541 0.93786
          0.92569 0.920746 0.939468 0.941165 0.400715 0.391439 0.645039 0.672428 0.383435 0.376292 0.596989 0.61979
          0.891467 0.884948 0.932087 0.933073 0.904011 0.897892 0.934166 0.935268 0.369687 0.363746 0.558666 0.576642
          0.358316 0.353461 0.528107 0.542649 0.865574 0.859171 0.928633 0.929404 0.878355 0.871921 0.930236 0.931103
          0.943344 0.942109 0.942367 0.943478 0.94104 0.940274 0.940797 0.941437 0.941366 0.94079 0.940669 0.941196
          0.943255 0.942218 0.941982 0.942956 0.939623 0.939151 0.939939 0.940285 0.938747 0.938441 0.939485 0.93967
          0.939828 0.939683 0.939696 0.939819 0.940343 0.940048 0.940009 0.940269 0.938162 0.937955 0.939228 0.939331
          0.937784 0.93766 0.939122 0.939158 0.939447 0.939431 0.939495 0.939501 0.93957 0.939495 0.939542 0.939602
          0.348956 0.344843 0.501171 0.514405 0.340934 0.337314 0.475237 0.488096 0.835617 0.82516 0.924416 0.925713
          0.852281 0.84457 0.926836 0.927769 0.333853 0.330667 0.450767 0.462675 0.327654 0.324914 0.429842 0.43972
          0.784373 0.768969 0.917286 0.919201 0.813012 0.799292 0.921119 0.922863 0.322337 0.320007 0.413625 0.421125
          0.317813 0.315818 0.401655 0.407146 0.726303 0.714647 0.912171 0.912806 0.753791 0.739437 0.91394 0.915488
          0.937512 0.937368 0.939046 0.939078 0.937193 0.937002 0.938974 0.93901 0.939391 0.939385 0.93947 0.93947
          0.939409 0.9394 0.939474 0.939477 0.936756 0.936501 0.938878 0.938922 0.936241 0.93606 0.938898 0.938851
          0.939393 0.939486 0.939623 0.939514 0.939375 0.939373 0.939482 0.939476 0.936025 0.936183 0.93946 0.939092
          0.936725 0.937638 0.941358 0.940229 0.940982 0.942199 0.94248 0.941198 0.939727 0.940142 0.940313 0.93988
          0.942646 0.941735 0.941495 0.942344 0.94101 0.94053 0.940394 0.94083 0.940659 0.940266 0.94015 0.940502
          0.942054 0.941267 0.941053 0.941778 0.940171 0.939942 0.939872 0.940073 0.939777 0.939671 0.939639 0.93973
          0.939684 0.939607 0.939576 0.93964 0.939983 0.939807 0.939747 0.939901 0.939589 0.93954 0.939522 0.939563
          0.939509 0.939496 0.939537 0.939512 0.939502 0.939513 0.941512 0.940851 0.940662 0.941259 0.940357 0.940044
          0.939946 0.940222 0.940091 0.93985 0.939754 0.939962 0.941015 0.940479 0.940302 0.940778 0.939825 0.939691
          0.939637 0.939754 0.939595 0.939542 0.939507 0.939548 0.939498 0.939472 0.939437 0.939445 0.939684 0.939584
          0.939528 0.939612 0.939494 0.939471 0.939438 0.939446 0.939488 0.939486 0.939473 0.939475 0.939507 0.939549
          0.939664 0.939662 0.939544 0.939551 0.939668 0.939653 0.939537 0.939505 0.939926 0.940374 0.940397 0.939934
          0.941299 0.942649 0.942786 0.941365 0.941421 0.942917 0.943044 0.941468 0.939938 0.940411 0.940416 0.939928
          0.939447 0.93949 0.93954 0.939654 0.939628 0.939522 0.93951 0.939612 0.939578 0.939481 0.939454 0.939922
          0.940417 0.940408 0.939898 0.94151 0.943172 0.9433 0.941545 0.941575 0.943431 0.943566 0.941601 0.939876
          0.940395 0.940372 0.939841 1 1 1 1 1 1 1 1 1
          1 1 0.9999 0.999863 0.999863 0.9999 0.997651 0.997388 0.997384 0.997648 0.997648 0.997384
          0.997385 0.997648 0.9999 0.999863 0.999864 0.9999 1 1 1 1 1 1
          1 1 1 1 1 0.9999 0.999864 0.999865 0.9999 0.99765 0.997388 0.997404
          0.997662 0.997744 0.997492 0.997524 0.997769 0.9999 0.999869 0.99987 0.9999 0.994271 0.99324 0.993225
          0.994266 0.985033 0.981173 0.980926 0.98496 0.984878 0.98066 0.980424 0.984836 0.994266 0.993213 0.99321
          0.994267 0.965543 0.959298 0.958476 0.96495 0.952773 0.948968 0.948227 0.952003 0.95119 0.947451 0.946632
          0.950329 0.964323 0.957605 0.956695 0.963689 0.945774 0.943749 0.943231 0.945156 0.9422 0.941229 0.940913
          0.941798 0.941379 0.940581 0.940216 0.940927 0.944511 0.942692 0.942121 0.943827 0.994273 0.993212 0.993234
          0.994299 0.984792 0.980164 0.979911 0.984776 0.984784 0.979635 0.979362 0.984852 0.994371 0.99329 0.993345
          0.994425 0.963002 0.955696 0.954593 0.962272 0.949378 0.945729 0.944714 0.948308 0.94705 0.943525 0.942107
          0.945541 0.961441 0.953308 0.951782 0.960477 0.94307 0.941484 0.94075 0.942209 0.940413 0.939787 0.939258
          0.939801 0.939039 0.938578 0.937691 0.938073 0.941186 0.939863 0.938774 0.939952 1 1 1
          1 1 1 1 1 1 1 1 0.9999 0.999878 0.999879 0.9999
          0.997933 0.997699 0.997745 0.997967 0.998221 0.998019 0.998071 0.998258 0.9999 0.999888 0.999888 0.9999
          1 1 1 1 1 1 0.999993 0.999996 1 0.99861 0.998453 0.998514
          0.998649 0.999201 0.999127 0.999162 0.99922 1 1 1 1 0.994569 0.993472 0.993582
          0.994668 0.984987 0.979034 0.978624 0.985191 0.985543 0.978055 0.977253 0.985994 0.994942 0.993835 0.994017
          0.995084 0.95926 0.949892 0.94755 0.957675 0.943693 0.940391 0.938343 0.94145 0.938787 0.935962 0.933345
          0.935787 0.955529 0.944665 0.941262 0.952673 0.938445 0.937424 0.935781 0.936634 0.936847 0.936542 0.935091
          0.935323 0.933504 0.93334 0.931362 0.931465 0.934525 0.933847 0.931702 0.932206 0.995508 0.994451 0.994784
          0.995741 0.986747 0.976236 0.975196 0.987598 0.989186 0.974914 0.977188 0.991137 0.996608 0.995714 0.996246
          0.996902 0.948995 0.937466 0.933557 0.944522 0.932636 0.930676 0.928227 0.929637 0.927121 0.926273 0.925009
          0.925367 0.939324 0.929875 0.926783 0.933272 0.929848 0.929507 0.927493 0.927694 0.92936 0.929307 0.927398
          0.927415 0.925863 0.925866 0.924869 0.924864 0.925993 0.925897 0.924874 0.924906 0.940543 0.940122 0.939934
          0.940302 0.939828 0.939649 0.939531 0.939681 0.93951 0.939386 0.939193 0.939295 0.940042 0.939723 0.939471
          0.939746 0.939527 0.93946 0.939384 0.939427 0.939385 0.939229 0.939217 0.939064 0.939076 0.939293 0.939257
          0.939082 0.939109 0.939357 0.939348 0.939183 0.939179 0.939018 0.939025 0.939198 0.939192 0.939035 0.939045
          0.939382 0.939149 0.938717 0.938913 0.939004 0.938923 0.93854 0.9386 0.938032 0.937982 0.93721 0.937248
          0.938288 0.938126 0.93732 0.937453 0.938854 0.938834 0.938491 0.938508 0.938824 0.938807 0.938443 0.938466
          0.937916 0.937904 0.937152 0.937161 0.937943 0.937923 0.937169 0.937184 0.938787 0.938772 0.938402 0.93842
          0.93876 0.938752 0.938379 0.938388 0.937848 0.937838 0.937086 0.937096 0.937882 0.937863 0.937111 0.937131
          0.939332 0.939333 0.939166 0.939175 0.939019 0.939009 0.939168 0.939165 0.939007 0.939009 0.939373 0.939448
          0.939545 0.939474 0.939391 0.939287 0.939376 0.93921 0.939119 0.9392 0.939222 0.939071 0.939046 0.939802
          0.940341 0.940284 0.939731 0.94162 0.943706 0.94384 0.941619 0.941589 0.943961 0.944049 0.941502 0.939631
          0.940194 0.940044 0.939467 0.938744 0.938742 0.93837 0.938372 0.938746 0.938759 0.938391 0.938375 0.937837
          0.937855 0.937107 0.937088 0.937831 0.93783 0.93708 0.93708 0.938787 0.938817 0.938455 0.938422 0.938871
          0.938963 0.938594 0.938504 0.937975 0.938061 0.937306 0.937227 0.937889 0.937925 0.937179 0.937142 0.939219
          0.939806 0.939438 0.938846 0.941329 0.944079 0.944016 0.941026 0.940542 0.943817 0.943423 0.939811 0.9383
          0.938891 0.938104 0.937526 0.936352 0.93625 0.934877 0.934949 0.936198 0.936173 0.934833 0.934846 0.933194
          0.933191 0.931312 0.931308 0.933245 0.933205 0.931302 0.931313 0.936155 0.936143 0.934812 0.934822 0.936136
          0.93613 0.934803 0.934808 0.933175 0.933171 0.931299 0.931302 0.933185 0.933178 0.931305 0.931309 0.93611
          0.936092 0.934769 0.934786 0.936078 0.936069 0.934749 0.934757 0.933131 0.933124 0.931261 0.931265 0.933157
          0.933142 0.931274 0.931287 0.9293 0.929314 0.92745 0.927422 0.92933 0.929337 0.927474 0.927468 0.925942
          0.925945 0.924918 0.924916 0.925903 0.925931 0.924911 0.924895 0.929337 0.929334 0.927473 0.927474 0.929332
          0.929328 0.927469 0.927472 0.925944 0.925943 0.924917 0.924918 0.925945 0.925944 0.924918 0.924918 0.929318
          0.929308 0.927459 0.927464 0.929302 0.929299 0.927455 0.927456 0.925938 0.925938 0.924916 0.924917 0.925941
          0.92594 0.924917 0.924917 0.936064 0.936065 0.934746 0.934745 0.936073 0.936091 0.934771 0.934754 0.93313
          0.933146 0.931279 0.931266 0.933121 0.933122 0.93126 0.931258 0.936125 0.936159 0.934832 0.934803 0.936205
          0.936273 0.934921 0.934869 0.93322 0.933251 0.931329 0.931322 0.933174 0.933195 0.931315 0.931302 0.936467
          0.93702 0.935595 0.935082 0.938766 0.942771 0.941793 0.937352 0.935549 0.940445 0.938726 0.933413 0.933373
          0.933828 0.931792 0.931412 0.929298 0.929299 0.927455 0.927454 0.929303 0.929313 0.927462 0.927457 0.925939
          0.925941 0.924917 0.924917 0.925938 0.925938 0.924916 0.924916 0.92933 0.929335 0.927467 0.927471 0.929323
          0.929308 0.927409 0.927438 0.925903 0.925874 0.924872 0.924889 0.925944 0.925937 0.924913 0.924918 0.929353
          0.929647 0.927629 0.927427 0.931089 0.936705 0.934484 0.928806 0.926823 0.932111 0.929313 0.925345 0.925876
          0.925992 0.924917 0.92487 1 1 1 1 1 1 1 1 1
          1 1 1 1 1 1 1 1 1 1 1 1
          1 1 1 1 1 1 1 1 1 0.999845 0.999711 1
          0.9999 0.999623 0.999579 0.9999 1 1 1 1 0.934668 0.924267 0.908031 0.915338
          0.914706 0.906766 0.896146 0.901412 0.890877 0.887768 0.881566 0.883237 0.90086 0.895199 0.886251 0.891026
          1 1 1 1 1 1 1 1 0.9998 0.999554 0.99954 0.9998
          0.9997 0.999529 0.99952 0.9997 1 1 1 1 0.884321 0.879887 0.875127 0.879391
          0.877674 0.877056 0.87376 0.873504 0.870216 0.871282 0.869344 0.867473 0.875427 0.871311 0.86804 0.871988
          0.900719 0.896728 0.890486 0.892484 0.894716 0.894624 0.891772 0.890235 0.887107 0.890186 0.889811 0.885303
          0.886012 0.885739 0.882473 0.881281 0.896478 0.900228 0.900382 0.895175 0.905861 0.913139 0.915812 0.907353
          0.909827 0.919349 0.92358 0.913129 0.895069 0.901643 0.90388 0.896069 0.92223 0.932809 0.937374 0.926003
          0.944883 0.956578 0.961276 0.949887 0.955125 0.966003 0.97026 0.960231 0.930503 0.942415 0.947641 0.935507
          0.87798 0.880463 0.879436 0.875759 0.884634 0.890469 0.891946 0.88487 0.885786 0.89403 0.896541 0.887194
          0.874306 0.879134 0.879355 0.873389 0.897991 0.906889 0.910452 0.900622 0.917079 0.928314 0.933321 0.921485
          0.926186 0.938432 0.943429 0.931003 0.903757 0.914395 0.918569 0.907214 0.940814 0.952898 0.957863 0.946147
          0.965268 0.974491 0.977872 0.969743 0.974148 0.981478 0.983903 0.977646 0.951402 0.962606 0.966768 0.956315
          1 1 1 1 1 1 1 1 0.9997 0.999511 0.999503 0.9997
          0.9997 0.999494 0.999486 0.9997 1 1 1 1 0.868801 0.865064 0.862231 0.865723
          0.865054 0.867754 0.866388 0.862818 0.86067 0.865162 0.864021 0.858547 0.86264 0.859437 0.856612 0.859487
          1 1 1 1 1 1 1 1 0.9996 0.999477 0.999469 0.9996
          0.9996 0.999459 0.999451 0.9996 1 1 1 1 0.856196 0.853698 0.850654 0.852731
          0.8564 0.862927 0.861857 0.854197 0.851915 0.860803 0.859771 0.849549 0.849039 0.847444 0.844048 0.845098
          0.872839 0.879949 0.880813 0.872546 0.888954 0.899344 0.902337 0.890967 0.893164 0.905453 0.908636 0.895501