<?xml version="1.0"?>
<VTKFile type="UnstructuredGrid" version="0.1" byte_order="LittleEndian">
  <UnstructuredGrid>
    <Piece NumberOfCells="6552" NumberOfPoints="6876">
      <CellData Scalars="S_aq">
        <DataArray type="Float32" Name="S_aq" NumberOfComponents="1" format="ascii">
          1 1 1 1 1 1 1 1 1 1 1 1
          1 1 1 1 1 1 1 1 1 1 1 1
          1 1 1 1 1 1 1 1 1 1 1 1
          1 1 1 1 1 1 1 1 1 1 1 1
          1 1 1 1 1 1 1 1 1 1 1 1
          1 1 1 1 1 1 1 1 1 1 1 1
          1 1 1 1 1 1 1 1 1 1 1 1
          1 1 1 1 1 1 1 1 1 1 1 1
          1 1 1 1 1 1 1 1 1 1 1 1
          1 1 1 1 1 1 1 1 1 1 1 1
          1 1 1 1 1 1 1 1 1 1 1 1
          1 1 1 1 1 1 1 1 1 1 1 1
          1 1 1 1 1 1 1 1 1 1 1 1
          1 1 1 1 1 1 1 1 1 1 1 1
          1 1 1 1 1 1 1 1 1 1 1 1
          1 1 1 1 1 1 1 1 1 1 1 1
          1 1 1 1 1 1 1 1 1 1 1 1
          1 1 1 1 1 1 1 1 1 1 1 1
          1 1 1 1 1 1 1 1 1 1 1 1
          1 1 1 1 1 1 1 1 1 1 1 1
          1 1 1 1 1 1 1 1 1 1 1 1
          1 1 1 1 1 1 1 1 1 1 1 1
          1 1 1 1 1 1 1 1 1 1 1 1
          1 1 1 1 1 1 1 1 1 1 1 1
          1 1 1 1 1 1 1 1 1 1 1 1
          1 1 1 1 1 1 1 1 1 1 1 1
          1 1 1 1 1 1 1 1 1 1 1 1
          1 1 1 1 1 1 1 1 1 1 1 1
          1 1 1 1 1 1 1 1 1 1 1 1
          1 1 1 1 1 1 1 1 1 1 1 1
          1 1 1 1 1 1 1 1 1 1 1 1
          1 1 1 1 1 1 1 1 1 1 1 1
          1 1 1 1 1 1 1 1 1 1 1 1
          1 1 1 1 1 1 1 1 1 1 1 1
          1 1 1 1 1 1 1 1 1 1 1 1
          1 1 1 1 1 1 1 1 1 1 1 1
          1 1 1 1 1 1 1 1 1 1 1 1
          1 1 1 1 1 1 1 1 1 1 1 1
          1 1 1 1 1 1 1 1 1 1 1 1
          1 1 1 1 1 1 0.999999 0.999999 0.999969 0.999995 0.99977 0.999333
          0.997178 0.998897 0.999999 0.999998 0.999875 0.999997 1 1 1 1 1 1
          1 1 1 1 1 0.999998 0.999996 0.999852 0.999997 0.999872 0.998522 0.995546
          0.998669 0.999999 0.999999 0.999948 0.999999 0.999826 0.998631 0.995581 0.99844 0.996104 0.992911 0.987313
          0.991826 0.986232 0.981388 0.975897 0.980676 0.99531 0.991226 0.985836 0.9911 1 1 1
          0.999999 1 0.999999 0.999861 0.998716 0.999932 1 0.999968 0.999121 0.996706 0.99935 0.995817
          0.991542 0.986782 0.992167 0.987906 0.982312 0.97835 0.983778 0.997244 0.993388 0.98955 0.994431 0.98603
          0.980671 0.97608 0.981244 0.97567 0.971091 0.966945 0.971308 0.967525 0.963347 0.960167 0.9642 0.977
          0.972073 0.968563 0.973274 1 1 1 1 1 1 1 1 1
          1 1 1 1 1 1 1 1 1 1 1 1
          1 1 1 1 1 1 1 1 1 1 1 1
          1 1 1 1 1 1 1 1 1 1 1 1
          1 1 1 1 1 0.999991 1 0.999999 0.999999 0.999967 0.999961 1
          1 1 0.999999 0.999987 0.999931 0.999055 0.999739 0.99965 0.999334 0.997007 0.997991 0.994265
          0.99256 0.986253 0.988691 0.998077 0.996224 0.991646 0.994526 0.998964 0.998864 0.996009 0.996245 0.99888
          0.999171 0.996817 0.996154 0.991284 0.992392 0.986535 0.984959 0.991331 0.990971 0.984158 0.984649 0.999771
          0.999969 0.999508 0.998328 0.999987 0.999188 0.99995 0.999476 0.997215 0.994984 0.997228 0.993736 0.989992
          1 1 1 1 1 1 0.999997 1 1 0.98919 0.985371 0.978964
          0.982944 0.982076 0.979471 0.972894 0.975568 0.969663 0.967002 0.961876 0.96452 0.976934 0.973 0.967779
          0.971588 0.977731 0.977033 0.970262 0.971074 0.977448 0.979361 0.972606 0.970653 0.964504 0.96633 0.960734
          0.95908 0.965133 0.964219 0.958938 0.959958 0.98297 0.988239 0.982025 0.97639 0.993878 0.997594 0.995209
          0.989306 0.983515 0.992014 0.988052 0.9784 0.970053 0.975888 0.970196 0.964308 0.966961 0.96329 0.959438
          0.962988 0.960109 0.957478 0.953703 0.956323 0.953014 0.950405 0.94746 0.950056 0.95953 0.956076 0.953075
          0.956456 0.955507 0.954376 0.950454 0.951686 0.954358 0.955819 0.95156 0.950281 0.946756 0.94788 0.944701
          0.943675 0.948357 0.947048 0.944043 0.945396 0.959218 0.965044 0.960518 0.954792 0.973529 0.983708 0.979795
          0.969084 0.965147 0.976242 0.973371 0.961895 0.950962 0.956586 0.953259 0.947679 0.999655 0.999993 0.999959
          0.998814 1 0.999998 0.997352 0.999703 0.999278 0.995645 1 1 0.9933 0.997863 0.996712
          0.990759 0.999789 0.999995 0.999992 0.999548 0.999178 0.999975 0.999968 0.998882 0.987675 0.995533 0.994631
          0.985557 1 1 1 1 1 1 1 1 1 1 1
          1 1 1 1 1 1 1 1 1 1 1 1
          1 1 1 1 1 1 1 1 1 1 1 1
          1 1 1 1 1 1 1 1 1 1 1 1
          1 1 1 1 1 1 1 1 1 1 1 1
          1 1 1 1 1 1 1 1 1 1 0.999995 0.99974
          1 0.99995 0.998584 0.99683 0.999308 1 1 1 1 1 0.999999 0.999889
          1 0.999054 0.996171 0.993152 0.997028 0.994602 0.989848 0.986568 0.991979 0.99997 0.998889 0.996892
          0.999422 0.991184 0.985584 0.981996 0.987563 0.980039 0.974833 0.971687 0.976681 0.973663 0.968839 0.966226
          0.970924 0.984161 0.978774 0.975877 0.98109 0.969972 0.965441 0.962611 0.967003 0.96122 0.957294 0.954646
          0.958494 0.955955 0.952158 0.949785 0.953549 0.964289 0.959998 0.957545 0.96177 0.997801 0.994431 0.991931
          0.995965 0.989142 0.983637 0.980987 0.986379 0.983837 0.978562 0.976318 0.981509 0.994075 0.98931 0.986837
          0.992056 0.97832 0.973246 0.97082 0.975796 0.968405 0.96379 0.961483 0.96605 0.963813 0.959266 0.957104
          0.961656 0.973462 0.968546 0.96638 0.97127 0.959392 0.955208 0.952949 0.957116 0.951237 0.94749 0.945245
          0.948987 0.946772 0.943026 0.940814 0.944569 0.954906 0.950738 0.948549 0.952732 1 1 1
          1 1 1 0.999999 0.999878 1 0.997851 0.994863 0.993016 0.996459 0.995165 0.99121
          0.989413 0.993906 0.999999 0.999258 0.998369 0.999921 1 1 1 1 1 1
          1 0.99997 0.999824 1 1 0.999233 0.996963 0.995629 0.998112 0.992586 0.987721 0.986165
          0.991247 0.989886 0.984704 0.983288 0.9886 0.997057 0.99442 0.993343 0.996277 0.989934 0.984618 0.982593
          0.987862 0.979366 0.974215 0.972213 0.977367 0.975462 0.97027 0.968349 0.973611 0.985954 0.980704 0.978906
          0.98418 0.969182 0.964286 0.96223 0.967158 0.959544 0.954969 0.952835 0.95745 0.955347 0.950679 0.948481
          0.953211 0.965165 0.960182 0.958114 0.96317 0.950571 0.946361 0.944155 0.948398 0.94236 0.938594 0.93635
          0.940127 0.937857 0.934071 0.93175 0.935536 0.946195 0.941912 0.939617 0.943943 0.982491 0.977158 0.97543
          0.980869 0.971777 0.966419 0.964451 0.969928 0.968037 0.962419 0.960296 0.966071 0.979281 0.973691 0.971904
          0.977686 0.961146 0.956003 0.953826 0.959068 0.951021 0.946222 0.943884 0.948757 0.946401 0.94145 0.938905
          0.943933 0.956911 0.951562 0.94919 0.954654 0.941626 0.937257 0.934818 0.939228 0.933154 0.929379 0.926955
          0.930702 0.928175 0.92448 0.92196 0.925568 0.936735 0.93229 0.929663 0.934133 1 1 1
          1 1 1 1 1 1 1 1 1 1 1 1
          1 1 1 1 1 1 1 1 1 1 1 1
          0.99931 0.999058 1 1 0.998659 0.998442 1 1 0.995593 0.992329 0.991368 0.99503
          0.987362 0.981868 0.980404 0.986148 0.984904 0.978848 0.977158 0.983588 0.994496 0.99039 0.989419 0.994016
          1 1 1 1 1 1 0.997995 0.99783 0.999996 0.999899 0.997457 0.99728
          0.999887 1 1 1 1 0.993456 0.988382 0.987288 0.992949 0.982139 0.975287 0.973199
          0.980529 0.978696 0.970846 0.968188 0.976607 0.992303 0.986031 0.984628 0.991645 0.97604 0.970034 0.968047
          0.974304 0.964002 0.958057 0.955676 0.961799 0.959435 0.953129 0.950388 0.956879 0.972438 0.965908 0.963585
          0.970404 0.952272 0.94669 0.944043 0.949745 0.941336 0.936231 0.933415 0.938591 0.93568 0.930441 0.927296
          0.932583 0.947049 0.941226 0.938218 0.94416 0.931411 0.926931 0.924092 0.928557 0.922886 0.919409 0.916851
          0.920135 0.917335 0.914322 0.911875 0.914518 0.925565 0.921148 0.918111 0.92243 0.968163 0.961044 0.958255
          0.96568 0.954104 0.947428 0.944217 0.951078 0.947766 0.940723 0.936904 0.944126 0.962916 0.955179 0.951775
          0.959828 0.941052 0.934995 0.931533 0.937697 0.929283 0.92397 0.920461 0.925762 0.922007 0.916776 0.912944
          0.918015 0.934063 0.927806 0.923792 0.930116 0.919159 0.915007 0.91188 0.915767 0.911731 0.90958 0.907529
          0.909047 0.90656 0.905831 0.904607 0.90439 0.912294 0.9088 0.905866 0.908805 1 1 1
          1 1 1 1 1 0.999802 0.997198 0.997176 0.999803 0.999804 0.99717 0.997213
          0.999817 1 1 1 1 0.990906 0.983005 0.981057 0.989988 0.974196 0.965164 0.961689
          0.971367 0.967996 0.957652 0.952903 0.963918 0.988784 0.978643 0.975597 0.987159 1 1 1
          1 1 1 1 1 0.999922 0.997338 0.997593 1 1 0.997829 0.999373
          1 1 0.984907 0.971672 0.966474 0.981731 0.958894 0.947234 0.940351 0.952564 0.94434 0.931855
          0.921304 0.933272 0.977031 0.959262 0.948357 0.96912 0.95636 0.947988 0.943749 0.952435 0.940106 0.932714
          0.928099 0.935643 0.930656 0.923001 0.917376 0.925058 0.947953 0.938966 0.933523 0.942781 0.925818 0.919472
          0.91485 0.921136 0.913805 0.909027 0.905133 0.909428 0.904997 0.901434 0.89811 0.900708 0.916052 0.909967
          0.904936 0.910591 0.905405 0.903212 0.900987 0.902246 0.902673 0.903982 0.904086 0.901539 0.901134 0.905057
          0.907027 0.901619 0.899489 0.899328 0.898401 0.897284 0.936742 0.927284 0.920109 0.929617 0.918765 0.911227
          0.904672 0.911749 0.904149 0.898069 0.891859 0.896477 0.921167 0.911929 0.902955 0.911289 0.904868 0.899987
          0.895374 0.89916 0.896771 0.895332 0.893313 0.893384 0.890797 0.892298 0.892533 0.889291 0.893793 0.891338
          0.888177 0.889072 0.895819 0.89839 0.899484 0.895307 0.903155 0.910105 0.914371 0.905874 0.909843 0.91986
          0.926516 0.915078 0.895963 0.901843 0.905558 0.897974 0.953661 0.950334 0.947779 0.951068 0.947348 0.944769
          0.942264 0.944821 0.942423 0.939893 0.937623 0.940119 0.948617 0.945357 0.943028 0.946268 0.942708 0.941342
          0.938875 0.940221 0.940948 0.941937 0.939522 0.938503 0.936289 0.937403 0.935549 0.934273 0.937887 0.936591
          0.934457 0.935671 0.944884 0.950484 0.948204 0.942516 0.959254 0.971045 0.969261 0.957162 0.955569 0.967936
          0.967091 0.954465 0.940525 0.946378 0.944987 0.93888 0.943987 0.940763 0.938541 0.941748 0.93788 0.93543
          0.933298 0.935689 0.933532 0.931217 0.929183 0.9314 0.939533 0.936342 0.934156 0.937324 0.933552 0.932453
          0.930571 0.931518 0.932437 0.933943 0.932584 0.930776 0.929295 0.931482 0.930655 0.928008 0.929564 0.928811
          0.927181 0.927691 0.937569 0.944024 0.9435 0.936597 0.953849 0.966703 0.966895 0.95376 0.95421 0.967658
          0.969021 0.95522 0.935975 0.943431 0.943835 0.935725 0.983824 0.993778 0.993272 0.982574 0.998524 0.999905
          0.999914 0.998368 0.998148 0.999848 0.99988 0.998098 0.981636 0.992781 0.992571 0.981084 1 1
          1 1 1 0.980776 0.99221 0.992268 0.980994 0.997825 0.999833 0.999892 0.997924 0.99805
          0.999728 0.999758 0.998314 0.981695 0.992539 0.993257 0.983001 1 1 1 0.999997 1
          1 0.999999 1 0.935108 0.931972 0.929785 0.932875 0.929287 0.927199 0.92527 0.927196 0.925129
          0.92341 0.92164 0.9231 0.930619 0.927593 0.925399 0.928334 0.925909 0.925696 0.92438 0.924231 0.926938
          0.93013 0.929943 0.926113 0.925573 0.930132 0.930746 0.925363 0.92268 0.923262 0.922382 0.921286 0.935875
          0.944728 0.94612 0.936455 0.956764 0.970882 0.973186 0.958813 0.961309 0.975771 0.978562 0.964197 0.937496
          0.948012 0.950403 0.939033 0.926021 0.923211 0.921043 0.923685 0.921124 0.919986 0.918486 0.919227 0.917444
          0.917186 0.916142 0.91582 0.921336 0.918917 0.916865 0.918992 0.920086 0.921787 0.92153 0.919128 0.925534
          0.931833 0.933447 0.926146 0.927262 0.935638 0.938449 0.928948 0.918467 0.921676 0.922291 0.918167 0.941097
          0.953283 0.956628 0.943715 0.967415 0.981467 0.984421 0.9709 0.974564 0.987205 0.989805 0.978339 0.946899
          0.9604 0.964538 0.950642 0.984617 0.993953 0.99504 0.986614 0.998603 0.99981 0.999859 0.999047 0.999397
          0.999956 0.999965 0.999681 0.988596 0.995942 0.996962 0.990582 0.999999 1 1 1 1
          0.992243 0.997647 0.998484 0.993779 0.999822 0.999988 0.999988 0.999934 0.999979 0.999999 0.999999 0.999996
          0.995078 0.999016 0.999477 0.996289 1 1 1 1 1 1 1 1
          1 1 1 1 1 1 1 1 1 1 1 1
          1 1 1 1 1 1 1 1 1 0.916683 0.914931 0.913169
          0.914448 0.914411 0.91542 0.915094 0.913284 0.912518 0.915246 0.915965 0.912198 0.912341 0.91165 0.910454
          0.910434 0.9183 0.923451 0.925227 0.918945 0.931263 0.941899 0.945975 0.934256 0.937951 0.950621 0.955734
          0.942338 0.920183 0.927689 0.930892 0.922096 0.954899 0.968948 0.973493 0.95958 0.982152 0.992101 0.994047
          0.985863 0.989151 0.995654 0.997027 0.991875 0.964546 0.977999 0.982316 0.969635 0.908812 0.909675 0.909413
          0.907577 0.912419 0.917341 0.919464 0.913278 0.914876 0.92242 0.926276 0.917308 0.906837 0.909774 0.910865
          0.906708 0.924761 0.934868 0.93961 0.928243 0.947361 0.96117 0.966751 0.95291 0.958822 0.972288 0.977591
          0.964889 0.932576 0.945058 0.951079 0.937751 0.974674 0.986301 0.989705 0.979498 0.993941 0.998156 0.99899
          0.995615 0.996995 0.999512 0.999766 0.998091 0.983979 0.99236 0.994347 0.987958 0.997358 0.999683 0.99993
          0.998419 0.999998 1 0.999143 0.999977 0.999998 0.999645 1 1 0.999875 1 1
          0.999971 1 1 0.999994 1 1 0.999999 1 1 0.907307 0.912794 0.915664
          0.908753 0.920667 0.931065 0.936762 0.925018 0.930384 0.94325 0.95031 0.936707 0.911159 0.919567 0.924559
          0.91463 0.943683 0.957471 0.963979 0.950207 0.970879 0.982497 0.986867 0.976561 0.981736 0.990442 0.992995
          0.98629 0.957072 0.970328 0.976269 0.963975 0.991206 0.995991 0.997332 0.99356 0.999004 0.999957 0.999996
          0.999581 0.999877 0.999999 1 0.999963 0.995383 0.998445 0.99914 0.996823 0.919246 0.93063 0.937654
          0.925025 0.943811 0.957629 0.964844 0.951396 0.959064 0.971612 0.977669 0.966403 0.931886 0.945361 0.953344
          0.939595 0.970606 0.98161 0.986247 0.976703 0.990025 0.994883 0.996359 0.99272 0.994681 0.997632 0.998538
          0.996206 0.982074 0.990025 0.992699 0.986637 0.998049 0.999724 0.999851 0.998872 0.999997 1 1
          1 1 0.999578 0.999992 0.999999 0.999839 1 1 1 1 1 1
          1 1 1 1 1 1 1 1 1 1 1 1
          1 1 1 1 1 1 1 1 1 1 1 1
          1 1 1 1 1 1 1 1 1 1 1 1
          1 1 1 1 1 1 1 1 1 1 1 1
          1 1 1 1 0.999997 0.999986 0.999474 0.99995 0.999998 1 1 1
          1 1 0.999999 0.999999 0.999945 0.999998 0.999716 0.998753 0.995301 0.998333 1 0.999997
          0.99982 0.999996 0.999919 0.999585 0.997216 0.999205 0.998561 0.996438 0.990151 0.994282 0.985868 0.979628
          0.968186 0.974941 0.99609 0.991808 0.982295 0.990049 1 1 0.999996 0.999999 0.999995 0.999995
          0.999963 0.999966 0.998971 0.998714 0.995214 0.996026 0.999792 0.999611 0.99729 0.998406 0.999968 0.999994
          0.999253 0.999757 0.997698 0.996025 0.998706 0.998777 0.994851 0.994645 1 1 0.999998 0.999967
          0.999995 0.999925 0.999207 0.99385 0.991325 0.981139 0.985207 0.988842 0.987131 0.976163 0.978118 0.966665
          0.964763 0.953894 0.955664 0.974048 0.969729 0.958552 0.96266 0.98649 0.987153 0.976445 0.975489 0.989442
          0.992678 0.983515 0.979175 0.967997 0.972629 0.961654 0.957181 0.964113 0.965162 0.954416 0.953331 0.995827
          0.998392 0.994136 0.989231 0.999617 0.99994 0.99943 0.997404 0.992457 0.996837 0.991858 0.983773 0.978955
          0.986008 0.975585 0.967932 1 1 1 1 1 1 1 1 1
          1 1 1 1 1 1 1 1 1 1 1 1
          0.999983 1 1 1 1 0.999987 0.999318 0.99989 0.999314 0.996723 1 1
          1 1 1 1 1 1 1 1 1 1 0.999997 0.999988
          0.999719 0.999994 0.999478 0.99772 0.993877 0.99784 0.999999 0.999991 0.999795 0.999998 0.999502 0.997994
          0.994097 0.997753 0.994384 0.98799 0.977746 0.987099 0.976431 0.966565 0.955599 0.965292 0.993489 0.98583
          0.975591 0.985875 0.979659 0.971246 0.960064 0.968497 0.96359 0.957087 0.946588 0.952735 0.942415 0.936579
          0.926782 0.932469 0.957436 0.949371 0.939147 0.946847 0.999797 0.998292 0.995265 0.998951 0.993984 0.985844
          0.976211 0.987541 0.978131 0.965843 0.955725 0.968407 0.99667 0.989579 0.981648 0.993652 0.975421 0.964549
          0.953848 0.964678 0.954385 0.945065 0.934915 0.943947 0.933889 0.924971 0.915014 0.924052 0.954208 0.943585
          0.933709 0.944191 0.936663 0.929199 0.919256 0.926702 0.922606 0.91688 0.906654 0.912547 0.90219 0.896276
          0.886205 0.891995 0.916713 0.909092 0.898754 0.906527 0.951862 0.94799 0.937989 0.941672 0.945279 0.943646
          0.933864 0.935399 0.925702 0.924212 0.91435 0.915846 0.931857 0.928256 0.918451 0.922095 0.943192 0.944311
          0.934688 0.933506 0.946999 0.951283 0.941514 0.937362 0.927968 0.932111 0.922764 0.918487 0.923936 0.925219
          0.915568 0.914145 0.957278 0.964733 0.954359 0.947221 0.973419 0.982703 0.972523 0.962823 0.952681 0.962167
          0.95225 0.94304 0.937662 0.944524 0.935107 0.928344 0.912078 0.908299 0.897863 0.901701 0.905595 0.904074
          0.893713 0.895179 0.884982 0.883508 0.873176 0.874741 0.891442 0.887663 0.87753 0.881378 0.903935 0.905508
          0.895253 0.893631 0.908651 0.913175 0.903197 0.898488 0.888461 0.893179 0.883261 0.878412 0.883454 0.885153
          0.874936 0.873112 0.918966 0.925848 0.916465 0.909276 0.933766 0.942815 0.933726 0.924608 0.915305 0.924744
          0.915643 0.905701 0.89928 0.906758 0.896861 0.889412 0.990088 0.973343 0.965195 0.986192 0.958837 0.946058
          0.936828 0.949756 0.941175 0.927963 0.919426 0.933113 0.982633 0.957558 0.950592 0.979443 0.934579 0.924081
          0.914544 0.925268 0.914243 0.904915 0.894977 0.904361 0.89474 0.88552 0.876426 0.885643 0.916131 0.905013
          0.895781 0.907124 0.896338 0.888766 0.879064 0.886591 0.882088 0.876261 0.866265 0.872301 0.862486 0.856047
          0.845444 0.852519 0.877156 0.86951 0.859995 0.867928 0.976776 0.94444 0.939265 0.974767 0.925656 0.911244
          0.903549 0.918947 0.913176 0.896736 0.890997 0.908584 0.97348 0.935242 0.932608 0.973015 0.898436 0.887157
          0.879074 0.890503 0.876984 0.867622 0.859068 0.868719 0.860839 0.850766 0.842755 0.853373 0.88327 0.871524
          0.864536 0.876802 0.858834 0.850439 0.840797 0.84984 0.842292 0.834293 0.82245 0.831729 0.82082 0.809842
          0.796594 0.809687 0.84095 0.831075 0.821366 0.832229 0.871289 0.867224 0.8565 0.860971 0.864189 0.862419
          0.850875 0.853026 0.840878 0.838062 0.823268 0.827243 0.850211 0.845078 0.832616 0.838775 0.862291 0.864313
          0.852934 0.850595 0.868081 0.873213 0.862798 0.85718 0.845354 0.851751 0.839752 0.832128 0.837458 0.840327
          0.825803 0.821987 0.879577 0.887142 0.877439 0.869573 0.895984 0.906277 0.89679 0.886456 0.876964 0.887505
          0.878304 0.867382 0.859193 0.867582 0.857415 0.848223 0.826401 0.818681 0.802734 0.812806 0.81142 0.80539
          0.78262 0.7924 0.768746 0.751868 0.707713 0.738648 0.797754 0.784151 0.76249 0.781256 0.802623 0.808294
          0.786052 0.776376 0.816839 0.826406 0.811226 0.798538 0.775878 0.79367 0.773412 0.747183 0.736936 0.756076
          0.713069 0.669445 0.836428 0.846797 0.835622 0.823575 0.857615 0.86911 0.859902 0.847617 0.837426 0.850739
          0.841817 0.827247 0.80949 0.823871 0.811751 0.794282 0.991473 0.996803 0.992502 0.982921 0.9995 0.999937
          0.999814 0.997628 0.993435 0.998143 0.995105 0.986776 0.972996 0.984344 0.974831 0.962902 1 1
          1 0.99986 0.999992 0.999989 0.999051 1 0.953245 0.965132 0.955845 0.944055 0.978073 0.990094
          0.982773 0.969055 0.960285 0.974839 0.966775 0.951821 0.9352 0.946967 0.938416 0.92648 0.99668 0.999663
          0.998482 0.993451 0.999998 1 1 0.999952 0.999606 0.999984 0.999961 0.998701 0.988572 0.996348
          0.993748 0.982221 1 1 1 1 1 1 1 1 1 1
          0.917693 0.930016 0.921602 0.908684 0.943565 0.958631 0.950624 0.935463 0.927384 0.942734 0.93492 0.919225
          0.899476 0.913021 0.904204 0.890462 0.974723 0.989164 0.983149 0.967017 0.99662 0.99969 0.998885 0.994141
          0.990761 0.997347 0.995149 0.985741 0.959313 0.976358 0.969297 0.951677 1 1 1 0.999997
          1 1 0.999979 1 1 0.999928 0.881594 0.895424 0.886913 0.872866 0.91091 0.92711
          0.919266 0.902445 0.894358 0.911484 0.904248 0.8871 0.86435 0.878747 0.871201 0.85626 0.944093 0.962066
          0.954733 0.936549 0.979782 0.992253 0.987905 0.973153 0.965431 0.981184 0.972487 0.957326 0.929056 0.947164
          0.939828 0.922109 0.999778 0.999999 0.999999 0.999606 1 1 1 0.999922 0.999692 0.999341
          0.999998 0.999613 0.998987 1 1 1 1 1 1 0.999999 1 1
          1 1 1 1 1 1 1 1 1 1 1 1
          1 1 1 1 1 1 1 1 1 1 1 1
          1 1 1 1 1 1 1 1 1 1 1 1
          1 1 1 1 1 1 1 1 1 1 1 1
          1 1 1 1 1 1 1 1 1 1 1 1
          1 1 1 1 1 1 1 1 1 1 1 0.999949
          1 1 1 1 1 0.999998 0.999998 0.999501 0.99949 0.999092 0.999175 1
          0.999996 0.999262 0.999538 1 1 1 1 1 1 1 1 1
          1 1 1 1 1 0.99998 0.99998 1 1 0.999967 0.999968 0.998733
          0.998727 0.998707 0.998716 0.998927 0.998915 0.998901 0.998911 1 1 0.99996 0.99996 1
          1 0.999951 0.999951 0.998546 0.998541 0.998509 0.998517 0.998638 0.998634 0.998608 0.998615 1
          1 0.999941 0.999942 1 1 0.99993 0.999931 0.998365 0.998362 0.99832 0.998324 0.998455
          0.99845 0.998412 0.99842 1 1 1 1 1 1 1 1 1
          1 1 1 1 1 1 1 1 1 1 1 1
          1 1 1 1 1 1 1 1 1 1 1 1
          1 1 0.99993 0.99993 1 1 0.999917 0.999918 0.998276 0.998269 0.99822 0.998227
          0.998362 0.998359 0.998313 0.998318 1 1 0.999905 0.999905 0.9999 0.9999 0.99981 0.99981
          0.998179 0.998176 0.998126 0.99813 0.998187 0.998184 0.998131 0.998136 0.9999 0.9999 0.999796 0.999797
          0.9999 0.9999 0.999795 0.999795 0.998091 0.998091 0.998038 0.998039 0.998095 0.998091 0.998039 0.998044
          1 1 1 1 1 1 1 1 1 1 1 1
          1 1 1 1 1 1 1 1 1 1 1 1
          1 1 1 1 1 1 0.9999 0.9999 0.999794 0.999795 0.9999 0.9999
          0.99978 0.99978 0.998008 0.998004 0.997948 0.997953 0.998091 0.998088 0.998033 0.998037 0.9999 0.9999
          0.999779 0.999779 0.9999 0.9999 0.999778 0.999779 0.998004 0.998 0.997942 0.997946 0.998004 0.998004
          0.997947 0.997947 0.9999 0.9999 0.999762 0.999763 0.9999 0.9999 0.999762 0.999762 0.997918 0.997918
          0.997858 0.997858 0.997922 0.997918 0.997859 0.997863 0.973511 0.931707 0.933098 0.975187 0.905536 0.886455
          0.883482 0.904627 0.906734 0.882789 0.885761 0.913277 0.978287 0.937624 0.946615 0.983044 0.871209 0.858189
          0.852644 0.866727 0.846394 0.835126 0.828017 0.840032 0.834522 0.821623 0.816317 0.830376 0.86385 0.848233
          0.845695 0.863635 0.82381 0.811887 0.802968 0.815888 0.798693 0.783304 0.771338 0.788462 0.779485 0.761535
          0.753681 0.772034 0.808664 0.794874 0.787993 0.802476 0.989589 0.961813 0.982133 0.995527 0.926925 0.895242
          0.916183 0.951586 0.981411 0.950835 0.98723 0.995896 0.99925 0.99512 0.999544 0.999998 0.868481 0.846856
          0.855928 0.883422 0.828942 0.813126 0.814491 0.833474 0.851407 0.826726 0.863168 0.894862 0.915406 0.881054
          0.930085 0.963232 0.798081 0.782753 0.780544 0.797307 0.766234 0.747626 0.744137 0.76313 0.76658 0.746637
          0.766374 0.78841 0.805489 0.785868 0.811354 0.835961 0.764223 0.738746 0.722631 0.750149 0.701802 0.642318
          0.631678 0.685026 0.676387 0.630109 0.632089 0.671585 0.7397 0.712157 0.704944 0.731793 0.532722 0.649284
          0.639756 0.559938 0.712312 0.751589 0.737655 0.697617 0.690978 0.729627 0.725686 0.688196 0.583886 0.6388
          0.642267 0.60249 0.778973 0.799965 0.79003 0.767007 0.817582 0.833569 0.826834 0.809366 0.803856 0.823219
          0.826563 0.803682 0.759207 0.783147 0.78068 0.75548 0.725934 0.700081 0.698061 0.722689 0.66938 0.636341
          0.643953 0.670419 0.678963 0.660705 0.704761 0.709469 0.725318 0.702379 0.725244 0.745031 0.617978 0.648895
          0.661554 0.634438 0.689933 0.726932 0.740711 0.701156 0.737973 0.788562 0.89514 0.831507 0.661409 0.69193
          0.76857 0.722771 0.758556 0.7873 0.816719 0.778634 0.815751 0.84611 0.897428 0.856276 0.936121 0.970295
          0.996742 0.993377 0.840373 0.891432 0.978957 0.9458 0.999998 0.999656 0.99813 0.999981 0.999981 1
          1 0.99458 0.984239 0.998284 0.999852 0.959346 0.932606 0.991262 0.9948 0.999674 0.999471 1
          1 0.999998 0.90677 0.880295 0.973038 0.983494 0.854938 0.831535 0.949221 0.961156 0.997287 0.99663
          0.999699 0.9997 0.998847 0.998052 0.999999 1 1 1 1 1 1 1
          1 1 1 0.811598 0.799153 0.937451 0.939056 0.797552 0.812679 0.957617 0.944256 0.996677
          0.997433 1 1 0.995904 0.996086 1 0.999996 0.849656 0.904001 0.989172 0.974218 0.956791
          0.986776 0.999427 0.997013 0.99999 0.99844 0.999018 0.999969 0.999969 0.995602 0.998556 1 1
          0.999953 0.999976 1 1 1 1 1 1 1 1 1 1
          1 1 1 0.849083 0.864942 0.861486 0.843856 0.881667 0.8994 0.90052 0.880369 0.887768
          0.913245 0.942354 0.910772 0.842854 0.864124 0.879422 0.851289 0.917783 0.935561 0.941419 0.921149 0.952201
          0.966063 0.974866 0.959924 0.980213 0.991051 0.997453 0.995033 0.938922 0.962569 0.988337 0.970719 0.967316
          0.974615 0.993793 0.985746 0.984933 0.99376 0.999771 0.998177 0.999869 0.999903 0.999906 0.999901 0.996311
          0.999114 0.999754 0.999063 0.879686 0.91643 0.971043 0.936715 0.952619 0.982173 0.997357 0.991966 0.999193
          0.999905 0.999933 0.999932 0.990406 0.996034 0.999971 0.999047 0.995057 0.998708 1 0.999935 0.999964
          1 1 1 1 1 1 1 1 1 1 1 1
          1 1 1 0.998296 0.999863 1 0.999997 1 1 0.999999 1 1
          0.999999 1 1 1 1 1 1 1 1 1 1 1
          1 1 1 1 1 1 1 1 1 1 1 1
          1 1 1 1 1 1 1 1 1 1 1 1
          1 1 1 1 1 1 1 1 1 1 1 1
          1 1 1 1 1 1 1 1 1 1 1 1
          1 1 1 1 1 1 1 1 1 1 1 1
          1 1 1 1 1 1 1 1 1 1 1 0.999776
          0.997212 0.999754 0.999906 1 1 1 1 1 0.991368 0.974495 0.997647 0.998487
          0.947362 0.911929 0.994515 0.996258 0.998706 0.997259 0.997531 0.998839 1 0.999952 0.999958 1
          1 1 1 1 1 1 0.999937 0.999947 1 0.998799 0.997496 0.997406
          0.99872 0.998602 0.997301 0.997203 0.998505 1 0.999908 0.999916 1 0.868562 0.820466 0.986489
          0.99159 0.769971 0.719318 0.964942 0.977502 0.987961 0.981399 0.982356 0.988547 0.995086 0.992729 0.993072
          0.995409 0.670416 0.62468 0.930664 0.948746 0.582891 0.545756 0.886638 0.910171 0.958429 0.951518 0.956975
          0.962238 0.973381 0.965719 0.968261 0.974992 0.513711 0.486404 0.831573 0.860413 0.463239 0.4436 0.767793
          0.800476 0.93236 0.926137 0.94282 0.945464 0.944933 0.938585 0.948648 0.952461 0.995391 0.993042 0.992965
          0.995321 0.988428 0.982169 0.981878 0.988244 0.988062 0.981577 0.981273 0.98789 0.995244 0.992887 0.992815
          0.995171 0.974762 0.968034 0.967513 0.974345 0.962096 0.957006 0.956437 0.961524 0.960887 0.955788 0.955114
          0.960223 0.973896 0.966942 0.966346 0.973428 0.952752 0.949284 0.948857 0.952235 0.946522 0.944373 0.944197
          0.946212 0.945743 0.94382 0.943427 0.945259 0.951618 0.948303 0.947734 0.95098 1 1 1
          1 1 1 0.999852 0.999867 1 0.99839 0.997106 0.997028 0.998321 0.998237 0.996947
          0.996874 0.998172 1 0.99981 0.999829 1 1 1 1 1 0.999999 1
          1 1 1 0.999759 0.999766 0.999996 0.998091 0.996797 0.99673 0.998026 0.997945 0.996665
          0.996623 0.997895 0.9999 0.99962 0.99958 0.9999 0.995102 0.992748 0.992687 0.99504 0.987726 0.980963
          0.980645 0.987572 0.987427 0.980319 0.979982 0.987293 0.99498 0.992627 0.992571 0.994923 0.972941 0.965725
          0.965075 0.972429 0.959536 0.954424 0.953716 0.958824 0.958087 0.952992 0.952253 0.957324 0.971892 0.964395
          0.963683 0.971326 0.950334 0.947163 0.946594 0.94968 0.94478 0.943043 0.942671 0.944308 0.943848 0.942313
          0.941972 0.9434 0.94902 0.946028 0.945468 0.948357 0.994869 0.992517 0.992469 0.994822 0.987171 0.979636
          0.979284 0.987063 0.98697 0.978928 0.978573 0.986892 0.994782 0.992428 0.9924 0.994758 0.970731 0.962939
          0.962162 0.970107 0.956535 0.951501 0.950737 0.955722 0.954885 0.949963 0.949183 0.954025 0.969453 0.961352
          0.960509 0.968769 0.947693 0.944918 0.94438 0.94703 0.942969 0.94165 0.94135 0.942557 0.942165 0.941072
          0.940818 0.941798 0.946372 0.943857 0.943353 0.945722 0.426908 0.412713 0.70132 0.73441 0.400659 0.390529
          0.639937 0.66952 0.906328 0.89915 0.935862 0.937219 0.919791 0.913214 0.938784 0.940624 0.382148 0.375332
          0.590054 0.613313 0.369652 0.364534 0.553271 0.570167 0.877439 0.870813 0.931888 0.932673 0.891822 0.884508
          0.933603 0.934665 0.35976 0.355293 0.525725 0.538721 0.35109 0.347085 0.50145 0.513508 0.852155 0.844801
          0.929298 0.93003 0.864632 0.858583 0.930651 0.931237 0.942735 0.94151 0.94162 0.942702 0.940605 0.939943
          0.940331 0.940857 0.940732 0.940269 0.940159 0.940571 0.942417 0.941421 0.941194 0.942112 0.939458 0.939103
          0.939735 0.939974 0.938843 0.938662 0.939477 0.939577 0.939639 0.939561 0.939555 0.939618 0.939963 0.939766
          0.939725 0.939893 0.938545 0.938469 0.939395 0.939419 0.938396 0.938312 0.93936 0.939376 0.939488 0.939481
          0.939494 0.939497 0.939514 0.939501 0.939511 0.939516 0.343205 0.339399 0.476402 0.489144 0.335637 0.331915
          0.449767 0.463224 0.811828 0.795546 0.923831 0.925738 0.835977 0.825158 0.927225 0.928384 0.328251 0.324683
          0.423187 0.436303 0.321252 0.317996 0.399465 0.4108 0.728891 0.703356 0.910609 0.914676 0.776068 0.753583
          0.91834 0.921393 0.314939 0.312092 0.380569 0.389374 0.309446 0.306984 0.366489 0.372983 0.634247 0.616014