<?xml version="1.0"?>
<VTKFile type="UnstructuredGrid" version="0.1" byte_order="LittleEndian">
  <UnstructuredGrid>
    <Piece NumberOfCells="18" NumberOfPoints="28">
      <PointData Scalars="c">
        <DataArray type="Float32" Name="c" NumberOfComponents="1" format="ascii">
          0.600795 0.628791 0.619313 0.751779 0.708185 0.607276 0.7937 0.767298 0.486278 0.603874 0.617154 0.463888
          0.463939 0.407136 0.694774 0.240767 0.77346 0.411375 0.434334 0.460175 0.724304 0.715433 0.555488 0.526637
          0.606071 0.523224 0.790582 0.739017
        </DataArray>
      </PointData>
      <CellData Scalars="process rank">
        <DataArray type="Float32" Name="process rank" NumberOfComponents="1" format="ascii">
          0 0 0 0 0 0 0 0 0 0 0 0
          0 0 0 0 0 0
        </DataArray>
      </CellData>
      <Points>
        <DataArray type="Float32" Name="Coordinates" NumberOfComponents="3" format="ascii">
          0 0 0 0.166667 0 0 0 0.166667 0 0.166667 0.166667 0
          0.333333 0 0 0.333333 0.166667 0 0.5 0 0 0.5 0.166667 0
          0 0.333333 0 0.166667 0.333333 0 0.333333 0.333333 0 0.5 0.333333 0
          0 0.5 0 0.166667 0.5 0 0.333333 0.5 0 0.5 0.5 0
          0 0.666667 0 0.166667 0.666667 0 0.333333 0.666667 0 0.5 0.666667 0
          0 0.833333 0 0.166667 0.833333 0 0.333333 0.833333 0 0.5 0.833333 0
          0 1 0 0.166667 1 0 0.333333 1 0 0.5 1 0
        </DataArray>
      </Points>
      <Cells>
        <DataArray type="Int32" Name="connectivity" NumberOfComponents="1" format="ascii">
          0 1 3 2 1 4 5 3 4 6 7 5
          2 3 9 8 3 5 10 9 5 7 11 10
          8 9 13 12 9 10 14 13 10 11 15 14
          12 13 17 16 13 14 18 17 14 15 19 18
          16 17 21 20 17 18 22 21 18 19 23 22
          20 21 25 24 21 22 26 25 22 23 27 26
        </DataArray>
        <DataArray type="Int32" Name="offsets" NumberOfComponents="1" format="ascii">
          4 8 12 16 20 24 28 32 36 40 44 48
          52 56 60 64 68 72
        </DataArray>
        <DataArray type="UInt8" Name="types" NumberOfComponents="1" format="ascii">
          9 9 9 9 9 9 9 9 9 9 9 9
          9 9 9 9 9 9
        </DataArray>
      </Cells>
    </Piece>
  </UnstructuredGrid>
</VTKFile>
