<?xml version="1.0"?>
<VTKFile type="UnstructuredGrid" version="0.1" byte_order="LittleEndian">
  <UnstructuredGrid>
    <Piece NumberOfCells="50" NumberOfPoints="66">
      <PointData Scalars="c">
        <DataArray type="Float32" Name="c" NumberOfComponents="1" format="ascii">
          0.987413 0.967792 0.987952 0.96968 0.835216 0.846695 0.315888 0.347015 0.07633 0.0842153 0.0310669 0.0318347
          0.98934 0.974433 0.876081 0.451628 0.108122 0.0343987 0.990994 0.979831 0.908563 0.599035 0.142578 0.0385368
          0.992267 0.983696 0.929883 0.688029 0.17195 0.0424578 0.992715 0.984891 0.935745 0.709774 0.181316 0.0438416
          0.992203 0.983164 0.926316 0.673731 0.166303 0.0418624 0.990913 0.978868 0.901396 0.565368 0.133737 0.0379597
          0.989316 0.97332 0.867197 0.415015 0.0999852 0.034596 0.988025 0.968704 0.838855 0.324748 0.0786051 0.0330494
          0.987533 0.966931 0.828442 0.299419 0.0719689 0.0327484
        </DataArray>
        <DataArray type="Float32" Name="mu" NumberOfComponents="1" format="ascii">
          -0.582482 -0.579776 -0.5887 -0.593969 -0.515998 -0.568131 -0.114131 -0.238969 1.04176 0.96415 2.52288 2.46061
          -0.59644 -0.613863 -0.646813 -0.49582 0.808299 2.31556 -0.588708 -0.60506 -0.635295 -0.505148 0.717069 2.17269
          -0.566343 -0.570571 -0.549029 -0.307996 0.726686 2.0862 -0.545819 -0.543905 -0.497521 -0.22 0.746878 2.05582
          -0.53554 -0.541183 -0.528833 -0.312476 0.723869 2.06566 -0.524652 -0.53964 -0.570403 -0.464335 0.727907 2.11388
          -0.50005 -0.510371 -0.52179 -0.33466 0.833541 2.19285 -0.468666 -0.462752 -0.404704 -0.0578805 0.982785 2.26844
          -0.453862 -0.438902 -0.343636 0.0588401 1.05113 2.29946
        </DataArray>
      </PointData>
      <CellData Scalars="process rank">
        <DataArray type="Float32" Name="process rank" NumberOfComponents="1" format="ascii">
          0 0 0 0 0 0 0 0 0 0 0 0
          0 0 0 0 0 0 0 0 0 0 0 0
          0 0 0 0 0 0 0 0 0 0 0 0
          0 0 0 0 0 0 0 0 0 0 0 0
          0 0
        </DataArray>
      </CellData>
      <Points>
        <DataArray type="Float32" Name="Coordinates" NumberOfComponents="3" format="ascii">
          0 0 0 0.1 0 0 0 0.1 0 0.1 0.1 0
          0.2 0 0 0.2 0.1 0 0.3 0 0 0.3 0.1 0
          0.4 0 0 0.4 0.1 0 0.5 0 0 0.5 0.1 0
          0 0.2 0 0.1 0.2 0 0.2 0.2 0 0.3 0.2 0
          0.4 0.2 0 0.5 0.2 0 0 0.3 0 0.1 0.3 0
          0.2 0.3 0 0.3 0.3 0 0.4 0.3 0 0.5 0.3 0
          0 0.4 0 0.1 0.4 0 0.2 0.4 0 0.3 0.4 0
          0.4 0.4 0 0.5 0.4 0 0 0.5 0 0.1 0.5 0
          0.2 0.5 0 0.3 0.5 0 0.4 0.5 0 0.5 0.5 0
          0 0.6 0 0.1 0.6 0 0.2 0.6 0 0.3 0.6 0
          0.4 0.6 0 0.5 0.6 0 0 0.7 0 0.1 0.7 0
          0.2 0.7 0 0.3 0.7 0 0.4 0.7 0 0.5 0.7 0
          0 0.8 0 0.1 0.8 0 0.2 0.8 0 0.3 0.8 0
          0.4 0.8 0 0.5 0.8 0 0 0.9 0 0.1 0.9 0
          0.2 0.9 0 0.3 0.9 0 0.4 0.9 0 0.5 0.9 0
          0 1 0 0.1 1 0 0.2 1 0 0.3 1 0
          0.4 1 0 0.5 1 0
        </DataArray>
      </Points>
      <Cells>
        <DataArray type="Int32" Name="connectivity" NumberOfComponents="1" format="ascii">
          0 1 3 2 1 4 5 3 4 6 7 5
          6 8 9 7 8 10 11 9 2 3 13 12
          3 5 14 13 5 7 15 14 7 9 16 15
          9 11 17 16 12 13 19 18 13 14 20 19
          14 15 21 20 15 16 22 21 16 17 23 22
          18 19 25 24 19 20 26 25 20 21 27 26
          21 22 28 27 22 23 29 28 24 25 31 30
          25 26 32 31 26 27 33 32 27 28 34 33
          28 29 35 34 30 31 37 36 31 32 38 37
          32 33 39 38 33 34 40 39 34 35 41 40
          36 37 43 42 37 38 44 43 38 39 45 44
          39 40 46 45 40 41 47 46 42 43 49 48
          43 44 50 49 44 45 51 50 45 46 52 51
          46 47 53 52 48 49 55 54 49 50 56 55
          50 51 57 56 51 52 58 57 52 53 59 58
          54 55 61 60 55 56 62 61 56 57 63 62
          57 58 64 63 58 59 65 64
        </DataArray>
        <DataArray type="Int32" Name="offsets" NumberOfComponents="1" format="ascii">
          4 8 12 16 20 24 28 32 36 40 44 48
          52 56 60 64 68 72 76 80 84 88 92 96
          100 104 108 112 116 120 124 128 132 136 140 144
          148 152 156 160 164 168 172 176 180 184 188 192
          196 200
        </DataArray>
        <DataArray type="UInt8" Name="types" NumberOfComponents="1" format="ascii">
          9 9 9 9 9 9 9 9 9 9 9 9
          9 9 9 9 9 9 9 9 9 9 9 9
          9 9 9 9 9 9 9 9 9 9 9 9
          9 9 9 9 9 9 9 9 9 9 9 9
          9 9
        </DataArray>
      </Cells>
    </Piece>
  </UnstructuredGrid>
</VTKFile>
