<?xml version="1.0"?>
<VTKFile type="UnstructuredGrid" version="0.1" byte_order="LittleEndian">
  <UnstructuredGrid>
    <Piece NumberOfCells="18" NumberOfPoints="28">
      <PointData Scalars="c">
        <DataArray type="Float32" Name="c" NumberOfComponents="1" format="ascii">
          0.7937 0.659834 0.767298 0.772924 0.709495 0.608217 0.782586 0.755256 0.463888 0.597787 0.617481 0.473542
          0.240767 0.370738 0.694056 0.275299 0.460175 0.363768 0.432353 0.475921 0.526637 0.689418 0.553917 0.530383
          0.739017 0.517034 0.789881 0.751804
        </DataArray>
      </PointData>
      <CellData Scalars="process rank">
        <DataArray type="Float32" Name="process rank" NumberOfComponents="1" format="ascii">
          1 1 1 1 1 1 1 1 1 1 1 1
          1 1 1 1 1 1
        </DataArray>
      </CellData>
      <Points>
        <DataArray type="Float32" Name="Coordinates" NumberOfComponents="3" format="ascii">
          0.5 0 0 0.666667 0 0 0.5 0.166667 0 0.666667 0.166667 0
          0.833333 0 0 0.833333 0.166667 0 1 0 0 1 0.166667 0
          0.5 0.333333 0 0.666667 0.333333 0 0.833333 0.333333 0 1 0.333333 0
          0.5 0.5 0 0.666667 0.5 0 0.833333 0.5 0 1 0.5 0
          0.5 0.666667 0 0.666667 0.666667 0 0.833333 0.666667 0 1 0.666667 0
          0.5 0.833333 0 0.666667 0.833333 0 0.833333 0.833333 0 1 0.833333 0
          0.5 1 0 0.666667 1 0 0.833333 1 0 1 1 0
        </DataArray>
      </Points>
      <Cells>
        <DataArray type="Int32" Name="connectivity" NumberOfComponents="1" format="ascii">
          0 1 3 2 1 4 5 3 4 6 7 5
          2 3 9 8 3 5 10 9 5 7 11 10
          8 9 13 12 9 10 14 13 10 11 15 14
          12 13 17 16 13 14 18 17 14 15 19 18
          16 17 21 20 17 18 22 21 18 19 23 22
          20 21 25 24 21 22 26 25 22 23 27 26
        </DataArray>
        <DataArray type="Int32" Name="offsets" NumberOfComponents="1" format="ascii">
          4 8 12 16 20 24 28 32 36 40 44 48
          52 56 60 64 68 72
        </DataArray>
        <DataArray type="UInt8" Name="types" NumberOfComponents="1" format="ascii">
          9 9 9 9 9 9 9 9 9 9 9 9
          9 9 9 9 9 9
        </DataArray>
      </Cells>
    </Piece>
  </UnstructuredGrid>
</VTKFile>
