<?xml version="1.0"?>
<VTKFile type="UnstructuredGrid" version="0.1" byte_order="LittleEndian">
  <UnstructuredGrid>
    <Piece NumberOfCells="50" NumberOfPoints="66">
      <PointData Scalars="c">
        <DataArray type="Float32" Name="c" NumberOfComponents="1" format="ascii">
          0.0310669 0.0454055 0.0318347 0.0417179 0.151223 0.122843 0.60494 0.44536 0.913399 0.842182 0.97646 0.9239
          0.0343987 0.0342536 0.0743882 0.197663 0.49711 0.669889 0.0385368 0.0284181 0.0439069 0.0838457 0.148188 0.187137
          0.0424578 0.0257314 0.0319396 0.0451773 0.059939 0.066897 0.0438416 0.0254117 0.0303727 0.040822 0.0512762 0.0558646
          0.0418624 0.0274558 0.0386987 0.0636586 0.0966672 0.114176 0.0379597 0.0335398 0.0679441 0.156054 0.307864 0.41219
          0.034596 0.0451329 0.133094 0.438475 0.796547 0.869974 0.0330494 0.0589986 0.221886 0.75329 0.949963 0.987869
          0.0327484 0.0656509 0.268929 0.820439 0.980281 1.00762
        </DataArray>
        <DataArray type="Float32" Name="mu" NumberOfComponents="1" format="ascii">
          2.52288 4.1823 2.46061 4.08921 6.01253 5.8368 7.70006 7.56053 8.05424 8.02932 8.11412 8.13276
          2.31556 3.86377 5.42192 6.84719 7.90439 8.06514 2.17269 3.62044 4.99448 6.19814 7.04558 7.35191
          2.0862 3.45163 4.71887 5.78889 6.52484 6.78999 2.05582 3.39119 4.64108 5.71237 6.46686 6.74404
          2.06566 3.42621 4.73554 5.92798 6.85212 7.22199 2.11388 3.51364 4.91738 6.26625 7.44102 8.01139
          2.19285 3.59492 5.03798 6.51027 7.23419 7.48124 2.26844 3.63308 5.01078 6.15979 6.78308 6.98309
          2.29946 3.63974 4.95753 5.99225 6.59989 6.79676
        </DataArray>
      </PointData>
      <CellData Scalars="process rank">
        <DataArray type="Float32" Name="process rank" NumberOfComponents="1" format="ascii">
          1 1 1 1 1 1 1 1 1 1 1 1
          1 1 1 1 1 1 1 1 1 1 1 1
          1 1 1 1 1 1 1 1 1 1 1 1
          1 1 1 1 1 1 1 1 1 1 1 1
          1 1
        </DataArray>
      </CellData>
      <Points>
        <DataArray type="Float32" Name="Coordinates" NumberOfComponents="3" format="ascii">
          0.5 0 0 0.6 0 0 0.5 0.1 0 0.6 0.1 0
          0.7 0 0 0.7 0.1 0 0.8 0 0 0.8 0.1 0
          0.9 0 0 0.9 0.1 0 1 0 0 1 0.1 0
          0.5 0.2 0 0.6 0.2 0 0.7 0.2 0 0.8 0.2 0
          0.9 0.2 0 1 0.2 0 0.5 0.3 0 0.6 0.3 0
          0.7 0.3 0 0.8 0.3 0 0.9 0.3 0 1 0.3 0
          0.5 0.4 0 0.6 0.4 0 0.7 0.4 0 0.8 0.4 0
          0.9 0.4 0 1 0.4 0 0.5 0.5 0 0.6 0.5 0
          0.7 0.5 0 0.8 0.5 0 0.9 0.5 0 1 0.5 0
          0.5 0.6 0 0.6 0.6 0 0.7 0.6 0 0.8 0.6 0
          0.9 0.6 0 1 0.6 0 0.5 0.7 0 0.6 0.7 0
          0.7 0.7 0 0.8 0.7 0 0.9 0.7 0 1 0.7 0
          0.5 0.8 0 0.6 0.8 0 0.7 0.8 0 0.8 0.8 0
          0.9 0.8 0 1 0.8 0 0.5 0.9 0 0.6 0.9 0
          0.7 0.9 0 0.8 0.9 0 0.9 0.9 0 1 0.9 0
          0.5 1 0 0.6 1 0 0.7 1 0 0.8 1 0
          0.9 1 0 1 1 0
        </DataArray>
      </Points>
      <Cells>
        <DataArray type="Int32" Name="connectivity" NumberOfComponents="1" format="ascii">
          0 1 3 2 1 4 5 3 4 6 7 5
          6 8 9 7 8 10 11 9 2 3 13 12
          3 5 14 13 5 7 15 14 7 9 16 15
          9 11 17 16 12 13 19 18 13 14 20 19
          14 15 21 20 15 16 22 21 16 17 23 22
          18 19 25 24 19 20 26 25 20 21 27 26
          21 22 28 27 22 23 29 28 24 25 31 30
          25 26 32 31 26 27 33 32 27 28 34 33
          28 29 35 34 30 31 37 36 31 32 38 37
          32 33 39 38 33 34 40 39 34 35 41 40
          36 37 43 42 37 38 44 43 38 39 45 44
          39 40 46 45 40 41 47 46 42 43 49 48
          43 44 50 49 44 45 51 50 45 46 52 51
          46 47 53 52 48 49 55 54 49 50 56 55
          50 51 57 56 51 52 58 57 52 53 59 58
          54 55 61 60 55 56 62 61 56 57 63 62
          57 58 64 63 58 59 65 64
        </DataArray>
        <DataArray type="Int32" Name="offsets" NumberOfComponents="1" format="ascii">
          4 8 12 16 20 24 28 32 36 40 44 48
          52 56 60 64 68 72 76 80 84 88 92 96
          100 104 108 112 116 120 124 128 132 136 140 144
          148 152 156 160 164 168 172 176 180 184 188 192
          196 200
        </DataArray>
        <DataArray type="UInt8" Name="types" NumberOfComponents="1" format="ascii">
          9 9 9 9 9 9 9 9 9 9 9 9
          9 9 9 9 9 9 9 9 9 9 9 9
          9 9 9 9 9 9 9 9 9 9 9 9
          9 9 9 9 9 9 9 9 9 9 9 9
          9 9
        </DataArray>
      </Cells>
    </Piece>
  </UnstructuredGrid>
</VTKFile>
