<?xml version="1.0"?>
<VTKFile type="UnstructuredGrid" version="0.1" byte_order="LittleEndian">
  <UnstructuredGrid>
    <Piece NumberOfCells="5805" NumberOfPoints="6089">
      <CellData Scalars="S_aq">
        <DataArray type="Float32" Name="S_aq" NumberOfComponents="1" format="ascii">
          1 1 1 1 1 1 1 1 1 1 1 1
          1 1 1 1 1 1 1 1 1 1 1 1
          1 1 1 1 1 1 1 1 1 1 1 1
          1 1 1 1 1 1 1 1 1 1 1 1
          1 1 1 1 1 1 1 1 1 1 1 1
          1 1 1 1 1 1 1 1 1 1 1 1
          1 1 1 1 1 1 1 1 1 1 1 1
          1 1 1 1 1 1 1 1 1 1 1 1
          1 1 1 1 1 1 1 1 1 1 1 1
          1 1 1 1 1 1 1 1 1 1 1 1
          1 1 1 1 1 1 1 1 1 1 1 1
          1 1 1 1 1 1 1 1 1 1 1 1
          1 1 1 1 1 1 1 1 1 1 1 1
          1 1 1 1 1 1 1 1 1 1 1 1
          1 1 1 1 1 1 1 1 1 1 1 1
          1 1 1 1 1 1 1 1 1 1 1 1
          1 1 1 1 1 1 1 1 1 1 1 1
          1 1 1 1 1 1 1 1 1 1 1 1
          1 1 1 1 1 1 1 1 1 1 1 1
          1 1 1 1 1 1 1 1 1 1 1 1
          1 1 1 1 1 1 1 1 1 1 1 1
          1 1 1 1 1 1 1 1 1 1 1 1
          1 1 1 1 1 1 1 1 1 1 1 1
          1 1 1 1 1 1 1 1 1 1 1 1
          1 1 1 1 1 1 1 1 1 1 1 1
          1 1 1 1 1 1 1 1 1 1 1 1
          1 1 1 1 1 1 1 1 1 1 1 1
          1 1 1 1 1 1 1 1 1 1 1 1
          1 1 1 1 1 1 1 1 1 1 1 1
          1 1 1 1 1 1 1 1 1 1 1 1
          1 1 1 1 1 1 1 1 1 1 1 1
          1 1 1 1 1 1 1 1 1 1 1 1
          1 1 1 1 1 1 1 1 1 1 1 1
          1 1 1 1 1 1 1 1 1 1 1 1
          1 1 1 1 1 1 1 1 1 1 1 1
          1 1 1 1 1 1 1 1 1 1 1 1
          1 1 1 1 1 1 1 1 1 1 1 1
          1 1 1 1 1 1 1 1 1 1 1 1
          1 1 1 1 1 1 1 1 1 1 1 1
          1 1 1 1 1 1 1 1 1 1 1 1
          1 1 1 0.999995 0.999995 1 1 0.999999 0.999999 1 1 1
          1 1 1 1 1 1 1 1 1 1 0.999989 0.999989
          0.999399 0.999394 0.999175 0.999194 0.9999 0.9999 0.999881 0.999881 0.9998 0.999799 0.999724 0.999727
          0.999599 0.999598 0.999461 0.999465 0.997974 0.997952 0.997194 0.997244 0.998497 0.99847 0.997919 0.997992
          1 1 1 1 1 1 1 1 1 1 1 1
          1 1 1 1 1 1 1 1 1 1 1 1
          1 1 1 1 1 1 1 1 1 1 1 1
          1 1 1 1 1 1 1 1 1 1 1 1
          1 1 1 1 1 1 1 1 1 1 1 1
          1 1 1 1 1 1 1 1 0.999998 0.999997 1 1
          1 1 1 0.999698 0.999699 0.999589 0.999586 0.999899 0.9999 0.999869 0.999866 0.998956
          0.998994 0.998693 0.998596 0.998149 0.998173 0.997539 0.997473 1 1 0.999999 0.999999 1
          0.999999 1 1 0.999999 0.999787 0.9998 0.999756 0.999729 1 1 1 1
          1 1 1 1 1 1 1 1 1 1 1 1
          1 1 1 1 1 1 1 1 1 1 1 1
          1 1 1 1 1 1 1 1 1 1 1 1
          1 1 1 1 1 1 1 1 1 1 1 1
          1 1 1 1 1 1 1 1 1 1 1 1
          1 1 1 1 1 1 1 1 1 0.999993 0.999994 1
          1 1 1 1 0.9999 0.9999 0.999886 0.999886 0.999299 0.99929 0.999029 0.999064
          1 1 0.999998 0.999998 0.999198 0.999187 0.998865 0.998906 0.997493 0.997386 0.996385 0.996623
          0.994148 0.993662 0.991554 0.992356 0.997 0.996822 0.995646 0.996006 0.995841 0.99564 0.994092 0.994452
          0.994819 0.994712 0.992961 0.99313 0.989874 0.989628 0.986687 0.98698 0.991514 0.990924 0.988072 0.988942
          0.999699 0.999698 0.999583 0.999592 0.997299 0.997136 0.996052 0.996391 0.993955 0.9933 0.991191 0.992291
          0.998203 0.998124 0.997435 0.997637 0.993502 0.992829 0.990527 0.991642 0.98911 0.98788 0.984762 0.986388
          0.982777 0.980828 0.977412 0.979658 0.988434 0.986785 0.983691 0.985839 0.985194 0.984096 0.980756 0.982056
          0.983076 0.98277 0.979426 0.979734 0.97587 0.975594 0.972123 0.972352 0.97826 0.976839 0.973297 0.974834
          1 1 1 1 1 1 1 1 1 0.999499 0.99946 0.999203
          0.999331 0.997704 0.997506 0.99667 0.997009 1 1 0.999998 0.999999 1 1 1
          1 1 1 1 1 1 1 1 0.9998 0.999652 0.999453 0.999727
          0.994855 0.994169 0.992534 0.993637 0.991253 0.989554 0.987203 0.989472 0.998499 0.998106 0.997571 0.998035
          0.995499 0.995026 0.993457 0.994259 0.989357 0.987634 0.984751 0.987046 0.983913 0.98111 0.977979 0.98128
          0.991682 0.990409 0.987872 0.989742 0.98244 0.979882 0.976561 0.979506 0.976042 0.973616 0.970137 0.972735
          0.9692 0.966517 0.963124 0.965884 0.976109 0.972914 0.969571 0.973001 0.971114 0.96953 0.966043 0.967659
          0.968638 0.968477 0.965115 0.965195 0.961729 0.961747 0.958617 0.958482 0.964111 0.96251 0.959191 0.960766
          0.986861 0.984385 0.981536 0.984636 0.97814 0.974482 0.971307 0.975311 0.972194 0.967964 0.96482 0.969277
          0.981809 0.978178 0.975227 0.979391 0.969663 0.966098 0.962826 0.966522 0.962486 0.959701 0.956439 0.959245
          0.955972 0.953176 0.950016 0.952797 0.963268 0.9595 0.956297 0.960139 0.957409 0.955887 0.952737 0.954198
          0.95527 0.955543 0.952664 0.952228 0.949254 0.949884 0.947292 0.946433 0.951005 0.94963 0.946648 0.947918
          1 1 1 1 1 1 1 1 1 1 1 1
          1 1 1 1 1 1 1 1 1 1 1 1
          1 1 1 0.999944 0.999921 1 1 0.999633 0.999565 1 1 0.996048
          0.995612 0.994456 0.995194 0.986827 0.984027 0.98145 0.984953 0.982544 0.978404 0.975721 0.980523 0.99333
          0.99205 0.990348 0.992281 1 1 1 1 1 1 0.999072 0.998992 1
          0.9999 0.998391 0.998137 0.999899 1 1 1 1 0.990402 0.987628 0.985666 0.989231
          0.978106 0.972744 0.969938 0.975913 0.973363 0.966859 0.963772 0.970874 0.987378 0.983005 0.980784 0.986061
          0.976585 0.972023 0.969059 0.974021 0.966197 0.96159 0.958471 0.963235 0.960149 0.95527 0.952085 0.957091
          0.971196 0.96594 0.962931 0.968496 0.956948 0.953065 0.949896 0.953822 0.949606 0.946862 0.943767 0.946466
          0.94329 0.940662 0.937578 0.940112 0.950626 0.946676 0.94345 0.94742 0.944856 0.943719 0.940894 0.941868
          0.943699 0.944831 0.942565 0.94111 0.938635 0.940472 0.938612 0.936324 0.9389 0.93813 0.93547 0.935987
          0.965575 0.959764 0.956573 0.962658 0.953886 0.948778 0.94539 0.950607 0.94712 0.941812 0.938052 0.943449
          0.959495 0.953171 0.949618 0.956208 0.944101 0.940134 0.936743 0.940693 0.93687 0.934469 0.93136 0.933581
          0.930204 0.928231 0.92512 0.926762 0.937113 0.933216 0.929563 0.933366 0.9331 0.932899 0.930465 0.930274
          0.934176 0.936993 0.935685 0.93225 0.930578 0.934723 0.934192 0.929241 0.92751 0.928185 0.926131 0.924864
          1 1 1 1 1 1 1 1 0.9998 0.99768 0.997501 0.9998
          0.9998 0.997117 0.996809 0.999801 1 1 1 1 0.984241 0.97804 0.975425 0.982732
          0.968035 0.960373 0.956769 0.965064 0.961584 0.952675 0.948064 0.957658 0.980722 0.972262 0.968926 0.978806
          1 1 0.999961 0.996276 0.996812 1 1 0.997325 0.999217 1 1 0.976452
          0.9649 0.960256 0.974356 0.9529 0.942622 0.93614 0.947104 0.939399 0.928115 0.918237 0.928884 0.970764
          0.953618 0.943248 0.963863 0.9526 0.945759 0.941586 0.948698 0.939477 0.93402 0.9297 0.935185 0.930457
          0.925021 0.919991 0.925262 0.944294 0.936937 0.931756 0.939328 0.929388 0.925748 0.921801 0.925184 0.92325
          0.922051 0.919106 0.919726 0.91625 0.916373 0.914004 0.912961 0.920727 0.917742 0.913675 0.916074 0.922381
          0.924363 0.922986 0.92016 0.928304 0.934151 0.934687 0.927872 0.928033 0.935863 0.937737 0.928891 0.918304
          0.922102 0.921842 0.916959 0.933572 0.92589 0.919289 0.926884 0.919529 0.914621 0.909063 0.913313 0.906771
          0.903583 0.898645 0.900366 0.919037 0.911938 0.904157 0.910097 0.911315 0.909741 0.906178 0.906665 0.910021
          0.912157 0.911019 0.907654 0.906065 0.910741 0.911436 0.905434 0.902423 0.903248 0.901208 0.898945 0.916264
          0.922315 0.923623 0.916365 0.930524 0.940335 0.943623 0.932976 0.936248 0.947537 0.951894 0.940255 0.917364
          0.925821 0.928907 0.919321 0.995072 0.995231 0.993727 0.993449 0.996587 0.99687 0.995991 0.99547 0.99284
          0.993684 0.992015 0.990746 0.990278 0.990707 0.988077 0.987472 0.998639 0.998795 0.998517 0.99822 0.999879
          0.9999 0.999886 0.999853 0.999125 0.999298 0.999185 0.998912 0.996282 0.9969 0.996251 0.995267 1
          1 1 1 1 1 0.999994 1 0.999999 0.999992 0.983627 0.984424 0.981399
          0.980368 0.987307 0.989007 0.986682 0.984556 0.981101 0.983613 0.981146 0.978168 0.976586 0.977824 0.97467
          0.973201 0.993008 0.994438 0.993403 0.991435 0.997458 0.998006 0.997755 0.996958 0.995438 0.996599 0.996208
          0.994697 0.98877 0.991393 0.989948 0.986722 0.999736 0.9998 0.999787 0.999702 0.999999 1 1
          1 0.999994 1 1 0.999994 0.999081 0.999299 0.99927 0.998995 1 1 1
          1 1 1 1 1 1 0.969632 0.971312 0.968291 0.966378 0.974948 0.978307
          0.975935 0.972147 0.96931 0.973466 0.971401 0.966836 0.963126 0.965265 0.962536 0.960142 0.984075 0.987729
          0.986288 0.982098 0.993198 0.995092 0.994668 0.992413 0.991128 0.99376 0.993398 0.990409 0.979877 0.984468
          0.983255 0.978181 0.998319 0.998796 0.998739 0.998171 0.99988 0.9999 0.9999 0.999878 0.999846 0.9999
          0.999899 0.999844 0.997458 0.998197 0.998143 0.997318 0.957235 0.959896 0.957528 0.954562 0.96446 0.969407
          0.967799 0.962423 0.960576 0.966374 0.965332 0.959075 0.952023 0.955322 0.953401 0.949721 0.976474 0.98192
          0.981078 0.975233 0.989398 0.992741 0.992509 0.988902 0.988318 0.992145 0.992095 0.98817 0.974134 0.980286
          0.979935 0.973476 0.996837 0.997794 0.997761 0.996751 0.999717 0.9998 0.999799 0.999715 0.999603 0.9997
          0.999701 0.999605 0.996507 0.997591 0.997588 0.996497 1 1 1 1 1 1
          1 1 1 1 1 1 1 1 1 1 1 1
          0.999999 1 1 0.999999 1 1 1 1 1 1 1 1
          1 1 1 1 1 1 1 1 1 1 1 1
          1 1 1 1 1 1 0.947599 0.951703 0.95032 0.945735 0.95783 0.964541
          0.964128 0.95695 0.956398 0.964032 0.96433 0.956254 0.944107 0.949226 0.948499 0.942788 0.973043 0.979735
          0.979877 0.972998 0.988092 0.992067 0.992176 0.988275 0.988647 0.992431 0.992689 0.989135 0.973244 0.980243
          0.980862 0.973841 0.996494 0.997593 0.997619 0.996553 0.999701 0.9998 0.9998 0.999704 0.999722 0.9998
          0.999801 0.999727 0.996771 0.997791 0.997839 0.996888 0.941787 0.948143 0.948226 0.941179 0.956505 0.964988
          0.966019 0.9572 0.958345 0.967428 0.969143 0.95994 0.940996 0.948768 0.949815 0.941314 0.974771 0.981772
          0.982796 0.975966 0.98995 0.993253 0.993596 0.990625 0.991747 0.994418 0.99475 0.99241 0.977525 0.984203
          0.985452 0.979175 0.997349 0.998192 0.998239 0.997481 0.999853 0.9999 0.9999 0.999855 0.999879 0.9999
          0.9999 0.99988 0.998105 0.998694 0.998725 0.998204 1 1 1 1 1 1
          1 1 1 1 1 1 1 1 1 1 1 1
          1 1 1 1 1 1 0.942176 0.951383 0.953465 0.943634 0.961997 0.971217
          0.973431 0.964421 0.967261 0.975983 0.978413 0.970269 0.945717 0.95606 0.959064 0.948413 0.981229 0.987207
          0.988431 0.98309 0.99365 0.995692 0.995962 0.994217 0.99555 0.996982 0.997154 0.995952 0.985467 0.990363
          0.99132 0.987229 0.998853 0.999197 0.999211 0.99891 0.999993 1 1 0.999994 0.999999 1
          1 0.999999 0.999449 0.999599 0.999603 0.99947 0.951715 0.962478 0.966051 0.955488 0.973635 0.981247
          0.983572 0.976823 0.980406 0.986592 0.988389 0.983238 0.959689 0.969875 0.973462 0.964015 0.989757 0.99312
          0.993752 0.991091 0.997329 0.998187 0.998264 0.99755 0.998802 0.999196 0.999212 0.99888 0.993297 0.995412
          0.995802 0.994105 0.999856 0.9999 0.9999 0.999858 1 1 1 1 1 0.999993
          1 1 0.999994 1 1 1 1 1 1 1 1 1
          1 1 1 1 1 1 1 1 1 1 1 1
          1 1 1 1 1 1 1 1 1 1 1 1
          1 1 1 1 1 1 1 1 1 1 1 1
          1 1 1 1 1 1 1 1 1 1 1 1
          1 1 1 1 1 1 1 1 1 1 1 1
          1 1 1 1 1 1 1 1 1 1 1 1
          1 1 1 1 1 1 1 1 1 1 1 1
          1 1 1 1 0.999761 0.99999 1 1 1 0.999999 0.999997 0.999999
          0.999863 0.99932 1 1 1 1 0.999999 0.999977 0.999179 0.993282 0.999625 1
          1 1 1 1 1 0.999999 0.999767 0.99758 0.999977 0.994996 0.974697 0.948539
          0.983015 0.964843 0.921661 0.89809 0.949943 0.999542 0.992639 0.987628 0.999027 0.999984 0.999814 0.995626
          0.999586 0.99835 0.994753 0.974284 0.986867 0.956955 0.938922 0.898578 0.919105 0.993344 0.977455 0.945183
          0.973 0.991639 0.995425 0.976262 0.966053 0.998873 0.999944 0.997921 0.99 0.963188 0.985149 0.957595
          0.927382 0.928798 0.941751 0.902345 0.887476 0.999978 1 0.999999 0.996714 0.999927 0.998519 0.985894
          0.94177 0.908404 0.870194 0.908557 0.87847 0.856063 0.813359 0.838285 0.798047 0.767036 0.711197 0.755571
          0.875081 0.833783 0.799152 0.845793 0.844178 0.860763 0.819204 0.798447 0.888941 0.924211 0.889427 0.850333
          0.812274 0.855859 0.825642 0.773231 0.743576 0.774486 0.721104 0.664704 0.961807 0.990764 0.973982 0.933685
          0.999123 0.999993 0.999887 0.995442 0.988408 0.998905 0.998339 0.982918 0.905808 0.953924 0.939229 0.882189
          1 1 1 1 1 1 1 1 1 1 1 1
          1 1 1 1 1 1 0.999998 1 1 1 1 1
          1 1 1 1 1 1 1 1 1 1 1 1
          1 1 1 1 1 1 1 1 1 1 1 1
          1 1 1 1 1 1 1 1 1 1 1 1
          1 1 1 1 1 1 1 1 1 1 1 1
          1 1 1 1 1 1 1 1 1 1 1 1
          1 1 1 1 1 1 1 1 1 1 1 1
          1 1 1 1 1 1 1 1 1 1 0.9995 0.999499
          0.999307 0.999415 1 1 0.999968 0.999982 1 1 1 1 1 1
          1 1 1 1 1 1 1 1 0.999999 0.999999 1 1
          0.999998 0.999998 0.998702 0.998702 0.998701 0.998701 0.998902 0.998901 0.9989 0.998901 1 1
          0.999997 0.999997 1 1 0.999996 0.999996 0.998504 0.998503 0.998501 0.998501 0.998603 0.998603
          0.998601 0.998601 1 1 0.999995 0.999996 1 1 0.999995 0.999995 0.998305 0.998305
          0.998302 0.998302 0.998404 0.998404 0.998401 0.998402 1 1 1 1 1 1
          1 1 1 1 1 1 1 1 1 1 1 1
          1 1 1 1 1 1 1 1 1 1 1 1
          1 1 1 1 1 0.999995 0.999995 1 1 0.999993 0.999994 0.998206
          0.998206 0.998202 0.998202 0.998305 0.998305 0.998301 0.998302 1 1 0.999992 0.999992 0.9999
          0.9999 0.999893 0.999893 0.998106 0.998106 0.998102 0.998102 0.998107 0.998107 0.998103 0.998103 0.9999
          0.9999 0.999891 0.999892 0.9999 0.9999 0.999891 0.999891 0.998008 0.998008 0.998003 0.998003 0.998008
          0.998008 0.998003 0.998004 1 1 1 1 1 1 1 1 1
          1 1 1 1 1 1 1 1 1 1 1 1
          1 1 1 1 1 1 1 1 1 0.9999 0.9999 0.999891
          0.999891 0.9999 0.9999 0.99989 0.99989 0.997909 0.997909 0.997904 0.997904 0.998008 0.998007 0.998003
          0.998003 0.9999 0.9999 0.99989 0.99989 0.9999 0.9999 0.99989 0.99989 0.997909 0.997908 0.997903
          0.997904 0.997909 0.997909 0.997904 0.997904 0.9999 0.9999 0.999888 0.999888 0.9999 0.9999 0.999888
          0.999888 0.99781 0.99781 0.997805 0.997805 0.997811 0.99781 0.997805 0.997805 1 1 0.999994
          1 1 0.998242 0.984842 0.991933 0.999643 0.942513 0.882702 0.888408 0.953583 0.979296 0.922178
          0.972244 0.995994 0.999963 0.997676 0.99994 0.999981 1 1 1 0.999906 0.997096 0.999997
          0.999997 1 1 0.823093 0.767807 0.757666 0.819835 0.710361 0.637622 0.632307 0.697879 0.70941
          0.650318 0.707197 0.761359 0.846426 0.773916 0.834156 0.912069 0.521901 0.651661 0.652716 0.559426 0.73437
          0.802722 0.811634 0.734819 0.772763 0.863628 0.948456 0.865449 0.609914 0.685024 0.767878 0.692766 0.869943
          0.934197 0.955349 0.889049 0.980496 0.996571 0.998252 0.991317 0.998095 0.998639 0.998654 0.998651 0.943912
          0.989392 0.99827 0.991392 0.983415 0.939834 0.995377 0.999407 0.876438 0.831241 0.966233 0.980615 0.998904
          0.998295 1 1 0.999998 0.832092 0.900532 0.986646 0.966019 0.968557 0.994952 0.999993 0.99806
          1 0.998205 0.99942 1 1 0.99979 1 1 1 1 1 1
          1 1 1 1 1 1 1 1 1 1 1 1
          1 1 1 1 1 1 1 1 1 0.999907 0.999999 0.999999
          0.999981 1 1 0.99999 1 1 0.999998 1 1 1 1 1
          1 1 1 1 1 1 1 1 1 1 1 1
          1 1 1 1 1 1 1 1 1 1 1 1
          1 1 1 1 1 1 1 1 1 1 1 1
          1 1 1 1 1 1 1 1 1 1 1 1
          1 1 1 1 1 1 1 1 1 1 1 1
          1 1 1 1 1 1 1 1 1 1 1 1
          1 1 1 1 1 0.9999 0.999842 0.999857 0.9999 1 1 1
          1 1 0.997077 0.99584 0.996825 0.997458 0.987727 0.975753 0.990431 0.992281 0.998886 0.998617
          0.998664 0.998905 1 0.999998 0.999997 1 1 1 1 1 1 1
          0.999996 0.999997 1 0.998904 0.998681 0.998663 0.998891 0.998708 0.998476 0.998446 0.998682 1
          0.999994 0.999996 1 0.945675 0.910224 0.97779 0.981408 0.86325 0.811959 0.961121 0.968026 0.985798
          0.982722 0.984302 0.986883 0.994863 0.993703 0.994082 0.995115 0.758234 0.705678 0.935038 0.946591 0.655607
          0.610278 0.904218 0.919789 0.956317 0.951272 0.956425 0.960353 0.969428 0.964412 0.967526 0.971795 0.570117
          0.535332 0.865716 0.885852 0.505518 0.480197 0.817685 0.842861 0.935422 0.930739 0.943368 0.945656 0.945315
          0.940551 0.948762 0.951852 0.995231 0.994231 0.99418 0.995192 0.98719 0.984632 0.984407 0.987028 0.986745
          0.984057 0.983753 0.986529 0.995053 0.994037 0.993968 0.994999 0.97207 0.967804 0.967336 0.9717 0.960759
          0.956953 0.956535 0.960339 0.959749 0.955927 0.955272 0.959116 0.971194 0.966708 0.966048 0.970675 0.952624
          0.949781 0.949536 0.952306 0.94702 0.945091 0.945083 0.946902 0.946514 0.944769 0.94439 0.946067 0.951775
          0.949055 0.948521 0.951194 1 1 1 1 1 1 0.999989 0.999991 1
          0.998417 0.998183 0.998157 0.998395 0.998222 0.997979 0.997952 0.998199 1 0.999984 0.999987 1
          1 1 1 1 1 1 1 1 1 0.999978 0.999982 1
          0.99803 0.997777 0.997748 0.998005 0.997838 0.997581 0.997548 0.997811 0.9999 0.999874 0.999871 0.9999
          0.994854 0.993827 0.993767 0.9948 0.986243 0.983394 0.983129 0.986076 0.985856 0.982818 0.98255 0.985699
          0.994664 0.99364 0.99358 0.99461 0.970117 0.965345 0.964647 0.969582 0.958451 0.95459 0.953906 0.957782
          0.957093 0.95321 0.952519 0.956406 0.969013 0.963915 0.96319 0.968463 0.950594 0.947972 0.947427 0.949994
          0.945608 0.943999 0.943617 0.945154 0.944707 0.943245 0.942888 0.944273 0.949388 0.946884 0.946351 0.948789
          0.994479 0.993458 0.993416 0.994446 0.985499 0.982242 0.981987 0.98538 0.985235 0.981699 0.981449 0.985144
          0.99437 0.993341 0.993303 0.99434 0.967885 0.962436 0.961685 0.967325 0.955702 0.951819 0.951123 0.954997
          0.95427 0.950412 0.949698 0.953536 0.966734 0.9609 0.960112 0.966154 0.948189 0.945822 0.945303 0.947594
          0.943845 0.942538 0.9422 0.943426 0.943012 0.941869 0.941549 0.942607 0.946992 0.944783 0.944268 0.946389
          0.458674 0.440443 0.761179 0.790228 0.424903 0.411772 0.701165 0.731183 0.915432 0.909906 0.936554 0.937877
          0.925734 0.920777 0.939486 0.941186 0.400633 0.391343 0.644395 0.671952 0.383332 0.376183 0.596124 0.619015
          0.891298 0.884714 0.932084 0.933075 0.903952 0.897782 0.934171 0.935279 0.369576 0.363631 0.55774 0.575729
          0.358201 0.353344 0.527228 0.541736 0.865166 0.858718 0.928616 0.92939 0.878058 0.871564 0.930225 0.931096
          0.943354 0.942118 0.942373 0.943486 0.941048 0.94028 0.940801 0.941443 0.941372 0.940794 0.940673 0.941201
          0.943263 0.942224 0.941988 0.942964 0.939628 0.939156 0.939942 0.940289 0.938751 0.938444 0.939487 0.939672
          0.93983 0.939684 0.939698 0.939821 0.940346 0.94005 0.940012 0.940272 0.938165 0.937957 0.93923 0.939333
          0.937787 0.937662 0.939124 0.93916 0.939447 0.939432 0.939495 0.939502 0.93957 0.939495 0.939543 0.939603
          0.34884 0.344729 0.500408 0.513577 0.340825 0.33721 0.474647 0.487414 0.835079 0.824619 0.924393 0.925689
          0.851791 0.844051 0.926813 0.92775 0.333759 0.330583 0.45039 0.46219 0.32758 0.324848 0.429668 0.439451
          0.783991 0.768703 0.917307 0.919204 0.812491 0.798822 0.921108 0.922843 0.322279 0.319953 0.413593 0.421032
          0.317762 0.315767 0.401698 0.407159 0.726436 0.714892 0.912266 0.912884 0.75366 0.739442 0.913999 0.915528
          0.937515 0.93737 0.939048 0.93908 0.937196 0.937005 0.938977 0.939012 0.939392 0.939386 0.939471 0.939471
          0.93941 0.939401 0.939475 0.939478 0.93676 0.936506 0.938881 0.938925 0.93625 0.936072 0.938904 0.938856
          0.939394 0.939488 0.939624 0.939515 0.939376 0.939374 0.939483 0.939477 0.93604 0.936201 0.939467 0.939098
          0.936745 0.93766 0.941367 0.940236 0.940985 0.942203 0.942484 0.941199 0.939729 0.940144 0.940315 0.93988
          0.942654 0.941741 0.941502 0.942353 0.941016 0.940534 0.940398 0.940836 0.940666 0.940271 0.940156 0.940509
          0.942062 0.941274 0.941059 0.941785 0.940175 0.939945 0.939875 0.940078 0.93978 0.939673 0.939641 0.939733
          0.939689 0.93961 0.939581 0.939647 0.939988 0.939811 0.939753 0.939907 0.93959 0.939541 0.939523 0.939564
          0.93951 0.939497 0.939539 0.939514 0.939504 0.939516 0.941519 0.940857 0.940667 0.941266 0.940363 0.94005
          0.939951 0.940227 0.940097 0.939856 0.93976 0.939968 0.94102 0.940484 0.940307 0.940783 0.939832 0.939698
          0.939645 0.939761 0.939605 0.939549 0.939517 0.939563 0.939521 0.939489 0.939459 0.939477 0.939693 0.939593
          0.939539 0.939622 0.939498 0.939473 0.93944 0.939452 0.939489 0.939487 0.939475 0.939476 0.939508 0.93955
          0.939665 0.939663 0.939545 0.939552 0.93967 0.939654 0.939538 0.939506 0.939927 0.940375 0.940399 0.939935
          0.941301 0.942652 0.94279 0.941367 0.941423 0.942921 0.943049 0.94147 0.939939 0.940413 0.940418 0.939929
          0.939449 0.939492 0.939541 0.939656 0.939631 0.939524 0.939513 0.939616 0.939582 0.939484 0.939457 0.939924
          0.94042 0.940411 0.939901 0.941513 0.943176 0.943304 0.941547 0.941578 0.943436 0.943571 0.941604 0.93988
          0.940399 0.940377 0.939846 1 1 1 1 1 1 1 1 1
          1 1 0.9999 0.999863 0.999863 0.9999 0.997651 0.997388 0.997384 0.997648 0.997648 0.997384
          0.997385 0.997649 0.9999 0.999863 0.999864 0.9999 1 1 1 1 1 1
          1 1 1 1 1 0.9999 0.999864 0.999865 0.9999 0.99765 0.997387 0.997404
          0.997662 0.997744 0.997492 0.997524 0.997769 0.9999 0.999869 0.99987 0.9999 0.994271 0.993239 0.993225
          0.994267 0.985035 0.981173 0.980924 0.984962 0.98488 0.980656 0.980417 0.984837 0.994266 0.993212 0.993209
          0.994267 0.965549 0.959295 0.958472 0.964955 0.952778 0.948968 0.948227 0.952007 0.951193 0.947452 0.946632
          0.950332 0.964329 0.957601 0.95669 0.963695 0.945778 0.943752 0.943234 0.94516 0.942205 0.941234 0.940918
          0.941803 0.941385 0.940588 0.940225 0.940936 0.944515 0.942697 0.942127 0.943832 0.994273 0.99321 0.993232
          0.994299 0.984793 0.980154 0.9799 0.984777 0.984786 0.979622 0.979348 0.984853 0.994371 0.993288 0.993343
          0.994425 0.963009 0.955691 0.954588 0.962281 0.949381 0.945731 0.944716 0.94831 0.94705 0.943526 0.942104
          0.945537 0.961451 0.953302 0.951773 0.960488 0.943077 0.941492 0.940759 0.942216 0.940424 0.939798 0.939271
          0.939813 0.93905 0.938591 0.937701 0.938081 0.941193 0.939872 0.938779 0.939954 1 1 1
          1 1 1 1 1 1 1 1 0.9999 0.999878 0.999879 0.9999
          0.997933 0.997699 0.997745 0.997967 0.998221 0.998019 0.998071 0.998258 0.9999 0.999888 0.999888 0.9999
          1 1 1 1 1 1 0.999993 0.999996 1 0.99861 0.998453 0.998514
          0.998649 0.999201 0.999127 0.999162 0.99922 1 1 1 1 0.994569 0.99347 0.99358
          0.994669 0.984989 0.979018 0.978606 0.985192 0.985544 0.978032 0.977221 0.985995 0.994942 0.993832 0.994015
          0.995085 0.95927 0.949877 0.947523 0.957681 0.94368 0.940381 0.93832 0.941425 0.938748 0.935927 0.9333
          0.935737 0.955527 0.944624 0.941208 0.952657 0.938439 0.937422 0.935767 0.936617 0.936848 0.936544 0.935082
          0.935313 0.933481 0.933319 0.931329 0.931431 0.934496 0.93382 0.931666 0.932167 0.995508 0.994449 0.994782
          0.995741 0.986747 0.976191 0.975137 0.9876 0.989183 0.974851 0.977139 0.991136 0.996608 0.995712 0.996245
          0.996902 0.948965 0.937406 0.933503 0.944485 0.932583 0.930629 0.928187 0.929591 0.927091 0.926248 0.924999
          0.925355 0.939291 0.929837 0.926765 0.933252 0.929805 0.929468 0.92746 0.927658 0.929322 0.929271 0.927366
          0.927382 0.925842 0.925845 0.924861 0.924855 0.92597 0.925875 0.924865 0.924897 0.940548 0.940127 0.939939
          0.940308 0.939833 0.939657 0.93954 0.939688 0.939519 0.939397 0.939207 0.939306 0.94005 0.939731 0.939482
          0.939756 0.939543 0.939476 0.939396 0.939448 0.939427 0.939416 0.939368 0.939366 0.939256 0.93925 0.939098
          0.939107 0.939322 0.939284 0.93912 0.939147 0.939368 0.939354 0.939196 0.939191 0.939037 0.939046 0.939222
          0.939209 0.939059 0.939074 0.939394 0.939162 0.938733 0.938927 0.939018 0.93894 0.938555 0.938616 0.938049
          0.938004 0.937232 0.937264 0.938303 0.938141 0.937334 0.937464 0.938891 0.938869 0.9385 0.938518 0.93885
          0.938836 0.938473 0.938486 0.93795 0.937936 0.937181 0.937193 0.937977 0.937963 0.937204 0.937215 0.938815
          0.938798 0.938431 0.938451 0.938783 0.938772 0.938402 0.938414 0.937872 0.93786 0.937105 0.937117 0.937913
          0.93789 0.937135 0.937158 0.939339 0.93934 0.939179 0.939187 0.939037 0.939027 0.93918 0.939178 0.939025
          0.939028 0.93938 0.939454 0.939551 0.939482 0.939398 0.939299 0.939387 0.939225 0.939135 0.939212 0.939233
          0.939088 0.939063 0.939808 0.940347 0.940292 0.939739 0.941623 0.94371 0.943845 0.941624 0.941595 0.943966
          0.944055 0.94151 0.939642 0.940204 0.940057 0.939481 0.938763 0.93876 0.93839 0.938393 0.938763 0.938776
          0.93841 0.938395 0.937855 0.937873 0.93712 0.937102 0.937851 0.937848 0.937095 0.937097 0.938804 0.938835
          0.938475 0.938441 0.93889 0.938981 0.938614 0.938525 0.937994 0.93808 0.937321 0.937242 0.937906 0.937943
          0.937193 0.937156 0.939236 0.939821 0.939456 0.938864 0.941339 0.944087 0.944025 0.941038 0.940553 0.943826
          0.943429 0.939818 0.938318 0.938908 0.938117 0.93754 0.936357 0.936257 0.934873 0.934943 0.936209 0.936188
          0.934837 0.934846 0.933181 0.93318 0.931288 0.931282 0.933226 0.933188 0.931274 0.931282 0.936177 0.936167
          0.934823 0.93483 0.93616 0.93615 0.93481 0.934817 0.933168 0.933163 0.931276 0.931281 0.933177 0.933172
          0.931284 0.931287 0.936129 0.936108 0.934773 0.934792 0.936091 0.93608 0.934748 0.934758 0.933117 0.933109
          0.931233 0.931239 0.933147 0.93313 0.93125 0.931263 0.929265 0.92928 0.927419 0.927391 0.929298 0.929306
          0.927444 0.927437 0.92592 0.925923 0.924908 0.924907 0.925881 0.925909 0.924901 0.924886 0.929306 0.929304
          0.927444 0.927445 0.929302 0.929298 0.92744 0.927442 0.925923 0.925922 0.924908 0.924908 0.925924 0.925923
          0.924908 0.924908 0.929287 0.929277 0.927429 0.927434 0.92927 0.929266 0.927424 0.927425 0.925917 0.925916
          0.924907 0.924907 0.92592 0.925918 0.924907 0.924907 0.936073 0.936072 0.934742 0.934742 0.936079 0.936097
          0.934766 0.934749 0.933111 0.933127 0.931249 0.931236 0.933104 0.933105 0.931231 0.93123 0.936131 0.936165
          0.934826 0.934797 0.936211 0.936279 0.934915 0.934863 0.9332 0.933231 0.931298 0.931291 0.933154 0.933175
          0.931284 0.931271 0.936472 0.937025 0.935587 0.935075 0.938766 0.94277 0.94178 0.937339 0.935522 0.940418
          0.938685 0.933374 0.933352 0.933806 0.931759 0.931379 0.929264 0.929264 0.927423 0.927423 0.929269 0.929278
          0.92743 0.927425 0.925917 0.925919 0.924907 0.924907 0.925916 0.925916 0.924907 0.924907 0.929294 0.929299
          0.927435 0.927439 0.929287 0.929271 0.927377 0.927406 0.925882 0.925853 0.924863 0.92488 0.925922 0.925915
          0.924903 0.924908 0.929317 0.929609 0.927596 0.927395 0.931045 0.936656 0.934438 0.928768 0.926799 0.932077
          0.929296 0.925335 0.925855 0.92597 0.924908 0.924861 1 1 1 1 1 1
          1 1 1 1 1 1 1 1 1 1 1 1
          1 1 1 1 1 1 1 1 1 1 1 1
          0.999846 0.999711 1 0.9999 0.999623 0.999579 0.9999 1 1 1 1 0.934674
          0.924266 0.908026 0.91534 0.914702 0.906758 0.896138 0.901405 0.890871 0.887762 0.881563 0.883233 0.90086
          0.895194 0.886248 0.891026 1 1 1 1 1 1 1 1 0.9998
          0.999554 0.99954 0.9998 0.9997 0.999529 0.99952 0.9997 1 1 1 1 0.884325
          0.879888 0.875132 0.8794 0.877674 0.877057 0.873765 0.873509 0.870225 0.871291 0.869357 0.867486 0.87544
          0.871322 0.868055 0.872005 0.90071 0.896718 0.890478 0.892475 0.894707 0.894616 0.891766 0.890228 0.887103
          0.890183 0.889811 0.885301 0.886006 0.885733 0.882471 0.881278 0.896471 0.900223 0.90038 0.89517 0.905858
          0.913138 0.915813 0.907351 0.909826 0.919352 0.923584 0.91313 0.895067 0.901643 0.903882 0.89607 0.922229
          0.932813 0.93738 0.926003 0.944884 0.956587 0.961285 0.949889 0.955125 0.96601 0.970268 0.960231 0.930504
          0.942422 0.947649 0.935508 0.877981 0.880465 0.879442 0.875764 0.884636 0.890473 0.891953 0.884876 0.885795
          0.89404 0.896554 0.887206 0.874315 0.879144 0.879369 0.873401 0.897995 0.906894 0.910458 0.900628 0.917081
          0.928319 0.933328 0.921488 0.926189 0.938438 0.943437 0.931006 0.903765 0.914403 0.918578 0.907223 0.940815
          0.952905 0.957871 0.946149 0.965266 0.974496 0.977879 0.969743 0.974143 0.98148 0.983909 0.977645 0.951401
          0.962612 0.966775 0.956315 1 1 1 1 1 1 1 1 0.9997
          0.999511 0.999503 0.9997 0.9997 0.999494 0.999486 0.9997 1 1 1 1 0.868822
          0.865083 0.862251 0.865745 0.86507 0.86777 0.866406 0.862835 0.860687 0.86518 0.864037 0.858561 0.862661
          0.859457 0.856628 0.859504 1 1 1 1 1 1 1 1 0.9996
          0.999477 0.999469 0.9996 0.9996 0.999459 0.999451 0.9996 1 1 1 1 0.856207
          0.853707 0.850652 0.85273 0.856407 0.862937 0.861858 0.854194 0.851898 0.860792 0.859744 0.849513 0.849022
          0.847427 0.844011 0.845061 0.872854 0.879966 0.880832 0.872563 0.888968 0.899359 0.902353 0.890982 0.89318
          0.905468 0.908652 0.895517 0.872453 0.881898 0.88312 0.872476 0.910873 0.922881 0.927205 0.914636 0.935832