<?xml version="1.0"?>
<VTKFile type="UnstructuredGrid" version="0.1" byte_order="LittleEndian">
  <UnstructuredGrid>
    <Piece NumberOfCells="2500" NumberOfPoints="3006">
      <CellData Scalars="waterDepth">
        <DataArray type="Float32" Name="waterDepth" NumberOfComponents="1" format="ascii">
          0.868698 0.868375 0.868376 0.868377 0.868378 0.868379 0.86838 0.868381 0.868382 0.868382 0.868383 0.868384
          0.868385 0.868386 0.868387 0.868388 0.868389 0.86839 0.868391 0.868392 0.868393 0.868394 0.868395 0.868396
          0.868397 0.868398 0.868399 0.8684 0.868401 0.868402 0.868403 0.868404 0.868405 0.868406 0.868407 0.868408
          0.868409 0.86841 0.868411 0.868412 0.868413 0.868414 0.868415 0.868416 0.868418 0.868419 0.86842 0.868421
          0.868422 0.868423 0.868424 0.868425 0.868426 0.868428 0.868429 0.86843 0.868431 0.868432 0.868433 0.868434
          0.868436 0.868437 0.868438 0.868439 0.86844 0.868441 0.868443 0.868444 0.868445 0.868446 0.868447 0.868449
          0.86845 0.868451 0.868452 0.868454 0.868455 0.868456 0.868457 0.868459 0.86846 0.868461 0.868463 0.868464
          0.868465 0.868466 0.868468 0.868469 0.86847 0.868472 0.868473 0.868474 0.868476 0.868477 0.868479 0.86848
          0.868481 0.868483 0.868484 0.868486 0.868488 0.868488 0.868489 0.868489 0.868489 0.868489 0.868489 0.868489
          0.868489 0.868488 0.868488 0.868488 0.868488 0.868488 0.868488 0.868488 0.868488 0.868488 0.868488 0.868488
          0.868488 0.868488 0.868488 0.868488 0.868488 0.868488 0.868488 0.868488 0.868488 0.868488 0.868488 0.868488
          0.868488 0.868488 0.868488 0.868488 0.868488 0.868488 0.868488 0.868488 0.868488 0.868488 0.868488 0.868488
          0.868488 0.868488 0.868488 0.868488 0.868488 0.868488 0.868488 0.868488 0.868488 0.868488 0.868488 0.868488
          0.868488 0.868488 0.868488 0.868488 0.868488 0.868488 0.868488 0.868488 0.868488 0.868488 0.868488 0.868488
          0.868488 0.868488 0.868488 0.868488 0.868488 0.868488 0.868488 0.868488 0.868488 0.868488 0.868488 0.868488
          0.868488 0.868488 0.868488 0.868488 0.868488 0.868488 0.868488 0.868488 0.868488 0.868488 0.868488 0.868488
          0.868488 0.868488 0.868488 0.868488 0.868488 0.868488 0.868488 0.868488 0.868488 0.868488 0.868488 0.868488
          0.868488 0.868488 0.868488 0.868488 0.868488 0.868488 0.868488 0.868488 0.868488 0.868488 0.868488 0.868488
          0.868488 0.868488 0.868488 0.868488 0.868488 0.868488 0.868488 0.868488 0.868488 0.868488 0.868488 0.868488
          0.868488 0.868488 0.868488 0.868488 0.868488 0.868488 0.868488 0.868488 0.868488 0.868488 0.868488 0.868488
          0.868488 0.868488 0.868488 0.868488 0.868488 0.868488 0.868488 0.868488 0.868488 0.868488 0.868488 0.868488
          0.868488 0.868488 0.868488 0.868488 0.868488 0.868488 0.868488 0.868488 0.868488 0.868488 0.868488 0.868488
          0.868488 0.868488 0.868488 0.868488 0.868488 0.868488 0.868488 0.868488 0.868488 0.868488 0.868488 0.868488
          0.868488 0.868488 0.868488 0.868488 0.868488 0.868488 0.868488 0.868488 0.868488 0.868488 0.868488 0.868488
          0.868488 0.868488 0.868488 0.868488 0.868488 0.868488 0.868488 0.868488 0.868488 0.868488 0.868488 0.868488
          0.868488 0.868488 0.868488 0.868488 0.868488 0.868488 0.868488 0.868488 0.868488 0.868488 0.868488 0.868488
          0.868488 0.868488 0.868488 0.868488 0.868488 0.868488 0.868488 0.868488 0.868488 0.868488 0.868488 0.868488
          0.868488 0.868488 0.868488 0.868488 0.868488 0.868488 0.868488 0.868488 0.868488 0.868488 0.868488 0.868488
          0.868488 0.868488 0.868488 0.868488 0.868488 0.868488 0.868488 0.868488 0.868488 0.868488 0.868488 0.868488
          0.868488 0.868488 0.868488 0.868488 0.868488 0.868488 0.868488 0.868488 0.868488 0.868488 0.868488 0.868488
          0.868488 0.868488 0.868488 0.868488 0.868488 0.868488 0.868488 0.868488 0.868488 0.868488 0.868488 0.868488
          0.868488 0.868488 0.868488 0.868488 0.868488 0.868488 0.868488 0.868488 0.868488 0.868488 0.868488 0.868488
          0.868488 0.868488 0.868488 0.868488 0.868488 0.868488 0.868488 0.868488 0.868488 0.868488 0.868488 0.868488
          0.868488 0.868488 0.868488 0.868488 0.868488 0.868488 0.868488 0.868488 0.868488 0.868488 0.868488 0.868488
          0.868488 0.868488 0.868488 0.868488 0.868488 0.868488 0.868488 0.868488 0.868488 0.868488 0.868488 0.868488
          0.868488 0.868488 0.868488 0.868488 0.868488 0.868488 0.868488 0.868488 0.868488 0.868488 0.868488 0.868488
          0.868488 0.868488 0.868488 0.868488 0.868488 0.868488 0.868488 0.868488 0.868488 0.868488 0.868488 0.868488
          0.868488 0.868488 0.868488 0.868488 0.868488 0.868488 0.868488 0.868488 0.868488 0.868488 0.868488 0.868488
          0.868488 0.868488 0.868488 0.868488 0.868488 0.868488 0.868488 0.868488 0.868488 0.868488 0.868488 0.868488
          0.868488 0.868488 0.868488 0.868488 0.868488 0.868488 0.868488 0.868488 0.868488 0.868488 0.868488 0.868488
          0.868488 0.868488 0.868488 0.868489 0.868489 0.868489 0.868489 0.86849 0.868491 0.868492 0.868494 0.868497
          0.868501 0.868507 0.868516 0.86853 0.868551 0.868581 0.868628 0.868698 0.868698 0.868375 0.868376 0.868377
          0.868378 0.868379 0.86838 0.868381 0.868382 0.868382 0.868383 0.868384 0.868385 0.868386 0.868387 0.868388
          0.868389 0.86839 0.868391 0.868392 0.868393 0.868394 0.868395 0.868396 0.868397 0.868398 0.868399 0.8684
          0.868401 0.868402 0.868403 0.868404 0.868405 0.868406 0.868407 0.868408 0.868409 0.86841 0.868411 0.868412
          0.868413 0.868414 0.868415 0.868416 0.868418 0.868419 0.86842 0.868421 0.868422 0.868423 0.868424 0.868425
          0.868426 0.868428 0.868429 0.86843 0.868431 0.868432 0.868433 0.868434 0.868436 0.868437 0.868438 0.868439
          0.86844 0.868441 0.868443 0.868444 0.868445 0.868446 0.868447 0.868449 0.86845 0.868451 0.868452 0.868454
          0.868455 0.868456 0.868457 0.868459 0.86846 0.868461 0.868463 0.868464 0.868465 0.868466 0.868468 0.868469
          0.86847 0.868472 0.868473 0.868474 0.868476 0.868477 0.868478 0.86848 0.868481 0.868482 0.868484 0.868485
          0.868486 0.868487 0.868487 0.868487 0.868487 0.868487 0.868487 0.868487 0.868487 0.868487 0.868487 0.868487
          0.868487 0.868487 0.868487 0.868487 0.868487 0.868487 0.868487 0.868487 0.868487 0.868487 0.868487 0.868487
          0.868487 0.868487 0.868487 0.868487 0.868487 0.868487 0.868487 0.868487 0.868487 0.868487 0.868487 0.868487
          0.868488 0.868488 0.868488 0.868488 0.868488 0.868488 0.868488 0.868488 0.868488 0.868488 0.868488 0.868488
          0.868488 0.868488 0.868488 0.868488 0.868488 0.868488 0.868488 0.868488 0.868488 0.868488 0.868488 0.868488
          0.868488 0.868488 0.868488 0.868488 0.868488 0.868488 0.868488 0.868488 0.868488 0.868488 0.868488 0.868488
          0.868488 0.868488 0.868488 0.868488 0.868488 0.868488 0.868488 0.868488 0.868488 0.868488 0.868488 0.868488
          0.868488 0.868488 0.868488 0.868488 0.868488 0.868488 0.868488 0.868488 0.868488 0.868488 0.868488 0.868488
          0.868488 0.868488 0.868488 0.868488 0.868488 0.868488 0.868488 0.868488 0.868488 0.868488 0.868488 0.868488
          0.868488 0.868488 0.868488 0.868488 0.868488 0.868488 0.868488 0.868488 0.868488 0.868488 0.868488 0.868488
          0.868488 0.868488 0.868488 0.868488 0.868488 0.868488 0.868488 0.868488 0.868488 0.868488 0.868488 0.868488
          0.868488 0.868488 0.868488 0.868488 0.868488 0.868488 0.868488 0.868488 0.868488 0.868488 0.868488 0.868488
          0.868488 0.868488 0.868488 0.868488 0.868488 0.868488 0.868488 0.868488 0.868488 0.868488 0.868488 0.868488
          0.868488 0.868488 0.868488 0.868488 0.868488 0.868488 0.868488 0.868488 0.868488 0.868488 0.868488 0.868488
          0.868488 0.868488 0.868488 0.868488 0.868488 0.868488 0.868488 0.868488 0.868488 0.868488 0.868488 0.868488
          0.868488 0.868488 0.868488 0.868488 0.868488 0.868488 0.868488 0.868488 0.868488 0.868488 0.868488 0.868488
          0.868488 0.868488 0.868488 0.868488 0.868488 0.868488 0.868488 0.868488 0.868488 0.868488 0.868488 0.868488
          0.868488 0.868488 0.868488 0.868488 0.868488 0.868488 0.868488 0.868488 0.868488 0.868488 0.868488 0.868488
          0.868488 0.868488 0.868488 0.868488 0.868488 0.868488 0.868488 0.868488 0.868488 0.868488 0.868488 0.868488
          0.868488 0.868488 0.868488 0.868488 0.868488 0.868488 0.868488 0.868488 0.868488 0.868488 0.868488 0.868488
          0.868488 0.868488 0.868488 0.868488 0.868488 0.868488 0.868488 0.868488 0.868488 0.868488 0.868488 0.868488
          0.868488 0.868488 0.868488 0.868488 0.868488 0.868488 0.868488 0.868488 0.868488 0.868488 0.868488 0.868488
          0.868488 0.868488 0.868488 0.868488 0.868488 0.868488 0.868488 0.868488 0.868488 0.868488 0.868488 0.868488
          0.868488 0.868488 0.868488 0.868488 0.868488 0.868488 0.868488 0.868488 0.868488 0.868488 0.868488 0.868488
          0.868488 0.868488 0.868488 0.868488 0.868488 0.868488 0.868488 0.868488 0.868488 0.868488 0.868488 0.868488
          0.868488 0.868488 0.868488 0.868488 0.868488 0.868488 0.868488 0.868488 0.868488 0.868488 0.868488 0.868488
          0.868488 0.868488 0.868488 0.868488 0.868488 0.868488 0.868488 0.868488 0.868488 0.868488 0.868488 0.868488
          0.868488 0.868488 0.868488 0.868488 0.868488 0.868488 0.868488 0.868488 0.868488 0.868488 0.868488 0.868488
          0.868488 0.868488 0.868488 0.868488 0.868488 0.868488 0.868488 0.868488 0.868488 0.868488 0.868488 0.868488
          0.868488 0.868488 0.868488 0.868488 0.868488 0.868488 0.868488 0.868488 0.868488 0.868488 0.868488 0.868488
          0.868488 0.868488 0.868488 0.868488 0.868488 0.868488 0.868488 0.868488 0.868488 0.868488 0.868488 0.868488
          0.868488 0.868488 0.868488 0.868488 0.868488 0.868488 0.868488 0.868489 0.868489 0.868489 0.868489 0.868489
          0.868489 0.86849 0.868491 0.868492 0.868493 0.868495 0.868498 0.868502 0.868508 0.868517 0.868529 0.868546
          0.868571 0.868607 0.868658 0.868731 0.868698 0.868375 0.868376 0.868377 0.868378 0.868379 0.86838 0.868381
          0.868382 0.868382 0.868383 0.868384 0.868385 0.868386 0.868387 0.868388 0.868389 0.86839 0.868391 0.868392
          0.868393 0.868394 0.868395 0.868396 0.868397 0.868398 0.868399 0.8684 0.868401 0.868402 0.868403 0.868404
          0.868405 0.868406 0.868407 0.868408 0.868409 0.86841 0.868411 0.868412 0.868413 0.868414 0.868415 0.868416
          0.868418 0.868419 0.86842 0.868421 0.868422 0.868423 0.868424 0.868425 0.868426 0.868428 0.868429 0.86843
          0.868431 0.868432 0.868433 0.868434 0.868436 0.868437 0.868438 0.868439 0.86844 0.868441 0.868443 0.868444
          0.868445 0.868446 0.868447 0.868449 0.86845 0.868451 0.868452 0.868454 0.868455 0.868456 0.868457 0.868459
          0.86846 0.868461 0.868463 0.868464 0.868465 0.868466 0.868468 0.868469 0.86847 0.868472 0.868473 0.868474
          0.868476 0.868477 0.868478 0.86848 0.868481 0.868482 0.868484 0.868485 0.868486 0.868487 0.868487 0.868487
          0.868487 0.868487 0.868487 0.868487 0.868487 0.868487 0.868487 0.868487 0.868487 0.868487 0.868487 0.868487
          0.868487 0.868487 0.868487 0.868487 0.868487 0.868487 0.868487 0.868487 0.868487 0.868487 0.868487 0.868487
          0.868487 0.868487 0.868487 0.868487 0.868487 0.868487 0.868487 0.868487 0.868488 0.868488 0.868488 0.868488
          0.868488 0.868488 0.868488 0.868488 0.868488 0.868488 0.868488 0.868488 0.868488 0.868488 0.868488 0.868488
          0.868488 0.868488 0.868488 0.868488 0.868488 0.868488 0.868488 0.868488 0.868488 0.868488 0.868488 0.868488
          0.868488 0.868488 0.868488 0.868488 0.868488 0.868488 0.868488 0.868488 0.868488 0.868488 0.868488 0.868488
          0.868488 0.868488 0.868488 0.868488 0.868488 0.868488 0.868488 0.868488 0.868488 0.868488 0.868488 0.868488
          0.868488 0.868488 0.868488 0.868488 0.868488 0.868488 0.868488 0.868488 0.868488 0.868488 0.868488 0.868488
          0.868488 0.868488 0.868488 0.868488 0.868488 0.868488 0.868488 0.868488 0.868488 0.868488 0.868488 0.868488
          0.868488 0.868488 0.868488 0.868488 0.868488 0.868488 0.868488 0.868488 0.868488 0.868488 0.868488 0.868488
          0.868488 0.868488 0.868488 0.868488 0.868488 0.868488 0.868488 0.868488 0.868488 0.868488 0.868488 0.868488
          0.868488 0.868488 0.868488 0.868488 0.868488 0.868488 0.868488 0.868488 0.868488 0.868488 0.868488 0.868488
          0.868488 0.868488 0.868488 0.868488 0.868488 0.868488 0.868488 0.868488 0.868488 0.868488 0.868488 0.868488
          0.868488 0.868488 0.868488 0.868488 0.868488 0.868488 0.868488 0.868488 0.868488 0.868488 0.868488 0.868488
          0.868488 0.868488 0.868488 0.868488 0.868488 0.868488 0.868488 0.868488 0.868488 0.868488 0.868488 0.868488
          0.868488 0.868488 0.868488 0.868488 0.868488 0.868488 0.868488 0.868488 0.868488 0.868488 0.868488 0.868488
          0.868488 0.868488 0.868488 0.868488 0.868488 0.868488 0.868488 0.868488 0.868488 0.868488 0.868488 0.868488
          0.868488 0.868488 0.868488 0.868488 0.868488 0.868488 0.868488 0.868488 0.868488 0.868488 0.868488 0.868488
          0.868488 0.868488 0.868488 0.868488 0.868488 0.868488 0.868488 0.868488 0.868488 0.868488 0.868488 0.868488
          0.868488 0.868488 0.868488 0.868488 0.868488 0.868488 0.868488 0.868488 0.868488 0.868488 0.868488 0.868488
          0.868488 0.868488 0.868488 0.868488 0.868488 0.868488 0.868488 0.868488 0.868488 0.868488 0.868488 0.868488
          0.868488 0.868488 0.868488 0.868488 0.868488 0.868488 0.868488 0.868488 0.868488 0.868488 0.868488 0.868488
          0.868488 0.868488 0.868488 0.868488 0.868488 0.868488 0.868488 0.868488 0.868488 0.868488 0.868488 0.868488
          0.868488 0.868488 0.868488 0.868488 0.868488 0.868488 0.868488 0.868488 0.868488 0.868488 0.868488 0.868488
          0.868488 0.868488 0.868488 0.868488 0.868488 0.868488 0.868488 0.868488 0.868488 0.868488 0.868488 0.868488
          0.868488 0.868488 0.868488 0.868488 0.868488 0.868488 0.868488 0.868488 0.868488 0.868488 0.868488 0.868488
          0.868488 0.868488 0.868488 0.868488 0.868488 0.868488 0.868488 0.868488 0.868488 0.868488 0.868488 0.868488
          0.868488 0.868488 0.868488 0.868488 0.868488 0.868488 0.868488 0.868488 0.868488 0.868488 0.868488 0.868488
          0.868488 0.868488 0.868488 0.868488 0.868488 0.868488 0.868488 0.868488 0.868488 0.868488 0.868488 0.868488
          0.868488 0.868488 0.868488 0.868488 0.868488 0.868488 0.868488 0.868488 0.868488 0.868488 0.868488 0.868488
          0.868488 0.868488 0.868488 0.868488 0.868488 0.868488 0.868488 0.868488 0.868488 0.868488 0.868488 0.868488
          0.868488 0.868488 0.868488 0.868489 0.868489 0.868489 0.868489 0.868489 0.86849 0.86849 0.868491 0.868492
          0.868494 0.868496 0.868499 0.868504 0.86851 0.86852 0.868533 0.868551 0.868578 0.868615 0.868668 0.868742
          0.868698 0.868375 0.868376 0.868377 0.868378 0.868379 0.86838 0.868381 0.868382 0.868382 0.868383 0.868384
          0.868385 0.868386 0.868387 0.868388 0.868389 0.86839 0.868391 0.868392 0.868393 0.868394 0.868395 0.868396
          0.868397 0.868398 0.868399 0.8684 0.868401 0.868402 0.868403 0.868404 0.868405 0.868406 0.868407 0.868408
          0.868409 0.86841 0.868411 0.868412 0.868413 0.868414 0.868415 0.868416 0.868418 0.868419 0.86842 0.868421
          0.868422 0.868423 0.868424 0.868425 0.868426 0.868428 0.868429 0.86843 0.868431 0.868432 0.868433 0.868434
          0.868436 0.868437 0.868438 0.868439 0.86844 0.868441 0.868443 0.868444 0.868445 0.868446 0.868447 0.868449
          0.86845 0.868451 0.868452 0.868454 0.868455 0.868456 0.868457 0.868459 0.86846 0.868461 0.868463 0.868464
          0.868465 0.868466 0.868468 0.868469 0.86847 0.868472 0.868473 0.868474 0.868476 0.868477 0.868478 0.86848
          0.868481 0.868482 0.868484 0.868485 0.868486 0.868487 0.868487 0.868487 0.868487 0.868487 0.868487 0.868487
          0.868487 0.868487 0.868487 0.868487 0.868487 0.868487 0.868487 0.868487 0.868487 0.868487 0.868487 0.868487
          0.868487 0.868487 0.868487 0.868487 0.868487 0.868487 0.868487 0.868487 0.868487 0.868487 0.868487 0.868487
          0.868487 0.868487 0.868487 0.868487 0.868488 0.868488 0.868488 0.868488 0.868488 0.868488 0.868488 0.868488
          0.868488 0.868488 0.868488 0.868488 0.868488 0.868488 0.868488 0.868488 0.868488 0.868488 0.868488 0.868488
          0.868488 0.868488 0.868488 0.868488 0.868488 0.868488 0.868488 0.868488 0.868488 0.868488 0.868488 0.868488
          0.868488 0.868488 0.868488 0.868488 0.868488 0.868488 0.868488 0.868488 0.868488 0.868488 0.868488 0.868488
          0.868488 0.868488 0.868488 0.868488 0.868488 0.868488 0.868488 0.868488 0.868488 0.868488 0.868488 0.868488
          0.868488 0.868488 0.868488 0.868488 0.868488 0.868488 0.868488 0.868488 0.868488 0.868488 0.868488 0.868488
          0.868488 0.868488 0.868488 0.868488 0.868488 0.868488 0.868488 0.868488 0.868488 0.868488 0.868488 0.868488
          0.868488 0.868488 0.868488 0.868488 0.868488 0.868488 0.868488 0.868488 0.868488 0.868488 0.868488 0.868488
          0.868488 0.868488 0.868488 0.868488 0.868488 0.868488 0.868488 0.868488 0.868488 0.868488 0.868488 0.868488
          0.868488 0.868488 0.868488 0.868488 0.868488 0.868488 0.868488 0.868488 0.868488 0.868488 0.868488 0.868488
          0.868488 0.868488 0.868488 0.868488 0.868488 0.868488 0.868488 0.868488 0.868488 0.868488 0.868488 0.868488
          0.868488 0.868488 0.868488 0.868488 0.868488 0.868488 0.868488 0.868488 0.868488 0.868488 0.868488 0.868488
          0.868488 0.868488 0.868488 0.868488 0.868488 0.868488 0.868488 0.868488 0.868488 0.868488 0.868488 0.868488
          0.868488 0.868488 0.868488 0.868488 0.868488 0.868488 0.868488 0.868488 0.868488 0.868488 0.868488 0.868488
          0.868488 0.868488 0.868488 0.868488 0.868488 0.868488 0.868488 0.868488 0.868488 0.868488 0.868488 0.868488
          0.868488 0.868488 0.868488 0.868488 0.868488 0.868488 0.868488 0.868488 0.868488 0.868488 0.868488 0.868488
          0.868488 0.868488 0.868488 0.868488 0.868488 0.868488 0.868488 0.868488 0.868488 0.868488 0.868488 0.868488
          0.868488 0.868488 0.868488 0.868488 0.868488 0.868488 0.868488 0.868488 0.868488 0.868488 0.868488 0.868488
          0.868488 0.868488 0.868488 0.868488 0.868488 0.868488 0.868488 0.868488 0.868488 0.868488 0.868488 0.868488
          0.868488 0.868488 0.868488 0.868488 0.868488 0.868488 0.868488 0.868488 0.868488 0.868488 0.868488 0.868488
          0.868488 0.868488 0.868488 0.868488 0.868488 0.868488 0.868488 0.868488 0.868488 0.868488 0.868488 0.868488
          0.868488 0.868488 0.868488 0.868488 0.868488 0.868488 0.868488 0.868488 0.868488 0.868488 0.868488 0.868488
          0.868488 0.868488 0.868488 0.868488 0.868488 0.868488 0.868488 0.868488 0.868488 0.868488 0.868488 0.868488
          0.868488 0.868488 0.868488 0.868488 0.868488 0.868488 0.868488 0.868488 0.868488 0.868488 0.868488 0.868488
          0.868488 0.868488 0.868488 0.868488 0.868488 0.868488 0.868488 0.868488 0.868488 0.868488 0.868488 0.868488
          0.868488 0.868488 0.868488 0.868488 0.868488 0.868488 0.868488 0.868488 0.868488 0.868488 0.868488 0.868488
          0.868488 0.868488 0.868488 0.868488 0.868488 0.868488 0.868488 0.868488 0.868488 0.868488 0.868488 0.868488
          0.868488 0.868488 0.868488 0.868488 0.868488 0.868488 0.868488 0.868488 0.868488 0.868488 0.868488 0.868488
          0.868488 0.868488 0.868488 0.868488 0.868488 0.868488 0.868488 0.868488 0.868488 0.868488 0.868488 0.868489
          0.868489 0.868489 0.868489 0.868489 0.868489 0.86849 0.868491 0.868492 0.868493 0.868495 0.868498 0.868502
          0.868508 0.868517 0.868529 0.868546 0.868571 0.868607 0.868658 0.868731 0.868698 0.868375 0.868376 0.868377
          0.868378 0.868379 0.86838 0.868381 0.868382 0.868382 0.868383 0.868384 0.868385 0.868386 0.868387 0.868388
          0.868389 0.86839 0.868391 0.868392 0.868393 0.868394 0.868395 0.868396 0.868397 0.868398 0.868399 0.8684
          0.868401 0.868402 0.868403 0.868404 0.868405 0.868406 0.868407 0.868408 0.868409 0.86841 0.868411 0.868412
          0.868413 0.868414 0.868415 0.868416 0.868418 0.868419 0.86842 0.868421 0.868422 0.868423 0.868424 0.868425
          0.868426 0.868428 0.868429 0.86843 0.868431 0.868432 0.868433 0.868434 0.868436 0.868437 0.868438 0.868439
          0.86844 0.868441 0.868443 0.868444 0.868445 0.868446 0.868447 0.868449 0.86845 0.868451 0.868452 0.868454
          0.868455 0.868456 0.868457 0.868459 0.86846 0.868461 0.868463 0.868464 0.868465 0.868466 0.868468 0.868469
          0.86847 0.868472 0.868473 0.868474 0.868476 0.868477 0.868479 0.86848 0.868481 0.868483 0.868484 0.868486
          0.868488 0.868488 0.868489 0.868489 0.868489 0.868489 0.868489 0.868489 0.868489 0.868488 0.868488 0.868488
          0.868488 0.868488 0.868488 0.868488 0.868488 0.868488 0.868488 0.868488 0.868488 0.868488 0.868488 0.868488
          0.868488 0.868488 0.868488 0.868488 0.868488 0.868488 0.868488 0.868488 0.868488 0.868488 0.868488 0.868488
          0.868488 0.868488 0.868488 0.868488 0.868488 0.868488 0.868488 0.868488 0.868488 0.868488 0.868488 0.868488
          0.868488 0.868488 0.868488 0.868488 0.868488 0.868488 0.868488 0.868488 0.868488 0.868488 0.868488 0.868488
          0.868488 0.868488 0.868488 0.868488 0.868488 0.868488 0.868488 0.868488 0.868488 0.868488 0.868488 0.868488
          0.868488 0.868488 0.868488 0.868488 0.868488 0.868488 0.868488 0.868488 0.868488 0.868488 0.868488 0.868488
          0.868488 0.868488 0.868488 0.868488 0.868488 0.868488 0.868488 0.868488 0.868488 0.868488 0.868488 0.868488
          0.868488 0.868488 0.868488 0.868488 0.868488 0.868488 0.868488 0.868488 0.868488 0.868488 0.868488 0.868488
          0.868488 0.868488 0.868488 0.868488 0.868488 0.868488 0.868488 0.868488 0.868488 0.868488 0.868488 0.868488
          0.868488 0.868488 0.868488 0.868488 0.868488 0.868488 0.868488 0.868488 0.868488 0.868488 0.868488 0.868488
          0.868488 0.868488 0.868488 0.868488 0.868488 0.868488 0.868488 0.868488 0.868488 0.868488 0.868488 0.868488
          0.868488 0.868488 0.868488 0.868488 0.868488 0.868488 0.868488 0.868488 0.868488 0.868488 0.868488 0.868488
          0.868488 0.868488 0.868488 0.868488 0.868488 0.868488 0.868488 0.868488 0.868488 0.868488 0.868488 0.868488
          0.868488 0.868488 0.868488 0.868488 0.868488 0.868488 0.868488 0.868488 0.868488 0.868488 0.868488 0.868488
          0.868488 0.868488 0.868488 0.868488 0.868488 0.868488 0.868488 0.868488 0.868488 0.868488 0.868488 0.868488
          0.868488 0.868488 0.868488 0.868488 0.868488 0.868488 0.868488 0.868488 0.868488 0.868488 0.868488 0.868488
          0.868488 0.868488 0.868488 0.868488 0.868488 0.868488 0.868488 0.868488 0.868488 0.868488 0.868488 0.868488
          0.868488 0.868488 0.868488 0.868488 0.868488 0.868488 0.868488 0.868488 0.868488 0.868488 0.868488 0.868488
          0.868488 0.868488 0.868488 0.868488 0.868488 0.868488 0.868488 0.868488 0.868488 0.868488 0.868488 0.868488
          0.868488 0.868488 0.868488 0.868488 0.868488 0.868488 0.868488 0.868488 0.868488 0.868488 0.868488 0.868488
          0.868488 0.868488 0.868488 0.868488 0.868488 0.868488 0.868488 0.868488 0.868488 0.868488 0.868488 0.868488
          0.868488 0.868488 0.868488 0.868488 0.868488 0.868488 0.868488 0.868488 0.868488 0.868488 0.868488 0.868488
          0.868488 0.868488 0.868488 0.868488 0.868488 0.868488 0.868488 0.868488 0.868488 0.868488 0.868488 0.868488
          0.868488 0.868488 0.868488 0.868488 0.868488 0.868488 0.868488 0.868488 0.868488 0.868488 0.868488 0.868488
          0.868488 0.868488 0.868488 0.868488 0.868488 0.868488 0.868488 0.868488 0.868488 0.868488 0.868488 0.868488
          0.868488 0.868488 0.868488 0.868488 0.868488 0.868488 0.868488 0.868488 0.868488 0.868488 0.868488 0.868488
          0.868488 0.868488 0.868488 0.868488 0.868488 0.868488 0.868488 0.868488 0.868488 0.868488 0.868488 0.868488
          0.868488 0.868488 0.868488 0.868488 0.868488 0.868488 0.868488 0.868488 0.868488 0.868488 0.868488 0.868488
          0.868488 0.868488 0.868488 0.868488 0.868488 0.868488 0.868488 0.868488 0.868488 0.868488 0.868488 0.868488
          0.868488 0.868488 0.868488 0.868488 0.868488 0.868488 0.868488 0.868488 0.868488 0.868488 0.868488 0.868488
          0.868488 0.868488 0.868488 0.868488 0.868488 0.868488 0.868488 0.868488 0.868488 0.868488 0.868488 0.868489
          0.868489 0.868489 0.868489 0.86849 0.868491 0.868492 0.868494 0.868497 0.868501 0.868507 0.868516 0.86853
          0.868551 0.868581 0.868628 0.868698
        </DataArray>
        <DataArray type="Float32" Name="velocityX" NumberOfComponents="1" format="ascii">
          1.14947 1.15056 1.15056 1.15056 1.15056 1.15056 1.15055 1.15055 1.15055 1.15055 1.15055 1.15055
          1.15055 1.15055 1.15054 1.15054 1.15054 1.15054 1.15054 1.15054 1.15054 1.15054 1.15053 1.15053
          1.15053 1.15053 1.15053 1.15053 1.15053 1.15052 1.15052 1.15052 1.15052 1.15052 1.15052 1.15052
          1.15052 1.15051 1.15051 1.15051 1.15051 1.15051 1.15051 1.15051 1.1505 1.1505 1.1505 1.1505
          1.1505 1.1505 1.1505 1.15049 1.15049 1.15049 1.15049 1.15049 1.15049 1.15048 1.15048 1.15048
          1.15048 1.15048 1.15048 1.15048 1.15047 1.15047 1.15047 1.15047 1.15047 1.15047 1.15046 1.15046
          1.15046 1.15046 1.15046 1.15046 1.15045 1.15045 1.15045 1.15045 1.15045 1.15045 1.15044 1.15044
          1.15044 1.15044 1.15044 1.15044 1.15043 1.15043 1.15043 1.15043 1.15043 1.15042 1.15042 1.15042
          1.15042 1.15041 1.15041 1.1504 1.15039 1.15039 1.15039 1.15039 1.15039 1.15039 1.15038 1.15038
          1.15038 1.15038 1.15038 1.15038 1.15038 1.15038 1.15038 1.15038 1.15038 1.15038 1.15038 1.15038
          1.15038 1.15038 1.15038 1.15038 1.15038 1.15038 1.15038 1.15038 1.15038 1.15038 1.15038 1.15038
          1.15038 1.15038 1.15038 1.15038 1.15038 1.15039 1.15039 1.15039 1.15039 1.15039 1.15039 1.15039
          1.15039 1.1504 1.1504 1.1504 1.1504 1.1504 1.1504 1.15041 1.15041 1.15041 1.15041 1.15041
          1.15041 1.15042 1.15042 1.15042 1.15042 1.15042 1.15043 1.15043 1.15043 1.15043 1.15043 1.15044
          1.15044 1.15044 1.15044 1.15044 1.15045 1.15045 1.15045 1.15045 1.15046 1.15046 1.15046 1.15046
          1.15047 1.15047 1.15047 1.15047 1.15047 1.15048 1.15048 1.15048 1.15048 1.15049 1.15049 1.15049
          1.15049 1.1505 1.1505 1.1505 1.1505 1.15051 1.15051 1.15051 1.15051 1.15052 1.15052 1.15052
          1.15052 1.15053 1.15053 1.15053 1.15054 1.15054 1.15054 1.15054 1.15055 1.15055 1.15055 1.15055
          1.15056 1.15056 1.15056 1.15056 1.15057 1.15057 1.15057 1.15057 1.15058 1.15058 1.15058 1.15058
          1.15059 1.15059 1.15059 1.15059 1.1506 1.1506 1.1506 1.1506 1.15061 1.15061 1.15061 1.15062
          1.15062 1.15062 1.15062 1.15063 1.15063 1.15063 1.15063 1.15064 1.15064 1.15064 1.15064 1.15065
          1.15065 1.15065 1.15065 1.15066 1.15066 1.15066 1.15066 1.15066 1.15067 1.15067 1.15067 1.15067
          1.15068 1.15068 1.15068 1.15068 1.15069 1.15069 1.15069 1.15069 1.1507 1.1507 1.1507 1.1507
          1.1507 1.15071 1.15071 1.15071 1.15071 1.15072 1.15072 1.15072 1.15072 1.15072 1.15073 1.15073
          1.15073 1.15073 1.15074 1.15074 1.15074 1.15074 1.15074 1.15075 1.15075 1.15075 1.15075 1.15075
          1.15076 1.15076 1.15076 1.15076 1.15076 1.15077 1.15077 1.15077 1.15077 1.15077 1.15078 1.15078
          1.15078 1.15078 1.15078 1.15079 1.15079 1.15079 1.15079 1.15079 1.1508 1.1508 1.1508 1.1508
          1.1508 1.15081 1.15081 1.15081 1.15081 1.15081 1.15081 1.15082 1.15082 1.15082 1.15082 1.15082
          1.15083 1.15083 1.15083 1.15083 1.15083 1.15083 1.15084 1.15084 1.15084 1.15084 1.15084 1.15084
          1.15085 1.15085 1.15085 1.15085 1.15085 1.15085 1.15085 1.15086 1.15086 1.15086 1.15086 1.15086
          1.15086 1.15087 1.15087 1.15087 1.15087 1.15087 1.15087 1.15087 1.15088 1.15088 1.15088 1.15088
          1.15088 1.15088 1.15088 1.15089 1.15089 1.15089 1.15089 1.15089 1.15089 1.15089 1.1509 1.1509
          1.1509 1.1509 1.1509 1.1509 1.1509 1.1509 1.15091 1.15091 1.15091 1.15091 1.15091 1.15091
          1.15091 1.15091 1.15092 1.15092 1.15092 1.15092 1.15092 1.15092 1.15092 1.15092 1.15093 1.15093
          1.15093 1.15093 1.15093 1.15093 1.15093 1.15093 1.15093 1.15094 1.15094 1.15094 1.15094 1.15094
          1.15094 1.15094 1.15094 1.15094 1.15094 1.15095 1.15095 1.15095 1.15095 1.15095 1.15095 1.15095
          1.15095 1.15095 1.15096 1.15096 1.15096 1.15096 1.15096 1.15096 1.15096 1.15096 1.15096 1.15096
          1.15096 1.15097 1.15097 1.15097 1.15097 1.15097 1.15097 1.15097 1.15097 1.15097 1.15097 1.15097
          1.15098 1.15098 1.15098 1.15098 1.15098 1.15098 1.15098 1.15098 1.15098 1.15098 1.15098 1.15098
          1.15099 1.15099 1.15099 1.15099 1.15099 1.15099 1.15099 1.15099 1.15099 1.15099 1.15099 1.151
          1.151 1.151 1.151 1.151 1.151 1.15099 1.15099 1.15098 1.15097 1.15095 1.15093 1.15089
          1.15083 1.15074 1.15061 1.1504 1.1501 1.14964 1.14894 1.14788 1.14947 1.15056 1.15056 1.15056
          1.15056 1.15056 1.15055 1.15055 1.15055 1.15055 1.15055 1.15055 1.15055 1.15055 1.15054 1.15054
          1.15054 1.15054 1.15054 1.15054 1.15054 1.15054 1.15053 1.15053 1.15053 1.15053 1.15053 1.15053
          1.15053 1.15052 1.15052 1.15052 1.15052 1.15052 1.15052 1.15052 1.15052 1.15051 1.15051 1.15051
          1.15051 1.15051 1.15051 1.15051 1.1505 1.1505 1.1505 1.1505 1.1505 1.1505 1.1505 1.15049
          1.15049 1.15049 1.15049 1.15049 1.15049 1.15048 1.15048 1.15048 1.15048 1.15048 1.15048 1.15048
          1.15047 1.15047 1.15047 1.15047 1.15047 1.15047 1.15046 1.15046 1.15046 1.15046 1.15046 1.15046