<?xml version="1.0"?>
<VTKFile type="UnstructuredGrid" version="0.1" byte_order="LittleEndian">
  <UnstructuredGrid>
    <Piece NumberOfCells="100" NumberOfPoints="400">
      <PointData Scalars="p">
        <DataArray type="Float32" Name="p" NumberOfComponents="1" format="ascii">
          100000 100000 100000 100000 100000 100000 100000 100000 100000 100000 100000 100000
          100000 100000 100000 100000 100000 100000 100000 100000 100000 100000 100000 100000
          100000 100000 100000 100000 100000 100000 100000 100000 100000 100000 100000 100000
          100000 100000 100000 100000 100000 100000 100000 100000 100000 100000 100000 100000
          100000 100000 100000 100000 100000 100000 100000 100000 100000 100000 100000 100000
          100000 100000 100000 100000 100000 100000 100000 100000 100000 100000 100000 100000
          100000 100000 100000 100000 100000 100000 100000 100000 100000 100000 100000 100000
          100000 100000 100000 100000 100000 100000 100000 100000 100000 100000 100000 100000
          100000 100000 100000 100000 100000 100000 100000 100000 100000 100000 100000 100000
          100000 100000 100000 100000 100000 100000 100000 100000 100000 100000 100000 100000
          100000 100000 100000 100000 100000 100000 100000 100000 100000 100000 100000 100000
          100000 100000 100000 100000 100000 100000 100000 100000 100000 100000 100000 100000
          100000 100000 100000 100000 100000 100000 100000 100000 100000 100000 100000 100000
          100000 100000 100000 100000 100000 100000 100000 100000 100000 100000 100000 100000
          100000 100000 100000 100000 100000 100000 100000 100000 100000 100000 100000 100000
          100000 100000 100000 100000 100000 100000 100000 100000 100000 100000 100000 100000
          100000 100000 100000 100000 100000 100000 100000 100000 100000 100000 100000 100000
          100000 100000 100000 100000 100000 100000 100000 100000 100000 100000 100000 100000
          100000 100000 100000 100000 100000 100000 100000 100000 100000 100000 100000 100000
          100000 100000 100000 100000 100000 100000 100000 100000 100000 100000 100000 100000
          100000 100000 100000 100000 100000 100000 100000 100000 100000 100000 100000 100000
          100000 100000 100000 100000 100000 100000 100000 100000 100000 100000 100000 100000
          100000 100000 100000 100000 100000 100000 100000 100000 100000 100000 100000 100000
          100000 100000 100000 100000 100000 100000 100000 100000 100000 100000 100000 100000
          100000 100000 100000 100000 100000 100000 100000 100000 100000 100000 100000 100000
          100000 100000 100000 100000 100000 100000 100000 100000 100000 100000 100000 100000
          100000 100000 100000 100000 100000 100000 100000 100000 100000 100000 100000 100000
          100000 100000 100000 100000 100000 100000 100000 100000 100000 100000 100000 100000
          100000 100000 100000 100000 100000 100000 100000 100000 100000 100000 100000 100000
          100000 100000 100000 100000 100000 100000 100000 100000 100000 100000 100000 100000
          100000 100000 100000 100000 100000 100000 100000 100000 100000 100000 100000 100000
          100000 100000 100000 100000 100000 100000 100000 100000 100000 100000 100000 100000
          100000 100000 100000 100000 100000 100000 100000 100000 100000 100000 100000 100000
          100000 100000 100000 100000
        </DataArray>
        <DataArray type="Float32" Name="rho" NumberOfComponents="1" format="ascii">
          999.701 999.701 999.701 999.701 999.701 999.701 999.701 999.701 999.701 999.701 999.701 999.701
          999.701 999.701 999.701 999.701 999.701 999.701 999.701 999.701 999.701 999.701 999.701 999.701
          999.701 999.701 999.701 999.701 999.701 999.701 999.701 999.701 999.701 999.701 999.701 999.701
          999.701 999.701 999.701 999.701 999.701 999.701 999.701 999.701 999.701 999.701 999.701 999.701
          999.701 999.701 999.701 999.701 999.701 999.701 999.701 999.701 999.701 999.701 999.701 999.701
          999.701 999.701 999.701 999.701 999.701 999.701 999.701 999.701 999.701 999.701 999.701 999.701
          999.701 999.701 999.701 999.701 999.701 999.701 999.701 999.701 999.701 999.701 999.701 999.701
          999.701 999.701 999.701 999.701 999.701 999.701 999.701 999.701 999.701 999.701 999.701 999.701
          999.701 999.701 999.701 999.701 999.701 999.701 999.701 999.701 999.701 999.701 999.701 999.701
          999.701 999.701 999.701 999.701 999.701 999.701 999.701 999.701 999.701 999.701 999.701 999.701
          999.701 999.701 999.701 999.701 999.701 999.701 999.701 999.701 999.701 999.701 999.701 999.701
          999.701 999.701 999.701 999.701 999.701 999.701 999.701 999.701 999.701 999.701 999.701 999.701
          999.701 999.701 999.701 999.701 999.701 999.701 999.701 999.701 999.701 999.701 999.701 999.701
          999.701 999.701 999.701 999.701 999.701 999.701 999.701 999.701 999.701 999.701 999.701 999.701
          999.701 999.701 999.701 999.701 999.701 999.701 999.701 999.701 999.701 999.701 999.701 999.701
          999.701 999.701 999.701 999.701 999.701 999.701 999.701 999.701 999.701 999.701 999.701 999.701
          999.701 999.701 999.701 999.701 999.701 999.701 999.701 999.701 999.701 999.701 999.701 999.701
          999.701 999.701 999.701 999.701 999.701 999.701 999.701 999.701 999.701 999.701 999.701 999.701
          999.701 999.701 999.701 999.701 999.701 999.701 999.701 999.701 999.701 999.701 999.701 999.701
          999.701 999.701 999.701 999.701 999.701 999.701 999.701 999.701 999.701 999.701 999.701 999.701
          999.701 999.701 999.701 999.701 999.701 999.701 999.701 999.701 999.701 999.701 999.701 999.701
          999.701 999.701 999.701 999.701 999.701 999.701 999.701 999.701 999.701 999.701 999.701 999.701
          999.701 999.701 999.701 999.701 999.701 999.701 999.701 999.701 999.701 999.701 999.701 999.701
          999.701 999.701 999.701 999.701 999.701 999.701 999.701 999.701 999.701 999.701 999.701 999.701
          999.701 999.701 999.701 999.701 999.701 999.701 999.701 999.701 999.701 999.701 999.701 999.701
          999.701 999.701 999.701 999.701 999.701 999.701 999.701 999.701 999.701 999.701 999.701 999.701
          999.701 999.701 999.701 999.701 999.701 999.701 999.701 999.701 999.701 999.701 999.701 999.701
          999.701 999.701 999.701 999.701 999.701 999.701 999.701 999.701 999.701 999.701 999.701 999.701
          999.701 999.701 999.701 999.701 999.701 999.701 999.701 999.701 999.701 999.701 999.701 999.701
          999.701 999.701 999.701 999.701 999.701 999.701 999.701 999.701 999.701 999.701 999.701 999.701
          999.701 999.701 999.701 999.701 999.701 999.701 999.701 999.701 999.701 999.701 999.701 999.701
          999.701 999.701 999.701 999.701 999.701 999.701 999.701 999.701 999.701 999.701 999.701 999.701
          999.701 999.701 999.701 999.701 999.701 999.701 999.701 999.701 999.701 999.701 999.701 999.701
          999.701 999.701 999.701 999.701
        </DataArray>
        <DataArray type="Float32" Name="mu" NumberOfComponents="1" format="ascii">
          0.0013059 0.0013059 0.0013059 0.0013059 0.0013059 0.0013059 0.0013059 0.0013059 0.0013059 0.0013059 0.0013059 0.0013059
          0.0013059 0.0013059 0.0013059 0.0013059 0.0013059 0.0013059 0.0013059 0.0013059 0.0013059 0.0013059 0.0013059 0.0013059
          0.0013059 0.0013059 0.0013059 0.0013059 0.0013059 0.0013059 0.0013059 0.0013059 0.0013059 0.0013059 0.0013059 0.0013059
          0.0013059 0.0013059 0.0013059 0.0013059 0.0013059 0.0013059 0.0013059 0.0013059 0.0013059 0.0013059 0.0013059 0.0013059
          0.0013059 0.0013059 0.0013059 0.0013059 0.0013059 0.0013059 0.0013059 0.0013059 0.0013059 0.0013059 0.0013059 0.0013059
          0.0013059 0.0013059 0.0013059 0.0013059 0.0013059 0.0013059 0.0013059 0.0013059 0.0013059 0.0013059 0.0013059 0.0013059
          0.0013059 0.0013059 0.0013059 0.0013059 0.0013059 0.0013059 0.0013059 0.0013059 0.0013059 0.0013059 0.0013059 0.0013059
          0.0013059 0.0013059 0.0013059 0.0013059 0.0013059 0.0013059 0.0013059 0.0013059 0.0013059 0.0013059 0.0013059 0.0013059
          0.0013059 0.0013059 0.0013059 0.0013059 0.0013059 0.0013059 0.0013059 0.0013059 0.0013059 0.0013059 0.0013059 0.0013059
          0.0013059 0.0013059 0.0013059 0.0013059 0.0013059 0.0013059 0.0013059 0.0013059 0.0013059 0.0013059 0.0013059 0.0013059
          0.0013059 0.0013059 0.0013059 0.0013059 0.0013059 0.0013059 0.0013059 0.0013059 0.0013059 0.0013059 0.0013059 0.0013059
          0.0013059 0.0013059 0.0013059 0.0013059 0.0013059 0.0013059 0.0013059 0.0013059 0.0013059 0.0013059 0.0013059 0.0013059
          0.0013059 0.0013059 0.0013059 0.0013059 0.0013059 0.0013059 0.0013059 0.0013059 0.0013059 0.0013059 0.0013059 0.0013059
          0.0013059 0.0013059 0.0013059 0.0013059 0.0013059 0.0013059 0.0013059 0.0013059 0.0013059 0.0013059 0.0013059 0.0013059
          0.0013059 0.0013059 0.0013059 0.0013059 0.0013059 0.0013059 0.0013059 0.0013059 0.0013059 0.0013059 0.0013059 0.0013059
          0.0013059 0.0013059 0.0013059 0.0013059 0.0013059 0.0013059 0.0013059 0.0013059 0.0013059 0.0013059 0.0013059 0.0013059
          0.0013059 0.0013059 0.0013059 0.0013059 0.0013059 0.0013059 0.0013059 0.0013059 0.0013059 0.0013059 0.0013059 0.0013059
          0.0013059 0.0013059 0.0013059 0.0013059 0.0013059 0.0013059 0.0013059 0.0013059 0.0013059 0.0013059 0.0013059 0.0013059
          0.0013059 0.0013059 0.0013059 0.0013059 0.0013059 0.0013059 0.0013059 0.0013059 0.0013059 0.0013059 0.0013059 0.0013059
          0.0013059 0.0013059 0.0013059 0.0013059 0.0013059 0.0013059 0.0013059 0.0013059 0.0013059 0.0013059 0.0013059 0.0013059
          0.0013059 0.0013059 0.0013059 0.0013059 0.0013059 0.0013059 0.0013059 0.0013059 0.0013059 0.0013059 0.0013059 0.0013059
          0.0013059 0.0013059 0.0013059 0.0013059 0.0013059 0.0013059 0.0013059 0.0013059 0.0013059 0.0013059 0.0013059 0.0013059
          0.0013059 0.0013059 0.0013059 0.0013059 0.0013059 0.0013059 0.0013059 0.0013059 0.0013059 0.0013059 0.0013059 0.0013059
          0.0013059 0.0013059 0.0013059 0.0013059 0.0013059 0.0013059 0.0013059 0.0013059 0.0013059 0.0013059 0.0013059 0.0013059
          0.0013059 0.0013059 0.0013059 0.0013059 0.0013059 0.0013059 0.0013059 0.0013059 0.0013059 0.0013059 0.0013059 0.0013059
          0.0013059 0.0013059 0.0013059 0.0013059 0.0013059 0.0013059 0.0013059 0.0013059 0.0013059 0.0013059 0.0013059 0.0013059
          0.0013059 0.0013059 0.0013059 0.0013059 0.0013059 0.0013059 0.0013059 0.0013059 0.0013059 0.0013059 0.0013059 0.0013059
          0.0013059 0.0013059 0.0013059 0.0013059 0.0013059 0.0013059 0.0013059 0.0013059 0.0013059 0.0013059 0.0013059 0.0013059
          0.0013059 0.0013059 0.0013059 0.0013059 0.0013059 0.0013059 0.0013059 0.0013059 0.0013059 0.0013059 0.0013059 0.0013059
          0.0013059 0.0013059 0.0013059 0.0013059 0.0013059 0.0013059 0.0013059 0.0013059 0.0013059 0.0013059 0.0013059 0.0013059
          0.0013059 0.0013059 0.0013059 0.0013059 0.0013059 0.0013059 0.0013059 0.0013059 0.0013059 0.0013059 0.0013059 0.0013059
          0.0013059 0.0013059 0.0013059 0.0013059 0.0013059 0.0013059 0.0013059 0.0013059 0.0013059 0.0013059 0.0013059 0.0013059
          0.0013059 0.0013059 0.0013059 0.0013059 0.0013059 0.0013059 0.0013059 0.0013059 0.0013059 0.0013059 0.0013059 0.0013059
          0.0013059 0.0013059 0.0013059 0.0013059
        </DataArray>
        <DataArray type="Float32" Name="delp" NumberOfComponents="1" format="ascii">
          0 0 0 0 0 0 0 0 0 0 0 0
          0 0 0 0 0 0 0 0 0 0 0 0
          0 0 0 0 0 0 0 0 0 0 0 0
          0 0 0 0 0 0 0 0 0 0 0 0
          0 0 0 0 0 0 0 0 0 0 0 0
          0 0 0 0 0 0 0 0 0 0 0 0
          0 0 0 0 0 0 0 0 0 0 0 0
          0 0 0 0 0 0 0 0 0 1.45519e-11 0 0
          0 0 0 1.45519e-11 0 0 0 0 0 0 0 0
          0 0 0 0 0 0 0 0 0 0 0 0
          0 0 0 0 0 0 0 0 0 0 0 0
          0 0 0 0 -1.45519e-11 0 0 0 0 0 -1.45519e-11 0
          0 0 0 0 0 0 0 0 0 0 0 0
          0 0 0 0 0 0 0 0 0 0 0 0
          0 0 0 0 0 0 0 0 0 0 0 0
          0 0 0 0 0 0 0 0 0 1.45519e-11 0 0
          0 0 0 0 1.45519e-11 1.45519e-11 0 0 0 0 0 0
          0 0 0 0 0 0 0 0 0 0 0 0
          0 0 0 0 0 0 0 0 0 0 0 0
          0 0 0 0 0 0 0 0 0 0 0 0
          0 0 0 0 0 0 0 0 0 1.45519e-11 0 0
          0 0 0 1.45519e-11 1.45519e-11 0 0 0 0 0 0 0
          0 0 0 0 0 0 0 0 0 0 1.45519e-11 0
          0 0 0 0 0 -1.45519e-11 0 0 -1.45519e-11 -1.45519e-11 0 0
          0 -1.45519e-11 0 0 0 0 0 -1.45519e-11 -1.45519e-11 0 0 0
          0 0 0 0 0 0 0 0 0 0 0 0
          0 -1.45519e-11 0 0 0 0 0 -1.45519e-11 0 0 0 0
          0 0 -1.45519e-11 0 0 0 0 0 1.45519e-11 0 0 0
          0 0 0 0 0 0 0 0 0 0 0 0
          0 0 0 0 0 0 0 0 -1.45519e-11 0 0 -1.45519e-11
          0 0 -1.45519e-11 -1.45519e-11 0 0 0 0 0 0 -1.45519e-11 0
          0 0 0 0 0 0 0 0 0 0 0 0
          0 0 0 0 0 0 0 0 0 0 0 0
          0 0 0 0
        </DataArray>
        <DataArray type="Float32" Name="x^H2O_liq" NumberOfComponents="1" format="ascii">
          0.999927 0.999927 0.9999 0.9999 0.99995 0.99995 0.999927 0.999927 0.999968 0.999968 0.99995 0.99995
          0.999927 0.999928 0.9999 0.9999 0.99995 0.999952 0.999927 0.999928 0.999968 0.999969 0.99995 0.999952
          0.99998 0.99998 0.999968 0.999968 0.999988 0.999988 0.99998 0.99998 0.99998 0.999981 0.999968 0.999969
          0.999988 0.999989 0.99998 0.999981 0.999989 0.99999 0.999981 0.999983 0.999928 0.999931 0.9999 0.9999
          0.999931 0.999942 0.9999 0.9999 0.999952 0.999956 0.999928 0.999931 0.999969 0.999972 0.999952 0.999956
          0.999956 0.999963 0.999931 0.999942 0.999972 0.999977 0.999956 0.999963 0.999942 0.99996 0.9999 0.999953
          0.999963 0.999972 0.999942 0.99996 0.999977 0.999982 0.999963 0.999972 0.999981 0.999983 0.999969 0.999972
          0.999983 0.999986 0.999972 0.999977 0.99999 0.999992 0.999983 0.999986 0.999986 0.999989 0.999977 0.999982
          0.999992 0.999993 0.999986 0.999989 0.999993 0.999993 0.999988 0.999988 0.999996 0.999996 0.999993 0.999993
          0.999998 0.999998 0.999996 0.999996 0.999993 0.999994 0.999988 0.999989 0.999994 0.999994 0.999989 0.99999
          0.999996 0.999996 0.999993 0.999994 0.999998 0.999998 0.999996 0.999996 0.999996 0.999997 0.999994 0.999994
          0.999998 0.999998 0.999996 0.999997 0.999999 0.999999 0.999998 0.999998 0.999999 0.999999 0.999999 0.999999
          0.999999 0.999999 0.999998 0.999998 0.999999 0.999999 0.999998 0.999998 0.999999 0.999999 0.999999 0.999999
          0.999999 0.999999 0.999999 0.999999 0.999994 0.999995 0.99999 0.999992 0.999997 0.999997 0.999994 0.999995
          0.999998 0.999998 0.999997 0.999997 0.999995 0.999996 0.999992 0.999993 0.999997 0.999998 0.999995 0.999996
          0.999998 0.999999 0.999997 0.999998 0.999999 0.999999 0.999998 0.999998 0.999999 0.999999 0.999999 0.999999
          0.999999 0.999999 0.999998 0.999999 0.999999 0.999999 0.999999 0.999999 0.99996 0.999976 0.999953 0.999974
          0.999972 0.999982 0.99996 0.999976 0.999982 0.999987 0.999972 0.999982 0.999976 0.999986 0.999974 0.999985
          0.999982 0.999989 0.999976 0.999986 0.999987 0.999992 0.999982 0.999989 0.999989 0.999992 0.999982 0.999987
          0.999993 0.999995 0.999989 0.999992 0.999992 0.999994 0.999987 0.999992 0.999995 0.999996 0.999992 0.999994
          0.999986 0.999992 0.999985 0.999991 0.999992 0.999995 0.999991 0.999994 0.999989 0.999993 0.999986 0.999992
          0.999992 0.999995 0.999989 0.999993 0.999993 0.999995 0.999992 0.999995 0.999995 0.999995 0.999994 0.999995
          0.999995 0.999996 0.999995 0.999995 0.999994 0.999996 0.999992 0.999995 0.999995 0.999996 0.999993 0.999995
          0.999996 0.999997 0.999995 0.999996 0.999996 0.999997 0.999994 0.999996 0.999997 0.999998 0.999996 0.999997
          0.999996 0.999997 0.999995 0.999996 0.999997 0.999998 0.999996 0.999997 0.999998 0.999998 0.999997 0.999998
          0.999996 0.999997 0.999993 0.999995 0.999998 0.999998 0.999996 0.999997 0.999999 0.999999 0.999998 0.999998
          0.999997 0.999998 0.999995 0.999996 0.999998 0.999999 0.999997 0.999998 0.999999 0.999999 0.999998 0.999999
          0.999999 0.999999 0.999998 0.999998 0.999999 1 0.999999 0.999999 0.999999 1 0.999999 1
          1 1 0.999999 0.999999 0.999999 0.999999 0.999999 0.999999 1 1 0.999999 0.999999
          1 1 1 1 1 1 1 1 0.999998 0.999998 0.999996 0.999997
          0.999998 0.999999 0.999997 0.999998 0.999999 0.999999 0.999998 0.999999 0.999999 0.999999 0.999998 0.999998
          0.999999 0.999999 0.999999 0.999999 0.999999 1 0.999999 0.999999 1 1 0.999999 1
          1 1 1 1 1 1 0.999999 0.999999 1 1 1 1
          1 1 1 1
        </DataArray>
        <DataArray type="Float32" Name="x^N2_liq" NumberOfComponents="1" format="ascii">
          7.34532e-05 7.31383e-05 0.0001 0.0001 5.03245e-05 4.98574e-05 7.34532e-05 7.31383e-05 3.24494e-05 3.20094e-05 5.03245e-05 4.98574e-05
          7.31383e-05 7.19372e-05 0.0001 0.0001 4.98574e-05 4.8182e-05 7.31383e-05 7.19372e-05 3.20094e-05 3.0544e-05 4.98574e-05 4.8182e-05
          1.99056e-05 1.95796e-05 3.24494e-05 3.20094e-05 1.17391e-05 1.15292e-05 1.99056e-05 1.95796e-05 1.95796e-05 1.85549e-05 3.20094e-05 3.0544e-05
          1.15292e-05 1.08913e-05 1.95796e-05 1.85549e-05 1.08913e-05 9.82511e-06 1.85549e-05 1.67524e-05 7.19372e-05 6.86807e-05 0.0001 0.0001
          6.86807e-05 5.83307e-05 0.0001 0.0001 4.8182e-05 4.43465e-05 7.19372e-05 6.86807e-05 3.0544e-05 2.77167e-05 4.8182e-05 4.43465e-05
          4.43465e-05 3.72821e-05 6.86807e-05 5.83307e-05 2.77167e-05 2.33767e-05 4.43465e-05 3.72821e-05 5.83307e-05 4.0096e-05 0.0001 4.68836e-05
          3.72821e-05 2.77013e-05 5.83307e-05 4.0096e-05 2.33767e-05 1.80287e-05 3.72821e-05 2.77013e-05 1.85549e-05 1.67524e-05 3.0544e-05 2.77167e-05
          1.67524e-05 1.4214e-05 2.77167e-05 2.33767e-05 9.82511e-06 8.3921e-06 1.67524e-05 1.4214e-05 1.4214e-05 1.12278e-05 2.33767e-05 1.80287e-05
          8.3921e-06 6.74978e-06 1.4214e-05 1.12278e-05 6.72451e-06 6.59992e-06 1.17391e-05 1.15292e-05 3.7946e-06 3.72358e-06 6.72451e-06 6.59992e-06
          2.17664e-06 2.13578e-06 3.7946e-06 3.72358e-06 6.59992e-06 6.22842e-06 1.15292e-05 1.08913e-05 6.22842e-06 5.6252e-06 1.08913e-05 9.82511e-06
          3.72358e-06 3.5139e-06 6.59992e-06 6.22842e-06 2.13578e-06 2.01539e-06 3.72358e-06 3.5139e-06 3.5139e-06 3.17837e-06 6.22842e-06 5.6252e-06
          2.01539e-06 1.82253e-06 3.5139e-06 3.17837e-06 1.38024e-06 1.35413e-06 2.17664e-06 2.13578e-06 1.14214e-06 1.12039e-06 1.38024e-06 1.35413e-06
          1.35413e-06 1.27675e-06 2.13578e-06 2.01539e-06 1.27675e-06 1.15037e-06 2.01539e-06 1.82253e-06 1.12039e-06 1.05562e-06 1.35413e-06 1.27675e-06
          1.05562e-06 9.48172e-07 1.27675e-06 1.15037e-06 5.6252e-06 4.83581e-06 9.82511e-06 8.3921e-06 3.17837e-06 2.74478e-06 5.6252e-06 4.83581e-06
          1.82253e-06 1.57034e-06 3.17837e-06 2.74478e-06 4.83581e-06 3.94499e-06 8.3921e-06 6.74978e-06 2.74478e-06 2.25886e-06 4.83581e-06 3.94499e-06
          1.57034e-06 1.28272e-06 2.74478e-06 2.25886e-06 1.15037e-06 9.75778e-07 1.82253e-06 1.57034e-06 9.48172e-07 7.93335e-07 1.15037e-06 9.75778e-07
          9.75778e-07 7.45867e-07 1.57034e-06 1.28272e-06 7.93335e-07 5.61334e-07 9.75778e-07 7.45867e-07 4.00638e-05 2.38328e-05 4.68375e-05 2.62298e-05
          2.76864e-05 1.8352e-05 4.00638e-05 2.38328e-05 1.80199e-05 1.26795e-05 2.76864e-05 1.8352e-05 2.38328e-05 1.39556e-05 2.62298e-05 1.49869e-05
          1.8352e-05 1.13871e-05 2.38328e-05 1.39556e-05 1.26795e-05 8.35716e-06 1.8352e-05 1.13871e-05 1.12229e-05 8.21364e-06 1.80199e-05 1.26795e-05
          6.74706e-06 5.08274e-06 1.12229e-05 8.21364e-06 8.21364e-06 5.67851e-06 1.26795e-05 8.35716e-06 5.08274e-06 3.64942e-06 8.21364e-06 5.67851e-06
          1.39556e-05 8.30354e-06 1.49869e-05 8.79154e-06 8.30354e-06 5.43931e-06 8.79154e-06 5.70516e-06 1.13871e-05 7.03265e-06 1.39556e-05 8.30354e-06
          8.35716e-06 5.41529e-06 1.13871e-05 7.03265e-06 7.03265e-06 4.72712e-06 8.30354e-06 5.43931e-06 5.43931e-06 4.56891e-06 5.70516e-06 4.77398e-06
          4.72712e-06 4.01295e-06 5.43931e-06 4.56891e-06 5.67851e-06 3.85874e-06 8.35716e-06 5.41529e-06 5.41529e-06 3.77386e-06 7.03265e-06 4.72712e-06
          3.85874e-06 2.79743e-06 5.41529e-06 3.77386e-06 3.64942e-06 2.58611e-06 5.67851e-06 3.85874e-06 2.58611e-06 1.94655e-06 3.85874e-06 2.79743e-06
          3.77386e-06 3.25262e-06 4.72712e-06 4.01295e-06 2.79743e-06 2.45236e-06 3.77386e-06 3.25262e-06 1.94655e-06 1.73479e-06 2.79743e-06 2.45236e-06
          3.94351e-06 3.03675e-06 6.74706e-06 5.08274e-06 2.25805e-06 1.76209e-06 3.94351e-06 3.03675e-06 1.28225e-06 9.88446e-07 2.25805e-06 1.76209e-06
          3.03675e-06 2.24622e-06 5.08274e-06 3.64942e-06 1.76209e-06 1.32895e-06 3.03675e-06 2.24622e-06 9.88446e-07 7.40981e-07 1.76209e-06 1.32895e-06
          1.32895e-06 9.9993e-07 2.24622e-06 1.64818e-06 7.45423e-07 4.99572e-07 1.28225e-06 9.88446e-07 5.60816e-07 0 7.45423e-07 4.99572e-07
          4.99572e-07 3.36617e-07 9.88446e-07 7.40981e-07 7.40981e-07 5.61866e-07 1.32895e-06 9.9993e-07 3.36617e-07 2.52003e-07 7.40981e-07 5.61866e-07
          0 0 4.99572e-07 3.36617e-07 0 0 3.36617e-07 2.52003e-07 2.24622e-06 1.64818e-06 3.64942e-06 2.58611e-06
          1.64818e-06 1.28147e-06 2.58611e-06 1.94655e-06 9.9993e-07 7.97043e-07 1.64818e-06 1.28147e-06 1.28147e-06 1.1586e-06 1.94655e-06 1.73479e-06
          7.97043e-07 7.28774e-07 1.28147e-06 1.1586e-06 5.61866e-07 4.54579e-07 9.9993e-07 7.97043e-07 2.52003e-07 2.04925e-07 5.61866e-07 4.54579e-07
          0 0 2.52003e-07 2.04925e-07 4.54579e-07 4.18756e-07 7.97043e-07 7.28774e-07 2.04925e-07 1.89487e-07 4.54579e-07 4.18756e-07
          0 0 2.04925e-07 1.89487e-07
        </DataArray>
        <DataArray type="Float32" Name="X^H2O_liq" NumberOfComponents="1" format="ascii">
          0.999886 0.999886 0.999844 0.999844 0.999922 0.999922 0.999886 0.999886 0.99995 0.99995 0.999922 0.999922
          0.999886 0.999888 0.999844 0.999844 0.999922 0.999925 0.999886 0.999888 0.99995 0.999952 0.999922 0.999925
          0.999969 0.99997 0.99995 0.99995 0.999982 0.999982 0.999969 0.99997 0.99997 0.999971 0.99995 0.999952
          0.999982 0.999983 0.99997 0.999971 0.999983 0.999985 0.999971 0.999974 0.999888 0.999893 0.999844 0.999844
          0.999893 0.999909 0.999844 0.999844 0.999925 0.999931 0.999888 0.999893 0.999952 0.999957 0.999925 0.999931
          0.999931 0.999942 0.999893 0.999909 0.999957 0.999964 0.999931 0.999942 0.999909 0.999938 0.999844 0.999927
          0.999942 0.999957 0.999909 0.999938 0.999964 0.999972 0.999942 0.999957 0.999971 0.999974 0.999952 0.999957
          0.999974 0.999978 0.999957 0.999964 0.999985 0.999987 0.999974 0.999978 0.999978 0.999983 0.999964 0.999972
          0.999987 0.99999 0.999978 0.999983 0.99999 0.99999 0.999982 0.999982 0.999994 0.999994 0.99999 0.99999
          0.999997 0.999997 0.999994 0.999994 0.99999 0.99999 0.999982 0.999983 0.99999 0.999991 0.999983 0.999985
          0.999994 0.999995 0.99999 0.99999 0.999997 0.999997 0.999994 0.999995 0.999995 0.999995 0.99999 0.999991
          0.999997 0.999997 0.999995 0.999995 0.999998 0.999998 0.999997 0.999997 0.999998 0.999998 0.999998 0.999998
          0.999998 0.999998 0.999997 0.999997 0.999998 0.999998 0.999997 0.999997 0.999998 0.999998 0.999998 0.999998
          0.999998 0.999999 0.999998 0.999998 0.999991 0.999992 0.999985 0.999987 0.999995 0.999996 0.999991 0.999992
          0.999997 0.999998 0.999995 0.999996 0.999992 0.999994 0.999987 0.99999 0.999996 0.999996 0.999992 0.999994
          0.999998 0.999998 0.999996 0.999996 0.999998 0.999999 0.999997 0.999998 0.999999 0.999999 0.999998 0.999999
          0.999999 0.999999 0.999998 0.999998 0.999999 0.999999 0.999999 0.999999 0.999938 0.999963 0.999927 0.999959
          0.999957 0.999971 0.999938 0.999963 0.999972 0.99998 0.999957 0.999971 0.999963 0.999978 0.999959 0.999977
          0.999971 0.999982 0.999963 0.999978 0.99998 0.999987 0.999971 0.999982 0.999983 0.999987 0.999972 0.99998
          0.99999 0.999992 0.999983 0.999987 0.999987 0.999991 0.99998 0.999987 0.999992 0.999994 0.999987 0.999991
          0.999978 0.999987 0.999977 0.999986 0.999987 0.999992 0.999986 0.999991 0.999982 0.999989 0.999978 0.999987
          0.999987 0.999992 0.999982 0.999989 0.999989 0.999993 0.999987 0.999992 0.999992 0.999993 0.999991 0.999993
          0.999993 0.999994 0.999992 0.999993 0.999991 0.999994 0.999987 0.999992 0.999992 0.999994 0.999989 0.999993
          0.999994 0.999996 0.999992 0.999994 0.999994 0.999996 0.999991 0.999994 0.999996 0.999997 0.999994 0.999996
          0.999994 0.999995 0.999993 0.999994 0.999996 0.999996 0.999994 0.999995 0.999997 0.999997 0.999996 0.999996
          0.999994 0.999995 0.99999 0.999992 0.999996 0.999997 0.999994 0.999995 0.999998 0.999998 0.999996 0.999997
          0.999995 0.999996 0.999992 0.999994 0.999997 0.999998 0.999995 0.999996 0.999998 0.999999 0.999997 0.999998
          0.999998 0.999998 0.999996 0.999997 0.999999 0.999999 0.999998 0.999998 0.999999 1 0.999999 0.999999
          0.999999 0.999999 0.999998 0.999999 0.999999 0.999999 0.999998 0.999998 0.999999 1 0.999999 0.999999
          1 1 0.999999 0.999999 1 1 0.999999 1 0.999996 0.999997 0.999994 0.999996
          0.999997 0.999998 0.999996 0.999997 0.999998 0.999999 0.999997 0.999998 0.999998 0.999998 0.999997 0.999997
          0.999999 0.999999 0.999998 0.999998 0.999999 0.999999 0.999998 0.999999 1 1 0.999999 0.999999
          1 1 1 1 0.999999 0.999999 0.999999 0.999999 1 1 0.999999 0.999999
          1 1 1 1
        </DataArray>
        <DataArray type="Float32" Name="X^N2_liq" NumberOfComponents="1" format="ascii">
          0.000114214 0.000113725 0.00015549 0.00015549 7.82519e-05 7.75255e-05 0.000114214 0.000113725 5.04575e-05 4.97733e-05 7.82519e-05 7.75255e-05
          0.000113725 0.000111857 0.00015549 0.00015549 7.75255e-05 7.49204e-05 0.000113725 0.000111857 4.97733e-05 4.74948e-05 7.75255e-05 7.49204e-05
          3.09526e-05 3.04457e-05 5.04575e-05 4.97733e-05 1.8254e-05 1.79276e-05 3.09526e-05 3.04457e-05 3.04457e-05 2.88524e-05 4.97733e-05 4.74948e-05
          1.79276e-05 1.69357e-05 3.04457e-05 2.88524e-05 1.69357e-05 1.52778e-05 2.88524e-05 2.60496e-05 0.000111857 0.000106794 0.00015549 0.00015549
          0.000106794 9.07007e-05 0.00015549 0.00015549 7.49204e-05 6.89566e-05 0.000111857 0.000106794 4.74948e-05 4.30985e-05 7.49204e-05 6.89566e-05
          6.89566e-05 5.79721e-05 0.000106794 9.07007e-05 4.30985e-05 3.635e-05 6.89566e-05 5.79721e-05 9.07007e-05 6.23475e-05 0.00015549 7.29015e-05
          5.79721e-05 4.30745e-05 9.07007e-05 6.23475e-05 3.635e-05 2.80342e-05 5.79721e-05 4.30745e-05 2.88524e-05 2.60496e-05 4.74948e-05 4.30985e-05
          2.60496e-05 2.21024e-05 4.30985e-05 3.635e-05 1.52778e-05 1.30496e-05 2.60496e-05 2.21024e-05 2.21024e-05 1.7459e-05 3.635e-05 2.80342e-05
          1.30496e-05 1.04958e-05 2.21024e-05 1.7459e-05 1.04565e-05 1.02628e-05 1.8254e-05 1.79276e-05 5.90054e-06 5.79011e-06 1.04565e-05 1.02628e-05
          3.38464e-06 3.3211e-06 5.90054e-06 5.79011e-06 1.02628e-05 9.68509e-06 1.79276e-05 1.69357e-05 9.68509e-06 8.74709e-06 1.69357e-05 1.52778e-05
          5.79011e-06 5.46407e-06 1.02628e-05 9.68509e-06 3.3211e-06 3.1339e-06 5.79011e-06 5.46407e-06 5.46407e-06 4.94232e-06 9.68509e-06 8.74709e-06
          3.1339e-06 2.83402e-06 5.46407e-06 4.94232e-06 2.14625e-06 2.10565e-06 3.38464e-06 3.3211e-06 1.77602e-06 1.7422e-06 2.14625e-06 2.10565e-06
          2.10565e-06 1.98533e-06 3.3211e-06 3.1339e-06 1.98533e-06 1.78882e-06 3.1339e-06 2.83402e-06 1.7422e-06 1.64147e-06 2.10565e-06 1.98533e-06
          1.64147e-06 1.4744e-06 1.98533e-06 1.78882e-06 8.74709e-06 7.51961e-06 1.52778e-05 1.30496e-05 4.94232e-06 4.2681e-06 8.74709e-06 7.51961e-06
          2.83402e-06 2.44185e-06 4.94232e-06 4.2681e-06 7.51961e-06 6.1344e-06 1.30496e-05 1.04958e-05 4.2681e-06 3.5125e-06 7.51961e-06 6.1344e-06
          2.44185e-06 1.99462e-06 4.2681e-06 3.5125e-06 1.78882e-06 1.51732e-06 2.83402e-06 2.44185e-06 1.4744e-06 1.23363e-06 1.78882e-06 1.51732e-06
          1.51732e-06 1.15981e-06 2.44185e-06 1.99462e-06 1.23363e-06 8.72867e-07 1.51732e-06 1.15981e-06 6.22973e-05 3.70593e-05 7.28299e-05 4.07865e-05
          4.30513e-05 2.85369e-05 6.22973e-05 3.70593e-05 2.80204e-05 1.97164e-05 4.30513e-05 2.85369e-05 3.70593e-05 2.17006e-05 4.07865e-05 2.33043e-05
          2.85369e-05 1.77068e-05 3.70593e-05 2.17006e-05 1.97164e-05 1.29952e-05 2.85369e-05 1.77068e-05 1.74514e-05 1.27721e-05 2.80204e-05 1.97164e-05
          1.04916e-05 7.90358e-06 1.74514e-05 1.27721e-05 1.27721e-05 8.82999e-06 1.97164e-05 1.29952e-05 7.90358e-06 5.67479e-06 1.27721e-05 8.82999e-06
          2.17006e-05 1.29118e-05 2.33043e-05 1.36707e-05 1.29118e-05 8.45804e-06 1.36707e-05 8.87143e-06 1.77068e-05 1.09356e-05 2.17006e-05 1.29118e-05
          1.29952e-05 8.42069e-06 1.77068e-05 1.09356e-05 1.09356e-05 7.3506e-06 1.29118e-05 8.45804e-06 8.45804e-06 7.10459e-06 8.87143e-06 7.42347e-06
          7.3506e-06 6.24008e-06 8.45804e-06 7.10459e-06 8.82999e-06 6.00028e-06 1.29952e-05 8.42069e-06 8.42069e-06 5.8683e-06 1.09356e-05 7.3506e-06
          6.00028e-06 4.34996e-06 8.42069e-06 5.8683e-06 5.67479e-06 4.02136e-06 8.82999e-06 6.00028e-06 4.02136e-06 3.02685e-06 6.00028e-06 4.34996e-06
          5.8683e-06 5.05777e-06 7.3506e-06 6.24008e-06 4.34996e-06 3.81338e-06 5.8683e-06 5.05777e-06 3.02685e-06 2.69757e-06 4.34996e-06 3.81338e-06
          6.1321e-06 4.72211e-06 1.04916e-05 7.90358e-06 3.51124e-06 2.74003e-06 6.1321e-06 4.72211e-06 1.99388e-06 1.53702e-06 3.51124e-06 2.74003e-06
          4.72211e-06 3.49284e-06 7.90358e-06 5.67479e-06 2.74003e-06 2.06651e-06 4.72211e-06 3.49284e-06 1.53702e-06 1.15222e-06 2.74003e-06 2.06651e-06