<?xml version="1.0"?>
<VTKFile type="UnstructuredGrid" version="0.1" byte_order="LittleEndian">
  <UnstructuredGrid>
    <Piece NumberOfCells="100" NumberOfPoints="121">
      <CellData Scalars="p">
        <DataArray type="Float32" Name="p" NumberOfComponents="1" format="ascii">
          100000 100000 100001 100000 100000 100001 100001 100001 100001 100001 100001 100000
          100000 100000 100001 100001 100001 100000 100001 100001 100001 100001 100001 100001
          100001 100001 100001 100001 100001 100001 100001 100001 100001 100001 100001 100001
          100001 100001 100001 100001 100001 100001 100001 100001 100001 100001 100001 100001
          100001 100001 100001 100001 100001 100001 100001 100001 100001 100001 100001 100001
          100001 100001 100001 100001 100001 100002 100002 100001 100001 100001 100001 100001
          100001 100001 100001 100001 100001 100001 100001 100001 100001 100001 100001 100000
          100001 100001 100000 100000 100000 100001 100001 100001 100001 100001 100001 100000
          100000 100001 100000 100000
        </DataArray>
        <DataArray type="Float32" Name="rho" NumberOfComponents="1" format="ascii">
          958.489 971.556 981.497 958.743 972.059 981.99 988.448 992.972 988.823 993.22 993.722 959.434
          961.21 973.27 983.086 975.68 984.978 966.363 980.138 987.815 989.609 990.85 994.467 992.508
          995.401 995.745 997.363 998.263 995.898 996.199 997.455 998.323 997.635 998.437 998.732 998.931
          998.775 998.859 998.968 999.041 996.631 997.888 998.599 997.151 998.187 998.79 998.982 999.154
          999.136 999.316 982.645 987.16 991.322 990.282 992.019 994.124 994.361 996.395 995.922 997.25
          994.134 996.028 994.901 995.988 996.43 996.805 997.08 997.038 997.056 997.717 997.889 998.294
          997.53 998.029 998.487 997.69 998.491 998.985 998.157 998.751 999.139 998.951 999.303 999.548
          999.404 999.253 999.467 999.607 999.631 998.514 998.748 999.084 998.862 999.149 999.326 999.505
          999.642 999.362 999.522 999.648
        </DataArray>
        <DataArray type="Float32" Name="mu" NumberOfComponents="1" format="ascii">
          0.000282142 0.000352321 0.000443914 0.000283195 0.00035589 0.000450025 0.000554807 0.000678013 0.000562857 0.000687009 0.000706215 0.000286106
          0.000293933 0.000364841 0.00046435 0.000384377 0.000491902 0.000319878 0.000428082 0.000541856 0.000580761 0.000612189 0.000737737 0.000662043
          0.000783459 0.000802545 0.000916173 0.00100856 0.000811471 0.000829957 0.000924364 0.00101587 0.000940996 0.00103065 0.00107291 0.00110577
          0.00107963 0.00109339 0.00111227 0.00112591 0.00085886 0.000966215 0.00105293 0.000898293 0.000999326 0.00108205 0.00111485 0.0011485
          0.00114469 0.00118476 0.000458455 0.000529218 0.000625364 0.000597284 0.000646249 0.000722725 0.00073302 0.000842693 0.00081288 0.000906505
          0.000723149 0.000819304 0.000757977 0.000816873 0.00084504 0.000871432 0.000892593 0.000889273 0.000890707 0.00094886 0.00096628 0.00101236
          0.000931137 0.000981393 0.00103736 0.000946263 0.00103789 0.00111541 0.000995809 0.00107588 0.00114542 0.00110935 0.0011817 0.00124934
          0.00120732 0.00116996 0.00122468 0.00126946 0.00127793 0.00104105 0.00107539 0.00113417 0.00109386 0.00114735 0.00118733 0.0012358
          0.00128229 0.00119634 0.00124131 0.00128428
        </DataArray>
        <DataArray type="Float32" Name="delp" NumberOfComponents="1" format="ascii">
          0.147755 0.475262 0.783518 0.150737 0.480128 0.78275 1.03223 1.20246 1.021 1.18016 1.13396 0.163053
          0.209502 0.498157 0.785551 0.55159 0.799675 0.395262 0.689795 0.828963 0.998884 0.9637 1.05841 0.90294
          0.939943 1.29756 1.33599 1.34107 1.26645 1.20248 1.29921 1.30128 1.22458 1.22161 1.33358 1.32651
          1.29246 1.21071 1.28489 1.20244 1.10092 1.10959 1.10163 0.952444 0.950182 0.941098 1.08934 1.08084
          0.930658 0.923358 0.952465 0.961106 0.965612 1.19208 1.1874 1.16954 0.95956 0.941285 1.13211 1.07267
          1.36883 1.47976 1.35146 1.31267 1.45388 1.53173 1.50182 1.2486 1.40071 1.31861 1.15749 1.20685
          1.44169 1.35083 1.22915 0.91081 0.867466 0.804926 0.990657 0.883741 0.742896 0.889849 0.697316 0.439294
          0.543919 0.705046 0.471907 0.236511 0.176118 1.03861 1.06511 0.892241 1.07671 0.893077 0.685312 0.440087
          0.155734 0.67708 0.427998 0.148981
        </DataArray>
        <DataArray type="Float32" Name="x^H2O_liq" NumberOfComponents="1" format="ascii">
          0.999997 1 1 0.999997 1 1 1 1 1 1 1 0.999997
          0.999997 1 1 1 1 0.999998 1 1 1 1 1 1
          1 1 1 1 1 1 1 1 1 1 1 1
          1 1 1 1 1 1 1 1 1 1 1 1
          1 1 1 1 1 1 1 1 1 1 1 1
          1 1 1 1 1 1 1 1 1 1 1 1
          1 1 1 1 1 1 1 1 1 1 1 1
          1 1 1 1 1 1 1 1 1 1 1 1
          1 1 1 1
        </DataArray>
        <DataArray type="Float32" Name="x^N2_liq" NumberOfComponents="1" format="ascii">
          2.69009e-06 2.23534e-08 1.41562e-10 2.68901e-06 2.23272e-08 1.4117e-10 7.54288e-13 3.57142e-15 7.50792e-13 3.54873e-15 3.49293e-15 2.68474e-06
          2.66704e-06 2.22426e-08 1.4008e-10 2.19605e-08 1.37171e-10 2.45269e-06 1.97892e-08 1.21892e-10 7.41795e-13 7.20658e-13 3.37475e-15 6.35398e-13
          3.39618e-15 1.55971e-17 6.44917e-20 2.64302e-22 1.54781e-17 1.51956e-17 6.42216e-20 2.64915e-22 6.43182e-20 4.87165e-22 1.09694e-24 4.58458e-27
          1.31725e-24 4.96778e-23 4.19089e-26 8.53376e-24 1.53514e-17 2.40946e-19 4.36221e-20 1.13759e-16 2.63425e-17 6.95084e-18 9.86814e-21 1.79737e-21
          1.71601e-18 3.34012e-19 4.55754e-09 6.85362e-11 6.88611e-13 2.59678e-11 4.83704e-13 5.85944e-15 8.32916e-15 5.04201e-16 7.92097e-17 4.26847e-18
          1.27486e-13 5.68686e-16 2.84255e-15 4.06237e-17 1.47706e-17 2.39367e-18 7.09787e-20 5.96005e-19 2.43421e-19 3.85608e-21 2.73337e-20 1.52282e-22
          1.32407e-21 2.26009e-23 7.88236e-25 1.03396e-16 2.78125e-17 8.51153e-18 7.97043e-19 2.05749e-19 7.12167e-20 1.20727e-21 2.70809e-18 8.14578e-19
          2.56059e-20 4.47466e-22 1.65291e-22 7.71603e-21 4.5139e-23 4.66887e-21 2.36384e-23 6.15424e-24 1.0989e-25 2.85757e-26 2.32821e-24 8.49889e-25
          2.14495e-25 1.07166e-26 3.82674e-27 9.22812e-28
        </DataArray>
        <DataArray type="Float32" Name="X^H2O_liq" NumberOfComponents="1" format="ascii">
          0.999996 1 1 0.999996 1 1 1 1 1 1 1 0.999996
          0.999996 1 1 1 1 0.999996 1 1 1 1 1 1
          1 1 1 1 1 1 1 1 1 1 1 1
          1 1 1 1 1 1 1 1 1 1 1 1
          1 1 1 1 1 1 1 1 1 1 1 1
          1 1 1 1 1 1 1 1 1 1 1 1
          1 1 1 1 1 1 1 1 1 1 1 1
          1 1 1 1 1 1 1 1 1 1 1 1
          1 1 1 1
        </DataArray>
        <DataArray type="Float32" Name="X^N2_liq" NumberOfComponents="1" format="ascii">
          4.18306e-06 3.47593e-08 2.20127e-10 4.18138e-06 3.47185e-08 2.19518e-10 1.17291e-12 5.55352e-15 1.16747e-12 5.51824e-15 5.43146e-15 4.17473e-06
          4.14721e-06 3.4587e-08 2.17823e-10 3.41484e-08 2.133e-10 3.8139e-06 3.07719e-08 1.89541e-10 1.15348e-12 1.12061e-12 5.2477e-15 9.88037e-13
          5.28102e-15 2.42533e-17 1.00284e-19 4.10987e-22 2.40683e-17 2.36289e-17 9.98639e-20 4.1194e-22 1.00014e-19 7.57536e-22 1.70573e-24 7.12897e-27
          2.0483e-24 7.72484e-23 6.51679e-26 1.32699e-23 2.38712e-17 3.74668e-19 6.78318e-20 1.76894e-16 4.09623e-17 1.08085e-17 1.53448e-20 2.7949e-21
          2.66838e-18 5.19385e-19 7.08693e-09 1.06573e-10 1.07078e-12 4.03797e-11 7.52154e-13 9.11136e-15 1.29518e-14 7.84026e-16 1.2317e-16 6.63742e-18
          1.98239e-13 8.843e-16 4.42013e-15 6.31695e-17 2.29681e-17 3.72212e-18 1.10371e-19 9.2678e-19 3.78517e-19 5.99616e-21 4.25036e-20 2.36797e-22
          2.05892e-21 3.51442e-23 1.2257e-24 1.6078e-16 4.32481e-17 1.32353e-17 1.23939e-18 3.19937e-19 1.10741e-19 1.8773e-21 4.21105e-18 1.26666e-18
          3.98169e-20 6.95804e-22 2.57026e-22 1.19983e-20 7.01906e-23 7.26004e-21 3.67574e-23 9.56977e-24 1.70877e-25 4.44349e-26 3.62033e-24 1.32157e-24
          3.33537e-25 1.66642e-26 5.95054e-27 1.43496e-27
        </DataArray>
        <DataArray type="Float32" Name="T" NumberOfComponents="1" format="ascii">
          372.962 353.544 336.42 372.608 352.738 335.49 322.258 311.152 321.412 310.471 309.062 371.642
          369.13 350.774 333.391 346.763 329.642 361.588 338.933 323.662 319.6 316.631 306.881 312.4
          303.972 302.838 296.89 292.868 302.322 301.283 296.508 292.575 295.747 291.993 290.4 289.23
          290.156 289.664 289.006 288.54 299.731 294.634 291.14 297.745 293.243 290.069 288.917 287.79
          287.915 286.633 334.242 325.087 315.46 318.007 313.683 307.9 307.198 300.589 302.242 297.349
          307.871 301.878 305.558 302.015 300.463 299.082 298.024 298.187 298.116 295.395 294.632 292.715
          296.195 293.987 291.733 295.511 291.713 288.898 293.387 290.292 287.891 289.106 286.729 284.709
          285.942 287.099 285.424 284.142 283.907 291.591 290.31 288.263 289.648 287.828 286.554 285.099
          283.787 286.276 284.939 283.733
        </DataArray>
        <DataArray type="Float32" Name="process rank" NumberOfComponents="1" format="ascii">
          0 0 0 0 0 0 0 0 0 0 0 0
          0 0 0 0 0 0 0 0 0 0 0 0
          0 0 0 0 0 0 0 0 0 0 0 0
          0 0 0 0 0 0 0 0 0 0 0 0
          0 0 0 0 0 0 0 0 0 0 0 0
          0 0 0 0 0 0 0 0 0 0 0 0
          0 0 0 0 0 0 0 0 0 0 0 0
          0 0 0 0 0 0 0 0 0 0 0 0
          0 0 0 0
        </DataArray>
      </CellData>
      <Points>
        <DataArray type="Float32" Name="Coordinates" NumberOfComponents="3" format="ascii">
          -0.4 -0.5 0 -0.4 -0.4 0 -0.5 -0.5 0 -0.5 -0.4 0
          -0.3 -0.5 0 -0.3 -0.4 0 -0.2 -0.5 0 -0.2 -0.4 0
          -0.4 -0.3 0 -0.5 -0.3 0 -0.3 -0.3 0 -0.2 -0.3 0
          -0.1 -0.5 0 -0.1 -0.4 0 -1.37512e-12 -0.5 0 -1.37512e-12 -0.4 0
          -0.1 -0.3 0 -1.37512e-12 -0.3 0 -1.37512e-12 -0.2 0 -0.1 -0.2 0
          -0.4 -0.2 0 -0.5 -0.2 0 -0.4 -0.1 0 -0.5 -0.1 0
          -0.3 -0.2 0 -0.2 -0.2 0 -0.3 -0.1 0 -0.2 -0.1 0
          -0.4 0 0 -0.5 0 0 -0.3 0 0 -0.2 0 0
          -0.1 -0.1 0 -1.37511e-12 -0.1 0 -0.1 0 0 -1.37512e-12 0 0
          0.1 -0.5 0 0.1 -0.4 0 0.2 -0.5 0 0.2 -0.4 0
          0.3 -0.5 0 0.3 -0.4 0 0.1 -0.3 0 0.1 -0.2 0
          0.2 -0.3 0 0.3 -0.3 0 0.2 -0.2 0 0.3 -0.2 0
          0.4 -0.5 0 0.4 -0.4 0 0.5 -0.5 0 0.5 -0.4 0
          0.4 -0.3 0 0.4 -0.2 0 0.5 -0.3 0 0.5 -0.2 0
          0.1 -0.1 0 0.2 -0.1 0 0.3 -0.1 0 0.1 0 0
          0.2 0 0 0.3 0 0 0.4 -0.1 0 0.5 -0.1 0
          0.4 0 0 0.5 0 0 -0.4 0.1 0 -0.5 0.1 0
          -0.3 0.1 0 -0.2 0.1 0 -0.4 0.2 0 -0.5 0.2 0
          -0.3 0.2 0 -0.2 0.2 0 -0.1 0.1 0 -8.2509e-13 0.1 0
          -0.1 0.2 0 -2.7503e-13 0.2 0 -0.4 0.3 0 -0.5 0.3 0
          -0.4 0.4 0 -0.5 0.4 0 -0.3 0.3 0 -0.2 0.3 0
          -0.3 0.4 0 -0.4 0.5 0 -0.5 0.5 0 -0.3 0.5 0
          -0.1 0.3 0 -0.2 0.4 0 -0.1 0.4 0 2.75002e-13 0.3 0
          8.25048e-13 0.4 0 -0.2 0.5 0 -0.1 0.5 0 1.37512e-12 0.5 0
          0.1 0.1 0 0.2 0.1 0 0.3 0.1 0 0.1 0.2 0
          0.2 0.2 0 0.3 0.2 0 0.2 0.3 0 0.1 0.3 0
          0.4 0.1 0 0.5 0.1 0 0.4 0.2 0 0.3 0.3 0
          0.4 0.3 0 0.5 0.2 0 0.5 0.3 0 0.1 0.4 0
          0.2 0.4 0 0.1 0.5 0 0.2 0.5 0 0.3 0.4 0
          0.4 0.4 0 0.5 0.4 0 0.3 0.5 0 0.4 0.5 0
          0.5 0.5 0
        </DataArray>
      </Points>
      <Cells>
        <DataArray type="Int32" Name="connectivity" NumberOfComponents="1" format="ascii">
          0 1 3 2 4 5 1 0 6 7 5 4
          1 8 9 3 5 10 8 1 7 11 10 5
          12 13 7 6 14 15 13 12 13 16 11 7
          15 17 16 13 17 18 19 16 8 20 21 9
          20 22 23 21 10 24 20 8 11 25 24 10
          24 26 22 20 25 27 26 24 22 28 29 23
          26 30 28 22 27 31 30 26 16 19 25 11
          19 32 27 25 18 33 32 19 32 34 31 27
          33 35 34 32 36 37 15 14 38 39 37 36
          40 41 39 38 37 42 17 15 42 43 18 17
          39 44 42 37 41 45 44 39 44 46 43 42
          45 47 46 44 48 49 41 40 50 51 49 48
          49 52 45 41 52 53 47 45 51 54 52 49
          54 55 53 52 43 56 33 18 46 57 56 43
          47 58 57 46 56 59 35 33 57 60 59 56
          58 61 60 57 53 62 58 47 55 63 62 53
          62 64 61 58 63 65 64 62 28 66 67 29
          30 68 66 28 31 69 68 30 66 70 71 67
          68 72 70 66 69 73 72 68 34 74 69 31
          35 75 74 34 74 76 73 69 75 77 76 74
          70 78 79 71 78 80 81 79 72 82 78 70
          73 83 82 72 82 84 80 78 80 85 86 81
          84 87 85 80 76 88 83 73 83 89 84 82
          88 90 89 83 77 91 88 76 91 92 90 88
          89 93 87 84 90 94 93 89 92 95 94 90
          59 96 75 35 60 97 96 59 61 98 97 60
          96 99 77 75 97 100 99 96 98 101 100 97
          100 102 103 99 64 104 98 61 65 105 104 64
          104 106 101 98 101 107 102 100 106 108 107 101
          105 109 106 104 109 110 108 106 99 103 91 77
          103 111 92 91 102 112 111 103 111 113 95 92
          112 114 113 111 107 115 112 102 108 116 115 107
          110 117 116 108 115 118 114 112 116 119 118 115
          117 120 119 116
        </DataArray>
        <DataArray type="Int32" Name="offsets" NumberOfComponents="1" format="ascii">
          4 8 12 16 20 24 28 32 36 40 44 48
          52 56 60 64 68 72 76 80 84 88 92 96
          100 104 108 112 116 120 124 128 132 136 140 144
          148 152 156 160 164 168 172 176 180 184 188 192
          196 200 204 208 212 216 220 224 228 232 236 240
          244 248 252 256 260 264 268 272 276 280 284 288
          292 296 300 304 308 312 316 320 324 328 332 336
          340 344 348 352 356 360 364 368 372 376 380 384
          388 392 396 400
        </DataArray>
        <DataArray type="UInt8" Name="types" NumberOfComponents="1" format="ascii">
          9 9 9 9 9 9 9 9 9 9 9 9
          9 9 9 9 9 9 9 9 9 9 9 9
          9 9 9 9 9 9 9 9 9 9 9 9
          9 9 9 9 9 9 9 9 9 9 9 9
          9 9 9 9 9 9 9 9 9 9 9 9
          9 9 9 9 9 9 9 9 9 9 9 9
          9 9 9 9 9 9 9 9 9 9 9 9
          9 9 9 9 9 9 9 9 9 9 9 9
          9 9 9 9
        </DataArray>
      </Cells>
    </Piece>
  </UnstructuredGrid>
</VTKFile>
