<?xml version="1.0"?>
<VTKFile type="UnstructuredGrid" version="0.1" byte_order="LittleEndian">
  <UnstructuredGrid>
    <Piece NumberOfCells="100" NumberOfPoints="400">
      <PointData Scalars="p">
        <DataArray type="Float32" Name="p" NumberOfComponents="1" format="ascii">
          100000 100000 100000 100000 100001 100001 100000 100000 100001 100001 100001 100001
          100000 100000 100000 100000 100001 100001 100000 100000 100001 100001 100001 100001
          100001 100001 100001 100001 100001 100001 100001 100001 100001 100001 100001 100001
          100001 100001 100001 100001 100001 100001 100001 100001 100000 100000 100000 100000
          100000 100001 100000 100000 100001 100001 100000 100000 100001 100001 100001 100001
          100001 100001 100000 100001 100001 100001 100001 100001 100001 100001 100000 100001
          100001 100001 100001 100001 100001 100001 100001 100001 100001 100001 100001 100001
          100001 100001 100001 100001 100001 100001 100001 100001 100001 100001 100001 100001
          100001 100001 100001 100001 100001 100001 100001 100001 100001 100001 100001 100001
          100002 100001 100001 100001 100001 100001 100001 100001 100001 100001 100001 100001
          100001 100001 100001 100001 100001 100001 100001 100001 100001 100001 100001 100001
          100001 100001 100001 100001 100002 100001 100002 100001 100002 100001 100002 100001
          100001 100001 100001 100001 100001 100001 100001 100001 100001 100001 100001 100001
          100001 100001 100001 100001 100001 100001 100001 100001 100001 100001 100001 100001
          100001 100001 100001 100001 100001 100001 100001 100001 100001 100001 100001 100001
          100001 100001 100001 100001 100001 100001 100001 100001 100001 100001 100001 100001
          100001 100001 100001 100001 100001 100001 100001 100001 100001 100001 100001 100001
          100001 100001 100001 100001 100001 100001 100001 100001 100001 100001 100001 100001
          100001 100001 100001 100001 100001 100001 100001 100001 100001 100001 100001 100001
          100001 100001 100001 100001 100001 100001 100001 100001 100001 100001 100001 100001
          100001 100002 100001 100002 100002 100002 100002 100002 100001 100002 100001 100002
          100001 100001 100001 100002 100002 100002 100002 100002 100002 100002 100002 100002
          100002 100002 100002 100002 100001 100001 100001 100001 100001 100002 100002 100002
          100001 100001 100001 100002 100001 100001 100001 100001 100001 100001 100001 100001
          100002 100002 100002 100002 100001 100001 100002 100002 100001 100001 100001 100001
          100001 100001 100001 100001 100001 100001 100001 100001 100001 100001 100001 100001
          100001 100001 100001 100001 100001 100001 100001 100001 100001 100001 100001 100001
          100001 100001 100001 100001 100001 100001 100001 100001 100001 100000 100001 100001
          100001 100000 100001 100001 100001 100001 100001 100001 100000 100000 100001 100001
          100000 100000 100001 100000 100000 100000 100000 100000 100001 100001 100001 100001
          100001 100001 100001 100001 100001 100001 100001 100001 100001 100001 100001 100001
          100001 100001 100001 100001 100001 100001 100001 100001 100000 100000 100001 100001
          100000 100000 100000 100000 100001 100001 100001 100001 100000 100000 100001 100001
          100000 100000 100000 100000
        </DataArray>
        <DataArray type="Float32" Name="rho" NumberOfComponents="1" format="ascii">
          964.772 965.021 950.929 950.929 976.067 976.404 964.772 965.021 984.538 984.835 976.067 976.404
          965.021 965.902 950.929 950.929 976.404 977.533 965.021 965.902 984.835 985.766 976.404 977.533
          990.42 990.628 984.538 984.835 994.229 994.358 990.42 990.628 990.628 991.255 984.835 985.766
          994.358 994.737 990.628 991.255 994.737 995.333 991.255 992.279 965.902 968.018 950.929 950.929
          968.018 973.817 950.929 950.929 977.533 979.834 965.902 968.018 985.766 987.406 977.533 979.834
          979.834 983.609 968.018 973.817 987.406 989.687 979.834 983.609 973.817 982.84 950.929 979.692
          983.609 988.223 973.817 982.84 989.687 992.248 983.609 988.223 991.255 992.279 985.766 987.406
          992.279 993.605 987.406 989.687 995.333 996.078 992.279 993.605 993.605 995.036 989.687 992.248
          996.078 996.868 993.605 995.036 996.546 996.621 994.229 994.358 997.875 997.918 996.546 996.621
          998.591 998.617 997.875 997.918 996.621 996.837 994.358 994.737 996.837 997.172 994.737 995.333
          997.918 998.04 996.621 996.837 998.617 998.691 997.918 998.04 998.04 998.23 996.837 997.172
          998.691 998.806 998.04 998.23 998.935 998.953 998.591 998.617 999.036 999.052 998.935 998.953
          998.953 999.004 998.617 998.691 999.004 999.088 998.691 998.806 999.052 999.097 998.953 999.004
          999.097 999.172 999.004 999.088 997.172 997.583 995.333 996.078 998.23 998.462 997.172 997.583
          998.806 998.953 998.23 998.462 997.583 998.016 996.078 996.868 998.462 998.708 997.583 998.016
          998.953 999.112 998.462 998.708 999.088 999.2 998.806 998.953 999.172 999.276 999.088 999.2
          999.2 999.342 998.953 999.112 999.276 999.423 999.2 999.342 982.951 990.099 979.873 989.111
          988.275 992.314 982.951 990.099 992.279 994.569 988.275 992.314 990.099 994.054 989.111 993.641
          992.314 995.078 990.099 994.054 994.569 996.28 992.314 995.078 995.054 996.341 992.279 994.569
          996.878 997.59 995.054 996.341 996.341 997.345 994.569 996.28 997.59 998.159 996.341 997.345
          994.054 996.162 993.641 995.958 996.162 997.174 995.958 997.05 995.078 996.693 994.054 996.162
          996.28 997.367 995.078 996.693 996.693 997.504 996.162 997.174 997.174 997.472 997.05 997.37
          997.504 997.748 997.174 997.472 997.345 998.019 996.28 997.367 997.367 997.943 996.693 997.504
          998.019 998.392 997.367 997.943 998.159 998.555 997.345 998.019 998.555 998.782 998.019 998.392
          997.943 998.121 997.504 997.748 998.392 998.51 997.943 998.121 998.782 998.855 998.392 998.51
          998.022 998.413 996.878 997.59 998.711 998.932 998.022 998.413 999.114 999.258 998.711 998.932
          998.413 998.73 997.59 998.159 998.932 999.113 998.413 998.73 999.258 999.368 998.932 999.113
          999.113 999.24 998.73 998.956 999.345 999.476 999.114 999.258 999.426 999.701 999.345 999.476
          999.476 999.552 999.258 999.368 999.368 999.44 999.113 999.24 999.552 999.586 999.368 999.44
          999.701 999.701 999.476 999.552 999.701 999.701 999.552 999.586 998.73 998.956 998.159 998.555
          998.956 999.089 998.555 998.782 999.24 999.316 998.956 999.089 999.089 999.132 998.782 998.855
          999.316 999.34 999.089 999.132 999.44 999.48 999.24 999.316 999.586 999.603 999.44 999.48
          999.701 999.701 999.586 999.603 999.48 999.494 999.316 999.34 999.603 999.609 999.48 999.494
          999.701 999.701 999.603 999.609
        </DataArray>
        <DataArray type="Float32" Name="mu" NumberOfComponents="1" format="ascii">
          0.000311298 0.000312602 0.000254601 0.000254601 0.000387746 0.000390745 0.000311298 0.000312602 0.000485145 0.000489677 0.000387746 0.000390745
          0.000312602 0.000317332 0.000254601 0.000254601 0.000390745 0.00040119 0.000312602 0.000317332 0.000489677 0.000504619 0.000390745 0.00040119
          0.000600807 0.000606259 0.000485145 0.000489677 0.000727254 0.000732887 0.000600807 0.000606259 0.000606259 0.000623454 0.000489677 0.000504619
          0.000732887 0.000750161 0.000606259 0.000623454 0.000750161 0.000779881 0.000623454 0.000654522 0.000317332 0.000329428 0.000254601 0.000254601
          0.000329428 0.000369067 0.000254601 0.000254601 0.00040119 0.000424717 0.000317332 0.000329428 0.000504619 0.00053388 0.00040119 0.000424717
          0.000424717 0.000471585 0.000329428 0.000369067 0.00053388 0.000582601 0.000424717 0.000471585 0.000369067 0.000461041 0.000254601 0.000423169
          0.000471585 0.000550123 0.000369067 0.000461041 0.000582601 0.000653515 0.000471585 0.000550123 0.000623454 0.000654522 0.000504619 0.00053388
          0.000654522 0.000701598 0.00053388 0.000582601 0.000779881 0.000822359 0.000654522 0.000701598 0.000701598 0.000764646 0.000582601 0.000653515
          0.000822359 0.000876129 0.000701598 0.000764646 0.000852951 0.000858154 0.000727254 0.000732887 0.000964892 0.000969334 0.000852951 0.000858154
          0.00105187 0.00105554 0.000964892 0.000969334 0.000858154 0.000873838 0.000732887 0.000750161 0.000873838 0.000900013 0.000750161 0.000779881
          0.000969334 0.00098261 0.000858154 0.000873838 0.00105554 0.00106651 0.000969334 0.00098261 0.00098261 0.00100444 0.000873838 0.000900013
          0.00106651 0.00108466 0.00098261 0.00100444 0.00110646 0.00110959 0.00105187 0.00105554 0.001125 0.00112794 0.00110646 0.00110959
          0.00110959 0.00111902 0.00105554 0.00106651 0.00111902 0.00113498 0.00106651 0.00108466 0.00112794 0.00113684 0.00110959 0.00111902
          0.00113684 0.00115213 0.00111902 0.00113498 0.000900013 0.000936039 0.000779881 0.000822359 0.00100444 0.00103396 0.000900013 0.000936039
          0.00108466 0.00110963 0.00100444 0.00103396 0.000936039 0.000979912 0.000822359 0.000876129 0.00103396 0.00106911 0.000936039 0.000979912
          0.00110963 0.00113992 0.00103396 0.00106911 0.00113498 0.00115832 0.00108466 0.00110963 0.00115213 0.00117536 0.00113498 0.00115832
          0.00115832 0.00119137 0.00110963 0.00113992 0.00117536 0.00121241 0.00115832 0.00119137 0.000462526 0.000592648 0.000425144 0.000569258
          0.000551204 0.000655629 0.000462526 0.000592648 0.00065451 0.000742339 0.000551204 0.000655629 0.000592648 0.000719805 0.000569258 0.000703017
          0.000655629 0.000766741 0.000592648 0.000719805 0.000742339 0.000835132 0.000655629 0.000766741 0.000765533 0.000839125 0.00065451 0.000742339
          0.000876902 0.000936693 0.000765533 0.000839125 0.000839125 0.000914649 0.000742339 0.000835132 0.000936693 0.000996143 0.000839125 0.000914649
          0.000719805 0.000827577 0.000703017 0.00081501 0.000827577 0.000900193 0.00081501 0.000890226 0.000766741 0.000863256 0.000719805 0.000827577
          0.000835132 0.000916585 0.000766741 0.000863256 0.000863256 0.000928735 0.000827577 0.000900193 0.000900193 0.000925856 0.000890226 0.000916788
          0.000928735 0.000951913 0.000900193 0.000925856 0.000914649 0.00098022 0.000835132 0.000916585 0.000916585 0.00097205 0.000863256 0.000928735
          0.00098022 0.00102469 0.000916585 0.00097205 0.000996143 0.00104677 0.000914649 0.00098022 0.00104677 0.00108075 0.00098022 0.00102469
          0.00097205 0.000991695 0.000928735 0.000951913 0.00102469 0.00104041 0.00097205 0.000991695 0.00108075 0.00109271 0.00102469 0.00104041
          0.000980531 0.0010274 0.000876902 0.000936693 0.00106959 0.00110602 0.000980531 0.0010274 0.00114033 0.00117113 0.00106959 0.00110602
          0.0010274 0.00107263 0.000936693 0.000996143 0.00110602 0.00113994 0.0010274 0.00107263 0.00117113 0.00119771 0.00110602 0.00113994
          0.00113994 0.0011672 0.00107263 0.00111028 0.0011919 0.00122732 0.00114033 0.00117113 0.00121312 0.0013059 0.0011919 0.00122732
          0.00122732 0.00125076 0.00117113 0.00119771 0.00119771 0.00121703 0.00113994 0.0011672 0.00125076 0.00126205 0.00119771 0.00121703
          0.0013059 0.0013059 0.00122732 0.00125076 0.0013059 0.0013059 0.00125076 0.00126205 0.00107263 0.00111028 0.000996143 0.00104677
          0.00111028 0.00113517 0.00104677 0.00108075 0.0011672 0.00118475 0.00111028 0.00113517 0.00113517 0.00114386 0.00108075 0.00109271
          0.00118475 0.0011908 0.00113517 0.00114386 0.00121703 0.00122864 0.0011672 0.00118475 0.00126205 0.00126811 0.00121703 0.00122864
          0.0013059 0.0013059 0.00126205 0.00126811 0.00122864 0.00123253 0.00118475 0.0011908 0.00126811 0.00127008 0.00122864 0.00123253
          0.0013059 0.0013059 0.00126811 0.00127008
        </DataArray>
        <DataArray type="Float32" Name="delp" NumberOfComponents="1" format="ascii">
          0.293685 0.298095 0 0 0.605368 0.611866 0.293685 0.298095 0.898391 0.902716 0.605368 0.611866
          0.298095 0.316053 0 0 0.611866 0.63684 0.298095 0.316053 0.902716 0.918366 0.611866 0.63684
          1.1411 1.14004 0.898391 0.902716 1.31604 1.30867 1.1411 1.14004 1.14004 1.13672 0.902716 0.918366
          1.30867 1.28538 1.14004 1.13672 1.28538 1.24128 1.13672 1.12852 0.316053 0.369444 0 0
          0.369444 0.564602 0 0 0.63684 0.700538 0.316053 0.369444 0.918366 0.95112 0.63684 0.700538
          0.700538 0.83339 0.369444 0.564602 0.95112 0.998981 0.700538 0.83339 0.564602 1.01464 0 1.01167
          0.83339 1.02155 0.564602 1.01464 0.998981 1.02873 0.83339 1.02155 1.13672 1.12852 0.918366 0.95112
          1.12852 1.10369 0.95112 0.998981 1.24128 1.16518 1.12852 1.10369 1.10369 1.03443 0.998981 1.02873
          1.16518 1.0374 1.10369 1.03443 1.42345 1.41076 1.31604 1.30867 1.47743 1.46108 1.42345 1.41076
          1.4978 1.47929 1.47743 1.46108 1.41076 1.37158 1.30867 1.28538 1.37158 1.30191 1.28538 1.24128
          1.46108 1.41138 1.41076 1.37158 1.47929 1.42361 1.46108 1.41138 1.41138 1.32612 1.37158 1.30191
          1.42361 1.33011 1.41138 1.32612 1.50236 1.4828 1.4978 1.47929 1.5026 1.48273 1.50236 1.4828
          1.4828 1.42427 1.47929 1.42361 1.42427 1.32716 1.42361 1.33011 1.48273 1.4234 1.4828 1.42427
          1.4234 1.32525 1.42427 1.32716 1.30191 1.19417 1.24128 1.16518 1.32612 1.20171 1.30191 1.19417
          1.33011 1.19839 1.32612 1.20171 1.19417 1.03716 1.16518 1.0374 1.20171 1.03427 1.19417 1.03716
          1.19839 1.02938 1.20171 1.03427 1.32716 1.19259 1.33011 1.19839 1.32525 1.18992 1.32716 1.19259
          1.19259 1.02375 1.19839 1.02938 1.18992 1.0209 1.19259 1.02375 1.01464 1.25171 1.01167 1.25179
          1.02155 1.2481 1.01464 1.25171 1.02873 1.23423 1.02155 1.2481 1.25171 1.44242 1.25179 1.44844
          1.2481 1.42237 1.25171 1.44242 1.23423 1.38336 1.2481 1.42237 1.03443 1.20487 1.02873 1.23423
          1.0374 1.15733 1.03443 1.20487 1.20487 1.32056 1.23423 1.38336 1.15733 1.23053 1.20487 1.32056
          1.44242 1.57562 1.44844 1.58665 1.57562 1.65189 1.58665 1.66602 1.42237 1.5416 1.44242 1.57562
          1.38336 1.48175 1.42237 1.5416 1.5416 1.60917 1.57562 1.65189 1.65189 1.6762 1.66602 1.69133
          1.60917 1.63063 1.65189 1.6762 1.32056 1.39276 1.38336 1.48175 1.48175 1.53633 1.5416 1.60917
          1.39276 1.43126 1.48175 1.53633 1.23053 1.2716 1.32056 1.39276 1.2716 1.29167 1.39276 1.43126
          1.53633 1.55352 1.60917 1.63063 1.43126 1.44316 1.53633 1.55352 1.29167 1.29758 1.43126 1.44316
          1.03716 1.08967 1.0374 1.15733 1.03427 0.997026 1.03716 1.08967 1.02938 0.863271 1.03427 0.997026
          1.08967 1.10984 1.15733 1.23053 0.997026 0.951386 1.08967 1.10984 0.863271 0.7365 0.997026 0.951386
          0.951386 0.916818 1.10984 1.11487 1.02375 0.629339 1.02938 0.863271 1.0209 0 1.02375 0.629339
          0.629339 0.423226 0.863271 0.7365 0.7365 0.667289 0.951386 0.916818 0.423226 0.357991 0.7365 0.667289
          0 0 0.629339 0.423226 0 0 0.423226 0.357991 1.10984 1.11487 1.23053 1.2716
          1.11487 1.1149 1.2716 1.29167 0.916818 0.897553 1.11487 1.1149 1.1149 1.1145 1.29167 1.29758
          0.897553 0.891544 1.1149 1.1145 0.667289 0.636502 0.916818 0.897553 0.357991 0.333432 0.667289 0.636502
          0 0 0.357991 0.333432 0.636502 0.627739 0.897553 0.891544 0.333432 0.326841 0.636502 0.627739
          0 0 0.333432 0.326841
        </DataArray>
        <DataArray type="Float32" Name="x^H2O_liq" NumberOfComponents="1" format="ascii">
          0.999999 0.999999 0.9999 0.9999 1 1 0.999999 0.999999 1 1 1 1
          0.999999 0.999999 0.9999 0.9999 1 1 0.999999 0.999999 1 1 1 1
          1 1 1 1 1 1 1 1 1 1 1 1
          1 1 1 1 1 1 1 1 0.999999 0.999999 0.9999 0.9999
          0.999999 0.999999 0.9999 0.9999 1 1 0.999999 0.999999 1 1 1 1
          1 1 0.999999 0.999999 1 1 1 1 0.999999 1 0.9999 0.999999
          1 1 0.999999 1 1 1 1 1 1 1 1 1
          1 1 1 1 1 1 1 1 1 1 1 1
          1 1 1 1 1 1 1 1 1 1 1 1
          1 1 1 1 1 1 1 1 1 1 1 1
          1 1 1 1 1 1 1 1 1 1 1 1
          1 1 1 1 1 1 1 1 1 1 1 1
          1 1 1 1 1 1 1 1 1 1 1 1
          1 1 1 1 1 1 1 1 1 1 1 1
          1 1 1 1 1 1 1 1 1 1 1 1
          1 1 1 1 1 1 1 1 1 1 1 1
          1 1 1 1 1 1 1 1 1 1 0.999999 1
          1 1 1 1 1 1 1 1 1 1 1 1
          1 1 1 1 1 1 1 1 1 1 1 1
          1 1 1 1 1 1 1 1 1 1 1 1
          1 1 1 1 1 1 1 1 1 1 1 1
          1 1 1 1 1 1 1 1 1 1 1 1
          1 1 1 1 1 1 1 1 1 1 1 1
          1 1 1 1 1 1 1 1 1 1 1 1
          1 1 1 1 1 1 1 1 1 1 1 1
          1 1 1 1 1 1 1 1 1 1 1 1
          1 1 1 1 1 1 1 1 1 1 1 1
          1 1 1 1 1 1 1 1 1 1 1 1
          1 1 1 1 1 1 1 1 1 1 1 1
          1 1 1 1 1 1 1 1 1 1 1 1
          1 1 1 1 1 1 1 1 1 1 1 1
          1 1 1 1 1 1 1 1 1 1 1 1
          1 1 1 1 1 1 1 1 1 1 1 1
          1 1 1 1
        </DataArray>
        <DataArray type="Float32" Name="x^N2_liq" NumberOfComponents="1" format="ascii">
          1.37299e-06 1.37257e-06 0.0001 0.0001 9.68267e-09 9.67041e-09 1.37299e-06 1.37257e-06 4.59051e-11 4.57725e-11 9.68267e-09 9.67041e-09
          1.37257e-06 1.37088e-06 0.0001 0.0001 9.67041e-09 9.61762e-09 1.37257e-06 1.37088e-06 4.57725e-11 4.46216e-11 9.67041e-09 9.61762e-09
          1.64681e-13 1.63352e-13 4.59051e-11 4.57725e-11 4.79688e-16 4.73032e-16 1.64681e-13 1.63352e-13 1.63352e-13 1.56046e-13 4.57725e-11 4.46216e-11
          4.73032e-16 4.44407e-16 1.63352e-13 1.56046e-13 4.44407e-16 4.20992e-16 1.56046e-13 1.34286e-13 1.37088e-06 1.36218e-06 0.0001 0.0001
          1.36218e-06 1.01079e-06 0.0001 0.0001 9.61762e-09 8.90862e-09 1.37088e-06 1.36218e-06 4.46216e-11 3.95088e-11 9.61762e-09 8.90862e-09
          8.90862e-09 6.30899e-09 1.36218e-06 1.01079e-06 3.95088e-11 2.76174e-11 8.90862e-09 6.30899e-09 1.01079e-06 2.97378e-07 0.0001 6.8479e-07
          6.30899e-09 2.45241e-09 1.01079e-06 2.97378e-07 2.76174e-11 2.28048e-11 6.30899e-09 2.45241e-09 1.56046e-13 1.34286e-13 4.46216e-11 3.95088e-11
          1.34286e-13 1.2405e-13 3.95088e-11 2.76174e-11 4.20992e-16 6.32267e-16 1.34286e-13 1.2405e-13 1.2405e-13 2.00225e-13 2.76174e-11 2.28048e-11
          6.32267e-16 5.94052e-15 1.2405e-13 2.00225e-13 1.19768e-18 1.17526e-18 4.79688e-16 4.73032e-16 2.69607e-21 2.67322e-21 1.19768e-18 1.17526e-18
          5.78874e-24 6.0183e-24 2.69607e-21 2.67322e-21 1.17526e-18 1.13724e-18 4.73032e-16 4.44407e-16 1.13724e-18 1.42429e-18 4.44407e-16 4.20992e-16
          2.67322e-21 2.94441e-21 1.17526e-18 1.13724e-18 6.0183e-24 2.01308e-23 2.67322e-21 2.94441e-21 2.94441e-21 1.87427e-20 1.13724e-18 1.42429e-18
          2.01308e-23 2.59315e-22 2.94441e-21 1.87427e-20 1.24229e-26 2.2431e-26 5.78874e-24 6.0183e-24 7.39269e-29 3.30983e-28 1.24229e-26 2.2431e-26
          2.2431e-26 2.18884e-25 6.0183e-24 2.01308e-23 2.18884e-25 5.97748e-24 2.01308e-23 2.59315e-22 3.30983e-28 8.86781e-27 2.2431e-26 2.18884e-25
          8.86781e-27 1.73622e-25 2.18884e-25 5.97748e-24 1.42429e-18 1.40628e-17 4.20992e-16 6.32267e-16 1.87427e-20 2.43945e-19 1.42429e-18 1.40628e-17
          2.59315e-22 6.47211e-21 1.87427e-20 2.43945e-19 1.40628e-17 1.469e-16 6.32267e-16 5.94052e-15 2.43945e-19 4.96615e-18 1.40628e-17 1.469e-16
          6.47211e-21 1.05415e-19 2.43945e-19 4.96615e-18 5.97748e-24 1.08336e-22 2.59315e-22 6.47211e-21 1.73622e-25 3.95904e-24 5.97748e-24 1.08336e-22
          1.08336e-22 2.16353e-21 6.47211e-21 1.05415e-19 3.95904e-24 -7.41287e-24 1.08336e-22 2.16353e-21 2.95825e-07 1.96417e-09 6.28264e-07 3.00753e-09
          2.44762e-09 4.75283e-10 2.95825e-07 1.96417e-09 2.27078e-11 4.08963e-12 2.44762e-09 4.75283e-10 1.96417e-09 8.07875e-12 3.00753e-09 1.08946e-11
          4.75283e-10 3.14934e-12 1.96417e-09 8.07875e-12 4.08963e-12 5.18624e-13 4.75283e-10 3.14934e-12 2.01319e-13 4.64521e-14 2.27078e-11 4.08963e-12
          5.85135e-15 5.52137e-16 2.01319e-13 4.64521e-14 4.64521e-14 5.10892e-15 4.08963e-12 5.18624e-13 5.52137e-16 6.33353e-17 4.64521e-14 5.10892e-15
          8.07875e-12 2.54096e-14 1.08946e-11 3.20134e-14 2.54096e-14 6.66974e-17 3.20134e-14 8.05294e-17 3.14934e-12 1.24558e-14 8.07875e-12 2.54096e-14
          5.18624e-13 3.48581e-15 3.14934e-12 1.24558e-14 1.24558e-14 3.75037e-17 2.54096e-14 6.66974e-17 6.66974e-17 3.07606e-19 8.05294e-17 3.6075e-19
          3.75037e-17 1.89565e-19 6.66974e-17 3.07606e-19 5.10892e-15 4.40183e-16 5.18624e-13 3.48581e-15 3.48581e-15 1.37858e-17 1.24558e-14 3.75037e-17
          4.40183e-16 3.02645e-18 3.48581e-15 1.37858e-17 6.33353e-17 5.0288e-18 5.10892e-15 4.40183e-16 5.0288e-18 3.13187e-19 4.40183e-16 3.02645e-18
          1.37858e-17 8.26747e-20 3.75037e-17 1.89565e-19 3.02645e-18 2.43835e-20 1.37858e-17 8.26747e-20 3.13187e-19 4.42237e-21 3.02645e-18 2.43835e-20
          1.528e-16 1.27147e-17 5.85135e-15 5.52137e-16 4.77049e-18 2.99674e-19 1.528e-16 1.27147e-17 1.10759e-19 6.70108e-21 4.77049e-18 2.99674e-19
          1.27147e-17 8.62107e-19 5.52137e-16 6.33353e-17 2.99674e-19 1.69399e-20 1.27147e-17 8.62107e-19 6.70108e-21 3.69862e-22 2.99674e-19 1.69399e-20
          1.69399e-20 9.62657e-22 8.62107e-19 6.56324e-20 1.98664e-21 1.47415e-22 1.10759e-19 6.70108e-21 5.9941e-23 0 1.98664e-21 1.47415e-22
          1.47415e-22 7.38448e-24 6.70108e-21 3.69862e-22 3.69862e-22 1.71858e-23 1.69399e-20 9.62657e-22 7.38448e-24 3.467e-25 3.69862e-22 1.71858e-23
          0 0 1.47415e-22 7.38448e-24 0 0 7.38448e-24 3.467e-25 8.62107e-19 6.56324e-20 6.33353e-17 5.0288e-18
          6.56324e-20 4.1039e-21 5.0288e-18 3.13187e-19 9.62657e-22 5.60464e-23 6.56324e-20 4.1039e-21 4.1039e-21 3.91202e-22 3.13187e-19 4.42237e-21
          5.60464e-23 5.77035e-24 4.1039e-21 3.91202e-22 1.71858e-23 8.51065e-25 9.62657e-22 5.60464e-23 3.467e-25 1.41961e-26 1.71858e-23 8.51065e-25
          0 0 3.467e-25 1.41961e-26 8.51065e-25 8.16306e-26 5.60464e-23 5.77035e-24 1.41961e-26 1.25391e-27 8.51065e-25 8.16306e-26
          0 0 1.41961e-26 1.25391e-27
        </DataArray>
        <DataArray type="Float32" Name="X^H2O_liq" NumberOfComponents="1" format="ascii">
          0.999998 0.999998 0.999844 0.999844 1 1 0.999998 0.999998 1 1 1 1
          0.999998 0.999998 0.999844 0.999844 1 1 0.999998 0.999998 1 1 1 1
          1 1 1 1 1 1 1 1 1 1 1 1
          1 1 1 1 1 1 1 1 0.999998 0.999998 0.999844 0.999844
          0.999998 0.999998 0.999844 0.999844 1 1 0.999998 0.999998 1 1 1 1
          1 1 0.999998 0.999998 1 1 1 1 0.999998 1 0.999844 0.999999
          1 1 0.999998 1 1 1 1 1 1 1 1 1
          1 1 1 1 1 1 1 1 1 1 1 1
          1 1 1 1 1 1 1 1 1 1 1 1
          1 1 1 1 1 1 1 1 1 1 1 1
          1 1 1 1 1 1 1 1 1 1 1 1
          1 1 1 1 1 1 1 1 1 1 1 1
          1 1 1 1 1 1 1 1 1 1 1 1
          1 1 1 1 1 1 1 1 1 1 1 1
          1 1 1 1 1 1 1 1 1 1 1 1
          1 1 1 1 1 1 1 1 1 1 1 1
          1 1 1 1 1 1 1 1 1 1 0.999999 1
          1 1 1 1 1 1 1 1 1 1 1 1
          1 1 1 1 1 1 1 1 1 1 1 1
          1 1 1 1 1 1 1 1 1 1 1 1
          1 1 1 1 1 1 1 1 1 1 1 1
          1 1 1 1 1 1 1 1 1 1 1 1
          1 1 1 1 1 1 1 1 1 1 1 1
          1 1 1 1 1 1 1 1 1 1 1 1
          1 1 1 1 1 1 1 1 1 1 1 1
          1 1 1 1 1 1 1 1 1 1 1 1
          1 1 1 1 1 1 1 1 1 1 1 1
          1 1 1 1 1 1 1 1 1 1 1 1
          1 1 1 1 1 1 1 1 1 1 1 1
          1 1 1 1 1 1 1 1 1 1 1 1
          1 1 1 1 1 1 1 1 1 1 1 1
          1 1 1 1 1 1 1 1 1 1 1 1
          1 1 1 1 1 1 1 1 1 1 1 1
          1 1 1 1
        </DataArray>
        <DataArray type="Float32" Name="X^N2_liq" NumberOfComponents="1" format="ascii">
          2.13499e-06 2.13433e-06 0.00015549 0.00015549 1.50564e-08 1.50374e-08 2.13499e-06 2.13433e-06 7.13819e-11 7.11757e-11 1.50564e-08 1.50374e-08
          2.13433e-06 2.1317e-06 0.00015549 0.00015549 1.50374e-08 1.49553e-08 2.13433e-06 2.1317e-06 7.11757e-11 6.93861e-11 1.50374e-08 1.49553e-08
          2.56077e-13 2.5401e-13 7.13819e-11 7.11757e-11 7.45909e-16 7.3556e-16 2.56077e-13 2.5401e-13 2.5401e-13 2.4265e-13 7.11757e-11 6.93861e-11
          7.3556e-16 6.91048e-16 2.5401e-13 2.4265e-13 6.91048e-16 6.54638e-16 2.4265e-13 2.08814e-13 2.1317e-06 2.11818e-06 0.00015549 0.00015549
          2.11818e-06 1.57177e-06 0.00015549 0.00015549 1.49553e-08 1.38528e-08 2.1317e-06 2.11818e-06 6.93861e-11 6.14357e-11 1.49553e-08 1.38528e-08
          1.38528e-08 9.81041e-09 2.11818e-06 1.57177e-06 6.14357e-11 4.29447e-11 1.38528e-08 9.81041e-09 1.57177e-06 4.62419e-07 0.00015549 1.06484e-06
          9.81041e-09 3.81346e-09 1.57177e-06 4.62419e-07 4.29447e-11 3.54612e-11 9.81041e-09 3.81346e-09 2.4265e-13 2.08814e-13 6.93861e-11 6.14357e-11
          2.08814e-13 1.92897e-13 6.14357e-11 4.29447e-11 6.54638e-16 9.83169e-16 2.08814e-13 1.92897e-13 1.92897e-13 3.11348e-13 4.29447e-11 3.54612e-11
          9.83169e-16 9.23745e-15 1.92897e-13 3.11348e-13 1.86237e-18 1.82752e-18 7.45909e-16 7.3556e-16 4.19236e-21 4.15683e-21 1.86237e-18 1.82752e-18
          9.00143e-24 9.35838e-24 4.19236e-21 4.15683e-21 1.82752e-18 1.7684e-18 7.3556e-16 6.91048e-16 1.7684e-18 2.21476e-18 6.91048e-16 6.54638e-16
          4.15683e-21 4.57852e-21 1.82752e-18 1.7684e-18 9.35838e-24 3.13032e-23 4.15683e-21 4.57852e-21 4.57852e-21 2.91446e-20 1.7684e-18 2.21476e-18
          3.13032e-23 4.03232e-22 4.57852e-21 2.91446e-20 1.93175e-26 3.48799e-26 9.00143e-24 9.35838e-24 1.14955e-28 5.14675e-28 1.93175e-26 3.48799e-26
          3.48799e-26 3.40362e-25 9.35838e-24 3.13032e-23 3.40362e-25 9.29491e-24 3.13032e-23 4.03232e-22 5.14675e-28 1.37894e-26 3.48799e-26 3.40362e-25
          1.37894e-26 2.69981e-25 3.40362e-25 9.29491e-24 2.21476e-18 2.18676e-17 6.54638e-16 9.83169e-16 2.91446e-20 3.79332e-19 2.21476e-18 2.18676e-17
          4.03232e-22 1.00641e-20 2.91446e-20 3.79332e-19 2.18676e-17 2.28427e-16 9.83169e-16 9.23745e-15 3.79332e-19 7.72231e-18 2.18676e-17 2.28427e-16
          1.00641e-20 1.63919e-19 3.79332e-19 7.72231e-18 9.29491e-24 1.68461e-22 4.03232e-22 1.00641e-20 2.69981e-25 6.15626e-24 9.29491e-24 1.68461e-22
          1.68461e-22 3.36426e-21 1.00641e-20 1.63919e-19 6.15626e-24 -1.15269e-23 1.68461e-22 3.36426e-21 4.60004e-07 3.05427e-09 9.76943e-07 4.67668e-09
          3.80602e-09 7.3906e-10 4.60004e-07 3.05427e-09 3.53104e-11 6.35932e-12 3.80602e-09 7.3906e-10 3.05427e-09 1.25624e-11 4.67668e-09 1.6941e-11
          7.3906e-10 4.89719e-12 3.05427e-09 1.25624e-11 6.35932e-12 8.06455e-13 7.3906e-10 4.89719e-12 3.13049e-13 7.22325e-14 3.53104e-11 6.35932e-12
          9.09878e-15 8.58567e-16 3.13049e-13 7.22325e-14 7.22325e-14 7.94431e-15 6.35932e-12 8.06455e-13 8.58567e-16 9.84857e-17 7.22325e-14 7.94431e-15
          1.25624e-11 3.95116e-14 1.6941e-11 4.97804e-14 3.95116e-14 1.03714e-16 4.97804e-14 1.25222e-16 4.89719e-12 1.93687e-14 1.25624e-11 3.95116e-14
          8.06455e-13 5.4204e-15 4.89719e-12 1.93687e-14 1.93687e-14 5.83178e-17 3.95116e-14 1.03714e-16 1.03714e-16 4.78324e-19 1.25222e-16 5.60962e-19
          5.83178e-17 2.94772e-19 1.03714e-16 4.78324e-19 7.94431e-15 6.84479e-16 8.06455e-13 5.4204e-15 5.4204e-15 2.14368e-17 1.93687e-14 5.83178e-17
          6.84479e-16 4.70609e-18 5.4204e-15 2.14368e-17 9.84857e-17 7.81972e-18 7.94431e-15 6.84479e-16 7.81972e-18 4.87002e-19 6.84479e-16 4.70609e-18
          2.14368e-17 1.28558e-19 5.83178e-17 2.94772e-19 4.70609e-18 3.79161e-20 2.14368e-17 1.28558e-19 4.87002e-19 6.87673e-21 4.70609e-18 3.79161e-20
          2.37602e-16 1.97713e-17 9.09878e-15 8.58567e-16 7.41806e-18 4.65989e-19 2.37602e-16 1.97713e-17 1.72228e-19 1.04201e-20 7.41806e-18 4.65989e-19
          1.97713e-17 1.34057e-18 8.58567e-16 9.84857e-17 4.65989e-19 2.63413e-20 1.97713e-17 1.34057e-18 1.04201e-20 5.75132e-22 4.65989e-19 2.63413e-20
          2.63413e-20 1.49692e-21 1.34057e-18 1.02058e-19 3.0892e-21 2.29229e-22 1.72228e-19 1.04201e-20 9.32076e-23 0 3.0892e-21 2.29229e-22
          2.29229e-22 1.14828e-23 1.04201e-20 5.75132e-22 5.75132e-22 2.67237e-23 2.63413e-20 1.49692e-21 1.14828e-23 5.39115e-25 5.75132e-22 2.67237e-23
          0 0 2.29229e-22 1.14828e-23 0 0 1.14828e-23 5.39115e-25 1.34057e-18 1.02058e-19 9.84857e-17 7.81972e-18
          1.02058e-19 6.38152e-21 7.81972e-18 4.87002e-19 1.49692e-21 8.71516e-23 1.02058e-19 6.38152e-21 6.38152e-21 6.08315e-22 4.87002e-19 6.87673e-21
          8.71516e-23 8.97284e-24 6.38152e-21 6.08315e-22 2.67237e-23 1.3234e-24 1.49692e-21 8.71516e-23 5.39115e-25 2.20748e-26 2.67237e-23 1.3234e-24
          0 0 5.39115e-25 2.20748e-26 1.3234e-24 1.26935e-25 8.71516e-23 8.97284e-24 2.20748e-26 1.94982e-27 1.3234e-24 1.26935e-25
          0 0 2.20748e-26 1.94982e-27
        </DataArray>
        <DataArray type="Float32" Name="T" NumberOfComponents="1" format="ascii">
          363.959 363.591 383.15 383.15 346.107 345.53 363.959 363.591 330.529 329.932 346.107 345.53
          363.591 362.28 383.15 383.15 345.53 343.58 363.591 362.28 329.932 328.027 345.53 343.58
          317.677 317.172 330.529 329.932 307.589 307.207 317.677 317.172 317.172 315.627 329.932 328.027
          307.207 306.062 317.172 315.627 306.062 304.19 315.627 313.004 362.28 359.077 383.15 383.15
          359.077 349.876 383.15 383.15 343.58 339.487 362.28 359.077 328.027 324.555 343.58 339.487
          339.487 332.371 359.077 349.876 324.555 319.419 339.487 332.371 349.876 333.866 383.15 339.745
          332.371 322.76 349.876 333.866 319.419 313.086 332.371 322.76 315.627 313.004 328.027 324.555
          313.004 309.395 324.555 319.419 304.19 301.706 313.004 309.395 309.395 305.135 319.419 313.086
          301.706 298.844 309.395 305.135 300.042 299.768 307.589 307.207 294.692 294.5 300.042 299.768
          291.18 291.043 294.692 294.5 299.768 298.96 307.207 306.062 298.96 297.662 306.062 304.19
          294.5 293.936 299.768 298.96 291.043 290.635 294.5 293.936 293.936 293.034 298.96 297.662