<?xml version="1.0"?>
<VTKFile type="UnstructuredGrid" version="0.1" byte_order="LittleEndian">
  <UnstructuredGrid>
    <Piece NumberOfCells="100" NumberOfPoints="121">
      <CellData Scalars="p">
        <DataArray type="Float32" Name="p" NumberOfComponents="1" format="ascii">
          100000 100000 100000 100000 100000 100000 100000 100000 100000 100000 100000 100000
          100000 100000 100000 100000 100000 100000 100000 100000 100000 100000 100000 100000
          100000 100000 100000 100000 100000 100000 100000 100000 100000 100000 100000 100000
          100000 100000 100000 100000 100000 100000 100000 100000 100000 100000 100000 100000
          100000 100000 100000 100000 100000 100000 100000 100000 100000 100000 100000 100000
          100000 100000 100000 100000 100000 100000 100000 100000 100000 100000 100000 100000
          100000 100000 100000 100000 100000 100000 100000 100000 100000 100000 100000 100000
          100000 100000 100000 100000 100000 100000 100000 100000 100000 100000 100000 100000
          100000 100000 100000 100000
        </DataArray>
        <DataArray type="Float32" Name="rho" NumberOfComponents="1" format="ascii">
          999.701 999.701 999.701 999.701 999.701 999.701 999.701 999.701 999.701 999.701 999.701 999.701
          999.701 999.701 999.701 999.701 999.701 999.701 999.701 999.701 999.701 999.701 999.701 999.701
          999.701 999.701 999.701 999.701 999.701 999.701 999.701 999.701 999.701 999.701 999.701 999.701
          999.701 999.701 999.701 999.701 999.701 999.701 999.701 999.701 999.701 999.701 999.701 999.701
          999.701 999.701 999.701 999.701 999.701 999.701 999.701 999.701 999.701 999.701 999.701 999.701
          999.701 999.701 999.701 999.701 999.701 999.701 999.701 999.701 999.701 999.701 999.701 999.701
          999.701 999.701 999.701 999.701 999.701 999.701 999.701 999.701 999.701 999.701 999.701 999.701
          999.701 999.701 999.701 999.701 999.701 999.701 999.701 999.701 999.701 999.701 999.701 999.701
          999.701 999.701 999.701 999.701
        </DataArray>
        <DataArray type="Float32" Name="mu" NumberOfComponents="1" format="ascii">
          0.0013059 0.0013059 0.0013059 0.0013059 0.0013059 0.0013059 0.0013059 0.0013059 0.0013059 0.0013059 0.0013059 0.0013059
          0.0013059 0.0013059 0.0013059 0.0013059 0.0013059 0.0013059 0.0013059 0.0013059 0.0013059 0.0013059 0.0013059 0.0013059
          0.0013059 0.0013059 0.0013059 0.0013059 0.0013059 0.0013059 0.0013059 0.0013059 0.0013059 0.0013059 0.0013059 0.0013059
          0.0013059 0.0013059 0.0013059 0.0013059 0.0013059 0.0013059 0.0013059 0.0013059 0.0013059 0.0013059 0.0013059 0.0013059
          0.0013059 0.0013059 0.0013059 0.0013059 0.0013059 0.0013059 0.0013059 0.0013059 0.0013059 0.0013059 0.0013059 0.0013059
          0.0013059 0.0013059 0.0013059 0.0013059 0.0013059 0.0013059 0.0013059 0.0013059 0.0013059 0.0013059 0.0013059 0.0013059
          0.0013059 0.0013059 0.0013059 0.0013059 0.0013059 0.0013059 0.0013059 0.0013059 0.0013059 0.0013059 0.0013059 0.0013059
          0.0013059 0.0013059 0.0013059 0.0013059 0.0013059 0.0013059 0.0013059 0.0013059 0.0013059 0.0013059 0.0013059 0.0013059
          0.0013059 0.0013059 0.0013059 0.0013059
        </DataArray>
        <DataArray type="Float32" Name="delp" NumberOfComponents="1" format="ascii">
          0 0 0 0 0 0 0 0 0 0 0 0
          0 0 0 0 0 0 0 0 0 0 0 0
          0 0 0 0 0 0 0 0 0 0 0 0
          0 0 0 0 0 0 0 0 0 0 0 0
          0 0 0 0 0 0 0 0 0 0 0 0
          0 0 0 0 0 0 0 0 0 0 0 0
          0 0 0 0 0 0 0 0 0 0 0 0
          0 0 0 0 0 0 0 0 0 0 0 0
          0 0 0 0
        </DataArray>
        <DataArray type="Float32" Name="x^H2O_liq" NumberOfComponents="1" format="ascii">
          0.999914 0.999939 0.99996 0.999914 0.99994 0.99996 0.999975 0.999985 0.999975 0.999985 0.999986 0.999915
          0.999918 0.999942 0.999962 0.999945 0.999965 0.999926 0.999954 0.999971 0.999976 0.999979 0.999987 0.999982
          0.999989 0.999991 0.999995 0.999997 0.999991 0.999992 0.999995 0.999997 0.999995 0.999997 0.999998 0.999999
          0.999998 0.999998 0.999999 0.999999 0.999993 0.999996 0.999998 0.999994 0.999996 0.999998 0.999999 0.999999
          0.999999 0.999999 0.999958 0.999969 0.999979 0.999976 0.99998 0.999986 0.999986 0.999992 0.99999 0.999994
          0.999986 0.999991 0.999988 0.999991 0.999992 0.999994 0.999994 0.999994 0.999994 0.999996 0.999996 0.999997
          0.999995 0.999997 0.999998 0.999995 0.999997 0.999998 0.999996 0.999998 0.999999 0.999998 0.999999 1
          0.999999 0.999999 1 1 1 0.999997 0.999998 0.999999 0.999998 0.999999 0.999999 1
          1 0.999999 1 1
        </DataArray>
        <DataArray type="Float32" Name="x^N2_liq" NumberOfComponents="1" format="ascii">
          8.6312e-05 6.09546e-05 4.03961e-05 8.59915e-05 6.02737e-05 3.96846e-05 2.5391e-05 1.52906e-05 2.48184e-05 1.48917e-05 1.40304e-05 8.50386e-05
          8.23203e-05 5.84949e-05 3.79764e-05 5.45507e-05 3.46931e-05 7.36008e-05 4.63323e-05 2.9129e-05 2.35255e-05 2.12661e-05 1.26209e-05 1.78689e-05
          1.06537e-05 8.9057e-06 5.0709e-06 2.87856e-06 8.65167e-06 8.12082e-06 4.91751e-06 2.78697e-06 4.60434e-06 2.60243e-06 1.71458e-06 1.21545e-06
          1.65637e-06 1.53873e-06 1.17119e-06 1.08002e-06 7.29135e-06 4.13038e-06 2.32754e-06 6.18868e-06 3.52019e-06 1.97795e-06 1.36066e-06 9.34193e-07
          1.12425e-06 7.11219e-07 4.17527e-05 3.14076e-05 2.12792e-05 2.41036e-05 1.96717e-05 1.42292e-05 1.3579e-05 8.30333e-06 9.52405e-06 6.03592e-06
          1.40327e-05 8.60062e-06 1.19968e-05 9.1383e-06 7.57813e-06 6.23646e-06 5.59432e-06 6.40705e-06 6.0137e-06 4.39616e-06 4.22468e-06 3.01311e-06
          4.5594e-06 3.43039e-06 2.41667e-06 4.91184e-06 2.82762e-06 1.58476e-06 3.67042e-06 2.15572e-06 1.21659e-06 1.60126e-06 8.42114e-07 3.29343e-07
          6.27057e-07 9.18186e-07 4.71317e-07 2.0537e-07 1.46946e-07 2.6557e-06 1.95974e-06 1.21548e-06 1.61082e-06 1.01977e-06 7.11171e-07 3.68039e-07
          1.13751e-07 6.05888e-07 3.16281e-07 9.7867e-08
        </DataArray>
        <DataArray type="Float32" Name="X^H2O_liq" NumberOfComponents="1" format="ascii">
          0.999866 0.999905 0.999937 0.999866 0.999906 0.999938 0.999961 0.999976 0.999961 0.999977 0.999978 0.999868
          0.999872 0.999909 0.999941 0.999915 0.999946 0.999886 0.999928 0.999955 0.999963 0.999967 0.99998 0.999972
          0.999983 0.999986 0.999992 0.999996 0.999987 0.999987 0.999992 0.999996 0.999993 0.999996 0.999997 0.999998
          0.999997 0.999998 0.999998 0.999998 0.999989 0.999994 0.999996 0.99999 0.999995 0.999997 0.999998 0.999999
          0.999998 0.999999 0.999935 0.999951 0.999967 0.999963 0.999969 0.999978 0.999979 0.999987 0.999985 0.999991
          0.999978 0.999987 0.999981 0.999986 0.999988 0.99999 0.999991 0.99999 0.999991 0.999993 0.999993 0.999995
          0.999993 0.999995 0.999996 0.999992 0.999996 0.999998 0.999994 0.999997 0.999998 0.999997 0.999999 0.999999
          0.999999 0.999999 0.999999 1 1 0.999996 0.999997 0.999998 0.999997 0.999998 0.999999 0.999999
          1 0.999999 1 1
        </DataArray>
        <DataArray type="Float32" Name="X^N2_liq" NumberOfComponents="1" format="ascii">
          0.000134208 9.47805e-05 6.28141e-05 0.000133709 9.37219e-05 6.17077e-05 3.94822e-05 2.37765e-05 3.85918e-05 2.31562e-05 2.18169e-05 0.000132228
          0.000128001 9.0956e-05 5.90515e-05 8.48232e-05 5.39464e-05 0.000114444 7.20444e-05 4.52945e-05 3.65814e-05 3.30681e-05 1.96252e-05 2.77857e-05
          1.65663e-05 1.38482e-05 7.88517e-06 4.47612e-06 1.34532e-05 1.26277e-05 7.64665e-06 4.3337e-06 7.15968e-06 4.04675e-06 2.66615e-06 1.89001e-06
          2.57563e-06 2.39271e-06 1.82119e-06 1.67942e-06 1.13379e-05 6.42268e-06 3.6193e-06 9.6233e-06 5.47384e-06 3.07569e-06 2.1158e-06 1.45266e-06
          1.7482e-06 1.10594e-06 6.49234e-05 4.88376e-05 3.30886e-05 3.74804e-05 3.0589e-05 2.21261e-05 2.1115e-05 1.29115e-05 1.48097e-05 9.38576e-06
          2.18205e-05 1.33738e-05 1.86547e-05 1.42099e-05 1.17838e-05 9.69759e-06 8.69907e-06 9.96285e-06 9.35121e-06 6.83597e-06 6.56932e-06 4.68535e-06
          7.0898e-06 5.3342e-06 3.75789e-06 7.63784e-06 4.39691e-06 2.46429e-06 5.70744e-06 3.35211e-06 1.89178e-06 2.48994e-06 1.30948e-06 5.12124e-07
          9.75066e-07 1.42777e-06 7.32893e-07 3.19348e-07 2.28499e-07 4.12957e-06 3.04737e-06 1.89005e-06 2.5048e-06 1.58574e-06 1.10586e-06 5.72297e-07
          1.76881e-07 9.42148e-07 4.91814e-07 1.52182e-07
        </DataArray>
        <DataArray type="Float32" Name="process rank" NumberOfComponents="1" format="ascii">
          0 0 0 0 0 0 0 0 0 0 0 0
          0 0 0 0 0 0 0 0 0 0 0 0
          0 0 0 0 0 0 0 0 0 0 0 0
          0 0 0 0 0 0 0 0 0 0 0 0
          0 0 0 0 0 0 0 0 0 0 0 0
          0 0 0 0 0 0 0 0 0 0 0 0
          0 0 0 0 0 0 0 0 0 0 0 0
          0 0 0 0 0 0 0 0 0 0 0 0
          0 0 0 0
        </DataArray>
      </CellData>
      <Points>
        <DataArray type="Float32" Name="Coordinates" NumberOfComponents="3" format="ascii">
          -0.4 -0.5 0 -0.4 -0.4 0 -0.5 -0.5 0 -0.5 -0.4 0
          -0.3 -0.5 0 -0.3 -0.4 0 -0.2 -0.5 0 -0.2 -0.4 0
          -0.4 -0.3 0 -0.5 -0.3 0 -0.3 -0.3 0 -0.2 -0.3 0
          -0.1 -0.5 0 -0.1 -0.4 0 -1.37512e-12 -0.5 0 -1.37512e-12 -0.4 0
          -0.1 -0.3 0 -1.37512e-12 -0.3 0 -1.37512e-12 -0.2 0 -0.1 -0.2 0
          -0.4 -0.2 0 -0.5 -0.2 0 -0.4 -0.1 0 -0.5 -0.1 0
          -0.3 -0.2 0 -0.2 -0.2 0 -0.3 -0.1 0 -0.2 -0.1 0
          -0.4 0 0 -0.5 0 0 -0.3 0 0 -0.2 0 0
          -0.1 -0.1 0 -1.37511e-12 -0.1 0 -0.1 0 0 -1.37512e-12 0 0
          0.1 -0.5 0 0.1 -0.4 0 0.2 -0.5 0 0.2 -0.4 0
          0.3 -0.5 0 0.3 -0.4 0 0.1 -0.3 0 0.1 -0.2 0
          0.2 -0.3 0 0.3 -0.3 0 0.2 -0.2 0 0.3 -0.2 0
          0.4 -0.5 0 0.4 -0.4 0 0.5 -0.5 0 0.5 -0.4 0
          0.4 -0.3 0 0.4 -0.2 0 0.5 -0.3 0 0.5 -0.2 0
          0.1 -0.1 0 0.2 -0.1 0 0.3 -0.1 0 0.1 0 0
          0.2 0 0 0.3 0 0 0.4 -0.1 0 0.5 -0.1 0
          0.4 0 0 0.5 0 0 -0.4 0.1 0 -0.5 0.1 0
          -0.3 0.1 0 -0.2 0.1 0 -0.4 0.2 0 -0.5 0.2 0
          -0.3 0.2 0 -0.2 0.2 0 -0.1 0.1 0 -8.2509e-13 0.1 0
          -0.1 0.2 0 -2.7503e-13 0.2 0 -0.4 0.3 0 -0.5 0.3 0
          -0.4 0.4 0 -0.5 0.4 0 -0.3 0.3 0 -0.2 0.3 0
          -0.3 0.4 0 -0.4 0.5 0 -0.5 0.5 0 -0.3 0.5 0
          -0.1 0.3 0 -0.2 0.4 0 -0.1 0.4 0 2.75002e-13 0.3 0
          8.25048e-13 0.4 0 -0.2 0.5 0 -0.1 0.5 0 1.37512e-12 0.5 0
          0.1 0.1 0 0.2 0.1 0 0.3 0.1 0 0.1 0.2 0
          0.2 0.2 0 0.3 0.2 0 0.2 0.3 0 0.1 0.3 0
          0.4 0.1 0 0.5 0.1 0 0.4 0.2 0 0.3 0.3 0
          0.4 0.3 0 0.5 0.2 0 0.5 0.3 0 0.1 0.4 0
          0.2 0.4 0 0.1 0.5 0 0.2 0.5 0 0.3 0.4 0
          0.4 0.4 0 0.5 0.4 0 0.3 0.5 0 0.4 0.5 0
          0.5 0.5 0
        </DataArray>
      </Points>
      <Cells>
        <DataArray type="Int32" Name="connectivity" NumberOfComponents="1" format="ascii">
          0 1 3 2 4 5 1 0 6 7 5 4
          1 8 9 3 5 10 8 1 7 11 10 5
          12 13 7 6 14 15 13 12 13 16 11 7
          15 17 16 13 17 18 19 16 8 20 21 9
          20 22 23 21 10 24 20 8 11 25 24 10
          24 26 22 20 25 27 26 24 22 28 29 23
          26 30 28 22 27 31 30 26 16 19 25 11
          19 32 27 25 18 33 32 19 32 34 31 27
          33 35 34 32 36 37 15 14 38 39 37 36
          40 41 39 38 37 42 17 15 42 43 18 17
          39 44 42 37 41 45 44 39 44 46 43 42
          45 47 46 44 48 49 41 40 50 51 49 48
          49 52 45 41 52 53 47 45 51 54 52 49
          54 55 53 52 43 56 33 18 46 57 56 43
          47 58 57 46 56 59 35 33 57 60 59 56
          58 61 60 57 53 62 58 47 55 63 62 53
          62 64 61 58 63 65 64 62 28 66 67 29
          30 68 66 28 31 69 68 30 66 70 71 67
          68 72 70 66 69 73 72 68 34 74 69 31
          35 75 74 34 74 76 73 69 75 77 76 74
          70 78 79 71 78 80 81 79 72 82 78 70
          73 83 82 72 82 84 80 78 80 85 86 81
          84 87 85 80 76 88 83 73 83 89 84 82
          88 90 89 83 77 91 88 76 91 92 90 88
          89 93 87 84 90 94 93 89 92 95 94 90
          59 96 75 35 60 97 96 59 61 98 97 60
          96 99 77 75 97 100 99 96 98 101 100 97
          100 102 103 99 64 104 98 61 65 105 104 64
          104 106 101 98 101 107 102 100 106 108 107 101
          105 109 106 104 109 110 108 106 99 103 91 77
          103 111 92 91 102 112 111 103 111 113 95 92
          112 114 113 111 107 115 112 102 108 116 115 107
          110 117 116 108 115 118 114 112 116 119 118 115
          117 120 119 116
        </DataArray>
        <DataArray type="Int32" Name="offsets" NumberOfComponents="1" format="ascii">
          4 8 12 16 20 24 28 32 36 40 44 48
          52 56 60 64 68 72 76 80 84 88 92 96
          100 104 108 112 116 120 124 128 132 136 140 144
          148 152 156 160 164 168 172 176 180 184 188 192
          196 200 204 208 212 216 220 224 228 232 236 240
          244 248 252 256 260 264 268 272 276 280 284 288
          292 296 300 304 308 312 316 320 324 328 332 336
          340 344 348 352 356 360 364 368 372 376 380 384
          388 392 396 400
        </DataArray>
        <DataArray type="UInt8" Name="types" NumberOfComponents="1" format="ascii">
          9 9 9 9 9 9 9 9 9 9 9 9
          9 9 9 9 9 9 9 9 9 9 9 9
          9 9 9 9 9 9 9 9 9 9 9 9
          9 9 9 9 9 9 9 9 9 9 9 9
          9 9 9 9 9 9 9 9 9 9 9 9
          9 9 9 9 9 9 9 9 9 9 9 9
          9 9 9 9 9 9 9 9 9 9 9 9
          9 9 9 9 9 9 9 9 9 9 9 9
          9 9 9 9
        </DataArray>
      </Cells>
    </Piece>
  </UnstructuredGrid>
</VTKFile>
