<?xml version="1.0"?>
<VTKFile type="UnstructuredGrid" version="0.1" byte_order="LittleEndian">
  <UnstructuredGrid>
    <Piece NumberOfCells="1927" NumberOfPoints="526">
      <CellData Scalars="p">
        <DataArray type="Float32" Name="p" NumberOfComponents="1" format="ascii">
          1.94354 1.97383 1.91319 1.97037 1.90512 1.96467 1.97884 1.95318 1.93416 1.91683 1.84436 1.76348
          1.80603 1.84248 1.8054 1.88015 1.83321 1.76886 1.85982 1.8048 1.94334 1.91187 1.96464 1.98379
          1.93172 1.95743 1.95805 1.95741 1.96579 1.8108 1.86884 1.76046 1.8481 1.79301 1.95134 1.96701
          1.98212 1.91341 1.90571 1.93346 1.96888 1.95798 1.93378 1.94428 1.91735 1.84261 1.85363 1.82901
          1.76457 1.88529 1.85153 1.85115 1.8146 1.80437 1.9501 1.92645 1.94887 1.96559 1.92689 1.9424
          1.89578 1.74719 1.88166 1.80221 1.80138 1.88017 1.68814 1.64639 1.61498 1.72572 1.64845 1.68916
          1.6791 1.63064 1.71602 1.57914 1.54717 1.57424 1.54396 1.58952 1.55359 1.71741 1.68604 1.63856
          1.70694 1.70522 1.54147 1.57096 1.55711 1.50611 1.51247 1.59619 1.54041 1.64274 1.70879 1.73804
          1.71767 1.65228 1.66618 1.52378 1.63361 1.56364 1.59836 1.55553 1.62525 1.71821 1.66243 1.68143
          1.73033 1.68239 1.65423 1.61194 1.57078 1.96184 1.91116 1.94477 1.96935 1.89585 1.95347 1.91939
          1.91919 1.92859 1.91142 1.89979 1.82468 1.82369 1.76286 1.87872 1.73441 1.79323 1.73798 1.94893
          1.91898 1.96816 1.94549 1.91246 1.96829 1.9528 1.90982 1.89288 1.83154 1.77672 1.87552 1.78547
          1.88847 1.82197 1.88476 1.77551 1.91363 1.95797 1.95337 1.91113 1.88568 1.763 1.8633 1.85735
          1.76298 1.94247 1.90444 1.89078 1.96895 1.95439 1.91655 1.96063 1.87406 1.77392 1.63658 1.69492
          1.67299 1.72055 1.64912 1.68779 1.6621 1.68507 1.66184 1.62206 1.62779 1.55303 1.51241 1.68195
          1.74511 1.68326 1.70461 1.67153 1.61488 1.54806 1.63737 1.61693 1.56967 1.53914 1.69895 1.61287
          1.68504 1.61296 1.64901 1.5821 1.67298 1.59754 1.53566 1.56186 1.53348 1.58144 1.52677 1.54599
          1.55693 1.53164 1.5355 1.52371 1.64234 1.62944 1.64557 1.58659 1.5566 1.53476 1.53 1.65094
          1.5915 1.53154 1.57641 1.54076 1.56234 1.51659 1.51363 1.54942 1.53111 1.52197 1.52881 1.52325
          1.51845 1.50973 1.51411 1.50813 1.98583 1.96814 1.94901 1.94533 1.91907 1.96949 1.94493 1.96188
          1.8968 1.91171 1.87606 1.778 1.83279 1.89334 1.7868 1.76354 1.82379 1.82504 1.89971 1.96722
          1.95145 1.91111 1.90567 1.95222 1.91888 1.91752 1.92691 1.90859 1.77697 1.87785 1.88586 1.81998
          1.73342 1.87616 1.73991 1.79206 1.98345 1.96344 1.94095 1.92969 1.90871 1.96753 1.93678 1.90684
          1.96683 1.89239 1.87195 1.82692 1.76458 1.84899 1.79385 1.83872 1.7609 1.8022 1.83586 1.80224
          1.96412 1.95587 1.95263 1.95401 1.93652 1.90145 1.96011 1.98049 1.92376 1.80901 1.85446 1.7742
          1.81727 1.74608 1.68561 1.64727 1.68986 1.60925 1.63789 1.5262 1.6218 1.55873 1.62517 1.516
          1.67558 1.70725 1.68656 1.68569 1.65718 1.66641 1.61913 1.56761 1.51109 1.57679 1.51354 1.63202
          1.67521 1.71514 1.68779 1.64808 1.61659 1.72736 1.6487 1.69033 1.56764 1.53618 1.56067 1.58097
          1.55099 1.50683 1.57624 1.54425 1.7035 1.71415 1.72392 1.69335 1.64886 1.55959 1.57183 1.58587
          1.93825 1.89613 1.95432 1.9471 1.90924 1.85052 1.7822 1.64671 1.8784 1.75245 1.85313 1.88057
          1.93658 1.9055 1.91314 1.77824 1.73874 1.721 1.68923 1.80606 1.84271 1.8196 1.83479 1.95097
          1.92265 1.95183 1.94847 1.89177 1.90371 1.96557 1.98209 1.93259 1.80006 1.75863 1.82415 1.83058
          1.79216 1.94587 1.93081 1.96692 1.89202 1.97226 1.92623 1.94983 1.9639 1.94435 1.88292 1.79001
          1.87474 1.82398 1.90995 1.81879 1.58929 1.64855 1.64795 1.63722 1.537 1.5594 1.53137 1.68752
          1.6157 1.69949 1.60862 1.5333 1.5585 1.54466 1.52468 1.57556 1.57437 1.66129 1.59538 1.56468
          1.57477 1.54089 1.51375 1.51676 1.53221 1.68358 1.64306 1.60166 1.56428 1.53423 1.5357 1.58156
          1.51607 1.52332 1.50588 1.51394 1.50722 1.50504 1.55376 1.52386 1.54192 1.5314 1.71994 1.67104
          1.71931 1.72809 1.66011 1.57907 1.5157 1.51764 1.63889 1.63402 1.56763 1.5205 1.73675 1.66997
          1.70001 1.6466 1.69522 1.55484 1.59638 1.52257 1.59977 1.60835 1.495 1.44282 1.41445 1.44182
          1.41792 1.45086 1.42534 1.4839 1.43601 1.38441 1.35798 1.31476 1.309 1.36489 1.34284 1.36201
          1.31871 1.28136 1.25441 1.48407 1.49388 1.44886 1.43047 1.46841 1.48439 1.45834 1.28586 1.34506
          1.38082 1.2993 1.35704 1.28926 1.47789 1.45333 1.43035 1.51513 1.40969 1.39778 1.37103 1.33491
          1.27631 1.35328 1.38193 1.26614 1.47063 1.40659 1.41389 1.43414 1.45793 1.45952 1.41973 1.46515
          1.29363 1.34789 1.33807 1.33012 1.24441 1.20468 1.16783 1.26603 1.17171 1.20648 1.21249 1.20407
          1.14317 1.25129 1.17128 1.09589 1.06417 1.03313 1.09816 1.03383 1.06096 1.01555 1.03694 1.09184
          1.11056 1.07013 1.26825 1.19035 1.14908 1.26453 1.27236 1.20934 1.21826 1.24345 1.09259 1.06713
          1.03472 1.06245 1.02962 1.03424 1.02188 1.04052 1.05941 1.07518 1.02993 1.21465 1.24922 1.16348
          1.22224 1.16257 1.24873 1.2412 1.18036 1.03129 1.04401 1.02925 1.11285 1.0831 1.08095 1.09433
          1.06361 1.04163 1.0696 1.22291 1.2164 1.12676 1.26451 1.2406 1.05819 1.09612 1.04236 1.02717
          1.02434 1.04483 1.48755 1.46546 1.49828 1.40168 1.4922 1.4586 1.47676 1.41221 1.40922 1.35539
          1.30462 1.345 1.30936 1.35 1.34173 1.27697 1.47903 1.42809 1.37743 1.39988 1.49733 1.47588
          1.2773 1.33605 1.24753 1.27753 1.33791 1.40807 1.38028 1.30026 1.29878 1.37048 1.50253 1.43808
          1.40911 1.43898 1.47581 1.49176 1.5068 1.44646 1.47779 1.33935 1.27279 1.42755 1.41024 1.402
          1.29973 1.37333 1.4554 1.39455 1.43607 1.44555 1.45541 1.49193 1.50595 1.47979 1.47487 1.50148
          1.50599 1.48718 1.4773 1.50579 1.47592 1.4968 1.50199 1.45659 1.43212 1.41421 1.43259 1.45518
          1.39755 1.42898 1.49483 1.49616 1.46317 1.42513 1.16489 1.21582 1.21748 1.2608 1.19683 1.09849
          1.26103 1.10537 1.05333 1.09926 1.06584 1.03497 1.02188 1.07641 1.05602 1.08663 1.05761 1.23986
          1.18593 1.1383 1.13339 1.14153 1.07916 1.05021 1.03672 1.05863 1.08008 1.02314 1.04239 1.05716
          1.08802 1.03355 1.13935 1.23994 1.14416 1.32369 1.21758 1.16126 1.07962 1.04963 1.10793 1.05819
          1.08371 1.11912 1.06321 1.25214 1.3 1.17196 1.20265 1.18689 1.1785 1.32524 1.2246 1.26153
          1.31399 1.2843 1.12462 1.1518 1.0979 1.06686 1.48187 1.43811 1.42132 1.48821 1.43933 1.28699
          1.27311 1.30655 1.36151 1.33976 1.37693 1.39267 1.36162 1.31296 1.47069 1.52017 1.51622 1.48286
          1.45731 1.37455 1.31027 1.35027 1.31477 1.32616 1.47306 1.45506 1.46204 1.42528 1.44757 1.47909
          1.25963 1.30542 1.36984 1.32087 1.27636 1.26091 1.29588 1.42319 1.41075 1.42814 1.49413 1.46475
          1.33161 1.27136 1.30915 1.21252 1.18455 1.20316 1.15341 1.15984 1.19949 1.16041 1.16494 1.26474
          1.04603 1.02225 1.03079 1.10143 1.08772 1.05833 1.01719 1.03096 1.04783 1.05974 1.08711 1.09538
          1.20108 1.13189 1.26733 1.21027 1.12333 1.07093 1.04934 1.08783 1.04737 1.07632 1.04927 1.04932
          1.21736 1.15687 1.11629 1.19955 1.14249 1.21272 1.17766 1.14302 1.18153 1.14579 1.04511 1.02054
          1.03336 1.0801 1.06116 1.0784 1.02346 1.04987 1.08291 1.02396 1.22183 1.18132 1.14092 1.1825
          1.0468 1.0416 1.04392 1.04917 1.0665 1.03643 1.09293 1.05047 1.02047 1.48867 1.44512 1.50283
          1.47102 1.42205 1.41608 1.44578 1.40047 1.47399 1.4295 1.36551 1.29987 1.28914 1.49829 1.47932
          1.50247 1.50183 1.49495 1.46749 1.4365 1.50431 1.4871 1.47874 1.47992 1.45802 1.4223 1.49342
          1.49691 1.48327 1.48052 1.43242 1.46918 1.45353 1.46593 1.36506 1.47055 1.43293 1.42887 1.45792
          1.49242 1.44589 1.33074 1.35798 1.36817 1.39881 1.33966 1.38067 1.27928 1.51359 1.47908 1.51465
          1.46845 1.48249 1.43921 1.42233 1.37681 1.37009 1.35155 1.23939 1.29349 1.24684 1.24536 1.14512
          1.22604 1.29121 1.1473 1.2559 1.12907 1.08894 1.04814 1.04336 1.29007 1.33879 1.29584 1.34401
          1.3171 1.298 1.12479 1.21449 1.08564 1.04868 1.03215 1.03877 1.06165 1.10687 1.10036 1.21666
          1.26361 1.12455 1.17924 1.11374 1.20402 1.16655 1.0874 1.08717 1.06528 1.06529 1.08658 1.03785
          1.09845 1.05311 1.0306 1.19398 1.11189 1.24844 1.12434 1.18724 1.09476 1.15333 1.22672 1.10929
          1.09243 1.08046 1.04111 1.02476 1.05727 1.06827 1.03314 1.0428 1.0127 1.98578 1.9577 1.93332
          1.96865 1.944 1.91455 1.9693 1.95203 1.90079 1.9189 1.88399 1.84911 1.8014 1.84787 1.81074
          1.86602 1.79709 1.98174 1.96592 1.93079 1.95006 1.911 1.90346 1.93877 1.94584 1.92279 1.85041
          1.82495 1.75826 1.83976 1.87809 1.74075 1.79976 1.91813 1.9389 1.90731 1.88645 1.85762 1.84074
          1.8349 1.84015 1.80873 1.78248 1.68646 1.72874 1.94798 1.90233 1.95661 1.93985 1.89624 1.75619
          1.84541 1.7644 1.64161 1.71518 1.73379 1.64862 1.7003 1.6546 1.67584 1.72376 1.64524 1.58298
          1.61544 1.53588 1.60332 1.54902 1.52602 1.62754 1.64237 1.71001 1.67103 1.61251 1.56908 1.52525
          1.59854 1.58024 1.55254 1.53255 1.52859 1.68274 1.64427 1.54006 1.57388 1.56272 1.51352 1.51685
          1.59521 1.65968 1.53242 1.52668 1.54471 1.5299 1.51998 1.51432 1.50811 1.52379 1.52028 1.50961
          1.69917 1.60126 1.68572 1.6084 1.63679 1.64578 1.56991 1.53606 1.53773 1.64297 1.58709 1.5565
          1.54558 1.56513 1.51379 1.53386 1.55513 1.51859 1.97879 1.95375 1.91684 1.96632 1.9376 1.95329
          1.95766 1.95717 1.95319 1.8572 1.80231 1.87707 1.82452 1.77195 1.97708 1.91884 1.95177 1.97705
          1.92417 1.93696 1.91536 1.96616 1.98133 1.95401 1.85902 1.82394 1.86164 1.82795 1.79404 1.87656
          1.84912 1.83663 1.80356 1.93949 1.91839 1.93982 1.91904 1.91379 1.96154 1.97694 1.92604 1.88233
          1.79708 1.73895 1.75025 1.89808 1.88285 1.82837 1.78869 1.92091 1.91017 1.96538 1.95144 1.97198
          1.96938 1.94746 1.96025 1.98807 1.9372 1.8961 1.83661 1.84762 1.81275 1.9138 1.86182 1.80198
          1.89968 1.83 1.69285 1.72809 1.65623 1.66088 1.55637 1.537 1.6054 1.56022 1.51591 1.61305
          1.70514 1.74584 1.66181 1.73237 1.69057 1.65023 1.70606 1.75564 1.59343 1.55953 1.60454 1.57126
          1.56664 1.55772 1.65312 1.6838 1.6757 1.68445 1.65426 1.52687 1.52514 1.54646 1.65373 1.67745
          1.74104 1.64044 1.74383 1.78299 1.78061 1.62312 1.57707 1.52392 1.59498 1.58101 1.53928 1.95925
          1.95425 1.96851 1.91539 1.88652 1.90203 1.94288 1.65706 1.68688 1.76955 1.63565 1.87084 1.88342
          1.91063 1.95399 1.95992 1.91815 1.85487 1.756 1.86204 1.88514 1.75669 1.97713 1.96288 1.91639
          1.92988 1.97009 1.98532 1.95792 1.93907 1.95103 1.88548 1.79012 1.90107 1.83066 1.90309 1.80405
          1.86569 1.9218 1.8325 1.94187 1.94175 1.92142 1.91986 1.97669 1.96421 1.92877 1.94894 1.90458
          1.74094 1.88608 1.8021 1.75459 1.84174 1.81194 1.89395 1.83228 1.57155 1.53862 1.51329 1.51623
          1.5307 1.58899 1.64662 1.55898 1.56609 1.53463 1.53685 1.58683 1.6293 1.64214 1.64453 1.51375
          1.50805 1.52229 1.50956 1.51796 1.53145 1.5554 1.52352 1.53536 1.59152 1.66778 1.54937 1.52729
          1.53157 1.57612 1.63787 1.68502 1.61307 1.69444 1.60535 1.52119 1.52709 1.54649 1.53029 1.58274
          1.54693 1.5288 1.68765 1.67865 1.65919 1.7458 1.78294 1.78585 1.56058 1.59963 1.58991 1.55092
          1.69142 1.65792 1.67235 1.74494 1.6847 1.65183 1.64189 1.56809 1.52494 1.9482 1.89766 1.96897
          1.93101 1.95515 1.92432 1.95219 1.88461 1.79003 1.80756 1.76622 1.95866 1.92186 1.93908 1.97603
          1.9626 1.93164 1.89358 1.90435 1.97911 1.96435 1.94813 1.87206 1.81789 1.90513 1.82383 1.82822
          1.83326 1.79422 1.95199 1.95177 1.95167 1.95144 1.98077 1.96131 1.92595 1.93874 1.90528 1.82596
          1.86472 1.83147 1.78323 1.92426 1.90263 1.96042 1.98053 1.9372 1.96741 1.89285 1.96712 1.93728
          1.90827 1.82172 1.85751 1.81395 1.78047 1.83961 1.80753 1.84247 1.8071 1.76678 1.66849 1.73492
          1.69948 1.72071 1.72371 1.68292 1.53536 1.56027 1.69379 1.6479 1.72823 1.66544 1.60291 1.54468
          1.61606 1.60765 1.64353 1.63677 1.56202 1.51795 1.71802 1.72582 1.63897 1.72742 1.68893 1.60352
          1.54499 1.51686 1.59499 1.55943 1.73365 1.65209 1.70039 1.73688 1.65717 1.69955 1.69538 1.65406
          1.62212 1.51177 1.56656 1.58048 1.54888 1.58095 1.55035 1.58582 1.55335 1.4999 1.48109 1.4182
          1.39318 1.43206 1.47048 1.4361 1.46444 1.34721 1.37842 1.26674 1.48771 1.47048 1.44548 1.42221
          1.43908 1.43116 1.3487 1.2819 1.38858 1.36881 1.37367 1.3095 1.50469 1.48393 1.48805 1.46335
          1.50489 1.5013 1.49461 1.49996 1.50506 1.48325 1.48674 1.43685 1.4762 1.47712 1.44678 1.42202
          1.39064 1.31668 1.34774 1.49672 1.49294 1.43261 1.46854 1.4768 1.4475 1.41637 1.35425 1.49795
          1.47854 1.44722 1.50538 1.47604 1.49388 1.45002 1.4241 1.27475 1.39419 1.3738 1.33228 1.47713
          1.45819 1.47504 1.33704 1.42704 1.40414 1.44269 1.2126 1.13746 1.20065 1.24481 1.23625 1.24573
          1.06027 1.0816 1.0576 1.03694 1.02477 1.04479 1.02345 1.16685 1.25689 1.22218 1.22573 1.21722
          1.12542 1.08235 1.02749 1.04299 1.08183 1.11555 1.03111 1.05915 1.04194 1.09863 1.23974 1.14292
          1.14882 1.34841 1.32162 1.12339 1.13517 1.0651 1.08174 1.04492 1.08014 1.03084 1.04378 1.25702
          1.12943 1.2693 1.20028 1.28808 1.12806 1.07755 1.04435 1.04582 1.07632 1.11581 1.10849 1.08532
          1.48611 1.44383 1.4859 1.46475 1.44523 1.47178 1.48162 1.44702 1.38557 1.31063 1.27586 1.3489
          1.30547 1.38166 1.33627 1.47155 1.53027 1.48985 1.49627 1.46181 1.4739 1.50052 1.44239 1.50107
          1.45153 1.38722 1.35111 1.42284 1.38837 1.34544 1.37609 1.39821 1.35613 1.29672 1.46513 1.45311
          1.48798 1.48485 1.46625 1.45985 1.37757 1.28291 1.31093 1.40507 1.31016 1.38537 1.49017 1.45697
          1.46036 1.49549 1.45898 1.42853 1.44311 1.40303 1.34803 1.41031 1.38812 1.29668 1.30825 1.32902
          1.22234 1.17399 1.2789 1.23072 1.14005 1.19139 1.11432 1.01549 1.03682 1.09042 1.06001 1.07081
          1.08507 1.04606 1.03566 1.02206 1.03637 1.25694 1.19752 1.20372 1.25487 1.16398 1.16522 1.28171
          1.25841 1.19288 1.25799 1.25189 1.18162 1.13751 1.19026 1.0945 1.03217 1.09312 1.06197 1.03237
          1.03103 1.08333 1.06234 1.05267 1.02434 1.27434 1.12336 1.11929 1.2551 1.20408 1.09433 1.03194
          1.06193 1.03571 1.09317 1.0342 1.0797 1.04358 1.22431 1.26407 1.15766 1.19184 1.24358 1.15279
          1.27777 1.16284 1.07884 1.05125 1.07468 1.04089 1.02744 1.01674 1.0559 1.09068 1.10267 1.03117
          1.04645 1.50595 1.502 1.49674 1.47713 1.50575 1.50142 1.47537 1.48695 1.50683 1.49203 1.47813
          1.47654 1.44737 1.49603 1.49472 1.46187 1.4228 1.45395 1.42554 1.39121 1.41145 1.43397 1.39156
          1.45476 1.41334 1.42908 1.37433 1.50597 1.47457 1.48008 1.45565 1.49265 1.44707 1.50332 1.43934
          1.41058 1.4401 1.4558 1.43048 1.41459 1.43179 1.2963 1.34125 1.27265 1.46594 1.45764 1.42137
          1.45913 1.40363 1.41339 1.51087 1.34729 1.26774 1.293 1.35225 1.38635 1.43546 1.40783 1.47351
          1.41531 1.45508 1.47906 1.43159 1.27956 1.34824 1.29125 1.3364 1.27748 1.35379 1.3715 1.28163
          1.31203 1.21264 1.26323 1.31217 1.14707 1.15576 1.16578 1.28452 1.16976 1.0908 1.05966 1.13844
          1.10984 1.0858 1.23231 1.32434 1.15018 1.25678 1.24604 1.13483 1.10516 1.06067 1.09359 1.05265
          1.04417 1.12349 1.23504 1.23674 1.20352 1.09944 1.23551 1.19321 1.14026 1.10566 1.03339 1.0671
          1.04482 1.06278 1.04329 1.02494 1.0786 1.03853 1.25151 1.15029 1.23898 1.18691 1.20003 1.03948
          1.0416 1.10277 1.06951 1.06766 1.02139 1.03622 1.09734 1.09443 1.05352 1.47843 1.49785 1.47805
          1.40969 1.46067 1.49622 1.41264 1.38264 1.37844 1.40995 1.35535 1.33916 1.34646 1.38242 1.48295
          1.4211 1.43691 1.46827 1.50088 1.49203 1.40316 1.36528 1.3032 1.28196 1.35213 1.29167 1.34281
          1.30245 1.48807 1.47225 1.46138 1.42708 1.48786 1.43943 1.45386 1.35629 1.30193 1.36171 1.27846
          1.31674 1.49918 1.48876 1.43303 1.45261 1.44549 1.42108 1.44644 1.41734 1.26751 1.27652 1.3813
          1.34724 1.30283 1.34544 1.36724 1.30584 1.38631 1.359 1.31328 1.23687 1.12703 1.25045 1.2224
          1.12823 1.2336 1.08277 1.037 1.03855 1.07999 1.04834 1.10354 1.0594 1.24339 1.14593 1.1869
          1.24 1.18918 1.20357 1.18039 1.06585 1.05431 1.04108 1.08521 1.02174 1.06581 1.10416 1.13214
          1.02296 1.03497 1.05122 1.26231 1.24848 1.24445 1.20225 1.19756 1.24958 1.1476 1.20059 1.09036
          1.04057 1.04918 1.02381 1.03681 1.02842 1.05915 1.08998 1.03371 1.06451 1.22492 1.16697 1.2023
          1.17352 1.13197 1.2571 1.16471 1.20171 1.20002 1.24089 1.16215 1.11922 1.08794 1.07139 1.0375
          1.01892 1.059 1.09303 1.03247 1.09217 1.03172 1.06132
        </DataArray>
        <DataArray type="Float32" Name="process rank" NumberOfComponents="1" format="ascii">
          0 0 0 0 0 0 0 0 0 0 0 0
          0 0 0 0 0 0 0 0 0 0 0 0
          0 0 0 0 0 0 0 0 0 0 0 0
          0 0 0 0 0 0 0 0 0 0 0 0
          0 0 0 0 0 0 0 0 0 0 0 0
          0 0 0 0 0 0 0 0 0 0 0 0
          0 0 0 0 0 0 0 0 0 0 0 0
          0 0 0 0 0 0 0 0 0 0 0 0
          0 0 0 0 0 0 0 0 0 0 0 0
          0 0 0 0 0 0 0 0 0 0 0 0
          0 0 0 0 0 0 0 0 0 0 0 0
          0 0 0 0 0 0 0 0 0 0 0 0
          0 0 0 0 0 0 0 0 0 0 0 0
          0 0 0 0 0 0 0 0 0 0 0 0
          0 0 0 0 0 0 0 0 0 0 0 0
          0 0 0 0 0 0 0 0 0 0 0 0
          0 0 0 0 0 0 0 0 0 0 0 0
          0 0 0 0 0 0 0 0 0 0 0 0
          0 0 0 0 0 0 0 0 0 0 0 0
          0 0 0 0 0 0 0 0 0 0 0 0
          0 0 0 0 0 0 0 0 0 0 0 0
          0 0 0 0 0 0 0 0 0 0 0 0
          0 0 0 0 0 0 0 0 0 0 0 0
          0 0 0 0 0 0 0 0 0 0 0 0
          0 0 0 0 0 0 0 0 0 0 0 0
          0 0 0 0 0 0 0 0 0 0 0 0
          0 0 0 0 0 0 0 0 0 0 0 0
          0 0 0 0 0 0 0 0 0 0 0 0
          0 0 0 0 0 0 0 0 0 0 0 0
          0 0 0 0 0 0 0 0 0 0 0 0
          0 0 0 0 0 0 0 0 0 0 0 0
          0 0 0 0 0 0 0 0 0 0 0 0
          0 0 0 0 0 0 0 0 0 0 0 0
          0 0 0 0 0 0 0 0 0 0 0 0
          0 0 0 0 0 0 0 0 0 0 0 0
          0 0 0 0 0 0 0 0 0 0 0 0
          0 0 0 0 0 0 0 0 0 0 0 0
          0 0 0 0 0 0 0 0 0 0 0 0
          0 0 0 0 0 0 0 0 0 0 0 0
          0 0 0 0 0 0 0 0 0 0 0 0
          0 0 0 0 0 0 0 0 0 0 0 0
          0 0 0 0 0 0 0 0 0 0 0 0
          0 0 0 0 0 0 0 0 0 0 0 0
          0 0 0 0 0 0 0 0 0 0 0 0
          0 0 0 0 0 0 0 0 0 0 0 0
          0 0 0 0 0 0 0 0 0 0 0 0
          0 0 0 0 0 0 0 0 0 0 0 0
          0 0 0 0 0 0 0 0 0 0 0 0
          0 0 0 0 0 0 0 0 0 0 0 0
          0 0 0 0 0 0 0 0 0 0 0 0
          0 0 0 0 0 0 0 0 0 0 0 0
          0 0 0 0 0 0 0 0 0 0 0 0
          0 0 0 0 0 0 0 0 0 0 0 0
          0 0 0 0 0 0 0 0 0 0 0 0
          0 0 0 0 0 0 0 0 0 0 0 0
          0 0 0 0 0 0 0 0 0 0 0 0
          0 0 0 0 0 0 0 0 0 0 0 0
          0 0 0 0 0 0 0 0 0 0 0 0
          0 0 0 0 0 0 0 0 0 0 0 0
          0 0 0 0 0 0 0 0 0 0 0 0
          0 0 0 0 0 0 0 0 0 0 0 0
          0 0 0 0 0 0 0 0 0 0 0 0
          0 0 0 0 0 0 0 0 0 0 0 0
          0 0 0 0 0 0 0 0 0 0 0 0
          0 0 0 0 0 0 0 0 0 0 0 0
          0 0 0 0 0 0 0 0 0 0 0 0
          0 0 0 0 0 0 0 0 0 0 0 0
          0 0 0 0 0 0 0 0 0 0 0 0
          0 0 0 0 0 0 0 0 0 0 0 0
          0 0 0 0 0 0 0 0 0 0 0 0
          0 0 0 0 0 0 0 0 0 0 0 0
          0 0 0 0 0 0 0 0 0 0 0 0
          0 0 0 0 0 0 0 0 0 0 0 0
          0 0 0 0 0 0 0 0 0 0 0 0
          0 0 0 0 0 0 0 0 0 0 0 0
          0 0 0 0 0 0 0 0 0 0 0 0
          0 0 0 0 0 0 0 0 0 0 0 0
          0 0 0 0 0 0 0 0 0 0 0 0
          0 0 0 0 0 0 0 0 0 0 0 0
          0 0 0 0 0 0 0 0 0 0 0 0
          0 0 0 0 0 0 0 0 0 0 0 0
          0 0 0 0 0 0 0 0 0 0 0 0
          0 0 0 0 0 0 0 0 0 0 0 0
          0 0 0 0 0 0 0 0 0 0 0 0
          0 0 0 0 0 0 0 0 0 0 0 0
          0 0 0 0 0 0 0 0 0 0 0 0
          0 0 0 0 0 0 0 0 0 0 0 0
          0 0 0 0 0 0 0 0 0 0 0 0
          0 0 0 0 0 0 0 0 0 0 0 0
          0 0 0 0 0 0 0 0 0 0 0 0
          0 0 0 0 0 0 0 0 0 0 0 0
          0 0 0 0 0 0 0 0 0 0 0 0
          0 0 0 0 0 0 0 0 0 0 0 0
          0 0 0 0 0 0 0 0 0 0 0 0
          0 0 0 0 0 0 0 0 0 0 0 0
          0 0 0 0 0 0 0 0 0 0 0 0
          0 0 0 0 0 0 0 0 0 0 0 0
          0 0 0 0 0 0 0 0 0 0 0 0
          0 0 0 0 0 0 0 0 0 0 0 0
          0 0 0 0 0 0 0 0 0 0 0 0
          0 0 0 0 0 0 0 0 0 0 0 0
          0 0 0 0 0 0 0 0 0 0 0 0
          0 0 0 0 0 0 0 0 0 0 0 0
          0 0 0 0 0 0 0 0 0 0 0 0
          0 0 0 0 0 0 0 0 0 0 0 0
          0 0 0 0 0 0 0 0 0 0 0 0
          0 0 0 0 0 0 0 0 0 0 0 0
          0 0 0 0 0 0 0 0 0 0 0 0
          0 0 0 0 0 0 0 0 0 0 0 0
          0 0 0 0 0 0 0 0 0 0 0 0
          0 0 0 0 0 0 0 0 0 0 0 0
          0 0 0 0 0 0 0 0 0 0 0 0
          0 0 0 0 0 0 0 0 0 0 0 0
          0 0 0 0 0 0 0 0 0 0 0 0
          0 0 0 0 0 0 0 0 0 0 0 0
          0 0 0 0 0 0 0 0 0 0 0 0
          0 0 0 0 0 0 0 0 0 0 0 0
          0 0 0 0 0 0 0 0 0 0 0 0
          0 0 0 0 0 0 0 0 0 0 0 0
          0 0 0 0 0 0 0 0 0 0 0 0
          0 0 0 0 0 0 0 0 0 0 0 0
          0 0 0 0 0 0 0 0 0 0 0 0
          0 0 0 0 0 0 0 0 0 0 0 0
          0 0 0 0 0 0 0 0 0 0 0 0
          0 0 0 0 0 0 0 0 0 0 0 0
          0 0 0 0 0 0 0 0 0 0 0 0
          0 0 0 0 0 0 0 0 0 0 0 0
          0 0 0 0 0 0 0 0 0 0 0 0
          0 0 0 0 0 0 0 0 0 0 0 0
          0 0 0 0 0 0 0 0 0 0 0 0
          0 0 0 0 0 0 0 0 0 0 0 0
          0 0 0 0 0 0 0 0 0 0 0 0
          0 0 0 0 0 0 0 0 0 0 0 0
          0 0 0 0 0 0 0 0 0 0 0 0
          0 0 0 0 0 0 0 0 0 0 0 0
          0 0 0 0 0 0 0 0 0 0 0 0
          0 0 0 0 0 0 0 0 0 0 0 0
          0 0 0 0 0 0 0 0 0 0 0 0
          0 0 0 0 0 0 0 0 0 0 0 0
          0 0 0 0 0 0 0 0 0 0 0 0
          0 0 0 0 0 0 0 0 0 0 0 0
          0 0 0 0 0 0 0 0 0 0 0 0
          0 0 0 0 0 0 0 0 0 0 0 0
          0 0 0 0 0 0 0 0 0 0 0 0
          0 0 0 0 0 0 0 0 0 0 0 0
          0 0 0 0 0 0 0 0 0 0 0 0
          0 0 0 0 0 0 0 0 0 0 0 0
          0 0 0 0 0 0 0 0 0 0 0 0
          0 0 0 0 0 0 0 0 0 0 0 0
          0 0 0 0 0 0 0 0 0 0 0 0
          0 0 0 0 0 0 0 0 0 0 0 0
          0 0 0 0 0 0 0 0 0 0 0 0
          0 0 0 0 0 0 0 0 0 0 0 0
          0 0 0 0 0 0 0 0 0 0 0 0
          0 0 0 0 0 0 0 0 0 0 0 0
          0 0 0 0 0 0 0 0 0 0 0 0
          0 0 0 0 0 0 0 0 0 0 0 0
          0 0 0 0 0 0 0 0 0 0 0 0
          0 0 0 0 0 0 0 0 0 0 0 0
          0 0 0 0 0 0 0 0 0 0 0 0
          0 0 0 0 0 0 0
        </DataArray>
      </CellData>
      <Points>
        <DataArray type="Float32" Name="Coordinates" NumberOfComponents="3" format="ascii">
          0 0.108636 0.108307 0 0 0 0.108636 0.108307 0 0.108307 0 0.108636
          0.142857 0 0 0 0.142857 0 0 0 0.142857 0.180062 0.180062 0.180062
          0.254705 0 0.103211 0.254705 0.103211 0 0.285714 0 0 0.103211 0.254705 0
          0 0.285714 0 0 0.254705 0.103211 0.183029 0.180271 0 0.278892 0.267859 0
          0.35453 0.198466 0.16527 0 0.103211 0.254705 0.103211 0 0.254705 0 0 0.285714
          0.180271 0 0.183029 0.267859 0 0.278892 0 0.183029 0.180271 0 0.278892 0.267859
          0.157751 0.226836 0.361592 0.366074 0.138287 0 0.36792 0 0.144779 0.428571 0 0
          0.500098 0 0.0948026 0.499934 0.0947856 0 0.493544 0.143153 0.143155 0.395584 0.243152 0
          0.460454 0.276453 0.118893 0.5 0.210976 0 0.429321 0 0.324602 0.5 0 0.210976
          0.5 0.25 0.25 0.266351 0.3125 0.266351 0.3125 0.161926 0.355058 0 0.366074 0.138287
          0.144779 0.36792 0 0 0.428571 0 0.163459 0.42943 0.177043 0.325216 0.429937 0
          0.0948051 0.500096 0 0 0.499934 0.0947856 0.210976 0.5 0 0 0.395584 0.243152
          0 0.5 0.210976 0.177053 0.4375 0.352421 0.114939 0.618585 0.235633 0.251909 0.566567 0.251909
          0.350336 0.439967 0.175544 0.437369 0.355488 0 0.574809 0.321174 0 0.501508 0.500333 0
          0.355488 0.562631 0 0.5 0.375 0.25 0.5 0.5 0.25 0.138287 0 0.366074
          0 0.144779 0.36792 0 0 0.428571 0.243152 0 0.395584 0 0.324658 0.429285
          0.25 0.25 0.5 0 0.0948051 0.500096 0.143165 0.143144 0.506458 0.0947856 0 0.499934
          0.210976 0 0.5 0 0.210976 0.5 0.118892 0.276443 0.539542 0.355488 0 0.437369
          0.562631 0 0.355488 0.4375 0.127173 0.4375 0.5 0.25 0.375 0.321119 0 0.574557
          0.5 0 0.5 0.375 0.25 0.5 0.329409 0.326542 0.5 0.5 0.25 0.5
          0.5625 0.127173 0.5625 0 0.437369 0.355488 0.25 0.375 0.5 0 0.574711 0.321021
          0 0.500921 0.499412 0.127427 0.5625 0.436488 0.25 0.5 0.5 0.364917 0.370263 0.364917
          0.5 0.326542 0.329409 0.5 0.425983 0.373141 0.5 0.338542 0.411458 0.352089 0.53675 0.367038
          0.411458 0.338542 0.5 0.373141 0.425983 0.5 0.5 0.375 0.5 0.5 0.5 0.5
          0.571429 0 0 0.633956 0 0.138239 0.632665 0.144406 0 0.714286 0 0
          0.745295 0.103211 0 0.745295 0 0.103211 0.639408 0.224543 0.15223 0.732798 0.278473 0
          0.819894 0.182924 0 0.819937 0.180063 0.180063 0.604529 0 0.242976 0.644949 0.161898 0.3125
          0.721527 0 0.267202 0.733649 0.3125 0.266351 0.857143 0 0 0.891377 0 0.108288
          0.891712 0.108623 0 1 0 0 1 0.108623 0.108288 1 0.142857 0
          1 0 0.142857 0.896789 0.254705 0 1 0.285714 0 1 0.254705 0.103211
          0.817076 0 0.180106 0.896789 0 0.254705 1 0.103211 0.254705 1 0 0.285714
          1 0.182924 0.180106 1 0.278473 0.267202 0.643151 0.418878 0.169148 0.644512 0.437369 0
          0.642383 0.586214 0.171079 0.757024 0.395471 0 0.789024 0.5 0 0.82384 0.432179 0.164423
          0.691775 0.504012 0.308225 0.861761 0.366044 0 1 0.366044 0.138239 1 0.428571 0
          0.905217 0.499933 0 1 0.499902 0.0948026 1 0.571429 0 1 0.395471 0.242976
          1 0.5 0.210976 0.830852 0.418878 0.356849 0.678881 0 0.425443 0.811386 0.184608 0.352456
          0.75 0.25 0.5 0.644512 0 0.562631 0.789024 0 0.5 0.625 0.25 0.5
          0.855594 0 0.367335 1 0.144406 0.367335 1 0 0.428571 1 0.320867 0.425387
          0.856845 0.143156 0.513519 0.905214 0 0.500066 1 0.0947831 0.500067 1 0.210976 0.5
          0.635083 0.370263 0.364917 0.75 0.375 0.5 0.588542 0.338542 0.5 0.626859 0.425983 0.5
          0.670591 0.326542 0.5 0.622608 0.570206 0.5 0.75 0.5 0.5 1 0.437369 0.355488
          0.828921 0.586214 0.357617 1 0.355488 0.562631 1 0.498492 0.499667 0 0.571429 0
          0.138287 0.633926 0 0 0.632665 0.144406 0.218303 0.656653 0.137662 0.243152 0.604416 0
          0 0.714286 0 0 0.745295 0.103211 0.103211 0.745295 0 0.267859 0.721108 0
          0.180271 0.816971 0 0.216706 0.783295 0.216758 0.126175 0.874424 0.164473 0 0.732798 0.278473
          0 0.819894 0.182924 0.429413 0.675419 0 0.5 0.625 0.25 0.562631 0.644512 0
          0.353899 0.6875 0.19206 0.36792 0.855221 0 0.427027 0.864406 0.177607 0.53833 0.727508 0.118443
          0.5 0.75 0.25 0 0.857143 0 0.108307 0.891364 0 0 0.891712 0.108623
          0.254705 0.896789 0 0 1 0 0.108623 1 0.108288 0.142857 1 0
          0 1 0.142857 0.285714 1 0 0.254705 1 0.103211 0 0.896789 0.254705
          0.103211 1 0.254705 0 1 0.285714 0.182924 1 0.180106 0.278473 1 0.267202
          0.5 0.789024 0 0.500098 0.905197 0 0.366044 1 0.138239 0.428571 1 0
          0.499933 1 0.0947831 0.357592 0.839164 0.3125 0.395471 1 0.242976 0.5 1 0.210976
          0.437369 1 0.355488 0.160832 0.6875 0.3576 0.317488 0.675588 0.34495 0 0.644512 0.437369
          0 0.757024 0.395471 0.150824 0.841177 0.398912 0 0.676245 0.571471 0.25 0.625 0.5
          0.25 0.75 0.5 0 0.789024 0.5 0.5 0.570206 0.377392 0.5 0.661125 0.341841
          0.5 0.671266 0.418846 0.5 0.75 0.375 0.341841 0.661125 0.5 0.377392 0.570206 0.5
          0.418846 0.671266 0.5 0.5 0.625 0.5 0.375 0.75 0.5 0.5 0.75 0.5
          0 0.861761 0.366044 0.144406 1 0.367335 0 1 0.428571 0.321174 1 0.425191
          0 0.905197 0.499902 0.177699 0.86447 0.572902 0.0947856 1 0.500066 0 1 0.571429
          0.210976 1 0.5 0.5625 0.872827 0.4375 0.574613 1 0.320867 0.4375 0.872827 0.5625
          0.500333 1 0.498492 0.679133 0.574613 0 0.855594 0.632665 0 0.604529 0.757024 0
          0.721527 0.732798 0 0.748855 0.6875 0.251145 0.645716 0.801954 0.165435 1 0.63208 0.144779
          0.896789 0.745295 0 0.825242 0.825233 0.174767 1 0.714286 0 1 0.745295 0.103211
          1 0.732141 0.278892 0.633956 0.861761 0 0.745295 0.896789 0 0.817076 0.819894 0
          0.571429 1 0 0.632665 1 0.144406 0.714286 1 0 0.745295 1 0.103211
          0.6875 0.835513 0.34886 0.732798 1 0.278473 0.891377 0.891712 0 1 0.857143 0
          1 0.891693 0.108636 0.857143 1 0 0.891712 1 0.108623 1 1 0
          1 1 0.142857 1 0.819729 0.183029 1 0.896789 0.254705 0.819894 1 0.182924
          0.896789 1 0.254705 1 1 0.285714 0.623976 0.698995 0.376024 0.838775 0.770451 0.362177
          0.581154 0.671266 0.5 0.75 0.625 0.5 0.625 0.75 0.5 0.658159 0.661125 0.5
          0.75 0.75 0.5 1 0.570587 0.324581 1 0.644512 0.437369 1 0.756848 0.395584
          1 0.789024 0.5 1 0.674784 0.570063 0.644512 1 0.437369 0.757024 1 0.395471
          0.675419 1 0.570587 0.789024 1 0.5 1 0.861713 0.366074 0.861761 1 0.366044
          1 1 0.428571 0.85684 0.856841 0.485652 1 0.905195 0.499904 0.905197 1 0.499902
          1 1 0.571429 0 0 0.571429 0 0.138287 0.633926 0.144406 0 0.632665
          0.16527 0.198466 0.64547 0 0.243152 0.604416 0 0 0.714286 0.103211 0 0.745295
          0 0.103211 0.745295 0.180062 0.180063 0.819938 0.278473 0 0.732798 0 0.267859 0.721108
          0 0.180271 0.816971 0.355051 0.161898 0.6875 0.266351 0.3125 0.733649 0.437369 0 0.644512
          0.5 0.25 0.625 0.395471 0 0.757024 0.5 0 0.789024 0.5 0.25 0.75
          0.5 0.326542 0.670591 0 0.355488 0.562631 0.175541 0.439967 0.649664 0 0.429962 0.674824
          0 0.562631 0.644512 0 0.36792 0.855221 0 0.5 0.789024 0.364917 0.370263 0.635083