<?xml version="1.0"?>
<VTKFile type="PolyData" version="0.1" byte_order="LittleEndian">
  <PolyData>
    <Piece NumberOfLines="10" NumberOfPoints="11">
      <CellData Scalars="p">
        <DataArray type="Float32" Name="p" NumberOfComponents="1" format="ascii">
          100000 100000 100000 100000 100000 100000 100000 100000 100000 100000
        </DataArray>
        <DataArray type="Float32" Name="rho" NumberOfComponents="1" format="ascii">
          999.701 999.701 999.701 999.701 999.701 999.701 999.701 999.701 999.701 999.701
        </DataArray>
        <DataArray type="Float32" Name="mu" NumberOfComponents="1" format="ascii">
          0.0013059 0.0013059 0.0013059 0.0013059 0.0013059 0.0013059 0.0013059 0.0013059 0.0013059 0.0013059
        </DataArray>
        <DataArray type="Float32" Name="delp" NumberOfComponents="1" format="ascii">
          0 0 0 0 0 0 0 0 0 0
        </DataArray>
        <DataArray type="Float32" Name="x^H2O_liq" NumberOfComponents="1" format="ascii">
          0.999943 0.999961 0.999975 0.999984 0.999991 0.999994 0.999997 0.999998 0.999999 0.999999
        </DataArray>
        <DataArray type="Float32" Name="x^N2_liq" NumberOfComponents="1" format="ascii">
          5.73583e-05 3.89112e-05 2.52356e-05 1.57459e-05 9.49338e-06 5.55991e-06 3.17989e-06 1.78488e-06 9.85086e-07 5.25626e-07
        </DataArray>
        <DataArray type="Float32" Name="X^H2O_liq" NumberOfComponents="1" format="ascii">
          0.999911 0.99994 0.999961 0.999976 0.999985 0.999991 0.999995 0.999997 0.999998 0.999999
        </DataArray>
        <DataArray type="Float32" Name="X^N2_liq" NumberOfComponents="1" format="ascii">
          8.91886e-05 6.05051e-05 3.92405e-05 2.44845e-05 1.4762e-05 8.64557e-06 4.94469e-06 2.77547e-06 1.5318e-06 8.17343e-07
        </DataArray>
        <DataArray type="Float32" Name="process rank" NumberOfComponents="1" format="ascii">
          0 0 0 0 0 0 0 0 0 0
        </DataArray>
      </CellData>
      <Points>
        <DataArray type="Float32" Name="Coordinates" NumberOfComponents="3" format="ascii">
          -0.5 0 0 -0.4 0 0 -0.3 0 0 -0.2 0 0
          -0.1 0 0 -1.37512e-12 0 0 0.1 0 0 0.2 0 0
          0.3 0 0 0.4 0 0 0.5 0 0
        </DataArray>
      </Points>
      <Lines>
        <DataArray type="Int32" Name="connectivity" NumberOfComponents="1" format="ascii">
          0 1 1 2 2 3 3 4 4 5 5 6
          6 7 7 8 8 9 9 10
        </DataArray>
        <DataArray type="Int32" Name="offsets" NumberOfComponents="1" format="ascii">
          2 4 6 8 10 12 14 16 18 20
        </DataArray>
      </Lines>
    </Piece>
  </PolyData>
</VTKFile>
