<?xml version="1.0"?>
<VTKFile type="PolyData" version="0.1" byte_order="LittleEndian">
  <PolyData>
    <Piece NumberOfLines="100" NumberOfPoints="101">
      <PointData Scalars="S_liq">
        <DataArray type="Float32" Name="S_liq" NumberOfComponents="1" format="ascii">
          1 1 1 1 1 1 1 1 1 1 1 1
          1 1 1 1 1 1 1 1 1 1 1 1
          1 1 1 1 1 1 1 1 1 1 1 1
          1 1 1 1 1 1 1 1 1 1 1 1
          1 1 1 1 1 1 1 1 1 1 1 1
          1 1 1 1 1 1 1 1 1 1 1 1
          1 1 1 1 1 1 1 1 1 1 1 1
          1 1 1 1 1 1 1 1 1 1 1 1
          1 1 1 1 1
        </DataArray>
        <DataArray type="Float32" Name="S_gas" NumberOfComponents="1" format="ascii">
          0 0 0 0 0 0 0 0 0 0 0 0
          0 0 0 0 0 0 0 0 0 0 0 0
          0 0 0 0 0 0 0 0 0 0 0 0
          0 0 0 0 0 0 0 0 0 0 0 0
          0 0 0 0 0 0 0 0 0 0 0 0
          0 0 0 0 0 0 0 0 0 0 0 0
          0 0 0 0 0 0 0 0 0 0 0 0
          0 0 0 0 0 0 0 0 0 0 0 0
          0 0 0 0 0
        </DataArray>
        <DataArray type="Float32" Name="p_liq" NumberOfComponents="1" format="ascii">
          4.2e+06 4.159e+06 4.118e+06 4.077e+06 4.036e+06 3.995e+06 3.954e+06 3.913e+06 3.872e+06 3.831e+06 3.79e+06 3.749e+06
          3.708e+06 3.667e+06 3.626e+06 3.585e+06 3.544e+06 3.503e+06 3.462e+06 3.421e+06 3.38e+06 3.339e+06 3.298e+06 3.257e+06
          3.216e+06 3.175e+06 3.134e+06 3.093e+06 3.052e+06 3.011e+06 2.97e+06 2.929e+06 2.888e+06 2.847e+06 2.806e+06 2.765e+06
          2.724e+06 2.683e+06 2.642e+06 2.601e+06 2.56e+06 2.519e+06 2.478e+06 2.437e+06 2.396e+06 2.355e+06 2.314e+06 2.273e+06
          2.232e+06 2.191e+06 2.15e+06 2.109e+06 2.068e+06 2.027e+06 1.986e+06 1.945e+06 1.904e+06 1.863e+06 1.822e+06 1.781e+06
          1.74e+06 1.699e+06 1.658e+06 1.617e+06 1.576e+06 1.535e+06 1.494e+06 1.453e+06 1.412e+06 1.371e+06 1.33e+06 1.289e+06
          1.248e+06 1.207e+06 1.166e+06 1.125e+06 1.084e+06 1.043e+06 1.002e+06 961000 920000 879000 838000 797000
          756000 715000 674000 633000 592000 551000 510000 469000 428000 387000 346000 305000
          264000 223000 182000 141000 100000
        </DataArray>
        <DataArray type="Float32" Name="p_gas" NumberOfComponents="1" format="ascii">
          4.2e+06 4.159e+06 4.118e+06 4.077e+06 4.036e+06 3.995e+06 3.954e+06 3.913e+06 3.872e+06 3.831e+06 3.79e+06 3.749e+06
          3.708e+06 3.667e+06 3.626e+06 3.585e+06 3.544e+06 3.503e+06 3.462e+06 3.421e+06 3.38e+06 3.339e+06 3.298e+06 3.257e+06
          3.216e+06 3.175e+06 3.134e+06 3.093e+06 3.052e+06 3.011e+06 2.97e+06 2.929e+06 2.888e+06 2.847e+06 2.806e+06 2.765e+06
          2.724e+06 2.683e+06 2.642e+06 2.601e+06 2.56e+06 2.519e+06 2.478e+06 2.437e+06 2.396e+06 2.355e+06 2.314e+06 2.273e+06
          2.232e+06 2.191e+06 2.15e+06 2.109e+06 2.068e+06 2.027e+06 1.986e+06 1.945e+06 1.904e+06 1.863e+06 1.822e+06 1.781e+06
          1.74e+06 1.699e+06 1.658e+06 1.617e+06 1.576e+06 1.535e+06 1.494e+06 1.453e+06 1.412e+06 1.371e+06 1.33e+06 1.289e+06
          1.248e+06 1.207e+06 1.166e+06 1.125e+06 1.084e+06 1.043e+06 1.002e+06 961000 920000 879000 838000 797000
          756000 715000 674000 633000 592000 551000 510000 469000 428000 387000 346000 305000
          264000 223000 182000 141000 100000
        </DataArray>
        <DataArray type="Float32" Name="rho_liq" NumberOfComponents="1" format="ascii">
          1000 1000 1000 1000 1000 1000 1000 1000 1000 1000 1000 1000
          1000 1000 1000 1000 1000 1000 1000 1000 1000 1000 1000 1000
          1000 1000 1000 1000 1000 1000 1000 1000 1000 1000 1000 1000
          1000 1000 1000 1000 1000 1000 1000 1000 1000 1000 1000 1000
          1000 1000 1000 1000 1000 1000 1000 1000 1000 1000 1000 1000
          1000 1000 1000 1000 1000 1000 1000 1000 1000 1000 1000 1000
          1000 1000 1000 1000 1000 1000 1000 1000 1000 1000 1000 1000
          1000 1000 1000 1000 1000 1000 1000 1000 1000 1000 1000 1000
          1000 1000 1000 1000 1000
        </DataArray>
        <DataArray type="Float32" Name="rho_gas" NumberOfComponents="1" format="ascii">
          48.2852 47.8139 47.3425 46.8712 46.3998 45.9285 45.4571 44.9857 44.5144 44.043 43.5717 43.1003
          42.629 42.1576 41.6863 41.2149 40.7435 40.2722 39.8008 39.3295 38.8581 38.3868 37.9154 37.444
          36.9727 36.5013 36.03 35.5586 35.0873 34.6159 34.1446 33.6732 33.2018 32.7305 32.2591 31.7878
          31.3164 30.8451 30.3737 29.9024 29.431 28.9596 28.4883 28.0169 27.5456 27.0742 26.6029 26.1315
          25.6602 25.1888 24.7174 24.2461 23.7747 23.3034 22.832 22.3607 21.8893 21.4179 20.9466 20.4752
          20.0039 19.5325 19.0612 18.5898 18.1185 17.6471 17.1757 16.7044 16.233 15.7617 15.2903 14.819
          14.3476 13.8763 13.4049 12.9335 12.4622 11.9908 11.5195 11.0481 10.5768 10.1054 9.63405 9.1627
          8.69134 8.21999 7.74863 7.27727 6.80592 6.33456 5.86321 5.39185 4.9205 4.44914 3.97778 3.50643
          3.03507 2.56372 2.09236 1.621 1.14965
        </DataArray>
        <DataArray type="Float32" Name="lambda_liq" NumberOfComponents="1" format="ascii">
          1000 1000 1000 1000 1000 1000 1000 1000 1000 1000 1000 1000
          1000 1000 1000 1000 1000 1000 1000 1000 1000 1000 1000 1000
          1000 1000 1000 1000 1000 1000 1000 1000 1000 1000 1000 1000
          1000 1000 1000 1000 1000 1000 1000 1000 1000 1000 1000 1000
          1000 1000 1000 1000 1000 1000 1000 1000 1000 1000 1000 1000
          1000 1000 1000 1000 1000 1000 1000 1000 1000 1000 1000 1000
          1000 1000 1000 1000 1000 1000 1000 1000 1000 1000 1000 1000
          1000 1000 1000 1000 1000 1000 1000 1000 1000 1000 1000 1000
          1000 1000 1000 1000 1000
        </DataArray>
        <DataArray type="Float32" Name="lambda_gas" NumberOfComponents="1" format="ascii">
          0 0 0 0 0 0 0 0 0 0 0 0
          0 0 0 0 0 0 0 0 0 0 0 0
          0 0 0 0 0 0 0 0 0 0 0 0
          0 0 0 0 0 0 0 0 0 0 0 0
          0 0 0 0 0 0 0 0 0 0 0 0
          0 0 0 0 0 0 0 0 0 0 0 0
          0 0 0 0 0 0 0 0 0 0 0 0
          0 0 0 0 0 0 0 0 0 0 0 0
          0 0 0 0 0
        </DataArray>
        <DataArray type="Float32" Name="porosity" NumberOfComponents="1" format="ascii">
          0.3 0.3 0.3 0.3 0.3 0.3 0.3 0.3 0.3 0.3 0.3 0.3
          0.3 0.3 0.3 0.3 0.3 0.3 0.3 0.3 0.3 0.3 0.3 0.3
          0.3 0.3 0.3 0.3 0.3 0.3 0.3 0.3 0.3 0.3 0.3 0.3
          0.3 0.3 0.3 0.3 0.3 0.3 0.3 0.3 0.3 0.3 0.3 0.3
          0.3 0.3 0.3 0.3 0.3 0.3 0.3 0.3 0.3 0.3 0.3 0.3
          0.3 0.3 0.3 0.3 0.3 0.3 0.3 0.3 0.3 0.3 0.3 0.3
          0.3 0.3 0.3 0.3 0.3 0.3 0.3 0.3 0.3 0.3 0.3 0.3
          0.3 0.3 0.3 0.3 0.3 0.3 0.3 0.3 0.3 0.3 0.3 0.3
          0.3 0.3 0.3 0.3 0.3
        </DataArray>
        <DataArray type="Float32" Name="x^H2O_liq" NumberOfComponents="1" format="ascii">
          0.99999 0.99999 0.99999 0.99999 0.99999 0.99999 0.99999 0.99999 0.99999 0.99999 0.99999 0.99999
          0.99999 0.99999 0.99999 0.99999 0.99999 0.99999 0.99999 0.99999 0.99999 0.99999 0.99999 0.99999
          0.99999 0.99999 0.99999 0.99999 0.99999 0.99999 0.99999 0.99999 0.99999 0.99999 0.99999 0.99999
          0.99999 0.99999 0.99999 0.99999 0.99999 0.99999 0.99999 0.99999 0.99999 0.99999 0.99999 0.99999
          0.99999 0.99999 0.99999 0.99999 0.99999 0.99999 0.99999 0.99999 0.99999 0.99999 0.99999 0.99999
          0.99999 0.99999 0.99999 0.99999 0.99999 0.99999 0.99999 0.99999 0.99999 0.99999 0.99999 0.99999
          0.99999 0.99999 0.99999 0.99999 0.99999 0.99999 0.99999 0.99999 0.99999 0.99999 0.99999 0.99999
          0.99999 0.99999 0.99999 0.99999 0.99999 0.99999 0.99999 0.99999 0.99999 0.99999 0.99999 0.99999
          0.99999 0.99999 0.99999 0.99999 0.99999
        </DataArray>
        <DataArray type="Float32" Name="x^Air_liq" NumberOfComponents="1" format="ascii">
          1e-05 1e-05 1e-05 1e-05 1e-05 1e-05 1e-05 1e-05 1e-05 1e-05 1e-05 1e-05
          1e-05 1e-05 1e-05 1e-05 1e-05 1e-05 1e-05 1e-05 1e-05 1e-05 1e-05 1e-05
          1e-05 1e-05 1e-05 1e-05 1e-05 1e-05 1e-05 1e-05 1e-05 1e-05 1e-05 1e-05
          1e-05 1e-05 1e-05 1e-05 1e-05 1e-05 1e-05 1e-05 1e-05 1e-05 1e-05 1e-05
          1e-05 1e-05 1e-05 1e-05 1e-05 1e-05 1e-05 1e-05 1e-05 1e-05 1e-05 1e-05
          1e-05 1e-05 1e-05 1e-05 1e-05 1e-05 1e-05 1e-05 1e-05 1e-05 1e-05 1e-05
          1e-05 1e-05 1e-05 1e-05 1e-05 1e-05 1e-05 1e-05 1e-05 1e-05 1e-05 1e-05
          1e-05 1e-05 1e-05 1e-05 1e-05 1e-05 1e-05 1e-05 1e-05 1e-05 1e-05 1e-05
          1e-05 1e-05 1e-05 1e-05 1e-05
        </DataArray>
        <DataArray type="Float32" Name="x^H2O_gas" NumberOfComponents="1" format="ascii">
          0.000754694 0.000762134 0.000769722 0.000777463 0.000785361 0.000793421 0.000801648 0.000810047 0.000818625 0.000827386 0.000836336 0.000845483
          0.000854831 0.000864389 0.000874163 0.00088416 0.000894389 0.000904857 0.000915573 0.000926546 0.000937786 0.000949301 0.000961102 0.000973201
          0.000985608 0.000998335 0.0010114 0.0010248 0.00103857 0.00105271 0.00106724 0.00108218 0.00109755 0.00111335 0.00112962 0.00114637
          0.00116363 0.00118141 0.00119974 0.00121865 0.00123817 0.00125832 0.00127914 0.00130066 0.00132292 0.00134595 0.0013698 0.00139451
          0.00142012 0.0014467 0.00147429 0.00150295 0.00153274 0.00156375 0.00159603 0.00162967 0.00166477 0.0017014 0.00173969 0.00177974
          0.00182168 0.00186564 0.00191177 0.00196024 0.00201124 0.00206496 0.00212163 0.0021815 0.00224484 0.00231197 0.00238324 0.00245905
          0.00253984 0.00262611 0.00271845 0.00281752 0.00292409 0.00303904 0.00316339 0.00329835 0.00344534 0.00360605 0.00378248 0.00397706
          0.00419274 0.00443317 0.00470284 0.00500745 0.00535425 0.00575266 0.00621513 0.00675845 0.00740588 0.00819048 0.00916103 0.0103925
          0.0120065 0.014214 0.017416 0.0224802 0.0316972
        </DataArray>
        <DataArray type="Float32" Name="x^Air_gas" NumberOfComponents="1" format="ascii">
          0.0172002 0.0173698 0.0175427 0.0177192 0.0178992 0.0180829 0.0182704 0.0184618 0.0186573 0.018857 0.019061 0.0192694
          0.0194825 0.0197003 0.0199231 0.0201509 0.020384 0.0206226 0.0208668 0.0211169 0.0213731 0.0216355 0.0219045 0.0221802
          0.022463 0.0227531 0.0230507 0.0233563 0.0236701 0.0239924 0.0243236 0.0246641 0.0250142 0.0253744 0.0257452 0.026127
          0.0265202 0.0269255 0.0273433 0.0277743 0.0282192 0.0286785 0.029153 0.0296434 0.0301507 0.0306756 0.0312191 0.0317822
          0.032366 0.0329717 0.0336005 0.0342537 0.0349328 0.0356394 0.0363751 0.0371419 0.0379417 0.0387767 0.0396493 0.0405621
          0.0415178 0.0425197 0.0435712 0.044676 0.0458382 0.0470626 0.0483541 0.0497185 0.0511622 0.0526922 0.0543166 0.0560442
          0.0578854 0.0598517 0.0619563 0.0642142 0.066643 0.0692627 0.0720968 0.0751728 0.0785229 0.0821855 0.0862065 0.0906412
          0.0955569 0.101036 0.107183 0.114125 0.122029 0.131109 0.141649 0.154032 0.168787 0.186669 0.208789 0.236856
          0.27364 0.323951 0.396929 0.512348 0.72241
        </DataArray>
        <DataArray type="Float32" Name="velocity_liq" NumberOfComponents="1" format="ascii">
          0.0040908 0.0040908 0.0040908 0.0040908 0.0040908 0.0040908 0.0040908 0.0040908 0.0040908 0.0040908 0.0040908 0.0040908
          0.0040908 0.0040908 0.0040908 0.0040908 0.0040908 0.0040908 0.0040908 0.0040908 0.0040908 0.0040908 0.0040908 0.0040908
          0.0040908 0.0040908 0.0040908 0.0040908 0.0040908 0.0040908 0.0040908 0.0040908 0.0040908 0.0040908 0.0040908 0.0040908
          0.0040908 0.0040908 0.0040908 0.0040908 0.0040908 0.0040908 0.0040908 0.0040908 0.0040908 0.0040908 0.0040908 0.0040908
          0.0040908 0.0040908 0.0040908 0.0040908 0.0040908 0.0040908 0.0040908 0.0040908 0.0040908 0.0040908 0.0040908 0.0040908
          0.0040908 0.0040908 0.0040908 0.0040908 0.0040908 0.0040908 0.0040908 0.0040908 0.0040908 0.0040908 0.0040908 0.0040908
          0.0040908 0.0040908 0.0040908 0.0040908 0.0040908 0.0040908 0.0040908 0.0040908 0.0040908 0.0040908 0.0040908 0.0040908
          0.0040908 0.0040908 0.0040908 0.0040908 0.0040908 0.0040908 0.0040908 0.0040908 0.0040908 0.0040908 0.0040908 0.0040908
          0.0040908 0.0040908 0.0040908 0.0040908 0.0040908
        </DataArray>
        <DataArray type="Float32" Name="velocity_gas" NumberOfComponents="1" format="ascii">
          0 0 0 0 0 0 0 0 0 0 0 0
          0 0 0 0 0 0 0 0 0 0 0 0
          0 0 0 0 0 0 0 0 0 0 0 0
          0 0 0 0 0 0 0 0 0 0 0 0
          0 0 0 0 0 0 0 0 0 0 0 0
          0 0 0 0 0 0 0 0 0 0 0 0
          0 0 0 0 0 0 0 0 0 0 0 0
          0 0 0 0 0 0 0 0 0 0 0 0
          0 0 0 0 0
        </DataArray>
      </PointData>
      <Points>
        <DataArray type="Float32" Name="Coordinates" NumberOfComponents="3" format="ascii">
          0 0 0 0.01 0 0 0.02 0 0 0.03 0 0
          0.04 0 0 0.05 0 0 0.06 0 0 0.07 0 0
          0.08 0 0 0.09 0 0 0.1 0 0 0.11 0 0
          0.12 0 0 0.13 0 0 0.14 0 0 0.15 0 0
          0.16 0 0 0.17 0 0 0.18 0 0 0.19 0 0
          0.2 0 0 0.21 0 0 0.22 0 0 0.23 0 0
          0.24 0 0 0.25 0 0 0.26 0 0 0.27 0 0
          0.28 0 0 0.29 0 0 0.3 0 0 0.31 0 0
          0.32 0 0 0.33 0 0 0.34 0 0 0.35 0 0
          0.36 0 0 0.37 0 0 0.38 0 0 0.39 0 0
          0.4 0 0 0.41 0 0 0.42 0 0 0.43 0 0
          0.44 0 0 0.45 0 0 0.46 0 0 0.47 0 0
          0.48 0 0 0.49 0 0 0.5 0 0 0.51 0 0
          0.52 0 0 0.53 0 0 0.54 0 0 0.55 0 0
          0.56 0 0 0.57 0 0 0.58 0 0 0.59 0 0
          0.6 0 0 0.61 0 0 0.62 0 0 0.63 0 0
          0.64 0 0 0.65 0 0 0.66 0 0 0.67 0 0
          0.68 0 0 0.69 0 0 0.7 0 0 0.71 0 0
          0.72 0 0 0.73 0 0 0.74 0 0 0.75 0 0
          0.76 0 0 0.77 0 0 0.78 0 0 0.79 0 0
          0.8 0 0 0.81 0 0 0.82 0 0 0.83 0 0
          0.84 0 0 0.85 0 0 0.86 0 0 0.87 0 0
          0.88 0 0 0.89 0 0 0.9 0 0 0.91 0 0
          0.92 0 0 0.93 0 0 0.94 0 0 0.95 0 0
          0.96 0 0 0.97 0 0 0.98 0 0 0.99 0 0
          1 0 0
        </DataArray>
      </Points>
      <Lines>
        <DataArray type="Int32" Name="connectivity" NumberOfComponents="1" format="ascii">
          0 1 1 2 2 3 3 4 4 5 5 6
          6 7 7 8 8 9 9 10 10 11 11 12
          12 13 13 14 14 15 15 16 16 17 17 18
          18 19 19 20 20 21 21 22 22 23 23 24
          24 25 25 26 26 27 27 28 28 29 29 30
          30 31 31 32 32 33 33 34 34 35 35 36
          36 37 37 38 38 39 39 40 40 41 41 42
          42 43 43 44 44 45 45 46 46 47 47 48
          48 49 49 50 50 51 51 52 52 53 53 54
          54 55 55 56 56 57 57 58 58 59 59 60
          60 61 61 62 62 63 63 64 64 65 65 66
          66 67 67 68 68 69 69 70 70 71 71 72
          72 73 73 74 74 75 75 76 76 77 77 78
          78 79 79 80 80 81 81 82 82 83 83 84
          84 85 85 86 86 87 87 88 88 89 89 90
          90 91 91 92 92 93 93 94 94 95 95 96
          96 97 97 98 98 99 99 100
        </DataArray>
        <DataArray type="Int32" Name="offsets" NumberOfComponents="1" format="ascii">
          2 4 6 8 10 12 14 16 18 20 22 24
          26 28 30 32 34 36 38 40 42 44 46 48
          50 52 54 56 58 60 62 64 66 68 70 72
          74 76 78 80 82 84 86 88 90 92 94 96
          98 100 102 104 106 108 110 112 114 116 118 120
          122 124 126 128 130 132 134 136 138 140 142 144
          146 148 150 152 154 156 158 160 162 164 166 168
          170 172 174 176 178 180 182 184 186 188 190 192
          194 196 198 200
        </DataArray>
      </Lines>
    </Piece>
  </PolyData>
</VTKFile>
