<?xml version="1.0"?>
<VTKFile type="UnstructuredGrid" version="0.1" byte_order="LittleEndian">
  <UnstructuredGrid>
    <Piece NumberOfCells="384" NumberOfPoints="425">
      <PointData Scalars="S_liq" Vectors="velocity_liq">
        <DataArray type="Float32" Name="S_liq" NumberOfComponents="1" format="ascii">
          1 1 1 1 1 1 0.995833 0.994734 0.345468 0.327863 0.00191966 0.00193312
          0 0 0 0 0 0 0 0 0 0 0 0
          0 0 0 0 0 0 0 0 0 0 0 0
          0 0 0 0 0 0 0 0 0 0 0 0
          0 0 1 1 1 0.994555 0.319266 0.00187778 0 0 0 0
          0 0 0 0 0 0 0 0 0 0 0 0
          0 0 0 1 1 1 0.994533 0.315571 0.0018237 0 0 0
          0 0 0 0 0 0 0 0 0 0 0 0
          0 0 0 0 1 1 1 0.994535 0.313967 0.00179256 0 0
          0 0 0 0 0 0 0 0 0 0 0 0
          0 0 0 0 0 1 1 1 0.994538 0.313266 0.0017763 0
          0 0 0 0 0 0 0 0 0 0 0 0
          0 0 0 0 0 0 1 1 1 0.994541 0.312952 0.00176799
          0 0 0 0 0 0 0 0 0 0 0 0
          0 0 0 0 0 0 0 1 1 1 0.994542 0.312802
          0.00176353 0 0 0 0 0 0 0 0 0 0 0
          0 0 0 0 0 0 0 0 1 1 1 0.994543
          0.312711 0.00176059 0 0 0 0 0 0 0 0 0 0
          0 0 0 0 0 0 0 0 0 1 1 1
          0.994545 0.31262 0.00175764 0 0 0 0 0 0 0 0 0
          0 0 0 0 0 0 0 0 0 0 1 1
          1 0.994546 0.312465 0.00175311 0 0 0 0 0 0 0 0
          0 0 0 0 0 0 0 0 0 0 0 1
          1 1 0.994548 0.312141 0.00174466 0 0 0 0 0 0 0
          0 0 0 0 0 0 0 0 0 0 0 0
          1 1 1 0.994551 0.311416 0.00172812 0 0 0 0 0 0
          0 0 0 0 0 0 0 0 0 0 0 0
          0 1 1 1 0.994552 0.309765 0.00169655 0 0 0 0 0
          0 0 0 0 0 0 0 0 0 0 0 0
          0 0 1 1 1 0.994535 0.305986 0.0016427 0 0 0 0
          0 0 0 0 0 0 0 0 0 0 0 0
          0 0 0 1 1 1 0.994417 0.297392 0.00159424 0 0 0
          0 0 0 0 0 0 0 0 0 0 0 0
          0 0 0 0 1 1 1 0.99291 0.28114 0.00161032 0 0
          0 0 0 0 0 0 0 0 0 0 0 0
          0 0 0 0 0
        </DataArray>
        <DataArray type="Float32" Name="S_gas" NumberOfComponents="1" format="ascii">
          0 0 0 0 0 0 0.00416677 0.00526642 0.654532 0.672137 0.99808 0.998067
          1 1 1 1 1 1 1 1 1 1 1 1
          1 1 1 1 1 1 1 1 1 1 1 1
          1 1 1 1 1 1 1 1 1 1 1 1
          1 1 0 0 0 0.0054448 0.680734 0.998122 1 1 1 1
          1 1 1 1 1 1 1 1 1 1 1 1
          1 1 1 0 0 0 0.00546699 0.684429 0.998176 1 1 1
          1 1 1 1 1 1 1 1 1 1 1 1
          1 1 1 1 0 0 0 0.00546547 0.686033 0.998207 1 1
          1 1 1 1 1 1 1 1 1 1 1 1
          1 1 1 1 1 0 0 0 0.00546189 0.686734 0.998224 1
          1 1 1 1 1 1 1 1 1 1 1 1
          1 1 1 1 1 1 0 0 0 0.00545932 0.687048 0.998232
          1 1 1 1 1 1 1 1 1 1 1 1
          1 1 1 1 1 1 1 0 0 0 0.00545768 0.687198
          0.998236 1 1 1 1 1 1 1 1 1 1 1
          1 1 1 1 1 1 1 1 0 0 0 0.00545653
          0.687289 0.998239 1 1 1 1 1 1 1 1 1 1
          1 1 1 1 1 1 1 1 1 0 0 0
          0.00545542 0.68738 0.998242 1 1 1 1 1 1 1 1 1
          1 1 1 1 1 1 1 1 1 1 0 0
          0 0.00545395 0.687535 0.998247 1 1 1 1 1 1 1 1
          1 1 1 1 1 1 1 1 1 1 1 0
          0 0 0.00545173 0.687859 0.998255 1 1 1 1 1 1 1
          1 1 1 1 1 1 1 1 1 1 1 1
          0 0 0 0.00544877 0.688584 0.998272 1 1 1 1 1 1
          1 1 1 1 1 1 1 1 1 1 1 1
          1 0 0 0 0.00544781 0.690235 0.998303 1 1 1 1 1
          1 1 1 1 1 1 1 1 1 1 1 1
          1 1 0 0 0 0.00546531 0.694014 0.998357 1 1 1 1
          1 1 1 1 1 1 1 1 1 1 1 1
          1 1 1 0 0 0 0.00558265 0.702608 0.998406 1 1 1
          1 1 1 1 1 1 1 1 1 1 1 1
          1 1 1 1 0 0 0 0.00709012 0.71886 0.99839 1 1
          1 1 1 1 1 1 1 1 1 1 1 1
          1 1 1 1 1
        </DataArray>
        <DataArray type="Float32" Name="p_liq" NumberOfComponents="1" format="ascii">
          4.2e+06 3.21646e+06 4.2e+06 3.19932e+06 2.21034e+06 2.19108e+06 1.19287e+06 1.17294e+06 190282 192864 166611 167072
          150604 150718 136555 136576 125111 125100 116438 116416 110310 110285 106246 106220
          103689 103663 102145 102120 101243 101217 100727 100702 100437 100412 100277 100252
          100188 100163 100139 100114 100109 100085 100089 100065 100070 100047 100046 100026
          100000 100000 4.2e+06 3.19214e+06 2.18065e+06 1.16422e+06 193249 167619 150950 136660 125121 116410
          110269 106200 103643 102100 101197 100682 100393 100232 100144 100095 100066 100047
          100032 100017 100000 4.2e+06 3.18876e+06 2.1756e+06 1.16002e+06 193085 167762 151070 136719 125139
          116407 110257 106186 103627 102084 101182 100667 100378 100218 100130 100081 100053
          100036 100023 100011 100000 4.2e+06 3.18712e+06 2.17314e+06 1.15793e+06 192803 167696 151062 136721
          125135 116398 110245 106173 103615 102072 101170 100656 100367 100207 100119 100071
          100044 100028 100017 100008 100000 4.2e+06 3.18632e+06 2.17192e+06 1.15686e+06 192541 167563 150989
          136681 125111 116381 110231 106161 103604 102063 101162 100647 100359 100199 100112
          100064 100038 100022 100013 100006 100000 4.2e+06 3.18591e+06 2.17128e+06 1.15627e+06 192332 167425
          150896 136622 125074 116357 110215 106150 103595 102055 101155 100641 100353 100194
          100107 100059 100033 100019 100010 100005 100000 4.2e+06 3.18568e+06 2.17092e+06 1.15592e+06 192167
          167302 150805 136559 125032 116331 110198 106138 103587 102049 101150 100637 100349
          100190 100103 100056 100030 100016 100008 100004 100000 4.2e+06 3.18552e+06 2.17066e+06 1.15567e+06
          192026 167189 150717 136496 124990 116303 110181 106127 103580 102043 101145 100632
          100345 100186 100100 100053 100028 100014 100007 100003 100000 4.2e+06 3.18536e+06 2.1704e+06
          1.15541e+06 191884 167077 150630 136434 124947 116276 110164 106116 103572 102037 101140
          100628 100341 100183 100096 100050 100025 100012 100006 100002 100000 4.2e+06 3.18512e+06
          2.17002e+06 1.15505e+06 191717 166952 150538 136370 124906 116249 110147 106105 103564 102031
          101135 100624 100337 100179 100093 100046 100022 100010 100004 100001 100000 4.2e+06
          3.18469e+06 2.16935e+06 1.15443e+06 191502 166811 150444 136311 124869 116226 110131 106093 103555
          102024 101129 100618 100331 100173 100087 100042 100018 100006 100001 99999.9 100000
          4.2e+06 3.18384e+06 2.16806e+06 1.15329e+06 191226 166670 150366 136269 124843 116208 110117 106081
          103545 102014 101120 100609 100323 100166 100080 100035 100012 100001 99997.4 99997.8
          100000 4.2e+06 3.18212e+06 2.16545e+06 1.15105e+06 190914 166593 150354 136269 124839 116198 110104
          106068 103532 102002 101108 100598 100312 100155 100070 100025 100002 99993 99991.4
          99994.5 100000 4.2e+06 3.17857e+06 2.1601e+06 1.14653e+06 190709 166733 150477 136328 124856 116194
          110092 106053 103516 101987 101093 100583 100297 100140 100055 100011 99989.2 99981.2
          99982 99989.2 100000 4.2e+06 3.1712e+06 2.1491e+06 1.13703e+06 191119 167340 150727 136415 124876
          116187 110075 106034 103496 101967 101073 100563 100278 100121 100036 99991.8 99970.8
          99964 99967.3 99979.9 100000 4.2e+06 3.15397e+06 2.12948e+06 1.11419e+06 194389 167886 150857 136439
          124865 116165 110050 106008 103470 101941 101048 100538 100253 100096 100011 99967.1
          99946.4 99940 99944.4 99960.1 100000
        </DataArray>
        <DataArray type="Float32" Name="p_gas" NumberOfComponents="1" format="ascii">
          4.2e+06 3.21646e+06 4.2e+06 3.19932e+06 2.21034e+06 2.19108e+06 1.19287e+06 1.17294e+06 190282 192864 166611 167072
          150604 150718 136555 136576 125111 125100 116438 116416 110310 110285 106246 106220
          103689 103663 102145 102120 101243 101217 100727 100702 100437 100412 100277 100252
          100188 100163 100139 100114 100109 100085 100089 100065 100070 100047 100046 100026
          100000 100000 4.2e+06 3.19214e+06 2.18065e+06 1.16422e+06 193249 167619 150950 136660 125121 116410
          110269 106200 103643 102100 101197 100682 100393 100232 100144 100095 100066 100047
          100032 100017 100000 4.2e+06 3.18876e+06 2.1756e+06 1.16002e+06 193085 167762 151070 136719 125139
          116407 110257 106186 103627 102084 101182 100667 100378 100218 100130 100081 100053
          100036 100023 100011 100000 4.2e+06 3.18712e+06 2.17314e+06 1.15793e+06 192803 167696 151062 136721
          125135 116398 110245 106173 103615 102072 101170 100656 100367 100207 100119 100071
          100044 100028 100017 100008 100000 4.2e+06 3.18632e+06 2.17192e+06 1.15686e+06 192541 167563 150989
          136681 125111 116381 110231 106161 103604 102063 101162 100647 100359 100199 100112
          100064 100038 100022 100013 100006 100000 4.2e+06 3.18591e+06 2.17128e+06 1.15627e+06 192332 167425
          150896 136622 125074 116357 110215 106150 103595 102055 101155 100641 100353 100194
          100107 100059 100033 100019 100010 100005 100000 4.2e+06 3.18568e+06 2.17092e+06 1.15592e+06 192167
          167302 150805 136559 125032 116331 110198 106138 103587 102049 101150 100637 100349
          100190 100103 100056 100030 100016 100008 100004 100000 4.2e+06 3.18552e+06 2.17066e+06 1.15567e+06
          192026 167189 150717 136496 124990 116303 110181 106127 103580 102043 101145 100632
          100345 100186 100100 100053 100028 100014 100007 100003 100000 4.2e+06 3.18536e+06 2.1704e+06
          1.15541e+06 191884 167077 150630 136434 124947 116276 110164 106116 103572 102037 101140
          100628 100341 100183 100096 100050 100025 100012 100006 100002 100000 4.2e+06 3.18512e+06
          2.17002e+06 1.15505e+06 191717 166952 150538 136370 124906 116249 110147 106105 103564 102031
          101135 100624 100337 100179 100093 100046 100022 100010 100004 100001 100000 4.2e+06
          3.18469e+06 2.16935e+06 1.15443e+06 191502 166811 150444 136311 124869 116226 110131 106093 103555
          102024 101129 100618 100331 100173 100087 100042 100018 100006 100001 99999.9 100000
          4.2e+06 3.18384e+06 2.16806e+06 1.15329e+06 191226 166670 150366 136269 124843 116208 110117 106081
          103545 102014 101120 100609 100323 100166 100080 100035 100012 100001 99997.4 99997.8
          100000 4.2e+06 3.18212e+06 2.16545e+06 1.15105e+06 190914 166593 150354 136269 124839 116198 110104
          106068 103532 102002 101108 100598 100312 100155 100070 100025 100002 99993 99991.4
          99994.5 100000 4.2e+06 3.17857e+06 2.1601e+06 1.14653e+06 190709 166733 150477 136328 124856 116194
          110092 106053 103516 101987 101093 100583 100297 100140 100055 100011 99989.2 99981.2
          99982 99989.2 100000 4.2e+06 3.1712e+06 2.1491e+06 1.13703e+06 191119 167340 150727 136415 124876
          116187 110075 106034 103496 101967 101073 100563 100278 100121 100036 99991.8 99970.8
          99964 99967.3 99979.9 100000 4.2e+06 3.15397e+06 2.12948e+06 1.11419e+06 194389 167886 150857 136439
          124865 116165 110050 106008 103470 101941 101048 100538 100253 100096 100011 99967.1
          99946.4 99940 99944.4 99960.1 100000
        </DataArray>
        <DataArray type="Float32" Name="rho_liq" NumberOfComponents="1" format="ascii">
          998.893 998.45 998.893 998.443 997.998 997.989 997.54 997.531 997.088 997.089 997.078 997.078
          997.07 997.07 997.064 997.064 997.059 997.059 997.055 997.055 997.052 997.052 997.05 997.05
          997.049 997.049 997.049 997.049 997.048 997.048 997.048 997.048 997.048 997.048 997.048 997.048
          997.048 997.048 997.048 997.048 997.048 997.048 997.048 997.048 997.048 997.048 997.048 997.048
          997.048 997.048 998.893 998.439 997.984 997.527 997.09 997.078 997.071 997.064 997.059 997.055
          997.052 997.05 997.049 997.049 997.048 997.048 997.048 997.048 997.048 997.048 997.048 997.048
          997.048 997.048 997.048 998.893 998.438 997.982 997.525 997.09 997.078 997.071 997.064 997.059
          997.055 997.052 997.05 997.049 997.049 997.048 997.048 997.048 997.048 997.048 997.048 997.048
          997.048 997.048 997.048 997.048 998.893 998.437 997.981 997.524 997.089 997.078 997.071 997.064
          997.059 997.055 997.052 997.05 997.049 997.049 997.048 997.048 997.048 997.048 997.048 997.048
          997.048 997.048 997.048 997.048 997.048 998.893 998.437 997.98 997.523 997.089 997.078 997.071
          997.064 997.059 997.055 997.052 997.05 997.049 997.049 997.048 997.048 997.048 997.048 997.048
          997.048 997.048 997.048 997.048 997.048 997.048 998.893 998.437 997.98 997.523 997.089 997.078
          997.071 997.064 997.059 997.055 997.052 997.05 997.049 997.049 997.048 997.048 997.048 997.048
          997.048 997.048 997.048 997.048 997.048 997.048 997.048 998.893 998.437 997.98 997.523 997.089
          997.078 997.071 997.064 997.059 997.055 997.052 997.05 997.049 997.049 997.048 997.048 997.048
          997.048 997.048 997.048 997.048 997.048 997.048 997.048 997.048 998.893 998.436 997.98 997.523
          997.089 997.078 997.07 997.064 997.059 997.055 997.052 997.05 997.049 997.049 997.048 997.048
          997.048 997.048 997.048 997.048 997.048 997.048 997.048 997.048 997.048 998.893 998.436 997.98
          997.523 997.089 997.078 997.07 997.064 997.059 997.055 997.052 997.05 997.049 997.049 997.048
          997.048 997.048 997.048 997.048 997.048 997.048 997.048 997.048 997.048 997.048 998.893 998.436
          997.979 997.523 997.089 997.078 997.07 997.064 997.059 997.055 997.052 997.05 997.049 997.049
          997.048 997.048 997.048 997.048 997.048 997.048 997.048 997.048 997.048 997.048 997.048 998.893
          998.436 997.979 997.522 997.089 997.078 997.07 997.064 997.059 997.055 997.052 997.05 997.049
          997.049 997.048 997.048 997.048 997.048 997.048 997.048 997.048 997.048 997.048 997.048 997.048
          998.893 998.436 997.979 997.522 997.089 997.078 997.07 997.064 997.059 997.055 997.052 997.05
          997.049 997.049 997.048 997.048 997.048 997.048 997.048 997.048 997.048 997.048 997.048 997.048
          997.048 998.893 998.435 997.977 997.521 997.089 997.078 997.07 997.064 997.059 997.055 997.052
          997.05 997.049 997.049 997.048 997.048 997.048 997.048 997.048 997.048 997.048 997.048 997.048
          997.048 997.048 998.893 998.433 997.975 997.519 997.089 997.078 997.07 997.064 997.059 997.055
          997.052 997.05 997.049 997.049 997.048 997.048 997.048 997.048 997.048 997.048 997.048 997.048
          997.048 997.048 997.048 998.893 998.43 997.97 997.514 997.089 997.078 997.07 997.064 997.059
          997.055 997.052 997.05 997.049 997.049 997.048 997.048 997.048 997.048 997.048 997.048 997.048
          997.048 997.048 997.048 997.048 998.893 998.422 997.961 997.504 997.09 997.078 997.071 997.064
          997.059 997.055 997.052 997.05 997.049 997.049 997.048 997.048 997.048 997.048 997.048 997.048
          997.048 997.048 997.048 997.048 997.048
        </DataArray>
        <DataArray type="Float32" Name="rho_gas" NumberOfComponents="1" format="ascii">
          30.5224 36.2557 30.5224 36.0623 24.9539 24.7369 13.4672 13.242 2.13749 2.16666 1.86999 1.87521
          1.69229 1.69356 1.53642 1.53664 1.40849 1.40837 1.31107 1.31083 1.2421 1.24182 1.19634 1.19605
          1.16755 1.16726 1.15017 1.14988 1.14001 1.13972 1.1342 1.13392 1.13094 1.13066 1.12913 1.12885
          1.12813 1.12785 1.12757 1.1273 1.12724 1.12697 1.12701 1.12674 1.1268 1.12654 1.12653 1.1263
          1.12601 1.12601 30.5224 35.9804 24.6191 13.1435 2.17102 1.88138 1.69615 1.53758 1.4086 1.31076
          1.24164 1.19583 1.16703 1.14966 1.1395 1.13369 1.13044 1.12863 1.12764 1.12708 1.12676 1.12655
          1.12637 1.1262 1.12601 30.5224 35.9419 24.562 13.096 2.16917 1.883 1.6975 1.53824 1.4088
          1.31072 1.24151 1.19566 1.16685 1.14948 1.13932 1.13352 1.13027 1.12847 1.12747 1.12692 1.12661
          1.12641 1.12627 1.12614 1.12601 30.5224 35.9233 24.5342 13.0724 2.16598 1.88226 1.69742 1.53826
          1.40876 1.31062 1.24137 1.19552 1.16671 1.14934 1.13919 1.1334 1.13014 1.12834 1.12736 1.12681
          1.12651 1.12632 1.1262 1.1261 1.12601 30.5224 35.9142 24.5204 13.0602 2.16302 1.88075 1.69659
          1.53781 1.40849 1.31042 1.24122 1.19539 1.1666 1.14924 1.13909 1.1333 1.13005 1.12826 1.12727
          1.12673 1.12644 1.12627 1.12616 1.12608 1.12601 30.5224 35.9096 24.5132 13.0536 2.16066 1.8792
          1.69556 1.53716 1.40807 1.31016 1.24104 1.19526 1.1665 1.14916 1.13902 1.13323 1.12999 1.1282
          1.12721 1.12668 1.12639 1.12623 1.12613 1.12606 1.12601 30.5224 35.907 24.5091 13.0497 2.1588
          1.87781 1.69453 1.53645 1.40761 1.30986 1.24085 1.19513 1.16641 1.14909 1.13896 1.13318 1.12994
          1.12815 1.12717 1.12664 1.12635 1.1262 1.12611 1.12605 1.12601 30.5224 35.9051 24.5062 13.0468
          2.1572 1.87653 1.69354 1.53574 1.40713 1.30955 1.24065 1.19501 1.16632 1.14902 1.13891 1.13314
          1.1299 1.12811 1.12714 1.12661 1.12633 1.12617 1.12609 1.12605 1.12601 30.5224 35.9033 24.5033
          13.0439 2.15559 1.87526 1.69256 1.53504 1.40665 1.30924 1.24045 1.19488 1.16623 1.14896 1.13886
          1.13309 1.12986 1.12807 1.1271 1.12658 1.1263 1.12615 1.12608 1.12604 1.12601 30.5224 35.9006
          24.499 13.0398 2.1537 1.87385 1.69153 1.53432 1.40619 1.30895 1.24026 1.19475 1.16614 1.14888
          1.1388 1.13304 1.12981 1.12803 1.12706 1.12654 1.12626 1.12612 1.12606 1.12603 1.12601 30.5224
          35.8956 24.4914 13.0328 2.15127 1.87226 1.69047 1.53366 1.40577 1.30868 1.24008 1.19462 1.16604
          1.1488 1.13872 1.13297 1.12974 1.12796 1.127 1.12648 1.12621 1.12608 1.12603 1.12601 1.12601
          30.5224 35.886 24.4768 13.0199 2.14815 1.87067 1.68961 1.53319 1.40548 1.30848 1.23992 1.19449
          1.16593 1.1487 1.13862 1.13287 1.12965 1.12788 1.12691 1.1264 1.12614 1.12602 1.12598 1.12599
          1.12601 30.5224 35.8665 24.4473 12.9947 2.14463 1.86979 1.68947 1.53319 1.40543 1.30836 1.23978
          1.19434 1.16579 1.14856 1.13849 1.13275 1.12953 1.12776 1.1268 1.12629 1.12604 1.12593 1.12592
          1.12595 1.12601 30.5224 35.8262 24.3868 12.9436 2.14232 1.87138 1.69085 1.53385 1.40562 1.30832
          1.23964 1.19417 1.16561 1.14838 1.13832 1.13258 1.12936 1.12759 1.12663 1.12613 1.12589 1.1258
          1.12581 1.12589 1.12601 30.5224 35.7421 24.2626 12.8362 2.14695 1.87823 1.69366 1.53483 1.40584
          1.30824 1.23946 1.19395 1.16538 1.14816 1.13809 1.13235 1.12914 1.12737 1.12642 1.12592 1.12568
          1.12561 1.12564 1.12579 1.12601 30.5224 35.5475 24.0414 12.578 2.18391 1.88441 1.6951 1.53508
          1.40572 1.308 1.23917 1.19366 1.16509 1.14787 1.13781 1.13207 1.12886 1.12709 1.12614 1.12564
          1.12541 1.12534 1.12539 1.12556 1.12601
        </DataArray>
        <DataArray type="Float32" Name="lambda_liq" NumberOfComponents="1" format="ascii">
          1124.29 1124.11 1124.29 1124.11 1123.94 1123.93 1123.58 1123.47 378.516 357.636 0.0369811 0.0375027
          0 0 0 0 0 0 0 0 0 0 0 0
          0 0 0 0 0 0 0 0 0 0 0 0
          0 0 0 0 0 0 0 0 0 0 0 0
          0 0 1124.29 1124.11 1123.93 1123.45 347.44 0.0353815 0 0 0 0
          0 0 0 0 0 0 0 0 0 0 0 0
          0 0 0 1124.29 1124.11 1123.93 1123.45 343.058 0.0333683 0 0 0
          0 0 0 0 0 0 0 0 0 0 0 0
          0 0 0 0 1124.29 1124.11 1123.93 1123.45 341.156 0.0322358 0 0
          0 0 0 0 0 0 0 0 0 0 0 0
          0 0 0 0 0 1124.29 1124.11 1123.93 1123.45 340.324 0.0316527 0
          0 0 0 0 0 0 0 0 0 0 0 0
          0 0 0 0 0 0 1124.29 1124.11 1123.93 1123.45 339.952 0.0313565
          0 0 0 0 0 0 0 0 0 0 0 0
          0 0 0 0 0 0 0 1124.29 1124.11 1123.93 1123.45 339.774
          0.031198 0 0 0 0 0 0 0 0 0 0 0
          0 0 0 0 0 0 0 0 1124.29 1124.11 1123.93 1123.45
          339.666 0.0310939 0 0 0 0 0 0 0 0 0 0
          0 0 0 0 0 0 0 0 0 1124.29 1124.11 1123.93
          1123.45 339.558 0.0309895 0 0 0 0 0 0 0 0 0
          0 0 0 0 0 0 0 0 0 0 1124.29 1124.11
          1123.93 1123.45 339.374 0.0308298 0 0 0 0 0 0 0 0
          0 0 0 0 0 0 0 0 0 0 0 1124.29
          1124.11 1123.93 1123.45 338.99 0.0305326 0 0 0 0 0 0 0
          0 0 0 0 0 0 0 0 0 0 0 0
          1124.29 1124.11 1123.93 1123.45 338.131 0.0299552 0 0 0 0 0 0
          0 0 0 0 0 0 0 0 0 0 0 0
          0 1124.29 1124.11 1123.93 1123.45 336.172 0.0288684 0 0 0 0 0
          0 0 0 0 0 0 0 0 0 0 0 0
          0 0 1124.29 1124.11 1123.93 1123.45 331.69 0.0270612 0 0 0 0
          0 0 0 0 0 0 0 0 0 0 0 0
          0 0 0 1124.29 1124.1 1123.93 1123.43 321.498 0.025485 0 0 0
          0 0 0 0 0 0 0 0 0 0 0 0
          0 0 0 0 1124.29 1124.1 1123.92 1123.23 302.222 0.0260029 0 0
          0 0 0 0 0 0 0 0 0 0 0 0
          0 0 0 0 0
        </DataArray>
        <DataArray type="Float32" Name="lambda_gas" NumberOfComponents="1" format="ascii">
          0 0 0 0 0 0 8.84889 14.1742 37629.7 38684.3 56744.9 56744.8
          56746.7 56746.7 56746.7 56746.7 56746.7 56746.7 56746.7 56746.7 56746.7 56746.7 56746.7 56746.7
          56746.7 56746.7 56746.7 56746.7 56746.7 56746.7 56746.7 56746.7 56746.7 56746.7 56746.7 56746.7
          56746.7 56746.7 56746.7 56746.7 56746.7 56746.7 56746.7 56746.7 56746.7 56746.7 56746.7 56746.7
          56746.7 56746.7 0 0 0 15.1574 39199.2 56744.9 56746.7 56746.7 56746.7 56746.7
          56746.7 56746.7 56746.7 56746.7 56746.7 56746.7 56746.7 56746.7 56746.7 56746.7 56746.7 56746.7
          56746.7 56746.7 56746.7 0 0 0 15.282 39420.6 56745.1 56746.7 56746.7 56746.7
          56746.7 56746.7 56746.7 56746.7 56746.7 56746.7 56746.7 56746.7 56746.7 56746.7 56746.7 56746.7
          56746.7 56746.7 56746.7 56746.7 0 0 0 15.2735 39516.6 56745.1 56746.7 56746.7
          56746.7 56746.7 56746.7 56746.7 56746.7 56746.7 56746.7 56746.7 56746.7 56746.7 56746.7 56746.7
          56746.7 56746.7 56746.7 56746.7 56746.7 0 0 0 15.2533 39558.6 56745.1 56746.7
          56746.7 56746.7 56746.7 56746.7 56746.7 56746.7 56746.7 56746.7 56746.7 56746.7 56746.7 56746.7
          56746.7 56746.7 56746.7 56746.7 56746.7 56746.7 0 0 0 15.2389 39577.4 56745.2
          56746.7 56746.7 56746.7 56746.7 56746.7 56746.7 56746.7 56746.7 56746.7 56746.7 56746.7 56746.7
          56746.7 56746.7 56746.7 56746.7 56746.7 56746.7 56746.7 0 0 0 15.2297 39586.4
          56745.2 56746.7 56746.7 56746.7 56746.7 56746.7 56746.7 56746.7 56746.7 56746.7 56746.7 56746.7
          56746.7 56746.7 56746.7 56746.7 56746.7 56746.7 56746.7 56746.7 0 0 0 15.2232
          39591.8 56745.2 56746.7 56746.7 56746.7 56746.7 56746.7 56746.7 56746.7 56746.7 56746.7 56746.7
          56746.7 56746.7 56746.7 56746.7 56746.7 56746.7 56746.7 56746.7 56746.7 0 0 0
          15.217 39597.3 56745.2 56746.7 56746.7 56746.7 56746.7 56746.7 56746.7 56746.7 56746.7 56746.7
          56746.7 56746.7 56746.7 56746.7 56746.7 56746.7 56746.7 56746.7 56746.7 56746.7 0 0
          0 15.2087 39606.6 56745.2 56746.7 56746.7 56746.7 56746.7 56746.7 56746.7 56746.7 56746.7
          56746.7 56746.7 56746.7 56746.7 56746.7 56746.7 56746.7 56746.7 56746.7 56746.7 56746.7 0
          0 0 15.1962 39626 56745.2 56746.7 56746.7 56746.7 56746.7 56746.7 56746.7 56746.7
          56746.7 56746.7 56746.7 56746.7 56746.7 56746.7 56746.7 56746.7 56746.7 56746.7 56746.7 56746.7
          0 0 0 15.1797 39669.4 56745.2 56746.7 56746.7 56746.7 56746.7 56746.7 56746.7
          56746.7 56746.7 56746.7 56746.7 56746.7 56746.7 56746.7 56746.7 56746.7 56746.7 56746.7 56746.7
          56746.7 0 0 0 15.1742 39768.3 56745.3 56746.7 56746.7 56746.7 56746.7 56746.7
          56746.7 56746.7 56746.7 56746.7 56746.7 56746.7 56746.7 56746.7 56746.7 56746.7 56746.7 56746.7
          56746.7 56746.7 0 0 0 15.2726 39994.7 56745.4 56746.7 56746.7 56746.7 56746.7
          56746.7 56746.7 56746.7 56746.7 56746.7 56746.7 56746.7 56746.7 56746.7 56746.7 56746.7 56746.7
          56746.7 56746.7 56746.7 0 0 0 15.94 40509.5 56745.4 56746.7 56746.7 56746.7
          56746.7 56746.7 56746.7 56746.7 56746.7 56746.7 56746.7 56746.7 56746.7 56746.7 56746.7 56746.7
          56746.7 56746.7 56746.7 56746.7 0 0 0 25.8063 41483 56745.4 56746.7 56746.7
          56746.7 56746.7 56746.7 56746.7 56746.7 56746.7 56746.7 56746.7 56746.7 56746.7 56746.7 56746.7
          56746.7 56746.7 56746.7 56746.7 56746.7
        </DataArray>
        <DataArray type="Float32" Name="porosity" NumberOfComponents="1" format="ascii">
          0.3 0.3 0.3 0.3 0.3 0.3 0.3 0.3 0.3 0.3 0.3 0.3
          0.3 0.3 0.3 0.3 0.3 0.3 0.3 0.3 0.3 0.3 0.3 0.3
          0.3 0.3 0.3 0.3 0.3 0.3 0.3 0.3 0.3 0.3 0.3 0.3
          0.3 0.3 0.3 0.3 0.3 0.3 0.3 0.3 0.3 0.3 0.3 0.3
          0.3 0.3 0.3 0.3 0.3 0.3 0.3 0.3 0.3 0.3 0.3 0.3
          0.3 0.3 0.3 0.3 0.3 0.3 0.3 0.3 0.3 0.3 0.3 0.3
          0.3 0.3 0.3 0.3 0.3 0.3 0.3 0.3 0.3 0.3 0.3 0.3
          0.3 0.3 0.3 0.3 0.3 0.3 0.3 0.3 0.3 0.3 0.3 0.3
          0.3 0.3 0.3 0.3 0.3 0.3 0.3 0.3 0.3 0.3 0.3 0.3
          0.3 0.3 0.3 0.3 0.3 0.3 0.3 0.3 0.3 0.3 0.3 0.3
          0.3 0.3 0.3 0.3 0.3 0.3 0.3 0.3 0.3 0.3 0.3 0.3
          0.3 0.3 0.3 0.3 0.3 0.3 0.3 0.3 0.3 0.3 0.3 0.3
          0.3 0.3 0.3 0.3 0.3 0.3 0.3 0.3 0.3 0.3 0.3 0.3
          0.3 0.3 0.3 0.3 0.3 0.3 0.3 0.3 0.3 0.3 0.3 0.3
          0.3 0.3 0.3 0.3 0.3 0.3 0.3 0.3 0.3 0.3 0.3 0.3
          0.3 0.3 0.3 0.3 0.3 0.3 0.3 0.3 0.3 0.3 0.3 0.3
          0.3 0.3 0.3 0.3 0.3 0.3 0.3 0.3 0.3 0.3 0.3 0.3
          0.3 0.3 0.3 0.3 0.3 0.3 0.3 0.3 0.3 0.3 0.3 0.3
          0.3 0.3 0.3 0.3 0.3 0.3 0.3 0.3 0.3 0.3 0.3 0.3
          0.3 0.3 0.3 0.3 0.3 0.3 0.3 0.3 0.3 0.3 0.3 0.3
          0.3 0.3 0.3 0.3 0.3 0.3 0.3 0.3 0.3 0.3 0.3 0.3
          0.3 0.3 0.3 0.3 0.3 0.3 0.3 0.3 0.3 0.3 0.3 0.3
          0.3 0.3 0.3 0.3 0.3 0.3 0.3 0.3 0.3 0.3 0.3 0.3
          0.3 0.3 0.3 0.3 0.3 0.3 0.3 0.3 0.3 0.3 0.3 0.3
          0.3 0.3 0.3 0.3 0.3 0.3 0.3 0.3 0.3 0.3 0.3 0.3
          0.3 0.3 0.3 0.3 0.3 0.3 0.3 0.3 0.3 0.3 0.3 0.3
          0.3 0.3 0.3 0.3 0.3 0.3 0.3 0.3 0.3 0.3 0.3 0.3
          0.3 0.3 0.3 0.3 0.3 0.3 0.3 0.3 0.3 0.3 0.3 0.3
          0.3 0.3 0.3 0.3 0.3 0.3 0.3 0.3 0.3 0.3 0.3 0.3
          0.3 0.3 0.3 0.3 0.3 0.3 0.3 0.3 0.3 0.3 0.3 0.3
          0.3 0.3 0.3 0.3 0.3 0.3 0.3 0.3 0.3 0.3 0.3 0.3
          0.3 0.3 0.3 0.3 0.3 0.3 0.3 0.3 0.3 0.3 0.3 0.3
          0.3 0.3 0.3 0.3 0.3 0.3 0.3 0.3 0.3 0.3 0.3 0.3
          0.3 0.3 0.3 0.3 0.3 0.3 0.3 0.3 0.3 0.3 0.3 0.3
          0.3 0.3 0.3 0.3 0.3 0.3 0.3 0.3 0.3 0.3 0.3 0.3
          0.3 0.3 0.3 0.3 0.3
        </DataArray>
        <DataArray type="Float32" Name="x^H2O_liq" NumberOfComponents="1" format="ascii">
          1 0.999948 1 0.999949 0.999864 0.999861 0.999862 0.999864 0.999978 0.999978 0.999981 0.999981
          0.751833 0.753531 0.525737 0.526604 0.415831 0.416002 0.370333 0.370295 0.348268 0.348192 0.3352 0.335119
          0.32712 0.327039 0.322251 0.32217 0.319403 0.319323 0.317776 0.317697 0.316863 0.316784 0.316356 0.316278
          0.316077 0.315998 0.31592 0.315842 0.315827 0.31575 0.315762 0.315687 0.315703 0.31563 0.315627 0.315564
          0.315483 0.315483 1 0.999949 0.999862 0.999865 0.999978 0.999981 0.755345 0.52782 0.416332 0.370315
          0.348144 0.335058 0.326975 0.322107 0.31926 0.317634 0.316722 0.316216 0.315937 0.315782 0.315692 0.315632
          0.315584 0.315535 0.315483 1 0.999949 0.999862 0.999866 0.999978 0.999981 0.755706 0.528249 0.416477
          0.37032 0.348108 0.33501 0.326926 0.322057 0.319211 0.317586 0.316675 0.31617 0.315892 0.315738 0.31565
          0.315595 0.315554 0.315518 0.315483 1 0.999949 0.999862 0.999866 0.999978 0.999981 0.755297 0.528075
          0.416424 0.370286 0.34807 0.33497 0.326886 0.322019 0.319175 0.317551 0.31664 0.316136 0.315859 0.315706
          0.315621 0.31557 0.315535 0.315508 0.315483 1 0.999949 0.999862 0.999866 0.999978 0.999981 0.754729
          0.527682 0.416263 0.370216 0.348025 0.334933 0.326854 0.32199 0.319148 0.317525 0.316615 0.316111 0.315835
          0.315685 0.315601 0.315553 0.315523 0.315501 0.315483 1 0.999949 0.999862 0.999866 0.999978 0.999981
          0.754209 0.527268 0.416067 0.370127 0.347973 0.334897 0.326826 0.321967 0.319127 0.317506 0.316597 0.316094
          0.315819 0.315669 0.315588 0.315542 0.315515 0.315497 0.315483 1 0.999949 0.999862 0.999866 0.999978
          0.999981 0.75377 0.526891 0.415869 0.37003 0.347918 0.334862 0.3268 0.321947 0.31911 0.317491 0.316583
          0.316081 0.315807 0.315658 0.315578 0.315534 0.315509 0.315494 0.315483 1 0.99995 0.999862 0.999866
          0.999978 0.999981 0.753381 0.526545 0.415676 0.369932 0.347862 0.334826 0.326776 0.321929 0.319095 0.317478
          0.316571 0.31607 0.315797 0.315649 0.31557 0.315528 0.315505 0.315492 0.315483 1 0.99995 0.999862
          0.999866 0.999978 0.999981 0.752991 0.526199 0.415483 0.369833 0.347806 0.33479 0.326752 0.321911 0.319081
          0.317465 0.31656 0.31606 0.315787 0.31564 0.315562 0.315521 0.3155 0.315489 0.315483 1 0.99995
          0.999862 0.999867 0.999978 0.999981 0.752547 0.525822 0.415286 0.369736 0.347751 0.334754 0.326726 0.321891
          0.319064 0.31745 0.316546 0.316047 0.315775 0.315629 0.315552 0.315513 0.315495 0.315486 0.315483 1
          0.99995 0.999862 0.999867 0.999978 0.999981 0.752015 0.525405 0.415089 0.369647 0.347699 0.334718 0.326698
          0.321867 0.319043 0.317431 0.316528 0.316029 0.315758 0.315614 0.315539 0.315502 0.315487 0.315482 0.315483
          1 0.99995 0.999862 0.999867 0.999978 0.999981 0.751424 0.525007 0.414927 0.369576 0.347653 0.334681
          0.326666 0.321838 0.319016 0.317405 0.316503 0.316005 0.315735 0.315592 0.315519 0.315486 0.315474 0.315476
          0.315483 1 0.99995 0.999863 0.999867 0.999978 0.999981 0.750999 0.524826 0.41487 0.369539 0.347613
          0.33464 0.326626 0.3218 0.318979 0.31737 0.316468 0.315971 0.315702 0.315561 0.31549 0.315461 0.315455
          0.315465 0.315483 1 0.99995 0.999863 0.999867 0.999978 0.999981 0.751425 0.52526 0.415008 0.36954