<?xml version="1.0"?>
<VTKFile type="UnstructuredGrid" version="0.1" byte_order="LittleEndian">
  <UnstructuredGrid>
    <Piece NumberOfCells="2859" NumberOfPoints="1492">
      <CellData Scalars="elementMarker">
        <DataArray type="Float32" Name="elementMarker" NumberOfComponents="1" format="ascii">
          0 0 0 0 0 0 0 0 0 0 0 0
          0 0 0 0 0 0 0 0 0 0 0 0
          0 0 0 0 0 0 0 0 0 0 0 0
          0 0 0 0 0 0 0 0 0 0 0 0
          0 0 0 0 0 0 0 0 0 0 0 0
          0 0 0 0 0 0 0 0 0 0 0 0
          0 0 0 0 0 0 0 0 0 0 0 0
          0 0 0 0 0 0 0 0 0 0 0 0
          0 0 0 0 0 0 0 0 0 0 0 0
          0 0 0 0 0 0 0 0 0 0 0 0
          0 0 0 0 0 0 0 0 0 0 0 0
          0 0 0 0 0 0 0 0 0 0 0 0
          0 0 0 0 0 0 0 0 0 0 0 0
          0 0 0 0 0 0 0 0 0 0 0 0
          0 0 0 0 0 0 0 0 0 0 0 0
          0 0 0 0 0 0 0 0 0 0 0 0
          0 0 0 0 0 0 0 0 0 0 0 0
          0 0 0 0 0 0 0 0 0 0 0 0
          0 0 0 0 0 0 0 0 0 0 0 0
          0 0 0 0 0 0 0 0 0 0 0 0
          0 0 0 0 0 0 0 0 0 0 0 0
          0 0 0 0 0 0 0 0 0 0 0 0
          0 0 0 0 0 0 0 0 0 0 0 0
          0 0 0 0 0 0 0 0 0 0 0 0
          0 0 0 0 0 0 0 0 0 1 0 1
          0 0 0 0 0 0 0 0 0 0 0 0
          0 1 1 0 0 0 2 0 0 0 0 0
          0 0 0 0 0 0 0 0 0 0 0 0
          0 0 0 0 0 0 1 0 0 0 0 0
          2 0 1 3 3 0 1 1 0 2 0 0
          0 0 0 2 2 2 2 0 0 0 2 0
          0 0 0 0 2 2 0 0 0 0 0 0
          0 0 2 3 1 1 1 1 0 0 0 0
          0 1 1 0 0 3 0 0 0 0 0 0
          0 0 0 0 0 0 0 0 0 0 0 0
          0 0 0 0 0 0 0 0 0 0 0 0
          0 0 0 2 0 0 0 0 0 0 0 0
          0 0 0 2 0 0 0 0 0 0 0 0
          0 0 0 0 0 0 0 0 0 0 0 0
          0 0 0 0 0 0 0 0 0 0 0 0
          0 0 0 0 0 0 0 0 0 0 0 0
          0 0 0 0 0 0 0 0 0 0 0 0
          0 0 0 0 0 0 0 0 0 0 1 0
          0 0 0 0 0 0 0 0 0 0 0 0
          0 0 0 0 0 0 0 0 0 0 0 0
          0 0 0 0 0 0 1 0 0 0 0 0
          0 0 0 0 0 0 1 0 0 0 0 0
          0 0 0 0 0 0 0 0 0 0 0 0
          0 0 0 0 0 0 0 0 0 0 0 0
          0 0 0 0 0 0 0 0 0 0 0 0
          0 0 0 0 0 0 0 0 0 0 0 0
          0 0 0 0 0 0 0 0 0 0 0 0
          0 0 0 0 0 0 0 0 0 0 0 0
          0 0 0 0 0 0 0 0 0 0 0 0
          0 0 0 0 0 0 0 0 0 0 0 0
          0 0 0 0 0 0 0 0 0 0 0 0
          0 0 0 0 0 0 0 0 0 0 0 0
          0 0 0 0 0 0 0 1 1 0 0 0
          0 0 1 1 0 0 0 0 0 0 0 0
          0 0 0 0 0 0 0 0 0 0 0 0
          0 0 0 0 0 0 0 0 0 0 0 0
          0 0 0 0 0 0 1 0 0 0 0 0
          0 0 0 0 0 0 0 0 0 0 0 0
          0 0 0 0 0 0 0 0 0 0 0 0
          0 0 0 0 0 0 0 0 0 0 0 0
          0 0 0 0 0 0 0 0 0 0 0 0
          0 0 0 0 0 0 0 0 0 0 0 0
          0 0 0 0 0 0 0 0 0 0 0 0
          0 0 0 0 0 0 0 0 0 0 0 0
          0 0 0 0 0 0 0 0 0 1 1 0
          1 0 0 0 0 0 0 0 0 0 0 0
          0 0 0 0 0 0 2 2 0 0 0 0
          0 0 0 0 0 0 0 0 0 0 0 0
          0 0 0 0 0 0 0 0 0 0 0 0
          0 0 0 0 0 0 0 0 0 0 0 0
          0 0 0 0 0 0 0 0 0 0 0 0
          0 0 0 0 0 0 0 0 0 0 0 0
          0 0 0 0 0 0 0 0 0 0 0 0
          0 0 0 0 0 0 0 0 0 0 0 0
          0 0 0 0 0 0 0 0 0 0 0 0
          0 0 0 0 0 0 0 0 0 0 0 0
          0 0 0 0 0 0 0 0 0 0 0 0
          0 0 0 0 0 0 0 0 0 0 0 0
          0 0 0 0 0 0 0 0 0 0 0 0
          0 0 0 0 0 0 0 0 0 0 0 0
          0 0 0 0 0 0 0 0 0 0 0 0
          0 0 0 0 0 0 0 0 0 0 0 0
          0 0 0 0 0 0 0 0 0 0 0 2
          0 2 0 0 0 0 0 0 0 2 0 0
          0 0 0 0 2 2 0 0 0 0 0 0
          0 0 0 0 0 0 0 0 0 0 0 0
          0 0 0 0 0 0 0 0 0 0 0 0
          0 0 0 0 0 0 0 0 0 0 0 0
          0 0 0 0 0 0 0 0 0 0 0 0
          0 0 0 0 0 0 0 0 0 0 0 0
          0 0 0 0 0 0 0 0 0 0 0 0
          0 0 0 0 0 0 0 0 0 0 0 1
          0 0 0 0 0 0 0 0 0 0 0 0
          0 0 0 0 0 0 0 0 0 0 0 0
          0 0 0 0 0 0 0 0 0 0 0 0
          0 0 0 0 0 0 0 0 0 0 0 0
          0 0 0 0 0 0 0 0 0 0 0 0
          0 0 0 0 0 0 0 0 0 0 0 0
          0 0 0 0 0 0 0 0 0 0 0 0
          0 0 0 0 0 0 0 0 0 0 0 0
          0 0 0 0 0 0 0 0 0 0 0 0
          0 0 0 0 0 0 0 0 0 0 0 0
          0 0 0 0 0 0 2 0 0 0 0 0
          0 0 0 0 0 0 0 0 0 0 0 0
          0 0 0 0 0 0 0 0 0 0 0 0
          0 0 0 0 0 0 0 0 0 0 0 0
          0 0 0 0 0 0 0 0 0 0 0 0
          0 0 0 0 0 0 0 0 0 0 0 0
          0 1 0 3 3 0 1 0 0 2 0 0
          0 0 0 1 0 0 0 1 1 0 0 0
          0 0 0 0 0 0 0 1 0 0 0 0
          0 0 0 0 0 0 0 0 0 0 0 0
          0 0 0 0 0 0 0 0 0 0 0 0
          0 0 0 0 0 0 0 0 0 0 0 0
          0 0 0 0 0 0 0 0 0 0 0 0
          0 0 0 0 0 0 0 0 0 0 0 0
          0 0 0 0 0 0 0 0 0 0 0 0
          0 0 0 0 0 0 0 0 0 0 0 0
          0 0 0 0 0 0 0 0 0 0 0 0
          0 0 0 0 0 0 0 0 0 0 0 0
          0 0 0 0 0 0 0 0 0 0 0 0
          0 0 0 0 0 0 0 0 0 0 0 0
          0 0 0 0 0 0 0 0 0 0 0 0
          0 0 0 0 0 0 0 0 0 0 0 0
          0 0 0 0 0 0 0 0 0 0 0 0
          0 0 0 0 0 0 0 0 0 0 0 0
          0 0 0 0 0 0 0 0 0 0 0 0
          0 0 0 0 0 0 0 0 0 0 0 0
          0 0 0 0 0 0 0 0 0 0 0 0
          0 0 0 0 0 0 0 0 0 0 0 0
          0 0 0 0 0 0 0 0 0 0 0 0
          0 0 0 0 0 0 0 0 0 0 0 0
          0 0 0 0 0 0 0 0 0 0 0 0
          0 0 0 0 0 0 0 0 0 0 0 0
          0 0 0 0 0 0 0 0 0 0 0 0
          0 0 0 0 0 0 0 0 0 0 0 0
          0 0 0 0 0 0 0 0 0 0 0 0
          0 0 0 0 0 0 0 0 0 0 0 0
          0 0 0 0 0 0 0 0 0 0 0 0
          0 0 0 0 0 0 0 0 0 0 0 0
          0 0 0 0 0 0 0 0 0 0 0 0
          0 0 0 0 0 0 0 0 0 0 0 0
          0 0 0 0 1 0 0 0 0 0 0 1
          0 0 0 0 0 0 0 0 0 0 0 0
          0 0 0 0 0 0 0 0 0 0 0 0
          0 0 0 0 0 0 0 0 0 0 0 0
          0 0 0 0 0 0 0 0 0 0 0 0
          0 0 0 0 0 0 0 0 0 0 0 0
          0 0 0 0 0 0 0 0 0 0 0 0
          0 0 0 0 0 0 0 0 0 0 0 0
          0 0 0 0 0 0 0 0 0 0 0 0
          0 0 0 0 0 0 0 0 0 0 0 0
          0 0 0 0 0 0 0 0 0 0 0 0
          0 0 0 0 0 0 0 0 0 0 0 0
          0 0 0 0 0 0 0 0 0 0 0 0
          0 0 0 0 0 0 0 0 0 0 0 0
          0 0 0 0 0 0 0 0 0 0 0 0
          0 0 0 0 0 0 0 0 0 0 0 0
          0 0 0 0 0 0 0 0 0 0 0 0
          0 0 0 0 0 0 0 0 0 0 0 0
          0 0 0 0 0 0 0 0 0 0 0 0
          0 0 0 0 0 0 0 0 0 0 0 0
          0 0 0 0 0 0 0 0 0 0 0 0
          0 0 0 0 0 0 0 0 0 0 0 0
          0 0 0 0 0 2 0 0 0 2 0 0
          0 0 0 0 0 0 0 0 0 0 0 0
          0 0 0 2 0 0 0 0 0 0 0 0
          0 0 0 0 0 0 0 0 0 0 0 0
          0 0 0 0 0 0 0 0 0 0 0 0
          0 0 1 0 0 0 0 2 0 0 2 0
          0 0 0 0 2 0 2 0 0 0 0 0
          0 0 0 0 0 0 0 0 0 0 2 0
          0 2 0 0 0 0 0 2 0 0 2 0
          0 0 0 0 0 0 0 0 0 0 0 0
          0 0 0 0 0 0 0 0 0 0 0 0
          0 0 0 0 0 0 0 0 0 0 0 0
          0 0 0 0 0 0 0 0 0 1 0 1
          3 3 0 2 0 0 0 0 0 2 0 0
          0 0 0 0 0 0 0 0 0 0 0 1
          1 0 0 0 1 0 1 1 0 0 1 0
          0 0 0 0 0 0 0 0 0 0 0 0
          0 0 0 0 0 0 0 0 0 0 0 0
          0 0 0 0 1 0 0 0 1 0 0 0
          0 0 0 0 0 0 0 0 1 0 0 1
          0 0 0 0 0 0 0 0 0 0 0 0
          0 0 0 0 0 0 0 0 0 0 0 0
          0 0 1 0 0 0 0 0 0 0 0 0
          0 0 1 1 0 0 0 0 0 0 0 0
          0 0 0 0 0 0 0 0 0 0 0 0
          0 0 0 0 0 0 0 0 0 0 0 0
          0 0 0 0 0 0 0 0 0 0 0 0
          0 0 2 0 2 0 0 0 0 0 0 0
          0 0 0 0 0 0 0 0 0 0 0 0
          0 0 0 0 0 0 0 0 0 0 0 0
          0 0 0 0 0 0 0 1 0 0 1 0
          0 0 0 0 0 0 0 0 0 0 0 0
          0 0 0 0 0 0 0 0 0 0 0 0
          0 0 0 0 0 0 0 0 0 0 0 0
          0 0 0 0 0 0 0 0 0 0 0 0
          0 0 0 0 0 0 0 0 0 0 0 0
          0 0 0 0 0 0 0 0 0 0 0 0
          0 0 0 0 0 0 0 0 0 0 0 0
          0 0 0 0 0 0 0 0 0 0 0 0
          0 0 0 0 0 0 0 0 0 0 0 0
          0 0 0 0 0 0 0 0 0 0 0 0
          0 0 0 0 0 0 0 0 0 0 0 0
          0 0 0 0 0 0 0 0 0 0 0 0
          0 0 0 0 0 0 0 0 0 0 0 0
          0 2 0 1 1 0 0 0 0 0 0 0
          0 0 0 0 0 0 0 0 0 0 0 0
          0 0 0 0 0 0 0 0 0 0 0 0
          0 0 0 0 0 0 0 0 0 0 0 0
          0 0 0 0 0 0 0 0 0 0 0 0
          0 0 0 0 0 0 0 0 0 0 0 0
          0 0 0 0 0 0 0 0 0 0 0 0
          0 0 0 0 0 0 0 0 0 0 0 0
          0 0 0 0 0 0 0 0 0 0 0 0
          0 0 0 0 0 0 0 0 0 0 0 0
          0 0 0 0 0 0 0 0 0 0 0 0
          0 0 0 0 0 0 0 0 0 0 0 0
          0 0 0 0 0 0 0 0 0 0 0 0
          0 0 0 0 1 0 0 0 0 0 0 0
          0 0 0 0 0 0 0 0 0 0 0 0
          0 0 0 0 0 0 0 0 0 0 0 0
          0 0 0 0 0 0 0 0 0 0 0 0
          0 0 0 0 0 0 0 0 0 0 0 0
          0 0 0 0 0 0 0 0 0 0 0 0
          0 0 0 0 0 0 0 0 0 0 0 0
          0 0 0 0 0 0 0 0 0 0 0 0
          0 0 0 0 0 0 0 0 0 0 0 0
          0 1 0 1 0 0 0 0 0 0 0 0
          0 0 0 0 0 0 1 0 1 1 0 0
          0 0 0 0 0 0 0 0 0 0 0 0
          0 0 0
        </DataArray>
        <DataArray type="Float32" Name="rank" NumberOfComponents="1" format="ascii">
          1 1 1 1 1 1 1 1 1 1 1 1
          1 1 1 1 1 1 1 1 1 1 1 1
          1 1 1 1 1 1 1 1 1 1 1 1
          1 1 1 1 1 1 1 1 1 1 1 1
          1 1 1 1 1 1 1 1 1 1 1 1
          1 1 1 1 1 1 1 1 1 1 1 1
          1 1 1 1 1 1 1 1 1 1 1 1
          1 1 1 1 1 1 1 1 1 1 1 1
          1 1 1 1 1 1 1 1 1 1 1 1
          1 1 1 1 1 1 1 1 1 1 1 1
          1 1 1 1 1 1 1 1 1 1 1 1
          1 1 1 1 1 1 1 1 1 1 1 1
          1 1 1 1 1 1 1 1 1 1 1 1
          1 1 1 1 1 1 1 1 1 1 1 1
          1 1 1 1 1 1 1 1 1 1 1 1
          1 1 1 1 1 1 1 1 1 1 1 1
          1 1 1 1 1 1 1 1 1 1 1 1
          1 1 1 1 1 1 1 1 1 1 1 1
          1 1 1 1 1 1 1 1 1 1 1 1
          1 1 1 1 1 1 1 1 1 1 1 1
          1 1 1 1 1 1 1 1 1 1 1 1
          1 1 1 1 1 1 1 1 1 1 1 1
          1 1 1 1 1 1 1 1 1 1 1 1
          1 1 1 1 1 1 1 1 1 1 1 1
          1 1 1 1 1 1 1 1 1 1 1 1
          1 1 1 1 1 1 1 1 1 1 1 1
          1 1 1 1 1 1 1 1 1 1 1 1
          1 1 1 1 1 1 1 1 1 1 1 1
          1 1 1 1 1 1 1 1 1 1 1 1
          1 1 1 1 1 1 1 1 1 1 1 1
          1 1 1 1 1 1 1 1 1 1 1 1
          1 1 1 1 1 1 1 1 1 1 1 1
          1 1 1 1 1 1 1 1 1 1 1 1
          1 1 1 1 1 1 1 1 1 1 1 1
          1 1 1 1 1 1 1 1 1 1 1 1
          1 1 1 1 1 1 1 1 1 1 1 1
          1 1 1 1 1 1 1 1 1 1 1 1
          1 1 1 1 1 1 1 1 1 1 1 1
          1 1 1 1 1 1 1 1 1 1 1 1
          1 1 1 1 1 1 1 1 1 1 1 1
          1 1 1 1 1 1 1 1 1 1 1 1
          1 1 1 1 1 1 1 1 1 1 1 1
          1 1 1 1 1 1 1 1 1 1 1 1
          1 1 1 1 1 1 1 1 1 1 1 1
          1 1 1 1 1 1 1 1 1 1 1 1
          1 1 1 1 1 1 1 1 1 1 1 1
          1 1 1 1 1 1 1 1 1 1 1 1
          1 1 1 1 1 1 1 1 1 1 1 1
          1 1 1 1 1 1 1 1 1 1 1 1
          1 1 1 1 1 1 1 1 1 1 1 1
          1 1 1 1 1 1 1 1 1 1 1 1
          1 1 1 1 1 1 1 1 1 1 1 1
          1 1 1 1 1 1 1 1 1 1 1 1
          1 1 1 1 1 1 1 1 1 1 1 1
          1 1 1 1 1 1 1 1 1 1 1 1
          1 1 1 1 1 1 1 1 1 1 1 1
          1 1 1 1 1 1 1 1 1 1 1 1
          1 1 1 1 1 1 1 1 1 1 1 1
          1 1 1 1 1 1 1 1 1 1 1 1
          1 1 1 1 1 1 1 1 1 1 1 1
          1 1 1 1 1 1 1 1 1 1 1 1
          1 1 1 1 1 1 1 1 1 1 1 1
          1 1 1 1 1 1 1 1 1 1 1 1
          1 1 1 1 1 1 1 1 1 1 1 1
          1 1 1 1 1 1 1 1 1 1 1 1
          1 1 1 1 1 1 1 1 1 1 1 1
          1 1 1 1 1 1 1 1 1 1 1 1
          1 1 1 1 1 1 1 1 1 1 1 1
          1 1 1 1 1 1 1 1 1 1 1 1
          1 1 1 1 1 1 1 1 1 1 1 1
          1 1 1 1 1 1 1 1 1 1 1 1
          1 1 1 1 1 1 1 1 1 1 1 1
          1 1 1 1 1 1 1 1 1 1 1 1
          1 1 1 1 1 1 1 1 1 1 1 1
          1 1 1 1 1 1 1 1 1 1 1 1
          1 1 1 1 1 1 1 1 1 1 1 1
          1 1 1 1 1 1 1 1 1 1 1 1
          1 1 1 1 1 1 1 1 1 1 1 1
          1 1 1 1 1 1 1 1 1 1 1 1
          1 1 1 1 1 1 1 1 1 1 1 1
          1 1 1 1 1 1 1 1 1 1 1 1
          1 1 1 1 1 1 1 1 1 1 1 1
          1 1 1 1 1 1 1 1 1 1 1 1
          1 1 1 1 1 1 1 1 1 1 1 1
          1 1 1 1 1 1 1 1 1 1 1 1
          1 1 1 1 1 1 1 1 1 1 1 1
          1 1 1 1 1 1 1 1 1 1 1 1
          1 1 1 1 1 1 1 1 1 1 1 1
          1 1 1 1 1 1 1 1 1 1 1 1
          1 1 1 1 1 1 1 1 1 1 1 1
          1 1 1 1 1 1 1 1 1 1 1 1
          1 1 1 1 1 1 1 1 1 1 1 1
          1 1 1 1 1 1 1 1 1 1 1 1
          1 1 1 1 1 1 1 1 1 1 1 1
          1 1 1 1 1 1 1 1 1 1 1 1
          1 1 1 1 1 1 1 1 1 1 1 1
          1 1 1 1 1 1 1 1 1 1 1 1
          1 1 1 1 1 1 1 1 1 1 1 1
          1 1 1 1 1 1 1 1 1 1 1 1
          1 1 1 1 1 1 1 1 1 1 1 1
          1 1 1 1 1 1 1 1 1 1 1 1
          1 1 1 1 1 1 1 1 1 1 1 1
          1 1 1 1 1 1 1 1 1 1 1 1
          1 1 1 1 1 1 1 1 1 1 1 1
          1 1 1 1 1 1 1 1 1 1 1 1
          1 1 1 1 1 1 1 1 1 1 1 1
          1 1 1 1 1 1 1 1 1 1 1 1
          1 1 1 1 1 1 1 1 1 1 1 1
          1 1 1 1 1 1 1 1 1 1 1 1
          1 1 1 1 1 1 1 1 1 1 1 1
          1 1 1 1 1 1 1 1 1 1 1 1
          1 1 1 1 1 1 1 1 1 1 1 1
          1 1 1 1 1 1 1 1 1 1 1 1
          1 1 1 1 1 1 1 1 1 1 1 1
          1 1 1 1 1 1 1 1 1 1 1 1
          1 1 1 1 1 1 1 1 1 1 1 1
          1 1 1 1 1 1 1 1 1 1 1 1
          1 1 1 1 1 1 1 1 1 1 1 1
          1 1 1 1 1 1 1 1 1 1 1 1
          1 1 1 1 1 1 1 1 1 1 1 1
          1 1 1 1 1 1 1 1 1 1 1 1
          1 1 1 1 1 1 1 1 1 1 1 1
          1 1 1 1 1 1 1 1 1 1 1 1
          1 1 1 1 1 1 1 1 1 1 1 1
          1 1 1 1 1 1 1 1 1 1 1 1
          1 1 1 1 1 1 1 1 1 1 1 1
          1 1 1 1 1 1 1 1 1 1 1 1
          1 1 1 1 1 1 1 1 1 1 1 1
          1 1 1 1 1 1 1 1 1 1 1 1
          1 1 1 1 1 1 1 1 1 1 1 1
          1 1 1 1 1 1 1 1 1 1 1 1
          1 1 1 1 1 1 1 1 1 1 1 1
          1 1 1 1 1 1 1 1 1 1 1 1
          1 1 1 1 1 1 1 1 1 1 1 1
          1 1 1 1 1 1 1 1 1 1 1 1
          1 1 1 1 1 1 1 1 1 1 1 1
          1 1 1 1 1 1 1 1 1 1 1 1
          1 1 1 1 1 1 1 1 1 1 1 1
          1 1 1 1 1 1 1 1 1 1 1 1
          1 1 1 1 1 1 1 1 1 1 1 1
          1 1 1 1 1 1 1 1 1 1 1 1
          1 1 1 1 1 1 1 1 1 1 1 1
          1 1 1 1 1 1 1 1 1 1 1 1
          1 1 1 1 1 1 1 1 1 1 1 1
          1 1 1 1 1 1 1 1 1 1 1 1
          1 1 1 1 1 1 1 1 1 1 1 1
          1 1 1 1 1 1 1 1 1 1 1 1
          1 1 1 1 1 1 1 1 1 1 1 1
          1 1 1 1 1 1 1 1 1 1 1 1
          1 1 1 1 1 1 1 1 1 1 1 1
          1 1 1 1 1 1 1 1 1 1 1 1
          1 1 1 1 1 1 1 1 1 1 1 1
          1 1 1 1 1 1 1 1 1 1 1 1
          1 1 1 1 1 1 1 1 1 1 1 1
          1 1 1 1 1 1 1 1 1 1 1 1
          1 1 1 1 1 1 1 1 1 1 1 1
          1 1 1 1 1 1 1 1 1 1 1 1
          1 1 1 1 1 1 1 1 1 1 1 1
          1 1 1 1 1 1 1 1 1 1 1 1
          1 1 1 1 1 1 1 1 1 1 1 1
          1 1 1 1 1 1 1 1 1 1 1 1
          1 1 1 1 1 1 1 1 1 1 1 1
          1 1 1 1 1 1 1 1 1 1 1 1
          1 1 1 1 1 1 1 1 1 1 1 1
          1 1 1 1 1 1 1 1 1 1 1 1
          1 1 1 1 1 1 1 1 1 1 1 1
          1 1 1 1 1 1 1 1 1 1 1 1
          1 1 1 1 1 1 1 1 1 1 1 1
          1 1 1 1 1 1 1 1 1 1 1 1
          1 1 1 1 1 1 1 1 1 1 1 1
          1 1 1 1 1 1 1 1 1 1 1 1
          1 1 1 1 1 1 1 1 1 1 1 1
          1 1 1 1 1 1 1 1 1 1 1 1
          1 1 1 1 1 1 1 1 1 1 1 1
          1 1 1 1 1 1 1 1 1 1 1 1
          1 1 1 1 1 1 1 1 1 1 1 1
          1 1 1 1 1 1 1 1 1 1 1 1
          1 1 1 1 1 1 1 1 1 1 1 1
          1 1 1 1 1 1 1 1 1 1 1 1
          1 1 1 1 1 1 1 1 1 1 1 1
          1 1 1 1 1 1 1 1 1 1 1 1
          1 1 1 1 1 1 1 1 1 1 1 1
          1 1 1 1 1 1 1 1 1 1 1 1
          1 1 1 1 1 1 1 1 1 1 1 1
          1 1 1 1 1 1 1 1 1 1 1 1
          1 1 1 1 1 1 1 1 1 1 1 1
          1 1 1 1 1 1 1 1 1 1 1 1
          1 1 1 1 1 1 1 1 1 1 1 1
          1 1 1 1 1 1 1 1 1 1 1 1
          1 1 1 1 1 1 1 1 1 1 1 1
          1 1 1 1 1 1 1 1 1 1 1 1
          1 1 1 1 1 1 1 1 1 1 1 1
          1 1 1 1 1 1 1 1 1 1 1 1
          1 1 1 1 1 1 1 1 1 1 1 1
          1 1 1 1 1 1 1 1 1 1 1 1
          1 1 1 1 1 1 1 1 1 1 1 1
          1 1 1 1 1 1 1 1 1 1 1 1
          1 1 1 1 1 1 1 1 1 1 1 1
          1 1 1 1 1 1 1 1 1 1 1 1
          1 1 1 1 1 1 1 1 1 1 1 1
          1 1 1 1 1 1 1 1 1 1 1 1
          1 1 1 1 1 1 1 1 1 1 1 1
          1 1 1 1 1 1 1 1 1 1 1 1
          1 1 1 1 1 1 1 1 1 1 1 1
          1 1 1 1 1 1 1 1 1 1 1 1
          1 1 1 1 1 1 1 1 1 1 1 1
          1 1 1 1 1 1 1 1 1 1 1 1
          1 1 1 1 1 1 1 1 1 1 1 1
          1 1 1 1 1 1 1 1 1 1 1 1
          1 1 1 1 1 1 1 1 1 1 1 1
          1 1 1 1 1 1 1 1 1 1 1 1
          1 1 1 1 1 1 1 1 1 1 1 1
          1 1 1 1 1 1 1 1 1 1 1 1
          1 1 1 1 1 1 1 1 1 1 1 1
          1 1 1 1 1 1 1 1 1 1 1 1
          1 1 1 1 1 1 1 1 1 1 1 1
          1 1 1 1 1 1 1 1 1 1 1 1
          1 1 1 1 1 1 1 1 1 1 1 1
          1 1 1 1 1 1 1 1 1 1 1 1
          1 1 1 1 1 1 1 1 1 1 1 1
          1 1 1 1 1 1 1 1 1 1 1 1
          1 1 1 1 1 1 1 1 1 1 1 1
          1 1 1 1 1 1 1 1 1 1 1 1
          1 1 1 1 1 1 1 1 1 1 1 1
          1 1 1 1 1 1 1 1 1 1 1 1
          1 1 1 1 1 1 1 1 1 1 1 1
          1 1 1 1 1 1 1 1 1 1 1 1
          1 1 1 1 1 1 1 1 1 1 1 1
          1 1 1 1 1 1 1 1 1 1 1 1
          1 1 1 1 1 1 1 1 1 1 1 1
          1 1 1 1 1 1 1 1 1 1 1 1
          1 1 1 1 1 1 1 1 1 1 1 1
          1 1 1 1 1 1 1 1 1 1 1 1
          1 1 1 1 1 1 1 1 1 1 1 1
          1 1 1 1 1 1 1 1 1 1 1 1
          1 1 1 1 1 1 1 1 1 1 1 1
          1 1 1 1 1 1 1 1 1 1 1 1
          1 1 1 1 1 1 1 1 1 1 1 1
          1 1 1
        </DataArray>
      </CellData>
      <Points>
        <DataArray type="Float32" Name="Coordinates" NumberOfComponents="3" format="ascii">
          0.697464 0.233557 0 0.697541 0.233802 0 0.697631 0.233637 0 0.697695 0.233439 0
          0.697907 0.233592 0 0.698001 0.233225 0 0.697764 0.233774 0 0.696446 0.234098 0
          0.696734 0.234218 0 0.69671 0.233812 0 0.697092 0.234073 0 0.697029 0.233739 0
          0.697302 0.2338 0 0.696981 0.234467 0 0.697313 0.23433 0 0.69743 0.234047 0
          0.697667 0.233993 0 0.697989 0.233845 0 0.697828 0.233923 0 0.69789 0.234084 0
          0.69763 0.234312 0 0.697945 0.23433 0 0.689059 0.234815 0 0.688392 0.233926 0
          0.687786 0.235006 0 0.689107 0.236001 0 0.689801 0.234508 0 0.689239 0.233933 0
          0.690024 0.235317 0 0.687806 0.23637 0 0.688795 0.237725 0 0.690335 0.236666 0
          0.690528 0.234502 0 0.691227 0.235363 0 0.691213 0.234373 0 0.691826 0.23457 0
          0.692229 0.23517 0 0.692598 0.234552 0 0.693188 0.235067 0 0.692279 0.236004 0
          0.692842 0.23561 0 0.691619 0.23651 0 0.69151 0.237397 0 0.692744 0.237119 0
          0.68665 0.237532 0 0.687542 0.239085 0 0.690431 0.238486 0 0.689386 0.239776 0
          0.692811 0.238926 0 0.691239 0.240371 0 0.693253 0.23434 0 0.693716 0.234138 0
          0.693734 0.234687 0 0.694163 0.234347 0 0.694434 0.234758 0 0.693753 0.23548 0
          0.694794 0.234435 0 0.694962 0.234908 0 0.695287 0.234451 0 0.695469 0.234955 0
          0.694591 0.235481 0 0.695195 0.235369 0 0.694998 0.236171 0 0.693256 0.236242 0
          0.694237 0.236515 0 0.693591 0.236893 0 0.695719 0.236366 0 0.695269 0.237234 0
          0.695854 0.234651 0 0.695623 0.234099 0 0.695944 0.235372 0 0.696441 0.234641 0
          0.696046 0.234142 0 0.696632 0.235393 0 0.696423 0.236109 0 0.696956 0.234922 0
          0.697432 0.23475 0 0.697296 0.235359 0 0.697811 0.234563 0 0.697906 0.234875 0
          0.697729 0.235233 0 0.697258 0.236234 0 0.697843 0.235681 0 0.696399 0.237118 0
          0.698256 0.236528 0 0.697409 0.23748 0 0.694128 0.237697 0 0.696141 0.239481 0
          0.698993 0.23804 0 0.69987 0.227521 0 0.697003 0.229983 0 0.699079 0.230828 0
          0.702199 0.230923 0 0.697634 0.231548 0 0.698438 0.232326 0 0.69965 0.232137 0
          0.697561 0.232564 0 0.698748 0.233333 0 0.699788 0.233277 0 0.698258 0.233713 0
          0.698606 0.233873 0 0.698947 0.233839 0 0.698108 0.234047 0 0.698351 0.234034 0
          0.698564 0.23417 0 0.698187 0.234279 0 0.698396 0.234341 0 0.69866 0.234344 0
          0.698769 0.234148 0 0.698994 0.234209 0 0.699388 0.233969 0 0.698861 0.234359 0
          0.699223 0.234365 0 0.699026 0.234424 0 0.699727 0.234166 0 0.699493 0.234435 0
          0.699734 0.234481 0 0.700151 0.234009 0 0.699979 0.234954 0 0.70002 0.235046 0
          0.703441 0.23469 0 0.715625 0.230732 0 0.703892 0.235508 0 0.69814 0.234548 0
          0.698487 0.234556 0 0.69834 0.23479 0 0.698581 0.234721 0 0.698228 0.235209 0
          0.698573 0.234962 0 0.698724 0.234544 0 0.698915 0.234571 0 0.698782 0.234753 0
          0.69897 0.234758 0 0.699134 0.234635 0 0.69889 0.235022 0 0.699113 0.23487 0
          0.699375 0.234855 0 0.699191 0.235092 0 0.698652 0.235273 0 0.698554 0.235639 0
          0.698984 0.235394 0 0.699351 0.235354 0 0.699224 0.235829 0 0.699345 0.234603 0
          0.699521 0.234637 0 0.699659 0.234811 0 0.699869 0.234657 0 0.699434 0.235093 0
          0.699617 0.234991 0 0.699816 0.234922 0 0.699788 0.235108 0 0.699912 0.235053 0
          0.699619 0.235205 0 0.699675 0.235484 0 0.699804 0.235292 0 0.699956 0.235233 0
          0.699984 0.235429 0 0.7007 0.235244 0 0.700097 0.235822 0 0.700285 0.236638 0
          0.701251 0.238101 0 0.701838 0.241319 0 0.706821 0.236724 0 0.7115 0.237957 0
          0.687326 0.240949 0 0.689727 0.242706 0 0.693797 0.242184 0 0.686278 0.243204 0
          0.686533 0.247153 0 0.693329 0.248043 0 0.697307 0.244837 0 0.701433 0.253158 0
          0.714007 0.247881 0 0.707365 0.220242 0 0.735546 0.214276 0 0.706104 0.20304 0
          0.774832 0.201381 0 0.77483 0.201272 0 0.722652 0.232977 0 0.749755 0.239866 0
          0.789915 0.165933 0 0.735149 0.176528 0 0.808998 0.167848 0 0.833205 0.168355 0
          0.849681 0.167589 0 0.849643 0.167715 0 0.832319 0.225456 0 0.784723 0.243825 0
          0.83244 0.225402 0 0.815116 0.283143 0 0.673737 0.251746 0 0.671433 0.246809 0
          0.666549 0.253166 0 0.680686 0.251337 0 0.676068 0.247609 0 0.675777 0.259911 0
          0.66138 0.267729 0 0.690132 0.259206 0 0.682518 0.278184 0 0.710648 0.276654 0
          0.664388 0.289775 0 0.686445 0.303339 0 0.751713 0.269224 0 0.743323 0.31545 0
          0.671651 0.347702 0 0.646634 0.315069 0 0.743312 0.315565 0 0.814995 0.283197 0
          0.836562 0.255179 0 0.841658 0.265335 0 0.850021 0.267546 0 0.815078 0.28327 0
          0.814957 0.283324 0 0.838817 0.289337 0 0.842974 0.27611 0 0.789467 0.368283 0
          0.789588 0.368226 0 0.832853 0.336801 0 0.844756 0.166373 0 0.84835 0.166508 0
          0.84934 0.166716 0 0.849952 0.166686 0 0.849877 0.16711 0 0.849956 0.166848 0
          0.849985 0.166749 0 0.850048 0.166714 0 0.850149 0.16678 0 0.850247 0.166665 0
          0.85011 0.166875 0 0.850226 0.166874 0 0.850021 0.167045 0 0.850143 0.166998 0
          0.849802 0.167534 0 0.850112 0.167089 0 0.850072 0.167243 0 0.850245 0.167106 0
          0.850253 0.167373 0 0.849764 0.167661 0 0.849979 0.167454 0 0.849912 0.167539 0
          0.849875 0.16757 0 0.850021 0.167546 0 0.850045 0.167361 0 0.850118 0.167454 0
          0.850221 0.168074 0 0.850518 0.166879 0 0.85088 0.167189 0 0.851154 0.166604 0
          0.850493 0.167281 0 0.851614 0.167203 0 0.850571 0.167857 0 0.85119 0.168098 0
          0.849918 0.169365 0 0.850427 0.169165 0 0.851516 0.169381 0 0.85213 0.166415 0
          0.853117 0.167295 0 0.852237 0.168425 0 0.853747 0.170145 0 0.849133 0.174786 0
          0.852021 0.174376 0 0.841052 0.201513 0 0.858058 0.186187 0 0.856248 0.167692 0
          0.853406 0.165284 0 0.858545 0.174557 0 0.861649 0.167512 0 0.869993 0.181651 0
          0.871928 0.165877 0 0.868682 0.202101 0 0.886416 0.171962 0 0.892641 0.196888 0
          0.910172 0.165685 0 0.922982 0.191664 0 0.884964 0.219298 0 0.911232 0.221333 0
          0.866467 0.233098 0 0.845425 0.24467 0 0.857069 0.252362 0 0.870025 0.256951 0
          0.889346 0.250125 0 0.934892 0.266309 0 0.950361 0.165443 0 0.953245 0.224125 0
          1 0.2 0 1 0.3 0 0.846613 0.256939 0 0.853221 0.260524 0
          0.849187 0.262406 0 0.848365 0.265153 0 0.85226 0.263963 0 0.854623 0.264175 0
          0.850239 0.264527 0 0.850764 0.266045 0 0.852419 0.266363 0 0.849979 0.267454 0
          0.850504 0.267273 0 0.851359 0.267 0 0.85175 0.26832 0 0.854367 0.267961 0
          0.850015 0.272312 0 0.854145 0.271794 0 0.859275 0.263326 0 0.857945 0.26971 0
          0.866021 0.269714 0 0.876494 0.277788 0 0.851186 0.277792 0 0.859906 0.290252 0
          0.859704 0.276526 0 0.905335 0.293111 0 0.85307 0.31123 0 0.879345 0.315118 0
          0.861234 0.363212 0 0.909943 0.350833 0 0.948439 0.313844 0 0 0.4 0
          0.0335369 0.355047 0 0 0.3 0 0.0327947 0.387833 0 0.0485917 0.371926 0
          0.0839853 0.345195 0 0.0393991 0.315234 0 0.0505559 0.384047 0 0.0841011 0.345185 0
          0.0500451 0.416022 0 0.0631063 0.397325 0 0.087568 0.381079 0 0.0397619 0.402812 0
          0.0227681 0.408923 0 0.0234497 0.435318 0 0.0304942 0.417354 0 0.0420853 0.415257 0
          0.0531111 0.396599 0 0.0499549 0.415978 0 0.053488 0.403633 0 0.0750236 0.403274 0
          0.046524 0.40967 0 0.0466195 0.415655 0 0.0502217 0.412656 0 0.0504975 0.412852 0
          0.0485001 0.415575 0 0.0454342 0.418213 0 0.0491899 0.415956 0 0.0486272 0.416936 0
          0.0496363 0.416535 0 0.0496329 0.416037 0 0.0498053 0.416272 0 0.0498895 0.416141 0
          0.0500765 0.416418 0 0.0506114 0.416113 0 0.0505788 0.416621 0 0.0517452 0.415392 0
          0.0512878 0.417497 0 0.0548242 0.410897 0 0.0625055 0.411599 0 0.053266 0.415134 0
          0.0566571 0.415191 0 0.05352 0.417417 0 0.0615945 0.419598 0 0.0738009 0.420465 0
          0.1328 0.362781 0 0.101622 0.40564 0 0.146259 0.411041 0 0.20177 0.399726 0
          0.0393393 0.421083 0 0.0388337 0.437727 0 0.0454734 0.42694 0 0 0.5 0
          0.0327124 0.462141 0 0.0498631 0.444583 0 0.0473423 0.421528 0 0.0499812 0.417202 0
          0.0484626 0.418788 0 0.0501776 0.419538 0 0.0526117 0.419865 0 0.0506073 0.42337 0
          0.0512442 0.430994 0 0.0539435 0.425493 0 0.055955 0.419461 0 0.0541225 0.421907 0
          0.0573968 0.423424 0 0.056841 0.428368 0 0.0640329 0.429432 0 0.0574642 0.43478 0
          0.0647895 0.44203 0 0.0847964 0.43861 0 0.0541347 0.459828 0 0.0786536 0.460025 0
          0.0564148 0.500996 0 0.0693198 0.475457 0 0.0880762 0.480978 0 0.122331 0.440228 0
          0.110415 0.467191 0 0.163615 0.473828 0 0.105692 0.50085 0 0.143504 0.520955 0
          0.199527 0.326849 0 0.278528 0.398547 0 0.258046 0.294585 0 0.321385 0.321404 0
          0.278615 0.398596 0 0.321472 0.321453 0 0.354683 0.379073 0 0.321615 0.412092 0
          0.235671 0.47569 0 0.235758 0.475739 0 0.291115 0.471754 0 0.339052 0.459589 0
          0.330147 0.506574 0 0 0.6 0 0.0705116 0.557426 0 0.100812 0.535462 0
          0.0782691 0.598525 0 0.0989438 0.574001 0 0.129809 0.558545 0 0.192813 0.552833 0
          0.123733 0.586309 0 0.145173 0.589089 0 0.155836 0.607616 0 0.0491776 0.63092 0
          0.0907056 0.628697 0 0 0.7 0 0.0727829 0.672002 0 0.105169 0.598465 0
          0.127157 0.61193 0 0.112692 0.617489 0 0.128328 0.626357 0 0.149956 0.629976 0
          0.141692 0.617301 0 0.136953 0.624761 0 0.144116 0.62686 0 0.192901 0.552881 0
          0.150044 0.630024 0 0.149043 0.626684 0 0.100898 0.651074 0 0.115997 0.634906 0
          0.128174 0.642051 0 0.118136 0.655987 0 0.102966 0.671952 0 0.121199 0.6787 0
          0.131026 0.66247 0 0.139535 0.632277 0 0.131815 0.635851 0 0.14481 0.632281 0
          0.14675 0.629618 0 0.140809 0.637599 0 0.142597 0.634675 0 0.145756 0.635705 0
          0.135874 0.641261 0 0.136314 0.647182 0 0.146566 0.640013 0 0.142259 0.643622 0
          0.147715 0.645817 0 0.148492 0.630225 0 0.149184 0.629863 0 0.149642 0.630007 0
          0.149761 0.630431 0 0.150012 0.630183 0 0.149953 0.63029 0 0.150465 0.630619 0
          0.154789 0.628418 0 0.150818 0.631325 0 0.158668 0.629912 0 0.15309 0.631858 0
          0.147351 0.631557 0 0.149129 0.631567 0 0.147782 0.633534 0 0.149803 0.630924 0
          0.150688 0.633296 0 0.14955 0.636497 0 0.153757 0.634997 0 0.16565 0.616771 0
          0.160937 0.636796 0 0.178989 0.633162 0 0.153406 0.641807 0 0.163501 0.646518 0
          0.129993 0.652464 0 0.136315 0.654632 0 0.143703 0.650678 0 0.142281 0.661093 0
          0.138839 0.674217 0 0.152641 0.652964 0 0.164476 0.659656 0 0.153533 0.66889 0
          0.271359 0.560947 0 0.204155 0.611939 0 0.35723 0.571192 0 0.249391 0.652971 0
          0.207502 0.659864 0 0.180147 0.661109 0 0.314503 0.642409 0 0.31459 0.642459 0
          0.271863 0.713675 0 0.0650282 0.721749 0 0.0987214 0.698989 0 0.0471745 0.763346 0
          0.0896635 0.755424 0 0.120946 0.698203 0 0.11876 0.717313 0 0.131035 0.70618 0
          0.135014 0.689834 0 0.149375 0.685505 0 0.169617 0.685488 0 0.14283 0.702395 0
          0.139255 0.712502 0 0.156756 0.698263 0 0.149317 0.713884 0 0.167968 0.716196 0
          0.100996 0.729187 0 0.121553 0.734483 0 0.13109 0.728583 0 0.111625 0.745933 0
          0.127075 0.749026 0 0.132808 0.71826 0 0.142113 0.724196 0 0.139174 0.733139 0
          0.154114 0.72716 0 0.164392 0.742184 0 0.135241 0.740918 0 0.148372 0.737488 0
          0.141669 0.739264 0 0.138106 0.752302 0 0.14389 0.745509 0 0.14495 0.75187 0
          0.153075 0.751072 0 0 0.8 0 0.07907 0.787867 0 0.049285 0.815035 0
          0.0815482 0.81124 0 0.0923004 0.836756 0 0.118838 0.761543 0 0.112628 0.779726 0
          0.105537 0.805301 0 0.13262 0.771774 0 0.123601 0.793833 0 0.131751 0.784201 0
          0.132973 0.759934 0 0.144727 0.758597 0 0.139343 0.765402 0 0.146081 0.765369 0
          0.14184 0.771656 0 0.14698 0.7716 0 0.151632 0.760863 0 0.160449 0.763398 0
          0.151978 0.767087 0 0.153825 0.77481 0 0.139731 0.777601 0 0.146286 0.77819 0
          0.139062 0.783625 0 0.142529 0.781017 0 0.132482 0.794099 0 0.139061 0.78925 0
          0.145036 0.784652 0 0.144203 0.79076 0 0.154159 0.783065 0 0.163906 0.779813 0
          0.149731 0.789316 0 0.147347 0.794875 0 0.156849 0.796527 0 0.128683 0.805857 0
          0.118044 0.819862 0 0.12109 0.839069 0 0.132062 0.827662 0 0.139313 0.797355 0
          0.145404 0.802136 0 0.138183 0.805904 0 0.135387 0.812373 0 0.129092 0.817682 0
          0.142204 0.811008 0 0.149818 0.807854 0 0.156886 0.812972 0 0.147745 0.816628 0
          0.169612 0.808528 0 0.138927 0.819834 0 0.146957 0.826062 0 0.14023 0.826306 0
          0.144079 0.830214 0 0.140562 0.832593 0 0.134003 0.838181 0 0.145354 0.834046 0
          0.147292 0.83206 0 0.15315 0.821629 0 0.165952 0.825082 0 0.154049 0.828766 0
          0.150024 0.831528 0 0.148932 0.834623 0 0.153601 0.83259 0 0.150675 0.833985 0
          0.159508 0.833011 0 0.194092 0.686798 0 0.221674 0.70944 0 0.190526 0.711186 0