<?xml version="1.0"?>
<VTKFile type="UnstructuredGrid" version="0.1" byte_order="LittleEndian">
  <UnstructuredGrid>
    <Piece NumberOfCells="1670" NumberOfPoints="911">
      <CellData Scalars="Sw">
        <DataArray type="Float32" Name="Sw" NumberOfComponents="1" format="ascii">
          0.983377 0.0689206 0.0650699 0.160101 1 0.091544 0.881106 1 0.999336 0.991892 0.979765 1
          0.780112 1 0.947475 1 1 0.384746 0.963733 1 1 0.937967 1 0.997909
          0.97496 1 0.213965 1 0.99959 0.71777 1 1 0.0645289 0.751339 1 0.0669061
          1 0.87282 0.999648 1 0.845547 0.995961 0.994039 0.995761 0.992395 0.995508 0.95785 0.999629
          0.826365 1 0.0709978 1 1 0.0636404 0.999993 0.0908044 0.776247 1 0.0641639 1
          0.996359 1 1 0.0666179 0.72409 0.0701228 1 0.086698 1 1 1 0.0759675
          0.877076 0.99786 1 0.984763 0.9855 0.997214 1 0.0803239 0.660628 0.911733 1 0.997091
          0.956492 0.984751 1 1 0.67262 1 1 0.0629725 1 0.173137 1 1
          0.065374 0.873423 0.0794036 0.820381 1 0.0670263 1 1 0.999949 0.906135 0.127547 1
          0.0705956 0.105961 0.998005 0.0631595 0.0749206 0.818508 1 0.819141 1 0.0657582 1 1
          1 0.0702205 0.801754 0.0665547 0.0723378 0.360795 1 0.878634 1 0.0802004 1 0.0741361
          1 0.452721 0.974339 0.263282 0.249105 1 0.999661 1 1 1 0.0870895 1
          0.0795819 0.882503 0.86256 1 1 1 1 0.0715478 1 1 0.0663268 0.83007
          1 0.0653936 0.776508 0.0676762 1 0.220631 0.148944 0.0727344 0.220126 0.821358 0.168621 1
          0.140854 0.188779 1 0.078355 1 0.716653 1 0.776476 0.120604 1 0.0683317 0.0751431
          1 0.529754 0.0787422 0.904762 0.998269 1 1 0.092613 1 1 1 1
          0.988459 0.996983 0.991515 0.995837 1 0.0795465 0.962151 0.976472 0.987424 0.984764 0.935946 0.935415
          0.086564 0.0721309 0.0691216 1 0.071646 1 0.207121 0.0952461 0.917889 0.996957 0.999044 1
          1 1 0.0647919 0.0676254 1 1 0.605654 0.602949 0.667465 1 0.0618797 1
          0.339509 0.725763 1 0.0626469 1 1 0.138989 1 0.996384 0.995313 1 0.0698949
          1 0.755472 0.0760248 0.998156 0.997899 0.999035 1 1 1 1 1 1
          0.0829265 1 1 1 1 1 1 1 0.148118 0.231897 1 0.850742
          0.828875 1 1 1 1 1 1 1 1 0.681302 1 1
          1 1 1 0.523782 1 1 1 1 1 1 1 1
          0.116681 1 0.998195 1 1 1 1 1 1 1 0.805525 1
          0.879089 1 0.205025 0.99859 1 1 1 1 1 0.998509 1 1
          1 1 1 1 1 1 1 1 1 1 1 0.327523
          1 1 1 1 1 1 1 0.775492 1 1 1 1
          1 1 0.750213 1 1 1 1 1 1 1 1 1
          1 1 1 0.688728 0.99993 1 1 1 1 1 1 1
          1 1 1 1 1 1 1 1 1 1 1 1
          1 1 0.558337 1 1 1 1 1 1 1 1 1
          1 1 1 0.84742 0.0762985 1 1 0.108085 1 1 1 1
          1 1 1 1 0.999602 1 1 1 1 1 1 0.99975
          1 0.991087 1 1 1 1 0.980789 1 1 1 1 1
          0.999604 1 0.235542 1 1 1 1 1 1 1 1 1
          0.914391 1 0.997215 1 1 1 1 1 0.997776 1 1 0.718173
          1 1 1 1 1 1 1 0.209804 1 1 0.99221 1
          1 1 1 1 1 1 1 1 1 1 0.52131 1
          1 1 1 1 1 1 0.999861 1 1 1 1 1
          1 1 1 1 1 1 1 1 1 1 1 0.707022
          0.980505 1 1 0.991013 1 1 1 1 1 1 1 1
          1 1 1 1 1 1 1 1 1 0.335543 0.999912 1
          1 1 0.980325 1 1 1 0.762413 0.901564 1 0.668463 1 1
          0.998001 1 1 1 1 1 0.90067 0.581636 1 1 1 1
          1 0.999591 1 1 1 1 1 1 0.350059 1 1 0.999953
          0.879807 1 1 0.129636 1 1 1 1 1 1 1 1
          1 1 1 0.616268 1 1 1 0.943792 1 1 1 1
          1 1 1 1 1 1 1 1 1 1 0.92087 0.996673
          1 0.234255 1 1 1 1 1 1 1 1 1 1
          1 1 1 1 1 1 0.865554 1 1 1 1 1
          0.58781 1 1 1 1 1 1 1 1 1 1 1
          1 1 1 1 1 1 1 1 1 1 1 1
          1 1 1 1 1 1 1 1 1 1 1 1
          1 1 1 1 1 0.772002 1 1 1 1 1 1
          1 1 1 1 1 1 1 1 1 1 1 1
          1 1 0.874821 1 1 1 1 1 1 1 1 1
          1 1 1 1 1 1 1 1 1 1 1 1
          0.999377 1 1 0.809158 1 1 1 1 1 1 0.62108 0.817398
          0.857264 1 1 1 1 1 1 1 1 1 1 1
          1 1 1 1 1 1 1 1 0.737028 1 1 1
          1 1 1 1 1 0.99743 1 1 1 1 1 1
          0.995332 1 1 1 1 1 1 1 1 1 1 1
          1 1 1 1 1 1 1 0.995205 1 1 1 1
          0.985622 1 0.870181 1 1 0.191108 1 1 1 1 1 1
          1 1 1 0.992349 1 1 1 1 1 1 1 1
          1 1 1 0.98704 1 1 1 1 1 1 1 1
          1 1 1 1 1 1 1 1 1 0.1178 1 1
          1 0.67077 0.210006 1 1 1 1 1 1 1 1 1
          1 1 1 1 1 1 1 1 1 0.711325 1 1
          1 1 1 0.854533 1 1 1 1 1 1 1 1
          0.756883 1 1 1 0.931021 1 1 1 1 1 1 0.386664
          1 1 1 1 1 1 1 1 0.988058 1 1 1
          1 0.340364 1 1 1 1 1 1 1 0.486643 1 1
          1 1 1 1 0.769082 1 0.674497 1 1 1 1 1
          1 1 1 1 0.757596 1 1 1 1 1 1 1
          1 0.750406 1 1 1 1 1 1 1 1 1 1
          1 1 0.73508 0.999542 1 0.413566 1 1 0.999509 1 1 1
          1 1 1 1 0.999652 1 1 1 1 1 1 1
          0.9317 1 0.90774 1 1 1 1 0.992261 0.78093 0.800746 0.997272 1
          0.882061 1 0.996664 1 1 1 1 1 0.992146 1 1 1
          1 1 0.129089 1 1 0.204705 1 1 1 1 1 1
          1 1 0.834084 1 1 1 0.994359 1 0.988831 1 0.577033 1
          1 1 1 1 1 1 1 1 1 1 1 1
          1 1 1 1 1 0.166425 0.859871 0.953274 1 1 1 1
          1 0.658717 1 0.892158 0.953201 1 1 1 1 1 1 1
          1 1 1 1 1 0.879631 1 1 1 1 0.889245 0.682003
          1 1 0.867123 1 1 1 1 1 1 1 1 1
          1 1 1 1 1 1 1 1 1 1 1 1
          1 0.850949 0.278969 1 1 1 1 1 1 1 1 1
          1 1 1 1 1 1 1 1 1 1 1 1
          1 1 1 1 1 1 0.3012 1 1 1 1 1
          1 1 1 1 1 0.428904 1 1 1 1 1 1
          1 1 1 0.865052 1 1 1 1 1 1 0.974096 1
          1 0.20537 1 1 1 1 1 1 1 1 1 1
          1 1 1 1 1 1 1 0.954045 1 1 0.964245 1
          1 1 1 1 1 1 1 1 1 1 0.48243 0.553604
          1 1 1 1 0.966207 1 1 1 1 1 1 1
          1 1 1 1 1 1 1 1 1 1 1 1
          1 1 1 1 1 1 0.986168 0.995519 1 1 1 1
          1 1 1 1 1 1 1 1 0.994542 1 1 1
          1 0.667088 1 1 1 1 1 1 1 1 1 1
          1 0.996769 1 1 1 1 1 1 1 0.99547 1 1
          1 1 1 1 1 1 1 1 1 1 1 1
          1 0.270233 1 0.567484 0.848931 0.973753 1 0.259561 0.910491 1 1 1
          1 1 1 1 1 1 1 1 1 0.327046 0.330333 0.931322
          0.716248 1 0.995469 1 1 1 1 1 0.985992 1 1 1
          1 1 1 1 1 0.729613 1 1 1 0.984157 1 1
          1 1 1 1 1 0.996666 1 1 1 1 1 1
          1 1 1 1 1 1 1 1 1 1 1 1
          1 0.772807 1 1 1 1 1 1 1 1 1 1
          1 1 1 1 1 0.880548 1 1 1 1 0.354294 0.940347
          1 0.547566 1 0.155196 1 1 1 1 1 1 1 1
          0.948996 1 1 1 1 1 1 1 1 0.207202 0.886267 1
          1 0.923394 0.300014 1 0.778569 1 1 1 1 1 1 0.382053
          1 1 1 1 1 0.964825 0.529967 0.99738 1 1 1 0.86611
          0.152068 1 1 1 1 1 1 1 1 1 1 1
          1 1 1 1 1 1 1 1 1 1 1 1
          1 1 1 1 1 1 1 1 1 0.999507 1 0.274658
          0.145865 1 1 0.114165 1 0.211059 1 0.999114 1 1 1 1
          1 1 1 1 1 0.929605 1 1 0.998665 1 1 1
          1 0.067828 1 1 1 0.0778856 1 1 1 1 1 1
          1 1 1 1 1 1 1 0.148055 1 1 1 1
          1 0.0715397 1 0.0662636 1 1 1 1 1 1 1 0.072523
          1 0.445489 1 1 1 1 1 0.41951 1 1 0.993933 1
          1 1 1 1 0.999876 1 0.275806 1 1 1 1 1
          0.0646995 1 1 1 1 1 1 1 0.087391 1 0.0740743 1
          0.975572 1 1 0.299993 1 1 0.478823 1 0.946894 1 0.936323 1
          1 0.0890961 1 0.0740367 1 0.918793 1 1 1 0.110504 0.715178 1
          1 0.129121 1 0.0992566 1 0.401714 1 0.997472 1 0.792467 1 1
          1 1 1 1 1 1 1 1 0.45921 0.593004 1 1
          1 1 1 1 0.136535 1 1 1 0.101169 0.0764299 1 1
          1 0.070445 1 1 1 1 1 1 1 1 1 1
          1 1 1 1 1 1 1 1 0.997017 0.16273 1 0.123918
          1 0.877516 1 1 1 1 1 0.984587 0.67207 1 1 1
          1 1 1 1 0.997959 1 1 1 1 1 1 1
          1 0.566478 0.191737 1 1 0.126816 0.268098 1 1 1 1 1
          0.086957 1 0.0682634 1 1 1 0.0655456 1 0.0632655 1 1 1
          1 1 1 1 1 1 1 1 0.132413 1 1 0.99626
          1 1
        </DataArray>
        <DataArray type="Float32" Name="Sn" NumberOfComponents="1" format="ascii">
          0.0166226 0.931079 0.93493 0.839899 0 0.908456 0.118894 0 0.000664074 0.00810845 0.0202352 0
          0.219888 0 0.0525246 0 0 0.615254 0.0362667 0 0 0.0620328 0 0.00209067
          0.0250402 0 0.786035 0 0.000409823 0.28223 0 0 0.935471 0.248661 0 0.933094
          0 0.12718 0.000352069 0 0.154453 0.0040385 0.00596089 0.00423933 0.00760491 0.00449227 0.0421505 0.000370975
          0.173635 0 0.929002 0 0 0.93636 7.46646e-06 0.909196 0.223753 0 0.935836 0
          0.00364062 0 0 0.933382 0.27591 0.929877 0 0.913302 0 0 0 0.924033
          0.122924 0.00213962 0 0.0152371 0.0144998 0.00278552 0 0.919676 0.339372 0.0882672 0 0.00290911
          0.0435076 0.015249 0 0 0.32738 0 0 0.937027 0 0.826863 0 0
          0.934626 0.126577 0.920596 0.179619 0 0.932974 0 0 5.12764e-05 0.0938647 0.872453 0
          0.929404 0.894039 0.00199469 0.936841 0.925079 0.181492 0 0.180859 0 0.934242 0 0
          0 0.92978 0.198246 0.933445 0.927662 0.639205 0 0.121366 0 0.9198 0 0.925864
          0 0.547279 0.0256612 0.736718 0.750895 0 0.00033853 0 0 0 0.91291 0
          0.920418 0.117497 0.13744 0 0 0 0 0.928452 0 0 0.933673 0.16993
          0 0.934606 0.223492 0.932324 0 0.779369 0.851056 0.927266 0.779874 0.178642 0.831379 0
          0.859146 0.811221 0 0.921645 0 0.283347 0 0.223524 0.879396 0 0.931668 0.924857
          0 0.470246 0.921258 0.095238 0.00173116 0 0 0.907387 0 0 0 0
          0.0115408 0.00301677 0.00848458 0.00416262 0 0.920453 0.0378491 0.0235275 0.0125763 0.0152362 0.0640538 0.0645852
          0.913436 0.927869 0.930878 0 0.928354 0 0.792879 0.904754 0.0821112 0.00304316 0.000956068 0
          0 0 0.935208 0.932375 0 0 0.394346 0.397051 0.332535 0 0.93812 0
          0.660491 0.274237 0 0.937353 0 0 0.861011 0 0.00361588 0.00468685 0 0.930105
          0 0.244528 0.923975 0.00184365 0.00210104 0.000964581 0 0 0 0 0 0
          0.917073 0 0 0 0 0 0 0 0.851882 0.768103 0 0.149258
          0.171125 0 0 0 0 0 0 0 0 0.318698 0 0
          0 0 0 0.476218 0 0 0 0 0 0 0 0
          0.883319 0 0.00180503 0 0 0 0 0 0 0 0.194475 0
          0.120911 0 0.794975 0.00141032 0 0 0 1.97244e-08 0 0.0014915 0 0
          0 0 0 0 0 0 0 0 0 0 0 0.672477
          0 0 0 0 0 0 0 0.224508 0 0 0 0
          0 0 0.249787 0 0 0 0 0 0 0 0 0
          0 0 0 0.311272 6.97504e-05 0 0 0 0 0 0 0
          0 0 0 0 0 0 0 0 0 0 0 0
          0 0 0.441663 0 0 0 0 0 0 0 0 0
          0 0 0 0.15258 0.923702 0 0 0.891915 0 0 0 2.11051e-11
          0 0 0 0 0.000397883 0 0 0 0 0 0 0.000249823
          0 0.00891335 0 0 0 0 0.0192112 0 0 0 0 0
          0.000395711 0 0.764458 0 0 0 0 0 0 0 0 0
          0.0856091 0 0.00278514 0 0 0 0 0 0.00222444 0 0 0.281827
          0 0 0 0 0 0 0 0.790196 0 0 0.00779036 0
          0 0 0 0 0 0 0 0 0 0 0.47869 0
          0 0 0 0 0 0 0.000139345 0 0 0 0 0
          0 0 0 0 0 0 0 0 0 0 0 0.292978
          0.0194954 0 0 0.00898651 0 0 0 0 0 0 0 0
          0 0 0 0 0 0 0 0 0 0.664457 8.79224e-05 0
          0 0 0.0196753 0 0 0 0.237587 0.0984358 0 0.331537 0 0
          0.00199939 0 0 0 0 0 0.09933 0.418364 0 0 0 0
          0 0.000409015 0 0 0 0 0 0 0.649941 0 0 4.67257e-05
          0.120193 0 0 0.870364 0 0 0 0 0 0 0 0
          0 0 0 0.383732 0 0 0 0.0562082 0 0 0 0
          0 0 0 0 0 0 0 0 0 0 0.0791302 0.00332668
          0 0.765745 0 0 0 0 0 0 0 0 0 0
          0 0 0 0 0 0 0.134446 0 0 0 0 0
          0.41219 0 0 0 0 0 0 0 0 0 0 0
          0 0 0 0 0 0 0 0 0 0 0 0
          0 0 0 0 0 0 0 0 0 0 0 0
          0 0 0 0 0 0.227998 0 0 0 0 0 0
          0 0 0 0 2.19395e-08 0 0 0 0 0 0 0
          0 0 0.125179 0 0 0 0 0 0 0 0 0
          0 0 0 0 0 0 0 0 0 0 0 0
          0.000622903 6.22405e-30 0 0.190842 0 0 0 0 0 0 0.37892 0.182602
          0.142736 0 0 0 0 0 0 0 0 0 2.44164e-11 0
          0 0 0 0 0 0 0 0 0.262972 0 0 0
          0 0 0 0 0 0.00257036 0 0 0 0 0 0
          0.00466778 0 0 0 0 0 0 0 0 0 0 0
          0 0 0 0 0 0 0 0.0047951 0 0 0 0
          0.0143784 0 0.129819 0 0 0.808892 0 0 0 0 0 0
          0 0 0 0.00765094 0 0 0 0 0 0 0 0
          0 0 0 0.0129604 0 0 0 0 0 0 0 0
          0 0 0 0 0 0 0 0 0 0.8822 0 0
          0 0.32923 0.789994 0 0 0 0 0 0 0 0 0
          0 0 0 0 0 0 0 0 0 0.288675 0 0
          0 0 0 0.145467 0 0 0 0 0 0 0 0
          0.243117 0 0 0 0.0689794 0 0 0 0 0 0 0.613336
          0 0 0 0 0 0 0 0 0.0119416 0 0 0
          0 0.659636 0 0 0 0 0 0 0 0.513357 0 0
          0 0 0 0 0.230918 0 0.325503 0 0 0 0 0
          0 0 0 0 0.242404 0 0 0 0 0 0 0
          0 0.249594 0 0 0 0 0 0 0 0 0 0
          0 0 0.26492 0.000457544 0 0.586434 0 0 0.000491364 0 0 0
          0 0 0 0 0.000347871 0 0 0 0 0 0 0
          0.0682999 0 0.0922599 0 0 0 0 0.00773852 0.21907 0.199254 0.00272799 0
          0.117939 0 0.00333581 0 0 0 0 0 0.00785387 0 0 0
          0 0 0.870911 0 0 0.795295 0 0 0 0 0 0
          0 0 0.165916 0 0 -1.65435e-27 0.00564072 0 0.0111688 0 0.422967 1.15449e-17
          0 0 0 0 0 0 0 0 0 0 0 0
          0 0 0 0 0 0.833575 0.140129 0.0467256 0 0 0 0
          0 0.341283 0 0.107842 0.0467986 0 0 0 0 0 0 0
          0 0 0 0 0 0.120369 0 0 0 0 0.110755 0.317997
          0 0 0.132877 0 0 0 0 0 0 0 0 0
          0 0 0 0 0 0 0 0 0 0 0 0
          0 0.149051 0.721031 0 0 0 0 0 0 0 0 0
          0 0 0 0 0 0 0 0 0 0 0 0
          0 0 0 0 0 0 0.6988 0 0 0 0 0
          0 0 0 0 0 0.571096 0 0 0 0 0 0
          0 0 0 0.134948 0 0 0 0 0 0 0.0259036 0
          0 0.79463 0 0 0 0 0 0 0 0 0 0
          0 0 0 0 0 0 0 0.0459554 0 0 0.0357551 0
          0 0 0 0 0 0 0 0 0 0 0.51757 0.446396
          0 0 0 0 0.0337926 0 0 0 0 0 0 0
          0 0 0 0 0 0 0 0 0 0 0 0
          0 0 0 0 0 0 0.0138317 0.00448096 0 0 0 0
          0 0 0 0 0 0 0 0 0.00545844 0 0 0
          0 0.332912 0 0 0 0 0 0 0 0 0 0
          0 0.00323146 0 0 0 0 0 0 0 0.00453004 0 0
          0 0 0 0 0 0 0 0 0 0 0 0
          0 0.729767 0 0.432516 0.151069 0.0262468 0 0.740439 0.0895091 0 0 0
          0 0 0 0 0 0 0 0 0 0.672954 0.669667 0.0686775
          0.283752 0 0.0045314 0 0 0 0 0 0.0140075 0 0 0
          0 0 0 0 0 0.270387 0 0 0 0.0158434 0 0
          0 0 0 0 0 0.00333413 0 0 0 0 0 0
          0 0 0 0 0 0 0 0 0 0 0 0
          0 0.227192 0 0 0 0 0 0 0 0 0 0
          0 0 0 0 0 0.119452 0 0 0 0 0.645706 0.0596533
          0 0.452434 0 0.844804 0 0 0 0 0 0 0 0
          0.0510038 0 0 0 0 0 0 0 0 0.792798 0.113733 0
          0 0.076606 0.699986 0 0.221431 0 0 0 0 0 0 0.617947
          0 0 0 0 0 0.0351749 0.470033 0.00262041 0 0 0 0.13389
          0.847932 0 0 0 0 0 0 0 0 0 0 0
          0 0 0 0 0 0 0 0 0 0 0 0
          0 0 0 0 0 0 0 0 0 0.000492662 0 0.725343
          0.854135 0 0 0.885835 0 0.788941 0 0.000885807 0 0 0 0
          0 0 0 0 0 0.0703946 0 0 0.00133475 0 0 0
          0 0.932172 0 0 0 0.922114 0 0 0 0 0 0
          0 0 0 0 0 0 0 0.851945 0 0 0 0
          0 0.92846 0 0.933736 0 0 0 0 0 0 0 0.927477
          0 0.554511 0 0 0 0 0 0.58049 0 0 0.00606657 0
          0 0 0 0 0.000124241 0 0.724194 0 0 0 0 0
          0.9353 0 0 0 0 0 0 0 0.912609 0 0.925926 0
          0.0244281 0 0 0.700007 0 0 0.521177 0 0.0531059 0 0.0636766 0
          0 0.910904 0 0.925963 0 0.0812067 0 0 0 0.889496 0.284822 0
          0 0.870879 0 0.900743 0 0.598286 0 0.00252793 0 0.207533 0 0
          0 0 0 0 0 0 0 0 0.54079 0.406996 0 0
          0 0 0 0 0.863465 0 0 0 0.898831 0.92357 0 0
          0 0.929555 0 0 0 0 0 0 0 0 0 0
          0 0 0 0 0 0 0 0 0.00298284 0.83727 0 0.876082
          0 0.122484 0 0 0 0 0 0.015413 0.32793 0 0 0
          0 0 0 0 0.00204148 0 0 0 0 0 0 0
          0 0.433522 0.808263 0 0 0.873184 0.731902 0 0 0 0 0
          0.913043 0 0.931737 0 0 0 0.934454 0 0.936734 0 0 0
          0 0 0 0 0 0 0 0 0.867587 0 0 0.00373983
          0 0
        </DataArray>
        <DataArray type="Float32" Name="pw" NumberOfComponents="1" format="ascii">
          96196.7 100761 101128 99961 90881.1 100287 91223.3 91179.8 90920.5 96204.8 96256.4 94995.5
          97398.9 93454.5 96120.2 95113 93018.3 97869.8 96455.5 92397 97070.4 93850.4 92860.3 97264.2
          93640 93861.5 98485.7 92453.2 95511.3 95162.6 90619.2 95021.9 100926 94675.5 94569.4 100546
          90859.6 96205 95534.4 93673.8 98002.4 92914.5 96263.2 94458 96557.2 94202.4 95709.7 95176.4
          94466.1 94385.7 99776.3 91393.3 90596.2 101348 97906.8 98177.5 93112.9 93105.1 100666 90648.8
          95783.6 90866.8 95625.6 100669 95791.9 99641.7 93474.7 99065.8 91895.3 91922.1 95535.4 99161.8
          95678.9 94397.6 93677.6 94806.7 94314.8 96536.2 91946.6 98431.1 98102.3 92823.5 93467.8 97015
          95083.5 93852.5 94294 94557.2 96230.1 90518.4 96062 101200 94917.4 98342.9 92581.2 90850
          101057 98300.3 98663.5 92719.4 92713.1 100320 90890.1 91817 97440.7 93505.2 97667.1 92836.2
          99551.6 98927.7 92012 101389 99466.9 98916.7 90633.4 92148.1 92139.6 100571 90666.7 91441.8
          95784.8 99779.6 95952.5 101016 99884.5 99256.5 90943.1 91835 91816.2 100225 90973.6 98673.7
          92616 98342.1 92596.4 97119.2 97282 93491.9 96016.2 92045.4 95144.9 91788.8 98971.3 94569.7
          99267.1 95264.4 94647.8 90795.5 91350.7 93733.4 91427.5 99673.7 93601.5 90866.7 100426 93768.5
          97409.2 101028 93637.7 100307 97217.9 97426.2 97618.4 99068.1 97083.8 96601.1 97233.2 92951.9
          97434.1 97921.9 95816.4 98550.1 93962.7 96770 93963.1 96783.7 97424.6 91559.5 100094 98857.3
          92515.7 98434.9 99395.2 92525.8 91588.9 92173.7 92449.8 98396.7 95979.3 96473 94445.3 93915.2
          97208.5 93646.9 97454.2 93421.5 92998.1 98164.8 97904.1 93018.3 95224 95705.9 94953.2 94377.7
          97959.5 99107.8 100170 91546.9 99689.9 91919.4 99098.3 99459 91929.1 91563.3 94827.5 94375.1
          90734.1 91261.4 100995 100287 96557.5 96663.8 96847 96738.4 96641.2 90434.1 101440 96965.9
          97153.6 94089.7 94044.4 100924 90517.6 94340.3 98644.1 92316 95267.8 95070.2 91578.7 99801.9
          96376.1 96551.9 98365.9 95734.9 94830.8 95204.7 96214.5 96263.6 93250 93518.1 95793.1 98265.4
          100254 95923.2 98148 97180 95805.6 97621.6 95617.5 91797.7 99869.2 99839.4 94441.7 96397
          96398 94904 95043.8 96215.2 92585.5 92380.3 95123.4 94904 95591.6 98873.8 95324.4 93193.6
          93447.5 95535.8 93151.1 99583.3 95837.6 93147.3 95344.1 95244 93438.7 94573.7 91035.2 96796.7
          100229 93514.2 98771.1 96301.2 96301 94107.6 92337.2 95899 96368.8 96159.4 95479.8 93888.3
          94717.3 96204.5 99912.9 98588.7 95618.7 95270.8 95617.3 97901.7 95197.3 99022.4 97790.2 97464.8
          92812.5 95860.3 91381.5 92420.7 94363.6 92238.6 95813.3 95790.5 95077.1 93054.9 97196.8 99646
          95229.5 91227.2 95843.2 95664 94328.1 93971 93813.5 98340.7 95957.1 96769.6 93088.8 93940.6
          96972.3 94594.2 98805 98617.9 96289.8 98456.7 95176.1 95670.5 94049.9 90926.6 97385.7 95052.2
          94198.2 95404.3 96149.1 99130.2 97796.9 97461.1 95146.9 93344.6 95519 93449 95450.4 95298.3
          95543.2 95976.4 94509.9 91751.6 96294.8 98626.1 91921.7 94538.6 95898.3 95531.3 93380 97034
          95078.4 95125.2 99584.1 96668.1 96762.9 96711.7 91294.9 91625.2 92890.5 94573.5 98489.7 98348.3
          92178.8 93777.8 94663.9 96982.6 100401 96776.4 97815.1 100081 95434.9 97762.9 93161.3 98321.5
          94762.3 96738.8 97404.7 93813.4 98619 96907.8 96060.2 97882.4 95853.4 93106.6 97191.1 98297.8
          94820.2 92789.4 97538.1 92097.4 97240.1 94160.3 95498 95238.8 96190.7 95400.7 93796 92248.4
          96817.1 94909.3 99757.7 97409.5 92149.9 93118.8 94076.7 96073 95297.3 91982.6 95341.7 96290.2
          99251.9 92733.2 98436.7 95596.9 97512.4 92645.3 95459.5 93987.4 92282.2 97958.2 95224.6 98370.6
          94991.2 93865.8 96109.3 94233.8 95211.1 92398.9 93678.2 100067 93978.4 96434.5 98804.2 94214.2
          95700.4 96597.1 93651.8 93126.1 97454.6 95425.9 96064.7 94795.4 95094.6 91162.8 99219.6 91183.6
          91758.7 95840.5 94939.6 90994.8 91696.3 96703.1 98245.2 97025.7 94565.6 92757.8 97958.8 93024.9
          95347.2 93880 95153.2 93830.4 96974.9 90886.5 91124 91731 92455 95408.3 92632.7 97733.5
          94602.8 93463 95319.5 93961.7 96481.3 92961.1 94394.3 94917.7 97092.4 93226.9 94050.1 94432.2
          94244.4 93193.7 93028.6 93382.9 96644.6 92044.7 94514.8 96621.7 94402.6 99850.1 97790.8 94510
          94488.5 91813.1 99099.8 92688 95118.1 94956.6 97820.3 99368.5 95433.3 99470.1 94943.1 94594
          98966.8 95588.5 94493.2 94475.5 94964.5 92674.7 98893.6 99307.6 95007 92352.8 96350.9 97775
          94307.6 97297.8 94799.4 96015.5 94796 94025.9 94118.7 95324 99889.8 94564.7 96333.1 97307.4
          93626.6 96912.2 94070.9 100123 95238 94113.6 91260.5 91705.4 94631.1 91165 97654.9 90872.3
          94822.6 93773.6 96443.2 99245.5 94784.1 94451.3 97355.1 92626.8 97730.6 95322 96373.2 96967.9
          93550.7 94930.8 95516.7 98533.8 98274 91033.7 91508.5 94870.6 99011 91173.7 91252.6 99039.8
          92955 99396.1 95639.6 96036 95672.3 95098.3 96655.4 91422.8 96559.5 98118.8 93795 94799.8
          95486.4 91894.3 91788.1 91958.5 98397.8 97877.4 92863.3 97577.7 90784.2 97509.3 96849.5 94061.4
          99074.6 95240.4 92562.5 92593.4 94741.4 98156.5 97504 94790.1 95472.4 95411.5 95813.5 93467.1
          92470.9 95261.9 95295.3 98194.3 97829.8 97235.2 94508.1 96788.2 96462.4 94452.4 92626.6 96037.8
          96770.5 95359.8 95334 96594.9 95322.4 95245.5 95307.1 95274.9 98195.7 98022.8 95377.9 96488.1
          94883.6 95324.8 94625.4 95290.1 94776.7 98760.5 93452.3 90921.3 94008.2 91172.3 93012.4 94496.1
          92084.8 96029.4 94678.8 91213.7 97900.4 96014.2 93906.7 94888.7 95727.2 95139.1 95052.6 94796.8
          95532.1 96178.5 96231.9 95654.7 94778.5 98498.8 91601.8 95548.4 96650.7 95675.7 95485.6 98261.7
          95281.5 95375 95125 92518.8 95149.1 94897.5 95918.5 94978.7 96381 96046.3 95823.1 97376.4
          99310.5 98887.2 95190.8 98228.9 95226.2 95133.2 96109.5 96197.6 96889.9 95063.2 100347 98795.8
          96114.2 95720.2 95117.4 94718.1 96621.3 97968.2 97868.5 97503.7 97194 97912.1 98316.2 98868.2
          94026 95288.6 94857.8 92102.3 95392.2 93849.7 92260.8 96173.2 100179 94311 97712.1 97402.7
          94242.8 97432.4 92500.7 93005.6 96450.2 94032 95965.8 97973.1 94117.1 94010.4 94828 95206.9
          95418.5 95909.5 94355.6 95180.5 95454.3 93774.8 94583.4 95440.4 93406.8 97199.3 93042.6 93106.1
          95571.5 95809.6 96583 93910.6 94333.9 96713.8 95450.8 94775.8 91682.1 92065.5 94437.4 96977.9
          93379.7 95213.9 96815 95483.9 93710.4 100505 94996.6 92323.1 95528.7 93537.4 94565.3 94213.1
          96692 97325.1 97893.7 99713.8 97514.2 92090.1 96691.1 96965.7 90890.4 95870.5 96730.8 96201.8
          92675.5 94411.4 97826.3 92508.5 94655.6 94489.6 94090.2 96859.6 95851.3 95234.6 95266.4 96241.6
          95590 97559.5 95191.1 94976.1 93888.7 91888.4 93638.1 92026.5 96193.5 100264 98348.8 95589.3
          97165 99955.3 99925.4 96394 96444.7 98846.5 98355.4 99184.6 97096 94223.9 96143.4 93858.6
          92694.1 93102.7 94667.4 96146 93657 96631.6 94024.7 95910.2 91200.6 99377.5 91335.2 93162.4
          96011.5 93670.3 95036.4 99282.8 96335.2 92949.9 92820.7 93553.1 92218.1 96971.9 94438.2 96289.3
          98219.3 96916.4 90951.7 93366.7 98905.9 93742.1 95912.2 94043.4 97556.7 93421.7 97871.3 100251
          94361.4 91725.5 95578.8 98916.2 97028.3 97231.1 93069.1 95980.8 99767 95675.9 97170.2 92155.8
          92696.1 100233 94393.1 94886 98089.4 92161.8 94366.3 95349.1 95852 100236 94470.1 91833.4
          96261.2 95954.8 97586.5 92546.5 99470.7 95231.4 99724.5 94558.1 97359 94766.2 98805.7 98630.3
          93208.1 94231 92561.6 97051.2 99774.4 92322.4 92155.7 92112.1 96858.5 96726 90884.9 97014.8
          94242.1 97561.3 98679.2 96262 95603.3 95292.2 91212.3 96635.1 97963.7 94392.6 93891.4 92656
          93450.7 95117.9 99604.6 98300.1 93430.3 100092 91645.4 91616.2 99421.9 93625.4 93626.4 92664.4
          91408 94684.7 92500.9 93491.5 98403.3 96967.6 91812 95352.2 98493.8 93513.2 92560.5 98730.3
          91574.4 94951.7 99312.5 96446.7 93783.6 95329 91196.8 99264.4 99295.6 97692.4 98891.5 97448.8
          92942.6 92953.4 98784.4 95506.6 94220.2 94037.2 90762.1 98184.3 99230.2 94910 92050.9 94457.3
          91914.1 93728.3 100552 93243.6 96729.9 100585 95524.1 91065 93984.1 94284.9 97516.7 93181.3
          97252 90905.8 95025.5 95487.3 93264.8 98822.6 99140.1 92691.9 99385.9 92528.9 99888.3 98372.3
          91526.8 92864.6 91088.6 93050.9 98144.1 93079.3 94207.2 96719.9 96879.9 93172.5 91666.1 96694.6
          96399.4 96908.4 95336 98575.2 97976.8 100167 95302.7 94704.6 94060.7 97713.9 97297.6 91861.4
          92779 99654.1 96482 93993.9 93984.6 96482.6 92929.5 93040.9 97584.4 97443.3 94630.6 94569
          97651.7 97381.4 95110.6 92656.6 90722.2 94671.7 92766.2 93736.5 95096.4 93304.3 95025.5 99169.8
          91097.3 91151.1 96346.4 94383.3 94394.3 95793.3 95615 94557.3 98333.2 98542 95625.3 95836.3
          95307.9 92090.9 95572 97700.6 97442 94705.9 97733.9 91417.6 94439.2 97738.4 95295.1 95383.7
          97422.8 96191.4 99939.7 94109.7 90857.1 97387.8 92178.9 94412.3 94494.6 96737.7 98597.7 94760.1
          94538.9 94742.9 95249.9 97006.5 95942 94672.3 91160 92351.1 95284 95631.5 95013.2 93009.8
          95226.3 91955.5 93110.9 93428.2 98093.7 95005.8 99607.6 98502 96515.2 98685 95036.9 94564.9
          95199.9 97192 93049.6 91315.7 95337.4 99726.5 94862 95015.4 96432.9 96857.6 97040.9 92558.2
          94790.4 94143.6 97809.3 96958 93858.3 96136.6 92142.3 92339.9 94610.2 92490.3 95451.5 95205.2
          96840.5 100085 93470.3 95315 96697.1 95322.9 94753.2 91827.7 93072.8 93387.3 95476.7 97536.7
          95104.4 97414.1 95234.5 95264.1 95065.9 95955.2 94491.1 99180.1 94426 92320.4 99055.1 95888.6
          94538.3 94968.8 97528.8 93866.1 95536.2 95484.7 91450.2 94243.6 94136.1 94116.3 99652.6 99386.6
          98021.1 96146.5 92460 92584.5 98763.8 97127.4 95566.3 93890.9 90614.7 93993.6 93114.4 90939
          95151 93124.4 97726 92601.7 96113.4 94037.2 93505.7 97092.4 92317.4 94007.6 94646.9 93048.9
          94808.3 97191.6 93104 92613.5 96064.2 97570.5 92807.7 98816 93659.4 96693.4 95127.7 95640.8
          94716.6 95200 97106.2 98678.4 93980.2 95979.9 91216.4 93489.4 98756.5 97788.7 96826.9 94788.7
          95244.8 98975.2 95101.9 94597.3 91715.5 98179.2 92474.3 94813.9 93412.5 98274.3 95379.7 96898.4
          97981.6 92302 95274.9 92552.5 95908.1 97010 94254.5 96118 95381.4 98535.2 97200.2 90964.1
          96444.8 93986.5 92130.2 96552.1 95087.6 96622.8 93681.9 97785.6 93451.3 95372.6 94741.4 96049
          95756.9 99782.1 91718.5 99862.6 99165.4 94720.9 95706 100000 99223.4 94138.6 92666.9 93846.6
          96205.8 98153 92963.6 97884.5 95211.7 96931 95343.4 96993.1 93831.2 100190 99880.2 99217.4
          98543.1 95490.5 98315.4 93184.7 95961.3 97407 95571.8 96506.6 93974.5 97953.5 96406.9 95983.6
          93825 97684.3 96757.2 96331.4 96627.6 97762.9 97884 97523.1 94225.1 98902.6 96382.9 94257.1
          96337.4 91157.3 93070.2 96342.9 96406.1 99123 91851.4 98227.6 95745.1 95924.8 93045.5 91609
          95457.5 91551.4 95945.3 96299.7 92015.1 95306.5 95843.1 96339.3 95489.3 98233.8 92077.3 91695.1
          95874.7 98651.5 94393.5 93151.2 95954 93525.5 96009.6 94890 95882.8 96876.3 96784.5 95578.4
          91167.3 96337.5 94557.9 93512.3 96894.2 93560.2 96790 90868.5 95304.6 96790.5 99694 99233.5
          96269.2 99914 93257.2 100091 96079.1 96447.3 93782.5 91733.8 95594.2 96430.3 93562.3 97770.4
          92639.3 95497.6 94523.5 93914 97353.4 95893.4 95031.8 92412.3 92666.1 99968.7 99532.3 95599
          99001.2 91236.9 99925.9 91918.6 97966.6 91532 95247.9 94855.5 95081.8 95682.7 94233.5 99535.4
          94318.1 92810.9 97049.5 95871.6 94995.8 99041.2 99262.1 98974.6 92544.7 93054.5 97562.2 92820.1
          100315 93415.7 94062.1 96757.6 91860.5 95330.2 98350.8 98323.3 95939.5 92779.4 93411.9 96107.4
          95397.8 95467.7 95071.2 97397.1 98450.7 95317 95247.7 92745.7 93097.5 93673.4 96394.6 94015.3
          94312.5 96421.1 98292.9 94860.1 94133.7 95155.7 95165.7 94311.5 92851.6 98109.3 91152.4 99956.7
          100280 90863.3 90882.8 100234 91180.5 99909.6 92816.2 98132.3 93890.3 97074.5 96024.1 94893.2
          95814 95091.4 94335.9 96631.5 97116.4 98537.3 92402.5 97325 98074 92849 93834.9 97051.9
          90683.3 100384 95851.5 95021.4 90929.1 100105 94566.2 96303.5 93632 97264.6 94900.8 96051.1
          96381.1 94553.4 93127.3 94257 96672 97821.1 91477 99506.7 94377.8 96495.9 93001.9 97910.8
          90666.9 100405 90611.4 100471 93103.4 97769 95134.3 95812.5 95225.8 90922.2 95627.9 100098
          93354.3 99018 93460.6 97410.8 95260.1 95535.1 92032.4 98920.2 95958.6 94977.5 98530 93503.7
          93663.7 97435 97267 92000.6 98144.2 91949.7 98983.6 93007.2 93430.3 97936.2 97492.7 90567.7
          100525 94789.1 96064.3 96001.3 94892.3 92629.8 98303.4 90897 100171 90860.2 100185 92711.1
          98170.6 97485.9 91936.4 99142.4 91829.9 92760 98919.1 92828.1 98032.8 98056.7 98916 92072
          90651.6 100509 90639.5 100480 92139.2 98788.9 95033 91515.2 95789.6 99421.8 99251.7 91769.9
          90945.9 100180 90947 100148 91816.1 99128.9 92578.3 98340.5 92606.9 98260 94380.3 94874.7
          96608.7 96089.7 95744.8 96319 95134.5 94559.3 91911.9 92175.1 99062.5 98769.6 93453.8 93602.4
          97146.2 91476.8 93724.4 90906.3 99483.3 97269.9 93597.5 91372.4 99590.5 100109 97420.5 97244.7
          90816.9 100227 94153.5 93392.6 93368.2 97601.7 97611.8 92436.1 93933.8 95111.7 97114.2 95812.1
          94329.9 95243.2 95655.7 95697.2 95278.7 92934.2 92464.8 91589.3 98452.8 99346 91564 99367.2
          92511.6 98353.1 94897.1 96497.3 95990.1 92508.8 92217.5 98435.4 98722.1 96589.4 94328.7 97073.1
          93838.1 92996.1 97945 92978.8 97914.4 93710.3 93972.2 96973 97243 93902.5 93607.4 91890.6
          91544.6 99082.3 99420 91549.2 91919.1 99369.8 98971.6 94281.5 94156.5 96564.8 96680 91296.1
          99652.5 90771.5 100276 93906.9 96969.6 90569.8 100499 90464.3 100651 94042.9 96815.3 96571