<?xml version="1.0"?>
<VTKFile type="UnstructuredGrid" version="0.1" byte_order="LittleEndian">
  <UnstructuredGrid>
    <Piece NumberOfCells="1670" NumberOfPoints="911">
      <CellData Scalars="S_liqTrichloroethene">
        <DataArray type="Float32" Name="S_liqTrichloroethene" NumberOfComponents="1" format="ascii">
          0.778646 0.834371 0.830443 0.713123 0.721337 0.72128 0.833145 0.713475 0.829149 0.774262 0.799415 0.760491
          0.778773 0.789675 0.809597 0.755067 0.787629 0.781259 0.795456 0.766771 0.746669 0.814005 0.764422 0.753679
          0.809423 0.747969 0.767384 0.799651 0.770311 0.836065 0.787679 0.709736 0.781657 0.832833 0.716202 0.776503
          0.792368 0.814791 0.765818 0.755103 0.764466 0.801667 0.789976 0.792909 0.770937 0.795688 0.80651 0.773304
          0.826328 0.728372 0.774056 0.794356 0.756136 0.809441 0.708874 0.837399 0.836076 0.709803 0.757741 0.807353
          0.787361 0.781893 0.716471 0.787553 0.833108 0.806209 0.738416 0.762732 0.803549 0.783209 0.738495 0.787036
          0.820061 0.788852 0.773435 0.802825 0.801175 0.763809 0.753188 0.821126 0.739398 0.81959 0.767763 0.761311
          0.807849 0.803652 0.774208 0.771431 0.837791 0.777409 0.707326 0.791795 0.749259 0.779313 0.789651 0.750635
          0.813511 0.715563 0.834298 0.832957 0.716227 0.751847 0.81161 0.761901 0.736925 0.820663 0.822267 0.740496
          0.81236 0.753972 0.810021 0.819441 0.837383 0.708539 0.741135 0.836159 0.709072 0.741869 0.817844 0.780353
          0.729339 0.789398 0.826028 0.823058 0.833336 0.716515 0.735176 0.83206 0.716866 0.735609 0.82157 0.814663
          0.750132 0.750376 0.812383 0.795538 0.790638 0.778406 0.760939 0.787268 0.740807 0.792611 0.782278 0.736259
          0.776185 0.818403 0.821532 0.762472 0.764795 0.729202 0.80075 0.766348 0.716226 0.802186 0.764604 0.826041
          0.714821 0.804889 0.833034 0.803418 0.727672 0.827808 0.834627 0.798173 0.805789 0.805102 0.816733 0.780912
          0.80016 0.788285 0.753949 0.796378 0.782261 0.786758 0.786243 0.782554 0.811084 0.748236 0.81553 0.825877
          0.732003 0.731555 0.748765 0.824361 0.813693 0.773545 0.778848 0.790695 0.747155 0.742732 0.764524 0.762057
          0.772632 0.795036 0.766912 0.799609 0.756529 0.810207 0.755958 0.80823 0.798447 0.801007 0.812321 0.815522
          0.800637 0.803646 0.821891 0.738045 0.826115 0.730912 0.73084 0.738361 0.824654 0.820325 0.781924 0.779689
          0.772308 0.771131 0.796707 0.797995 0.71343 0.725645 0.828658 0.835152 0.818298 0.767711 0.800366 0.705436
          0.83931 0.837672 0.706979 0.770267 0.797685 0.745305 0.773279 0.795183 0.789538 0.794304 0.774433 0.795716
          0.732273 0.824971 0.805403 0.782176 0.786152 0.779428 0.594606 0.585795 0.622717 0.628685 0.667432 0.68065
          0.678087 0.29523 0.685025 0.643093 0.671954 0.642734 0.329695 0.595685 0.675546 0.639796 0.419298 0.411319
          0.390035 0.506631 0.487322 0.547118 0.606598 0.616777 0.541766 0.532624 0.6481 0.552461 0.644506 0.602457
          0.60958 0.0843066 0.696838 0.632275 0.165208 0.555182 0.482893 0.47432 0.555518 0.391252 0.651759 0.637984
          0.693497 0.682354 0.667448 0.474096 0.560642 0.584679 0.594959 0.459952 0.65224 0.645893 0.333243 0.684954
          0.301818 0.617561 0.696581 0.671781 0.655452 0.659081 0.407939 0.696764 0.335856 0.628573 0.594859 0.601144
          0.694734 0.612584 0.605734 0.651035 0.62003 0.657708 0.601911 0.262447 0.170936 0.0773769 0.0783598 0.647177
          0.389261 0.657911 0.513397 0.501871 0.466489 0.476028 0.581538 0.535186 0.537211 0.653834 0.540653 0.45401
          0.564225 0.512323 0.566984 0.631662 0.639828 0.639335 0.388162 0.692832 0.628331 0.674346 0.568399 0.280674
          0.636937 0.531696 0.675146 0.594192 0.551303 0.552944 0.401914 0.589966 0.470008 0.522925 0.508895 0.411467
          0.455272 0.327124 0.325412 0.660438 0.452896 0.645779 0.694438 0.31321 0.320486 0.375306 0.663634 0.622377
          0.448186 0.45454 0.604978 0.664836 0.628882 0.572016 0.644516 0.582149 0.683711 0.497776 0.612112 0.601932
          0.697282 0.649964 0.0720593 0.447992 0.684451 0.50492 0.663767 0.687202 0.418484 0.581483 0.581089 0.694529
          0.620691 0.521364 0.621921 0.663769 0.592641 0.660899 0.504542 0.637735 0.476051 0.158728 0.1598 0.567855
          0.689368 0.170769 0.173948 0.670642 0.689402 0.593708 0.385128 0.693615 0.663486 0.459435 0.642301 0.645241
          0.466203 0.685476 0.66967 0.694443 0.676621 0.673656 0.653219 0.696429 0.424031 0.569074 0.352194 0.626007
          0.665973 0.568639 0.689232 0.319421 0.660122 0.687945 0.596282 0.690106 0.0745438 0.0769144 0.393514 0.51678
          0.673416 0.606851 0.260683 0.250233 0.414471 0.563972 0.695034 0.653665 0.272308 0.275851 0.67772 0.502705
          0.564486 0.16066 0.154287 0.659537 0.685536 0.571697 0.571739 0.597026 0.604096 0.669139 0.67951 0.687464
          0.680335 0.331894 0.438163 0.637798 0.667561 0.582885 0.579621 0.59737 0.54324 0.581897 0.676666 0.669623
          0.423673 0.520534 0.387037 0.540934 0.539668 0.684277 0.678405 0.685529 0.522815 0.675195 0.547121 0.473211
          0.320568 0.504103 0.637891 0.273643 0.278231 0.649652 0.558497 0.668448 0.651069 0.65297 0.544001 0.53053
          0.611801 0.479531 0.641458 0.638411 0.604865 0.688908 0.67741 0.612734 0.480537 0.659015 0.53354 0.599785
          0.681488 0.642084 0.649411 0.624822 0.612648 0.697292 0.497288 0.659886 0.683784 0.615035 0.63435 0.638898
          0.617714 0.680249 0.2423 0.5708 0.352433 0.678458 0.697592 0.581262 0.627606 0.54106 0.519774 0.668656
          0.1473 0.493213 0.57338 0.657099 0.43709 0.673303 0.668901 0.664524 0.623486 0.666329 0.686646 0.512397
          0.236613 0.229809 0.69821 0.664453 0.402338 0.659678 0.630759 0.62938 0.651531 0.691477 0.613663 0.663969
          0.657255 0.0586113 0.0641686 0.694878 0.291089 0.691534 0.672154 0.163318 0.163313 0.584431 0.682625 0.697412
          0.675945 0.585068 0.377198 0.657138 0.651497 0.623697 0.694945 0.355187 0.0508048 0.699254 0.0523212 0.656152
          0.506567 0.686112 0.631946 0.632918 0.545503 0.560501 0.690016 0.616429 0.694509 0.672416 0.569246 0.471113
          0.371655 0.620716 0.555361 0.634171 0.661958 0.65013 0.160218 0.155242 0.695368 0.654277 0.670474 0.557978
          0.68965 0.435705 0.667217 0.661695 0.461496 0.61739 0.676537 0.646346 0.617818 0.625468 0.688439 0.568861
          0.632527 0.445362 0.423732 0.626006 0.629088 0.680577 0.661282 0.549146 0.53973 0.69578 0.639192 0.67944
          0.679402 0.400879 0.393275 0.674697 0.29147 0.35203 0.447468 0.445518 0.654906 0.65986 0.68587 0.69377
          0.683609 0.405058 0.48785 0.406587 0.466535 0.554632 0.643989 0.69452 0.485867 0.670911 0.649362 0.634607
          0.649327 0.695772 0.523953 0.697786 0.696323 0.617483 0.506182 0.537631 0.479058 0.529516 0.57086 0.498306
          0.471498 0.453025 0.413747 0.614365 0.560634 0.666901 0.670199 0.410583 0.689447 0.571237 0.6386 0.671081
          0.415984 0.563645 0.371572 0.645697 0.428687 0.342617 0.682045 0.65184 0.683771 0.503137 0.673974 0.685217
          0.677534 0.679446 0.17986 0.537114 0.403968 0.387457 0.54084 0.526944 0.53546 0.472776 0.653582 0.569721
          0.387122 0.347416 0.632122 0.0914325 0.513135 0.646796 0.683866 0.643692 0.689039 0.671508 0.693791 0.666348
          0.433779 0.671022 0.672954 0.678918 0.648179 0.64575 0.610411 0.671001 0.659553 0.400286 0.563914 0.694358
          0.62822 0.546941 0.66972 0.656814 0.286795 0.288696 0.328464 0.679869 0.653068 0.658155 0.613962 0.438345
          0.389025 0.319598 0.641346 0.620395 0.483219 0.477729 0.649494 0.693032 0.686434 0.0785313 0.079137 0.697428
          0.0761013 0.590079 0.263706 0.272819 0.538859 0.467071 0.505858 0.342197 0.646103 0.674361 0.171119 0.237522
          0.232877 0.412697 0.44758 0.380969 0.542639 0.675222 0.584693 0.665483 0.598693 0.555176 0.271687 0.442435
          0.500294 0.621135 0.591291 0.661913 0.578403 0.61911 0.543659 0.61933 0.676118 0.660399 0.609697 0.49694
          0.604408 0.592659 0.152609 0.152086 0.593929 0.566177 0.531161 0.58889 0.543183 0.504129 0.422161 0.626985
          0.531067 0.531103 0.481115 0.696231 0.670923 0.60239 0.682637 0.592976 0.664108 0.693597 0.64282 0.442683
          0.509731 0.646575 0.696983 0.607485 0.583033 0.654328 0.636614 0.660082 0.576 0.260743 0.254382 0.675037
          0.51451 0.608729 0.677726 0.593663 0.162043 0.158354 0.61177 0.653261 0.62816 0.584319 0.635692 0.617541
          0.636568 0.690599 0.382494 0.694478 0.642078 0.67139 0.685951 0.695106 0.56629 0.676613 0.662722 0.570504
          0.516367 0.680603 0.654531 0.63531 0.696952 0.594647 0.563674 0.602689 0.662023 0.596959 0.601166 0.670218
          0.66802 0.637886 0.368043 0.64774 0.600021 0.165004 0.164978 0.468973 0.668777 0.334649 0.492486 0.698095
          0.695443 0.679677 0.322218 0.604649 0.0665581 0.0669261 0.686031 0.542859 0.251036 0.640265 0.31387 0.695681
          0.472647 0.150748 0.629917 0.689938 0.612234 0.596748 0.605364 0.453977 0.635568 0.447936 0.622042 0.613129
          0.490242 0.509632 0.566408 0.646589 0.680757 0.625919 0.634136 0.553467 0.652911 0.641161 0.66576 0.659006
          0.557148 0.47219 0.633451 0.650147 0.301516 0.422069 0.648325 0.671951 0.629965 0.618058 0.569777 0.680982
          0.661108 0.357399 0.620398 0.574594 0.667167 0.626892 0.682514 0.687612 0.671009 0.619419 0.568836 0.532923
          0.611042 0.427366 0.659767 0.67817 0.58887 0.697182 0.581345 0.383477 0.677414 0.528913 0.638592 0.0650519
          0.0645357 0.659788 0.688621 0.0608158 0.0654936 0.663036 0.659815 0.644208 0.593664 0.497675 0.60745 0.171214
          0.16713 0.63328 0.596428 0.360504 0.689969 0.698075 0.685702 0.610523 0.625152 0.369116 0.656097 0.694661
          0.69063 0.628222 0.68458 0.464981 0.55986 0.665352 0.446388 0.6892 0.582273 0.581093 0.667648 0.588921
          0.669623 0.642288 0.30255 0.310584 0.579109 0.686003 0.636624 0.577883 0.63239 0.587181 0.633928 0.688183
          0.62125 0.62495 0.68061 0.676829 0.624167 0.538992 0.678459 0.66369 0.66826 0.561803 0.660236 0.628
          0.560371 0.634255 0.435067 0.626112 0.617572 0.688243 0.3433 0.32173 0.682412 0.675161 0.674226 0.665457
          0.595056 0.686557 0.258421 0.252677 0.270132 0.274217 0.556208 0.573239 0.61495 0.605459 0.479377 0.470891
          0.507287 0.513399 0.554775 0.568917 0.56603 0.223719 0.573617 0.528537 0.5597 0.528143 0.251233 0.480375
          0.563309 0.52497 0.324236 0.317645 0.300036 0.398704 0.381881 0.434845 0.491075 0.501241 0.429983 0.421736
          0.533867 0.439729 0.530042 0.487006 0.494044 0.0621007 0.586191 0.517118 0.123029 0.442189 0.378071 0.370674
          0.4425 0.301004 0.537606 0.523163 0.582217 0.570856 0.554624 0.370505 0.44725 0.469799 0.479674 0.358389
          0.538328 0.531525 0.254097 0.573716 0.228937 0.502101 0.585361 0.559312 0.541792 0.545702 0.314851 0.586009
          0.256037 0.513316 0.479624 0.485749 0.583898 0.497104 0.490209 0.536854 0.504579 0.54403 0.486508 0.197812
          0.127429 0.0570046 0.0577249 0.532785 0.29937 0.544215 0.404657 0.394521 0.363962 0.372153 0.466804 0.424061
          0.425868 0.540027 0.428953 0.353361 0.450571 0.4037 0.453137 0.516499 0.525106 0.524508 0.298462 0.58236
          0.513057 0.56199 0.454456 0.212075 0.522014 0.420911 0.563168 0.478966 0.438668 0.440169 0.309837 0.474853
          0.367019 0.413067 0.400692 0.317708 0.354438 0.247759 0.24903 0.54695 0.352407 0.531319 0.583462 0.237937
          0.243718 0.287945 0.550492 0.506994 0.348427 0.353845 0.489509 0.551939 0.51366 0.45784 0.529896 0.467365
          0.572182 0.390942 0.496603 0.486515 0.586369 0.53579 0.0530815 0.348288 0.572812 0.397189 0.550701 0.57569
          0.323583 0.466775 0.466369 0.583609 0.50526 0.411703 0.506523 0.550678 0.47747 0.547657 0.396858 0.522861
          0.372181 0.118243 0.119028 0.453949 0.578643 0.1273 0.1297 0.557997 0.578422 0.478478 0.295993 0.583263
          0.550493 0.357971 0.527621 0.530683 0.363763 0.574424 0.556947 0.583718 0.56448 0.561347 0.53929 0.586069
          0.328187 0.455047 0.269264 0.510711 0.553006 0.454643 0.578015 0.242874 0.546782 0.576652 0.481007 0.579284
          0.0549345 0.056677 0.302875 0.407654 0.561281 0.491357 0.196433 0.188343 0.320188 0.450299 0.584491 0.539719
          0.205554 0.208248 0.565718 0.395252 0.450811 0.114795 0.119606 0.546037 0.57427 0.457536 0.457579 0.48172
          0.488649 0.556353 0.567574 0.576104 0.568449 0.252917 0.339994 0.52282 0.554668 0.468111 0.465008 0.482071
          0.431311 0.467132 0.564659 0.556957 0.327883 0.41095 0.297574 0.429211 0.428091 0.572706 0.566356 0.574028
          0.412967 0.563229 0.434821 0.369751 0.243932 0.39646 0.52304 0.206625 0.210181 0.535411 0.445253 0.555856
          0.537052 0.538966 0.431994 0.41986 0.496282 0.375155 0.526698 0.523521 0.489417 0.577628 0.565588 0.497241
          0.376028 0.545465 0.422579 0.484398 0.570034 0.527352 0.535171 0.509414 0.497148 0.587229 0.39055 0.546414
          0.572584 0.499521 0.519329 0.524079 0.502217 0.568739 0.182125 0.456684 0.269383 0.566494 0.586667 0.466564
          0.512336 0.429319 0.41029 0.555996 0.109497 0.386996 0.459108 0.543558 0.339094 0.561064 0.556276 0.551607
          0.508071 0.553532 0.575615 0.403781 0.177821 0.172553 0.588012 0.551321 0.310144 0.546265 0.515493 0.51408
          0.537515 0.580363 0.498168 0.550757 0.543706 0.0431598 0.0472665 0.583773 0.220446 0.580934 0.559832 0.121514
          0.121474 0.469582 0.571265 0.586931 0.563878 0.470183 0.289492 0.543491 0.537443 0.508244 0.584035 0.271667
          0.0385251 0.0374003 0.588592 0.542411 0.398619 0.574581 0.516852 0.517866 0.433378 0.447114 0.579176 0.500878
          0.583968 0.560044 0.45522 0.367942 0.284961 0.50521 0.442349 0.519037 0.548701 0.536009 0.11917 0.115403
          0.584513 0.540463 0.558053 0.44477 0.578342 0.337935 0.55432 0.548333 0.359721 0.5019 0.564569 0.531974
          0.502358 0.510153 0.5776 0.454857 0.517342 0.346087 0.327932 0.510673 0.513845 0.56896 0.548032 0.436695
          0.428143 0.585511 0.524307 0.567844 0.567753 0.308986 0.30271 0.562656 0.628735 0.648507 0.593069 0.693433
          0.689279 0.595941 0.689903 0.597001 0.694113 0.594178 0.632758 0.644255 0.62963 0.64766 0.619564 0.659579
          0.615533 0.66461 0.627487 0.650014 0.672195 0.622589 0.655851 0.666938 0.62066 0.658083 0.671629 0.609928
          0.63414 0.642961 0.592857 0.694298 0.629254 0.648035 0.691411 0.595201 0.666182 0.614201 0.629392 0.648102
          0.62933 0.64826 0.636218 0.651254 0.626635 0.640785 0.627074 0.650252 0.684639 0.600205 0.591769 0.694925
          0.6143 0.664949 0.66529 0.614876 0.695407 0.592809 0.633895 0.643397 0.595127 0.640323 0.690729 0.636734
          0.603035 0.660546 0.678723 0.604661 0.605287 0.677611 0.639175 0.637869 0.628899 0.648787 0.657174 0.645003
          0.650247 0.632284 0.627554 0.611836 0.67805 0.668034 0.612832 0.642315 0.655465 0.634742 0.622951 0.64486
          0.632384 0.591548 0.695079 0.61144 0.669815 0.593929 0.691947 0.610581 0.669615 0.669953 0.611329 0.692429
          0.594972 0.679247 0.61788 0.618968 0.660256 0.60389 0.667885 0.677592 0.605581 0.659812 0.695445 0.591548
          0.605013 0.676799 0.677206 0.605895 0.696037 0.592399 0.601194 0.642001 0.6835 0.635071 0.691654 0.594218
          0.602027 0.680809 0.681274 0.602989 0.692225 0.595199 0.609753 0.670315 0.670389 0.610977 0.621264 0.619971
          0.657334 0.659263 0.60652 0.603971 0.676172 0.679576 0.628808 0.635181 0.648445 0.641934 0.593874 0.598568
          0.600398 0.620532 0.684596 0.619273 0.657572 0.595132 0.692061 0.657529 0.621182 0.659094 0.691923 0.684857
          0.659613 0.619455 0.60646 0.621393 0.625831 0.656185 0.6516 0.62071 0.618492 0.615145 0.660173 0.665393
          0.609932 0.624602 0.6246 0.653558 0.653614 0.61835 0.600314 0.6089 0.683065 0.671777 0.671903 0.609879
          0.683312 0.601493 0.61106 0.674637 0.671308 0.644025 0.649386 0.633169 0.628327 0.62128 0.657453 0.619002
          0.660212 0.613139 0.665629 0.665198 0.615011 0.635292 0.640307 0.636759 0.641819 0.614285 0.606478 0.599938
          0.603304 0.683646 0.679139 0.679508 0.684036 0.60431 0.600991 0.593553 0.598363 0.692323 0.685744 0.651354
          0.626512 0.650161 0.627573 0.590726 0.696288 0.623668 0.65408 0.654569 0.623655 0.696532 0.592048 0.608751
          0.673126 0.639305 0.637896 0.641723 0.635404 0.601482 0.681793 0.648165 0.629384 0.611466 0.62567 0.651793
          0.633841 0.64348
        </DataArray>
        <DataArray type="Float32" Name="S_liqSimpleH2O" NumberOfComponents="1" format="ascii">
          0.221354 0.165629 0.169557 0.286877 0.278663 0.27872 0.166855 0.286525 0.170851 0.225738 0.200585 0.239509
          0.221227 0.210325 0.190403 0.244933 0.212371 0.218741 0.204544 0.233229 0.253331 0.185995 0.235578 0.246322
          0.190577 0.252031 0.232617 0.200349 0.229689 0.163935 0.212321 0.290264 0.218343 0.167167 0.283798 0.223497
          0.207632 0.185209 0.234182 0.244897 0.235534 0.198333 0.210024 0.207091 0.229063 0.204312 0.19349 0.226696
          0.173672 0.271628 0.225944 0.205644 0.243864 0.190559 0.291126 0.162601 0.163924 0.290197 0.242259 0.192647
          0.212639 0.218107 0.283529 0.212446 0.166891 0.193791 0.261584 0.237268 0.196451 0.216791 0.261505 0.212964
          0.179939 0.211148 0.226565 0.197175 0.198825 0.236191 0.246812 0.178874 0.260602 0.18041 0.232237 0.238689
          0.192151 0.196348 0.225792 0.228569 0.162209 0.222591 0.292674 0.208205 0.250741 0.220687 0.210349 0.249365
          0.186489 0.284437 0.165702 0.167043 0.283773 0.248153 0.18839 0.238099 0.263075 0.179337 0.177733 0.259504
          0.18764 0.246028 0.189979 0.180559 0.162617 0.291461 0.258865 0.163841 0.290928 0.258131 0.182156 0.219647
          0.270661 0.210602 0.173972 0.176942 0.166664 0.283485 0.264824 0.16794 0.283134 0.264391 0.17843 0.185337
          0.249868 0.249624 0.187617 0.204462 0.209362 0.221594 0.239061 0.212732 0.259193 0.207389 0.217722 0.263741
          0.223815 0.181597 0.178468 0.237528 0.235205 0.270798 0.19925 0.233652 0.283774 0.197814 0.235396 0.173959
          0.285179 0.195111 0.166966 0.196582 0.272328 0.172192 0.165373 0.201827 0.194211 0.194898 0.183267 0.219088
          0.19984 0.211715 0.246051 0.203622 0.217739 0.213242 0.213757 0.217446 0.188916 0.251764 0.18447 0.174123
          0.267997 0.268445 0.251235 0.175639 0.186307 0.226455 0.221152 0.209305 0.252845 0.257268 0.235476 0.237943
          0.227368 0.204964 0.233088 0.200391 0.243471 0.189793 0.244042 0.19177 0.201553 0.198993 0.187679 0.184478
          0.199363 0.196354 0.178109 0.261955 0.173885 0.269088 0.26916 0.261639 0.175346 0.179675 0.218076 0.220311
          0.227692 0.228869 0.203293 0.202005 0.28657 0.274355 0.171342 0.164848 0.181702 0.232289 0.199634 0.294565
          0.16069 0.162328 0.293021 0.229733 0.202315 0.254695 0.226721 0.204817 0.210462 0.205696 0.225567 0.204284
          0.267727 0.175029 0.194597 0.217824 0.213848 0.220572 0.405394 0.414205 0.377283 0.371315 0.332568 0.31935
          0.321913 0.70477 0.314975 0.356907 0.328046 0.357266 0.670305 0.404315 0.324454 0.360204 0.580702 0.588681
          0.609965 0.493369 0.512678 0.452882 0.393402 0.383223 0.458234 0.467376 0.3519 0.447539 0.355494 0.397543
          0.39042 0.915693 0.303162 0.367725 0.834792 0.444818 0.517107 0.52568 0.444482 0.608748 0.348241 0.362016
          0.306503 0.317646 0.332552 0.525904 0.439358 0.415321 0.405041 0.540048 0.34776 0.354107 0.666757 0.315046
          0.698182 0.382439 0.303419 0.328219 0.344548 0.340919 0.592061 0.303236 0.664144 0.371427 0.405141 0.398856
          0.305266 0.387416 0.394266 0.348965 0.37997 0.342292 0.398089 0.737553 0.829064 0.922623 0.92164 0.352823
          0.610739 0.342089 0.486603 0.498129 0.533511 0.523972 0.418462 0.464815 0.462789 0.346166 0.459347 0.54599
          0.435775 0.487677 0.433016 0.368338 0.360172 0.360665 0.611838 0.307168 0.371669 0.325654 0.431601 0.719326
          0.363063 0.468304 0.324854 0.405808 0.448697 0.447057 0.598086 0.410034 0.529992 0.477075 0.491105 0.588533
          0.544728 0.672876 0.674588 0.339562 0.547104 0.354221 0.305562 0.68679 0.679514 0.624694 0.336366 0.377623
          0.551814 0.54546 0.395022 0.335164 0.371118 0.427984 0.355484 0.417851 0.316289 0.502224 0.387888 0.398068
          0.302718 0.350036 0.927941 0.552008 0.315549 0.49508 0.336233 0.312798 0.581515 0.418517 0.418911 0.305471
          0.379309 0.478636 0.37808 0.336231 0.407359 0.339101 0.495458 0.362265 0.523949 0.841272 0.8402 0.432145
          0.310632 0.829231 0.826052 0.329358 0.310598 0.406292 0.614872 0.306385 0.336514 0.540565 0.357699 0.354759
          0.533797 0.314524 0.33033 0.305557 0.323379 0.326344 0.346781 0.303571 0.575969 0.430926 0.647806 0.373993
          0.334027 0.431361 0.310768 0.680579 0.339878 0.312055 0.403718 0.309894 0.925456 0.923086 0.606486 0.48322
          0.326584 0.393149 0.739317 0.749767 0.585529 0.436028 0.304966 0.346335 0.727692 0.724149 0.32228 0.497295
          0.435514 0.83934 0.845713 0.340463 0.314464 0.428303 0.428261 0.402974 0.395904 0.330861 0.32049 0.312536
          0.319665 0.668106 0.561837 0.362202 0.332439 0.417115 0.420379 0.40263 0.45676 0.418103 0.323334 0.330377
          0.576327 0.479466 0.612963 0.459066 0.460332 0.315723 0.321595 0.314471 0.477185 0.324805 0.452879 0.526789
          0.679432 0.495897 0.362109 0.726357 0.721769 0.350348 0.441503 0.331552 0.348931 0.34703 0.455999 0.46947
          0.388199 0.520469 0.358542 0.361589 0.395135 0.311092 0.32259 0.387266 0.519463 0.340985 0.46646 0.400215
          0.318512 0.357916 0.350589 0.375178 0.387352 0.302708 0.502712 0.340114 0.316216 0.384965 0.36565 0.361102
          0.382286 0.319751 0.7577 0.4292 0.647567 0.321542 0.302408 0.418738 0.372394 0.45894 0.480226 0.331344
          0.8527 0.506787 0.42662 0.342901 0.56291 0.326697 0.331099 0.335476 0.376514 0.333671 0.313354 0.487603
          0.763387 0.770191 0.30179 0.335547 0.597662 0.340322 0.369241 0.37062 0.348469 0.308523 0.386337 0.336031
          0.342745 0.941389 0.935831 0.305122 0.708911 0.308466 0.327846 0.836682 0.836687 0.415569 0.317375 0.302588
          0.324055 0.414932 0.622802 0.342862 0.348503 0.376303 0.305055 0.644813 0.949195 0.300746 0.947679 0.343848
          0.493433 0.313888 0.368054 0.367082 0.454497 0.439499 0.309984 0.383571 0.305491 0.327584 0.430754 0.528887
          0.628345 0.379284 0.444639 0.365829 0.338042 0.34987 0.839782 0.844758 0.304632 0.345723 0.329526 0.442022
          0.31035 0.564295 0.332783 0.338305 0.538504 0.38261 0.323463 0.353654 0.382182 0.374532 0.311561 0.431139
          0.367473 0.554638 0.576268 0.373994 0.370912 0.319423 0.338718 0.450855 0.46027 0.30422 0.360808 0.32056
          0.320598 0.599121 0.606725 0.325303 0.70853 0.64797 0.552532 0.554482 0.345094 0.34014 0.31413 0.30623
          0.316391 0.594943 0.51215 0.593413 0.533465 0.445368 0.356011 0.30548 0.514133 0.329089 0.350638 0.365393
          0.350673 0.304228 0.476047 0.302214 0.303677 0.382517 0.493818 0.462369 0.520942 0.470484 0.42914 0.501694
          0.528502 0.546975 0.586253 0.385635 0.439366 0.333099 0.329801 0.589417 0.310553 0.428763 0.3614 0.328919
          0.584016 0.436355 0.628428 0.354303 0.571313 0.657383 0.317955 0.34816 0.316229 0.496863 0.326026 0.314783
          0.322466 0.320554 0.82014 0.462886 0.596032 0.612543 0.45916 0.473056 0.46454 0.527224 0.346418 0.430279
          0.612878 0.652584 0.367878 0.908567 0.486865 0.353204 0.316134 0.356308 0.310961 0.328492 0.306209 0.333652
          0.566221 0.328978 0.327046 0.321082 0.351821 0.354251 0.389589 0.328999 0.340447 0.599714 0.436086 0.305642
          0.37178 0.453059 0.33028 0.343186 0.713205 0.711304 0.671536 0.320131 0.346932 0.341845 0.386038 0.561655
          0.610975 0.680402 0.358654 0.379605 0.516781 0.522271 0.350506 0.306968 0.313566 0.921469 0.920863 0.302572
          0.923899 0.409921 0.736294 0.727181 0.46114 0.532929 0.494142 0.657803 0.353897 0.325639 0.828881 0.762478
          0.767123 0.587303 0.55242 0.619031 0.457361 0.324778 0.415307 0.334517 0.401307 0.444824 0.728313 0.557565
          0.499706 0.378865 0.408709 0.338087 0.421597 0.38089 0.456341 0.38067 0.323882 0.339601 0.390303 0.50306
          0.395592 0.407341 0.847391 0.847914 0.406071 0.433823 0.468839 0.41111 0.456817 0.495871 0.577839 0.373015
          0.468933 0.468897 0.518885 0.303769 0.329077 0.39761 0.317363 0.407024 0.335892 0.306403 0.35718 0.557317
          0.490269 0.353425 0.303017 0.392515 0.416967 0.345672 0.363386 0.339918 0.424 0.739257 0.745618 0.324963
          0.48549 0.391271 0.322274 0.406337 0.837957 0.841646 0.38823 0.346739 0.37184 0.415681 0.364308 0.382459
          0.363432 0.309401 0.617506 0.305522 0.357922 0.32861 0.314049 0.304894 0.43371 0.323387 0.337279 0.429496
          0.483633 0.319397 0.345469 0.36469 0.303048 0.405353 0.436326 0.397311 0.337977 0.403041 0.398834 0.329782
          0.33198 0.362114 0.631957 0.35226 0.399979 0.834996 0.835022 0.531027 0.331223 0.665351 0.507514 0.301905
          0.304557 0.320323 0.677782 0.395351 0.933442 0.933074 0.313969 0.457141 0.748964 0.359735 0.686131 0.304319
          0.527353 0.849252 0.370083 0.310062 0.387766 0.403252 0.394636 0.546023 0.364432 0.552064 0.377958 0.386871
          0.509758 0.490368 0.433592 0.353411 0.319243 0.374081 0.365864 0.446533 0.347089 0.358839 0.33424 0.340994
          0.442852 0.52781 0.366549 0.349853 0.698484 0.577931 0.351675 0.328049 0.370035 0.381942 0.430223 0.319018
          0.338892 0.642601 0.379602 0.425406 0.332833 0.373108 0.317486 0.312388 0.328991 0.380581 0.431164 0.467077
          0.388958 0.572634 0.340233 0.32183 0.41113 0.302818 0.418655 0.616523 0.322585 0.471087 0.361408 0.934948
          0.935464 0.340212 0.311379 0.939184 0.934506 0.336964 0.340185 0.355792 0.406336 0.502325 0.39255 0.828786
          0.83287 0.36672 0.403572 0.639496 0.310031 0.301925 0.314298 0.389477 0.374848 0.630884 0.343903 0.305339
          0.30937 0.371778 0.31542 0.535019 0.44014 0.334648 0.553612 0.3108 0.417727 0.418907 0.332352 0.411079
          0.330377 0.357712 0.69745 0.689416 0.420891 0.313997 0.363376 0.422117 0.36761 0.412819 0.366072 0.311817
          0.37875 0.37505 0.31939 0.323171 0.375833 0.461008 0.321541 0.33631 0.33174 0.438198 0.339764 0.372
          0.439629 0.365745 0.564933 0.373888 0.382428 0.311757 0.6567 0.67827 0.317588 0.324839 0.325774 0.334543
          0.404944 0.313443 0.741579 0.747323 0.729868 0.725783 0.443792 0.426761 0.38505 0.394541 0.520623 0.529109
          0.492713 0.486601 0.445225 0.431083 0.43397 0.776281 0.426383 0.471463 0.4403 0.471857 0.748767 0.519625
          0.436691 0.47503 0.675764 0.682355 0.699964 0.601296 0.618119 0.565155 0.508925 0.498759 0.570017 0.578264
          0.466133 0.560271 0.469959 0.512994 0.505956 0.937899 0.413809 0.482882 0.876971 0.557811 0.621929 0.629326
          0.5575 0.698996 0.462394 0.476837 0.417783 0.429144 0.445376 0.629495 0.55275 0.530201 0.520326 0.641611
          0.461672 0.468475 0.745903 0.426284 0.771064 0.497899 0.414639 0.440688 0.458208 0.454298 0.685149 0.413991
          0.743963 0.486684 0.520376 0.514251 0.416102 0.502896 0.509791 0.463146 0.495421 0.45597 0.513492 0.802188
          0.872571 0.942995 0.942275 0.467215 0.70063 0.455785 0.595343 0.605479 0.636038 0.627847 0.533196 0.575939
          0.574132 0.459973 0.571047 0.646639 0.549429 0.5963 0.546863 0.483501 0.474894 0.475492 0.701538 0.41764
          0.486943 0.43801 0.545544 0.787925 0.477986 0.579089 0.436832 0.521034 0.561332 0.559831 0.690163 0.525147
          0.632981 0.586933 0.599308 0.682292 0.645562 0.752241 0.75097 0.45305 0.647593 0.468681 0.416538 0.762063
          0.756282 0.712055 0.449508 0.493006 0.651573 0.646155 0.510491 0.448061 0.48634 0.54216 0.470104 0.532635
          0.427818 0.609058 0.503397 0.513485 0.413631 0.46421 0.946919 0.651712 0.427188 0.602811 0.449299 0.42431
          0.676417 0.533225 0.533631 0.416391 0.49474 0.588297 0.493477 0.449322 0.52253 0.452343 0.603142 0.477139
          0.627819 0.881757 0.880972 0.546051 0.421357 0.8727 0.8703 0.442003 0.421578 0.521522 0.704007 0.416737
          0.449507 0.642029 0.472379 0.469317 0.636237 0.425576 0.443053 0.416282 0.43552 0.438653 0.46071 0.413931
          0.671813 0.544953 0.730736 0.489289 0.446994 0.545357 0.421985 0.757126 0.453218 0.423348 0.518993 0.420716
          0.945065 0.943323 0.697125 0.592346 0.438719 0.508643 0.803567 0.811657 0.679812 0.549701 0.415509 0.460281
          0.794446 0.791752 0.434282 0.604748 0.549189 0.885205 0.880394 0.453963 0.42573 0.542464 0.542421 0.51828
          0.511351 0.443647 0.432426 0.423896 0.431551 0.747083 0.660006 0.47718 0.445332 0.531889 0.534992 0.517929
          0.568689 0.532868 0.435341 0.443043 0.672117 0.58905 0.702426 0.570789 0.571909 0.427294 0.433644 0.425972
          0.587033 0.436771 0.565179 0.630249 0.756068 0.60354 0.47696 0.793375 0.789819 0.464589 0.554747 0.444144
          0.462948 0.461034 0.568006 0.58014 0.503718 0.624845 0.473302 0.476479 0.510583 0.422372 0.434412 0.502759
          0.623972 0.454535 0.577421 0.515602 0.429966 0.472648 0.464829 0.490586 0.502852 0.412771 0.609451 0.453586
          0.427416 0.500479 0.480671 0.475921 0.497783 0.431261 0.817875 0.543316 0.730617 0.433506 0.413333 0.533436
          0.487664 0.570681 0.58971 0.444004 0.890503 0.613004 0.540892 0.456442 0.660906 0.438936 0.443724 0.448393
          0.491929 0.446468 0.424385 0.596219 0.822179 0.827447 0.411988 0.448679 0.689856 0.453735 0.484507 0.48592
          0.462485 0.419637 0.501832 0.449243 0.456294 0.95684 0.952734 0.416227 0.779554 0.419066 0.440168 0.878486
          0.878526 0.530418 0.428735 0.413069 0.436122 0.529817 0.710508 0.456509 0.462557 0.491756 0.415965 0.728333