<?xml version="1.0"?>
<VTKFile type="UnstructuredGrid" version="0.1" byte_order="LittleEndian">
  <UnstructuredGrid>
    <Piece NumberOfCells="1670" NumberOfPoints="911">
      <CellData Scalars="porosity">
        <DataArray type="Float32" Name="porosity" NumberOfComponents="1" format="ascii">
          0.4 0.4 0.4 0.4 0.4 0.4 0.4 0.4 0.4 0.4 0.4 0.4
          0.4 0.4 0.4 0.4 0.4 0.4 0.4 0.4 0.4 0.4 0.4 0.4
          0.4 0.4 0.4 0.4 0.4 0.4 0.4 0.4 0.4 0.4 0.4 0.4
          0.4 0.4 0.4 0.4 0.4 0.4 0.4 0.4 0.4 0.4 0.4 0.4
          0.4 0.4 0.4 0.4 0.4 0.4 0.4 0.4 0.4 0.4 0.4 0.4
          0.4 0.4 0.4 0.4 0.4 0.4 0.4 0.4 0.4 0.4 0.4 0.4
          0.4 0.4 0.4 0.4 0.4 0.4 0.4 0.4 0.4 0.4 0.4 0.4
          0.4 0.4 0.4 0.4 0.4 0.4 0.4 0.4 0.4 0.4 0.4 0.4
          0.4 0.4 0.4 0.4 0.4 0.4 0.4 0.4 0.4 0.4 0.4 0.4
          0.4 0.4 0.4 0.4 0.4 0.4 0.4 0.4 0.4 0.4 0.4 0.4
          0.4 0.4 0.4 0.4 0.4 0.4 0.4 0.4 0.4 0.4 0.4 0.4
          0.4 0.4 0.4 0.4 0.4 0.4 0.4 0.4 0.4 0.4 0.4 0.4
          0.4 0.4 0.4 0.4 0.4 0.4 0.4 0.4 0.4 0.4 0.4 0.4
          0.4 0.4 0.4 0.4 0.4 0.4 0.4 0.4 0.4 0.4 0.4 0.4
          0.4 0.4 0.4 0.4 0.4 0.4 0.4 0.4 0.4 0.4 0.4 0.4
          0.4 0.4 0.4 0.4 0.4 0.4 0.4 0.4 0.4 0.4 0.4 0.4
          0.4 0.4 0.4 0.4 0.4 0.4 0.4 0.4 0.4 0.4 0.4 0.4
          0.4 0.4 0.4 0.4 0.4 0.4 0.4 0.4 0.4 0.4 0.4 0.4
          0.4 0.4 0.4 0.4 0.4 0.4 0.4 0.4 0.4 0.4 0.4 0.4
          0.4 0.4 0.4 0.4 0.4 0.4 0.4 0.4 0.4 0.4 0.4 0.4
          0.4 0.4 0.4 0.4 0.4 0.4 0.4 0.4 0.4 0.4 0.4 0.4
          0.4 0.4 0.4 0.4 0.4 0.4 0.4 0.4 0.4 0.4 0.4 0.4
          0.4 0.4 0.4 0.4 0.4 0.4 0.4 0.4 0.4 0.4 0.4 0.4
          0.4 0.4 0.4 0.4 0.4 0.4 0.4 0.4 0.4 0.4 0.4 0.4
          0.4 0.4 0.4 0.4 0.4 0.4 0.4 0.4 0.4 0.4 0.4 0.4
          0.4 0.4 0.4 0.4 0.4 0.4 0.4 0.4 0.4 0.4 0.4 0.4
          0.4 0.4 0.4 0.4 0.4 0.4 0.4 0.4 0.4 0.4 0.4 0.4
          0.4 0.4 0.4 0.4 0.4 0.4 0.4 0.4 0.4 0.4 0.4 0.4
          0.4 0.4 0.4 0.4 0.4 0.4 0.4 0.4 0.4 0.4 0.4 0.4
          0.4 0.4 0.4 0.4 0.4 0.4 0.4 0.4 0.4 0.4 0.4 0.4
          0.4 0.4 0.4 0.4 0.4 0.4 0.4 0.4 0.4 0.4 0.4 0.4
          0.4 0.4 0.4 0.4 0.4 0.4 0.4 0.4 0.4 0.4 0.4 0.4
          0.4 0.4 0.4 0.4 0.4 0.4 0.4 0.4 0.4 0.4 0.4 0.4
          0.4 0.4 0.4 0.4 0.4 0.4 0.4 0.4 0.4 0.4 0.4 0.4
          0.4 0.4 0.4 0.4 0.4 0.4 0.4 0.4 0.4 0.4 0.4 0.4
          0.4 0.4 0.4 0.4 0.4 0.4 0.4 0.4 0.4 0.4 0.4 0.4
          0.4 0.4 0.4 0.4 0.4 0.4 0.4 0.4 0.4 0.4 0.4 0.4
          0.4 0.4 0.4 0.4 0.4 0.4 0.4 0.4 0.4 0.4 0.4 0.4
          0.4 0.4 0.4 0.4 0.4 0.4 0.4 0.4 0.4 0.4 0.4 0.4
          0.4 0.4 0.4 0.4 0.4 0.4 0.4 0.4 0.4 0.4 0.4 0.4
          0.4 0.4 0.4 0.4 0.4 0.4 0.4 0.4 0.4 0.4 0.4 0.4
          0.4 0.4 0.4 0.4 0.4 0.4 0.4 0.4 0.4 0.4 0.4 0.4
          0.4 0.4 0.4 0.4 0.4 0.4 0.4 0.4 0.4 0.4 0.4 0.4
          0.4 0.4 0.4 0.4 0.4 0.4 0.4 0.4 0.4 0.4 0.4 0.4
          0.4 0.4 0.4 0.4 0.4 0.4 0.4 0.4 0.4 0.4 0.4 0.4
          0.4 0.4 0.4 0.4 0.4 0.4 0.4 0.4 0.4 0.4 0.4 0.4
          0.4 0.4 0.4 0.4 0.4 0.4 0.4 0.4 0.4 0.4 0.4 0.4
          0.4 0.4 0.4 0.4 0.4 0.4 0.4 0.4 0.4 0.4 0.4 0.4
          0.4 0.4 0.4 0.4 0.4 0.4 0.4 0.4 0.4 0.4 0.4 0.4
          0.4 0.4 0.4 0.4 0.4 0.4 0.4 0.4 0.4 0.4 0.4 0.4
          0.4 0.4 0.4 0.4 0.4 0.4 0.4 0.4 0.4 0.4 0.4 0.4
          0.4 0.4 0.4 0.4 0.4 0.4 0.4 0.4 0.4 0.4 0.4 0.4
          0.4 0.4 0.4 0.4 0.4 0.4 0.4 0.4 0.4 0.4 0.4 0.4
          0.4 0.4 0.4 0.4 0.4 0.4 0.4 0.4 0.4 0.4 0.4 0.4
          0.4 0.4 0.4 0.4 0.4 0.4 0.4 0.4 0.4 0.4 0.4 0.4
          0.4 0.4 0.4 0.4 0.4 0.4 0.4 0.4 0.4 0.4 0.4 0.4
          0.4 0.4 0.4 0.4 0.4 0.4 0.4 0.4 0.4 0.4 0.4 0.4
          0.4 0.4 0.4 0.4 0.4 0.4 0.4 0.4 0.4 0.4 0.4 0.4
          0.4 0.4 0.4 0.4 0.4 0.4 0.4 0.4 0.4 0.4 0.4 0.4
          0.4 0.4 0.4 0.4 0.4 0.4 0.4 0.4 0.4 0.4 0.4 0.4
          0.4 0.4 0.4 0.4 0.4 0.4 0.4 0.4 0.4 0.4 0.4 0.4
          0.4 0.4 0.4 0.4 0.4 0.4 0.4 0.4 0.4 0.4 0.4 0.4
          0.4 0.4 0.4 0.4 0.4 0.4 0.4 0.4 0.4 0.4 0.4 0.4
          0.4 0.4 0.4 0.4 0.4 0.4 0.4 0.4 0.4 0.4 0.4 0.4
          0.4 0.4 0.4 0.4 0.4 0.4 0.4 0.4 0.4 0.4 0.4 0.4
          0.4 0.4 0.4 0.4 0.4 0.4 0.4 0.4 0.4 0.4 0.4 0.4
          0.4 0.4 0.4 0.4 0.4 0.4 0.4 0.4 0.4 0.4 0.4 0.4
          0.4 0.4 0.4 0.4 0.4 0.4 0.4 0.4 0.4 0.4 0.4 0.4
          0.4 0.4 0.4 0.4 0.4 0.4 0.4 0.4 0.4 0.4 0.4 0.4
          0.4 0.4 0.4 0.4 0.4 0.4 0.4 0.4 0.4 0.4 0.4 0.4
          0.4 0.4 0.4 0.4 0.4 0.4 0.4 0.4 0.4 0.4 0.4 0.4
          0.4 0.4 0.4 0.4 0.4 0.4 0.4 0.4 0.4 0.4 0.4 0.4
          0.4 0.4 0.4 0.4 0.4 0.4 0.4 0.4 0.4 0.4 0.4 0.4
          0.4 0.4 0.4 0.4 0.4 0.4 0.4 0.4 0.4 0.4 0.4 0.4
          0.4 0.4 0.4 0.4 0.4 0.4 0.4 0.4 0.4 0.4 0.4 0.4
          0.4 0.4 0.4 0.4 0.4 0.4 0.4 0.4 0.4 0.4 0.4 0.4
          0.4 0.4 0.4 0.4 0.4 0.4 0.4 0.4 0.4 0.4 0.4 0.4
          0.4 0.4 0.4 0.4 0.4 0.4 0.4 0.4 0.4 0.4 0.4 0.4
          0.4 0.4 0.4 0.4 0.4 0.4 0.4 0.4 0.4 0.4 0.4 0.4
          0.4 0.4 0.4 0.4 0.4 0.4 0.4 0.4 0.4 0.4 0.4 0.4
          0.4 0.4 0.4 0.4 0.4 0.4 0.4 0.4 0.4 0.4 0.4 0.4
          0.4 0.4 0.4 0.4 0.4 0.4 0.4 0.4 0.4 0.4 0.4 0.4
          0.4 0.4 0.4 0.4 0.4 0.4 0.4 0.4 0.4 0.4 0.4 0.4
          0.4 0.4 0.4 0.4 0.4 0.4 0.4 0.4 0.4 0.4 0.4 0.4
          0.4 0.4 0.4 0.4 0.4 0.4 0.4 0.4 0.4 0.4 0.4 0.4
          0.4 0.4 0.4 0.4 0.4 0.4 0.4 0.4 0.4 0.4 0.4 0.4
          0.4 0.4 0.4 0.4 0.4 0.4 0.4 0.4 0.4 0.4 0.4 0.4
          0.4 0.4 0.4 0.4 0.4 0.4 0.4 0.4 0.4 0.4 0.4 0.4
          0.4 0.4 0.4 0.4 0.4 0.4 0.4 0.4 0.4 0.4 0.4 0.4
          0.4 0.4 0.4 0.4 0.4 0.4 0.4 0.4 0.4 0.4 0.4 0.4
          0.4 0.4 0.4 0.4 0.4 0.4 0.4 0.4 0.4 0.4 0.4 0.4
          0.4 0.4 0.4 0.4 0.4 0.4 0.4 0.4 0.4 0.4 0.4 0.4
          0.4 0.4 0.4 0.4 0.4 0.4 0.4 0.4 0.4 0.4 0.4 0.4
          0.4 0.4 0.4 0.4 0.4 0.4 0.4 0.4 0.4 0.4 0.4 0.4
          0.4 0.4 0.4 0.4 0.4 0.4 0.4 0.4 0.4 0.4 0.4 0.4
          0.4 0.4 0.4 0.4 0.4 0.4 0.4 0.4 0.4 0.4 0.4 0.4
          0.4 0.4 0.4 0.4 0.4 0.4 0.4 0.4 0.4 0.4 0.4 0.4
          0.4 0.4 0.4 0.4 0.4 0.4 0.4 0.4 0.4 0.4 0.4 0.4
          0.4 0.4 0.4 0.4 0.4 0.4 0.4 0.4 0.4 0.4 0.4 0.4
          0.4 0.4 0.4 0.4 0.4 0.4 0.4 0.4 0.4 0.4 0.4 0.4
          0.4 0.4 0.4 0.4 0.4 0.4 0.4 0.4 0.4 0.4 0.4 0.4
          0.4 0.4 0.4 0.4 0.4 0.4 0.4 0.4 0.4 0.4 0.4 0.4
          0.4 0.4 0.4 0.4 0.4 0.4 0.4 0.4 0.4 0.4 0.4 0.4
          0.4 0.4 0.4 0.4 0.4 0.4 0.4 0.4 0.4 0.4 0.4 0.4
          0.4 0.4 0.4 0.4 0.4 0.4 0.4 0.4 0.4 0.4 0.4 0.4
          0.4 0.4 0.4 0.4 0.4 0.4 0.4 0.4 0.4 0.4 0.4 0.4
          0.4 0.4 0.4 0.4 0.4 0.4 0.4 0.4 0.4 0.4 0.4 0.4
          0.4 0.4 0.4 0.4 0.4 0.4 0.4 0.4 0.4 0.4 0.4 0.4
          0.4 0.4 0.4 0.4 0.4 0.4 0.4 0.4 0.4 0.4 0.4 0.4
          0.4 0.4 0.4 0.4 0.4 0.4 0.4 0.4 0.4 0.4 0.4 0.4
          0.4 0.4 0.4 0.4 0.4 0.4 0.4 0.4 0.4 0.4 0.4 0.4
          0.4 0.4 0.4 0.4 0.4 0.4 0.4 0.4 0.4 0.4 0.4 0.4
          0.4 0.4 0.4 0.4 0.4 0.4 0.4 0.4 0.4 0.4 0.4 0.4
          0.4 0.4 0.4 0.4 0.4 0.4 0.4 0.4 0.4 0.4 0.4 0.4
          0.4 0.4 0.4 0.4 0.4 0.4 0.4 0.4 0.4 0.4 0.4 0.4
          0.4 0.4 0.4 0.4 0.4 0.4 0.4 0.4 0.4 0.4 0.4 0.4
          0.4 0.4 0.4 0.4 0.4 0.4 0.4 0.4 0.4 0.4 0.4 0.4
          0.4 0.4 0.4 0.4 0.4 0.4 0.4 0.4 0.4 0.4 0.4 0.4
          0.4 0.4 0.4 0.4 0.4 0.4 0.4 0.4 0.4 0.4 0.4 0.4
          0.4 0.4 0.4 0.4 0.4 0.4 0.4 0.4 0.4 0.4 0.4 0.4
          0.4 0.4 0.4 0.4 0.4 0.4 0.4 0.4 0.4 0.4 0.4 0.4
          0.4 0.4 0.4 0.4 0.4 0.4 0.4 0.4 0.4 0.4 0.4 0.4
          0.4 0.4 0.4 0.4 0.4 0.4 0.4 0.4 0.4 0.4 0.4 0.4
          0.4 0.4 0.4 0.4 0.4 0.4 0.4 0.4 0.4 0.4 0.4 0.4
          0.4 0.4 0.4 0.4 0.4 0.4 0.4 0.4 0.4 0.4 0.4 0.4
          0.4 0.4 0.4 0.4 0.4 0.4 0.4 0.4 0.4 0.4 0.4 0.4
          0.4 0.4 0.4 0.4 0.4 0.4 0.4 0.4 0.4 0.4 0.4 0.4
          0.4 0.4 0.4 0.4 0.4 0.4 0.4 0.4 0.4 0.4 0.4 0.4
          0.4 0.4 0.4 0.4 0.4 0.4 0.4 0.4 0.4 0.4 0.4 0.4
          0.4 0.4 0.4 0.4 0.4 0.4 0.4 0.4 0.4 0.4 0.4 0.4
          0.4 0.4 0.4 0.4 0.4 0.4 0.4 0.4 0.4 0.4 0.4 0.4
          0.4 0.4 0.4 0.4 0.4 0.4 0.4 0.4 0.4 0.4 0.4 0.4
          0.4 0.4 0.4 0.4 0.4 0.4 0.4 0.4 0.4 0.4 0.4 0.4
          0.4 0.4 0.4 0.4 0.4 0.4 0.4 0.4 0.4 0.4 0.4 0.4
          0.4 0.4 0.4 0.4 0.4 0.4 0.4 0.4 0.4 0.4 0.4 0.4
          0.4 0.4 0.4 0.4 0.4 0.4 0.4 0.4 0.4 0.4 0.4 0.4
          0.4 0.4 0.4 0.4 0.4 0.4 0.4 0.4 0.4 0.4 0.4 0.4
          0.4 0.4 0.4 0.4 0.4 0.4 0.4 0.4 0.4 0.4 0.4 0.4
          0.4 0.4 0.4 0.4 0.4 0.4 0.4 0.4 0.4 0.4 0.4 0.4
          0.4 0.4
        </DataArray>
        <DataArray type="Float32" Name="pc" NumberOfComponents="1" format="ascii">
          0.00274659 799.048 848.325 537.587 0 709.238 198.704 0 48.274 2.9766e-07 111.153 0
          22.9404 0 146.826 0 0 125.342 106.044 0 0 155.962 0 0
          93.1032 0 254.138 0 3.44342e-06 238.006 0 0 831.139 229.457 0 778.555
          0 183.897 4.74643e-12 0 45.6609 23.953 34.3735 22.5286 0 23.3281 143.278 0.00208008
          204.361 0 668.357 0 0 845.431 0 456.898 226.155 0 807.699 0
          18.2194 0 0 780.4 236.271 692.293 0 415.632 0 0 0 532.313
          188.263 3.56419 0 78.2045 71.8571 0 0 460.762 23.8715 166 0 0
          144.491 74.291 0 0 246.979 0 0 850.856 0 250.364 0 0
          801.897 8.50743 589.457 213.403 0 714.678 0 0 0 168.179 269.343 0
          685.286 349.893 24.4421 852.073 706.656 191.425 0 217.749 0 793.106 0 0
          0 695.018 215.748 801.561 754.936 330.07 0 195.354 0 666.268 33.1654 512.242
          0 91.9093 90.347 108.934 99.1294 0 0 0 0 0 478.262 0
          535.522 186.354 193.351 0 0 0 0 628.319 0 0 755.923 203.203
          0 810.58 224.584 764.759 0 249.039 310.512 563.58 144.104 140.732 199.503 0
          146.46 150.804 0 381.721 0 37.0507 0 19.872 200.292 0 751.211 602.603
          0 58.8601 492.017 172.049 23.447 0 0 350.19 0 0 0 0
          0 18.321 0 25.0586 0 332.666 11.8736 85.9254 72.5279 110.587 156.883 157.15
          257.292 566.693 756.123 0 713.818 0 289.843 456.202 170 47.0813 0.618927 0
          0 0 815.951 764.803 0 0 228.606 247.081 193.656 0 864.089 0
          270.738 238.023 0 845.127 0 0 311.614 0 18.0381 26.11 0 695.019
          0 215.227 380.712 0.0719532 3.66211 0.322759 0 0 0 0 0 0
          557.777 0 0 0 0 0 0 0 371.507 331.078 0 199.059
          205.071 0 0 0 0 0 0 0 0 253.62 0 0
          0 0 0 294.17 0 0 0 0 0 0 0 0
          610.091 0 0 0 0 0 0 0 0 0 210.714 0
          190.088 0 485.562 0 0 0 0 0 0 113.915 0 0
          0 0 0 0 0 0 0 0 0 0 0 280.374
          0 0 0 0 0 0 0 228.253 0 0 0 0
          0 0 235.075 0 0 0 0 0 0 0 0 0
          0 0 0 256.269 8.23804 0 0 0 0 0 0 0
          0 0 0 0 0 0 0 0 0 0 0 0
          0 0 289.553 0 0 0 0 0 0 0 0 0
          0 0 0 202.334 581.43 0 0 477.26 0 0 0 0
          0 0 0 0 34.8193 0 0 0 0 0 0 24.4279
          0 16.9298 0 0 0 0 31.6114 0 0 0 0 0
          7.95802 0 364.987 0 0 0 0 0 0 0 0 0
          181.806 0 0 0 0 0 0 0 2.93736 0 0 243.89
          0 0 0 0 0 0 0 424.174 0 0 18.4435 0
          0 0 0 0 0 0 0 0 0 0 197.948 0
          0 0 0 0 0 0 15.8948 0 0 0 0 0
          0 0 0 0 0 0 0 0 0 0 0 244.383
          33.6569 0 0 15.5629 0 0 0 0 0 0 0 0
          0 0 0 0 0 0 0 0 0 364.531 11.2576 0
          0 0 87.2253 0 0 0 229.132 191.262 0 259.03 0 0
          112.518 0 0 0 0 0 164.969 285.997 0 0 0 0
          0 8.42369 0 0 0 0 0 0 348.561 0 0 6.55484
          190.105 0 0 475.365 0 0 0 0 0 0 0 0
          0 0 0 236.652 0 0 0 160.237 0 0 0 0
          0 0 0 0 0 0 0 0 0 0 172.58 81.8835
          0 235.521 0 0 0 0 0 0 0 0 0 0
          0 0 0 0 0 0 193.088 0 0 0 0 0
          169.398 0 0 0 0 0 0 0 0 0 0 0
          0 0 0 0 0 0 0 0 0 0 0 0
          0 0 0 0 0 0 0 0 0 0 0 0
          0 0 0 0 0 241.869 0 0 0 0 0 0
          0 0 0 0 0 0 0 0 0 0 0 0
          0 0 202.475 0 0 0 0 0 0 0 0 0
          0 0 0 0 0 0 0 0 0 0 0 0
          143.444 9.84767 0 226.722 0 0 0 0 0 0 387.877 225.028
          209.431 0 0 0 0 0 0 0 0 0 0 0
          0 0 0 0 0 0 0 0 334.424 0 0 0
          0 0 0 0 0 92.5104 0 0 0 0 0 0
          113.409 0 0 0 0 0 0 0 0 0 0 0
          0 0 0 0 0 22.0873 0 113.414 0 0 0 0
          130.81 0 203.935 0 0 527.953 0 0 0 0 0 0
          0 0 0 200.669 0 0 0 0 0 0 0 0
          0 0 0 129.333 0 0 0 0 0 0 0 0
          0 0 0 0 0 0 0 0 0 623.013 0 0
          0 323.891 499.393 0 0 0 0 24.7451 0 0 0 0
          0 0 0 0 0 0 0 0 0 279.889 0 0
          0 0 0 245.47 0 0 0 0 0 0 0 0
          242.737 0 0 0 162.917 0 0 0 0 0 0 428.939
          0 0 0 0 0 0 0 0 230.153 0 23.1983 0
          0 470.369 0 0 0 0 0 0 0 402.385 0 0
          0 0 0 0 262.053 0 303.775 0 0 0 0 0
          0 0 0 0 297.527 0 0 0 0 0 0 0
          0 245.748 0 0 0 0 0 0 0 0 0 0
          0 0 270.063 65.8629 0 400.448 0 0 132.505 0 0 0
          0 0 0 0 60.1391 0 0 0 0 0 0 0
          173.834 0 206.77 0 0 0 0 93.5717 253.238 230.159 122.067 0
          197.986 0 124.972 0 0 0 0 0 140.217 0 0 0
          0 0 609.147 0 0 501.207 0 0 0 0 0 0
          0 0 215.143 0 0 17.2604 69.9623 0 154.129 0 348.178 0
          0 0 0 0 0 0 0 0 0 0 0 0
          0 0 0 0 0 518.543 208.425 162.359 0 0 0 0
          0 306.822 0 195.012 162.442 0 0 0 0 0 0 0
          0 0 0 0 0 164.912 0 0 0 0 161.412 200.543
          0 0 169.387 0 0 0 0 0 0 0 0 0
          0 0 0 0 0 0 0 0 0 0 0 0
          0 174.625 270.439 0 0 0 0 0 0 0 0 0
          0 0 0 0 0 0 0 0 0 0 0 0
          0 0 0 0 0 0 242.994 0 0 0 0 0
          0 0 0 0 0 223.969 0 0 0 0 0 0
          0 0 0 170.968 0 0 0 0 0 0 69.5122 0
          0 326.123 0 0 0 0 0 0 0 0 0 0
          0 0 0 0 0 0 0 33.3487 0 0 0 0
          0 0 0 0 0 0 0 0 0 0 222.03 222.202
          0 0 0 0 0 0 0 0 0 0 0 0
          0 0 0 0 0 0 0 0 0 0 0 0
          0 0 0 0 0 0 37.168 0 0 0 0 0
          0 0 0 0 0 0 0 0 0 0 0 0
          0 211.883 0 0 0 0 0 0 0 0 0 0
          0 2.90726 0 0 0 0 0 0 0 110.541 0 0
          0 0 0 0 0 0 0 0 0 0 0 0
          0 260.174 0 262.791 23.4571 70.278 0 275.131 48.3699 0 0 0
          0 0 0 0 0 0 0 0 0 371.671 254.059 23.9043
          204.721 0 106.82 0 0 0 0 0 35.6461 0 0 0
          0 0 0 0 0 201.299 0 0 0 0 0 0
          0 0 0 0 0 21.517 0 0 0 0 0 0
          0 0 0 0 0 0 0 0 0 0 0 0
          0 191.636 0 0 0 0 0 0 0 0 0 0
          0 0 0 0 0 164.238 0 0 0 0 237.226 49.9263
          0 294.032 0 346.646 0 0 0 0 0 0 0 0
          138.238 0 0 0 0 0 0 0 0 287.345 180.792 0
          0 150.481 309.673 0 188.046 0 0 0 0 0 0 213.489
          0 0 0 0 0 38.6461 237.323 10.7746 0 0 0 166.853
          428.364 0 0 0 0 0 0 0 0 0 0 0
          0 0 0 0 0 0 0 0 0 0 0 0
          0 0 0 0 0 0 0 0 0 0 0 476.52
          609.664 0 0 407.712 0 275.288 0 0 0 0 0 0
          0 0 0 0 0 0 0 0 0 0 0 0
          0 503.773 0 0 0 405.385 0 0 0 0 0 0
          0 0 0 0 0 0 0 192.685 0 0 0 0
          0 567.192 0 460.197 0 0 0 0 0 0 0 374.671
          0 32.0207 0 0 0 0 0 0 0 0 0 0
          0 0 0 0 0 0 0 0 0 0 0 0
          524.189 0 0 0 0 0 0 0 456.371 0 344.78 0
          0 0 0 0 0 0 22.2952 0 0 0 151.851 0
          0 617.335 0 463.827 0 0 0 0 0 127.877 203.103 0
          0 479.661 0 318.691 0 19.0054 0 0 0 0 0 0
          0 0 0 0 0 0 0 0 23.6592 0 0 0
          0 0 0 0 218.706 0 0 0 165.397 447.645 0 0
          0 373.321 0 0 0 0 0 0 0 0 0 0
          0 0 0 0 0 0 0 0 0 210.529 0 93.7033
          0 0 0 0 0 0 0 0 0 0 0 0
          0 0 0 0 0 0 0 0 0 0 0 0
          0 114.186 219.3 0 0 87.3437 0 0 0 0 0 0
          190.525 0 417.961 0 0 0 582.721 0 527.724 0 0 0
          0 0 0 0 0 0 0 0 77.6412 0 0 0
          0 0
        </DataArray>
        <DataArray type="Float32" Name="S_aq" NumberOfComponents="1" format="ascii">
          1 0.0671304 0.0637442 0.122357 1 0.0765336 0.854272 1 0.997466 1 0.988668 1
          0.998907 1 0.959554 1 1 0.980272 0.990862 1 1 0.94712 1 1
          0.993477 1 0.661825 1 1 0.72274 1 1 0.06482 0.754 1 0.0688473
          1 0.893124 1 1 0.99763 0.998855 0.998294 0.998928 1 0.998887 0.963757 1
          0.837646 1 0.0829632 1 1 0.0639183 1 0.177709 0.765775 1 0.0664652 1
          0.999145 1 1 0.068684 0.729163 0.0789879 1 0.225258 1 1 1 0.124939
          0.882395 0.99984 1 0.995172 0.995744 1 1 0.174088 0.998859 0.930591 1 1
          0.962358 0.995532 1 1 0.689055 1 1 0.0635942 1 0.676205 1 1
          0.0669077 0.999613 0.102007 0.809216 1 0.0758017 1 1 1 0.926585 0.603978 1
          0.0800861 0.347762 0.998829 0.0635228 0.0768903 0.874241 1 0.794812 1 0.0676071 1 1
          1 0.0785746 0.801497 0.0669338 0.071105 0.399738 1 0.863665 1 0.0833418 0.998361 0.13586
          1 0.99364 0.993844 0.989681 0.992521 1 1 1 1 1 0.159142 1
          0.123354 0.887161 0.869118 1 1 1 1 0.0912749 1 1 0.071004 0.841124
          1 0.066251 0.771308 0.0701266 1 0.681241 0.458649 0.111122 0.962808 0.966569 0.85198 1
          0.960003 0.954432 1 0.279794 1 0.998142 1 0.999063 0.8497 1 0.0714916 0.0980241
          1 0.996754 0.148895 0.919095 0.998881 1 1 0.347043 1 1 1 1
          1 0.99914 1 0.998797 1 0.392487 0.999454 0.994374 0.995686 0.988934 0.945732 0.945325
          0.649792 0.109926 0.0709835 1 0.0759156 1 0.528602 0.178375 0.923121 0.997541 0.999972 1
          1 1 0.0658608 0.0701224 1 1 0.757053 0.688666 0.868294 1 0.0628429 1
          0.598721 0.722674 1 0.0639367 1 1 0.455131 1 0.999154 0.998742 1 0.0785744
          1 0.803224 0.281678 0.999997 0.999836 0.999986 1 1 1 1 1 1
          0.113432 1 1 1 1 1 1 1 0.299657 0.396906 1 0.853256
          0.835492 1 1 1 1 1 1 1 1 0.663802 1 1
          1 1 1 0.513371 1 1 1 1 1 1 1 1
          0.0959251 1 1 1 1 1 1 1 1 1 0.817895 1
          0.877728 1 0.153553 1 1 1 1 1 1 0.987304 1 1
          1 1 1 1 1 1 1 1 1 1 1 0.562844
          1 1 1 1 1 1 1 0.758314 1 1 1 1
          1 1 0.733568 1 1 1 1 1 1 1 1 1
          1 1 1 0.653696 0.999625 1 1 1 1 1 1 1
          1 1 1 1 1 1 1 1 1 1 1 1
          1 1 0.529632 1 1 1 1 1 1 1 1 1
          1 1 1 0.843711 0.104642 1 1 0.159938 1 1 1 1
          1 1 1 1 0.998269 1 1 1 1 1 1 0.99883
          1 0.999209 1 1 1 1 0.998447 1 1 1 1 1
          0.999638 1 0.313271 1 1 1 1 1 1 1 1 1
          0.898042 1 1 1 1 1 1 1 0.999869 1 1 0.700727
          1 1 1 1 1 1 1 0.213927 1 1 0.999134 1
          1 1 1 1 1 1 1 1 1 1 0.856421 1
          1 1 1 1 1 1 0.99926 1 1 1 1 1
          1 1 1 1 1 1 1 1 1 1 1 0.698868
          0.998334 1 1 0.999276 1 1 1 1 1 1 1 1
          1 1 1 1 1 1 1 1 1 0.314252 0.999483 1
          1 1 0.994224 1 1 1 0.755165 0.874668 1 0.64316 1 1
          0.988009 1 1 1 1 1 0.932433 0.542369 1 1 1 1
          1 0.999617 1 1 1 1 1 1 0.351012 1 1 0.999703
          0.877684 1 1 0.161462 1 1 1 1 1 1 1 1
          1 1 1 0.727755 1 1 1 0.94046 1 1 1 1
          1 1 1 1 1 1 1 1 1 1 0.918029 0.994808
          1 0.731927 1 1 1 1 1 1 1 1 1 1
          1 1 1 1 1 1 0.869824 1 1 1 1 1
          0.924278 1 1 1 1 1 1 1 1 1 1 1
          1 1 1 1 1 1 1 1 1 1 1 1
          1 1 1 1 1 1 1 1 1 1 1 1
          1 1 1 1 1 0.708323 1 1 1 1 1 1
          1 1 1 1 1 1 1 1 1 1 1 1
          1 1 0.843294 1 1 1 1 1 1 1 1 1
          1 1 1 1 1 1 1 1 1 1 1 1
          0.963568 0.99955 1 0.763766 1 1 1 1 1 1 0.268643 0.76975
          0.821971 1 1 1 1 1 1 1 1 1 1 1
          1 1 1 1 1 1 1 1 0.387654 1 1 1
          1 1 1 1 1 0.993558 1 1 1 1 1 1
          0.987563 1 1 1 1 1 1 1 1 1 1 1
          1 1 1 1 1 0.998951 1 0.98756 1 1 1 1
          0.976013 1 0.838929 1 1 0.127159 1 1 1 1 1 1
          1 1 1 0.848602 1 1 1 1 1 1 1 1
          1 1 1 0.977226 1 1 1 1 1 1 1 1
          1 1 1 1 1 1 1 1 1 0.0925652 1 1
          1 0.417534 0.14388 1 1 1 1 0.998814 1 1 1 1
          1 1 1 1 1 1 1 1 1 0.564628 1 1
          1 1 1 0.694763 1 1 1 1 1 1 1 1
          0.705063 1 1 1 0.936 1 1 1 1 1 1 0.207973
          1 1 1 1 1 1 1 1 0.751492 1 0.998894 1
          1 0.165601 1 1 1 1 1 1 1 0.244634 1 1
          1 1 1 1 0.631634 1 0.480641 1 1 1 1 1
          1 1 1 1 0.501755 1 1 1 1 1 1 1
          1 0.693714 1 1 1 1 1 1 1 1 1 1
          1 1 0.601261 0.996232 1 0.247664 1 1 0.974563 1 1 1
          1 1 1 1 0.996662 1 1 1 1 1 1 1
          0.915477 1 0.830286 1 1 1 1 0.993411 0.665256 0.751471 0.982532 1
          0.856313 1 0.980538 1 1 1 1 1 0.967118 1 1 1
          1 1 0.0961834 1 1 0.142693 1 1 1 1 1 1
          1 1 0.8035 1 1 0.999193 0.995903 1 0.949807 1 0.351954 1
          1 1 1 1 1 1 1 1 1 1 1 1
          1 1 1 1 1 0.132233 0.825137 0.936947 1 1 1 1
          1 0.470589 1 0.864604 0.936807 1 1 1 1 1 1 1
          1 1 1 1 1 0.932534 1 1 1 1 0.938532 0.84897
          1 1 0.9243 1 1 1 1 1 1 1 1 1
          1 1 1 1 1 1 1 1 1 1 1 1
          1 0.91384 0.599845 1 1 1 1 1 1 1 1 1
          1 1 1 1 1 1 1 1 1 1 1 1
          1 1 1 1 1 1 0.704099 1 1 1 1 1
          1 1 1 1 1 0.773462 1 1 1 1 1 1
          1 1 1 0.921237 1 1 1 1 1 1 0.99594 1
          1 0.411018 1 1 1 1 1 1 1 1 1 1
          1 1 1 1 1 1 1 0.998351 1 1 1 1
          1 1 1 1 1 1 1 1 1 1 0.780205 0.779609
          1 1 1 1 1 1 1 1 1 1 1 1
          1 1 1 1 1 1 1 1 1 1 1 1
          1 1 1 1 1 1 0.998136 1 1 1 1 1
          1 1 1 1 1 1 1 1 1 1 1 1
          1 0.814144 1 1 1 1 1 1 1 1 1 1
          1 0.99987 1 1 1 1 1 1 1 0.988955 1 1
          1 1 1 1 1 1 1 1 1 1 1 1
          1 0.638797 1 0.628824 0.99888 0.995877 1 0.582258 0.99746 1 1 1
          1 1 1 1 1 1 1 1 1 0.299324 0.662126 0.998857
          0.836557 1 0.990577 1 1 1 1 1 0.998222 1 1 1
          1 1 1 1 1 0.84676 1 1 1 1 1 1
          1 1 1 1 1 0.99898 1 1 1 1 1 1
          1 1 1 1 1 1 1 1 1 1 1 1
          1 0.873685 1 1 1 1 1 1 1 1 1 1
          1 1 1 1 1 0.933719 1 1 1 1 0.72563 0.99736
          1 0.513851 1 0.355747 1 1 1 1 1 1 1 1
          0.969165 1 1 1 1 1 1 1 1 0.537518 0.900376 1
          1 0.954865 0.461343 1 0.882943 1 1 1 1 1 1 0.808935
          1 1 1 1 1 0.99805 0.72527 0.999506 1 1 1 0.929041
          0.208678 1 1 1 1 1 1 1 1 1 1 1
          1 1 1 1 1 1 1 1 1 1 1 1
          1 1 1 1 1 1 1 1 1 1 1 0.16053
          0.0960416 1 1 0.236566 1 0.581671 1 1 1 1 1 1
          1 1 1 1 1 1 1 1 1 1 1 1
          1 0.141047 1 1 1 0.240044 1 1 1 1 1 1
          1 1 1 1 1 1 1 0.870901 1 1 1 1
          1 0.109737 1 0.17461 1 1 1 1 1 1 1 0.293317
          1 0.998425 1 1 1 1 1 1 1 1 1 1
          1 1 1 1 1 1 1 1 1 1 1 1
          0.129142 1 1 1 1 1 1 1 0.178213 1 0.360427 1
          1 1 1 1 1 1 0.99894 1 1 1 0.953011 1
          1 0.0940024 1 0.171302 1 1 1 1 1 0.978376 0.841422 1
          1 0.158044 1 0.4331 1 0.999106 1 1 1 1 1 1
          1 1 1 1 1 1 1 1 0.99887 1 1 1
          1 1 1 1 0.791579 1 1 1 0.931673 0.186903 1 1
          1 0.296001 1 1 1 1 1 1 1 1 1 1
          1 1 1 1 1 1 1 1 1 0.818486 1 0.993392
          1 1 1 1 1 1 1 1 1 1 1 1
          1 1 1 1 1 1 1 1 1 1 1 1
          1 0.987164 0.789564 1 1 0.994211 1 1 1 1 1 1
          0.876593 1 0.222081 1 1 1 0.104207 1 0.127278 1 1 1
          1 1 1 1 1 1 1 1 0.995225 1 1 1
          1 1
        </DataArray>
        <DataArray type="Float32" Name="p_aq" NumberOfComponents="1" format="ascii">
          96414.9 100223 100639 99743.7 91012.9 100091 91300.9 91344.6 90974 96337.8 96367.3 95024.3
          97466.4 93611.9 96217.2 95204.4 93173.8 97912.9 96589.3 92631.8 97070.2 94006.4 93093.9 97289.8
          93781.7 94028.6 98429.3 92653.5 95662.7 95112.6 91009.8 95085.6 100316 94648.2 94623.1 99983.8
          91244.8 96185.2 95585.5 93812.1 97966.6 93113.8 96417.3 94622.9 96742.5 94310.8 95772.9 95238.7
          94522.9 94490.6 99360.9 91740.6 90984.3 100562 97911.3 97964.6 93135.3 93157 100206 90973.3
          95937 91283.3 95629.2 100023 95668.1 99082.2 93594.1 98936.8 92146.1 92245.3 95576.1 98823.6
          95664.1 94545 93826.4 94927.1 94455.8 96595.3 92189.6 98149.5 98117.4 92948.2 93609.3 97048.9
          95191.9 94021.6 94419 94684 96104.5 90926.5 96074.8 100510 94955.1 98308.8 92782.6 91248.9
          100248 98306.2 98368 92742.9 92766.2 99877.7 91234.5 92122.6 97503 93572.6 97531.2 92982.8
          98992.4 98866.1 92206.8 100693 99006.1 98822.1 90935.7 92216.2 92254.5 100215 90909.1 91815.5
          95806.8 99311.8 95870.6 100284 99414.6 99162.8 91265.6 91889 91924.9 99830.7 91235.6 98359
          92781.1 98299.5 92771.1 97245.8 97417.7 93647 96113.4 92309.8 95167.6 92102.4 98787.5 94722.4
          98992.7 95240.2 94765.8 91197.6 91689.7 93843.8 91706.3 99387.6 93656.2 91209.8 99963.4 93852.4
          97429.6 100256 93651 99616.8 97244.8 97279.7 97473.9 98724 97140 96661 97161.2 93175.1
          97503.1 97889.7 95883.6 98323.2 94126.5 96937.3 94092.6 96963.3 97415.4 91805.5 99497 98464.4
          92664.6 98412.9 99282.9 92646.6 91791.8 92512.4 92719.6 98324 96042.8 96506.9 94546.8 94064.9
          97322.5 93752.1 97510.9 93566.9 93176.2 97993 97905.1 93170.9 95391.5 95868.4 95003.3 94529
          97964.7 98636.2 99514.3 91818 99103 92146.5 98940.1 99269.8 92119.5 91793 94997.7 94563.9
          91145.6 91639.7 100271 99658.9 96558.3 96695 96727.3 96594.5 96622.4 90875.9 100641 96976.2
          97019.3 94104.6 94109.3 100391 90885.4 94509.3 98514.1 92575.4 95450.9 95232.3 91952.8 99206
          96389.5 96439.8 98179.9 95908.8 95012.6 95407.8 96221.2 96244.1 93399 93640.9 95795.5 98283.4
          100069 96059 98114.3 97160.5 95800.1 97603.8 95690.7 92024.5 99682.9 99759 94573.7 96221.2
          96166.2 94991.4 95129.8 96183.4 92781.6 92560.2 95178.4 94984 95639.4 98758.4 95334.7 93353.5
          93637.8 95508.8 93206 99400.3 95838.6 93337.2 95349.4 95255.1 93623.3 94617.5 91261 96853.8
          100094 93513.2 98725 96238.5 96252.7 94246.4 92549.1 95839.4 96370.4 96152.7 95156 93893.5
          94319.4 96257.2 99768.4 98563.6 95627.7 95278.6 95529.7 97905.9 95200.5 98874.7 97683.4 97369.9
          92840.4 95872.4 91626.2 92572.8 94421.9 92369 95842.6 95741 95066.4 93073.3 97183.8 99519.4
          95138.8 91447.9 95850.8 95644.4 94508.2 94158.1 93943.7 98201.2 95905.9 96760.7 93288.4 94041.7
          96903.6 94715.2 98700.2 98504.1 96344.6 98379 95300.7 95670.8 94121.1 91089 97296.7 95026.1
          94265.3 95435.4 96129.9 99005.3 97658.2 97291.6 95261.5 93549.5 95513.8 93648.8 95465.2 95350.2
          95520.3 96008.8 94494.9 91913 96191 98567.9 91958.5 94506.9 95937.9 95570.5 93455.4 97012.3
          95143.8 95181.2 99448.2 96641.2 96812.8 96665.4 91555.9 91907.2 92981.2 94668.4 98369.7 98234.7
          92278.8 93845.5 94624.4 96912.5 100099 96697.5 97781.4 99811.9 95386.7 97632 93356.5 98342.8
          94833.8 96652.8 97393 93857.2 98502.8 96921.9 96028.4 97819.6 95836.3 93131.2 97174.4 98170.6
          94811.6 92695.2 97615.9 92215.1 97207.9 94272.5 95330.3 95207.4 96153.1 95377.5 93895.7 92424
          96703 94891.4 99684.8 97416.3 92250.9 93170 94153.6 96064.5 95284.5 92229.3 95342.5 96335.8
          99183.4 92925 98471.9 95528.9 97421.9 92751.6 95480 93946.2 92240.6 98001.3 95195.4 98220.4
          94960.4 94025 96113.7 94213.3 95312.1 92635 93701.1 99939.1 93948.3 96496.9 98769 94376.3
          95710.3 96576.4 93684.6 93205.7 97454.8 95459.5 96015 94844.5 95130.2 91342.5 99180.3 91286.8
          91843.7 95993.4 95025 91267.5 91831.6 96699.2 98127.2 96967.2 94705.8 92936.5 97920.4 93112.1
          95299.4 94048.3 95133.2 93984.6 96912.6 90978.3 91303.9 91839.3 92727.7 95382 92869.3 97593.6
          94519 93653.1 95368.4 93844.6 96602.3 93091.7 94524.2 94920.9 97092.6 93363.9 94229 94539.7
          94322.1 93379.7 93181.8 93506.6 96663.9 92193.3 94499.6 96660.6 94516.6 99730.2 97655 94554.5
          94446.1 92047.4 99008.1 92890.7 95122.8 94960.5 97662.7 99258 95404.2 99310.9 94977.4 94658.4
          98835.8 95556.9 94477 94583.9 94913.7 92751.5 98867.6 99195.8 95017.1 92614.3 96321.7 97712.7
          94302.7 97185 94888.9 96043.8 94909.5 94038.6 94125.4 95337.8 99731.3 94547 96295.5 97177.2
          93293.9 97166.7 94105.8 100063 95184.8 94122.9 91527.4 91961.5 94646.1 91202.8 97565.1 91066.5
          94839.2 93783.9 96420.1 99227.1 94783.4 94418.7 97319.4 92353.1 97999.5 95374.2 96353.9 96968.2
          93604.7 94989.2 95568.1 98460.5 98209.4 91356.4 91519 94872 98968.2 91191.2 91306.9 98940.4
          93221.1 99297 95650.9 96058.6 95681.2 95158.1 96653.6 91718.7 96539.4 98088.1 93949.2 94898.5
          95486.2 92092.3 92152.4 92195 98314.8 97807.6 92498.4 97898 90873.4 97490 96836.9 94194.4
          99025.8 95275.9 92658 92729.8 94841.1 98020.5 97477.1 94848.2 95496.6 95437.2 95788.2 93638.5
          92662.3 95275.7 95286.3 98097.9 97720 97181.4 94522 96705.9 96395.1 94494.9 92827.7 95999.7
          96731.2 95355.2 95313.8 96544 95335 95229.7 95329.8 95286.3 97942.4 97810.3 95416.7 96473.2
          94942.3 95343 94647.9 95294.7 94821.2 98707.7 93558.7 90982.2 94042.3 91341.6 93126 94530
          92184.1 95996.2 94732.6 91299.6 97880.1 95967 93909.1 94938.5 95669.8 95176.5 95086.3 94843.4
          95528.1 96171.6 96309.6 95616.9 94835.3 98272.8 91787.6 95521.6 96570.8 95668.8 95429.5 98161.4
          95308.1 95379.3 95119.9 92645.5 95162.6 94908.7 95892.4 94958 96356.4 95964.8 95784.9 97306.9
          99076.2 98690.7 95206.6 98113.2 95186.2 95033.9 96036.4 96140.1 96807.1 95094.9 99879 98644.4
          96230.8 95789.5 95092.2 94723.5 96536.9 97692.4 97825.2 97249.9 97167.9 97757.2 98318.2 98671.1
          94118.4 95316.6 94915.1 92205.3 95355.8 93948.9 92403.1 96117.5 99712.7 94480.1 97603.3 97393
          94261.5 97331 92597.2 93089.6 96512 94008 96006.4 97916.6 94174.2 94091.4 94883 95217
          95409.5 95918.6 94356.8 95237.4 95481.4 93805 94583.3 95462.6 93483 97192.2 93055.8 93144.2
          95610.9 95768.9 96580.5 93904 94385.4 96714.4 95478.9 94724 91814.8 92156.7 94427 97066.4
          93364.2 95204 96930.5 95501.2 93778.9 100052 95042.9 92445 95543 93630 94594.9 94329
          96638.4 97106 97714.9 99287.2 97355.1 92221 96596.5 96750.1 91073.2 95791.2 96586.7 96140
          92817.6 94488.2 97956.6 92401.8 94756.1 94544.3 94147.9 96747.7 95802.9 95261.6 95258.7 96104
          95579.6 97514.3 95211.8 94997.9 93978.5 91972.2 93749.9 92106.8 96124.6 100127 98086.6 95543.5
          97092.2 99530.2 99801.3 96235.7 96343.1 98574.5 98040.8 98840.4 96965.1 94217.6 96155 93963.7
          92803.4 93219.2 94790.3 96109.2 93687.2 96608.1 94104.7 95839.6 91423.3 99218.7 91513.7 93302.6