<?xml version="1.0"?>
<VTKFile type="UnstructuredGrid" version="0.1" byte_order="LittleEndian">
  <UnstructuredGrid>
    <Piece NumberOfCells="1670" NumberOfPoints="911">
      <PointData Scalars="Sn">
        <DataArray type="Float32" Name="Sn" NumberOfComponents="1" format="ascii">
          0.805418 0.797486 0.796733 0.887685 0.864849 0.895643 0.858255 0.759245 0.757716 0.769764 0.759632 0.771465
          0.769577 0.772377 0.887686 0.895631 0.86491 0.757515 0.858242 0.790072 0.827071 0.822536 0.814989 0.788217
          0.78389 0.781261 0.804225 0.793534 0.810998 0.80551 0.817425 0.838771 0.836197 0.77728 0.804786 0.802734
          0.812155 0.790988 0.795157 0.785718 0.773705 0.781069 0.777749 0.851856 0.833247 0.843776 0.786214 0.784546
          0.828737 0.774458 0.779652 0.789064 0.783682 0.821117 0.831777 0.893106 0.862519 0.893933 0.803767 0.813733
          0.808344 0.756384 0.757848 0.768977 0.804572 0.796126 0.800237 0.869215 0.768371 0.79191 0.819666 0.849463
          0.818708 0.809456 0.788852 0.820872 0.825685 0.794688 0.778444 0.785243 0.782235 0.840495 0.827405 0.833149
          0.757309 0.758057 0.770875 0.896858 0.86524 0.89754 0.895953 0.864623 0.896752 0.759254 0.758058 0.772349
          0.787135 0.779753 0.782552 0.826406 0.84023 0.832465 0.80402 0.798362 0.767556 0.811162 0.867916 0.82237
          0.833648 0.799052 0.773768 0.810253 0.801919 0.79715 0.789095 0.777352 0.848428 0.844568 0.776164 0.848202
          0.900303 0.794544 0.755098 0.815301 0.77422 0.795077 0.811675 0.775242 0.847719 0.768507 0.868658 0.868597
          0.769258 0.775746 0.847641 0.852167 0.814988 0.844494 0.789959 0.767195 0.821291 0.871721 0.820878 0.829907
          0.67673 0.67416 0.680783 0.671496 0.685967 0.693892 0.687028 0.695149 0.709644 0.718455 0.717168 0.736748
          0.728022 0.733487 0.733379 0.725264 0.73471 0.639358 0.645983 0.640283 0.744885 0.701163 0.69243 0.699156
          0.723432 0.700413 0.648497 0.678607 0.683419 0.675255 0.725278 0.706289 0.698284 0.700274 0.652571 0.65245
          0.653999 0.648409 0.653829 0.647555 0.661544 0.66063 0.656348 0.654535 0.663038 0.667639 0.668418 0.678643
          0.691597 0.666859 0.667117 0.702521 0.695461 0.703084 0.675132 0.668148 0.670871 0.695617 0.679278 0
          0 0.636764 0.744936 0.693718 0.626731 0.669134 0.672101 0.665099 0.656428 0.653818 0.667609 0.702346
          0.710155 0.706736 0.692027 0.744435 0.747079 0.730585 0.732749 0.715006 0.718906 0.660082 0.654317 0.659007
          0.674141 0.671598 0.653086 0.708676 0.642767 0.736477 0.641297 0.686938 0.686266 0.712546 0.648228 0.648445
          0.646032 0.690368 0.678186 0.675028 0.681895 0.682743 0.747814 0.679251 0.686511 0.701687 0.709408 0.690731
          0.681672 0.717303 0.644106 0.632025 0 0 0.639126 0 0 0.636185 0.710129 0.648779
          0.715344 0.657034 0.661775 0.658732 0.652837 0.657072 0.673727 0.664568 0.706624 0.662953 0.668726 0.660637
          0.678021 0.693432 0.644685 0.743706 0.740527 0.719734 0.728603 0.725189 0.672314 0.70028 0.72636 0.682738
          0.685573 0.665618 0.648137 0.651602 0.651448 0.650306 0.646303 0.70661 0.743513 0.643676 0.722516 0.710867
          0.71751 0.69006 0.715581 0.698281 0.67208 0.73629 0.655457 0.702323 0 0.65882 0.71021 0.747317
          0.683209 0.663977 0.686697 0.715149 0.634071 0.630521 0.745654 0 0 0.726082 0.735514 0.746087
          0.679365 0.698359 0.729291 0.718748 0.706913 0.669002 0.645391 0.675539 0.747979 0.661957 0.722199 0.62604
          0.71506 0.67062 0.739972 0.733877 0.694684 0.665325 0.723379 0.648326 0.659425 0.6651 0.689356 0.732953
          0.627264 0.624676 0.690934 0.74918 0.725852 0.625197 0.627735 0.64976 0.640553 0.654438 0.645771 0.657011
          0.659456 0.663815 0.660754 0.709942 0.701496 0.705008 0.714579 0.733256 0.744479 0.742966 0.745322 0.732987
          0.656411 0.660166 0.6565 0.663938 0.654026 0.66255 0.665355 0.668686 0.69792 0.699314 0.707564 0.746596
          0.743801 0.652602 0.658481 0.720213 0.726339 0.715186 0.704686 0.703339 0.695263 0.697194 0.704196 0.671023
          0.667049 0.74374 0.69675 0.688853 0.687232 0.660918 0.675066 0.657228 0.665005 0.657907 0.669838 0.681951
          0.678938 0.655838 0.649572 0.651775 0.649343 0.644635 0.690368 0.722598 0.719042 0.645601 0.734886 0.678493
          0.674266 0.705498 0.724938 0.65127 0.652608 0.64718 0.72877 0.710573 0.713494 0.662069 0.722952 0.730127
          0.733588 0.722571 0.734745 0 0.65939 0.652068 0.647321 0.671368 0.667135 0.6678 0.661763 0.698307
          0.702983 0.706439 0.671949 0.642662 0.644624 0.640018 0.645822 0 0.65708 0.695998 0.697517 0.719894
          0.745181 0.713848 0.648619 0.652324 0.72042 0.723479 0.736846 0.726891 0.703333 0.685548 0.678305 0.681855
          0.719445 0.71222 0.642657 0.671071 0.690738 0.715382 0.627888 0.640348 0.629916 0.639839 0.715349 0.687217
          0.649843 0.736736 0.733322 0.74543 0 0 0 0.637213 0 0 0.668498 0.653948
          0.695377 0.629709 0.626066 0.625617 0.649557 0.663668 0.717668 0.728151 0.684598 0.710145 0.670154 0.690853
          0.687785 0.683671 0.676929 0.675502 0.688564 0.730008 0.711757 0.680793 0.67974 0.68116 0 0
          0.674604 0.673324 0.696154 0.722293 0.676739 0.727153 0.672677 0.742925 0.745702 0.695358 0.694416 0.690133
          0.631606 0.65646 0.662923 0.684535 0.683659 0.690374 0.675378 0.691769 0.74745 0.702786 0.669757 0.66583
          0.722558 0.656775 0.700454 0.710134 0.6764 0.712862 0.680596 0.639427 0.747264 0.734066 0.691125 0.682883
          0.677838 0.682444 0.688889 0.683834 0.668022 0.692561 0.687746 0.736177 0.620401 0.619817 0.63498 0.634848
          0.673747 0.639001 0.553733 0.551763 0.55685 0.549628 0.561639 0.567558 0.562236 0.568281 0.578069 0.584216
          0.582766 0.596566 0.590555 0.593277 0.596237 0.590729 0.596773 0.522633 0.529002 0.522524 0.600098 0.572016
          0.565718 0.570406 0.587231 0.571898 0.531175 0.556166 0.559856 0.553474 0.589912 0.577256 0.57134 0.572548
          0.534742 0.534596 0.535832 0.530935 0.535595 0.530245 0.54193 0.540993 0.537607 0.535935 0.542832 0.546539
          0.547254 0.55604 0.566021 0.546 0.546461 0.572945 0.567942 0.573688 0.553407 0.547729 0.54987 0.568354
          0.556358 0 0 0.516877 0.609231 0.601204 0.60896 0.567825 0.503216 0.548538 0.550878 0.545185
          0.537372 0.535213 0.547157 0.574034 0.579584 0.577038 0.565284 0.612357 0.603269 0.604385 0.592363 0.593889
          0.582702 0.584662 0.54084 0.535821 0.539681 0.552142 0.550231 0.53459 0.577024 0.525856 0.595868 0.523132
          0.561588 0.561017 0.610319 0.580381 0.530587 0.608449 0.606354 0.530573 0.528382 0.564989 0.555547 0.552646
          0.558248 0.558446 0.603096 0.555825 0.5623 0.573286 0.578656 0.56487 0.557993 0.584158 0.526891 0.510325
          0 0 0.519491 0 0 0.516824 0.579837 0.530931 0.583086 0.537849 0.541786 0.539898
          0.534862 0.538566 0.552076 0.544714 0.575663 0.543493 0.547687 0.541372 0.555645 0.566929 0.527727 0.606737
          0.599109 0.598043 0.586161 0.592054 0.589538 0.550836 0.571915 0.588597 0.559449 0.561545 0.545376 0.530795
          0.533264 0.533536 0.532416 0.529037 0.576672 0.60854 0.600794 0.526274 0.587283 0.579477 0.584086 0.565133
          0.58168 0.571043 0.550986 0.596269 0.537031 0.573562 0 0.539916 0.578607 0.603291 0.559022 0.543739
          0.561705 0.582312 0.51239 0.509046 0.601099 0 0 0.589793 0.593903 0.599551 0.556311 0.570989
          0.591303 0.585924 0.576607 0.604406 0.548483 0.52801 0.553059 0.602608 0.54259 0.586907 0.5021 0.583594
          0.549148 0.599354 0.595156 0.568449 0.545141 0.586975 0.530467 0.540577 0.545306 0.563611 0.607563 0.593086
          0.505235 0.502773 0.565631 0.60464 0.588148 0.508411 0.50613 0.610974 0.531822 0.652055 0.643281 0.652554
          0.670432 0.679084 0.667722 0.618495 0.734845 0.730906 0.622102 0.731459 0.734767 0.619087 0.616438 0.662643
          0.65934 0.642355 0.652511 0.678806 0.66428 0.639569 0.634157 0.629757 0.677579 0.686495 0.695475 0.626054
          0.702842 0.640746 0.678254 0.714042 0.694763 0.706303 0.643976 0.646295 0.63596 0.683342 0.677807 0.695903
          0.689832 0.635472 0.691498 0.71741 0.708789 0.620894 0.62752 0.662442 0.651872 0.657213 0.661886 0.675099
          0.667206 0.615456 0.72955 0.646526 0.68248 0.736899 0.613329 0.645309 0.66987 0.649527 0.650914 0.668088
          0.662186 0.663123 0.681033 0.639637 0.6563 0.643392 0.682605 0.616478 0.730298 0.640594 0.631379 0.635031
          0.691901 0.709436 0.698086 0.709457 0.691742 0.698244 0.628441 0.637555 0.63316 0.73106 0.618595 0.65687
          0.613065 0.670287 0.73065 0.654486 0.617518 0.625374 0.694698 0.62211 0.712587 0.67013 0.654017 0.625522
          0.634057 0.714202 0.714571 0.625714 0.675696 0.649791 0.621093 0.709037 0.615605 0.734744 0.626376 0.717022
          0.717097 0.62406 0.734432 0.615531 0.631756 0.609707 0.683193 0.643583 0.734161 0.625791 0.634246
        </DataArray>
        <DataArray type="Float32" Name="Sw" NumberOfComponents="1" format="ascii">
          0.194582 0.202514 0.203267 0.112315 0.135151 0.104357 0.141745 0.240755 0.242284 0.230236 0.240368 0.228535
          0.230423 0.227623 0.112314 0.104369 0.13509 0.242485 0.141758 0.209928 0.172929 0.177464 0.185011 0.211783
          0.21611 0.218739 0.195775 0.206466 0.189002 0.19449 0.182575 0.161229 0.163803 0.22272 0.195214 0.197266
          0.187845 0.209012 0.204843 0.214282 0.226295 0.218931 0.222251 0.148144 0.166753 0.156224 0.213786 0.215454
          0.171263 0.225542 0.220348 0.210936 0.216318 0.178883 0.168223 0.106894 0.137481 0.106067 0.196233 0.186267
          0.191656 0.243616 0.242152 0.231023 0.195428 0.203874 0.199763 0.130785 0.231629 0.20809 0.180334 0.150537
          0.181292 0.190544 0.211148 0.179128 0.174315 0.205312 0.221556 0.214757 0.217765 0.159505 0.172595 0.166851
          0.242691 0.241943 0.229125 0.103142 0.13476 0.10246 0.104047 0.135377 0.103248 0.240746 0.241942 0.227651
          0.212865 0.220247 0.217448 0.173594 0.159771 0.167535 0.19598 0.201638 0.232444 0.188838 0.132084 0.17763
          0.166352 0.200948 0.226232 0.189747 0.198081 0.20285 0.210905 0.222648 0.151572 0.155432 0.223836 0.151798
          0.0996974 0.205456 0.244902 0.184699 0.22578 0.204923 0.188325 0.224758 0.152281 0.231493 0.131342 0.131403
          0.230742 0.224254 0.152359 0.147833 0.185012 0.155506 0.210041 0.232805 0.178709 0.128279 0.179122 0.170093
          0.32327 0.32584 0.319217 0.328504 0.314033 0.306108 0.312972 0.304851 0.290356 0.281545 0.282832 0.263252
          0.271978 0.266513 0.266621 0.274736 0.26529 0.360642 0.354017 0.359717 0.255115 0.298837 0.30757 0.300844
          0.276568 0.299587 0.351503 0.321393 0.316581 0.324745 0.274722 0.293711 0.301716 0.299726 0.347429 0.34755
          0.346001 0.351591 0.346171 0.352445 0.338456 0.33937 0.343652 0.345465 0.336962 0.332361 0.331582 0.321357
          0.308403 0.333141 0.332883 0.297479 0.304539 0.296916 0.324868 0.331852 0.329129 0.304383 0.320722 1
          1 0.363236 0.255064 0.306282 0.373269 0.330866 0.327899 0.334901 0.343572 0.346181 0.332391 0.297654
          0.289845 0.293264 0.307973 0.255565 0.252921 0.269415 0.267251 0.284994 0.281094 0.339918 0.345683 0.340993
          0.325859 0.328402 0.346914 0.291324 0.357233 0.263523 0.358703 0.313062 0.313734 0.287454 0.351772 0.351555
          0.353968 0.309632 0.321814 0.324972 0.318105 0.317257 0.252186 0.320749 0.313489 0.298313 0.290592 0.309269
          0.318328 0.282697 0.355894 0.367975 1 1 0.360874 1 1 0.363815 0.289871 0.351221
          0.284656 0.342966 0.338225 0.341268 0.347163 0.342928 0.326273 0.335432 0.293376 0.337047 0.331274 0.339363
          0.321979 0.306568 0.355315 0.256294 0.259473 0.280266 0.271397 0.274811 0.327686 0.29972 0.27364 0.317262
          0.314427 0.334382 0.351863 0.348398 0.348552 0.349694 0.353697 0.29339 0.256487 0.356324 0.277484 0.289133
          0.28249 0.30994 0.284419 0.301719 0.32792 0.26371 0.344543 0.297677 1 0.34118 0.28979 0.252683
          0.316791 0.336023 0.313303 0.284851 0.365929 0.369479 0.254346 1 1 0.273918 0.264486 0.253913
          0.320635 0.301641 0.270709 0.281252 0.293087 0.330998 0.354609 0.324461 0.252021 0.338043 0.277801 0.37396
          0.28494 0.32938 0.260028 0.266123 0.305316 0.334675 0.276621 0.351674 0.340575 0.3349 0.310644 0.267047
          0.372736 0.375324 0.309066 0.25082 0.274148 0.374803 0.372265 0.35024 0.359447 0.345562 0.354229 0.342989
          0.340544 0.336185 0.339246 0.290058 0.298504 0.294992 0.285421 0.266744 0.255521 0.257034 0.254678 0.267013
          0.34359 0.339834 0.3435 0.336062 0.345974 0.33745 0.334645 0.331314 0.30208 0.300686 0.292436 0.253404
          0.256199 0.347398 0.341519 0.279787 0.273661 0.284814 0.295314 0.296661 0.304737 0.302806 0.295804 0.328977
          0.332951 0.25626 0.30325 0.311147 0.312768 0.339082 0.324934 0.342772 0.334995 0.342093 0.330162 0.318049
          0.321062 0.344162 0.350428 0.348225 0.350657 0.355365 0.309632 0.277402 0.280958 0.354399 0.265114 0.321507
          0.325734 0.294502 0.275062 0.34873 0.347392 0.35282 0.27123 0.289427 0.286506 0.337931 0.277048 0.269873
          0.266412 0.277429 0.265255 1 0.34061 0.347932 0.352679 0.328632 0.332865 0.3322 0.338237 0.301693
          0.297017 0.293561 0.328051 0.357338 0.355376 0.359982 0.354178 1 0.34292 0.304002 0.302483 0.280106
          0.254819 0.286152 0.351381 0.347676 0.27958 0.276521 0.263154 0.273109 0.296667 0.314452 0.321695 0.318145
          0.280555 0.28778 0.357343 0.328929 0.309262 0.284618 0.372112 0.359652 0.370084 0.360161 0.284651 0.312783
          0.350157 0.263264 0.266678 0.25457 1 1 1 0.362787 1 1 0.331502 0.346052
          0.304623 0.370291 0.373934 0.374383 0.350443 0.336332 0.282332 0.271849 0.315402 0.289855 0.329846 0.309147
          0.312215 0.316329 0.323071 0.324498 0.311436 0.269992 0.288243 0.319207 0.32026 0.31884 1 1
          0.325396 0.326676 0.303846 0.277707 0.323261 0.272847 0.327323 0.257075 0.254298 0.304642 0.305584 0.309867
          0.368394 0.34354 0.337077 0.315465 0.316341 0.309626 0.324622 0.308231 0.25255 0.297214 0.330243 0.33417
          0.277442 0.343225 0.299546 0.289866 0.3236 0.287138 0.319404 0.360573 0.252736 0.265934 0.308875 0.317117
          0.322162 0.317556 0.311111 0.316166 0.331978 0.307439 0.312254 0.263823 0.379599 0.380183 0.36502 0.365152
          0.326253 0.360999 0.446267 0.448237 0.44315 0.450372 0.438361 0.432442 0.437764 0.43172 0.421931 0.415784
          0.417234 0.403433 0.409445 0.406723 0.403763 0.409271 0.403227 0.477367 0.470998 0.477476 0.399902 0.427984
          0.434282 0.429594 0.412769 0.428102 0.468825 0.443834 0.440144 0.446526 0.410088 0.422744 0.42866 0.427452
          0.465258 0.465404 0.464168 0.469065 0.464405 0.469755 0.45807 0.459007 0.462393 0.464065 0.457168 0.453461
          0.452746 0.44396 0.433979 0.454 0.453539 0.427055 0.432058 0.426312 0.446593 0.452271 0.45013 0.431646
          0.443642 1 1 0.483123 0.390769 0.398797 0.39104 0.432175 0.496784 0.451462 0.449122 0.454815
          0.462628 0.464787 0.452843 0.425966 0.420416 0.422962 0.434716 0.387643 0.396731 0.395615 0.407637 0.406111
          0.417298 0.415338 0.45916 0.464179 0.460319 0.447858 0.449769 0.46541 0.422976 0.474144 0.404132 0.476868
          0.438412 0.438983 0.389681 0.419619 0.469413 0.391551 0.393646 0.469427 0.471618 0.435011 0.444453 0.447354
          0.441752 0.441554 0.396904 0.444175 0.4377 0.426714 0.421344 0.43513 0.442007 0.415842 0.473109 0.489675
          1 1 0.480509 1 1 0.483176 0.420163 0.469069 0.416914 0.462151 0.458214 0.460102
          0.465138 0.461434 0.447924 0.455286 0.424337 0.456507 0.452313 0.458628 0.444355 0.433071 0.472273 0.393263
          0.400891 0.401957 0.413839 0.407946 0.410462 0.449164 0.428085 0.411403 0.440551 0.438455 0.454624 0.469205
          0.466736 0.466464 0.467584 0.470963 0.423328 0.39146 0.399206 0.473726 0.412717 0.420523 0.415914 0.434867
          0.41832 0.428957 0.449014 0.403731 0.462969 0.426438 1 0.460084 0.421393 0.396709 0.440978 0.456261
          0.438295 0.417688 0.48761 0.490954 0.398901 1 1 0.410207 0.406097 0.400449 0.443689 0.429011
          0.408697 0.414076 0.423393 0.395594 0.451517 0.47199 0.446941 0.397392 0.45741 0.413093 0.4979 0.416406
          0.450852 0.400646 0.404844 0.431551 0.454859 0.413025 0.469533 0.459423 0.454694 0.436389 0.392437 0.406915
          0.494765 0.497227 0.434369 0.39536 0.411852 0.491589 0.49387 0.389026 0.468178 0.347945 0.356719 0.347446
          0.329568 0.320916 0.332278 0.381505 0.265155 0.269094 0.377898 0.268541 0.265233 0.380913 0.383562 0.337357
          0.34066 0.357645 0.347489 0.321194 0.33572 0.360431 0.365843 0.370243 0.322421 0.313505 0.304525 0.373946
          0.297159 0.359254 0.321746 0.285958 0.305237 0.293697 0.356024 0.353705 0.36404 0.316658 0.322193 0.304097
          0.310168 0.364528 0.308502 0.28259 0.291211 0.379106 0.37248 0.337558 0.348128 0.342787 0.338114 0.324901
          0.332794 0.384544 0.27045 0.353474 0.31752 0.263101 0.386671 0.354691 0.33013 0.350473 0.349086 0.331912
          0.337814 0.336877 0.318967 0.360363 0.3437 0.356608 0.317395 0.383522 0.269702 0.359406 0.368621 0.364969
          0.308099 0.290564 0.301914 0.290543 0.308258 0.301756 0.371559 0.362445 0.36684 0.26894 0.381405 0.34313
          0.386935 0.329713 0.26935 0.345514 0.382482 0.374626 0.305302 0.37789 0.287413 0.32987 0.345983 0.374478
          0.365943 0.285798 0.285429 0.374286 0.324304 0.350209 0.378907 0.290963 0.384394 0.265256 0.373624 0.282978
          0.282903 0.37594 0.265568 0.384469 0.368244 0.390293 0.316807 0.356417 0.265839 0.374209 0.365754
        </DataArray>
        <DataArray type="Float32" Name="pn" NumberOfComponents="1" format="ascii">
          191018 186244 185489 223872 218650 224065 218648 155699 155645 162426 155896 162316
          162388 162307 223176 223367 217942 155698 217954 180868 204521 201700 198116 179487
          176079 173658 191289 183157 196201 190698 199177 210132 208847 170902 191211 190877
          195978 180841 183345 175108 167094 173664 169969 214434 208077 211687 176447 176052
          206047 166427 170174 180480 175335 201746 206655 223521 217941 223480 191914 197715
          193993 155314 155503 162266 190363 184607 188470 219375 160587 181027 201202 213989
          201343 196091 180344 202129 204685 185408 170170 176466 174322 211721 205749 208146
          155418 155407 163017 224366 218114 224277 223461 217639 223679 155450 155444 163000
          176702 170323 174318 205279 211083 207524 191573 187302 161152 194742 219366 201826
          208055 187442 167200 195361 191204 185986 180205 168323 213693 211895 168522 212809
          224652 184993 155238 197109 168316 185790 196516 168444 213400 161405 219546 218870
          161325 168528 212698 214718 197663 212668 180483 160575 201773 220159 202176 205541
          126797 125425 128558 124083 130968 134322 131542 134831 142385 145105 144864 150303
          147683 149651 148955 145754 149264 105900 108650 105358 152324 138438 134484 137411
          147457 137416 108862 127594 129759 126156 146586 137751 134767 136338 111881 111563
          111955 108668 111475 108883 118040 117334 114950 113869 118365 121684 121842 128040
          133178 121027 121096 138966 136105 139396 123277 119777 121328 136494 127876 100000
          100000 103945 151866 132806 102881 121917 124155 119413 115400 112915 121920 138772
          141602 140126 134310 152482 152642 148403 148561 142791 144270 115158 111946 115659
          125341 123708 112439 141452 105985 150563 105423 132004 131408 142723 107965 108593
          107039 132346 126564 125516 129115 129576 152707 128969 130475 138198 141053 133518
          129766 143636 106021 103387 100000 100000 104456 100000 100000 104108 139713 108579
          143433 115137 118542 115923 112968 114397 125447 117788 141147 117990 121629 117852
          125187 134776 107279 152886 151752 145438 148443 146812 123323 137549 148255 127182
          129108 118837 109926 111532 111815 110217 107923 139462 152053 106114 145245 141015
          143766 130630 144032 136611 124385 149705 115055 138038 100000 114287 141335 153153
          131521 118869 131960 143471 103887 103641 153228 100000 100000 146627 150664 153230
          128607 136575 148614 143592 140476 121888 107169 126654 153283 116019 146289 102877
          141574 123577 151790 149462 135025 120339 146399 109444 115581 119170 134054 150398
          103866 103738 132772 153879 147260 103922 104023 110627 103642 107378 104617 109183
          112707 114491 112568 142057 139403 140033 143464 148670 152276 152064 153277 149419
          110010 113657 115043 116907 112106 119777 121085 122597 136020 137442 140240 153154
          152860 113441 117126 146059 147784 144060 140262 136835 133483 137282 140435 119830
          116453 152440 133755 131321 128838 117848 120758 112705 116868 114281 117679 124773
          124213 115167 111923 111719 112371 109677 130086 146420 145535 108124 150776 124296
          120666 137692 147615 108737 108652 106119 148276 141031 140770 118020 144512 149277
          150154 147211 150262 100000 118120 110053 107708 121123 120107 121699 118693 139112
          140299 141869 124186 109426 107130 106250 109987 100000 115456 136490 136752 145964
          153083 143744 112018 113931 144224 146187 150293 147270 138482 131515 128334 130516
          144537 143728 109088 123839 132650 143244 103268 106194 103438 104278 143248 129828
          106323 151110 149381 152445 100000 100000 100000 103992 100000 100000 120505 114640
          137284 102918 103395 103370 110678 120025 145813 148925 127225 142641 122880 133363
          132064 129103 127079 125667 133697 148970 141196 126879 128563 127093 100000 100000
          123072 123578 135024 145807 127551 148213 125187 152837 153350 137312 137223 134267
          102954 116106 119248 130224 131811 135063 126335 133669 153472 138557 123474 120581
          146433 116255 139374 142560 125488 142928 128609 106966 153147 150544 135359 130608
          127543 130433 134107 130784 123072 134641 133429 150460 103143 103082 104888 104831
          125973 106956 117892 116978 119073 116078 120702 122959 121086 123300 128405 130270
          130085 133703 131939 133302 132768 130610 132981 103970 105798 103609 135117 125705
          123043 125021 131883 125009 105939 118439 119891 117476 131179 125225 123221 124277
          107948 107737 107991 105806 107673 105948 112050 111578 109990 109270 112262 114477
          114580 118738 122190 114041 114089 126081 124148 126379 115534 113199 114234 124418
          118626 100000 100000 102669 137359 134904 137328 121907 101963 114641 116137 112968
          110288 108634 114642 125965 127883 126881 122933 137290 135138 135258 132536 132634
          128624 129632 110123 107986 110458 116926 115835 108315 127759 104023 134040 103649
          121387 120983 137281 128644 105339 137200 137217 105759 104726 121601 117731 117032
          119439 119750 135466 119353 120372 125576 127510 122413 119891 129265 104050 102298
          100000 100000 103008 100000 100000 102778 126545 105748 129127 110112 112381 110640
          108672 109624 117000 111874 127541 112019 114437 111926 116810 123234 104886 137503
          135673 134897 130493 132548 131431 115566 125134 132412 118142 119431 112574 106647
          107713 107904 106840 105315 126381 137548 135029 104110 130367 127484 129355 120449
          129496 124504 116291 133410 110062 125467 100000 109543 127653 135637 121067 112596
          121346 129157 102630 102468 135951 100000 100000 131306 134049 135815 119115 124480
          132694 129157 127117 137333 114622 104813 117804 135928 110696 131086 101960 127795
          115745 134858 133247 123435 113585 131089 106323 110413 112807 122770 137607 133926
          102616 102532 121917 136315 131701 102719 102654 137782 107112 145928 144544 145894
          148483 149797 148530 139209 154163 154219 139182 154348 154251 139428 139393 147306
          147136 144536 146490 149840 147964 144207 143346 142475 150065 150818 151560 141697
          152092 144615 149758 152997 151536 152417 144420 145061 142853 149903 149302 151295
          151043 143191 150972 153197 152407 140495 141497 147090 145519 146595 147348 148858
          147837 139427 154014 144571 149736 154437 138905 145505 148900 145849 146256 148558
          148173 147521 150063 144212 146918 144466 149828 139297 153906 143318 141473 142660
          150837 152377 151421 152512 151008 151513 141533 143233 142650 153965 139514 147226
          139032 148300 154184 146126 140167 141272 151284 140789 152935 148261 146161 140916
          142825 152788 152868 140996 148886 145521 141033 152722 138883 154295 140964 152791
          152894 141054 154365 139046 142743 138616 150016 144312 154333 141768 143167
        </DataArray>
        <DataArray type="Float32" Name="pw" NumberOfComponents="1" format="ascii">
          190577 185810 185056 223311 218136 223483 218146 155294 155241 162013 155490 161903
          161976 161893 222616 222785 217428 155294 217452 180441 204059 201242 197667 179061
          175657 173237 190849 182727 195755 190257 198725 209656 208374 170485 190771 190438
          195531 180413 182914 174684 166679 173244 169551 213941 207608 211205 176023 175629
          205583 166011 169755 180054 174913 201290 206188 222946 217431 222902 191475 197266
          193550 154911 155100 161854 189923 184174 188034 218854 160176 180599 200748 213500
          200889 195647 179918 201674 204225 184977 169752 176043 173901 211243 205287 207677
          155015 155003 162604 223780 217600 223689 222877 217126 223094 155045 155040 162586
          176277 169904 173896 204818 210605 207056 191134 186868 160741 194296 218847 201370
          207585 187007 166785 194916 190767 185553 179779 167906 213205 211412 168106 212322
          224055 184562 154836 196659 167901 185358 196070 168028 212913 160994 219026 218350
          160913 168111 212211 214224 197213 212185 180056 160164 201317 219633 201721 205076
          126437 125066 128196 123725 130604 133953 131177 134462 142009 144725 144484 149912
          147297 149262 148566 145370 148875 105555 108303 105013 151928 138066 134116 137040
          147074 137045 108514 127233 129396 125796 146202 137376 134396 135967 111531 111213
          111605 108320 111125 108535 117687 116981 114598 113518 118010 121327 121485 127679
          132811 120671 120740 138593 135736 139023 122917 119420 120970 136125 127514 100000
          100000 103601 151470 132437 102541 121560 123797 119058 115049 112564 121564 138400
          141226 139751 133942 152086 152245 148016 148173 142412 143889 114805 111595 115306
          124981 123349 112089 141076 105639 150172 105077 131639 131043 142345 107617 108245
          106692 131979 126203 125156 128753 129213 152309 128608 130110 137826 140677 133151
          129403 143256 105675 103045 100000 100000 104111 100000 100000 103764 139337 108230
          143053 114785 118188 115570 112618 114045 125088 117432 140772 117636 121272 117499
          124826 134408 106932 152490 151359 145056 148056 146428 122964 137177 147870 126819
          128744 118481 109578 111183 111465 109868 107575 139087 151658 105767 144862 140638
          143385 130264 143653 136240 124027 149314 114704 137665 100000 113935 140958 152756
          131158 118514 131595 143092 103544 103300 152832 100000 100000 146242 150274 152833
          128245 136204 148227 143211 140102 121531 106822 126295 152886 115665 145906 102537
          141195 123219 151397 149073 134656 119984 146016 109095 115228 118815 133688 150009
          103526 103399 132405 153481 146876 103583 103682 110278 103297 107027 104269 108831
          112354 114137 112215 141680 139031 139660 143085 148281 151880 151669 152880 149030
          109659 113304 114691 116553 111755 119423 120730 122240 135650 137071 139865 152758
          152464 113091 116773 145677 147399 143681 139889 136462 133114 136912 140061 119472
          116097 152045 133385 130955 128473 117495 120399 112353 116512 113929 117322 124411
          123852 114816 111574 111369 112023 109331 129719 146037 145153 107777 150386 123935
          120306 137318 147231 108387 108302 105771 147890 140654 140392 117666 144129 148889
          149765 146828 149872 100000 117768 109703 107360 120765 119751 121343 118339 138742
          139926 141495 123828 109080 106784 105905 109640 100000 115104 136120 136381 145582
          152687 143366 111670 113581 143842 145804 149902 146884 138109 131150 127973 130153
          144156 143350 108742 123481 132283 142865 102927 105849 103096 103933 142869 129463
          105974 150719 148992 152049 100000 100000 100000 103648 100000 100000 120148 114290
          136915 102578 103056 103031 110329 119671 145433 148539 126861 142264 122522 132996
          131699 128739 126718 125307 133331 148583 140819 126516 128201 126731 100000 100000
          122713 123219 134655 145424 127190 147828 124829 152443 152953 136943 136854 133901
          102612 115754 118893 129860 131448 134696 125975 133302 153074 138184 123117 120226
          146050 115903 139002 142183 125128 142550 128247 106621 152750 150154 134992 130245
          127183 130070 133741 130420 122715 134274 133064 150070 102806 102745 104545 104488
          125614 106612 117578 116664 118758 115765 120385 122640 120769 122981 128082 129946
          129761 133375 131613 132974 132439 130283 132653 103665 105492 103304 134787 125385
          122725 124701 131558 124689 105632 118124 119575 117161 130853 124902 122901 123957
          107640 107428 107683 105499 107364 105641 111739 111267 109681 108961 111951 114165
          114268 118423 121871 113729 113777 125760 123829 126058 115220 112887 113921 124098