<?xml version="1.0"?>
<VTKFile type="UnstructuredGrid" version="0.1" byte_order="LittleEndian">
  <UnstructuredGrid>
    <Piece NumberOfCells="2859" NumberOfPoints="1504">
      <CellData Scalars="elementMarker">
        <DataArray type="Float32" Name="elementMarker" NumberOfComponents="1" format="ascii">
          0 0 0 0 0 0 0 0 0 0 0 0
          0 0 0 0 0 0 0 0 0 0 0 0
          0 0 0 0 0 0 0 0 0 0 0 0
          0 0 0 0 0 0 0 0 0 0 0 0
          0 0 0 0 0 0 0 0 0 0 0 0
          0 0 0 0 0 0 0 0 0 0 0 0
          0 0 0 0 0 0 0 0 0 0 0 0
          0 0 0 0 0 0 0 0 0 0 0 0
          0 0 0 0 0 0 0 0 0 0 0 0
          0 0 0 0 0 0 0 0 0 0 0 0
          0 0 0 0 0 0 0 0 0 0 0 0
          0 0 0 0 0 0 0 0 0 0 0 0
          0 0 0 0 0 0 0 0 0 0 0 0
          0 0 0 0 0 0 0 0 0 0 0 0
          0 0 0 0 0 0 0 0 0 0 0 0
          0 0 0 0 0 0 0 0 0 0 0 0
          0 0 0 0 0 0 0 0 0 0 0 0
          0 0 0 0 0 0 0 0 0 0 0 0
          0 0 0 0 0 0 0 0 0 0 0 0
          0 0 0 0 0 0 0 0 0 0 0 0
          0 0 0 0 0 0 0 0 0 0 0 0
          0 0 0 0 0 0 0 0 0 0 0 0
          0 0 0 0 0 0 0 0 0 0 0 0
          0 0 0 0 0 0 0 0 0 0 0 0
          0 0 0 0 0 0 0 0 0 0 0 0
          0 0 0 0 0 0 0 0 0 0 0 0
          0 0 0 0 0 0 0 0 0 0 0 0
          0 0 0 0 0 0 0 0 0 0 0 0
          0 0 0 0 0 0 0 0 0 0 0 0
          0 0 0 0 0 0 0 0 0 0 0 0
          0 0 0 0 0 0 1 0 0 0 0 0
          0 0 0 0 1 0 0 0 0 0 0 0
          0 0 0 0 0 0 0 0 0 0 0 0
          0 0 0 0 0 0 0 0 0 0 0 0
          0 0 0 0 0 0 0 0 0 0 0 0
          0 0 0 0 0 0 0 0 0 0 0 0
          0 0 0 0 0 0 0 0 0 0 0 0
          0 0 0 0 0 0 0 0 0 0 0 0
          0 0 0 0 0 0 0 0 0 0 0 0
          0 0 0 0 0 0 0 0 0 0 0 0
          0 0 0 0 0 0 0 0 0 0 0 0
          0 0 0 0 0 0 0 0 0 0 0 0
          0 0 0 0 0 0 0 0 0 1 0 0
          1 0 0 0 0 0 0 0 0 0 0 0
          0 0 0 0 0 0 0 0 0 0 0 1
          1 0 0 0 0 0 0 0 0 0 0 0
          0 0 0 0 0 0 0 0 0 0 0 0
          0 0 0 0 0 0 0 0 0 0 0 0
          0 0 0 0 0 0 0 0 0 0 0 0
          0 0 0 0 0 0 0 0 0 0 0 0
          0 0 0 0 0 0 0 0 0 0 0 0
          0 0 0 0 0 0 0 0 0 0 0 0
          0 0 0 0 0 0 0 0 0 0 0 0
          0 0 0 0 0 0 0 0 0 0 0 0
          0 0 0 0 0 0 0 0 0 0 0 0
          0 0 0 0 0 0 0 0 0 0 0 0
          0 0 0 0 0 0 0 0 0 0 0 0
          0 0 0 0 0 0 0 0 0 0 0 0
          0 0 0 0 0 0 0 0 0 0 0 0
          0 0 0 0 0 0 0 0 0 0 0 0
          0 0 0 0 0 0 0 0 0 0 0 0
          0 0 0 0 0 0 0 0 0 0 0 0
          0 0 0 0 0 0 0 0 0 0 0 0
          0 0 0 0 0 0 0 0 0 0 0 0
          0 0 0 0 0 0 0 0 0 0 0 0
          0 0 0 0 0 0 0 0 0 0 0 0
          0 0 0 0 0 0 0 0 0 0 0 0
          0 0 0 0 0 0 0 2 0 0 0 0
          0 0 2 2 0 0 0 0 0 0 0 0
          0 0 0 0 0 0 0 0 0 0 0 0
          0 0 0 0 0 0 0 0 0 0 0 0
          0 0 0 0 0 0 0 0 0 0 0 0
          0 0 0 0 0 0 0 0 0 0 0 0
          0 0 0 0 0 0 0 0 0 0 0 0
          0 0 0 0 0 0 0 0 0 0 0 0
          0 0 0 0 0 0 0 0 0 0 0 0
          0 0 0 0 0 0 0 0 0 0 0 0
          0 0 0 0 0 0 0 0 0 0 0 0
          0 0 0 0 0 0 0 0 0 0 0 0
          0 0 0 0 0 0 0 0 0 0 0 0
          0 0 0 0 0 0 0 0 0 0 0 0
          0 0 0 0 0 0 0 0 0 0 0 0
          0 0 0 0 0 0 0 0 0 0 0 0
          0 0 0 0 0 0 0 0 0 0 0 0
          0 0 0 0 0 0 0 0 0 0 0 0
          0 0 0 0 0 0 1 0 0 0 0 0
          0 0 0 0 0 0 0 0 0 0 0 0
          0 0 0 0 0 0 0 0 0 0 0 0
          0 0 0 0 0 0 0 0 0 0 0 0
          0 0 0 0 0 0 0 0 0 0 0 0
          0 0 0 0 0 0 0 0 0 0 0 0
          0 0 0 0 0 0 0 0 0 0 0 0
          0 0 0 0 0 0 0 0 0 0 0 0
          0 0 0 0 0 0 0 0 0 0 0 0
          0 0 0 0 0 0 0 0 0 0 0 0
          0 0 0 0 0 0 0 0 0 0 0 0
          0 0 0 0 0 0 0 0 0 0 0 0
          0 0 0 0 0 0 0 0 0 0 0 0
          0 0 0 0 0 0 0 0 0 0 0 0
          0 0 0 0 0 0 0 0 0 0 0 0
          0 0 0 0 0 0 0 0 0 0 0 0
          0 0 0 0 0 0 0 0 0 0 0 0
          0 0 1 0 0 0 0 0 0 1 0 0
          0 0 0 0 0 2 2 0 0 0 2 0
          0 2 0 0 0 0 0 0 0 0 0 0
          0 0 0 0 0 0 0 0 0 0 0 0
          0 0 0 0 0 0 0 0 0 0 0 0
          0 0 0 0 0 0 2 0 2 0 0 0
          0 2 0 0 0 2 0 2 0 0 0 2
          2 0 1 0 1 0 0 0 0 0 0 0
          0 0 0 0 0 0 0 0 0 0 0 0
          0 0 0 0 0 0 0 0 0 0 0 0
          0 0 0 0 0 0 0 0 0 0 0 0
          0 0 0 0 0 0 0 0 0 0 0 0
          0 0 0 0 0 0 0 0 0 0 0 0
          0 0 0 0 0 0 0 0 0 0 0 0
          0 0 0 0 0 0 0 0 0 0 0 0
          0 0 0 0 0 0 0 0 0 0 0 0
          0 0 0 0 0 0 0 0 0 0 0 0
          0 0 0 0 0 0 0 0 0 0 0 0
          0 0 0 0 0 0 0 0 0 0 0 0
          0 0 0 0 0 0 0 0 0 0 0 0
          0 0 0 0 0 0 0 0 0 0 0 0
          0 0 0 0 0 0 0 0 0 1 0 0
          0 0 0 1 0 0 0 0 0 0 0 0
          0 0 0 0 0 0 0 0 0 0 0 0
          0 0 0 0 0 0 0 0 0 0 0 0
          0 0 0 0 0 0 0 0 0 0 0 0
          0 0 0 0 0 0 0 0 0 0 0 0
          0 0 0 0 0 0 0 0 0 0 0 0
          0 0 0 0 0 0 0 0 0 0 0 0
          0 0 0 0 0 0 0 0 0 0 0 0
          0 0 0 0 0 0 0 0 0 0 0 0
          0 0 0 0 0 0 0 0 0 0 0 0
          0 0 0 0 0 0 0 0 0 0 0 0
          0 0 0 0 0 0 0 0 0 0 0 0
          0 0 0 0 0 0 0 0 0 0 0 0
          0 0 0 0 0 0 0 0 0 0 0 0
          0 0 0 0 1 0 0 0 0 0 0 0
          0 0 0 0 0 0 0 0 0 0 0 0
          0 0 0 0 0 0 0 0 0 0 0 0
          0 0 1 0 1 0 0 0 1 0 0 0
          0 0 0 0 0 0 0 0 0 0 0 0
          0 0 0 0 0 0 0 0 0 0 1 0
          0 0 0 0 0 0 0 0 1 0 0 0
          0 0 0 0 0 0 0 0 0 0 0 0
          0 0 0 0 0 0 0 0 0 0 0 0
          0 0 0 0 0 0 0 0 0 0 0 0
          0 0 0 0 0 0 0 0 0 0 0 0
          0 0 0 0 0 0 0 0 0 0 0 0
          0 0 0 0 0 0 0 0 0 0 0 0
          0 0 0 0 0 0 1 0 1 0 0 0
          0 0 0 0 0 0 0 0 0 0 0 0
          0 0 0 0 0 0 0 0 0 0 0 0
          0 0 0 0 0 0 0 0 0 0 0 0
          0 0 2 0 0 0 2 3 3 0 1 0
          0 0 0 1 0 0 0 0 0 0 0 0
          0 0 0 0 0 0 0 0 0 0 0 0
          0 0 0 0 0 0 0 0 1 0 1 1
          0 0 0 0 0 0 0 0 0 0 0 0
          0 0 0 0 0 0 0 0 0 0 1 0
          1 0 0 0 0 0 0 0 0 0 0 0
          0 0 0 0 0 0 0 1 0 0 0 1
          1 0 0 1 0 0 0 0 0 0 0 0
          0 0 0 0 0 0 0 0 0 0 0 0
          0 0 0 0 0 0 1 0 0 0 1 0
          0 0 0 0 0 0 0 0 0 0 0 0
          0 0 0 0 0 0 0 0 0 0 1 0
          0 0 1 1 0 0 1 0 1 0 0 1
          0 3 3 0 0 2 0 0 0 0 0 0
          0 0 0 0 0 0 0 0 0 0 0 0
          0 0 0 0 0 0 0 0 0 0 0 0
          0 0 0 0 0 0 0 0 0 0 0 0
          0 0 0 0 0 0 0 0 0 0 0 0
          0 0 0 0 0 0 0 0 0 0 0 0
          0 0 0 0 0 0 0 0 0 0 0 0
          0 0 0 0 0 0 0 0 0 0 0 0
          0 0 0 0 0 0 0 0 0 0 0 0
          0 0 0 0 0 0 0 0 0 0 0 0
          0 0 0 0 0 0 0 0 0 0 0 0
          0 0 0 0 0 0 0 0 0 0 2 0
          0 0 0 0 0 0 0 0 0 0 0 0
          0 0 0 0 0 0 0 0 0 0 0 0
          0 0 0 0 0 0 0 0 0 0 0 0
          0 0 0 0 0 0 0 0 0 0 0 0
          0 0 0 0 0 0 0 0 0 0 0 0
          0 0 0 0 0 0 0 0 0 0 0 0
          0 0 0 0 0 0 0 0 0 0 0 0
          0 0 0 0 0 0 0 0 0 0 0 0
          0 0 0 0 0 0 0 0 0 0 0 0
          0 0 0 0 0 0 0 0 0 0 0 0
          0 0 0 0 0 0 0 0 0 0 0 0
          0 0 0 0 0 0 0 0 0 0 0 0
          0 1 0 0 0 0 0 0 0 0 0 0
          0 0 0 0 0 0 0 0 0 0 0 0
          0 0 0 0 0 0 0 0 0 0 0 0
          0 0 0 0 0 0 0 0 0 0 0 0
          0 0 0 0 0 0 0 0 0 0 0 0
          0 0 0 0 0 0 0 0 0 0 0 0
          0 0 0 0 0 0 0 0 0 0 0 0
          0 0 0 0 0 0 0 0 0 0 0 0
          0 0 0 0 0 0 0 0 0 0 0 0
          0 0 0 0 0 0 0 0 0 0 0 0
          0 0 0 0 0 0 0 0 0 0 0 0
          0 0 0 0 0 0 0 0 0 0 0 0
          0 0 0 0 0 0 0 0 0 0 0 0
          0 0 0 0 0 0 0 0 0 0 0 0
          0 0 0 0 0 0 0 0 0 0 0 0
          0 0 0 0 0 0 0 0 0 0 0 0
          0 0 0 0 0 0 0 0 0 0 0 0
          0 0 0 0 0 2 0 0 2 0 2 0
          0 0 0 0 2 2 0 0 2 2 0 0
          0 0 0 0 0 0 0 0 0 0 0 0
          1 1 0 1 0 0 0 0 0 0 1 0
          0 0 0 1 1 0 0 0 0 0 0 0
          1 0 0 0 0 0 0 0 0 0 0 0
          0 0 0 0 0 0 0 0 0 0 0 0
          0 0 0 0 0 0 0 0 0 0 0 0
          0 0 0 0 0 0 0 0 0 0 0 0
          0 0 0 0 0 0 0 0 0 0 0 0
          1 0 0 0 0 0 0 0 0 1 0 0
          0 0 0 0 0 0 0 0 0 0 0 0
          0 0 0 0 0 0 0 0 0 0 0 0
          0 0 0 0 0 0 0 0 0 0 0 0
          0 0 0 0 0 0 0 0 0 0 0 0
          0 0 0 0 0 0 0 0 0 0 0 0
          0 0 0 0 0 0 0 0 0 0 0 0
          0 0 0 0 0 0 0 0 0 0 0 0
          0 0 0 0 0 0 0 0 0 0 0 0
          0 0 0 0 1 0 0 0 0 0 0 0
          0 0 0 0 0 0 0 0 0 0 0 0
          0 0 0 0 0 0 0 0 0 0 0 0
          0 0 0 0 0 0 0 0 0 0 0 0
          0 0 0 0 0 0 0 0 0 0 0 0
          0 0 0 0 0 0 0 0 0 0 0 0
          0 0 0 0 0 0 0 0 0 0 0 0
          0 0 0 0 0 0 0 0 0 0 0 0
          0 0 0 0 0 0 0 0 0 0 0 0
          0 0 0
        </DataArray>
        <DataArray type="Float32" Name="rank" NumberOfComponents="1" format="ascii">
          1 1 1 1 1 1 1 1 1 1 1 1
          1 1 1 1 1 1 1 1 1 1 1 1
          1 1 1 1 1 1 1 1 1 1 1 1
          1 1 1 1 1 1 1 1 1 1 1 1
          1 1 1 1 1 1 1 1 1 1 1 1
          1 1 1 1 1 1 1 1 1 1 1 1
          1 1 1 1 1 1 1 1 1 1 1 1
          1 1 1 1 1 1 1 1 1 1 1 1
          1 1 1 1 1 1 1 1 1 1 1 1
          1 1 1 1 1 1 1 1 1 1 1 1
          1 1 1 1 1 1 1 1 1 1 1 1
          1 1 1 1 1 1 1 1 1 1 1 1
          1 1 1 1 1 1 1 1 1 1 1 1
          1 1 1 1 1 1 1 1 1 1 1 1
          1 1 1 1 1 1 1 1 1 1 1 1
          1 1 1 1 1 1 1 1 1 1 1 1
          1 1 1 1 1 1 1 1 1 1 1 1
          1 1 1 1 1 1 1 1 1 1 1 1
          1 1 1 1 1 1 1 1 1 1 1 1
          1 1 1 1 1 1 1 1 1 1 1 1
          1 1 1 1 1 1 1 1 1 1 1 1
          1 1 1 1 1 1 1 1 1 1 1 1
          1 1 1 1 1 1 1 1 1 1 1 1
          1 1 1 1 1 1 1 1 1 1 1 1
          1 1 1 1 1 1 1 1 1 1 1 1
          1 1 1 1 1 1 1 1 1 1 1 1
          1 1 1 1 1 1 1 1 1 1 1 1
          1 1 1 1 1 1 1 1 1 1 1 1
          1 1 1 1 1 1 1 1 1 1 1 1
          1 1 1 1 1 1 1 1 1 1 1 1
          1 1 1 1 1 1 1 1 1 1 1 1
          1 1 1 1 1 1 1 1 1 1 1 1
          1 1 1 1 1 1 1 1 1 1 1 1
          1 1 1 1 1 1 1 1 1 1 1 1
          1 1 1 1 1 1 1 1 1 1 1 1
          1 1 1 1 1 1 1 1 1 1 1 1
          1 1 1 1 1 1 1 1 1 1 1 1
          1 1 1 1 1 1 1 1 1 1 1 1
          1 1 1 1 1 1 1 1 1 1 1 1
          1 1 1 1 1 1 1 1 1 1 1 1
          1 1 1 1 1 1 1 1 1 1 1 1
          1 1 1 1 1 1 1 1 1 1 1 1
          1 1 1 1 1 1 1 1 1 1 1 1
          1 1 1 1 1 1 1 1 1 1 1 1
          1 1 1 1 1 1 1 1 1 1 1 1
          1 1 1 1 1 1 1 1 1 1 1 1
          1 1 1 1 1 1 1 1 1 1 1 1
          1 1 1 1 1 1 1 1 1 1 1 1
          1 1 1 1 1 1 1 1 1 1 1 1
          1 1 1 1 1 1 1 1 1 1 1 1
          1 1 1 1 1 1 1 1 1 1 1 1
          1 1 1 1 1 1 1 1 1 1 1 1
          1 1 1 1 1 1 1 1 1 1 1 1
          1 1 1 1 1 1 1 1 1 1 1 1
          1 1 1 1 1 1 1 1 1 1 1 1
          1 1 1 1 1 1 1 1 1 1 1 1
          1 1 1 1 1 1 1 1 1 1 1 1
          1 1 1 1 1 1 1 1 1 1 1 1
          1 1 1 1 1 1 1 1 1 1 1 1
          1 1 1 1 1 1 1 1 1 1 1 1
          1 1 1 1 1 1 1 1 1 1 1 1
          1 1 1 1 1 1 1 1 1 1 1 1
          1 1 1 1 1 1 1 1 1 1 1 1
          1 1 1 1 1 1 1 1 1 1 1 1
          1 1 1 1 1 1 1 1 1 1 1 1
          1 1 1 1 1 1 1 1 1 1 1 1
          1 1 1 1 1 1 1 1 1 1 1 1
          1 1 1 1 1 1 1 1 1 1 1 1
          1 1 1 1 1 1 1 1 1 1 1 1
          1 1 1 1 1 1 1 1 1 1 1 1
          1 1 1 1 1 1 1 1 1 1 1 1
          1 1 1 1 1 1 1 1 1 1 1 1
          1 1 1 1 1 1 1 1 1 1 1 1
          1 1 1 1 1 1 1 1 1 1 1 1
          1 1 1 1 1 1 1 1 1 1 1 1
          1 1 1 1 1 1 1 1 1 1 1 1
          1 1 1 1 1 1 1 1 1 1 1 1
          1 1 1 1 1 1 1 1 1 1 1 1
          1 1 1 1 1 1 1 1 1 1 1 1
          1 1 1 1 1 1 1 1 1 1 1 1
          1 1 1 1 1 1 1 1 1 1 1 1
          1 1 1 1 1 1 1 1 1 1 1 1
          1 1 1 1 1 1 1 1 1 1 1 1
          1 1 1 1 1 1 1 1 1 1 1 1
          1 1 1 1 1 1 1 1 1 1 1 1
          1 1 1 1 1 1 1 1 1 1 1 1
          1 1 1 1 1 1 1 1 1 1 1 1
          1 1 1 1 1 1 1 1 1 1 1 1
          1 1 1 1 1 1 1 1 1 1 1 1
          1 1 1 1 1 1 1 1 1 1 1 1
          1 1 1 1 1 1 1 1 1 1 1 1
          1 1 1 1 1 1 1 1 1 1 1 1
          1 1 1 1 1 1 1 1 1 1 1 1
          1 1 1 1 1 1 1 1 1 1 1 1
          1 1 1 1 1 1 1 1 1 1 1 1
          1 1 1 1 1 1 1 1 1 1 1 1
          1 1 1 1 1 1 1 1 1 1 1 1
          1 1 1 1 1 1 1 1 1 1 1 1
          1 1 1 1 1 1 1 1 1 1 1 1
          1 1 1 1 1 1 1 1 1 1 1 1
          1 1 1 1 1 1 1 1 1 1 1 1
          1 1 1 1 1 1 1 1 1 1 1 1
          1 1 1 1 1 1 1 1 1 1 1 1
          1 1 1 1 1 1 1 1 1 1 1 1
          1 1 1 1 1 1 1 1 1 1 1 1
          1 1 1 1 1 1 1 1 1 1 1 1
          1 1 1 1 1 1 1 1 1 1 1 1
          1 1 1 1 1 1 1 1 1 1 1 1
          1 1 1 1 1 1 1 1 1 1 1 1
          1 1 1 1 1 1 1 1 1 1 1 1
          1 1 1 1 1 1 1 1 1 1 1 1
          1 1 1 1 1 1 1 1 1 1 1 1
          1 1 1 1 1 1 1 1 1 1 1 1
          1 1 1 1 1 1 1 1 1 1 1 1
          1 1 1 1 1 1 1 1 1 1 1 1
          1 1 1 1 1 1 1 1 1 1 1 1
          1 1 1 1 1 1 1 1 1 1 1 1
          1 1 1 1 1 1 1 1 1 1 1 1
          1 1 1 1 1 1 1 1 1 1 1 1
          1 1 1 1 1 1 1 1 1 1 1 1
          1 1 1 1 1 1 1 1 1 1 1 1
          1 1 1 1 1 1 1 1 1 1 1 1
          1 1 1 1 1 1 1 1 1 1 1 1
          1 1 1 1 1 1 1 1 1 1 1 1
          1 1 1 1 1 1 1 1 1 1 1 1
          1 1 1 1 1 1 1 1 1 1 1 1
          1 1 1 1 1 1 1 1 1 1 1 1
          1 1 1 1 1 1 1 1 1 1 1 1
          1 1 1 1 1 1 1 1 1 1 1 1
          1 1 1 1 1 1 1 1 1 1 1 1
          1 1 1 1 1 1 1 1 1 1 1 1
          1 1 1 1 1 1 1 1 1 1 1 1
          1 1 1 1 1 1 1 1 1 1 1 1
          1 1 1 1 1 1 1 1 1 1 1 1
          1 1 1 1 1 1 1 1 1 1 1 1
          1 1 1 1 1 1 1 1 1 1 1 1
          1 1 1 1 1 1 1 1 1 1 1 1
          1 1 1 1 1 1 1 1 1 1 1 1
          1 1 1 1 1 1 1 1 1 1 1 1
          1 1 1 1 1 1 1 1 1 1 1 1
          1 1 1 1 1 1 1 1 1 1 1 1
          1 1 1 1 1 1 1 1 1 1 1 1
          1 1 1 1 1 1 1 1 1 1 1 1
          1 1 1 1 1 1 1 1 1 1 1 1
          1 1 1 1 1 1 1 1 1 1 1 1
          1 1 1 1 1 1 1 1 1 1 1 1
          1 1 1 1 1 1 1 1 1 1 1 1
          1 1 1 1 1 1 1 1 1 1 1 1
          1 1 1 1 1 1 1 1 1 1 1 1
          1 1 1 1 1 1 1 1 1 1 1 1
          1 1 1 1 1 1 1 1 1 1 1 1
          1 1 1 1 1 1 1 1 1 1 1 1
          1 1 1 1 1 1 1 1 1 1 1 1
          1 1 1 1 1 1 1 1 1 1 1 1
          1 1 1 1 1 1 1 1 1 1 1 1
          1 1 1 1 1 1 1 1 1 1 1 1
          1 1 1 1 1 1 1 1 1 1 1 1
          1 1 1 1 1 1 1 1 1 1 1 1
          1 1 1 1 1 1 1 1 1 1 1 1
          1 1 1 1 1 1 1 1 1 1 1 1
          1 1 1 1 1 1 1 1 1 1 1 1
          1 1 1 1 1 1 1 1 1 1 1 1
          1 1 1 1 1 1 1 1 1 1 1 1
          1 1 1 1 1 1 1 1 1 1 1 1
          1 1 1 1 1 1 1 1 1 1 1 1
          1 1 1 1 1 1 1 1 1 1 1 1
          1 1 1 1 1 1 1 1 1 1 1 1
          1 1 1 1 1 1 1 1 1 1 1 1
          1 1 1 1 1 1 1 1 1 1 1 1
          1 1 1 1 1 1 1 1 1 1 1 1
          1 1 1 1 1 1 1 1 1 1 1 1
          1 1 1 1 1 1 1 1 1 1 1 1
          1 1 1 1 1 1 1 1 1 1 1 1
          1 1 1 1 1 1 1 1 1 1 1 1
          1 1 1 1 1 1 1 1 1 1 1 1
          1 1 1 1 1 1 1 1 1 1 1 1
          1 1 1 1 1 1 1 1 1 1 1 1
          1 1 1 1 1 1 1 1 1 1 1 1
          1 1 1 1 1 1 1 1 1 1 1 1
          1 1 1 1 1 1 1 1 1 1 1 1
          1 1 1 1 1 1 1 1 1 1 1 1
          1 1 1 1 1 1 1 1 1 1 1 1
          1 1 1 1 1 1 1 1 1 1 1 1
          1 1 1 1 1 1 1 1 1 1 1 1
          1 1 1 1 1 1 1 1 1 1 1 1
          1 1 1 1 1 1 1 1 1 1 1 1
          1 1 1 1 1 1 1 1 1 1 1 1
          1 1 1 1 1 1 1 1 1 1 1 1
          1 1 1 1 1 1 1 1 1 1 1 1
          1 1 1 1 1 1 1 1 1 1 1 1
          1 1 1 1 1 1 1 1 1 1 1 1
          1 1 1 1 1 1 1 1 1 1 1 1
          1 1 1 1 1 1 1 1 1 1 1 1
          1 1 1 1 1 1 1 1 1 1 1 1
          1 1 1 1 1 1 1 1 1 1 1 1
          1 1 1 1 1 1 1 1 1 1 1 1
          1 1 1 1 1 1 1 1 1 1 1 1
          1 1 1 1 1 1 1 1 1 1 1 1
          1 1 1 1 1 1 1 1 1 1 1 1
          1 1 1 1 1 1 1 1 1 1 1 1
          1 1 1 1 1 1 1 1 1 1 1 1
          1 1 1 1 1 1 1 1 1 1 1 1
          1 1 1 1 1 1 1 1 1 1 1 1
          1 1 1 1 1 1 1 1 1 1 1 1
          1 1 1 1 1 1 1 1 1 1 1 1
          1 1 1 1 1 1 1 1 1 1 1 1
          1 1 1 1 1 1 1 1 1 1 1 1
          1 1 1 1 1 1 1 1 1 1 1 1
          1 1 1 1 1 1 1 1 1 1 1 1
          1 1 1 1 1 1 1 1 1 1 1 1
          1 1 1 1 1 1 1 1 1 1 1 1
          1 1 1 1 1 1 1 1 1 1 1 1
          1 1 1 1 1 1 1 1 1 1 1 1
          1 1 1 1 1 1 1 1 1 1 1 1
          1 1 1 1 1 1 1 1 1 1 1 1
          1 1 1 1 1 1 1 1 1 1 1 1
          1 1 1 1 1 1 1 1 1 1 1 1
          1 1 1 1 1 1 1 1 1 1 1 1
          1 1 1 1 1 1 1 1 1 1 1 1
          1 1 1 1 1 1 1 1 1 1 1 1
          1 1 1 1 1 1 1 1 1 1 1 1
          1 1 1 1 1 1 1 1 1 1 1 1
          1 1 1 1 1 1 1 1 1 1 1 1
          1 1 1 1 1 1 1 1 1 1 1 1
          1 1 1 1 1 1 1 1 1 1 1 1
          1 1 1 1 1 1 1 1 1 1 1 1
          1 1 1 1 1 1 1 1 1 1 1 1
          1 1 1 1 1 1 1 1 1 1 1 1
          1 1 1 1 1 1 1 1 1 1 1 1
          1 1 1 1 1 1 1 1 1 1 1 1
          1 1 1 1 1 1 1 1 1 1 1 1
          1 1 1 1 1 1 1 1 1 1 1 1
          1 1 1 1 1 1 1 1 1 1 1 1
          1 1 1 1 1 1 1 1 1 1 1 1
          1 1 1 1 1 1 1 1 1 1 1 1
          1 1 1 1 1 1 1 1 1 1 1 1
          1 1 1 1 1 1 1 1 1 1 1 1
          1 1 1 1 1 1 1 1 1 1 1 1
          1 1 1
        </DataArray>
      </CellData>
      <Points>
        <DataArray type="Float32" Name="Coordinates" NumberOfComponents="3" format="ascii">
          0.649671 0.225664 0 0.648316 0.222504 0 0.647123 0.224856 0 0.65134 0.223942 0
          0.651715 0.221505 0 0.644896 0.223808 0 0.646645 0.220443 0 0.649736 0.219566 0
          0.64757 0.218527 0 0.645473 0.217377 0 0.65182 0.219178 0 0.653336 0.220342 0
          0.653495 0.218722 0 0.654328 0.222003 0 0.653589 0.224196 0 0.655896 0.2241 0
          0.65634 0.221628 0 0.655053 0.220172 0 0.656808 0.219466 0 0.65536 0.218174 0
          0.653633 0.216895 0 0.655458 0.216123 0 0.656643 0.217737 0 0.656698 0.214406 0
          0.654934 0.213896 0 0.653178 0.213401 0 0.653782 0.215176 0 0.651973 0.215533 0
          0.651285 0.213467 0 0.650255 0.215676 0 0.650392 0.217255 0 0.652112 0.217469 0
          0.648756 0.216072 0 0.648868 0.21764 0 0.64746 0.216953 0 0.646812 0.215526 0
          0.64811 0.214639 0 0.645405 0.214771 0 0.647288 0.2133 0 0.644964 0.212956 0
          0.649051 0.212477 0 0.649634 0.214255 0 0.650922 0.210874 0 0.648733 0.210035 0
          0.64646 0.211108 0 0.644782 0.209315 0 0.647068 0.207753 0 0.650259 0.207692 0
          0.653116 0.208839 0 0.652937 0.211408 0 0.655532 0.211694 0 0.657313 0.209096 0
          0.658204 0.212332 0 0.661626 0.209382 0 0.660601 0.213475 0 0.659089 0.215515 0
          0.657037 0.216519 0 0.658046 0.218318 0 0.659228 0.219416 0 0.659208 0.217344 0
          0.6605 0.216839 0 0.660329 0.218296 0 0.661533 0.218193 0 0.660426 0.219338 0
          0.662134 0.216243 0 0.661082 0.215147 0 0.663086 0.21366 0 0.66382 0.215911 0
          0.663032 0.217212 0 0.662744 0.218602 0 0.663901 0.218243 0 0.665117 0.216922 0
          0.665105 0.218381 0 0.664958 0.219425 0 0.665823 0.217777 0 0.665691 0.218978 0
          0.666347 0.218459 0 0.666702 0.217159 0 0.66589 0.214925 0 0.668513 0.213118 0
          0.665174 0.211642 0 0.666563 0.208884 0 0.669909 0.202623 0 0.662075 0.204 0
          0.657438 0.204833 0 0.656053 0.200309 0 0.664797 0.197089 0 0.667904 0.182652 0
          0.656367 0.188992 0 0.648504 0.195492 0 0.644885 0.184953 0 0.646111 0.201282 0
          0.650387 0.201448 0 0.648588 0.204669 0 0.653047 0.204498 0 0.644513 0.205637 0
          0.64263 0.208242 0 0.6413 0.205911 0 0.640671 0.208418 0 0.642315 0.202649 0
          0.640147 0.203684 0 0.642387 0.197727 0 0.639534 0.200941 0 0.637941 0.203349 0
          0.637017 0.198289 0 0.636424 0.201085 0 0.633652 0.199803 0 0.634492 0.201668 0
          0.635968 0.202698 0 0.634817 0.20321 0 0.636165 0.204177 0 0.635701 0.205679 0
          0.634951 0.2046 0 0.6374 0.205812 0 0.639278 0.205266 0 0.639223 0.20719 0
          0.637519 0.207517 0 0.638825 0.209038 0 0.636953 0.209118 0 0.636082 0.207343 0
          0.633703 0.207025 0 0.635218 0.208908 0 0.633898 0.205159 0 0.632545 0.205551 0
          0.633237 0.203857 0 0.633825 0.202703 0 0.630627 0.205195 0 0.631736 0.204495 0
          0.631438 0.202986 0 0.630146 0.203611 0 0.629543 0.206588 0 0.631549 0.206671 0
          0.631362 0.208683 0 0.633345 0.209243 0 0.629264 0.208585 0 0.627431 0.206454 0
          0.627073 0.209127 0 0.625051 0.20657 0 0.624854 0.208932 0 0.625728 0.204442 0
          0.628156 0.204101 0 0.625463 0.20223 0 0.629048 0.202762 0 0.630244 0.201884 0
          0.627847 0.201527 0 0.630681 0.19897 0 0.624636 0.199917 0 0.627279 0.198736 0
          0.624748 0.197213 0 0.633137 0.195806 0 0.631703 0.20075 0 0.632823 0.202097 0
          0.635941 0.192946 0 0.630887 0.191783 0 0.627566 0.195341 0 0.627317 0.188654 0
          0.622659 0.192775 0 0.633699 0.184827 0 0.641869 0.191121 0 0.642068 0.171031 0
          0.623167 0.183162 0 0.624737 0.171889 0 0.656231 0.175383 0 0.658618 0.153813 0
          0.670731 0.167326 0 0.671174 0.122898 0 0.644349 0.133615 0 0.619817 0.135638 0
          0.634238 0.155323 0 0.620732 0.157049 0 0.611039 0.165861 0 0.610045 0.150506 0
          0.598059 0.157302 0 0.599588 0.167801 0 0.59162 0.165533 0 0.583664 0.171205 0
          0.584864 0.159426 0 0.59241 0.139799 0 0.575786 0.15016 0 0.603939 0.113457 0
          0.6379 0.1004 0 0.575647 0.112611 0 0.59392 0.0788351 0 0.685624 0.0776017 0
          0.64604 0.0440759 0 0.6 0 0 0.7 0 0 0.550824 0.0851416 0
          0.551144 0.0452507 0 0.5 0 0 0.510978 0.062277 0 0.523365 0.0996575 0
          0.499154 0.0973351 0 0.507547 0.11392 0 0.491694 0.123224 0 0.508865 0.129132 0
          0.524336 0.121401 0 0.547351 0.11787 0 0.566024 0.137792 0 0.5499 0.140059 0
          0.534652 0.141264 0 0.545061 0.152642 0 0.553753 0.150612 0 0.564304 0.155267 0
          0.573643 0.161907 0 0.57803 0.167215 0 0.570826 0.167679 0 0.566638 0.165294 0
          0.560449 0.162342 0 0.56067 0.168627 0 0.554572 0.167406 0 0.553492 0.159121 0
          0.543608 0.167227 0 0.534958 0.157567 0 0.528287 0.168388 0 0.521741 0.155134 0
          0.518672 0.140405 0 0.502078 0.146712 0 0.510953 0.167517 0 0.487537 0.165485 0
          0.480374 0.139645 0 0.476678 0.11514 0 0.463572 0.125197 0 0.463159 0.141388 0
          0.448996 0.135465 0 0.460124 0.158646 0 0.407187 0.167167 0 0.445637 0.10898 0
          0.450044 0.0900243 0 0.407099 0.167119 0 0.449956 0.0899757 0 0.426588 0.121705 0
          0.441125 0.111375 0 0.441979 0.106901 0 0.454297 0.11141 0 0.45317 0.100039 0
          0.450711 0.0975496 0 0.404439 0.104579 0 0.424163 0.0964095 0 0.433145 0.100219 0
          0.438236 0.0984824 0 0.440044 0.100082 0 0.442516 0.0982705 0 0.437164 0.0896962 0
          0.427429 0.0818356 0 0.408355 0.0809058 0 0.438694 0.0779865 0 0.444409 0.0857477 0
          0.447788 0.0870638 0 0.448979 0.0846844 0 0.443322 0.0923527 0 0.448568 0.0886213 0
          0.447849 0.0908572 0 0.451241 0.0935499 0 0.45146 0.0903186 0 0.448923 0.0934548 0
          0.461142 0.0985134 0 0.455415 0.0919093 0 0.459783 0.0882605 0 0.455128 0.0874381 0
          0.453324 0.0901039 0 0.452343 0.088748 0 0.450374 0.0899911 0 0.450757 0.0900388 0
          0.450085 0.0898393 0 0.449712 0.0896055 0 0.449468 0.0891958 0 0.450378 0.089319 0
          0.450188 0.0896609 0 0.450807 0.0884326 0 0.451149 0.0893714 0 0.4516 0.0866226 0
          0.449535 0.0874367 0 0.451989 0.0832517 0 0.456062 0.0790887 0 0.467409 0.0924019 0
          0.476649 0.0822139 0 0.472063 0.10062 0 0.484474 0.103729 0 0.465594 0.109956 0
          0.479071 0.0485042 0 0.46038 0.0598222 0 0.444886 0.0362509 0 0.4 0 0
          0.410288 0.0473635 0 0.428769 0.0641798 0 0.446086 0.0658927 0 0.447749 0.0793663 0
          0.374029 0.0608511 0 0.384322 0.0895229 0 0.337052 0.0413931 0 0.3 0 0
          0.338862 0.0773899 0 0.362034 0.0913191 0 0.342561 0.111426 0 0.374579 0.110823 0
          0.36823 0.13891 0 0.396187 0.128627 0 0.351923 0.175554 0 0.334844 0.138187 0
          0.364242 0.244261 0 0.313507 0.195783 0 0.364329 0.24431 0 0.403965 0.271055 0
          0.419414 0.224435 0 0.468954 0.195551 0 0.503239 0.184313 0 0.509546 0.208077 0
          0.452637 0.244089 0 0.493024 0.229781 0 0.488711 0.260737 0 0.516204 0.243815 0
          0.449756 0.289817 0 0.499383 0.296736 0 0.473544 0.329697 0 0.509644 0.328703 0
          0.442187 0.322069 0 0.409336 0.318876 0 0.434732 0.354518 0 0.321472 0.321453 0
          0.321385 0.321404 0 0.354683 0.379073 0 0.394461 0.362342 0 0.321615 0.412092 0
          0.356594 0.43063 0 0.386335 0.403988 0 0.418711 0.39592 0 0.405311 0.42094 0
          0.447307 0.386613 0 0.460151 0.3645 0 0.484294 0.366892 0 0.504667 0.353036 0
          0.509106 0.375519 0 0.467991 0.386672 0 0.462379 0.408551 0 0.491426 0.387646 0
          0.487297 0.408933 0 0.50844 0.400213 0 0.471644 0.427393 0 0.441361 0.409911 0
          0.426725 0.424522 0 0.432843 0.443852 0 0.449921 0.432443 0 0.411941 0.444159 0
          0.424973 0.453799 0 0.416623 0.462337 0 0.434942 0.455757 0 0.444811 0.452412 0
          0.438435 0.466033 0 0.45883 0.449558 0 0.453315 0.465036 0 0.489192 0.424431 0
          0.505156 0.422092 0 0.490367 0.438897 0 0.477109 0.44785 0 0.49512 0.459805 0
          0.509839 0.442377 0 0.474032 0.46422 0 0.461221 0.478718 0 0.474331 0.482017 0
          0.487296 0.472416 0 0.504071 0.478833 0 0.490295 0.498034 0 0.458809 0.496696 0
          0.43923 0.508815 0 0.43938 0.494344 0 0.443943 0.481317 0 0.431546 0.475338 0
          0.428324 0.485514 0 0.422584 0.476246 0 0.425534 0.466243 0 0.416209 0.471368 0
          0.412739 0.479318 0 0.419254 0.482654 0 0.414194 0.485064 0 0.419005 0.489113 0
          0.424926 0.497465 0 0.4153 0.494731 0 0.41569 0.500141 0 0.408268 0.497723 0
          0.406426 0.493711 0 0.405198 0.495746 0 0.409066 0.492804 0 0.405894 0.491576 0
          0.407186 0.48934 0 0.412032 0.489247 0 0.408901 0.485034 0 0.405232 0.480949 0
          0.404489 0.486466 0 0.404145 0.49017 0 0.401386 0.488864 0 0.400082 0.484436 0
          0.398997 0.477352 0 0.393508 0.485046 0 0.397842 0.488219 0 0.399439 0.491466 0
          0.394794 0.491281 0 0.395561 0.495564 0 0.398891 0.494492 0 0.400993 0.495636 0
          0.401543 0.493737 0 0.40212 0.491484 0 0.404087 0.493184 0 0.403023 0.495723 0
          0.40194 0.496693 0 0.400692 0.497261 0 0.401766 0.497735 0 0.402862 0.497386 0
          0.404546 0.497637 0 0.405749 0.500158 0 0.403202 0.498561 0 0.402729 0.500599 0
          0.401775 0.498969 0 0.401004 0.498319 0 0.400834 0.499077 0 0.400916 0.499807 0
          0.400204 0.499853 0 0.400187 0.499653 0 0.400427 0.499398 0 0.400261 0.498959 0
          0.400565 0.498658 0 0.399978 0.499351 0 0.40016 0.498277 0 0.399638 0.498933 0
          0.399515 0.499452 0 0.399814 0.499654 0 0.399916 0.499808 0 0.400043 0.500026 0
          0.399957 0.499974 0 0.39948 0.499856 0 0.399036 0.500137 0 0.398664 0.499246 0
          0.398171 0.500594 0 0.399247 0.49831 0 0.398166 0.497201 0 0.399372 0.497447 0
          0.399654 0.496451 0 0.39589 0.498937 0 0.393833 0.500968 0 0.39052 0.49672 0
          0.386491 0.486679 0 0.370996 0.495495 0 0.389418 0.506801 0 0.380599 0.474918 0
          0.391782 0.478374 0 0.39634 0.468227 0 0.378403 0.45563 0 0.396263 0.452308 0
          0.406376 0.458503 0 0.408365 0.467005 0 0.406278 0.474589 0 0.388253 0.435021 0
          0.339052 0.459589 0 0.358956 0.477693 0 0.330147 0.506574 0 0.360844 0.519081 0
          0.35723 0.571192 0 0.401289 0.50073 0 0.401467 0.502487 0 0.401195 0.506883 0
          0.396441 0.520281 0 0.403478 0.511237 0 0.405068 0.504694 0 0.410529 0.503985 0
          0.419426 0.506803 0 0.410229 0.514768 0 0.409732 0.537424 0 0.426549 0.524476 0
          0.395731 0.547123 0 0.357316 0.571242 0 0.419434 0.559543 0 0.402318 0.616886 0
          0.31459 0.642459 0 0.386576 0.679323 0 0.459653 0.644674 0 0.471218 0.586058 0
          0.500309 0.695086 0 0.504147 0.629768 0 0.460358 0.530165 0 0.509571 0.534134 0
          0.516779 0.499272 0 0.539652 0.51051 0 0.546141 0.543428 0 0.567361 0.514325 0
          0.558377 0.491794 0 0.580606 0.488404 0 0.593034 0.511071 0 0.587565 0.540886 0
          0.575863 0.59136 0 0.525928 0.583481 0 0.549065 0.645679 0 0.624214 0.572193 0
          0.630783 0.651089 0 0.674417 0.583502 0 0.665604 0.532869 0 0.620905 0.521589 0
          0.608734 0.490149 0 0.645506 0.490117 0 0.622964 0.46598 0 0.647591 0.44817 0
          0.693948 0.48137 0 0.692893 0.42368 0 0.646231 0.409779 0 0.616096 0.421652 0
          0.61475 0.447088 0 0.593965 0.43716 0 0.593552 0.421627 0 0.596981 0.408702 0
          0.585485 0.412918 0 0.579667 0.424069 0 0.593134 0.462481 0 0.570899 0.445004 0
          0.572411 0.464903 0 0.552881 0.470458 0 0.551864 0.445489 0 0.535816 0.464733 0
          0.539282 0.485449 0 0.52154 0.479443 0 0.516255 0.461973 0 0.531227 0.446194 0
          0.541446 0.426936 0 0.523933 0.424686 0 0.521597 0.409703 0 0.535299 0.409116 0
          0.547473 0.414618 0 0.559675 0.42006 0 0.574423 0.407642 0 0.586273 0.404716 0
          0.562345 0.404343 0 0.573954 0.398561 0 0.567022 0.393887 0 0.582103 0.397301 0
          0.575385 0.392644 0 0.585556 0.392192 0 0.580936 0.39113 0 0.578283 0.386233 0
          0.570462 0.38882 0 0.572105 0.382907 0 0.583883 0.387848 0 0.584169 0.383377 0
          0.579283 0.380854 0 0.583226 0.378994 0 0.586483 0.376058 0 0.579333 0.374387 0
          0.573846 0.37726 0 0.566419 0.376508 0 0.572092 0.371646 0 0.562113 0.385367 0
          0.557296 0.394209 0 0.545282 0.386019 0 0.5558 0.374712 0 0.545009 0.372964 0
          0.549716 0.401431 0 0.539368 0.397296 0 0.527176 0.392619 0 0.529745 0.369973 0
          0.54921 0.361151 0 0.539179 0.347758 0 0.52167 0.347434 0 0.530058 0.331638 0
          0.549664 0.331145 0 0.555682 0.349934 0 0.564252 0.339528 0 0.565133 0.363714 0
          0.568426 0.352242 0 0.576823 0.358399 0 0.577205 0.36599 0 0.582948 0.371023 0
          0.583439 0.366657 0 0.58282 0.362469 0 0.587368 0.357471 0 0.581396 0.350205 0
          0.586824 0.342292 0 0.574593 0.343807 0 0.576411 0.334391 0 0.565979 0.327475 0
          0.588258 0.330764 0 0.599891 0.33854 0 0.59387 0.349332 0 0.59783 0.35986 0
          0.609912 0.347626 0 0.617279 0.331703 0 0.633867 0.340979 0 0.620243 0.357423 0
          0.605726 0.368081 0 0.671666 0.347805 0 0.599979 0.379954 0 0.600021 0.380046 0
          0.617564 0.368513 0 0.604774 0.374974 0 0.601155 0.373786 0 0.597545 0.370697 0