<?xml version="1.0"?>
<VTKFile type="UnstructuredGrid" version="0.1" byte_order="LittleEndian">
  <UnstructuredGrid>
    <Piece NumberOfCells="1670" NumberOfPoints="911">
      <CellData Scalars="S_n">
        <DataArray type="Float32" Name="S_n" NumberOfComponents="1" format="ascii">
          0.778061 0.833388 0.829036 0.707431 0.716741 0.716748 0.833148 0.707455 0.828789 0.772948 0.798128 0.758793
          0.777067 0.788852 0.807821 0.753149 0.786494 0.779483 0.794014 0.765253 0.744935 0.813829 0.762288 0.752574
          0.808729 0.745278 0.765482 0.798811 0.769107 0.833495 0.787638 0.70813 0.778246 0.830795 0.715073 0.772905
          0.792503 0.813186 0.763477 0.752879 0.762513 0.801186 0.788793 0.79219 0.769966 0.795129 0.805435 0.771871
          0.82439 0.727358 0.77116 0.793954 0.753221 0.80821 0.7071 0.834661 0.834316 0.707252 0.753307 0.807885
          0.786481 0.78189 0.716001 0.784152 0.83043 0.804482 0.73594 0.75968 0.803337 0.782566 0.737756 0.784208
          0.818187 0.787729 0.771424 0.802449 0.80088 0.762731 0.750309 0.819047 0.73668 0.818966 0.765741 0.75987
          0.807342 0.803437 0.772583 0.768669 0.835555 0.776955 0.705808 0.788948 0.747542 0.776606 0.789278 0.746884
          0.812575 0.71474 0.831312 0.831001 0.714867 0.746936 0.812255 0.759331 0.73536 0.81979 0.819906 0.737235
          0.810564 0.750665 0.809804 0.818253 0.835581 0.7056 0.737262 0.835316 0.705588 0.737339 0.817982 0.779885
          0.728943 0.786788 0.823766 0.822169 0.830821 0.714896 0.730433 0.830561 0.714878 0.730484 0.821904 0.812724
          0.747341 0.747277 0.812192 0.794004 0.789106 0.776796 0.759704 0.786963 0.739128 0.791536 0.779194 0.73506
          0.774066 0.817192 0.819958 0.760259 0.762885 0.726652 0.800571 0.763185 0.71422 0.802598 0.760599 0.824904
          0.713552 0.803214 0.831364 0.801594 0.726034 0.825513 0.832038 0.796424 0.803975 0.803412 0.814377 0.779332
          0.798591 0.786536 0.753182 0.794544 0.780681 0.785595 0.785302 0.780898 0.809089 0.745149 0.813755 0.824046
          0.728427 0.728333 0.745172 0.823745 0.813432 0.772202 0.777494 0.788994 0.746483 0.742586 0.761539 0.759568
          0.771511 0.794086 0.765891 0.798717 0.753853 0.808228 0.7538 0.807834 0.797633 0.799509 0.811816 0.81442
          0.798975 0.801756 0.819669 0.735435 0.823814 0.728317 0.728362 0.735495 0.823537 0.819391 0.78075 0.778165
          0.771457 0.769796 0.794101 0.795952 0.712267 0.72479 0.82616 0.832711 0.815986 0.766176 0.798416 0.704268
          0.836927 0.836125 0.70485 0.76661 0.797852 0.743688 0.771504 0.79396 0.788842 0.793317 0.773538 0.793278
          0.731959 0.822188 0.803589 0.780715 0.785485 0.778074 0.586648 0.576477 0.6178 0.624475 0.66429 0.678024
          0.675069 0.278858 0.682864 0.638555 0.669373 0.638349 0.321835 0.589948 0.672415 0.635868 0.405487 0.40168
          0.376805 0.498939 0.478591 0.539749 0.602606 0.613523 0.533188 0.522259 0.643268 0.545152 0.639773 0.59725
          0.60487 0.07257 0.69362 0.628026 0.163557 0.546567 0.476695 0.467779 0.548025 0.37966 0.649481 0.632007
          0.691146 0.679163 0.664437 0.466654 0.554992 0.576975 0.590685 0.451744 0.647591 0.641158 0.315485 0.681622
          0.274438 0.609411 0.694362 0.66933 0.65092 0.655348 0.398251 0.694196 0.327375 0.624802 0.587919 0.594436
          0.690812 0.60478 0.60146 0.64838 0.613676 0.655003 0.591567 0.257479 0.171868 0.0728334 0.0726023 0.643222
          0.378688 0.655714 0.507473 0.494276 0.452933 0.461781 0.575176 0.526835 0.530305 0.650221 0.530957 0.442058
          0.556912 0.501978 0.560757 0.628076 0.634531 0.635527 0.372732 0.690736 0.622972 0.672563 0.561228 0.272726
          0.632323 0.524361 0.672488 0.588264 0.543719 0.543768 0.387944 0.584341 0.462248 0.511294 0.50223 0.401697
          0.446265 0.316704 0.319292 0.657834 0.442939 0.64196 0.691208 0.308526 0.308769 0.361951 0.660671 0.615194
          0.438589 0.446082 0.599763 0.66201 0.622719 0.564114 0.642127 0.575159 0.68085 0.487636 0.607177 0.595957
          0.694521 0.64596 0.0717116 0.439339 0.681712 0.497661 0.660802 0.685246 0.411043 0.574324 0.575318 0.691871
          0.614049 0.513679 0.616164 0.66038 0.586987 0.657568 0.496977 0.632663 0.469163 0.165909 0.164314 0.560705
          0.686554 0.148293 0.151963 0.668322 0.687177 0.587525 0.369641 0.691246 0.660266 0.449012 0.638245 0.642374
          0.456149 0.681873 0.666365 0.69205 0.674356 0.670825 0.649471 0.694597 0.415254 0.560985 0.332083 0.618944
          0.663337 0.561583 0.686803 0.307107 0.657364 0.685236 0.58737 0.686746 0.0682928 0.0691004 0.380741 0.507052
          0.67088 0.599446 0.251098 0.24785 0.400608 0.556031 0.69148 0.649695 0.263001 0.260788 0.67517 0.491419
          0.558131 0.155589 0.152558 0.656435 0.683074 0.563381 0.56455 0.58865 0.596052 0.667159 0.67722 0.685103
          0.677599 0.31494 0.427504 0.634913 0.665331 0.576406 0.573799 0.588846 0.533068 0.576168 0.674168 0.666171
          0.413701 0.510117 0.382325 0.531348 0.531481 0.681887 0.676758 0.68265 0.510353 0.672517 0.536472 0.461013
          0.309948 0.491581 0.632749 0.256005 0.258139 0.645997 0.54874 0.665232 0.647127 0.65 0.53359 0.521424
          0.603785 0.462885 0.637944 0.634053 0.595646 0.685672 0.673834 0.604841 0.469489 0.655735 0.52539 0.592097
          0.678401 0.639548 0.645111 0.621368 0.605681 0.6951 0.486304 0.656669 0.681401 0.610116 0.629135 0.634193
          0.613038 0.677466 0.238489 0.562604 0.344738 0.675621 0.695006 0.57509 0.621915 0.529944 0.512218 0.666152
          0.143313 0.483735 0.563453 0.653343 0.423681 0.670277 0.665468 0.661648 0.619094 0.663267 0.68451 0.503236
          0.199116 0.200872 0.695198 0.661559 0.394906 0.655896 0.627231 0.625819 0.647308 0.689228 0.607336 0.661729
          0.6533 0.069996 0.0713383 0.692033 0.291748 0.688282 0.669186 0.113808 0.115143 0.575867 0.680131 0.695179
          0.672529 0.576263 0.366947 0.653786 0.647852 0.619286 0.692386 0.353818 0.0545655 0.695686 0.0547704 0.652393
          0.491234 0.683241 0.626378 0.626357 0.53968 0.55299 0.687613 0.611826 0.692471 0.669397 0.562329 0.461806
          0.355562 0.616581 0.545415 0.630996 0.659068 0.646922 0.111292 0.110585 0.692456 0.65139 0.668101 0.550345
          0.686961 0.423131 0.664831 0.659195 0.451699 0.612395 0.674125 0.64177 0.610531 0.619271 0.685647 0.562025
          0.629384 0.436272 0.411036 0.621269 0.624516 0.678181 0.657778 0.539799 0.5313 0.692982 0.635572 0.677257
          0.677275 0.388069 0.379473 0.672226 0.284359 0.341178 0.438652 0.437223 0.649307 0.654989 0.682788 0.691292
          0.679906 0.396122 0.479356 0.396097 0.45506 0.546094 0.638194 0.691486 0.477949 0.667375 0.644152 0.62916
          0.644153 0.69365 0.514471 0.694689 0.693889 0.61074 0.499335 0.526852 0.471087 0.517635 0.563517 0.487336
          0.46436 0.446287 0.409765 0.607304 0.550849 0.662295 0.666871 0.402719 0.686201 0.56199 0.632931 0.668012
          0.409295 0.552523 0.35505 0.639746 0.42346 0.325745 0.678156 0.646531 0.680525 0.494874 0.670214 0.681655
          0.674228 0.676832 0.182524 0.528494 0.392438 0.372272 0.528568 0.518172 0.528134 0.466057 0.64941 0.561153
          0.384351 0.336277 0.626064 0.0738298 0.50548 0.641385 0.680963 0.637795 0.68642 0.667357 0.691019 0.662378
          0.427029 0.666371 0.668725 0.675477 0.642526 0.640446 0.601354 0.666111 0.655678 0.392024 0.556437 0.691528
          0.621952 0.538742 0.665998 0.652338 0.275865 0.279296 0.318845 0.676279 0.647163 0.653208 0.607249 0.431283
          0.379483 0.314671 0.636592 0.614644 0.473653 0.472318 0.643416 0.690134 0.682808 0.0710497 0.07152 0.69408
          0.0736804 0.581068 0.257893 0.262414 0.529433 0.459863 0.495326 0.33175 0.639748 0.670341 0.171572 0.223456
          0.223561 0.408524 0.443492 0.374128 0.532786 0.672611 0.57843 0.661292 0.591879 0.547188 0.265078 0.434437
          0.493335 0.612545 0.582279 0.657625 0.568875 0.611104 0.535063 0.611732 0.673016 0.655228 0.600885 0.488629
          0.597531 0.585935 0.133402 0.134723 0.586926 0.558014 0.521868 0.578665 0.529346 0.494388 0.408804 0.621014
          0.517703 0.52429 0.471635 0.69383 0.66602 0.594581 0.678673 0.584307 0.659176 0.691452 0.637016 0.432628
          0.502055 0.642232 0.694659 0.599235 0.574102 0.649691 0.630033 0.655477 0.566635 0.2527 0.251836 0.670999
          0.506929 0.601179 0.674053 0.585317 0.157741 0.154568 0.605873 0.647788 0.619795 0.575091 0.628255 0.610447
          0.630279 0.687099 0.367933 0.691791 0.636849 0.666827 0.682404 0.69187 0.558551 0.672243 0.657895 0.559995
          0.508642 0.677023 0.649316 0.629004 0.694472 0.587905 0.551551 0.595907 0.656467 0.590416 0.592244 0.66726
          0.663744 0.630574 0.363321 0.642783 0.591174 0.160668 0.161204 0.460547 0.665268 0.325705 0.486199 0.694831
          0.691579 0.677532 0.311016 0.596709 0.0688049 0.0686054 0.682575 0.531086 0.245184 0.635268 0.301611 0.692144
          0.465325 0.14908 0.622282 0.686424 0.604599 0.588601 0.597515 0.4476 0.62886 0.441146 0.614652 0.604365
          0.484044 0.499583 0.55783 0.641155 0.678489 0.618021 0.626677 0.543736 0.647242 0.634883 0.661628 0.653326
          0.548123 0.463154 0.627336 0.644545 0.299759 0.409846 0.642562 0.667869 0.623196 0.611695 0.560895 0.677032
          0.656236 0.348531 0.61371 0.564298 0.663028 0.619977 0.678976 0.684264 0.667902 0.612707 0.559847 0.524843
          0.600978 0.417809 0.655526 0.67393 0.579425 0.694965 0.574342 0.37758 0.674139 0.519725 0.631634 0.0637625
          0.0638856 0.654815 0.686349 0.0707009 0.0726938 0.6585 0.6553 0.639421 0.585712 0.48865 0.59868 0.135174
          0.136174 0.626722 0.587213 0.352932 0.686832 0.695131 0.682585 0.601414 0.618348 0.352811 0.651532 0.691619
          0.686999 0.622199 0.68273 0.459293 0.551268 0.661876 0.437422 0.68637 0.574617 0.573412 0.662989 0.581986
          0.665057 0.635707 0.295682 0.296345 0.571052 0.683134 0.631076 0.569968 0.626628 0.580577 0.628052 0.685278
          0.61165 0.617825 0.677736 0.672625 0.616157 0.528271 0.674154 0.658387 0.663436 0.552615 0.655703 0.620637
          0.54897 0.627918 0.425941 0.619392 0.608628 0.686542 0.339875 0.316187 0.678694 0.672173 0.670334 0.661529
          0.58723 0.68417 0.234309 0.23443 0.25792 0.258481 0.546084 0.56557 0.605808 0.595661 0.472857 0.463189
          0.503471 0.510229 0.552227 0.567091 0.563879 0.211405 0.572333 0.524764 0.55774 0.524547 0.245578 0.476054
          0.561022 0.521947 0.313694 0.310515 0.289922 0.393072 0.375396 0.429292 0.488345 0.499171 0.423386 0.413605
          0.529705 0.434195 0.526043 0.483115 0.490574 0.0534327 0.583819 0.513841 0.122172 0.4355 0.373748 0.366062
          0.43683 0.292262 0.536332 0.517951 0.58118 0.568361 0.552369 0.365116 0.443191 0.463678 0.476764 0.35237
          0.534298 0.527485 0.24052 0.571004 0.207889 0.495037 0.58456 0.557664 0.53785 0.542585 0.307652 0.584416
          0.249849 0.510561 0.474082 0.480364 0.580836 0.49047 0.487226 0.535147 0.499308 0.542238 0.477582 0.194647
          0.128293 0.0536918 0.0535062 0.52966 0.29151 0.543003 0.400522 0.38895 0.353418 0.360986 0.461984 0.417685
          0.42078 0.53709 0.421396 0.344258 0.444954 0.395735 0.448508 0.513895 0.520562 0.52159 0.286617 0.580831
          0.508691 0.56124 0.448941 0.206444 0.518297 0.415475 0.561114 0.474412 0.432888 0.432933 0.299167 0.470668
          0.361366 0.403914 0.395935 0.310512 0.347785 0.243563 0.24147 0.545276 0.34492 0.528327 0.581298 0.23488
          0.235086 0.277889 0.548319 0.500828 0.341264 0.347625 0.485542 0.549762 0.508409 0.451619 0.528536 0.461972
          0.570177 0.383224 0.492834 0.48183 0.584761 0.532582 0.0529551 0.341923 0.571069 0.391897 0.548441 0.574861
          0.318267 0.461163 0.462121 0.581953 0.499678 0.405988 0.501803 0.548004 0.47319 0.544967 0.391319 0.518623
          0.367284 0.124074 0.122731 0.448459 0.576329 0.110331 0.113106 0.556613 0.576968 0.473713 0.284112 0.581376
          0.54789 0.35009 0.524446 0.528793 0.356159 0.571285 0.554443 0.582155 0.563168 0.559311 0.536299 0.584892
          0.321763 0.44874 0.253704 0.504585 0.551188 0.449292 0.576547 0.233738 0.544748 0.574883 0.473557 0.57651
          0.0504381 0.0510752 0.293173 0.400148 0.559383 0.485257 0.189626 0.18708 0.309603 0.444165 0.581549 0.536523
          0.198892 0.197097 0.564014 0.386529 0.446082 0.113747 0.116069 0.54376 0.572563 0.450944 0.452024 0.47479
          0.481927 0.555367 0.56622 0.57481 0.566676 0.240031 0.332029 0.520984 0.553391 0.463125 0.460672 0.474973
          0.42329 0.462923 0.56291 0.554263 0.320498 0.402881 0.294492 0.421742 0.421839 0.571351 0.565776 0.572142
          0.40308 0.561149 0.426358 0.360278 0.236076 0.386639 0.518706 0.193167 0.194856 0.532625 0.437482 0.553246
          0.533805 0.536869 0.423759 0.412883 0.48949 0.361916 0.52414 0.520095 0.481527 0.575362 0.562571 0.490518
          0.367597 0.542979 0.416392 0.478106 0.567528 0.525841 0.531649 0.507072 0.491353 0.585445 0.382037 0.54398
          0.57078 0.495747 0.514984 0.52022 0.498657 0.566518 0.179672 0.450232 0.263931 0.564512 0.585244 0.461888
          0.507597 0.420486 0.404698 0.554225 0.106698 0.379809 0.451016 0.540431 0.328818 0.558717 0.553499 0.549375
          0.504745 0.55113 0.57413 0.396797 0.149312 0.150663 0.585477 0.549251 0.304843 0.543174 0.513047 0.511607
          0.533996 0.579237 0.492993 0.549487 0.540394 0.0518604 0.0528719 0.58211 0.221539 0.578162 0.557515 0.0841451
          0.0851242 0.462621 0.569393 0.585451 0.561149 0.462998 0.281986 0.540889 0.534563 0.504966 0.582583 0.271299
          0.0404299 0.0402817 0.586061 0.539402 0.386333 0.572719 0.512159 0.512131 0.429235 0.441361 0.577444 0.497473
          0.582627 0.557733 0.44998 0.361017 0.272614 0.502233 0.434453 0.516917 0.546567 0.533587 0.0822833 0.0817691
          0.582696 0.538329 0.556357 0.438948 0.576705 0.328327 0.55283 0.54673 0.352406 0.498014 0.562871 0.528139
          0.496154 0.50492 0.575348 0.4497 0.51526 0.339388 0.318236 0.506945 0.510244 0.567271 0.545193 0.429339
          0.421671 0.583175 0.521668 0.566293 0.566306 0.299269 0.29218 0.560827 0.628045 0.647805 0.59099 0.692403
          0.687894 0.594413 0.687933 0.594482 0.692451 0.59107 0.632752 0.642777 0.629072 0.646598 0.617867 0.659026
          0.61345 0.664157 0.626754 0.649073 0.670839 0.621648 0.654685 0.665209 0.619421 0.657184 0.670502 0.608168
          0.633033 0.642436 0.591351 0.691946 0.628203 0.647549 0.688732 0.593847 0.664909 0.612814 0.628567 0.647141
          0.62822 0.647561 0.635566 0.651135 0.624905 0.639906 0.626801 0.64904 0.682098 0.598931 0.590951 0.692515
          0.613004 0.66469 0.664653 0.613019 0.692426 0.591003 0.633301 0.642178 0.594161 0.638838 0.688213 0.63657
          0.602348 0.659559 0.676855 0.603054 0.604316 0.675656 0.638314 0.637116 0.62762 0.648196 0.65595 0.644441
          0.649576 0.631126 0.626317 0.611139 0.676477 0.666897 0.611145 0.641743 0.654446 0.633727 0.621883 0.643627
          0.631925 0.590432 0.693178 0.609488 0.668943 0.59371 0.688932 0.609055 0.669476 0.669437 0.609082 0.688852
          0.593769 0.677297 0.617321 0.617317 0.659619 0.603303 0.666827 0.676064 0.603683 0.658463 0.693349 0.590343
          0.603747 0.675991 0.676011 0.603788 0.693348 0.590377 0.599899 0.640816 0.681171 0.634633 0.688823 0.593731
          0.600406 0.680195 0.68022 0.600456 0.688839 0.593778 0.609017 0.669256 0.669049 0.609352 0.620167 0.618461
          0.656684 0.658641 0.604716 0.602614 0.674823 0.677447 0.629269 0.633988 0.646413 0.641533 0.593223 0.597994
          0.598604 0.620128 0.68255 0.618162 0.656488 0.593511 0.689206 0.656679 0.619922 0.658715 0.689554 0.682912
          0.658922 0.617958 0.605406 0.620696 0.625546 0.655454 0.650488 0.62054 0.617546 0.613703 0.659226 0.664161
          0.609362 0.623283 0.622934 0.652941 0.653321 0.617952 0.599399 0.608052 0.681516 0.670644 0.670604 0.608085
          0.681448 0.599467 0.60936 0.672311 0.669725 0.643359 0.648455 0.632176 0.627378 0.619257 0.657428 0.617367
          0.659593 0.612696 0.664424 0.664239 0.61341 0.634358 0.639363 0.636066 0.641127 0.613001 0.606238 0.599417
          0.602769 0.681435 0.677206 0.677222 0.681449 0.602811 0.599461 0.592679 0.597432 0.690206 0.683548 0.650476
          0.625535 0.648991 0.626916 0.589883 0.694022 0.62278 0.653501 0.653745 0.622556 0.693755 0.590141 0.607349
          0.671501 0.638354 0.637066 0.640953 0.634507 0.600968 0.679418 0.64707 0.628694 0.610802 0.625715 0.650308
          0.632679 0.642851
        </DataArray>
        <DataArray type="Float32" Name="S_w" NumberOfComponents="1" format="ascii">
          0.221939 0.166612 0.170964 0.292569 0.283259 0.283252 0.166852 0.292545 0.171211 0.227052 0.201872 0.241207
          0.222933 0.211148 0.192179 0.246851 0.213506 0.220517 0.205986 0.234747 0.255065 0.186171 0.237712 0.247426
          0.191271 0.254722 0.234518 0.201189 0.230893 0.166505 0.212362 0.29187 0.221754 0.169205 0.284927 0.227095
          0.207497 0.186814 0.236523 0.247121 0.237487 0.198814 0.211207 0.20781 0.230034 0.204871 0.194565 0.228129
          0.17561 0.272642 0.22884 0.206046 0.246779 0.19179 0.2929 0.165339 0.165684 0.292748 0.246693 0.192115
          0.213519 0.21811 0.283999 0.215848 0.16957 0.195518 0.26406 0.24032 0.196663 0.217434 0.262244 0.215792
          0.181813 0.212271 0.228576 0.197551 0.19912 0.237269 0.249691 0.180953 0.26332 0.181034 0.234259 0.24013
          0.192658 0.196563 0.227417 0.231331 0.164445 0.223045 0.294192 0.211053 0.252458 0.223394 0.210722 0.253116
          0.187425 0.28526 0.168688 0.168999 0.285133 0.253064 0.187745 0.240669 0.26464 0.18021 0.180094 0.262765
          0.189436 0.249335 0.190196 0.181747 0.164419 0.2944 0.262738 0.164684 0.294412 0.262661 0.182018 0.220115
          0.271057 0.213212 0.176234 0.177831 0.169179 0.285104 0.269567 0.169439 0.285122 0.269516 0.178096 0.187276
          0.252659 0.252723 0.187808 0.205996 0.210894 0.223204 0.240296 0.213037 0.260872 0.208464 0.220806 0.26494
          0.225934 0.182808 0.180042 0.239741 0.237115 0.273348 0.199429 0.236815 0.28578 0.197402 0.239401 0.175096
          0.286448 0.196786 0.168636 0.198406 0.273966 0.174487 0.167962 0.203576 0.196025 0.196588 0.185623 0.220668
          0.201409 0.213464 0.246818 0.205456 0.219319 0.214405 0.214698 0.219102 0.190911 0.254851 0.186245 0.175954
          0.271573 0.271667 0.254828 0.176255 0.186568 0.227798 0.222506 0.211006 0.253517 0.257414 0.238461 0.240432
          0.228488 0.205914 0.234109 0.201283 0.246147 0.191772 0.2462 0.192166 0.202367 0.200491 0.188184 0.18558
          0.201025 0.198244 0.180331 0.264565 0.176186 0.271683 0.271638 0.264505 0.176463 0.180609 0.21925 0.221835
          0.228543 0.230204 0.205899 0.204048 0.287733 0.27521 0.17384 0.167289 0.184014 0.233824 0.201584 0.295732
          0.163073 0.163875 0.29515 0.23339 0.202148 0.256312 0.228496 0.20604 0.211158 0.206683 0.226462 0.206722
          0.268041 0.177812 0.196411 0.219285 0.214515 0.221926 0.413352 0.423523 0.3822 0.375525 0.33571 0.321976
          0.324931 0.721142 0.317136 0.361445 0.330627 0.361651 0.678165 0.410052 0.327585 0.364132 0.594513 0.59832
          0.623195 0.501061 0.521409 0.460251 0.397394 0.386477 0.466812 0.477741 0.356732 0.454848 0.360227 0.40275
          0.39513 0.92743 0.30638 0.371974 0.836443 0.453433 0.523305 0.532221 0.451975 0.62034 0.350519 0.367993
          0.308854 0.320837 0.335563 0.533346 0.445008 0.423025 0.409315 0.548256 0.352409 0.358842 0.684515 0.318378
          0.725562 0.390589 0.305638 0.33067 0.34908 0.344652 0.601749 0.305804 0.672625 0.375198 0.412081 0.405564
          0.309188 0.395219 0.39854 0.35162 0.386324 0.344997 0.408433 0.742521 0.828132 0.927167 0.927398 0.356778
          0.621312 0.344286 0.492527 0.505724 0.547067 0.538219 0.424824 0.473165 0.469695 0.349779 0.469043 0.557942
          0.443088 0.498022 0.439243 0.371924 0.365469 0.364473 0.627268 0.309264 0.377028 0.327437 0.438772 0.727274
          0.367677 0.475639 0.327512 0.411736 0.456281 0.456232 0.612056 0.415659 0.537752 0.488706 0.49777 0.598303
          0.553735 0.683296 0.680708 0.342166 0.557061 0.35804 0.308792 0.691474 0.691231 0.638049 0.339329 0.384806
          0.561411 0.553918 0.400237 0.33799 0.377281 0.435886 0.357873 0.424841 0.31915 0.512364 0.392823 0.404043
          0.305479 0.35404 0.928288 0.560661 0.318288 0.502339 0.339198 0.314754 0.588957 0.425676 0.424682 0.308129
          0.385951 0.486321 0.383836 0.33962 0.413013 0.342432 0.503023 0.367337 0.530837 0.834091 0.835686 0.439295
          0.313446 0.851707 0.848037 0.331678 0.312823 0.412475 0.630359 0.308754 0.339734 0.550988 0.361755 0.357626
          0.543851 0.318127 0.333635 0.30795 0.325644 0.329174 0.350529 0.305402 0.584746 0.439015 0.667917 0.381056
          0.336663 0.438417 0.313197 0.692893 0.342636 0.314764 0.41263 0.313254 0.931707 0.9309 0.619259 0.492948
          0.32912 0.400554 0.748902 0.75215 0.599392 0.443969 0.30852 0.350305 0.736999 0.739212 0.32483 0.508581
          0.441869 0.844411 0.847442 0.343565 0.316926 0.436619 0.43545 0.41135 0.403948 0.332841 0.32278 0.314897
          0.322401 0.68506 0.572496 0.365087 0.334669 0.423594 0.426201 0.411154 0.466932 0.423832 0.325832 0.333828
          0.586299 0.489883 0.617675 0.468652 0.468519 0.318113 0.323242 0.31735 0.489647 0.327483 0.463528 0.538987
          0.690053 0.508419 0.367251 0.743995 0.741861 0.354003 0.45126 0.334768 0.352873 0.35 0.46641 0.478576
          0.396216 0.537115 0.362056 0.365947 0.404354 0.314328 0.326166 0.395159 0.530511 0.344265 0.47461 0.407904
          0.321599 0.360452 0.354889 0.378632 0.394319 0.3049 0.513696 0.343331 0.318599 0.389884 0.370865 0.365807
          0.386962 0.322534 0.761511 0.437396 0.655262 0.324379 0.304994 0.42491 0.378085 0.470056 0.487782 0.333848
          0.856687 0.516265 0.436547 0.346657 0.576319 0.329723 0.334532 0.338352 0.380906 0.336733 0.31549 0.496764
          0.800884 0.799128 0.304802 0.338441 0.605093 0.344104 0.372769 0.374181 0.352692 0.310772 0.392664 0.338271
          0.3467 0.930004 0.928662 0.307967 0.708252 0.311718 0.330814 0.886192 0.884857 0.424133 0.319869 0.304821
          0.327471 0.423737 0.633053 0.346214 0.352148 0.380714 0.307614 0.646182 0.945434 0.304314 0.94523 0.347607
          0.508766 0.316759 0.373622 0.373643 0.46032 0.44701 0.312387 0.388174 0.307529 0.330603 0.437671 0.538194
          0.644438 0.383419 0.454585 0.369004 0.340932 0.353078 0.888708 0.889415 0.307544 0.34861 0.331899 0.449655
          0.313039 0.576869 0.335169 0.340805 0.548301 0.387605 0.325875 0.35823 0.389469 0.380729 0.314353 0.437975
          0.370616 0.563728 0.588964 0.378731 0.375484 0.321819 0.342222 0.460201 0.4687 0.307018 0.364428 0.322743
          0.322725 0.611931 0.620528 0.327774 0.715641 0.658822 0.561348 0.562777 0.350693 0.345011 0.317212 0.308708
          0.320094 0.603878 0.520644 0.603903 0.54494 0.453906 0.361806 0.308514 0.52205 0.332625 0.355848 0.37084
          0.355847 0.30635 0.485529 0.305311 0.306111 0.38926 0.500665 0.473148 0.528913 0.482365 0.436483 0.512664
          0.53564 0.553713 0.590235 0.392696 0.449151 0.337705 0.333129 0.597281 0.313799 0.43801 0.367069 0.331988
          0.590705 0.447477 0.64495 0.360254 0.57654 0.674255 0.321844 0.353469 0.319475 0.505126 0.329786 0.318345
          0.325772 0.323168 0.817476 0.471506 0.607562 0.627728 0.471432 0.481828 0.471866 0.533943 0.35059 0.438847
          0.615649 0.663723 0.373936 0.92617 0.49452 0.358615 0.319037 0.362205 0.31358 0.332643 0.308981 0.337622
          0.572971 0.333629 0.331275 0.324523 0.357474 0.359554 0.398646 0.333889 0.344322 0.607976 0.443563 0.308472
          0.378048 0.461258 0.334002 0.347662 0.724135 0.720704 0.681155 0.323721 0.352837 0.346792 0.392751 0.568717
          0.620517 0.685329 0.363408 0.385356 0.526347 0.527682 0.356584 0.309866 0.317192 0.92895 0.92848 0.30592
          0.92632 0.418932 0.742107 0.737586 0.470567 0.540137 0.504674 0.66825 0.360252 0.329659 0.828428 0.776544
          0.776439 0.591476 0.556508 0.625872 0.467214 0.327389 0.42157 0.338708 0.408121 0.452812 0.734922 0.565563
          0.506665 0.387455 0.417721 0.342375 0.431125 0.388896 0.464937 0.388268 0.326984 0.344772 0.399115 0.511371
          0.402469 0.414065 0.866598 0.865277 0.413074 0.441986 0.478132 0.421335 0.470654 0.505612 0.591196 0.378986
          0.482297 0.47571 0.528365 0.30617 0.33398 0.405419 0.321327 0.415693 0.340824 0.308548 0.362984 0.567372
          0.497945 0.357768 0.305341 0.400765 0.425898 0.350309 0.369967 0.344523 0.433365 0.7473 0.748164 0.329001
          0.493071 0.398821 0.325947 0.414683 0.842259 0.845432 0.394127 0.352212 0.380205 0.424909 0.371745 0.389553
          0.369721 0.312901 0.632067 0.308209 0.363151 0.333173 0.317596 0.30813 0.441449 0.327757 0.342105 0.440005
          0.491358 0.322977 0.350684 0.370996 0.305528 0.412095 0.448449 0.404093 0.343533 0.409584 0.407756 0.33274
          0.336256 0.369426 0.636679 0.357217 0.408826 0.839332 0.838796 0.539453 0.334732 0.674295 0.513801 0.305169
          0.308421 0.322468 0.688984 0.403291 0.931195 0.931395 0.317425 0.468914 0.754816 0.364732 0.698389 0.307856
          0.534675 0.85092 0.377718 0.313576 0.395401 0.411399 0.402485 0.5524 0.37114 0.558854 0.385348 0.395635
          0.515956 0.500417 0.44217 0.358845 0.321511 0.381979 0.373323 0.456264 0.352758 0.365117 0.338372 0.346674
          0.451877 0.536846 0.372664 0.355455 0.700241 0.590154 0.357438 0.332131 0.376804 0.388305 0.439105 0.322968
          0.343764 0.651469 0.38629 0.435702 0.336972 0.380023 0.321024 0.315736 0.332098 0.387293 0.440153 0.475157
          0.399022 0.582191 0.344474 0.32607 0.420575 0.305035 0.425658 0.62242 0.325861 0.480275 0.368366 0.936238
          0.936114 0.345185 0.313651 0.929299 0.927306 0.3415 0.3447 0.360579 0.414288 0.51135 0.40132 0.864826
          0.863826 0.373278 0.412787 0.647068 0.313168 0.304868 0.317415 0.398586 0.381652 0.647189 0.348468 0.308381
          0.313001 0.377801 0.31727 0.540707 0.448732 0.338124 0.562578 0.31363 0.425383 0.426588 0.337011 0.418014
          0.334943 0.364293 0.704318 0.703655 0.428948 0.316866 0.368924 0.430032 0.373372 0.419423 0.371948 0.314722
          0.38835 0.382175 0.322264 0.327375 0.383843 0.471729 0.325846 0.341613 0.336564 0.447385 0.344297 0.379363
          0.45103 0.372082 0.574059 0.380608 0.391372 0.313458 0.660125 0.683813 0.321306 0.327827 0.329666 0.338471
          0.41277 0.31583 0.765691 0.76557 0.74208 0.741519 0.453916 0.43443 0.394192 0.404339 0.527143 0.536811
          0.496529 0.489771 0.447773 0.43291 0.436121 0.788595 0.427667 0.475236 0.44226 0.475453 0.754422 0.523946
          0.438978 0.478053 0.686306 0.689485 0.710078 0.606928 0.624604 0.570708 0.511655 0.500829 0.576614 0.586395
          0.470295 0.565805 0.473958 0.516885 0.509426 0.946567 0.416181 0.486159 0.877828 0.5645 0.626252 0.633938
          0.56317 0.707738 0.463668 0.482049 0.41882 0.431639 0.447631 0.634884 0.556809 0.536322 0.523236 0.64763
          0.465702 0.472515 0.75948 0.428996 0.792111 0.504963 0.41544 0.442336 0.46215 0.457415 0.692348 0.415584
          0.750151 0.489439 0.525918 0.519636 0.419164 0.50953 0.512774 0.464853 0.500692 0.457762 0.522418 0.805353
          0.871707 0.946308 0.946494 0.47034 0.70849 0.456997 0.599478 0.61105 0.646582 0.639014 0.538016 0.582315
          0.57922 0.46291 0.578604 0.655742 0.555046 0.604265 0.551492 0.486105 0.479438 0.47841 0.713383 0.419169
          0.491309 0.43876 0.551059 0.793556 0.481703 0.584525 0.438886 0.525588 0.567112 0.567067 0.700833 0.529332
          0.638634 0.596086 0.604065 0.689488 0.652215 0.756437 0.75853 0.454724 0.65508 0.471673 0.418702 0.76512
          0.764914 0.722111 0.451681 0.499172 0.658736 0.652375 0.514458 0.450238 0.491591 0.548381 0.471464 0.538028
          0.429823 0.616776 0.507166 0.51817 0.415239 0.467418 0.947045 0.658077 0.428932 0.608103 0.451559 0.425139
          0.681733 0.538837 0.537879 0.418047 0.500322 0.594012 0.498197 0.451996 0.52681 0.455033 0.608681 0.481377
          0.632716 0.875926 0.877269 0.551542 0.423671 0.889669 0.886894 0.443387 0.423032 0.526287 0.715888 0.418624
          0.45211 0.64991 0.475554 0.471207 0.643841 0.428715 0.445557 0.417845 0.436832 0.440689 0.463701 0.415108
          0.678237 0.55126 0.746296 0.495415 0.448812 0.550708 0.423453 0.766262 0.455252 0.425117 0.526443 0.42349
          0.949562 0.948925 0.706827 0.599852 0.440617 0.514743 0.810374 0.81292 0.690397 0.555835 0.418451 0.463477
          0.801108 0.802903 0.435986 0.613471 0.553918 0.886253 0.883931 0.45624 0.427437 0.549056 0.547976 0.52521
          0.518073 0.444633 0.43378 0.42519 0.433324 0.759969 0.667971 0.479016 0.446609 0.536875 0.539328 0.525027
          0.57671 0.537077 0.43709 0.445737 0.679502 0.597119 0.705508 0.578258 0.578161 0.428649 0.434224 0.427859
          0.59692 0.438851 0.573642 0.639722 0.763924 0.613361 0.481294 0.806833 0.805144 0.467375 0.562518 0.446754
          0.466195 0.463131 0.576241 0.587117 0.51051 0.638084 0.47586 0.479905 0.518473 0.424638 0.437429 0.509482
          0.632403 0.457021 0.583608 0.521894 0.432472 0.474159 0.468351 0.492928 0.508647 0.414555 0.617963 0.45602
          0.42922 0.504253 0.485016 0.47978 0.501343 0.433482 0.820328 0.549768 0.736069 0.435488 0.414756 0.538112
          0.492403 0.579514 0.595302 0.445775 0.893302 0.620191 0.548984 0.459569 0.671182 0.441283 0.446501 0.450625
          0.495255 0.44887 0.42587 0.603203 0.850688 0.849337 0.414523 0.450749 0.695157 0.456826 0.486953 0.488393
          0.466004 0.420763 0.507007 0.450513 0.459606 0.94814 0.947128 0.41789 0.778461 0.421838 0.442485 0.915855
          0.914876 0.537379 0.430607 0.414549 0.438851 0.537002 0.718014 0.459111 0.465437 0.495034 0.417417 0.728701