<?xml version="1.0"?>
<VTKFile type="UnstructuredGrid" version="0.1" byte_order="LittleEndian">
  <UnstructuredGrid>
    <Piece NumberOfCells="2859" NumberOfPoints="1470">
      <CellData Scalars="elementMarker">
        <DataArray type="Float32" Name="elementMarker" NumberOfComponents="1" format="ascii">
          0 0 0 0 0 0 0 0 0 0 0 0
          0 0 0 0 0 0 0 0 0 0 0 0
          0 0 0 0 0 0 0 0 0 0 0 0
          0 0 0 0 0 0 0 0 0 0 0 0
          0 0 0 0 0 0 0 0 0 0 0 0
          0 0 0 0 0 0 0 0 0 0 0 0
          0 0 0 0 0 0 0 0 0 0 0 0
          0 0 0 0 0 0 0 0 0 0 0 0
          0 0 0 0 0 0 0 0 0 0 0 0
          0 0 0 0 0 0 0 0 0 0 0 0
          0 0 0 0 0 0 0 0 0 0 0 0
          0 0 0 0 0 0 0 0 0 0 0 0
          0 0 0 0 0 0 0 0 0 0 0 0
          0 0 0 0 0 0 0 0 0 0 0 0
          0 0 0 0 0 0 0 0 0 0 0 0
          0 0 0 0 0 0 0 0 0 0 0 0
          0 0 0 0 0 0 0 0 0 0 0 0
          0 0 0 0 0 0 0 0 0 0 0 0
          0 0 0 0 0 0 0 0 0 0 0 0
          0 0 0 0 0 0 0 0 0 0 0 0
          0 0 0 0 0 0 0 0 0 0 0 0
          0 0 0 0 0 0 0 0 0 0 0 0
          0 0 0 0 0 0 0 0 0 0 0 0
          0 0 0 0 0 0 0 0 0 0 0 0
          0 0 0 0 0 0 0 0 0 0 0 0
          0 0 0 0 0 0 0 0 0 0 0 0
          0 0 0 0 0 0 0 0 0 0 0 0
          0 0 0 0 0 0 0 0 0 0 0 0
          0 0 0 0 0 0 0 0 0 0 0 0
          0 0 0 0 0 0 0 0 0 0 0 0
          0 0 0 0 0 0 0 0 0 0 0 0
          0 0 0 0 0 0 0 0 0 0 0 0
          0 0 0 0 0 0 0 0 0 0 0 0
          0 0 0 0 0 0 0 0 0 0 0 0
          0 0 0 0 0 0 0 0 0 0 0 0
          0 0 0 0 0 0 0 0 0 0 0 0
          0 0 0 0 0 0 0 0 0 0 0 0
          0 0 0 0 0 0 0 0 0 0 0 0
          0 0 0 0 0 0 0 0 0 0 0 0
          0 0 0 0 0 0 0 0 0 0 0 0
          0 0 0 0 0 0 0 0 0 0 0 0
          0 0 0 0 0 0 0 0 0 0 0 0
          0 0 0 0 0 0 0 0 0 0 0 0
          0 0 0 0 0 0 0 0 0 0 0 0
          0 0 0 0 0 0 0 0 0 0 0 0
          0 0 0 0 0 0 0 0 0 0 0 0
          0 0 0 0 0 0 0 0 0 0 0 0
          0 0 0 0 0 0 0 0 0 0 0 0
          0 0 0 0 0 0 0 0 0 0 0 0
          0 0 0 0 0 0 0 0 0 0 0 0
          0 0 0 0 0 0 0 0 0 0 0 0
          0 0 0 0 0 0 0 0 0 0 0 0
          0 0 0 0 0 0 0 0 0 0 0 0
          0 0 0 0 0 0 0 0 0 0 0 0
          0 0 0 0 0 0 0 0 0 0 0 0
          0 0 0 0 0 0 0 0 0 0 0 0
          0 0 0 0 0 0 0 0 0 0 0 0
          0 0 0 0 0 0 0 0 0 0 0 0
          0 0 0 0 0 0 0 0 0 0 0 0
          0 0 0 0 0 0 0 0 0 0 0 0
          0 0 0 0 0 0 0 0 0 0 0 0
          0 0 0 0 0 0 0 0 0 0 0 0
          0 0 0 0 0 0 0 0 0 0 0 0
          0 0 0 0 0 0 0 0 0 0 0 0
          0 0 0 0 0 0 0 0 0 0 0 0
          0 0 0 0 0 0 0 0 0 0 0 0
          0 0 0 0 0 0 0 0 0 0 0 0
          0 0 0 0 0 0 0 0 0 0 0 0
          0 0 0 0 0 0 0 0 0 0 0 0
          0 0 0 0 0 0 0 0 0 0 0 0
          0 0 0 0 0 0 0 0 0 0 0 0
          0 0 0 0 0 0 0 0 0 0 0 0
          0 0 0 0 0 0 0 0 0 0 0 0
          0 0 0 0 0 0 0 0 0 0 0 0
          0 0 0 0 0 0 0 0 0 0 0 0
          0 0 0 0 0 0 0 0 0 0 0 0
          0 0 0 0 0 0 0 0 0 0 0 0
          0 0 0 0 0 0 0 0 0 0 0 0
          0 0 0 0 0 0 0 0 0 0 0 0
          0 0 0 0 0 0 0 0 0 0 0 0
          0 0 0 0 0 0 0 0 0 0 0 0
          0 0 0 0 0 0 0 0 0 0 0 0
          0 0 0 0 0 0 0 0 0 0 0 0
          0 0 0 0 0 0 0 0 0 0 0 0
          0 0 0 0 0 0 0 0 0 0 0 0
          0 0 0 0 0 0 0 0 0 0 0 0
          0 0 0 0 0 0 0 0 0 0 0 0
          0 0 0 0 0 0 0 0 0 0 0 0
          0 0 0 0 0 0 0 0 0 0 0 0
          0 0 0 0 0 0 0 0 0 0 0 0
          0 0 0 0 0 0 0 0 0 0 0 0
          0 0 0 0 0 0 0 0 0 0 0 0
          0 0 0 0 0 0 0 0 0 0 0 0
          0 0 0 0 0 0 0 0 0 0 0 0
          0 0 0 0 0 0 0 0 0 0 0 0
          0 0 0 0 0 0 0 0 0 0 0 0
          0 0 0 0 0 0 0 0 0 0 0 0
          0 0 0 0 0 0 0 0 0 0 0 0
          0 0 0 0 0 0 0 0 0 0 0 0
          0 0 0 0 0 0 0 0 0 0 0 0
          0 0 0 0 0 0 0 0 0 0 0 0
          0 0 0 0 0 0 0 0 0 0 0 0
          0 0 0 0 0 0 0 0 0 0 0 0
          0 0 0 0 0 0 0 0 0 0 0 0
          0 0 0 0 0 0 0 0 0 0 0 0
          0 0 0 0 0 0 0 0 0 0 0 0
          0 0 0 0 0 0 0 0 0 0 0 0
          0 0 0 0 0 0 0 0 0 0 0 0
          0 0 0 0 0 0 0 0 0 0 0 0
          0 0 0 0 0 0 0 0 0 0 0 0
          0 0 0 0 0 0 0 0 0 0 0 0
          0 0 0 0 0 0 0 0 0 0 0 0
          0 0 0 0 0 0 0 0 0 0 0 0
          0 0 0 0 0 0 0 0 0 0 0 0
          0 0 0 0 0 0 0 0 0 0 0 0
          0 0 0 0 0 0 0 0 0 0 0 0
          0 0 0 0 0 0 0 0 0 0 0 0
          0 0 0 0 0 0 0 0 0 0 0 0
          0 0 0 0 0 0 0 0 0 0 0 0
          0 0 0 0 0 0 0 0 0 0 0 0
          0 0 0 0 0 0 0 0 0 0 0 0
          0 0 0 0 0 0 0 0 0 0 0 0
          0 0 0 0 0 0 0 0 0 0 0 0
          0 0 0 0 0 0 0 0 0 0 0 0
          0 0 0 0 0 0 0 0 0 0 0 0
          0 0 0 0 0 0 0 0 0 0 0 0
          0 0 0 0 0 0 0 0 0 0 0 0
          0 0 0 0 0 0 0 0 0 0 0 0
          0 0 0 0 0 0 0 0 0 0 0 0
          0 0 0 0 0 0 0 0 0 0 0 0
          0 0 0 0 0 0 0 0 0 0 0 0
          0 0 0 0 0 0 0 0 0 0 0 0
          0 0 0 0 0 0 0 0 0 0 0 0
          0 0 0 0 0 0 0 0 0 0 0 0
          0 0 0 0 0 0 0 0 0 0 0 0
          0 0 0 0 0 0 0 0 0 0 0 0
          0 0 0 0 0 0 0 0 0 0 0 0
          0 0 0 0 0 0 0 0 0 0 0 0
          0 0 0 0 0 0 0 0 0 0 0 0
          0 0 0 0 0 0 0 0 0 0 0 0
          0 0 0 0 0 0 0 0 0 0 0 0
          0 0 0 0 0 0 0 0 0 0 0 0
          0 0 0 0 0 0 0 0 0 0 0 0
          0 0 0 0 0 0 0 0 0 0 0 0
          0 0 0 0 0 0 0 0 0 0 0 0
          0 0 0 0 0 0 0 0 0 0 0 0
          0 0 0 0 0 0 0 0 0 0 0 0
          0 0 0 0 0 0 0 0 0 0 0 0
          0 0 0 0 0 0 0 0 0 0 0 0
          0 0 0 0 0 0 0 0 0 0 0 0
          0 0 0 0 0 0 0 0 0 0 0 0
          0 0 0 0 0 0 0 0 0 0 0 0
          0 0 0 0 0 0 0 0 0 0 0 0
          0 0 0 0 0 0 0 0 0 0 0 0
          0 0 0 0 0 0 0 0 0 0 0 0
          0 0 0 0 0 0 0 0 0 0 0 0
          0 0 0 0 0 0 0 0 0 0 0 0
          0 0 0 0 0 0 0 0 0 0 0 0
          0 0 0 0 0 0 0 0 0 0 0 0
          0 0 0 0 0 0 0 0 0 0 0 0
          0 0 0 0 0 0 0 0 0 0 0 0
          0 0 0 0 0 0 0 0 0 0 0 0
          0 0 0 0 0 0 0 0 0 0 0 0
          0 0 0 0 0 0 0 0 0 0 0 0
          0 0 0 0 0 0 0 0 0 0 0 0
          0 0 0 0 0 0 0 0 0 0 0 0
          0 0 0 0 0 0 0 0 0 0 0 0
          0 0 0 0 0 0 0 0 0 0 0 0
          0 0 0 0 0 0 0 0 0 0 0 0
          0 0 0 0 0 0 0 0 0 0 0 0
          0 0 0 0 0 0 0 0 0 0 0 0
          0 0 0 0 0 0 0 0 0 0 0 0
          0 0 0 0 0 0 0 0 0 0 0 0
          0 0 0 0 0 0 0 0 0 0 0 0
          0 0 0 0 0 0 0 0 0 0 0 0
          0 0 0 0 0 0 0 0 0 0 0 0
          0 0 0 0 0 0 0 0 0 0 0 0
          0 0 0 0 0 0 0 0 0 0 0 0
          0 0 0 0 0 0 0 0 0 0 0 0
          0 0 0 0 0 0 0 0 0 0 0 0
          0 0 0 0 0 0 0 0 0 0 0 0
          0 0 0 0 0 0 0 0 0 0 0 0
          0 0 0 0 0 0 0 0 0 0 0 0
          0 0 0 0 0 0 0 0 0 0 0 0
          0 0 0 0 0 0 0 0 0 0 0 0
          0 0 0 0 0 0 0 0 0 0 0 0
          0 0 0 0 0 0 0 0 0 0 0 0
          0 0 0 0 0 0 0 0 0 0 0 0
          0 0 0 0 0 0 0 0 0 0 0 0
          0 0 0 0 0 0 0 0 0 0 0 0
          0 0 0 0 0 0 0 0 0 0 0 0
          0 0 0 0 0 0 0 0 0 0 0 0
          0 0 0 0 0 0 0 0 0 0 0 0
          0 0 0 0 0 0 0 0 0 0 0 0
          0 0 0 0 0 0 0 0 0 0 0 0
          0 0 0 0 0 0 0 0 0 0 0 0
          0 0 0 0 0 0 0 0 0 0 0 0
          0 0 0 0 0 0 0 0 0 0 0 0
          0 0 0 0 0 0 0 0 0 0 0 0
          0 0 0 0 0 0 0 0 0 0 0 0
          0 0 0 0 0 0 0 0 0 0 0 0
          0 0 0 0 0 0 0 0 0 0 0 0
          0 0 0 0 0 0 0 0 0 0 0 0
          0 0 0 0 0 0 0 0 0 0 0 0
          0 0 0 0 0 0 0 0 0 0 0 0
          0 0 0 0 0 0 0 0 0 0 0 0
          0 0 0 0 0 0 0 0 0 0 0 0
          0 0 0 0 0 0 0 0 0 0 0 0
          0 0 0 0 0 0 0 0 0 0 0 0
          0 0 0 0 0 0 0 0 0 0 0 0
          0 0 0 0 0 0 0 0 0 0 0 0
          0 0 0 0 0 0 0 0 0 0 0 0
          0 0 0 0 0 0 0 0 0 0 0 0
          0 0 0 0 0 0 0 0 0 0 0 0
          0 0 0 0 0 0 0 0 0 0 0 0
          0 0 0 0 0 0 0 0 0 0 0 0
          0 0 0 0 0 0 0 0 0 0 0 0
          0 0 0 0 0 0 0 0 0 0 0 0
          0 0 0 0 0 0 0 0 0 0 0 0
          0 0 0 0 0 0 0 0 0 0 0 0
          0 0 0 0 0 0 0 0 0 0 0 0
          0 0 0 0 0 0 0 0 0 0 0 0
          0 0 0 0 0 0 0 0 0 0 0 0
          0 0 0 0 0 0 0 0 0 0 0 0
          0 0 0 0 0 0 0 0 0 0 0 0
          0 0 0 0 0 0 0 0 0 0 0 0
          0 0 0 0 0 0 0 0 0 0 0 0
          0 0 0 0 0 0 0 0 0 0 0 0
          0 0 0 0 0 0 0 0 0 0 0 0
          0 0 0 0 0 0 0 0 0 0 0 0
          0 0 0 0 0 0 0 0 0 0 0 0
          0 0 0 0 0 0 0 0 0 0 0 0
          0 0 0 0 0 0 0 0 0 0 0 0
          0 0 0 1 1 1 1 1 1 1 1 1
          1 1 1 1 1 1 1 1 1 1 1 1
          1 1 1 1 1 1 1 2 2 2 2 2
          2 2 2 2 2 2 2 2 2 2 2 2
          2 2 2 2 2 2 2 2 2 3 3 3
          3 3 3
        </DataArray>
        <DataArray type="Float32" Name="rank" NumberOfComponents="1" format="ascii">
          1 1 1 1 1 1 1 1 1 1 1 1
          1 1 1 1 1 1 1 1 1 1 1 1
          1 1 1 1 1 1 1 1 1 1 1 1
          1 1 1 1 1 1 1 1 1 1 1 1
          1 1 1 1 1 1 1 1 1 1 1 1
          1 1 1 1 1 1 1 1 1 1 1 1
          1 1 1 1 1 1 1 1 1 1 1 1
          1 1 1 1 1 1 1 1 1 1 1 1
          1 1 1 1 1 1 1 1 1 1 1 1
          1 1 1 1 1 1 1 1 1 1 1 1
          1 1 1 1 1 1 1 1 1 1 1 1
          1 1 1 1 1 1 1 1 1 1 1 1
          1 1 1 1 1 1 1 1 1 1 1 1
          1 1 1 1 1 1 1 1 1 1 1 1
          1 1 1 1 1 1 1 1 1 1 1 1
          1 1 1 1 1 1 1 1 1 1 1 1
          1 1 1 1 1 1 1 1 1 1 1 1
          1 1 1 1 1 1 1 1 1 1 1 1
          1 1 1 1 1 1 1 1 1 1 1 1
          1 1 1 1 1 1 1 1 1 1 1 1
          1 1 1 1 1 1 1 1 1 1 1 1
          1 1 1 1 1 1 1 1 1 1 1 1
          1 1 1 1 1 1 1 1 1 1 1 1
          1 1 1 1 1 1 1 1 1 1 1 1
          1 1 1 1 1 1 1 1 1 1 1 1
          1 1 1 1 1 1 1 1 1 1 1 1
          1 1 1 1 1 1 1 1 1 1 1 1
          1 1 1 1 1 1 1 1 1 1 1 1
          1 1 1 1 1 1 1 1 1 1 1 1
          1 1 1 1 1 1 1 1 1 1 1 1
          1 1 1 1 1 1 1 1 1 1 1 1
          1 1 1 1 1 1 1 1 1 1 1 1
          1 1 1 1 1 1 1 1 1 1 1 1
          1 1 1 1 1 1 1 1 1 1 1 1
          1 1 1 1 1 1 1 1 1 1 1 1
          1 1 1 1 1 1 1 1 1 1 1 1
          1 1 1 1 1 1 1 1 1 1 1 1
          1 1 1 1 1 1 1 1 1 1 1 1
          1 1 1 1 1 1 1 1 1 1 1 1
          1 1 1 1 1 1 1 1 1 1 1 1
          1 1 1 1 1 1 1 1 1 1 1 1
          1 1 1 1 1 1 1 1 1 1 1 1
          1 1 1 1 1 1 1 1 1 1 1 1
          1 1 1 1 1 1 1 1 1 1 1 1
          1 1 1 1 1 1 1 1 1 1 1 1
          1 1 1 1 1 1 1 1 1 1 1 1
          1 1 1 1 1 1 1 1 1 1 1 1
          1 1 1 1 1 1 1 1 1 1 1 1
          1 1 1 1 1 1 1 1 1 1 1 1
          1 1 1 1 1 1 1 1 1 1 1 1
          1 1 1 1 1 1 1 1 1 1 1 1
          1 1 1 1 1 1 1 1 1 1 1 1
          1 1 1 1 1 1 1 1 1 1 1 1
          1 1 1 1 1 1 1 1 1 1 1 1
          1 1 1 1 1 1 1 1 1 1 1 1
          1 1 1 1 1 1 1 1 1 1 1 1
          1 1 1 1 1 1 1 1 1 1 1 1
          1 1 1 1 1 1 1 1 1 1 1 1
          1 1 1 1 1 1 1 1 1 1 1 1
          1 1 1 1 1 1 1 1 1 1 1 1
          1 1 1 1 1 1 1 1 1 1 1 1
          1 1 1 1 1 1 1 1 1 1 1 1
          1 1 1 1 1 1 1 1 1 1 1 1
          1 1 1 1 1 1 1 1 1 1 1 1
          1 1 1 1 1 1 1 1 1 1 1 1
          1 1 1 1 1 1 1 1 1 1 1 1
          1 1 1 1 1 1 1 1 1 1 1 1
          1 1 1 1 1 1 1 1 1 1 1 1
          1 1 1 1 1 1 1 1 1 1 1 1
          1 1 1 1 1 1 1 1 1 1 1 1
          1 1 1 1 1 1 1 1 1 1 1 1
          1 1 1 1 1 1 1 1 1 1 1 1
          1 1 1 1 1 1 1 1 1 1 1 1
          1 1 1 1 1 1 1 1 1 1 1 1
          1 1 1 1 1 1 1 1 1 1 1 1
          1 1 1 1 1 1 1 1 1 1 1 1
          1 1 1 1 1 1 1 1 1 1 1 1
          1 1 1 1 1 1 1 1 1 1 1 1
          1 1 1 1 1 1 1 1 1 1 1 1
          1 1 1 1 1 1 1 1 1 1 1 1
          1 1 1 1 1 1 1 1 1 1 1 1
          1 1 1 1 1 1 1 1 1 1 1 1
          1 1 1 1 1 1 1 1 1 1 1 1
          1 1 1 1 1 1 1 1 1 1 1 1
          1 1 1 1 1 1 1 1 1 1 1 1
          1 1 1 1 1 1 1 1 1 1 1 1
          1 1 1 1 1 1 1 1 1 1 1 1
          1 1 1 1 1 1 1 1 1 1 1 1
          1 1 1 1 1 1 1 1 1 1 1 1
          1 1 1 1 1 1 1 1 1 1 1 1
          1 1 1 1 1 1 1 1 1 1 1 1
          1 1 1 1 1 1 1 1 1 1 1 1
          1 1 1 1 1 1 1 1 1 1 1 1
          1 1 1 1 1 1 1 1 1 1 1 1
          1 1 1 1 1 1 1 1 1 1 1 1
          1 1 1 1 1 1 1 1 1 1 1 1
          1 1 1 1 1 1 1 1 1 1 1 1
          1 1 1 1 1 1 1 1 1 1 1 1
          1 1 1 1 1 1 1 1 1 1 1 1
          1 1 1 1 1 1 1 1 1 1 1 1
          1 1 1 1 1 1 1 1 1 1 1 1
          1 1 1 1 1 1 1 1 1 1 1 1
          1 1 1 1 1 1 1 1 1 1 1 1
          1 1 1 1 1 1 1 1 1 1 1 1
          1 1 1 1 1 1 1 1 1 1 1 1
          1 1 1 1 1 1 1 1 1 1 1 1
          1 1 1 1 1 1 1 1 1 1 1 1
          1 1 1 1 1 1 1 1 1 1 1 1
          1 1 1 1 1 1 1 1 1 1 1 1
          1 1 1 1 1 1 1 1 1 1 1 1
          1 1 1 1 1 1 1 1 1 1 1 1
          1 1 1 1 1 1 1 1 1 1 1 1
          1 1 1 1 1 1 1 1 1 1 1 1
          1 1 1 1 1 1 1 1 1 1 1 1
          1 1 1 1 1 1 1 1 1 1 1 1
          1 1 1 1 1 1 1 1 1 1 1 1
          1 1 1 1 1 1 1 1 1 1 1 1
          1 1 1 1 1 1 1 1 1 1 1 1
          1 1 1 1 1 1 1 1 1 1 1 1
          1 1 1 1 1 1 1 1 1 1 1 1
          1 1 1 1 1 1 1 1 1 1 1 1
          1 1 1 1 1 1 1 1 1 1 1 1
          1 1 1 1 1 1 1 1 1 1 1 1
          1 1 1 1 1 1 1 1 1 1 1 1
          1 1 1 1 1 1 1 1 1 1 1 1
          1 1 1 1 1 1 1 1 1 1 1 1
          1 1 1 1 1 1 1 1 1 1 1 1
          1 1 1 1 1 1 1 1 1 1 1 1
          1 1 1 1 1 1 1 1 1 1 1 1
          1 1 1 1 1 1 1 1 1 1 1 1
          1 1 1 1 1 1 1 1 1 1 1 1
          1 1 1 1 1 1 1 1 1 1 1 1
          1 1 1 1 1 1 1 1 1 1 1 1
          1 1 1 1 1 1 1 1 1 1 1 1
          1 1 1 1 1 1 1 1 1 1 1 1
          1 1 1 1 1 1 1 1 1 1 1 1
          1 1 1 1 1 1 1 1 1 1 1 1
          1 1 1 1 1 1 1 1 1 1 1 1
          1 1 1 1 1 1 1 1 1 1 1 1
          1 1 1 1 1 1 1 1 1 1 1 1
          1 1 1 1 1 1 1 1 1 1 1 1
          1 1 1 1 1 1 1 1 1 1 1 1
          1 1 1 1 1 1 1 1 1 1 1 1
          1 1 1 1 1 1 1 1 1 1 1 1
          1 1 1 1 1 1 1 1 1 1 1 1
          1 1 1 1 1 1 1 1 1 1 1 1
          1 1 1 1 1 1 1 1 1 1 1 1
          1 1 1 1 1 1 1 1 1 1 1 1
          1 1 1 1 1 1 1 1 1 1 1 1
          1 1 1 1 1 1 1 1 1 1 1 1
          1 1 1 1 1 1 1 1 1 1 1 1
          1 1 1 1 1 1 1 1 1 1 1 1
          1 1 1 1 1 1 1 1 1 1 1 1
          1 1 1 1 1 1 1 1 1 1 1 1
          1 1 1 1 1 1 1 1 1 1 1 1
          1 1 1 1 1 1 1 1 1 1 1 1
          1 1 1 1 1 1 1 1 1 1 1 1
          1 1 1 1 1 1 1 1 1 1 1 1
          1 1 1 1 1 1 1 1 1 1 1 1
          1 1 1 1 1 1 1 1 1 1 1 1
          1 1 1 1 1 1 1 1 1 1 1 1
          1 1 1 1 1 1 1 1 1 1 1 1
          1 1 1 1 1 1 1 1 1 1 1 1
          1 1 1 1 1 1 1 1 1 1 1 1
          1 1 1 1 1 1 1 1 1 1 1 1
          1 1 1 1 1 1 1 1 1 1 1 1
          1 1 1 1 1 1 1 1 1 1 1 1
          1 1 1 1 1 1 1 1 1 1 1 1
          1 1 1 1 1 1 1 1 1 1 1 1
          1 1 1 1 1 1 1 1 1 1 1 1
          1 1 1 1 1 1 1 1 1 1 1 1
          1 1 1 1 1 1 1 1 1 1 1 1
          1 1 1 1 1 1 1 1 1 1 1 1
          1 1 1 1 1 1 1 1 1 1 1 1
          1 1 1 1 1 1 1 1 1 1 1 1
          1 1 1 1 1 1 1 1 1 1 1 1
          1 1 1 1 1 1 1 1 1 1 1 1
          1 1 1 1 1 1 1 1 1 1 1 1
          1 1 1 1 1 1 1 1 1 1 1 1
          1 1 1 1 1 1 1 1 1 1 1 1
          1 1 1 1 1 1 1 1 1 1 1 1
          1 1 1 1 1 1 1 1 1 1 1 1
          1 1 1 1 1 1 1 1 1 1 1 1
          1 1 1 1 1 1 1 1 1 1 1 1
          1 1 1 1 1 1 1 1 1 1 1 1
          1 1 1 1 1 1 1 1 1 1 1 1
          1 1 1 1 1 1 1 1 1 1 1 1
          1 1 1 1 1 1 1 1 1 1 1 1
          1 1 1 1 1 1 1 1 1 1 1 1
          1 1 1 1 1 1 1 1 1 1 1 1
          1 1 1 1 1 1 1 1 1 1 1 1
          1 1 1 1 1 1 1 1 1 1 1 1
          1 1 1 1 1 1 1 1 1 1 1 1
          1 1 1 1 1 1 1 1 1 1 1 1
          1 1 1 1 1 1 1 1 1 1 1 1
          1 1 1 1 1 1 1 1 1 1 1 1
          1 1 1 1 1 1 1 1 1 1 1 1
          1 1 1 1 1 1 1 1 1 1 1 1
          1 1 1 1 1 1 1 1 1 1 1 1
          1 1 1 1 1 1 1 1 1 1 1 1
          1 1 1 1 1 1 1 1 1 1 1 1
          1 1 1 1 1 1 1 1 1 1 1 1
          1 1 1 1 1 1 1 1 1 1 1 1
          1 1 1 1 1 1 1 1 1 1 1 1
          1 1 1 1 1 1 1 1 1 1 1 1
          1 1 1 1 1 1 1 1 1 1 1 1
          1 1 1 1 1 1 1 1 1 1 1 1
          1 1 1 1 1 1 1 1 1 1 1 1
          1 1 1 1 1 1 1 1 1 1 1 1
          1 1 1 1 1 1 1 1 1 1 1 1
          1 1 1 1 1 1 1 1 1 1 1 1
          1 1 1 1 1 1 1 1 1 1 1 1
          1 1 1 1 1 1 1 1 1 1 1 1
          1 1 1 1 1 1 1 1 1 1 1 1
          1 1 1 1 1 1 1 1 1 1 1 1
          1 1 1 1 1 1 1 1 1 1 1 1
          1 1 1 1 1 1 1 1 1 1 1 1
          1 1 1 1 1 1 1 1 1 1 1 1
          1 1 1 1 1 1 1 1 1 1 1 1
          1 1 1 1 1 1 1 1 1 1 1 1
          1 1 1 1 1 1 1 1 1 1 1 1
          1 1 1 1 1 1 1 1 1 1 1 1
          1 1 1 1 1 1 1 1 1 1 1 1
          1 1 1 1 1 1 1 1 1 1 1 1
          1 1 1 1 1 1 1 1 1 1 1 1
          1 1 1 1 1 1 1 1 1 1 1 1
          1 1 1 1 1 1 1 1 1 1 1 1
          1 1 1 1 1 1 1 1 1 1 1 1
          1 1 1 1 1 1 1 1 1 1 1 1
          1 1 1 1 1 1 1 1 1 1 1 1
          1 1 1 1 1 1 1 1 1 1 1 1
          1 1 1 1 1 1 1 1 1 1 1 1
          1 1 1 1 1 1 1 1 1 1 1 1
          1 1 1 1 1 1 1 1 1 1 1 1
          1 1 1 1 1 1 1 1 1 1 1 1
          1 1 1 1 1 1 1 1 1 1 1 1
          1 1 1 1 1 1 1 1 1 1 1 1
          1 1 1 1 1 1 1 1 1 1 1 1
          1 1 1
        </DataArray>
      </CellData>
      <Points>
        <DataArray type="Float32" Name="Coordinates" NumberOfComponents="3" format="ascii">
          0.715625 0.230732 0 0.774832 0.201381 0 0.722652 0.232977 0 0.70002 0.235046 0
          0.77765 0.71555 0 0.783839 0.716221 0 0.760869 0.734232 0 0.849133 0.174786 0
          0.841052 0.201513 0 0.849764 0.167661 0 0.852021 0.174376 0 0.788036 0.718179 0
          0.801074 0.714749 0 0.801837 0.714864 0 0.802321 0.717052 0 0.800463 0.716167 0
          0.800025 0.714343 0 0.79928 0.726322 0 0.731062 0.753744 0 0.750029 0.957441 0
          0.816696 0.910141 0 0.772789 0.959978 0 0.791229 0.754214 0 0.617564 0.368513 0
          0.620243 0.357423 0 0.671651 0.347702 0 0.854623 0.264175 0 0.859275 0.263326 0
          0.854367 0.267961 0 0.799425 0.96646 0 0.633867 0.340979 0 0.800471 0.713925 0
          0.800263 0.714182 0 0.800011 0.714032 0 0.861714 0.159162 0 0.85241 0.1568 0
          0.857339 0.148006 0 0.857533 0.163585 0 0.852776 0.162159 0 0.868682 0.202101 0
          0.866467 0.233098 0 0.954538 0.790301 0 0.959273 0.808921 0 0.949794 0.805699 0
          0.690896 0.232698 0 0.69072 0.233548 0 0.69033 0.232703 0 0.648396 0.244831 0
          0.651363 0.239137 0 0.65516 0.242709 0 0.670321 0.216545 0 0.673106 0.218164 0
          0.671047 0.218347 0 0.861234 0.363212 0 0.85307 0.31123 0 0.879345 0.315118 0
          0.871928 0.165877 0 0.861649 0.167512 0 0.677552 0.238856 0 0.674169 0.239928 0
          0.675658 0.237078 0 0.654535 0.247862 0 0.699659 0.234811 0 0.699617 0.234991 0
          0.699375 0.234855 0 0.699434 0.235093 0 0.692279 0.236004 0 0.692744 0.237119 0
          0.691619 0.23651 0 0.690019 0.233227 0 0.69258 0.23115 0 0.692224 0.231362 0
          0.69212 0.231079 0 0.859906 0.290252 0 0.876494 0.277788 0 0.644964 0.212956 0
          0.647288 0.2133 0 0.645405 0.214771 0 0.680785 0.233773 0 0.680448 0.231892 0
          0.681924 0.232767 0 0.672502 0.22966 0 0.674162 0.22852 0 0.674421 0.230436 0
          0.697029 0.233739 0 0.697092 0.234073 0 0.69671 0.233812 0 0.84239 0.732381 0
          0.848701 0.734121 0 0.838074 0.740496 0 0.931714 0.767361 0 0.913242 0.766001 0
          0.915141 0.749349 0 0.856162 0.719118 0 0.849692 0.726655 0 0.844062 0.721612 0
          0.674693 0.232619 0 0.672376 0.234667 0 0.672466 0.23183 0 0.698554 0.235639 0
          0.699224 0.235829 0 0.698256 0.236528 0 0.950029 0.815541 0 0.951278 0.815148 0
          0.952612 0.817573 0 0.68352 0.23979 0 0.685019 0.238167 0 0.685893 0.239445 0
          0.697843 0.235681 0 0.698228 0.235209 0 0.668896 0.223147 0 0.66771 0.224408 0
          0.667915 0.222877 0 0.699979 0.234954 0 0.699912 0.235053 0 0.699816 0.234922 0
          0.953038 0.736742 0 0.694816 0.233016 0 0.695143 0.233022 0 0.694852 0.233447 0
          0.643429 0.214815 0 0.645473 0.217377 0 0.692071 0.23336 0 0.692629 0.233302 0
          0.692236 0.233931 0 0.642693 0.212907 0 0.683653 0.227111 0 0.684128 0.226525 0
          0.684106 0.227223 0 0.670656 0.222654 0 0.671193 0.223783 0 0.669883 0.223541 0
          0.67724 0.241447 0 0.642315 0.202649 0 0.644513 0.205637 0 0.6413 0.205911 0
          0.641614 0.215747 0 0.693256 0.236242 0 0.692858 0.23386 0 0.633567 0.238727 0
          0.640438 0.235022 0 0.641468 0.24058 0 0.649461 0.229641 0 0.649671 0.225664 0
          0.652402 0.226636 0 0.633703 0.207025 0 0.633898 0.205159 0 0.635701 0.205679 0
          0.814995 0.283197 0 0.751713 0.269224 0 0.784723 0.243825 0 0.691906 0.231813 0
          0.691489 0.231844 0 0.691747 0.23154 0 0.769926 0.70895 0 0.684425 0.229713 0
          0.685244 0.229784 0 0.684801 0.230458 0 0.685249 0.228801 0 0.684525 0.228886 0
          0.684858 0.228351 0 0.693832 0.232667 0 0.693418 0.232453 0 0.693717 0.232303 0
          0.694412 0.232864 0 0.694717 0.232653 0 0.699869 0.234657 0 0.683951 0.230626 0
          0.69147 0.231426 0 0.645608 0.227447 0 0.647123 0.224856 0 0.866115 0.735442 0
          0.874527 0.728489 0 0.874901 0.743385 0 0.828096 0.716715 0 0.824873 0.720511 0
          0.822113 0.718028 0 0.635941 0.192946 0 0.642387 0.197727 0 0.637017 0.198289 0
          0.810561 0.718814 0 0.80935 0.717016 0 0.811677 0.716855 0 0.685654 0.230438 0
          0.689481 0.230797 0 0.689729 0.230209 0 0.690041 0.230864 0 0.637941 0.203349 0
          0.636165 0.204177 0 0.635968 0.202698 0 0.633237 0.203857 0 0.634817 0.20321 0
          0.634951 0.2046 0 0.68351 0.229848 0 0.691226 0.230955 0 0.690954 0.23124 0
          0.690899 0.230717 0 0.66382 0.215911 0 0.662134 0.216243 0 0.663086 0.21366 0
          0.651715 0.221505 0 0.653336 0.220342 0 0.654328 0.222003 0 0.961427 0.821693 0
          0.944202 0.831045 0 0.955191 0.819611 0 0.65134 0.223942 0 0.648316 0.222504 0
          0.678947 0.226697 0 0.677805 0.226543 0 0.678621 0.225834 0 0.66589 0.214925 0
          0.666702 0.217159 0 0.665117 0.216922 0 0.949971 0.815459 0 0.942945 0.816347 0
          0.948011 0.813491 0 0.695231 0.233394 0 0.818892 0.758111 0 0.850458 0.753446 0
          0.673761 0.226768 0 0.672322 0.227716 0 0.68313 0.226805 0 0.682531 0.226629 0
          0.682545 0.225984 0 0.667246 0.218253 0 0.667508 0.219111 0 0.666642 0.2193 0
          0.692834 0.231888 0 0.692611 0.232214 0 0.692558 0.231888 0 0.6621 0.793144 0
          0.671655 0.82164 0 0.657015 0.827569 0 0.685331 0.227807 0 0.685146 0.227132 0
          0.686064 0.227617 0 0.653589 0.224196 0 0.683011 0.222356 0 0.682993 0.224822 0
          0.68151 0.224252 0 0.701433 0.253158 0 0.714007 0.247881 0 0.710648 0.276654 0
          0.683359 0.232904 0 0.682765 0.231381 0 0.822493 0.698858 0 0.828248 0.67967 0
          0.834976 0.703083 0 0.648504 0.195492 0 0.644885 0.184953 0 0.656367 0.188992 0
          0.64646 0.211108 0 0.649051 0.212477 0 0.666761 0.236867 0 0.669701 0.235231 0
          0.67071 0.237796 0 0.636424 0.201085 0 0.89332 0.655663 0 0.850706 0.647354 0
          0.870074 0.595936 0 0.850245 0.167106 0 0.850226 0.166874 0 0.850518 0.166879 0
          0.837008 0.714684 0 0.848004 0.711831 0 0.6374 0.205812 0 0.636082 0.207343 0
          0.647642 0.837956 0 0.643326 0.831762 0 0.648992 0.835046 0 0.67831 0.227281 0
          0.786958 0.704954 0 0.793271 0.711831 0 0.692225 0.232448 0 0.691767 0.232819 0
          0.691805 0.232229 0 0.690335 0.236666 0 0.688795 0.237725 0 0.689107 0.236001 0
          0.686229 0.229501 0 0.686739 0.229586 0 0.686636 0.230121 0 0.644496 0.211356 0
          0.681592 0.231458 0 0.682381 0.230165 0 0.64263 0.208242 0 0.681124 0.230329 0
          0.691351 0.232391 0 0.690984 0.231978 0 0.679213 0.2332 0 0.680131 0.227808 0
          0.68077 0.227255 0 0.681198 0.227847 0 0.68236 0.22782 0 0.68281 0.228447 0
          0.681771 0.228453 0 0.653633 0.216895 0 0.65536 0.218174 0 0.653495 0.218722 0
          0.690638 0.231005 0 0.675663 0.228255 0 0.676735 0.227985 0 0.676796 0.229364 0
          0.634351 0.211313 0 0.636284 0.212391 0 0.635241 0.214395 0 0.697439 0.233213 0
          0.696965 0.233243 0 0.696908 0.232817 0 0.664811 0.220693 0 0.664958 0.219425 0
          0.665842 0.219841 0 0.832853 0.336801 0 0.635629 0.245935 0 0.675777 0.259911 0
          0.680686 0.251337 0 0.690132 0.259206 0 0.685632 0.229262 0 0.68495 0.22929 0
          0.910172 0.165685 0 0.887344 0.14971 0 0.91495 0.118049 0 0.67961 0.227212 0
          0.678945 0.227849 0 0.683361 0.235953 0 0.684881 0.235167 0 0.685203 0.236496 0
          0.640321 0.214169 0 0.849908 0.681971 0 0.707365 0.220242 0 0.706104 0.20304 0
          0.735546 0.214276 0 0.845425 0.24467 0 0.846613 0.256939 0 0.836562 0.255179 0
          0.655458 0.216123 0 0.633699 0.184827 0 0.641869 0.191121 0 0.884414 0.73959 0
          0.653099 0.230549 0 0.688319 0.230524 0 0.687979 0.231007 0 0.68759 0.23063 0
          0.815078 0.28327 0 0.842974 0.27611 0 0.838817 0.289337 0 0.693118 0.232946 0
          0.692701 0.232654 0 0.692842 0.23561 0 0.693188 0.235067 0 0.693753 0.23548 0
          0.683813 0.231613 0 0.663901 0.218243 0 0.663032 0.217212 0 0.698861 0.234359 0
          0.698915 0.234571 0 0.698724 0.234544 0 0.797486 0.706764 0 0.676187 0.230827 0
          0.666985 0.223069 0 0.646812 0.215526 0 0.674355 0.22554 0 0.675172 0.226132 0
          0.66179 0.232902 0 0.659118 0.235416 0 0.658939 0.231352 0 0.667986 0.215947 0
          0.649736 0.219566 0 0.661082 0.215147 0 0.832319 0.225456 0 0.849643 0.167715 0
          0.632198 0.213355 0 0.664805 0.223112 0 0.663558 0.224201 0 0.663507 0.222055 0
          0.666563 0.208884 0 0.669909 0.202623 0 0.671305 0.209474 0 0.6858 0.229696 0
          0.658046 0.218318 0 0.657037 0.216519 0 0.659208 0.217344 0 0.686128 0.230076 0
          0.656698 0.214406 0 0.658204 0.212332 0 0.659089 0.215515 0 0.644782 0.209315 0
          0.687806 0.23637 0 0.68665 0.237532 0 0.691179 0.233276 0 0.85175 0.26832 0
          0.850504 0.267273 0 0.851359 0.267 0 0.666275 0.245132 0 0.666549 0.253166 0
          0.660627 0.246215 0 0.787415 0.121275 0 0.789915 0.165933 0 0.735149 0.176528 0
          0.686438 0.235826 0 0.667673 0.240361 0 0.812137 0.693508 0 0.796239 0.682194 0
          0.837228 0.732477 0 0.701838 0.241319 0 0.696141 0.239481 0 0.698993 0.23804 0
          0.697409 0.23748 0 0.649559 0.234455 0 0.65549 0.234062 0 0.666887 0.220108 0
          0.665989 0.220871 0 0.673383 0.225268 0 0.807447 0.720156 0 0.810565 0.723145 0
          0.869993 0.181651 0 0.858545 0.174557 0 0.637519 0.207517 0 0.669017 0.224282 0
          0.671688 0.224913 0 0.672619 0.224875 0 0.672508 0.225983 0 0.851186 0.277792 0
          0.859704 0.276526 0 0.83244 0.225402 0 0.656344 0.238219 0 0.803147 0.712719 0
          0.802137 0.714048 0 0.801732 0.713175 0 0.660329 0.218296 0 0.659228 0.219416 0
          0.644318 0.25069 0 0.651462 0.252125 0 0.642136 0.258328 0 0.670791 0.225334 0
          0.68732 0.225183 0 0.689154 0.223359 0 0.689126 0.225872 0 0.672456 0.223984 0
          0.67362 0.224154 0 0.665105 0.218381 0 0.696458 0.233489 0 0.696102 0.233464 0
          0.696211 0.233156 0 0.6617 0.230575 0 0.657542 0.254106 0 0.66138 0.267729 0
          0.67033 0.233044 0 0.687631 0.708049 0 0.731058 0.753631 0 0.662142 0.793005 0
          0.698108 0.234047 0 0.698187 0.234279 0 0.697945 0.23433 0 0.849952 0.166686 0
          0.849681 0.167589 0 0.84934 0.166716 0 0.683848 0.227632 0 0.683382 0.227532 0
          0.687386 0.229828 0 0.687858 0.230078 0 0.687178 0.230262 0 0.886596 0.749756 0
          0.898233 0.739645 0 0.900273 0.757037 0 0.675446 0.22948 0 0.695719 0.236366 0
          0.695269 0.237234 0 0.694998 0.236171 0 0.686226 0.232336 0 0.687058 0.231764 0
          0.687191 0.232715 0 0.686249 0.233302 0 0.909943 0.350833 0 0.905335 0.293111 0
          0.670731 0.167326 0 0.658618 0.153813 0 0.69212 0.153833 0 0.851516 0.169381 0
          0.853747 0.170145 0 0.695854 0.234651 0 0.696441 0.234641 0 0.695944 0.235372 0
          0.690524 0.232141 0 0.671666 0.347805 0 0.692893 0.42368 0 0.646231 0.409779 0
          0.69395 0.231763 0 0.693831 0.232058 0 0.693599 0.231978 0 0.683144 0.230592 0
          0.694237 0.236515 0 0.677718 0.228663 0 0.638825 0.209038 0 0.636953 0.209118 0
          0.691932 0.231313 0 0.692044 0.231548 0 0.660601 0.213475 0 0.661626 0.209382 0
          0.693501 0.232807 0 0.693619 0.233236 0 0.691177 0.231548 0 0.683828 0.237572 0
          0.679494 0.235197 0 0.870025 0.256951 0 0.857069 0.252362 0 0.953283 0.814062 0
          0.69555 0.232603 0 0.695977 0.232787 0 0.695672 0.232909 0 0.69789 0.234084 0
          0.753121 0.80304 0 0.743323 0.31545 0 0.694058 0.232189 0 0.633949 0.385104 0
          0.69406 0.232991 0 0.694172 0.23333 0 0.639223 0.20719 0 0.695281 0.232546 0
          0.695331 0.232153 0 0.690431 0.238486 0 0.647068 0.207753 0 0.682931 0.227378 0
          0.682461 0.227157 0 0.672139 0.242866 0 0.675715 0.243599 0 0.671433 0.246809 0
          0.659796 0.226165 0 0.662368 0.225727 0 0.66065 0.228479 0 0.858058 0.186187 0
          0.640989 0.230589 0 0.645184 0.232219 0 0.663179 0.228047 0 0.704003 0.958081 0
          0.663893 0.95761 0 0.687847 0.934281 0 0.662744 0.218602 0 0.661533 0.218193 0
          0.652112 0.217469 0 0.676542 0.232783 0 0.677724 0.234541 0 0.675213 0.234824 0
          0.680629 0.228427 0 0.667135 0.221028 0 0.667827 0.220337 0 0.684935 0.21912 0
          0.685785 0.223026 0 0.674923 0.227354 0 0.681898 0.225447 0 0.681046 0.225598 0
          0.664797 0.197089 0 0.667904 0.182652 0 0.850253 0.167373 0 0.850072 0.167243 0
          0.649952 0.833286 0 0.647768 0.819095 0 0.694591 0.235481 0 0.646111 0.201282 0
          0.678131 0.236613 0 0.839874 0.0973854 0 0.827434 0.128479 0 0.668781 0.221263 0
          0.66977 0.220977 0 0.669406 0.222016 0 0.690024 0.235317 0 0.691227 0.235363 0
          0.809801 0.79436 0 0.867797 0.533083 0 0.806358 0.508892 0 0.848238 0.449394 0
          0.691268 0.229064 0 0.690869 0.230241 0 0.690226 0.22977 0 0.699134 0.234635 0
          0.699223 0.234365 0 0.699345 0.234603 0 0.87398 0.715078 0 0.874589 0.691992 0
          0.894721 0.713879 0 0.663852 0.219507 0 0.683435 0.226049 0 0.812849 0.707946 0
          0.812935 0.713385 0 0.809954 0.711936 0 0.763977 0.453242 0 0.693948 0.48137 0
          1 0.4 0 0.948439 0.313844 0 0.655053 0.220172 0 0.656808 0.219466 0