<?xml version="1.0"?>
<VTKFile type="UnstructuredGrid" version="0.1" byte_order="LittleEndian">
  <UnstructuredGrid>
    <Piece NumberOfCells="1670" NumberOfPoints="911">
      <PointData Scalars="S_liqTrichloroethene">
        <DataArray type="Float32" Name="S_liqTrichloroethene" NumberOfComponents="1" format="ascii">
          0.778389 0.771142 0.770769 0.835725 0.822641 0.836217 0.822475 0.691403 0.691088 0.718574 0.691575 0.719125
          0.718643 0.71905 0.835559 0.836051 0.822441 0.691188 0.822277 0.762152 0.798585 0.794582 0.789227 0.759674
          0.753064 0.748061 0.779304 0.766754 0.786095 0.778296 0.790016 0.807905 0.805752 0.741771 0.779231 0.778465
          0.78591 0.762672 0.767206 0.751043 0.72993 0.748116 0.739036 0.816119 0.804273 0.810636 0.754 0.753737
          0.800488 0.73017 0.740449 0.762595 0.751829 0.793558 0.801861 0.83612 0.82117 0.836059 0.778755 0.789155
          0.782997 0.691041 0.691145 0.720957 0.778967 0.76784 0.774617 0.826209 0.71184 0.762312 0.793813 0.815005
          0.79302 0.785379 0.761829 0.794353 0.798752 0.770658 0.739424 0.754847 0.749202 0.810634 0.799864 0.804253
          0.690968 0.690956 0.718392 0.836311 0.822775 0.83632 0.836129 0.822596 0.836144 0.691117 0.691097 0.718904
          0.754936 0.739418 0.749006 0.799614 0.810403 0.803911 0.779224 0.771299 0.714603 0.786317 0.82479 0.794914
          0.803322 0.772967 0.732194 0.78659 0.779001 0.771591 0.761474 0.733931 0.814051 0.810233 0.733871 0.813799
          0.836393 0.767639 0.690902 0.789405 0.735879 0.77079 0.786516 0.735418 0.813097 0.713719 0.825263 0.825075
          0.713806 0.735385 0.812868 0.816405 0.789119 0.812316 0.761505 0.710311 0.794859 0.82708 0.795704 0.800146
          0.565519 0.554705 0.578708 0.54311 0.594418 0.615232 0.597029 0.617181 0.648832 0.657958 0.658443 0.674585
          0.66523 0.671001 0.67036 0.658989 0.671772 0.176395 0.295197 0.17124 0.681135 0.634245 0.614099 0.629398
          0.665912 0.62865 0.302357 0.568355 0.588167 0.553024 0.661806 0.631101 0.613897 0.623738 0.384545 0.377303
          0.384702 0.291533 0.373917 0.298232 0.483778 0.469128 0.436572 0.411073 0.488572 0.5238 0.52215 0.570794
          0.608973 0.520562 0.519322 0.635041 0.622552 0.636431 0.53744 0.498936 0.518307 0.623273 0.569985 0
          0 0.154969 0.679343 0.604281 0.0940637 0.520812 0.538488 0.500568 0.442034 0.396582 0.525376 0.631056
          0.645768 0.638361 0.612226 0.681008 0.68172 0.667641 0.66802 0.648913 0.655121 0.440091 0.381509 0.453827
          0.556057 0.539256 0.387208 0.644538 0.191441 0.675862 0.161927 0.601271 0.597409 0.64986 0.272516 0.318156
          0.26862 0.602971 0.563996 0.554997 0.584186 0.58608 0.682262 0.581774 0.593143 0.630198 0.642923 0.610196
          0.584875 0.652765 0.237153 0.116045 0 0 0.145338 0 0 0.143316 0.639223 0.303523
          0.652288 0.441453 0.488972 0.450663 0.40229 0.43305 0.549991 0.473384 0.643657 0.484178 0.518329 0.479304
          0.553433 0.61512 0.267363 0.68254 0.678873 0.658753 0.670332 0.664006 0.537213 0.629438 0.668183 0.568304
          0.582882 0.493917 0.346369 0.371894 0.386547 0.349717 0.301105 0.637252 0.680785 0.231107 0.65718 0.643631
          0.65249 0.593245 0.654455 0.620692 0.537825 0.673019 0.43454 0.630462 0 0.427445 0.643819 0.683721
          0.598225 0.495755 0.60073 0.651543 0.109964 0.110465 0.684204 0 0 0.662073 0.675249 0.684243
          0.576407 0.622523 0.66886 0.651668 0.642146 0.51955 0.278064 0.564675 0.684356 0.449833 0.660714 0.0881942
          0.64591 0.541794 0.681071 0.672668 0.613806 0.507539 0.661912 0.324322 0.450178 0.499152 0.612291 0.674347
          0.0941243 0.0879748 0.604768 0.686214 0.665092 0.102831 0.109891 0.35537 0.120476 0.27637 0.168869 0.333862
          0.398451 0.429437 0.39413 0.645487 0.632655 0.636465 0.651888 0.66701 0.679947 0.679355 0.683508 0.670256
          0.33493 0.410908 0.437514 0.471275 0.386035 0.499572 0.519505 0.537612 0.617448 0.622615 0.636673 0.682721
          0.681198 0.409998 0.471846 0.6589 0.665217 0.651645 0.637626 0.62387 0.604015 0.621925 0.637479 0.509209
          0.462776 0.680103 0.607069 0.595424 0.578999 0.484212 0.513458 0.396441 0.465966 0.424162 0.477295 0.552822
          0.549254 0.441795 0.382415 0.382284 0.387569 0.31191 0.584021 0.661116 0.657253 0.280019 0.67446 0.54639
          0.510955 0.627392 0.664657 0.317837 0.320267 0.236807 0.665034 0.640683 0.640376 0.482287 0.652946 0.66802
          0.673342 0.663868 0.672328 0 0.476498 0.343005 0.275024 0.517484 0.508297 0.525581 0.485074 0.63117
          0.637743 0.645787 0.552464 0.303084 0.26018 0.224707 0.3376 0 0.44614 0.618361 0.620799 0.658814
          0.681958 0.65221 0.387303 0.420864 0.652492 0.660528 0.674388 0.663103 0.630014 0.591735 0.571969 0.586282
          0.653554 0.652445 0.304644 0.547841 0.599202 0.650718 0.111758 0.22062 0.113553 0.146516 0.650508 0.581509
          0.237411 0.675615 0.670207 0.680853 0 0 0 0.142656 0 0 0.516115 0.430821
          0.62306 0.0938994 0.118108 0.116904 0.363723 0.510237 0.65873 0.670267 0.567636 0.647282 0.535067 0.605674
          0.598161 0.584427 0.573072 0.562026 0.605789 0.670446 0.641589 0.567382 0.573129 0.564452 0 0
          0.538164 0.540231 0.615126 0.659881 0.568703 0.667255 0.550476 0.681038 0.682679 0.621838 0.621417 0.608838
          0.0904454 0.450938 0.499375 0.584313 0.593731 0.614107 0.568271 0.605065 0.68412 0.62962 0.537723 0.513466
          0.658714 0.451136 0.631341 0.645995 0.55375 0.650218 0.582684 0.247551 0.683253 0.675015 0.613999 0.593316
          0.574846 0.592574 0.609168 0.594126 0.534994 0.610009 0.606627 0.674513 0.108762 0.106404 0.192006 0.190005
          0.555869 0.245375 0.449295 0.439254 0.461718 0.428641 0.476852 0.497471 0.479385 0.499438 0.532401 0.542184
          0.542738 0.560203 0.550046 0.556331 0.555555 0.543244 0.557124 0.12995 0.221281 0.125919 0.567343 0.517006
          0.496322 0.511955 0.550808 0.511188 0.227005 0.451952 0.470796 0.43772 0.54633 0.513712 0.496121 0.50613
          0.292894 0.287064 0.292992 0.218523 0.284211 0.223736 0.376127 0.363576 0.336015 0.314747 0.380273 0.411236
          0.409778 0.454247 0.491194 0.40835 0.407263 0.517809 0.5049 0.51926 0.423498 0.389291 0.406352 0.505641
          0.453477 0 0 0.113699 0.577961 0.565324 0.577927 0.486533 0.0685944 0.408591 0.424456 0.390726
          0.340534 0.302877 0.41265 0.513645 0.5291 0.521272 0.494439 0.577959 0.567044 0.567866 0.552626 0.553025
          0.532468 0.539127 0.338907 0.290459 0.3505 0.440508 0.425148 0.295149 0.527824 0.141598 0.561555 0.11894
          0.483546 0.47976 0.577924 0.533478 0.203648 0.577905 0.57791 0.239489 0.20057 0.485239 0.447879 0.439531
          0.466967 0.468773 0.568418 0.464644 0.475605 0.51276 0.526088 0.492407 0.467607 0.536565 0.176228 0.0848228
          0 0 0.106586 0 0 0.105076 0.522195 0.227891 0.536049 0.340077 0.380597 0.347873
          0.307466 0.333009 0.43493 0.367177 0.52691 0.376473 0.406381 0.372282 0.438091 0.497373 0.199543 0.577949
          0.568864 0.564858 0.542987 0.555505 0.548663 0.423293 0.511973 0.553279 0.451904 0.465711 0.384916 0.261936
          0.282729 0.294537 0.264806 0.225924 0.520137 0.577947 0.566781 0.171492 0.541303 0.526834 0.536269 0.475706
          0.538444 0.502988 0.423858 0.558431 0.334264 0.513033 0 0.328281 0.52706 0.570079 0.480563 0.386506
          0.483034 0.535265 0.0803795 0.0806859 0.570589 0 0 0.546582 0.560961 0.570713 0.459538 0.50486
          0.553984 0.535398 0.525271 0.577922 0.40747 0.207834 0.448506 0.57073 0.34713 0.545144 0.0642835 0.529261
          0.427442 0.567077 0.558012 0.496023 0.396841 0.546469 0.244394 0.347453 0.389492 0.494513 0.57802 0.55997
          0.0685189 0.0639118 0.487013 0.572544 0.549931 0.080274 0.0749216 0.578098 0.26926 0.623177 0.615707 0.623077
          0.638359 0.646507 0.638448 0.588731 0.677619 0.677694 0.588851 0.677814 0.677724 0.588912 0.588771 0.630457
          0.630892 0.615452 0.62671 0.64651 0.634618 0.614895 0.610146 0.605055 0.647184 0.652497 0.658204 0.600941
          0.662972 0.615956 0.646015 0.670906 0.658134 0.664961 0.615863 0.61923 0.60687 0.646146 0.642427 0.656143
          0.653709 0.609015 0.653756 0.670914 0.664035 0.594329 0.600082 0.630713 0.620162 0.626769 0.630647 0.641505
          0.634574 0.589829 0.676273 0.615618 0.646401 0.681319 0.585851 0.620997 0.640614 0.622835 0.624772 0.638688
          0.636691 0.631871 0.647688 0.614452 0.629504 0.615843 0.64609 0.588628 0.677751 0.609738 0.599378 0.605662
          0.652879 0.664874 0.657605 0.66497 0.652966 0.657535 0.599403 0.609726 0.605678 0.677634 0.588768 0.630676
          0.586838 0.63821 0.679711 0.623311 0.593235 0.599033 0.655794 0.596377 0.669476 0.636729 0.624747 0.596236
          0.606908 0.668479 0.668571 0.596279 0.641588 0.620107 0.597574 0.667041 0.586604 0.680184 0.597205 0.667403
          0.667498 0.597236 0.680296 0.586645 0.605886 0.585055 0.647215 0.614923 0.681927 0.601 0.607809
        </DataArray>
        <DataArray type="Float32" Name="S_liqSimpleH2O" NumberOfComponents="1" format="ascii">
          0.221611 0.228857 0.229231 0.164275 0.177359 0.163783 0.177525 0.308597 0.308912 0.281426 0.308425 0.280875
          0.281357 0.28095 0.164441 0.163949 0.177559 0.308812 0.177723 0.237848 0.201415 0.205418 0.210773 0.240326
          0.246936 0.251939 0.220696 0.233246 0.213905 0.221704 0.209984 0.192095 0.194248 0.258229 0.220769 0.221535
          0.21409 0.237328 0.232794 0.248957 0.27007 0.251884 0.260964 0.183881 0.195727 0.189364 0.246 0.246263
          0.199512 0.26983 0.259551 0.237405 0.248171 0.206442 0.198139 0.16388 0.17883 0.163941 0.221245 0.210845
          0.217003 0.308959 0.308855 0.279043 0.221032 0.23216 0.225383 0.17379 0.28816 0.237688 0.206187 0.184995
          0.20698 0.214621 0.238171 0.205647 0.201248 0.229342 0.260576 0.245153 0.250798 0.189366 0.200136 0.195747
          0.309032 0.309044 0.281608 0.163689 0.177225 0.16368 0.163871 0.177404 0.163856 0.308883 0.308903 0.281096
          0.245064 0.260582 0.250994 0.200386 0.189597 0.196089 0.220776 0.228701 0.285397 0.213683 0.17521 0.205086
          0.196678 0.227033 0.267806 0.21341 0.220999 0.228409 0.238526 0.266069 0.185949 0.189767 0.266129 0.186201
          0.163607 0.232361 0.309098 0.210595 0.264121 0.22921 0.213484 0.264582 0.186903 0.286281 0.174737 0.174925
          0.286194 0.264615 0.187132 0.183595 0.210881 0.187684 0.238495 0.289689 0.205141 0.17292 0.204296 0.199854
          0.434481 0.445295 0.421292 0.45689 0.405582 0.384768 0.402971 0.382819 0.351168 0.342042 0.341557 0.325415
          0.33477 0.328999 0.32964 0.341011 0.328228 0.823605 0.704803 0.82876 0.318865 0.365755 0.385901 0.370602
          0.334088 0.37135 0.697643 0.431645 0.411833 0.446976 0.338194 0.368899 0.386103 0.376262 0.615455 0.622697
          0.615298 0.708467 0.626083 0.701768 0.516222 0.530872 0.563428 0.588927 0.511428 0.4762 0.47785 0.429206
          0.391027 0.479438 0.480678 0.364959 0.377448 0.363569 0.46256 0.501064 0.481693 0.376727 0.430015 1
          1 0.845031 0.320657 0.395719 0.905936 0.479188 0.461512 0.499432 0.557966 0.603418 0.474624 0.368944
          0.354232 0.361639 0.387774 0.318992 0.31828 0.332359 0.33198 0.351087 0.344879 0.559909 0.618491 0.546173
          0.443943 0.460744 0.612792 0.355462 0.808559 0.324138 0.838073 0.398729 0.402591 0.35014 0.727484 0.681844
          0.73138 0.397029 0.436004 0.445003 0.415814 0.41392 0.317738 0.418226 0.406857 0.369802 0.357077 0.389804
          0.415126 0.347235 0.762847 0.883955 1 1 0.854662 1 1 0.856684 0.360777 0.696477
          0.347712 0.558547 0.511028 0.549337 0.59771 0.56695 0.450009 0.526616 0.356343 0.515822 0.481671 0.520696
          0.446567 0.38488 0.732637 0.31746 0.321127 0.341248 0.329668 0.335994 0.462787 0.370562 0.331817 0.431696
          0.417118 0.506083 0.653631 0.628106 0.613453 0.650283 0.698895 0.362748 0.319216 0.768893 0.34282 0.356369
          0.34751 0.406755 0.345545 0.379308 0.462175 0.326981 0.56546 0.369538 1 0.572555 0.356181 0.316279
          0.401775 0.504245 0.39927 0.348457 0.890036 0.889535 0.315796 1 1 0.337927 0.324751 0.315757
          0.423593 0.377477 0.33114 0.348332 0.357854 0.48045 0.721936 0.435325 0.315644 0.550167 0.339286 0.911806
          0.35409 0.458206 0.318929 0.327332 0.386194 0.492461 0.338088 0.675678 0.549822 0.500848 0.387709 0.325653
          0.905876 0.912025 0.395232 0.313786 0.334908 0.897169 0.890109 0.64463 0.879524 0.72363 0.831131 0.666138
          0.601549 0.570563 0.60587 0.354513 0.367345 0.363535 0.348112 0.33299 0.320053 0.320645 0.316492 0.329744
          0.66507 0.589092 0.562486 0.528725 0.613965 0.500428 0.480495 0.462388 0.382552 0.377385 0.363327 0.317279
          0.318801 0.590002 0.528154 0.3411 0.334783 0.348355 0.362374 0.37613 0.395986 0.378075 0.362521 0.490791
          0.537224 0.319897 0.392931 0.404576 0.421001 0.515788 0.486541 0.603559 0.534034 0.575838 0.522705 0.447178
          0.450746 0.558205 0.617585 0.617716 0.612431 0.68809 0.415979 0.338884 0.342747 0.719981 0.32554 0.45361
          0.489045 0.372608 0.335343 0.682163 0.679733 0.763193 0.334966 0.359317 0.359624 0.517713 0.347054 0.33198
          0.326658 0.336132 0.327672 1 0.523502 0.656995 0.724976 0.482516 0.491703 0.474419 0.514925 0.36883
          0.362257 0.354213 0.447536 0.696916 0.73982 0.775293 0.6624 1 0.55386 0.381639 0.379201 0.341186
          0.318042 0.34779 0.612697 0.579136 0.347508 0.339472 0.325612 0.336897 0.369986 0.408265 0.428031 0.413718
          0.346446 0.347555 0.695356 0.452159 0.400798 0.349282 0.888242 0.77938 0.886447 0.853483 0.349492 0.418491
          0.762589 0.324385 0.329793 0.319147 1 1 1 0.857344 1 1 0.483885 0.569179
          0.37694 0.906101 0.881892 0.883096 0.636277 0.489763 0.34127 0.329733 0.432364 0.352718 0.464933 0.394326
          0.401839 0.415573 0.426928 0.437974 0.394211 0.329554 0.358411 0.432618 0.426871 0.435548 1 1
          0.461836 0.459769 0.384874 0.340119 0.431297 0.332745 0.449524 0.318962 0.317321 0.378162 0.378583 0.391162
          0.909555 0.549062 0.500625 0.415687 0.406269 0.385893 0.431729 0.394935 0.31588 0.37038 0.462277 0.486534
          0.341286 0.548864 0.368659 0.354005 0.44625 0.349782 0.417316 0.752448 0.316747 0.324985 0.386001 0.406684
          0.425154 0.407426 0.390832 0.405874 0.465006 0.389991 0.393373 0.325487 0.891237 0.893596 0.807994 0.809995
          0.444131 0.754625 0.550705 0.560746 0.538282 0.571359 0.523148 0.502529 0.520615 0.500562 0.467599 0.457816
          0.457262 0.439797 0.449954 0.443669 0.444445 0.456756 0.442876 0.87005 0.778719 0.874081 0.432657 0.482994
          0.503678 0.488045 0.449192 0.488812 0.772995 0.548048 0.529204 0.56228 0.45367 0.486288 0.503879 0.49387
          0.707106 0.712936 0.707008 0.781477 0.715789 0.776264 0.623873 0.636424 0.663985 0.685253 0.619727 0.588764
          0.590222 0.545753 0.508806 0.59165 0.592737 0.482191 0.4951 0.48074 0.576502 0.610709 0.593648 0.494359
          0.546523 1 1 0.886301 0.422039 0.434676 0.422073 0.513467 0.931406 0.591409 0.575544 0.609274
          0.659466 0.697123 0.58735 0.486355 0.4709 0.478728 0.505561 0.422041 0.432956 0.432134 0.447374 0.446975
          0.467532 0.460873 0.661093 0.709541 0.6495 0.559492 0.574852 0.704851 0.472176 0.858402 0.438445 0.88106
          0.516454 0.52024 0.422076 0.466521 0.796352 0.422095 0.42209 0.760511 0.79943 0.514761 0.552121 0.560469
          0.533033 0.531227 0.431582 0.535356 0.524395 0.48724 0.473911 0.507593 0.532393 0.463435 0.823772 0.915177
          1 1 0.893414 1 1 0.894924 0.477805 0.772109 0.463951 0.659923 0.619403 0.652127
          0.692534 0.666991 0.56507 0.632823 0.47309 0.623527 0.593619 0.627718 0.561909 0.502627 0.800457 0.422051
          0.431136 0.435142 0.457013 0.444495 0.451337 0.576707 0.488027 0.446721 0.548096 0.534289 0.615084 0.738064
          0.717271 0.705463 0.735194 0.774076 0.479863 0.422053 0.433219 0.828508 0.458697 0.473166 0.463731 0.524294
          0.461556 0.497012 0.576142 0.441569 0.665736 0.486967 1 0.671719 0.47294 0.429921 0.519437 0.613494
          0.516966 0.464735 0.919621 0.919314 0.429411 1 1 0.453418 0.439039 0.429287 0.540461 0.49514
          0.446016 0.464602 0.474729 0.422078 0.59253 0.792166 0.551494 0.42927 0.65287 0.454856 0.935716 0.470739
          0.572558 0.432923 0.441988 0.503977 0.603159 0.453531 0.755606 0.652547 0.610508 0.505487 0.42198 0.44003
          0.931481 0.936088 0.512987 0.427456 0.450069 0.919726 0.925078 0.421901 0.73074 0.376823 0.384293 0.376923
          0.361641 0.353493 0.361552 0.411269 0.322381 0.322306 0.411149 0.322186 0.322276 0.411088 0.411229 0.369544
          0.369108 0.384548 0.37329 0.35349 0.365383 0.385105 0.389854 0.394945 0.352816 0.347503 0.341796 0.399059
          0.337028 0.384044 0.353985 0.329094 0.341866 0.335039 0.384137 0.38077 0.39313 0.353854 0.357573 0.343857
          0.346291 0.390985 0.346244 0.329086 0.335965 0.405671 0.399918 0.369287 0.379838 0.373231 0.369353 0.358495
          0.365426 0.410171 0.323727 0.384382 0.353599 0.318681 0.414149 0.379003 0.359386 0.377165 0.375228 0.361312
          0.363309 0.368129 0.352312 0.385548 0.370496 0.384157 0.35391 0.411372 0.322249 0.390262 0.400622 0.394338
          0.347121 0.335126 0.342395 0.33503 0.347034 0.342465 0.400597 0.390274 0.394322 0.322366 0.411232 0.369324
          0.413162 0.36179 0.320289 0.376689 0.406765 0.400967 0.344206 0.403623 0.330524 0.363271 0.375253 0.403764
          0.393092 0.331521 0.331429 0.403721 0.358412 0.379893 0.402426 0.332959 0.413396 0.319816 0.402795 0.332597
          0.332502 0.402764 0.319704 0.413355 0.394114 0.414945 0.352785 0.385077 0.318073 0.399 0.392191
        </DataArray>
        <DataArray type="Float32" Name="p_liqTrichloroethene" NumberOfComponents="1" format="ascii">
          100514 100501 100500 100610 100592 100610 100592 100409 100408 100431 100409 100431
          100431 100431 100610 100610 100592 100408 100592 100486 100552 100545 100535 100481
          100472 100464 100516 100494 100528 100514 100536 100569 100565 100456 100516 100514
          100528 100487 100494 100469 100443 100465 100453 100582 100562 100574 100473 100473
          100556 100443 100455 100487 100470 100543 100558 100610 100590 100610 100515 100535
          100523 100408 100408 100433 100515 100495 100507 100597 100425 100486 100543 100580
          100542 100527 100486 100544 100552 100500 100453 100474 100466 100573 100554 100562
          100408 100408 100431 100610 100592 100610 100610 100592 100610 100408 100408 100431
          100474 100453 100466 100554 100573 100562 100516 100501 100428 100529 100595 100545
          100561 100504 100445 100530 100515 100502 100484 100447 100579 100573 100447 100579
          100610 100495 100408 100535 100449 100500 100529 100449 100577 100427 100596 100596
          100427 100449 100577 100582 100535 100576 100485 100424 100545 100598 100547 100555
          100327 100322 100333 100318 100340 100351 100342 100353 100373 100380 100381 100394
          100386 100391 100390 100381 100391 100209 100244 100208 100400 100363 100351 100360
          100387 100359 100246 100328 100337 100322 100383 100361 100351 100356 100268 100266
          100268 100243 100265 100244 100297 100292 100283 100275 100299 100311 100310 100329
          100348 100309 100309 100364 100356 100364 100316 100302 100309 100356 100329 100000
          100000 100202 100398 100345 100178 100310 100316 100303 100284 100271 100311 100361
          100371 100366 100350 100399 100400 100388 100388 100373 100378 100284 100267 100288
          100323 100316 100269 100370 100214 100395 100204 100344 100342 100374 100237 100250
          100236 100345 100326 100322 100335 100336 100400 100334 100340 100360 100369 100349
          100336 100376 100227 100188 100000 100000 100199 100000 100000 100198 100366 100246
          100376 100284 100299 100287 100273 100282 100321 100294 100370 100297 100309 100296
          100322 100351 100236 100401 100398 100381 100390 100385 100316 100360 100388 100328
          100335 100300 100257 100264 100268 100258 100245 100365 100399 100226 100379 100369
          100376 100340 100378 100355 100316 100392 100282 100361 100000 100280 100370 100402
          100342 100301 100344 100375 100185 100186 100402 100000 100000 100383 100394 100402
          100332 100356 100389 100375 100368 100309 100239 100327 100402 100287 100382 100176
          100371 100317 100399 100392 100351 100305 100383 100251 100287 100302 100350 100394
          100179 100176 100346 100404 100386 100182 100185 100260 100190 100238 100207 100254
          100272 100281 100271 100371 100362 100364 100375 100387 100398 100398 100402 100390
          100254 100275 100283 100293 100268 100302 100309 100316 100353 100356 100365 100401
          100400 100275 100293 100381 100386 100375 100365 100356 100345 100355 100365 100306
          100290 100399 100347 100341 100333 100297 100307 100271 100291 100279 100295 100322
          100320 100284 100267 100267 100269 100248 100335 100383 100380 100239 100394 100319
          100306 100359 100386 100250 100250 100227 100386 100367 100367 100297 100376 100388
          100393 100385 100392 100000 100295 100256 100238 100308 100305 100311 100297 100361
          100365 100371 100322 100246 100234 100224 100255 100000 100285 100353 100355 100381
          100400 100376 100269 100278 100376 100382 100394 100384 100360 100339 100330 100336
          100377 100376 100246 100320 100343 100375 100186 100223 100187 100199 100374 100334
          100228 100395 100390 100399 100000 100000 100000 100198 100000 100000 100308 100281
          100356 100178 100189 100188 100262 100306 100381 100390 100328 100372 100315 100346
          100342 100335 100330 100325 100346 100390 100368 100328 100330 100327 100000 100000
          100316 100317 100351 100382 100328 100388 100321 100399 100401 100355 100355 100348
          100177 100287 100302 100335 100340 100351 100328 100346 100402 100360 100316 100307
          100381 100287 100361 100371 100322 100374 100335 100230 100401 100394 100351 100340
          100331 100339 100348 100340 100315 100348 100347 100394 100185 100184 100214 100213
          100323 100230 100291 100288 100296 100284 100301 100310 100302 100310 100326 100330
          100331 100340 100335 100338 100338 100331 100339 100193 100223 100192 100344 100318
          100309 100316 100335 100316 100225 100292 100299 100287 100333 100317 100309 100313
          100244 100242 100244 100223 100242 100224 100268 100264 100256 100250 100269 100279
          100278 100293 100307 100278 100277 100318 100313 100319 100282 100272 100277 100313
          100293 100000 100000 100187 100351 100343 100350 100305 100166 100278 100283 100272
          100257 100247 100279 100317 100324 100320 100308 100351 100344 100345 100336 100336
          100326 100329 100257 100243 100260 100288 100283 100245 100323 100198 100341 100189
          100304 100302 100350 100326 100218 100350 100350 100229 100217 100305 100291 100288
          100298 100298 100345 100297 100301 100316 100322 100307 100298 100328 100210 100174
          100000 100000 100184 100000 100000 100183 100321 100225 100327 100257 100269 100260
          100248 100255 100286 100265 100323 100268 100277 100267 100287 100310 100217 100351
          100345 100343 100331 100338 100334 100282 100316 100336 100292 100297 100270 100235
          100241 100244 100236 100225 100320 100351 100344 100208 100330 100323 100327 100301
          100329 100312 100283 100339 100256 100316 100000 100254 100323 100346 100303 100271
          100304 100327 100172 100172 100346 100000 100000 100333 100341 100346 100295 100313
          100337 100327 100322 100350 100277 100219 100291 100346 100259 100332 100163 100324
          100284 100344 100339 100309 100274 100333 100230 100259 100272 100308 100351 100340
          100166 100163 100305 100347 100335 100172 100169 100351 100237 100377 100373 100377
          100385 100390 100386 100357 100403 100403 100357 100403 100403 100357 100357 100381
          100382 100373 100379 100390 100384 100373 100370 100367 100390 100393 100395 100364
          100397 100373 100389 100401 100395 100398 100373 100375 100368 100389 100388 100394
          100393 100369 100393 100401 100398 100360 100364 100381 100376 100379 100381 100387
          100384 100358 100403 100373 100390 100405 100355 100376 100387 100377 100378 100386
          100385 100382 100390 100372 100381 100373 100389 100357 100403 100370 100363 100367
          100393 100398 100395 100398 100393 100395 100363 100370 100367 100403 100357 100381
          100356 100385 100404 100377 100360 100363 100394 100362 100400 100385 100378 100362
          100368 100400 100400 100362 100387 100376 100362 100399 100356 100404 100362 100399
          100399 100362 100404 100356 100367 100355 100390 100373 100405 100364 100368
        </DataArray>
        <DataArray type="Float32" Name="p_liqSimpleH2O" NumberOfComponents="1" format="ascii">
          100096 100088 100088 100138 100135 100138 100135 100041 100041 100050 100041 100050
          100050 100050 100138 100138 100135 100041 100135 100079 100118 100114 100108 100076
          100071 100067 100097 100084 100104 100096 100109 100126 100124 100062 100097 100096
          100104 100079 100084 100069 100056 100067 100061 100132 100123 100128 100071 100071
          100120 100056 100061 100079 100070 100113 100121 100138 100134 100138 100096 100108
          100101 100041 100041 100051 100096 100084 100092 100136 100048 100079 100113 100131
          100112 100104 100079 100113 100118 100087 100061 100072 100068 100128 100119 100123
          100041 100041 100050 100138 100135 100138 100138 100135 100138 100041 100041 100050
          100072 100061 100068 100119 100128 100123 100097 100088 100049 100105 100135 100114
          100122 100090 100057 100105 100096 100088 100078 100057 100130 100128 100058 100130
          100137 100084 100042 100108 100059 100088 100105 100059 100129 100048 100136 100136
          100048 100059 100130 100132 100108 100129 100078 100047 100114 100136 100115 100119
          100009 100008 100010 100007 100012 100016 100013 100016 100025 100028 100028 100034
          100031 100033 100033 100028 100033 100000 100001 100000 100037 100020 100016 100019
          100031 100019 100001 100009 100011 100008 100029 100020 100016 100018 100002 100001
          100002 100001 100001 100001 100004 100003 100002 100002 100004 100006 100005 100009
          100015 100005 100005 100021 100017 100021 100006 100004 100005 100018 100009 100000
          100000 100000 100036 100014 100000 100005 100006 100004 100003 100002 100006 100020
          100024 100022 100015 100037 100037 100031 100032 100025 100027 100002 100001 100003
          100008 100006 100002 100023 100000 100035 100000 100013 100013 100025 100001 100001
          100001 100014 100009 100008 100011 100011 100038 100010 100012 100019 100023 100015
          100011 100026 100000 100000 100000 100000 100000 100000 100000 100000 100022 100001
          100026 100002 100004 100003 100002 100002 100007 100003 100023 100004 100005 100004
          100008 100016 100001 100038 100036 100028 100033 100030 100006 100019 100032 100009
          100011 100004 100001 100001 100002 100001 100001 100021 100037 100000 100028 100023
          100026 100012 100027 100017 100006 100034 100002 100019 100000 100002 100023 100038
          100013 100004 100013 100026 100000 100000 100038 100000 100000 100029 100035 100039
          100010 100017 100032 100026 100023 100005 100001 100009 100038 100003 100029 100000
          100024 100007 100037 100034 100016 100005 100029 100001 100003 100004 100015 100034
          100000 100000 100014 100039 100031 100000 100000 100001 100000 100001 100000 100001
          100002 100002 100002 100024 100020 100021 100026 100031 100037 100036 100038 100033
          100001 100002 100002 100003 100002 100004 100005 100006 100016 100017 100021 100038
          100037 100002 100003 100028 100031 100026 100021 100018 100014 100017 100021 100005
          100003 100037 100014 100012 100010 100004 100005 100002 100003 100002 100003 100008
          100007 100003 100002 100002 100002 100001 100011 100029 100028 100001 100034 100007
          100005 100019 100030 100001 100001 100000 100030 100022 100022 100004 100026 100032
          100034 100030 100033 100000 100003 100001 100001 100005 100005 100006 100004 100020
          100021 100024 100008 100001 100001 100000 100001 100000 100003 100016 100017 100028
          100038 100026 100002 100002 100026 100029 100034 100030 100019 100012 100009 100011
          100026 100026 100001 100007 100013 100025 100000 100000 100000 100000 100025 100010
          100001 100035 100033 100037 100000 100000 100000 100000 100000 100000 100005 100002
          100017 100000 100000 100000 100001 100005 100028 100033 100009 100024 100006 100014
          100013 100011 100009 100008 100014 100033 100022 100009 100009 100009 100000 100000
          100006 100007 100016 100029 100009 100031 100007 100037 100038 100017 100017 100015
          100000 100003 100004 100011 100012 100016 100009 100014 100038 100019 100006 100005
          100028 100003 100020 100024 100008 100025 100011 100000 100038 100035 100016 100012
          100010 100012 100015 100012 100006 100015 100014 100034 100000 100000 100000 100000
          100008 100001 100007 100007 100008 100006 100010 100012 100010 100012 100018 100020
          100020 100024 100021 100023 100023 100020 100023 100000 100001 100000 100025 100015
          100012 100014 100022 100014 100001 100008 100009 100007 100021 100015 100012 100013
          100002 100002 100002 100001 100002 100001 100004 100003 100003 100002 100004 100005