<?xml version="1.0"?>
<VTKFile type="UnstructuredGrid" version="0.1" byte_order="LittleEndian">
  <UnstructuredGrid>
    <Piece NumberOfCells="126" NumberOfPoints="154">
      <PointData Scalars="porosity">
        <DataArray type="Float32" Name="porosity" NumberOfComponents="1" format="ascii">
          0.2 0.2 0.2 0.2 0.2 0.2 0.2 0.2 0.2 0.2 0.2 0.2
          0.2 0.2 0.2 0.2 0.2 0.2 0.2 0.2 0.2 0.2 0.2 0.2
          0.2 0.2 0.2 0.2 0.2 0.2 0.2 0.2 0.2 0.2 0.2 0.2
          0.2 0.2 0.2 0.2 0.2 0.2 0.2 0.2 0.2 0.2 0.2 0.2
          0.2 0.2 0.2 0.2 0.2 0.2 0.2 0.2 0.2 0.2 0.2 0.2
          0.2 0.2 0.2 0.2 0.2 0.2 0.2 0.2 0.2 0.2 0.2 0.2
          0.2 0.2 0.2 0.2 0.2 0.2 0.2 0.2 0.2 0.2 0.2 0.2
          0.2 0.2 0.2 0.2 0.2 0.2 0.2 0.2 0.2 0.2 0.2 0.2
          0.2 0.2 0.2 0.2 0.2 0.2 0.2 0.2 0.2 0.2 0.2 0.2
          0.2 0.2 0.2 0.2 0.2 0.2 0.2 0.2 0.2 0.2 0.2 0.2
          0.2 0.2 0.2 0.2 0.2 0.2 0.2 0.2 0.2 0.2 0.2 0.2
          0.2 0.2 0.2 0.2 0.2 0.2 0.2 0.2 0.2 0.2 0.2 0.2
          0.2 0.2 0.2 0.2 0.2 0.2 0.2 0.2 0.2 0.2
        </DataArray>
        <DataArray type="Float32" Name="pc" NumberOfComponents="1" format="ascii">
          14005.8 14005.8 14005.7 14005.7 14005.8 14005.7 14005.8 14005.7 14005.8 14005.7 14005.8 14005.7
          14005.8 14005.7 14005.8 14005.7 14005.8 14005.7 14005.8 14005.7 14005.8 14005.7 14005.8 14005.7
          14005.8 14005.7 14005.8 14005.7 14005.8 14005.7 14005.8 14005.7 14005.8 14005.7 14005.8 14005.7
          14005.8 14005.7 14005.8 14005.7 14005.8 14005.7 14005.8 14005.7 14005.6 14005.6 14005.6 14005.6
          14005.6 14005.6 14005.6 14005.6 14005.6 14005.6 14005.6 14005.6 14005.6 14005.6 14005.6 14005.6
          14005.6 14005.6 14005.6 14005.6 14005.6 14005.6 14005.6 14005.6 14005.6 14005.6 14005.6 14005.6
          14005.6 14005.6 14005.6 14005.6 14005.6 14005.6 14005.6 14005.6 14005.6 14005.6 14005.6 14005.6
          14005.6 14005.6 14005.6 14005.6 14005.5 14005.5 14005.5 14005.5 14005.5 14005.5 14005.5 14005.5
          14005.5 14005.5 14005.5 14005.5 14005.5 14005.5 14005.5 14005.5 14005.5 14005.5 14005.5 14005.5
          14005.5 14005.5 14005.4 14005.4 14005.4 14005.4 14005.4 14005.4 14005.4 14005.4 14005.4 14005.4
          14005.4 14005.4 14005.4 14005.4 14005.4 14005.4 14005.4 14005.4 14005.4 14005.4 14005.4 14005.4
          14005.3 14005.3 14005.3 14005.3 14005.3 14005.3 14005.3 14005.3 14005.3 14005.3 14005.3 14005.3
          14005.3 14005.3 14005.3 14005.3 14005.3 14005.3 14005.3 14005.3 14005.3 14005.3
        </DataArray>
        <DataArray type="Float32" Name="Sw" NumberOfComponents="1" format="ascii">
          0.30002 0.30002 0.300017 0.300017 0.30002 0.300017 0.30002 0.300017 0.30002 0.300017 0.30002 0.300017
          0.30002 0.300017 0.30002 0.300017 0.30002 0.300017 0.30002 0.300017 0.30002 0.300017 0.30002 0.300017
          0.30002 0.300017 0.30002 0.300017 0.30002 0.300017 0.30002 0.300017 0.30002 0.300017 0.30002 0.300017
          0.30002 0.300017 0.30002 0.300017 0.30002 0.300017 0.30002 0.300017 0.300013 0.300013 0.300013 0.300013
          0.300013 0.300013 0.300013 0.300013 0.300013 0.300013 0.300013 0.300013 0.300013 0.300013 0.300013 0.300013
          0.300013 0.300013 0.300013 0.300013 0.300013 0.300013 0.30001 0.30001 0.30001 0.30001 0.30001 0.30001
          0.30001 0.30001 0.30001 0.30001 0.30001 0.30001 0.30001 0.30001 0.30001 0.30001 0.30001 0.30001
          0.30001 0.30001 0.30001 0.30001 0.300007 0.300007 0.300007 0.300007 0.300007 0.300007 0.300007 0.300007
          0.300007 0.300007 0.300007 0.300007 0.300007 0.300007 0.300007 0.300007 0.300007 0.300007 0.300007 0.300007
          0.300007 0.300007 0.300003 0.300003 0.300003 0.300003 0.300003 0.300003 0.300003 0.300003 0.300003 0.300003
          0.300003 0.300003 0.300003 0.300003 0.300003 0.300003 0.300003 0.300003 0.300003 0.300003 0.300003 0.300003
          0.3 0.3 0.3 0.3 0.3 0.3 0.3 0.3 0.3 0.3 0.3 0.3
          0.3 0.3 0.3 0.3 0.3 0.3 0.3 0.3 0.3 0.3
        </DataArray>
        <DataArray type="Float32" Name="pw" NumberOfComponents="1" format="ascii">
          114005 114005 114005 114005 114005 114005 114005 114005 114005 114005 114005 114005
          114005 114005 114005 114005 114005 114005 114005 114005 114005 114005 114005 114005
          114005 114005 114005 114005 114005 114005 114005 114005 114005 114005 114005 114005
          114005 114005 114005 114005 114005 114005 114005 114005 114005 114005 114005 114005
          114005 114005 114005 114005 114005 114005 114005 114005 114005 114005 114005 114005
          114005 114005 114005 114005 114005 114005 114005 114005 114005 114005 114005 114005
          114005 114005 114005 114005 114005 114005 114005 114005 114005 114005 114005 114005
          114005 114005 114005 114005 114005 114005 114005 114005 114005 114005 114005 114005
          114005 114005 114005 114005 114005 114005 114005 114005 114005 114005 114005 114005
          114005 114005 114005 114005 114005 114005 114005 114005 114005 114005 114005 114005
          114005 114005 114005 114005 114005 114005 114005 114005 114005 114005 114005 114005
          114005 114005 114005 114005 114005 114005 114005 114005 114005 114005 114005 114005
          114005 114005 114005 114005 114005 114005 114005 114005 114005 114005
        </DataArray>
        <DataArray type="Float32" Name="rhoW" NumberOfComponents="1" format="ascii">
          993.403 993.403 993.403 993.403 993.403 993.403 993.403 993.403 993.403 993.403 993.403 993.403
          993.403 993.403 993.403 993.403 993.403 993.403 993.403 993.403 993.403 993.403 993.403 993.403
          993.403 993.403 993.403 993.403 993.403 993.403 993.403 993.403 993.403 993.403 993.403 993.403
          993.403 993.403 993.403 993.403 993.403 993.403 993.403 993.403 993.403 993.403 993.403 993.403
          993.403 993.403 993.403 993.403 993.403 993.403 993.403 993.403 993.403 993.403 993.403 993.403
          993.403 993.403 993.403 993.403 993.403 993.403 993.404 993.404 993.404 993.404 993.404 993.404
          993.404 993.404 993.404 993.404 993.404 993.404 993.404 993.404 993.404 993.404 993.404 993.404
          993.404 993.404 993.404 993.404 993.404 993.404 993.404 993.404 993.404 993.404 993.404 993.404
          993.404 993.404 993.404 993.404 993.404 993.404 993.404 993.404 993.404 993.404 993.404 993.404
          993.404 993.404 993.404 993.404 993.404 993.404 993.404 993.404 993.404 993.404 993.404 993.404
          993.404 993.404 993.404 993.404 993.404 993.404 993.404 993.404 993.404 993.404 993.404 993.404
          993.404 993.404 993.404 993.404 993.404 993.404 993.404 993.404 993.404 993.404 993.404 993.404
          993.404 993.404 993.404 993.404 993.404 993.404 993.404 993.404 993.404 993.404
        </DataArray>
        <DataArray type="Float32" Name="mobW" NumberOfComponents="1" format="ascii">
          302.595 302.595 302.589 302.589 302.595 302.589 302.595 302.589 302.595 302.589 302.595 302.589
          302.595 302.589 302.595 302.589 302.595 302.589 302.595 302.589 302.595 302.589 302.595 302.589
          302.595 302.589 302.595 302.589 302.595 302.589 302.595 302.589 302.595 302.589 302.595 302.589
          302.595 302.589 302.595 302.589 302.595 302.589 302.595 302.589 302.583 302.583 302.583 302.583
          302.583 302.583 302.583 302.583 302.583 302.583 302.583 302.583 302.583 302.583 302.583 302.583
          302.583 302.583 302.583 302.583 302.583 302.583 302.578 302.578 302.578 302.578 302.578 302.578
          302.578 302.578 302.578 302.578 302.578 302.578 302.578 302.578 302.578 302.578 302.578 302.578
          302.578 302.578 302.578 302.578 302.572 302.572 302.572 302.572 302.572 302.572 302.572 302.572
          302.572 302.572 302.572 302.572 302.572 302.572 302.572 302.572 302.572 302.572 302.572 302.572
          302.572 302.572 302.566 302.566 302.566 302.566 302.566 302.566 302.566 302.566 302.566 302.566
          302.566 302.566 302.566 302.566 302.566 302.566 302.566 302.566 302.566 302.566 302.566 302.566
          302.561 302.561 302.561 302.561 302.561 302.561 302.561 302.561 302.561 302.561 302.561 302.561
          302.561 302.561 302.561 302.561 302.561 302.561 302.561 302.561 302.561 302.561
        </DataArray>
        <DataArray type="Float32" Name="Sn" NumberOfComponents="1" format="ascii">
          0.69998 0.69998 0.699983 0.699983 0.69998 0.699983 0.69998 0.699983 0.69998 0.699983 0.69998 0.699983
          0.69998 0.699983 0.69998 0.699983 0.69998 0.699983 0.69998 0.699983 0.69998 0.699983 0.69998 0.699983
          0.69998 0.699983 0.69998 0.699983 0.69998 0.699983 0.69998 0.699983 0.69998 0.699983 0.69998 0.699983
          0.69998 0.699983 0.69998 0.699983 0.69998 0.699983 0.69998 0.699983 0.699987 0.699987 0.699987 0.699987
          0.699987 0.699987 0.699987 0.699987 0.699987 0.699987 0.699987 0.699987 0.699987 0.699987 0.699987 0.699987
          0.699987 0.699987 0.699987 0.699987 0.699987 0.699987 0.69999 0.69999 0.69999 0.69999 0.69999 0.69999
          0.69999 0.69999 0.69999 0.69999 0.69999 0.69999 0.69999 0.69999 0.69999 0.69999 0.69999 0.69999
          0.69999 0.69999 0.69999 0.69999 0.699993 0.699993 0.699993 0.699993 0.699993 0.699993 0.699993 0.699993
          0.699993 0.699993 0.699993 0.699993 0.699993 0.699993 0.699993 0.699993 0.699993 0.699993 0.699993 0.699993
          0.699993 0.699993 0.699997 0.699997 0.699997 0.699997 0.699997 0.699997 0.699997 0.699997 0.699997 0.699997
          0.699997 0.699997 0.699997 0.699997 0.699997 0.699997 0.699997 0.699997 0.699997 0.699997 0.699997 0.699997
          0.7 0.7 0.7 0.7 0.7 0.7 0.7 0.7 0.7 0.7 0.7 0.7
          0.7 0.7 0.7 0.7 0.7 0.7 0.7 0.7 0.7 0.7
        </DataArray>
        <DataArray type="Float32" Name="pn" NumberOfComponents="1" format="ascii">
          99999.6 99999.6 99999.7 99999.7 99999.6 99999.7 99999.6 99999.7 99999.6 99999.7 99999.6 99999.7
          99999.6 99999.7 99999.6 99999.7 99999.6 99999.7 99999.6 99999.7 99999.6 99999.7 99999.6 99999.7
          99999.6 99999.7 99999.6 99999.7 99999.6 99999.7 99999.6 99999.7 99999.6 99999.7 99999.6 99999.7
          99999.6 99999.7 99999.6 99999.7 99999.6 99999.7 99999.6 99999.7 99999.7 99999.7 99999.7 99999.7
          99999.7 99999.7 99999.7 99999.7 99999.7 99999.7 99999.7 99999.7 99999.7 99999.7 99999.7 99999.7
          99999.7 99999.7 99999.7 99999.7 99999.7 99999.7 99999.8 99999.8 99999.8 99999.8 99999.8 99999.8
          99999.8 99999.8 99999.8 99999.8 99999.8 99999.8 99999.8 99999.8 99999.8 99999.8 99999.8 99999.8
          99999.8 99999.8 99999.8 99999.8 99999.9 99999.9 99999.9 99999.9 99999.9 99999.9 99999.9 99999.9
          99999.9 99999.9 99999.9 99999.9 99999.9 99999.9 99999.9 99999.9 99999.9 99999.9 99999.9 99999.9
          99999.9 99999.9 99999.9 99999.9 99999.9 99999.9 99999.9 99999.9 99999.9 99999.9 99999.9 99999.9
          99999.9 99999.9 99999.9 99999.9 99999.9 99999.9 99999.9 99999.9 99999.9 99999.9 99999.9 99999.9
          100000 100000 100000 100000 100000 100000 100000 100000 100000 100000 100000 100000
          100000 100000 100000 100000 100000 100000 100000 100000 100000 100000
        </DataArray>
        <DataArray type="Float32" Name="rhoN" NumberOfComponents="1" format="ascii">
          1.0976 1.0976 1.10151 1.10151 1.0976 1.10151 1.0976 1.10151 1.0976 1.10151 1.0976 1.10151
          1.0976 1.10151 1.0976 1.10151 1.0976 1.10151 1.0976 1.10151 1.0976 1.10151 1.0976 1.10151
          1.0976 1.10151 1.0976 1.10151 1.0976 1.10151 1.0976 1.10151 1.0976 1.10151 1.0976 1.10151
          1.0976 1.10151 1.0976 1.10151 1.0976 1.10151 1.0976 1.10151 1.10528 1.10528 1.10528 1.10528
          1.10528 1.10528 1.10528 1.10528 1.10528 1.10528 1.10528 1.10528 1.10528 1.10528 1.10528 1.10528
          1.10528 1.10528 1.10528 1.10528 1.10528 1.10528 1.10892 1.10892 1.10892 1.10892 1.10892 1.10892
          1.10892 1.10892 1.10892 1.10892 1.10892 1.10892 1.10892 1.10892 1.10892 1.10892 1.10892 1.10892
          1.10892 1.10892 1.10892 1.10892 1.11243 1.11243 1.11243 1.11243 1.11243 1.11243 1.11243 1.11243
          1.11243 1.11243 1.11243 1.11243 1.11243 1.11243 1.11243 1.11243 1.11243 1.11243 1.11243 1.11243
          1.11243 1.11243 1.11581 1.11581 1.11581 1.11581 1.11581 1.11581 1.11581 1.11581 1.11581 1.11581
          1.11581 1.11581 1.11581 1.11581 1.11581 1.11581 1.11581 1.11581 1.11581 1.11581 1.11581 1.11581
          1.11907 1.11907 1.11907 1.11907 1.11907 1.11907 1.11907 1.11907 1.11907 1.11907 1.11907 1.11907
          1.11907 1.11907 1.11907 1.11907 1.11907 1.11907 1.11907 1.11907 1.11907 1.11907
        </DataArray>
        <DataArray type="Float32" Name="mobN" NumberOfComponents="1" format="ascii">
          9071.99 9071.99 9035.61 9035.61 9071.99 9035.61 9071.99 9035.61 9071.99 9035.61 9071.99 9035.61
          9071.99 9035.61 9071.99 9035.61 9071.99 9035.61 9071.99 9035.61 9071.99 9035.61 9071.99 9035.61
          9071.99 9035.61 9071.99 9035.61 9071.99 9035.61 9071.99 9035.61 9071.99 9035.61 9071.99 9035.61
          9071.99 9035.61 9071.99 9035.61 9071.99 9035.61 9071.99 9035.61 9000.81 9000.81 9000.81 9000.81
          9000.81 9000.81 9000.81 9000.81 9000.81 9000.81 9000.81 9000.81 9000.81 9000.81 9000.81 9000.81
          9000.81 9000.81 9000.81 9000.81 9000.81 9000.81 8967.5 8967.5 8967.5 8967.5 8967.5 8967.5
          8967.5 8967.5 8967.5 8967.5 8967.5 8967.5 8967.5 8967.5 8967.5 8967.5 8967.5 8967.5
          8967.5 8967.5 8967.5 8967.5 8935.62 8935.62 8935.62 8935.62 8935.62 8935.62 8935.62 8935.62
          8935.62 8935.62 8935.62 8935.62 8935.62 8935.62 8935.62 8935.62 8935.62 8935.62 8935.62 8935.62
          8935.62 8935.62 8905.09 8905.09 8905.09 8905.09 8905.09 8905.09 8905.09 8905.09 8905.09 8905.09
          8905.09 8905.09 8905.09 8905.09 8905.09 8905.09 8905.09 8905.09 8905.09 8905.09 8905.09 8905.09
          8875.85 8875.85 8875.85 8875.85 8875.85 8875.85 8875.85 8875.85 8875.85 8875.85 8875.85 8875.85
          8875.85 8875.85 8875.85 8875.85 8875.85 8875.85 8875.85 8875.85 8875.85 8875.85
        </DataArray>
        <DataArray type="Float32" Name="x_l^H2O" NumberOfComponents="1" format="ascii">
          0.999989 0.999989 0.999988 0.999988 0.999989 0.999988 0.999989 0.999988 0.999989 0.999988 0.999989 0.999988
          0.999989 0.999988 0.999989 0.999988 0.999989 0.999988 0.999989 0.999988 0.999989 0.999988 0.999989 0.999988
          0.999989 0.999988 0.999989 0.999988 0.999989 0.999988 0.999989 0.999988 0.999989 0.999988 0.999989 0.999988
          0.999989 0.999988 0.999989 0.999988 0.999989 0.999988 0.999989 0.999988 0.999988 0.999988 0.999988 0.999988
          0.999988 0.999988 0.999988 0.999988 0.999988 0.999988 0.999988 0.999988 0.999988 0.999988 0.999988 0.999988
          0.999988 0.999988 0.999988 0.999988 0.999988 0.999988 0.999988 0.999988 0.999988 0.999988 0.999988 0.999988
          0.999988 0.999988 0.999988 0.999988 0.999988 0.999988 0.999988 0.999988 0.999988 0.999988 0.999988 0.999988
          0.999988 0.999988 0.999988 0.999988 0.999988 0.999988 0.999988 0.999988 0.999988 0.999988 0.999988 0.999988
          0.999988 0.999988 0.999988 0.999988 0.999988 0.999988 0.999988 0.999988 0.999988 0.999988 0.999988 0.999988
          0.999988 0.999988 0.999987 0.999987 0.999987 0.999987 0.999987 0.999987 0.999987 0.999987 0.999987 0.999987
          0.999987 0.999987 0.999987 0.999987 0.999987 0.999987 0.999987 0.999987 0.999987 0.999987 0.999987 0.999987
          0.999987 0.999987 0.999987 0.999987 0.999987 0.999987 0.999987 0.999987 0.999987 0.999987 0.999987 0.999987
          0.999987 0.999987 0.999987 0.999987 0.999987 0.999987 0.999987 0.999987 0.999987 0.999987
        </DataArray>
        <DataArray type="Float32" Name="x_l^N2" NumberOfComponents="1" format="ascii">
          7.16836e-06 7.16836e-06 6.91411e-06 6.91411e-06 7.16836e-06 6.91411e-06 7.16836e-06 6.91411e-06 7.16836e-06 6.91411e-06 7.16836e-06 6.91411e-06
          7.16836e-06 6.91411e-06 7.16836e-06 6.91411e-06 7.16836e-06 6.91411e-06 7.16836e-06 6.91411e-06 7.16836e-06 6.91411e-06 7.16836e-06 6.91411e-06
          7.16836e-06 6.91411e-06 7.16836e-06 6.91411e-06 7.16836e-06 6.91411e-06 7.16836e-06 6.91411e-06 7.16836e-06 6.91411e-06 7.16836e-06 6.91411e-06
          7.16836e-06 6.91411e-06 7.16836e-06 6.91411e-06 7.16836e-06 6.91411e-06 7.16836e-06 6.91411e-06 6.66887e-06 6.66887e-06 6.66887e-06 6.66887e-06
          6.66887e-06 6.66887e-06 6.66887e-06 6.66887e-06 6.66887e-06 6.66887e-06 6.66887e-06 6.66887e-06 6.66887e-06 6.66887e-06 6.66887e-06 6.66887e-06
          6.66887e-06 6.66887e-06 6.66887e-06 6.66887e-06 6.66887e-06 6.66887e-06 6.43234e-06 6.43234e-06 6.43234e-06 6.43234e-06 6.43234e-06 6.43234e-06
          6.43234e-06 6.43234e-06 6.43234e-06 6.43234e-06 6.43234e-06 6.43234e-06 6.43234e-06 6.43234e-06 6.43234e-06 6.43234e-06 6.43234e-06 6.43234e-06
          6.43234e-06 6.43234e-06 6.43234e-06 6.43234e-06 6.2042e-06 6.2042e-06 6.2042e-06 6.2042e-06 6.2042e-06 6.2042e-06 6.2042e-06 6.2042e-06
          6.2042e-06 6.2042e-06 6.2042e-06 6.2042e-06 6.2042e-06 6.2042e-06 6.2042e-06 6.2042e-06 6.2042e-06 6.2042e-06 6.2042e-06 6.2042e-06
          6.2042e-06 6.2042e-06 5.98416e-06 5.98416e-06 5.98416e-06 5.98416e-06 5.98416e-06 5.98416e-06 5.98416e-06 5.98416e-06 5.98416e-06 5.98416e-06
          5.98416e-06 5.98416e-06 5.98416e-06 5.98416e-06 5.98416e-06 5.98416e-06 5.98416e-06 5.98416e-06 5.98416e-06 5.98416e-06 5.98416e-06 5.98416e-06
          5.77192e-06 5.77192e-06 5.77192e-06 5.77192e-06 5.77192e-06 5.77192e-06 5.77192e-06 5.77192e-06 5.77192e-06 5.77192e-06 5.77192e-06 5.77192e-06
          5.77192e-06 5.77192e-06 5.77192e-06 5.77192e-06 5.77192e-06 5.77192e-06 5.77192e-06 5.77192e-06 5.77192e-06 5.77192e-06
        </DataArray>
        <DataArray type="Float32" Name="x_l^O2" NumberOfComponents="1" format="ascii">
          4.3001e-06 4.3001e-06 4.78303e-06 4.78303e-06 4.3001e-06 4.78303e-06 4.3001e-06 4.78303e-06 4.3001e-06 4.78303e-06 4.3001e-06 4.78303e-06
          4.3001e-06 4.78303e-06 4.3001e-06 4.78303e-06 4.3001e-06 4.78303e-06 4.3001e-06 4.78303e-06 4.3001e-06 4.78303e-06 4.3001e-06 4.78303e-06
          4.3001e-06 4.78303e-06 4.3001e-06 4.78303e-06 4.3001e-06 4.78303e-06 4.3001e-06 4.78303e-06 4.3001e-06 4.78303e-06 4.3001e-06 4.78303e-06
          4.3001e-06 4.78303e-06 4.3001e-06 4.78303e-06 4.3001e-06 4.78303e-06 4.3001e-06 4.78303e-06 5.24882e-06 5.24882e-06 5.24882e-06 5.24882e-06
          5.24882e-06 5.24882e-06 5.24882e-06 5.24882e-06 5.24882e-06 5.24882e-06 5.24882e-06 5.24882e-06 5.24882e-06 5.24882e-06 5.24882e-06 5.24882e-06
          5.24882e-06 5.24882e-06 5.24882e-06 5.24882e-06 5.24882e-06 5.24882e-06 5.69809e-06 5.69809e-06 5.69809e-06 5.69809e-06 5.69809e-06 5.69809e-06
          5.69809e-06 5.69809e-06 5.69809e-06 5.69809e-06 5.69809e-06 5.69809e-06 5.69809e-06 5.69809e-06 5.69809e-06 5.69809e-06 5.69809e-06 5.69809e-06
          5.69809e-06 5.69809e-06 5.69809e-06 5.69809e-06 6.13142e-06 6.13142e-06 6.13142e-06 6.13142e-06 6.13142e-06 6.13142e-06 6.13142e-06 6.13142e-06
          6.13142e-06 6.13142e-06 6.13142e-06 6.13142e-06 6.13142e-06 6.13142e-06 6.13142e-06 6.13142e-06 6.13142e-06 6.13142e-06 6.13142e-06 6.13142e-06
          6.13142e-06 6.13142e-06 6.54937e-06 6.54937e-06 6.54937e-06 6.54937e-06 6.54937e-06 6.54937e-06 6.54937e-06 6.54937e-06 6.54937e-06 6.54937e-06
          6.54937e-06 6.54937e-06 6.54937e-06 6.54937e-06 6.54937e-06 6.54937e-06 6.54937e-06 6.54937e-06 6.54937e-06 6.54937e-06 6.54937e-06 6.54937e-06
          6.95249e-06 6.95249e-06 6.95249e-06 6.95249e-06 6.95249e-06 6.95249e-06 6.95249e-06 6.95249e-06 6.95249e-06 6.95249e-06 6.95249e-06 6.95249e-06
          6.95249e-06 6.95249e-06 6.95249e-06 6.95249e-06 6.95249e-06 6.95249e-06 6.95249e-06 6.95249e-06 6.95249e-06 6.95249e-06
        </DataArray>
        <DataArray type="Float32" Name="x_g^H2O" NumberOfComponents="1" format="ascii">
          0.0623063 0.0623063 0.0623063 0.0623063 0.0623063 0.0623063 0.0623063 0.0623063 0.0623063 0.0623063 0.0623063 0.0623063
          0.0623063 0.0623063 0.0623063 0.0623063 0.0623063 0.0623063 0.0623063 0.0623063 0.0623063 0.0623063 0.0623063 0.0623063
          0.0623063 0.0623063 0.0623063 0.0623063 0.0623063 0.0623063 0.0623063 0.0623063 0.0623063 0.0623063 0.0623063 0.0623063
          0.0623063 0.0623063 0.0623063 0.0623063 0.0623063 0.0623063 0.0623063 0.0623063 0.0623062 0.0623062 0.0623062 0.0623062
          0.0623062 0.0623062 0.0623062 0.0623062 0.0623062 0.0623062 0.0623062 0.0623062 0.0623062 0.0623062 0.0623062 0.0623062
          0.0623062 0.0623062 0.0623062 0.0623062 0.0623062 0.0623062 0.0623062 0.0623062 0.0623062 0.0623062 0.0623062 0.0623062
          0.0623062 0.0623062 0.0623062 0.0623062 0.0623062 0.0623062 0.0623062 0.0623062 0.0623062 0.0623062 0.0623062 0.0623062
          0.0623062 0.0623062 0.0623062 0.0623062 0.0623061 0.0623061 0.0623061 0.0623061 0.0623061 0.0623061 0.0623061 0.0623061
          0.0623061 0.0623061 0.0623061 0.0623061 0.0623061 0.0623061 0.0623061 0.0623061 0.0623061 0.0623061 0.0623061 0.0623061
          0.0623061 0.0623061 0.0623061 0.0623061 0.0623061 0.0623061 0.0623061 0.0623061 0.0623061 0.0623061 0.0623061 0.0623061
          0.0623061 0.0623061 0.0623061 0.0623061 0.0623061 0.0623061 0.0623061 0.0623061 0.0623061 0.0623061 0.0623061 0.0623061
          0.062306 0.062306 0.062306 0.062306 0.062306 0.062306 0.062306 0.062306 0.062306 0.062306 0.062306 0.062306
          0.062306 0.062306 0.062306 0.062306 0.062306 0.062306 0.062306 0.062306 0.062306 0.062306
        </DataArray>
        <DataArray type="Float32" Name="x_g^N2" NumberOfComponents="1" format="ascii">
          0.712624 0.712624 0.687348 0.687348 0.712624 0.687348 0.712624 0.687348 0.712624 0.687348 0.712624 0.687348
          0.712624 0.687348 0.712624 0.687348 0.712624 0.687348 0.712624 0.687348 0.712624 0.687348 0.712624 0.687348
          0.712624 0.687348 0.712624 0.687348 0.712624 0.687348 0.712624 0.687348 0.712624 0.687348 0.712624 0.687348
          0.712624 0.687348 0.712624 0.687348 0.712624 0.687348 0.712624 0.687348 0.662968 0.662968 0.662968 0.662968
          0.662968 0.662968 0.662968 0.662968 0.662968 0.662968 0.662968 0.662968 0.662968 0.662968 0.662968 0.662968
          0.662968 0.662968 0.662968 0.662968 0.662968 0.662968 0.639454 0.639454 0.639454 0.639454 0.639454 0.639454
          0.639454 0.639454 0.639454 0.639454 0.639454 0.639454 0.639454 0.639454 0.639454 0.639454 0.639454 0.639454
          0.639454 0.639454 0.639454 0.639454 0.616773 0.616773 0.616773 0.616773 0.616773 0.616773 0.616773 0.616773
          0.616773 0.616773 0.616773 0.616773 0.616773 0.616773 0.616773 0.616773 0.616773 0.616773 0.616773 0.616773
          0.616773 0.616773 0.594898 0.594898 0.594898 0.594898 0.594898 0.594898 0.594898 0.594898 0.594898 0.594898
          0.594898 0.594898 0.594898 0.594898 0.594898 0.594898 0.594898 0.594898 0.594898 0.594898 0.594898 0.594898
          0.573799 0.573799 0.573799 0.573799 0.573799 0.573799 0.573799 0.573799 0.573799 0.573799 0.573799 0.573799
          0.573799 0.573799 0.573799 0.573799 0.573799 0.573799 0.573799 0.573799 0.573799 0.573799
        </DataArray>
        <DataArray type="Float32" Name="x_g^O2" NumberOfComponents="1" format="ascii">
          0.225069 0.225069 0.250346 0.250346 0.225069 0.250346 0.225069 0.250346 0.225069 0.250346 0.225069 0.250346
          0.225069 0.250346 0.225069 0.250346 0.225069 0.250346 0.225069 0.250346 0.225069 0.250346 0.225069 0.250346
          0.225069 0.250346 0.225069 0.250346 0.225069 0.250346 0.225069 0.250346 0.225069 0.250346 0.225069 0.250346
          0.225069 0.250346 0.225069 0.250346 0.225069 0.250346 0.225069 0.250346 0.274726 0.274726 0.274726 0.274726
          0.274726 0.274726 0.274726 0.274726 0.274726 0.274726 0.274726 0.274726 0.274726 0.274726 0.274726 0.274726
          0.274726 0.274726 0.274726 0.274726 0.274726 0.274726 0.29824 0.29824 0.29824 0.29824 0.29824 0.29824
          0.29824 0.29824 0.29824 0.29824 0.29824 0.29824 0.29824 0.29824 0.29824 0.29824 0.29824 0.29824
          0.29824 0.29824 0.29824 0.29824 0.32092 0.32092 0.32092 0.32092 0.32092 0.32092 0.32092 0.32092
          0.32092 0.32092 0.32092 0.32092 0.32092 0.32092 0.32092 0.32092 0.32092 0.32092 0.32092 0.32092
          0.32092 0.32092 0.342796 0.342796 0.342796 0.342796 0.342796 0.342796 0.342796 0.342796 0.342796 0.342796
          0.342796 0.342796 0.342796 0.342796 0.342796 0.342796 0.342796 0.342796 0.342796 0.342796 0.342796 0.342796
          0.363895 0.363895 0.363895 0.363895 0.363895 0.363895 0.363895 0.363895 0.363895 0.363895 0.363895 0.363895
          0.363895 0.363895 0.363895 0.363895 0.363895 0.363895 0.363895 0.363895 0.363895 0.363895
        </DataArray>
        <DataArray type="Float32" Name="m_l^H2O" NumberOfComponents="1" format="ascii">
          55141.5 55141.5 55141.5 55141.5 55141.5 55141.5 55141.5 55141.5 55141.5 55141.5 55141.5 55141.5
          55141.5 55141.5 55141.5 55141.5 55141.5 55141.5 55141.5 55141.5 55141.5 55141.5 55141.5 55141.5
          55141.5 55141.5 55141.5 55141.5 55141.5 55141.5 55141.5 55141.5 55141.5 55141.5 55141.5 55141.5
          55141.5 55141.5 55141.5 55141.5 55141.5 55141.5 55141.5 55141.5 55141.5 55141.5 55141.5 55141.5
          55141.5 55141.5 55141.5 55141.5 55141.5 55141.5 55141.5 55141.5 55141.5 55141.5 55141.5 55141.5
          55141.5 55141.5 55141.5 55141.5 55141.5 55141.5 55141.5 55141.5 55141.5 55141.5 55141.5 55141.5
          55141.5 55141.5 55141.5 55141.5 55141.5 55141.5 55141.5 55141.5 55141.5 55141.5 55141.5 55141.5
          55141.5 55141.5 55141.5 55141.5 55141.5 55141.5 55141.5 55141.5 55141.5 55141.5 55141.5 55141.5
          55141.5 55141.5 55141.5 55141.5 55141.5 55141.5 55141.5 55141.5 55141.5 55141.5 55141.5 55141.5
          55141.5 55141.5 55141.5 55141.5 55141.5 55141.5 55141.5 55141.5 55141.5 55141.5 55141.5 55141.5
          55141.5 55141.5 55141.5 55141.5 55141.5 55141.5 55141.5 55141.5 55141.5 55141.5 55141.5 55141.5
          55141.4 55141.4 55141.4 55141.4 55141.4 55141.4 55141.4 55141.4 55141.4 55141.4 55141.4 55141.4
          55141.4 55141.4 55141.4 55141.4 55141.4 55141.4 55141.4 55141.4 55141.4 55141.4
        </DataArray>
        <DataArray type="Float32" Name="m_l^N2" NumberOfComponents="1" format="ascii">
          0.395279 0.395279 0.381259 0.381259 0.395279 0.381259 0.395279 0.381259 0.395279 0.381259 0.395279 0.381259
          0.395279 0.381259 0.395279 0.381259 0.395279 0.381259 0.395279 0.381259 0.395279 0.381259 0.395279 0.381259
          0.395279 0.381259 0.395279 0.381259 0.395279 0.381259 0.395279 0.381259 0.395279 0.381259 0.395279 0.381259
          0.395279 0.381259 0.395279 0.381259 0.395279 0.381259 0.395279 0.381259 0.367736 0.367736 0.367736 0.367736
          0.367736 0.367736 0.367736 0.367736 0.367736 0.367736 0.367736 0.367736 0.367736 0.367736 0.367736 0.367736
          0.367736 0.367736 0.367736 0.367736 0.367736 0.367736 0.354693 0.354693 0.354693 0.354693 0.354693 0.354693
          0.354693 0.354693 0.354693 0.354693 0.354693 0.354693 0.354693 0.354693 0.354693 0.354693 0.354693 0.354693
          0.354693 0.354693 0.354693 0.354693 0.342113 0.342113 0.342113 0.342113 0.342113 0.342113 0.342113 0.342113
          0.342113 0.342113 0.342113 0.342113 0.342113 0.342113 0.342113 0.342113 0.342113 0.342113 0.342113 0.342113
          0.342113 0.342113 0.329979 0.329979 0.329979 0.329979 0.329979 0.329979 0.329979 0.329979 0.329979 0.329979
          0.329979 0.329979 0.329979 0.329979 0.329979 0.329979 0.329979 0.329979 0.329979 0.329979 0.329979 0.329979
          0.318276 0.318276 0.318276 0.318276 0.318276 0.318276 0.318276 0.318276 0.318276 0.318276 0.318276 0.318276
          0.318276 0.318276 0.318276 0.318276 0.318276 0.318276 0.318276 0.318276 0.318276 0.318276
        </DataArray>
        <DataArray type="Float32" Name="m_l^O2" NumberOfComponents="1" format="ascii">
          0.237117 0.237117 0.263746 0.263746 0.237117 0.263746 0.237117 0.263746 0.237117 0.263746 0.237117 0.263746
          0.237117 0.263746 0.237117 0.263746 0.237117 0.263746 0.237117 0.263746 0.237117 0.263746 0.237117 0.263746
          0.237117 0.263746 0.237117 0.263746 0.237117 0.263746 0.237117 0.263746 0.237117 0.263746 0.237117 0.263746
          0.237117 0.263746 0.237117 0.263746 0.237117 0.263746 0.237117 0.263746 0.289431 0.289431 0.289431 0.289431
          0.289431 0.289431 0.289431 0.289431 0.289431 0.289431 0.289431 0.289431 0.289431 0.289431 0.289431 0.289431
          0.289431 0.289431 0.289431 0.289431 0.289431 0.289431 0.314205 0.314205 0.314205 0.314205 0.314205 0.314205
          0.314205 0.314205 0.314205 0.314205 0.314205 0.314205 0.314205 0.314205 0.314205 0.314205 0.314205 0.314205
          0.314205 0.314205 0.314205 0.314205 0.338099 0.338099 0.338099 0.338099 0.338099 0.338099 0.338099 0.338099
          0.338099 0.338099 0.338099 0.338099 0.338099 0.338099 0.338099 0.338099 0.338099 0.338099 0.338099 0.338099
          0.338099 0.338099 0.361146 0.361146 0.361146 0.361146 0.361146 0.361146 0.361146 0.361146 0.361146 0.361146
          0.361146 0.361146 0.361146 0.361146 0.361146 0.361146 0.361146 0.361146 0.361146 0.361146 0.361146 0.361146
          0.383375 0.383375 0.383375 0.383375 0.383375 0.383375 0.383375 0.383375 0.383375 0.383375 0.383375 0.383375
          0.383375 0.383375 0.383375 0.383375 0.383375 0.383375 0.383375 0.383375 0.383375 0.383375
        </DataArray>
        <DataArray type="Float32" Name="phasePresence" NumberOfComponents="1" format="ascii">
          3 3 3 3 3 3 3 3 3 3 3 3
          3 3 3 3 3 3 3 3 3 3 3 3
          3 3 3 3 3 3 3 3 3 3 3 3
          3 3 3 3 3 3 3 3 3 3 3 3
          3 3 3 3 3 3 3 3 3 3 3 3
          3 3 3 3 3 3 3 3 3 3 3 3
          3 3 3 3 3 3 3 3 3 3 3 3
          3 3 3 3 3 3 3 3 3 3 3 3
          3 3 3 3 3 3 3 3 3 3 3 3
          3 3 3 3 3 3 3 3 3 3 3 3
          3 3 3 3 3 3 3 3 3 3 3 3
          3 3 3 3 3 3 3 3 3 3 3 3