<?xml version="1.0"?>
<VTKFile type="UnstructuredGrid" version="0.1" byte_order="LittleEndian">
  <UnstructuredGrid>
    <Piece NumberOfCells="126" NumberOfPoints="154">
      <CellData Scalars="porosity">
        <DataArray type="Float32" Name="porosity" NumberOfComponents="1" format="ascii">
          0.2 0.2 0.2 0.2 0.2 0.2 0.2 0.2 0.2 0.2 0.2 0.2
          0.2 0.2 0.2 0.2 0.2 0.2 0.2 0.2 0.2 0.2 0.2 0.2
          0.2 0.2 0.2 0.2 0.2 0.2 0.2 0.2 0.2 0.2 0.2 0.2
          0.2 0.2 0.2 0.2 0.2 0.2 0.2 0.2 0.2 0.2 0.2 0.2
          0.2 0.2 0.2 0.2 0.2 0.2 0.2 0.2 0.2 0.2 0.2 0.2
          0.2 0.2 0.2 0.2 0.2 0.2 0.2 0.2 0.2 0.2 0.2 0.2
          0.2 0.2 0.2 0.2 0.2 0.2 0.2 0.2 0.2 0.2 0.2 0.2
          0.2 0.2 0.2 0.2 0.2 0.2 0.2 0.2 0.2 0.2 0.2 0.2
          0.2 0.2 0.2 0.2 0.2 0.2 0.2 0.2 0.2 0.2 0.2 0.2
          0.2 0.2 0.2 0.2 0.2 0.2 0.2 0.2 0.2 0.2 0.2 0.2
          0.2 0.2 0.2 0.2 0.2 0.2
        </DataArray>
        <DataArray type="Float32" Name="pc" NumberOfComponents="1" format="ascii">
          14005.7 14005.7 14005.7 14005.7 14005.7 14005.7 14005.7 14005.7 14005.7 14005.7 14005.7 14005.7
          14005.7 14005.7 14005.7 14005.7 14005.7 14005.7 14005.7 14005.7 14005.7 14005.7 14005.7 14005.7
          14005.7 14005.7 14005.7 14005.7 14005.7 14005.7 14005.7 14005.7 14005.7 14005.7 14005.7 14005.7
          14005.7 14005.7 14005.7 14005.7 14005.7 14005.7 14005.6 14005.6 14005.6 14005.6 14005.6 14005.6
          14005.6 14005.6 14005.6 14005.6 14005.6 14005.6 14005.6 14005.6 14005.6 14005.6 14005.6 14005.6
          14005.6 14005.6 14005.6 14005.5 14005.5 14005.5 14005.5 14005.5 14005.5 14005.5 14005.5 14005.5
          14005.5 14005.5 14005.5 14005.5 14005.5 14005.5 14005.5 14005.5 14005.5 14005.5 14005.5 14005.5
          14005.5 14005.5 14005.5 14005.5 14005.5 14005.5 14005.5 14005.5 14005.5 14005.5 14005.5 14005.5
          14005.5 14005.5 14005.5 14005.5 14005.5 14005.5 14005.5 14005.5 14005.5 14005.4 14005.4 14005.4
          14005.4 14005.4 14005.4 14005.4 14005.4 14005.4 14005.4 14005.4 14005.4 14005.4 14005.4 14005.4
          14005.4 14005.4 14005.4 14005.4 14005.4 14005.4
        </DataArray>
        <DataArray type="Float32" Name="Sw" NumberOfComponents="1" format="ascii">
          0.300019 0.300019 0.300019 0.300019 0.300019 0.300019 0.300019 0.300019 0.300019 0.300019 0.300019 0.300019
          0.300019 0.300019 0.300019 0.300019 0.300019 0.300019 0.300019 0.300019 0.300019 0.300015 0.300015 0.300015
          0.300015 0.300015 0.300015 0.300015 0.300015 0.300015 0.300015 0.300015 0.300015 0.300015 0.300015 0.300015
          0.300015 0.300015 0.300015 0.300015 0.300015 0.300015 0.300012 0.300012 0.300012 0.300012 0.300012 0.300012
          0.300012 0.300012 0.300012 0.300012 0.300012 0.300012 0.300012 0.300012 0.300012 0.300012 0.300012 0.300012
          0.300012 0.300012 0.300012 0.300009 0.300009 0.300009 0.300009 0.300009 0.300009 0.300009 0.300009 0.300009
          0.300009 0.300009 0.300009 0.300009 0.300009 0.300009 0.300009 0.300009 0.300009 0.300009 0.300009 0.300009
          0.300005 0.300005 0.300005 0.300005 0.300005 0.300005 0.300005 0.300005 0.300005 0.300005 0.300005 0.300005
          0.300005 0.300005 0.300005 0.300005 0.300005 0.300005 0.300005 0.300005 0.300005 0.300002 0.300002 0.300002
          0.300002 0.300002 0.300002 0.300002 0.300002 0.300002 0.300002 0.300002 0.300002 0.300002 0.300002 0.300002
          0.300002 0.300002 0.300002 0.300002 0.300002 0.300002
        </DataArray>
        <DataArray type="Float32" Name="pw" NumberOfComponents="1" format="ascii">
          114005 114005 114005 114005 114005 114005 114005 114005 114005 114005 114005 114005
          114005 114005 114005 114005 114005 114005 114005 114005 114005 114005 114005 114005
          114005 114005 114005 114005 114005 114005 114005 114005 114005 114005 114005 114005
          114005 114005 114005 114005 114005 114005 114005 114005 114005 114005 114005 114005
          114005 114005 114005 114005 114005 114005 114005 114005 114005 114005 114005 114005
          114005 114005 114005 114005 114005 114005 114005 114005 114005 114005 114005 114005
          114005 114005 114005 114005 114005 114005 114005 114005 114005 114005 114005 114005
          114005 114005 114005 114005 114005 114005 114005 114005 114005 114005 114005 114005
          114005 114005 114005 114005 114005 114005 114005 114005 114005 114005 114005 114005
          114005 114005 114005 114005 114005 114005 114005 114005 114005 114005 114005 114005
          114005 114005 114005 114005 114005 114005
        </DataArray>
        <DataArray type="Float32" Name="rhoW" NumberOfComponents="1" format="ascii">
          993.403 993.403 993.403 993.403 993.403 993.403 993.403 993.403 993.403 993.403 993.403 993.403
          993.403 993.403 993.403 993.403 993.403 993.403 993.403 993.403 993.403 993.403 993.403 993.403
          993.403 993.403 993.403 993.403 993.403 993.403 993.403 993.403 993.403 993.403 993.403 993.403
          993.403 993.403 993.403 993.403 993.403 993.403 993.404 993.404 993.404 993.404 993.404 993.404
          993.404 993.404 993.404 993.404 993.404 993.404 993.404 993.404 993.404 993.404 993.404 993.404
          993.404 993.404 993.404 993.404 993.404 993.404 993.404 993.404 993.404 993.404 993.404 993.404
          993.404 993.404 993.404 993.404 993.404 993.404 993.404 993.404 993.404 993.404 993.404 993.404
          993.404 993.404 993.404 993.404 993.404 993.404 993.404 993.404 993.404 993.404 993.404 993.404
          993.404 993.404 993.404 993.404 993.404 993.404 993.404 993.404 993.404 993.404 993.404 993.404
          993.404 993.404 993.404 993.404 993.404 993.404 993.404 993.404 993.404 993.404 993.404 993.404
          993.404 993.404 993.404 993.404 993.404 993.404
        </DataArray>
        <DataArray type="Float32" Name="mobW" NumberOfComponents="1" format="ascii">
          302.592 302.592 302.592 302.592 302.592 302.592 302.592 302.592 302.592 302.592 302.592 302.592
          302.592 302.592 302.592 302.592 302.592 302.592 302.592 302.592 302.592 302.587 302.587 302.587
          302.587 302.587 302.587 302.587 302.587 302.587 302.587 302.587 302.587 302.587 302.587 302.587
          302.587 302.587 302.587 302.587 302.587 302.587 302.581 302.581 302.581 302.581 302.581 302.581
          302.581 302.581 302.581 302.581 302.581 302.581 302.581 302.581 302.581 302.581 302.581 302.581
          302.581 302.581 302.581 302.575 302.575 302.575 302.575 302.575 302.575 302.575 302.575 302.575
          302.575 302.575 302.575 302.575 302.575 302.575 302.575 302.575 302.575 302.575 302.575 302.575
          302.569 302.569 302.569 302.569 302.569 302.569 302.569 302.569 302.569 302.569 302.569 302.569
          302.569 302.569 302.569 302.569 302.569 302.569 302.569 302.569 302.569 302.564 302.564 302.564
          302.564 302.564 302.564 302.564 302.564 302.564 302.564 302.564 302.564 302.564 302.564 302.564
          302.564 302.564 302.564 302.564 302.564 302.564
        </DataArray>
        <DataArray type="Float32" Name="Sn" NumberOfComponents="1" format="ascii">
          0.699981 0.699981 0.699981 0.699981 0.699981 0.699981 0.699981 0.699981 0.699981 0.699981 0.699981 0.699981
          0.699981 0.699981 0.699981 0.699981 0.699981 0.699981 0.699981 0.699981 0.699981 0.699985 0.699985 0.699985
          0.699985 0.699985 0.699985 0.699985 0.699985 0.699985 0.699985 0.699985 0.699985 0.699985 0.699985 0.699985
          0.699985 0.699985 0.699985 0.699985 0.699985 0.699985 0.699988 0.699988 0.699988 0.699988 0.699988 0.699988
          0.699988 0.699988 0.699988 0.699988 0.699988 0.699988 0.699988 0.699988 0.699988 0.699988 0.699988 0.699988
          0.699988 0.699988 0.699988 0.699991 0.699991 0.699991 0.699991 0.699991 0.699991 0.699991 0.699991 0.699991
          0.699991 0.699991 0.699991 0.699991 0.699991 0.699991 0.699991 0.699991 0.699991 0.699991 0.699991 0.699991
          0.699995 0.699995 0.699995 0.699995 0.699995 0.699995 0.699995 0.699995 0.699995 0.699995 0.699995 0.699995
          0.699995 0.699995 0.699995 0.699995 0.699995 0.699995 0.699995 0.699995 0.699995 0.699998 0.699998 0.699998
          0.699998 0.699998 0.699998 0.699998 0.699998 0.699998 0.699998 0.699998 0.699998 0.699998 0.699998 0.699998
          0.699998 0.699998 0.699998 0.699998 0.699998 0.699998
        </DataArray>
        <DataArray type="Float32" Name="pn" NumberOfComponents="1" format="ascii">
          99999.6 99999.6 99999.6 99999.6 99999.6 99999.6 99999.6 99999.6 99999.6 99999.6 99999.6 99999.6
          99999.6 99999.6 99999.6 99999.6 99999.6 99999.6 99999.6 99999.6 99999.6 99999.7 99999.7 99999.7
          99999.7 99999.7 99999.7 99999.7 99999.7 99999.7 99999.7 99999.7 99999.7 99999.7 99999.7 99999.7
          99999.7 99999.7 99999.7 99999.7 99999.7 99999.7 99999.8 99999.8 99999.8 99999.8 99999.8 99999.8
          99999.8 99999.8 99999.8 99999.8 99999.8 99999.8 99999.8 99999.8 99999.8 99999.8 99999.8 99999.8
          99999.8 99999.8 99999.8 99999.8 99999.8 99999.8 99999.8 99999.8 99999.8 99999.8 99999.8 99999.8
          99999.8 99999.8 99999.8 99999.8 99999.8 99999.8 99999.8 99999.8 99999.8 99999.8 99999.8 99999.8
          99999.9 99999.9 99999.9 99999.9 99999.9 99999.9 99999.9 99999.9 99999.9 99999.9 99999.9 99999.9
          99999.9 99999.9 99999.9 99999.9 99999.9 99999.9 99999.9 99999.9 99999.9 100000 100000 100000
          100000 100000 100000 100000 100000 100000 100000 100000 100000 100000 100000 100000
          100000 100000 100000 100000 100000 100000
        </DataArray>
        <DataArray type="Float32" Name="rhoN" NumberOfComponents="1" format="ascii">
          1.09924 1.09924 1.09924 1.09924 1.09924 1.09924 1.09924 1.09924 1.09924 1.09924 1.09924 1.09924
          1.09924 1.09924 1.09924 1.09924 1.09924 1.09924 1.09924 1.09924 1.09924 1.10315 1.10315 1.10315
          1.10315 1.10315 1.10315 1.10315 1.10315 1.10315 1.10315 1.10315 1.10315 1.10315 1.10315 1.10315
          1.10315 1.10315 1.10315 1.10315 1.10315 1.10315 1.10691 1.10691 1.10691 1.10691 1.10691 1.10691
          1.10691 1.10691 1.10691 1.10691 1.10691 1.10691 1.10691 1.10691 1.10691 1.10691 1.10691 1.10691
          1.10691 1.10691 1.10691 1.11054 1.11054 1.11054 1.11054 1.11054 1.11054 1.11054 1.11054 1.11054
          1.11054 1.11054 1.11054 1.11054 1.11054 1.11054 1.11054 1.11054 1.11054 1.11054 1.11054 1.11054
          1.11404 1.11404 1.11404 1.11404 1.11404 1.11404 1.11404 1.11404 1.11404 1.11404 1.11404 1.11404
          1.11404 1.11404 1.11404 1.11404 1.11404 1.11404 1.11404 1.11404 1.11404 1.11742 1.11742 1.11742
          1.11742 1.11742 1.11742 1.11742 1.11742 1.11742 1.11742 1.11742 1.11742 1.11742 1.11742 1.11742
          1.11742 1.11742 1.11742 1.11742 1.11742 1.11742
        </DataArray>
        <DataArray type="Float32" Name="mobN" NumberOfComponents="1" format="ascii">
          9056.67 9056.67 9056.67 9056.67 9056.67 9056.67 9056.67 9056.67 9056.67 9056.67 9056.67 9056.67
          9056.67 9056.67 9056.67 9056.67 9056.67 9056.67 9056.67 9056.67 9056.67 9020.45 9020.45 9020.45
          9020.45 9020.45 9020.45 9020.45 9020.45 9020.45 9020.45 9020.45 9020.45 9020.45 9020.45 9020.45
          9020.45 9020.45 9020.45 9020.45 9020.45 9020.45 8985.82 8985.82 8985.82 8985.82 8985.82 8985.82
          8985.82 8985.82 8985.82 8985.82 8985.82 8985.82 8985.82 8985.82 8985.82 8985.82 8985.82 8985.82
          8985.82 8985.82 8985.82 8952.69 8952.69 8952.69 8952.69 8952.69 8952.69 8952.69 8952.69 8952.69
          8952.69 8952.69 8952.69 8952.69 8952.69 8952.69 8952.69 8952.69 8952.69 8952.69 8952.69 8952.69
          8920.99 8920.99 8920.99 8920.99 8920.99 8920.99 8920.99 8920.99 8920.99 8920.99 8920.99 8920.99
          8920.99 8920.99 8920.99 8920.99 8920.99 8920.99 8920.99 8920.99 8920.99 8890.66 8890.66 8890.66
          8890.66 8890.66 8890.66 8890.66 8890.66 8890.66 8890.66 8890.66 8890.66 8890.66 8890.66 8890.66
          8890.66 8890.66 8890.66 8890.66 8890.66 8890.66
        </DataArray>
        <DataArray type="Float32" Name="x_l^H2O" NumberOfComponents="1" format="ascii">
          0.999988 0.999988 0.999988 0.999988 0.999988 0.999988 0.999988 0.999988 0.999988 0.999988 0.999988 0.999988
          0.999988 0.999988 0.999988 0.999988 0.999988 0.999988 0.999988 0.999988 0.999988 0.999988 0.999988 0.999988
          0.999988 0.999988 0.999988 0.999988 0.999988 0.999988 0.999988 0.999988 0.999988 0.999988 0.999988 0.999988
          0.999988 0.999988 0.999988 0.999988 0.999988 0.999988 0.999988 0.999988 0.999988 0.999988 0.999988 0.999988
          0.999988 0.999988 0.999988 0.999988 0.999988 0.999988 0.999988 0.999988 0.999988 0.999988 0.999988 0.999988
          0.999988 0.999988 0.999988 0.999988 0.999988 0.999988 0.999988 0.999988 0.999988 0.999988 0.999988 0.999988
          0.999988 0.999988 0.999988 0.999988 0.999988 0.999988 0.999988 0.999988 0.999988 0.999988 0.999988 0.999988
          0.999988 0.999988 0.999988 0.999988 0.999988 0.999988 0.999988 0.999988 0.999988 0.999988 0.999988 0.999988
          0.999988 0.999988 0.999988 0.999988 0.999988 0.999988 0.999988 0.999988 0.999988 0.999987 0.999987 0.999987
          0.999987 0.999987 0.999987 0.999987 0.999987 0.999987 0.999987 0.999987 0.999987 0.999987 0.999987 0.999987
          0.999987 0.999987 0.999987 0.999987 0.999987 0.999987
        </DataArray>
        <DataArray type="Float32" Name="x_l^N2" NumberOfComponents="1" format="ascii">
          7.06157e-06 7.06157e-06 7.06157e-06 7.06157e-06 7.06157e-06 7.06157e-06 7.06157e-06 7.06157e-06 7.06157e-06 7.06157e-06 7.06157e-06 7.06157e-06
          7.06157e-06 7.06157e-06 7.06157e-06 7.06157e-06 7.06157e-06 7.06157e-06 7.06157e-06 7.06157e-06 7.06157e-06 6.80754e-06 6.80754e-06 6.80754e-06
          6.80754e-06 6.80754e-06 6.80754e-06 6.80754e-06 6.80754e-06 6.80754e-06 6.80754e-06 6.80754e-06 6.80754e-06 6.80754e-06 6.80754e-06 6.80754e-06
          6.80754e-06 6.80754e-06 6.80754e-06 6.80754e-06 6.80754e-06 6.80754e-06 6.56265e-06 6.56265e-06 6.56265e-06 6.56265e-06 6.56265e-06 6.56265e-06
          6.56265e-06 6.56265e-06 6.56265e-06 6.56265e-06 6.56265e-06 6.56265e-06 6.56265e-06 6.56265e-06 6.56265e-06 6.56265e-06 6.56265e-06 6.56265e-06
          6.56265e-06 6.56265e-06 6.56265e-06 6.32657e-06 6.32657e-06 6.32657e-06 6.32657e-06 6.32657e-06 6.32657e-06 6.32657e-06 6.32657e-06 6.32657e-06
          6.32657e-06 6.32657e-06 6.32657e-06 6.32657e-06 6.32657e-06 6.32657e-06 6.32657e-06 6.32657e-06 6.32657e-06 6.32657e-06 6.32657e-06 6.32657e-06
          6.09899e-06 6.09899e-06 6.09899e-06 6.09899e-06 6.09899e-06 6.09899e-06 6.09899e-06 6.09899e-06 6.09899e-06 6.09899e-06 6.09899e-06 6.09899e-06
          6.09899e-06 6.09899e-06 6.09899e-06 6.09899e-06 6.09899e-06 6.09899e-06 6.09899e-06 6.09899e-06 6.09899e-06 5.87961e-06 5.87961e-06 5.87961e-06
          5.87961e-06 5.87961e-06 5.87961e-06 5.87961e-06 5.87961e-06 5.87961e-06 5.87961e-06 5.87961e-06 5.87961e-06 5.87961e-06 5.87961e-06 5.87961e-06
          5.87961e-06 5.87961e-06 5.87961e-06 5.87961e-06 5.87961e-06 5.87961e-06
        </DataArray>
        <DataArray type="Float32" Name="x_l^O2" NumberOfComponents="1" format="ascii">
          4.50294e-06 4.50294e-06 4.50294e-06 4.50294e-06 4.50294e-06 4.50294e-06 4.50294e-06 4.50294e-06 4.50294e-06 4.50294e-06 4.50294e-06 4.50294e-06
          4.50294e-06 4.50294e-06 4.50294e-06 4.50294e-06 4.50294e-06 4.50294e-06 4.50294e-06 4.50294e-06 4.50294e-06 4.98544e-06 4.98544e-06 4.98544e-06
          4.98544e-06 4.98544e-06 4.98544e-06 4.98544e-06 4.98544e-06 4.98544e-06 4.98544e-06 4.98544e-06 4.98544e-06 4.98544e-06 4.98544e-06 4.98544e-06
          4.98544e-06 4.98544e-06 4.98544e-06 4.98544e-06 4.98544e-06 4.98544e-06 5.45058e-06 5.45058e-06 5.45058e-06 5.45058e-06 5.45058e-06 5.45058e-06
          5.45058e-06 5.45058e-06 5.45058e-06 5.45058e-06 5.45058e-06 5.45058e-06 5.45058e-06 5.45058e-06 5.45058e-06 5.45058e-06 5.45058e-06 5.45058e-06
          5.45058e-06 5.45058e-06 5.45058e-06 5.89898e-06 5.89898e-06 5.89898e-06 5.89898e-06 5.89898e-06 5.89898e-06 5.89898e-06 5.89898e-06 5.89898e-06
          5.89898e-06 5.89898e-06 5.89898e-06 5.89898e-06 5.89898e-06 5.89898e-06 5.89898e-06 5.89898e-06 5.89898e-06 5.89898e-06 5.89898e-06 5.89898e-06
          6.33125e-06 6.33125e-06 6.33125e-06 6.33125e-06 6.33125e-06 6.33125e-06 6.33125e-06 6.33125e-06 6.33125e-06 6.33125e-06 6.33125e-06 6.33125e-06
          6.33125e-06 6.33125e-06 6.33125e-06 6.33125e-06 6.33125e-06 6.33125e-06 6.33125e-06 6.33125e-06 6.33125e-06 6.74795e-06 6.74795e-06 6.74795e-06
          6.74795e-06 6.74795e-06 6.74795e-06 6.74795e-06 6.74795e-06 6.74795e-06 6.74795e-06 6.74795e-06 6.74795e-06 6.74795e-06 6.74795e-06 6.74795e-06
          6.74795e-06 6.74795e-06 6.74795e-06 6.74795e-06 6.74795e-06 6.74795e-06
        </DataArray>
        <DataArray type="Float32" Name="x_g^H2O" NumberOfComponents="1" format="ascii">
          0.0623063 0.0623063 0.0623063 0.0623063 0.0623063 0.0623063 0.0623063 0.0623063 0.0623063 0.0623063 0.0623063 0.0623063
          0.0623063 0.0623063 0.0623063 0.0623063 0.0623063 0.0623063 0.0623063 0.0623063 0.0623063 0.0623062 0.0623062 0.0623062
          0.0623062 0.0623062 0.0623062 0.0623062 0.0623062 0.0623062 0.0623062 0.0623062 0.0623062 0.0623062 0.0623062 0.0623062
          0.0623062 0.0623062 0.0623062 0.0623062 0.0623062 0.0623062 0.0623062 0.0623062 0.0623062 0.0623062 0.0623062 0.0623062
          0.0623062 0.0623062 0.0623062 0.0623062 0.0623062 0.0623062 0.0623062 0.0623062 0.0623062 0.0623062 0.0623062 0.0623062
          0.0623062 0.0623062 0.0623062 0.0623061 0.0623061 0.0623061 0.0623061 0.0623061 0.0623061 0.0623061 0.0623061 0.0623061
          0.0623061 0.0623061 0.0623061 0.0623061 0.0623061 0.0623061 0.0623061 0.0623061 0.0623061 0.0623061 0.0623061 0.0623061
          0.0623061 0.0623061 0.0623061 0.0623061 0.0623061 0.0623061 0.0623061 0.0623061 0.0623061 0.0623061 0.0623061 0.0623061
          0.0623061 0.0623061 0.0623061 0.0623061 0.0623061 0.0623061 0.0623061 0.0623061 0.0623061 0.062306 0.062306 0.062306
          0.062306 0.062306 0.062306 0.062306 0.062306 0.062306 0.062306 0.062306 0.062306 0.062306 0.062306 0.062306
          0.062306 0.062306 0.062306 0.062306 0.062306 0.062306
        </DataArray>
        <DataArray type="Float32" Name="x_g^N2" NumberOfComponents="1" format="ascii">
          0.702008 0.702008 0.702008 0.702008 0.702008 0.702008 0.702008 0.702008 0.702008 0.702008 0.702008 0.702008
          0.702008 0.702008 0.702008 0.702008 0.702008 0.702008 0.702008 0.702008 0.702008 0.676753 0.676753 0.676753
          0.676753 0.676753 0.676753 0.676753 0.676753 0.676753 0.676753 0.676753 0.676753 0.676753 0.676753 0.676753
          0.676753 0.676753 0.676753 0.676753 0.676753 0.676753 0.652408 0.652408 0.652408 0.652408 0.652408 0.652408
          0.652408 0.652408 0.652408 0.652408 0.652408 0.652408 0.652408 0.652408 0.652408 0.652408 0.652408 0.652408
          0.652408 0.652408 0.652408 0.628939 0.628939 0.628939 0.628939 0.628939 0.628939 0.628939 0.628939 0.628939
          0.628939 0.628939 0.628939 0.628939 0.628939 0.628939 0.628939 0.628939 0.628939 0.628939 0.628939 0.628939
          0.606314 0.606314 0.606314 0.606314 0.606314 0.606314 0.606314 0.606314 0.606314 0.606314 0.606314 0.606314
          0.606314 0.606314 0.606314 0.606314 0.606314 0.606314 0.606314 0.606314 0.606314 0.584504 0.584504 0.584504
          0.584504 0.584504 0.584504 0.584504 0.584504 0.584504 0.584504 0.584504 0.584504 0.584504 0.584504 0.584504
          0.584504 0.584504 0.584504 0.584504 0.584504 0.584504
        </DataArray>
        <DataArray type="Float32" Name="x_g^O2" NumberOfComponents="1" format="ascii">
          0.235686 0.235686 0.235686 0.235686 0.235686 0.235686 0.235686 0.235686 0.235686 0.235686 0.235686 0.235686
          0.235686 0.235686 0.235686 0.235686 0.235686 0.235686 0.235686 0.235686 0.235686 0.26094 0.26094 0.26094
          0.26094 0.26094 0.26094 0.26094 0.26094 0.26094 0.26094 0.26094 0.26094 0.26094 0.26094 0.26094
          0.26094 0.26094 0.26094 0.26094 0.26094 0.26094 0.285286 0.285286 0.285286 0.285286 0.285286 0.285286
          0.285286 0.285286 0.285286 0.285286 0.285286 0.285286 0.285286 0.285286 0.285286 0.285286 0.285286 0.285286
          0.285286 0.285286 0.285286 0.308755 0.308755 0.308755 0.308755 0.308755 0.308755 0.308755 0.308755 0.308755
          0.308755 0.308755 0.308755 0.308755 0.308755 0.308755 0.308755 0.308755 0.308755 0.308755 0.308755 0.308755
          0.33138 0.33138 0.33138 0.33138 0.33138 0.33138 0.33138 0.33138 0.33138 0.33138 0.33138 0.33138
          0.33138 0.33138 0.33138 0.33138 0.33138 0.33138 0.33138 0.33138 0.33138 0.35319 0.35319 0.35319
          0.35319 0.35319 0.35319 0.35319 0.35319 0.35319 0.35319 0.35319 0.35319 0.35319 0.35319 0.35319
          0.35319 0.35319 0.35319 0.35319 0.35319 0.35319
        </DataArray>
        <DataArray type="Float32" Name="m_g^H2O" NumberOfComponents="1" format="ascii">
          55141.5 55141.5 55141.5 55141.5 55141.5 55141.5 55141.5 55141.5 55141.5 55141.5 55141.5 55141.5
          55141.5 55141.5 55141.5 55141.5 55141.5 55141.5 55141.5 55141.5 55141.5 55141.5 55141.5 55141.5
          55141.5 55141.5 55141.5 55141.5 55141.5 55141.5 55141.5 55141.5 55141.5 55141.5 55141.5 55141.5
          55141.5 55141.5 55141.5 55141.5 55141.5 55141.5 55141.5 55141.5 55141.5 55141.5 55141.5 55141.5
          55141.5 55141.5 55141.5 55141.5 55141.5 55141.5 55141.5 55141.5 55141.5 55141.5 55141.5 55141.5
          55141.5 55141.5 55141.5 55141.5 55141.5 55141.5 55141.5 55141.5 55141.5 55141.5 55141.5 55141.5
          55141.5 55141.5 55141.5 55141.5 55141.5 55141.5 55141.5 55141.5 55141.5 55141.5 55141.5 55141.5
          55141.5 55141.5 55141.5 55141.5 55141.5 55141.5 55141.5 55141.5 55141.5 55141.5 55141.5 55141.5
          55141.5 55141.5 55141.5 55141.5 55141.5 55141.5 55141.5 55141.5 55141.5 55141.4 55141.4 55141.4
          55141.4 55141.4 55141.4 55141.4 55141.4 55141.4 55141.4 55141.4 55141.4 55141.4 55141.4 55141.4
          55141.4 55141.4 55141.4 55141.4 55141.4 55141.4
        </DataArray>
        <DataArray type="Float32" Name="m_g^N2" NumberOfComponents="1" format="ascii">
          0.38939 0.38939 0.38939 0.38939 0.38939 0.38939 0.38939 0.38939 0.38939 0.38939 0.38939 0.38939
          0.38939 0.38939 0.38939 0.38939 0.38939 0.38939 0.38939 0.38939 0.38939 0.375382 0.375382 0.375382
          0.375382 0.375382 0.375382 0.375382 0.375382 0.375382 0.375382 0.375382 0.375382 0.375382 0.375382 0.375382
          0.375382 0.375382 0.375382 0.375382 0.375382 0.375382 0.361879 0.361879 0.361879 0.361879 0.361879 0.361879
          0.361879 0.361879 0.361879 0.361879 0.361879 0.361879 0.361879 0.361879 0.361879 0.361879 0.361879 0.361879
          0.361879 0.361879 0.361879 0.348861 0.348861 0.348861 0.348861 0.348861 0.348861 0.348861 0.348861 0.348861
          0.348861 0.348861 0.348861 0.348861 0.348861 0.348861 0.348861 0.348861 0.348861 0.348861 0.348861 0.348861
          0.336312 0.336312 0.336312 0.336312 0.336312 0.336312 0.336312 0.336312 0.336312 0.336312 0.336312 0.336312
          0.336312 0.336312 0.336312 0.336312 0.336312 0.336312 0.336312 0.336312 0.336312 0.324214 0.324214 0.324214
          0.324214 0.324214 0.324214 0.324214 0.324214 0.324214 0.324214 0.324214 0.324214 0.324214 0.324214 0.324214
          0.324214 0.324214 0.324214 0.324214 0.324214 0.324214
        </DataArray>
        <DataArray type="Float32" Name="m_g^O2" NumberOfComponents="1" format="ascii">
          0.248302 0.248302 0.248302 0.248302 0.248302 0.248302 0.248302 0.248302 0.248302 0.248302 0.248302 0.248302
          0.248302 0.248302 0.248302 0.248302 0.248302 0.248302 0.248302 0.248302 0.248302 0.274908 0.274908 0.274908
          0.274908 0.274908 0.274908 0.274908 0.274908 0.274908 0.274908 0.274908 0.274908 0.274908 0.274908 0.274908
          0.274908 0.274908 0.274908 0.274908 0.274908 0.274908 0.300557 0.300557 0.300557 0.300557 0.300557 0.300557
          0.300557 0.300557 0.300557 0.300557 0.300557 0.300557 0.300557 0.300557 0.300557 0.300557 0.300557 0.300557
          0.300557 0.300557 0.300557 0.325283 0.325283 0.325283 0.325283 0.325283 0.325283 0.325283 0.325283 0.325283
          0.325283 0.325283 0.325283 0.325283 0.325283 0.325283 0.325283 0.325283 0.325283 0.325283 0.325283 0.325283
          0.349118 0.349118 0.349118 0.349118 0.349118 0.349118 0.349118 0.349118 0.349118 0.349118 0.349118 0.349118
          0.349118 0.349118 0.349118 0.349118 0.349118 0.349118 0.349118 0.349118 0.349118 0.372097 0.372097 0.372097
          0.372097 0.372097 0.372097 0.372097 0.372097 0.372097 0.372097 0.372097 0.372097 0.372097 0.372097 0.372097
          0.372097 0.372097 0.372097 0.372097 0.372097 0.372097
        </DataArray>
        <DataArray type="Float32" Name="phasePresence" NumberOfComponents="1" format="ascii">
          3 3 3 3 3 3 3 3 3 3 3 3
          3 3 3 3 3 3 3 3 3 3 3 3
          3 3 3 3 3 3 3 3 3 3 3 3
          3 3 3 3 3 3 3 3 3 3 3 3
          3 3 3 3 3 3 3 3 3 3 3 3
          3 3 3 3 3 3 3 3 3 3 3 3
          3 3 3 3 3 3 3 3 3 3 3 3
          3 3 3 3 3 3 3 3 3 3 3 3
          3 3 3 3 3 3 3 3 3 3 3 3
          3 3 3 3 3 3 3 3 3 3 3 3
          3 3 3 3 3 3
        </DataArray>
        <DataArray type="Float32" Name="process rank" NumberOfComponents="1" format="ascii">
          0 0 0 0 0 0 0 0 0 0 0 0
          0 0 0 0 0 0 0 0 0 0 0 0
          0 0 0 0 0 0 0 0 0 0 0 0
          0 0 0 0 0 0 0 0 0 0 0 0
          0 0 0 0 0 0 0 0 0 0 0 0
          0 0 0 0 0 0 0 0 0 0 0 0
          0 0 0 0 0 0 0 0 0 0 0 0
          0 0 0 0 0 0 0 0 0 0 0 0
          0 0 0 0 0 0 0 0 0 0 0 0
          0 0 0 0 0 0 0 0 0 0 0 0
          0 0 0 0 0 0
        </DataArray>
        <DataArray type="Float32" Name="currentDensity [A/cm^2]" NumberOfComponents="1" format="ascii">
          0.458007 0.458007 0.458007 0.458007 0.458007 0.458007 0.458007 0.458007 0.458007 0.458007 0.458007 0.458007
          0.458007 0.458007 0.458007 0.458007 0.458007 0.458007 0.458007 0.458007 0.458007 0 0 0
          0 0 0 0 0 0 0 0 0 0 0 0
          0 0 0 0 0 0 0 0 0 0 0 0
          0 0 0 0 0 0 0 0 0 0 0 0
          0 0 0 0 0 0 0 0 0 0 0 0
          0 0 0 0 0 0 0 0 0 0 0 0
          0 0 0 0 0 0 0 0 0 0 0 0
          0 0 0 0 0 0 0 0 0 0 0 0
          0 0 0 0 0 0 0 0 0 0 0 0
          0 0 0 0 0 0
        </DataArray>
        <DataArray type="Float32" Name="reactionSourceH2O [mol/(sm^2)]" NumberOfComponents="1" format="ascii">
          379.425 379.425 379.425 379.425 379.425 379.425 379.425 379.425 379.425 379.425 379.425 379.425
          379.425 379.425 379.425 379.425 379.425 379.425 379.425 379.425 379.425 0 0 0
          0 0 0 0 0 0 0 0 0 0 0 0
          0 0 0 0 0 0 0 0 0 0 0 0
          0 0 0 0 0 0 0 0 0 0 0 0
          0 0 0 0 0 0 0 0 0 0 0 0
          0 0 0 0 0 0 0 0 0 0 0 0
          0 0 0 0 0 0 0 0 0 0 0 0
          0 0 0 0 0 0 0 0 0 0 0 0
          0 0 0 0 0 0 0 0 0 0 0 0
          0 0 0 0 0 0
        </DataArray>
        <DataArray type="Float32" Name="reactionSourceO2 [mol/(sm^2)]" NumberOfComponents="1" format="ascii">
          -129.461 -129.461 -129.461 -129.461 -129.461 -129.461 -129.461 -129.461 -129.461 -129.461 -129.461 -129.461
          -129.461 -129.461 -129.461 -129.461 -129.461 -129.461 -129.461 -129.461 -129.461 0 0 0
          0 0 0 0 0 0 0 0 0 0 0 0
          0 0 0 0 0 0 0 0 0 0 0 0
          0 0 0 0 0 0 0 0 0 0 0 0
          0 0 0 0 0 0 0 0 0 0 0 0
          0 0 0 0 0 0 0 0 0 0 0 0
          0 0 0 0 0 0 0 0 0 0 0 0
          0 0 0 0 0 0 0 0 0 0 0 0
          0 0 0 0 0 0 0 0 0 0 0 0
          0 0 0 0 0 0
        </DataArray>
        <DataArray type="Float32" Name="Kxx" NumberOfComponents="1" format="ascii">
          5e-11 5e-11 5e-11 5e-11 5e-11 5e-11 5e-11 5e-11 5e-11 5e-11 5e-11 5e-11
          5e-11 5e-11 5e-11 5e-11 5e-11 5e-11 5e-11 5e-11 5e-11 5e-11 5e-11 5e-11
          5e-11 5e-11 5e-11 5e-11 5e-11 5e-11 5e-11 5e-11 5e-11 5e-11 5e-11 5e-11
          5e-11 5e-11 5e-11 5e-11 5e-11 5e-11 5e-11 5e-11 5e-11 5e-11 5e-11 5e-11
          5e-11 5e-11 5e-11 5e-11 5e-11 5e-11 5e-11 5e-11 5e-11 5e-11 5e-11 5e-11
          5e-11 5e-11 5e-11 5e-11 5e-11 5e-11 5e-11 5e-11 5e-11 5e-11 5e-11 5e-11
          5e-11 5e-11 5e-11 5e-11 5e-11 5e-11 5e-11 5e-11 5e-11 5e-11 5e-11 5e-11
          5e-11 5e-11 5e-11 5e-11 5e-11 5e-11 5e-11 5e-11 5e-11 5e-11 5e-11 5e-11
          5e-11 5e-11 5e-11 5e-11 5e-11 5e-11 5e-11 5e-11 5e-11 5e-11 5e-11 5e-11
          5e-11 5e-11 5e-11 5e-11 5e-11 5e-11 5e-11 5e-11 5e-11 5e-11 5e-11 5e-11
          5e-11 5e-11 5e-11 5e-11 5e-11 5e-11
        </DataArray>
        <DataArray type="Float32" Name="Kyy" NumberOfComponents="1" format="ascii">
          5e-11 5e-11 5e-11 5e-11 5e-11 5e-11 5e-11 5e-11 5e-11 5e-11 5e-11 5e-11
          5e-11 5e-11 5e-11 5e-11 5e-11 5e-11 5e-11 5e-11 5e-11 5e-11 5e-11 5e-11
          5e-11 5e-11 5e-11 5e-11 5e-11 5e-11 5e-11 5e-11 5e-11 5e-11 5e-11 5e-11
          5e-11 5e-11 5e-11 5e-11 5e-11 5e-11 5e-11 5e-11 5e-11 5e-11 5e-11 5e-11
          5e-11 5e-11 5e-11 5e-11 5e-11 5e-11 5e-11 5e-11 5e-11 5e-11 5e-11 5e-11
          5e-11 5e-11 5e-11 5e-11 5e-11 5e-11 5e-11 5e-11 5e-11 5e-11 5e-11 5e-11
          5e-11 5e-11 5e-11 5e-11 5e-11 5e-11 5e-11 5e-11 5e-11 5e-11 5e-11 5e-11
          5e-11 5e-11 5e-11 5e-11 5e-11 5e-11 5e-11 5e-11 5e-11 5e-11 5e-11 5e-11
          5e-11 5e-11 5e-11 5e-11 5e-11 5e-11 5e-11 5e-11 5e-11 5e-11 5e-11 5e-11
          5e-11 5e-11 5e-11 5e-11 5e-11 5e-11 5e-11 5e-11 5e-11 5e-11 5e-11 5e-11
          5e-11 5e-11 5e-11 5e-11 5e-11 5e-11
        </DataArray>
      </CellData>
      <Points>
        <DataArray type="Float32" Name="Coordinates" NumberOfComponents="3" format="ascii">
          0 0 0 9.52381e-05 0 0 0 9.16667e-05 0 9.52381e-05 9.16667e-05 0
          0.000190476 0 0 0.000190476 9.16667e-05 0 0.000285714 0 0 0.000285714 9.16667e-05 0