<?xml version="1.0"?>
<VTKFile type="UnstructuredGrid" version="0.1" byte_order="LittleEndian">
  <UnstructuredGrid>
    <Piece NumberOfCells="1536" NumberOfPoints="1617">
      <PointData Scalars="S_n">
        <DataArray type="Float32" Name="S_n" NumberOfComponents="1" format="ascii">
          0 0 0 0 0 0 0 0 0 0 0 0
          0 0 0 0 0 0 0 0 0 0 0 0
          0 0 0 0 0 0 0 0 0 0 0 0
          0 0 0 0 0 0 0 0 0 0 0 0
          0 0 0 0 0 0 0 0 0 0 0 0
          0 0 0 0 0 0 0 0 0 0 0 0
          0 0 0 0 0 0 0 0 0 0 0 0
          0 0 0 0 0 0 0 0 0 0 0 0
          0 0 0 0 0 0 0 0 0 0 0 0
          0 0 0 0 0 0 0 0 0 0 0 0
          0 0 0 0 0 0 0 0 0 0 0 0
          0 0 0 0 0 0 0 0 0 0 0 0
          0 0 0 0 0 0 0 0 0 0 0 0
          0 0 0 0 0 0 0 0 0 0 0 0
          0 0 0 0 0 0 0 0 0 0 0 0
          0 0 0 0 0 0 0 0 0 0 0 0
          0 0 0 0 0 0 0 0 0 0 0 0
          0 0 0 0 0 0 0 0 0 0 0 0
          0 0 0 0 0 0 0 0 0 0 0 0
          0 0 0 0 0 0 0 0 0 0 0 0
          0 0 0 0 0 0 0 0 0 0 0 0
          0 0 0 0 0 0 0 0 0 0 0 0
          0 0 0 0 0 0 0 0 0 0 0 0
          0 0 0 0 0 0 0 0 0 0 0 0
          0 0 0 0 0 0 0 0 0 0 0 0
          0 0 0 0 0 0 0 0 0 0 0 0
          0 0 0 0 0 0 0 0 0 0 0 0
          0 0 0 0 0 0 0 0 0 0 0 0
          0 0 0 0 0 0 0 0 0 0 0 0
          0 0 0 0 0 0 0 0 0 0 0 0
          0 0 0 0 0 0 0 0 0 0 0 0
          0 0 0 0 0 0 0 0 0 0 0 0
          0 0 0 0 0 0 0 0 0 0 0 0
          0 0 0 0 0 0 0 0 0 0 0 0
          0 0 0 0 0 0 0 0 0 0 0 0
          0 0 0 0 0 0 0 0 0 0 0 0
          0 0 0 0 0 0 0 0 0 0 0 0
          0 0 0 0 0 0 0 0 0 0 0 0
          0 0 0 0 0 0 0 0 0 0 0 0
          0 0 0 0 0 0 0 0 0 0 0 0
          0 0 0 0 0 0 0 0 0 0 0 0
          0 0 0 0 0 0 0 0 0 0 0 0
          0 0 0 0 0 0 0 0 0 0 0 0
          0 0 0 0 0 0 0 0 0 0 0 0
          0 0 0 0 0 0 0 0 0 0 0 0
          0 0 0 0 0 0 0 0 0 0 0 0
          0 0 0 0 0 0 0 0 0 0 0 0
          0 0 0 0 0 0 0 0 0 0 0 0
          0 0 0 0 0 0 0 0 0 0 0 0
          0 0 0 0 0 0 0 0 0 0 0 0
          0 0 0 0 0 0 0 0 0 0 0 0
          0 0 0 0 0 0 0 0 0 0 0 0
          0 0 0 0 0 0 0 0 0 0 0 0
          0 0 0 0 0 0 0 0 0 0 0 0
          0 0 0 0 0 0 0 0 0 0 0 0
          0 0 0 0 0 0 0 0 0 0 0 0
          0 0 0 0 0 0 0 0 0 0 0 0
          0 0 0 0 0 0 0 0 0 0 0 0
          0 0 0 0 0 0 0 0 0 0 0 0
          0 0 0 0 0 0 0 0 0 0 0 0
          0 0 0 0 0 0 0 0 0 0 0 0
          0 0 0 0 0 0 0 0 0 0 0 0
          0 0 0 0 0 0 0 0 0 0 0 0
          0 0 0 0 0 0 0 0 0 0 0 0
          0 0 0 0 0 0 0 0 0 0 0 0
          0 0 0 0 0 0 0 0 0 0 0 0
          0 0 0 0 0 0 0 0 0 0 0 0
          0 0 0 0 0 0 0 0 0 0 0 0
          0 0 0 0 0 0 0 0 0 0 0 0
          0 0 0 0 0 0 0 0 0 0 0 0
          0 0 0 0 0 0 0 0 0 0 0 0
          0 0 0 0 0 0 0 0 0 0 0 0
          0 0 0 0 0 0 0 0 0 0 0 0
          0 0 0 0 0 0 0 0 0 0 0 0
          0 0 0 0 0 0 0 0 0 0 0 0
          0 0 0 0 0 0 0 0 0 0 0 0
          0 0 0 0 0 0 0 0 0 0 0 0
          0 0 0 0 0 0 0 0 0 0 0 0
          0 0 0 0 0 0 0 0 0 0 0 0
          0 0 0 0 0 0 0 0 0 0 0 0
          0 0 0 0 0 0 0 0 0 0 0 0
          0 0 0 0 0 0 0 0 0 0 0 0
          0 0 0 0 0 0 0 0 0 0 0 0
          0 0 0 0 0 0 0 0 0 0 0 0
          0 0 0 0 0 0 0 0 0 0 0 0
          0 0 0 0 0 0 0 0 0 0 0 0
          0 0 0 0 0 0 0 0 0 0 0 0
          0 0 0 0 0 0 0 0 0 0 0 0
          0 0 0 0 0 0 0 0 0 0 0 0
          0 0 0 0 0 0 0 0 0 0 0 0
          0 0 0 0 0 0 0 0 0 0 0 0
          0 0 0 0 0 0 0 0 0 0 0 0
          0 0 0 0 0 0 0 0 0 0 0 0
          0 0 0 0 0 0 0 0 0 0 0 0
          0 0 0 0 0 0 0 0 0 0 0 0
          0 0 0 0 0 0 0 0 0 0 0 0
          0 0 0 0 0 0 0 0 0 0 0 0
          0 0 0 0 0 0 0 0 0 0 0 0
          0 0 0 0 0 0 0 0 0 0 0 0
          0 0 0 0 0 -2.01203e-38 -2.88767e-38 -3.00113e-38 -3.04951e-38 -3.07088e-38 -3.0558e-38 -2.54453e-38
          0 0 0 0 0 0 0 0 0 0 0 0
          0 0 0 0 0 0 0 0 0 0 0 0
          0 0 0 0 0 0 0 0 0 0 0 0
          0 0 0 0 0 -8.76204e-36 -7.09261e-31 -8.63838e-31 -8.82296e-31 -9.00439e-31 -9.10131e-31 -9.10023e-31
          -7.7348e-31 5.50196e-35 0 0 0 0 0 0 0 0 0 0
          0 0 0 0 0 0 0 0 0 0 0 0
          0 0 0 0 0 0 0 0 0 0 0 0
          0 0 0 0 0 0 5.05566e-27 8.77861e-22 1.33478e-21 1.39142e-21 1.40889e-21 1.41451e-21
          1.40306e-21 1.15719e-21 4.17708e-26 1.4065e-35 0 0 0 0 0 0 0 0
          0 0 0 0 0 0 0 0 0 0 0 0
          0 0 0 0 0 0 0 0 0 0 0 0
          0 0 0 0 0 0 -2.37682e-31 4.47757e-18 6.50152e-13 9.63481e-13 1.00025e-12 1.01176e-12
          1.01525e-12 1.00709e-12 8.34177e-13 2.43023e-17 1.22652e-26 -1.24771e-36 0 0 0 0 0 0
          0 0 0 0 0 0 0 0 0 0 0 0
          0 0 0 0 0 0 0 0 0 0 0 0
          0 0 0 0 0 0 0 2.59081e-23 4.04214e-10 2.04707e-07 2.5122e-07 2.55913e-07
          2.57264e-07 2.57618e-07 2.56477e-07 2.32317e-07 9.76453e-10 4.77423e-18 9.33607e-28 -7.0672e-37 0 0 0 0
          0 0 0 0 0 0 0 0 0 0 0 0
          0 0 0 0 0 0 0 0 0 0 0 0
          0 0 0 0 0 0 0 0 3.82052e-14 5.862e-06 0.000151849 0.000168741
          0.000170195 0.000170554 0.000170624 0.000170227 0.000161695 9.26849e-06 2.28524e-10 2.14129e-19 -1.16826e-29 -7.55982e-38 0 0
          0 0 0 0 0 0 0 0 0 0 0 0
          0 0 0 0 0 0 0 0 0 0 0 0
          0 0 0 0 0 0 0 0 0 4.59124e-08 0.000835955 0.00438343
          0.00459948 0.0046156 0.00461865 0.004619 0.00461456 0.00451741 0.00105742 2.71908e-06 1.31678e-11 1.08287e-21 -2.28229e-30 0
          0 0 0 0 0 0 0 0 0 0 0 0
          0 0 0 0 0 0 0 0 0 0 0 0
          0 0 0 0 0 0 0 0 0 0 6.75491e-05 0.00978093
          0.0232109 0.0239129 0.023956 0.0239605 0.0239606 0.0239517 0.0236247 0.0109741 0.000350005 1.67713e-07 6.17689e-14 1.13192e-24
          -1.13247e-32 0 0 0 0 0 0 0 0 0 0 0
          0 0 0 0 0 0 0 0 0 0 0 0
          0 0 0 0 0 0 0 0 0 0 0 0.00109458
          0.0316473 0.0511079 0.051872 0.0519116 0.0519138 0.0519138 0.0519092 0.0516006 0.0330922 0.0030432 1.58901e-05 3.90434e-10
          5.89372e-19 -5.13402e-30 -9.4627e-38 0 0 0 0 0 0 0 0 0
          0 0 0 0 0 0 0 0 0
        </DataArray>
        <DataArray type="Float32" Name="S_w" NumberOfComponents="1" format="ascii">
          1 1 1 1 1 1 1 1 1 1 1 1
          1 1 1 1 1 1 1 1 1 1 1 1
          1 1 1 1 1 1 1 1 1 1 1 1
          1 1 1 1 1 1 1 1 1 1 1 1
          1 1 1 1 1 1 1 1 1 1 1 1
          1 1 1 1 1 1 1 1 1 1 1 1
          1 1 1 1 1 1 1 1 1 1 1 1
          1 1 1 1 1 1 1 1 1 1 1 1
          1 1 1 1 1 1 1 1 1 1 1 1
          1 1 1 1 1 1 1 1 1 1 1 1
          1 1 1 1 1 1 1 1 1 1 1 1
          1 1 1 1 1 1 1 1 1 1 1 1
          1 1 1 1 1 1 1 1 1 1 1 1
          1 1 1 1 1 1 1 1 1 1 1 1
          1 1 1 1 1 1 1 1 1 1 1 1
          1 1 1 1 1 1 1 1 1 1 1 1
          1 1 1 1 1 1 1 1 1 1 1 1
          1 1 1 1 1 1 1 1 1 1 1 1
          1 1 1 1 1 1 1 1 1 1 1 1
          1 1 1 1 1 1 1 1 1 1 1 1
          1 1 1 1 1 1 1 1 1 1 1 1
          1 1 1 1 1 1 1 1 1 1 1 1
          1 1 1 1 1 1 1 1 1 1 1 1
          1 1 1 1 1 1 1 1 1 1 1 1
          1 1 1 1 1 1 1 1 1 1 1 1
          1 1 1 1 1 1 1 1 1 1 1 1
          1 1 1 1 1 1 1 1 1 1 1 1
          1 1 1 1 1 1 1 1 1 1 1 1
          1 1 1 1 1 1 1 1 1 1 1 1
          1 1 1 1 1 1 1 1 1 1 1 1
          1 1 1 1 1 1 1 1 1 1 1 1
          1 1 1 1 1 1 1 1 1 1 1 1
          1 1 1 1 1 1 1 1 1 1 1 1
          1 1 1 1 1 1 1 1 1 1 1 1
          1 1 1 1 1 1 1 1 1 1 1 1
          1 1 1 1 1 1 1 1 1 1 1 1
          1 1 1 1 1 1 1 1 1 1 1 1
          1 1 1 1 1 1 1 1 1 1 1 1
          1 1 1 1 1 1 1 1 1 1 1 1
          1 1 1 1 1 1 1 1 1 1 1 1
          1 1 1 1 1 1 1 1 1 1 1 1
          1 1 1 1 1 1 1 1 1 1 1 1
          1 1 1 1 1 1 1 1 1 1 1 1
          1 1 1 1 1 1 1 1 1 1 1 1
          1 1 1 1 1 1 1 1 1 1 1 1
          1 1 1 1 1 1 1 1 1 1 1 1
          1 1 1 1 1 1 1 1 1 1 1 1
          1 1 1 1 1 1 1 1 1 1 1 1
          1 1 1 1 1 1 1 1 1 1 1 1
          1 1 1 1 1 1 1 1 1 1 1 1
          1 1 1 1 1 1 1 1 1 1 1 1
          1 1 1 1 1 1 1 1 1 1 1 1
          1 1 1 1 1 1 1 1 1 1 1 1
          1 1 1 1 1 1 1 1 1 1 1 1
          1 1 1 1 1 1 1 1 1 1 1 1
          1 1 1 1 1 1 1 1 1 1 1 1
          1 1 1 1 1 1 1 1 1 1 1 1
          1 1 1 1 1 1 1 1 1 1 1 1
          1 1 1 1 1 1 1 1 1 1 1 1
          1 1 1 1 1 1 1 1 1 1 1 1
          1 1 1 1 1 1 1 1 1 1 1 1
          1 1 1 1 1 1 1 1 1 1 1 1
          1 1 1 1 1 1 1 1 1 1 1 1
          1 1 1 1 1 1 1 1 1 1 1 1
          1 1 1 1 1 1 1 1 1 1 1 1
          1 1 1 1 1 1 1 1 1 1 1 1
          1 1 1 1 1 1 1 1 1 1 1 1
          1 1 1 1 1 1 1 1 1 1 1 1
          1 1 1 1 1 1 1 1 1 1 1 1
          1 1 1 1 1 1 1 1 1 1 1 1
          1 1 1 1 1 1 1 1 1 1 1 1
          1 1 1 1 1 1 1 1 1 1 1 1
          1 1 1 1 1 1 1 1 1 1 1 1
          1 1 1 1 1 1 1 1 1 1 1 1
          1 1 1 1 1 1 1 1 1 1 1 1
          1 1 1 1 1 1 1 1 1 1 1 1
          1 1 1 1 1 1 1 1 1 1 1 1
          1 1 1 1 1 1 1 1 1 1 1 1
          1 1 1 1 1 1 1 1 1 1 1 1
          1 1 1 1 1 1 1 1 1 1 1 1
          1 1 1 1 1 1 1 1 1 1 1 1
          1 1 1 1 1 1 1 1 1 1 1 1
          1 1 1 1 1 1 1 1 1 1 1 1
          1 1 1 1 1 1 1 1 1 1 1 1
          1 1 1 1 1 1 1 1 1 1 1 1
          1 1 1 1 1 1 1 1 1 1 1 1
          1 1 1 1 1 1 1 1 1 1 1 1
          1 1 1 1 1 1 1 1 1 1 1 1
          1 1 1 1 1 1 1 1 1 1 1 1
          1 1 1 1 1 1 1 1 1 1 1 1
          1 1 1 1 1 1 1 1 1 1 1 1
          1 1 1 1 1 1 1 1 1 1 1 1
          1 1 1 1 1 1 1 1 1 1 1 1
          1 1 1 1 1 1 1 1 1 1 1 1
          1 1 1 1 1 1 1 1 1 1 1 1
          1 1 1 1 1 1 1 1 1 1 1 1
          1 1 1 1 1 1 1 1 1 1 1 1
          1 1 1 1 1 1 1 1 1 1 1 1
          1 1 1 1 1 1 1 1 1 1 1 1
          1 1 1 1 1 1 1 1 1 1 1 1
          1 1 1 1 1 1 1 1 1 1 1 1
          1 1 1 1 1 1 1 1 1 1 1 1
          1 1 1 1 1 1 1 1 1 1 1 1
          1 1 1 1 1 1 1 1 1 1 1 1
          1 1 1 1 1 1 1 1 1 1 1 1
          1 1 1 1 1 1 1 1 1 1 1 1
          1 1 1 1 1 1 1 1 1 1 1 1
          1 1 1 1 1 1 1 1 1 1 1 1
          1 1 1 1 1 1 1 1 1 1 1 1
          1 1 1 1 1 1 1 1 1 1 1 1
          1 1 1 1 1 1 1 1 1 1 1 1
          1 1 1 1 1 1 1 1 1 1 1 1
          1 1 1 1 1 1 1 1 1 1 1 1
          1 1 1 1 1 1 1 1 1 1 1 1
          1 1 1 1 1 1 1 1 1 1 1 1
          1 1 1 1 1 1 1 1 1 1 1 1
          1 1 1 1 1 1 1 1 1 1 1 1
          1 1 1 1 1 1 1 1 1 1 1 1
          1 1 1 1 1 1 1 1 1 1 1 1
          1 1 1 1 1 1 1 1 1 0.999994 0.999848 0.999831
          0.99983 0.999829 0.999829 0.99983 0.999838 0.999991 1 1 1 1 1 1
          1 1 1 1 1 1 1 1 1 1 1 1
          1 1 1 1 1 1 1 1 1 1 1 1
          1 1 1 1 1 1 1 1 1 1 0.999164 0.995617
          0.9954 0.995384 0.995381 0.995381 0.995385 0.995483 0.998943 0.999997 1 1 1 1
          1 1 1 1 1 1 1 1 1 1 1 1
          1 1 1 1 1 1 1 1 1 1 1 1
          1 1 1 1 1 1 1 1 1 1 0.999932 0.990219
          0.976789 0.976087 0.976044 0.97604 0.976039 0.976048 0.976375 0.989026 0.99965 1 1 1
          1 1 1 1 1 1 1 1 1 1 1 1
          1 1 1 1 1 1 1 1 1 1 1 1
          1 1 1 1 1 1 1 1 1 1 1 0.998905
          0.968353 0.948892 0.948128 0.948088 0.948086 0.948086 0.948091 0.948399 0.966908 0.996957 0.999984 1
          1 1 1 1 1 1 1 1 1 1 1 1
          1 1 1 1 1 1 1 1 1
        </DataArray>
        <DataArray type="Float32" Name="p_n" NumberOfComponents="1" format="ascii">
          153955 152689 152269 151338 151813 150518 151091 149818 150467 149206 149913 148660
          149415 148167 148960 147716 148542 147301 148153 146915 147790 146553 147448 146213
          147124 145890 146815 145582 146519 145287 146234 145003 145959 144728 145691 144461
          145430 144201 145176 143947 144926 143697 144681 143453 144440 143212 144203 142975
          143969 142741 143738 142510 143510 142283 143286 142058 143064 141837 142846 141618
          142631 141403 142419 141191 142210 140982 142004 140776 141802 140574 141603 140375
          141407 140179 141214 139987 141025 139797 140838 139610 140653 139426 140471 139244
          140291 139064 140113 138886 139937 138710 139761 138535 139587 138361 139413 138187
          139240 138014 150583 149821 149107 148461 147881 147356 146877 146437 146031 145651
          145296 144960 144641 144337 144045 143763 143490 143225 142966 142713 142464 142220
          141980 141743 141510 141279 141052 140827 140606 140387 140172 139960 139751 139545
          139343 139144 138948 138756 138566 138380 138196 138014 137835 137658 137482 137307
          137133 136960 136788 148897 148247 147622 147039 146500 146005 145548 145126 144733
          144365 144018 143691 143378 143080 142792 142514 142245 141982 141726 141474 141227
          140984 140745 140509 140276 140045 139818 139593 139372 139153 138938 138725 138516
          138311 138108 137910 137714 137522 137333 137147 136964 136783 136604 136428 136252
          136078 135906 135733 135561 147211 146645 146094 145569 145076 144615 144186 143785
          143410 143057 142723 142405 142102 141811 141530 141257 140992 140733 140480 140231
          139986 139745 139507 139271 139039 138809 138581 138357 138135 137916 137700 137488
          137278 137072 136870 136672 136477 136285 136097 135911 135729 135549 135372 135196
          135022 134849 134677 134506 134335 145525 145026 144537 144066 143618 143194 142795
          142419 142065 141730 141411 141106 140814 140532 140259 139993 139734 139479 139230
          138984 138742 138502 138265 138031 137799 137569 137342 137117 136895 136676 136460
          136246 136037 135831 135629 135430 135236 135045 134857 134673 134492 134313 134137
          133962 133790 133618 133448 133278 133109 143838 143397 142962 142540 142135 141748
          141381 141032 140701 140386 140084 139795 139515 139244 138980 138723 138470 138221
          137976 137734 137494 137257 137022 136788 136557 136328 136101 135875 135653 135433
          135216 135002 134792 134586 134383 134185 133991 133801 133615 133432 133252 133075
          132900 132727 132556 132387 132218 132050 131882 142152 141761 141375 140998 140633
          140282 139947 139627 139321 139028 138746 138473 138208 137950 137696 137447 137202
          136959 136719 136481 136244 136009 135776 135544 135313 135084 134857 134631 134408
          134186 133968 133754 133543 133336 133134 132936 132743 132554 132369 132187 132009
          131834 131661 131491 131322 131154 130988 130822 130656 140466 140120 139777 139442
          139116 138801 138499 138208 137929 137659 137398 137144 136895 136650 136408 136168
          135931 135695 135460 135226 134993 134760 134529 134298 134068 133839 133611 133385
          133160 132937 132718 132502 132290 132082 131880 131682 131490 131302 131119 130940
          130764 130591 130421 130252 130086 129921 129757 129593 129430 138780 138475 138173
          137876 137587 137308 137038 136778 136526 136282 136044 135809 135577 135347 135117
          134888 134658 134429 134200 133970 133740 133511 133281 133051 132822 132593 132364
          132136 131910 131685 131464 131246 131032 130823 130620 130423 130232 130046 129865
          129688 129515 129345 129178 129012 128849 128686 128525 128364 128204 137094 136827
          136562 136303 136050 135804 135568 135339 135117 134900 134685 134472 134258 134043
          133826 133607 133386 133164 132940 132715 132488 132261 132033 131804 131575 131346
          131116 130887 130658 130431 130206 129985 129769 129559 129355 129159 128969 128785
          128607 128434 128264 128097 127933 127771 127610 127451 127293 127135 126978 135408
          135176 134947 134722 134504 134292 134089 133893 133702 133514 133326 133135 132940
          132741 132537 132328 132116 131900 131681 131460 131237 131012 130786 130558 130329
          130099 129868 129636 129405 129174 128945 128719 128499 128287 128083 127887 127700
          127519 127345 127175 127009 126846 126686 126527 126370 126215 126060 125905 125751
          133722 133523 133327 133135 132950 132772 132603 132442 132285 132129 131969 131803
          131628 131444 131252 131053 130849 130639 130425 130208 129988 129765 129540 129313
          129084 128853 128621 128387 128151 127915 127680 127448 127223 127007 126802 126608
          126424 126248 126078 125912 125751 125593 125437 125282 125129 124977 124826 124676
          124525 132036 131868 131703 131542 131388 131244 131109 130985 130867 130747 130620
          130479 130324 130155 129975 129785 129587 129382 129173 128958 128741 128520 128296
          128069 127840 127609 127375 127138 126898 126656 126412 126170 125936 125715 125509
          125319 125140 124969 124806 124646 124490 124337 124186 124036 123887 123740 123592
          123445 123299 130350 130210 130073 129941 129817 129704 129605 129521 129449 129375
          129285 129171 129034 128877 128706 128523 128331 128131 127924 127713 127497 127277
          127054 126828 126599 126367 126132 125892 125648 125399 125144 124885 124635 124405
          124201 124018 123847 123685 123529 123377 123227 123080 122934 122789 122645 122501
          122358 122215 122072 128664 128550 128439 128333 128236 128150 128083 128042 128031
          128023 127977 127886 127762 127615 127450 127272 127083 126885 126681 126471 126257
          126038 125816 125590 125361 125129 124892 124651 124404 124148 123881 123594 123309
          123068 122874 122704 122546 122396 122249 122104 121962 121821 121680 121541 121401
          121262 121124 120985 120846 126978 126887 126800 126717 126642 126580 126536 126524
          126595 126736 126714 126632 126513 126369 126207 126030 125843 125647 125443 125234
          125020 124802 124581 124355 124127 123894 123658 123416 123167 122909 122635 122330
          121904 121686 121526 121380 121240 121102 120966 120831 120696 120561 120427 120292
          120158 120023 119889 119754 119620 125291 125223 125156 125093 125037 124992 124962
          124953 124956 124982 124952 124873 124762 124630 124481 124320 124149 123970 123785
          123594 123398 123198 122994 122786 122574 122356 122132 121900 121657 121397 121108
          120768 120330 120275 120168 120051 119930 119807 119682 119556 119429 119301 119173
          119044 118914 118784 118654 118524 118394 123605 123556 123507 123462 123422 123389
          123366 123354 123351 123301 123235 123144 123033 122906 122767 122619 122462 122300
          122131 121958 121780 121598 121412 121222 121026 120824 120615 120396 120163 119909
          119626 119299 118916 118885 118816 118725 118623 118514 118400 118283 118163 118042
          117919 117795 117671 117545 117420 117294 117168 121919 121887 121856 121826 121799
          121776 121758 121747 121742 121645 121544 121436 121319 121194 121063 120925 120783
          120635 120483 120327 120167 120002 119834 119662 119484 119300 119107 118905 118688
          118451 118187 117891 117557 117534 117483 117410 117322 117225 117121 117012 116900
          116784 116667 116548 116428 116307 116185 116063 115941 120233 120218 120204 120188
          120173 120157 120144 120133 120128 119993 119863 119737 119613 119489 119364 119237
          119107 118975 118839 118699 118557 118411 118261 118107 117948 117783 117610 117428
          117232 117018 116783 116521 116232 116213 116171 116108 116031 115943 115847 115745
          115638 115528 115416 115302 115186 115069 114952 114833 114715 118547 118550 118552
          118550 118546 118537 118526 118515 118508 118335 118177 118036 117907 117786 117668
          117552 117435 117317 117197 117075 116950 116823 116692 116557 116418 116274 116123
          115963 115793 115608 115406 115181 114933 114917 114878 114821 114750 114668 114578
          114482 114380 114275 114167 114057 113945 113832 113718 113604 113489 116861 116883
          116902 116916 116923 116920 116908 116891 116880 116659 116474 116322 116193 116078
          115971 115867 115765 115662 115559 115454 115347 115238 115126 115011 114893 114771
          114643 114510 114368 114216 114050 113866 113659 113643 113604 113549 113480 113402
          113316 113223 113126 113025 112921 112814 112706 112596 112485 112374 112262 115175
          115219 115258 115290 115310 115314 115298 115260 115233 114940 114735 114586 114467
          114364 114270 114181 114094 114008 113922 113834 113746 113655 113563 113469 113372
          113273 113171 113064 112954 112837 112712 112574 112411 112391 112347 112289 112220
          112143 112059 111969 111875 111777 111676 111573 111468 111361 111253 111145 111036
          113489 113558 113622 113675 113712 113727 113712 113652 113479 113122 112948 112824
          112726 112641 112565 112493 112423 112354 112285 112216 112146 112075 112002 111929
          111854 111778 111701 111624 111545 111466 111385 111303 111210 111158 111102 111039
          110968 110891 110808 110720 110628 110533 110434 110334 110231 110127 110022 109916
          109810 111803 111904 111997 112077 112137 112169 112166 112113 111994 111834 111689
          111576 111483 111402 111327 111256 111188 111120 111051 110983 110913 110842 110770
          110697 110622 110547 110471 110394 110316 110237 110158 110078 110001 109932 109865
          109797 109723 109645 109562 109476 109385 109291 109195 109096 108996 108894 108791
          108688 108584 110117 110256 110386 110499 110588 110645 110666 110645 110583 110494
          110399 110310 110229 110155 110086 110018 109952 109885 109818 109750 109681 109611
          109539 109466 109392 109317 109241 109164 109087 109009 108931 108854 108778 108704
          108632 108559 108483 108404 108321 108234 108145 108052 107957 107861 107762 107662
          107561 107459 107358 108430 108618 108793 108946 109070 109158 109210 109223 109203
          109157 109098 109034 108969 108905 108842 108779 108716 108651 108586 108519 108451
          108381 108309 108236 108163 108088 108012 107936 107859 107782 107704 107627 107551
          107476 107401 107324 107246 107166 107082 106996 106907 106816 106722 106627 106529
          106431 106332 106232 106131 106744 106992 107223 107424 107587 107710 107792 107836
          107848 107834 107802 107758 107708 107655 107598 107540 107480 107419 107355 107289
          107222 107152 107081 107008 106934 106859 106784 106707 106631 106554 106477 106400
          106323 106247 106170 106092 106012 105931 105847 105761 105672 105581 105489 105394
          105298 105201 105103 105004 104905 105058 105385 105684 105940 106145 106301 106412
          106483 106519 106528 106515 106488 106451 106406 106356 106303 106247 106191 106130
          106065 105998 105929 105858 105785 105707 105631 105556 105480 105403 105327 105250
          105173 105096 105018 104940 104861 104781 104698 104614 104528 104440 104349 104257
          104163 104068 103972 103875 103777 103679 103372 103807 104193 104508 104754 104939
          105073 105163 105217 105242 105244 105228 105200 105162 105118 105069 105034 105033
          104976 104912 104845 104776 104705 104630 104502 104404 104328 104252 104176 104100
          104023 103946 103868 103790 103711 103631 103550 103468 103383 103297 103209 103119
          103027 102934 102839 102743 102647 102550 102452 101686 102289 102779 103146 103422
          103628 103777 103880 103945 103980 103990 103981 103958 103925 103884 103840 103897
          103865 103806 103743 103676 103607 103536 103461 103363 103184 103101 103025 102949
          102873 102796 102719 102641 102563 102483 102403 102322 102239 102154 102068 101980
          101890 101799 101706 101611 101516 101420 101323 101226 100000 100937 101482 101872
          102160 102373 102528 102635 102704 102741 102754 102748 102727 102695 102655 102634
          102703 102665 102605 102542 102475 102406 102334 102259 102165 102004 101875 101799
          101723 101646 101569 101492 101414 101336 101257 101176 101095 101012 100927 100841
          100753 100663 100572 100479 100385 100289 100193 100097 100000
        </DataArray>
        <DataArray type="Float32" Name="p_w" NumberOfComponents="1" format="ascii">
          153955 152689 152269 151338 151813 150518 151091 149818 150467 149206 149913 148660
          149415 148167 148960 147716 148542 147301 148153 146915 147790 146553 147448 146213
          147124 145890 146815 145582 146519 145287 146234 145003 145959 144728 145691 144461
          145430 144201 145176 143947 144926 143697 144681 143453 144440 143212 144203 142975
          143969 142741 143738 142510 143510 142283 143286 142058 143064 141837 142846 141618
          142631 141403 142419 141191 142210 140982 142004 140776 141802 140574 141603 140375
          141407 140179 141214 139987 141025 139797 140838 139610 140653 139426 140471 139244
          140291 139064 140113 138886 139937 138710 139761 138535 139587 138361 139413 138187
          139240 138014 150583 149821 149107 148461 147881 147356 146877 146437 146031 145651
          145296 144960 144641 144337 144045 143763 143490 143225 142966 142713 142464 142220
          141980 141743 141510 141279 141052 140827 140606 140387 140172 139960 139751 139545
          139343 139144 138948 138756 138566 138380 138196 138014 137835 137658 137482 137307
          137133 136960 136788 148897 148247 147622 147039 146500 146005 145548 145126 144733
          144365 144018 143691 143378 143080 142792 142514 142245 141982 141726 141474 141227
          140984 140745 140509 140276 140045 139818 139593 139372 139153 138938 138725 138516
          138311 138108 137910 137714 137522 137333 137147 136964 136783 136604 136428 136252
          136078 135906 135733 135561 147211 146645 146094 145569 145076 144615 144186 143785
          143410 143057 142723 142405 142102 141811 141530 141257 140992 140733 140480 140231
          139986 139745 139507 139271 139039 138809 138581 138357 138135 137916 137700 137488
          137278 137072 136870 136672 136477 136285 136097 135911 135729 135549 135372 135196
          135022 134849 134677 134506 134335 145525 145026 144537 144066 143618 143194 142795
          142419 142065 141730 141411 141106 140814 140532 140259 139993 139734 139479 139230
          138984 138742 138502 138265 138031 137799 137569 137342 137117 136895 136676 136460
          136246 136037 135831 135629 135430 135236 135045 134857 134673 134492 134313 134137
          133962 133790 133618 133448 133278 133109 143838 143397 142962 142540 142135 141748
          141381 141032 140701 140386 140084 139795 139515 139244 138980 138723 138470 138221
          137976 137734 137494 137257 137022 136788 136557 136328 136101 135875 135653 135433
          135216 135002 134792 134586 134383 134185 133991 133801 133615 133432 133252 133075
          132900 132727 132556 132387 132218 132050 131882 142152 141761 141375 140998 140633
          140282 139947 139627 139321 139028 138746 138473 138208 137950 137696 137447 137202
          136959 136719 136481 136244 136009 135776 135544 135313 135084 134857 134631 134408
          134186 133968 133754 133543 133336 133134 132936 132743 132554 132369 132187 132009
          131834 131661 131491 131322 131154 130988 130822 130656 140466 140120 139777 139442
          139116 138801 138499 138208 137929 137659 137398 137144 136895 136650 136408 136168
          135931 135695 135460 135226 134993 134760 134529 134298 134068 133839 133611 133385
          133160 132937 132718 132502 132290 132082 131880 131682 131490 131302 131119 130940
          130764 130591 130421 130252 130086 129921 129757 129593 129430 138780 138475 138173
          137876 137587 137308 137038 136778 136526 136282 136044 135809 135577 135347 135117
          134888 134658 134429 134200 133970 133740 133511 133281 133051 132822 132593 132364
          132136 131910 131685 131464 131246 131032 130823 130620 130423 130232 130046 129865
          129688 129515 129345 129178 129012 128849 128686 128525 128364 128204 137094 136827
          136562 136303 136050 135804 135568 135339 135117 134900 134685 134472 134258 134043
          133826 133607 133386 133164 132940 132715 132488 132261 132033 131804 131575 131346
          131116 130887 130658 130431 130206 129985 129769 129559 129355 129159 128969 128785
          128607 128434 128264 128097 127933 127771 127610 127451 127293 127135 126978 135408
          135176 134947 134722 134504 134292 134089 133893 133702 133514 133326 133135 132940
          132741 132537 132328 132116 131900 131681 131460 131237 131012 130786 130558 130329
          130099 129868 129636 129405 129174 128945 128719 128499 128287 128083 127887 127700
          127519 127345 127175 127009 126846 126686 126527 126370 126215 126060 125905 125751
          133722 133523 133327 133135 132950 132772 132603 132442 132285 132129 131969 131803
          131628 131444 131252 131053 130849 130639 130425 130208 129988 129765 129540 129313
          129084 128853 128621 128387 128151 127915 127680 127448 127223 127007 126802 126608
          126424 126248 126078 125912 125751 125593 125437 125282 125129 124977 124826 124676
          124525 132036 131868 131703 131542 131388 131244 131109 130985 130867 130747 130620
          130479 130324 130155 129975 129785 129587 129382 129173 128958 128741 128520 128296
          128069 127840 127609 127375 127138 126898 126656 126412 126170 125936 125715 125509
          125319 125140 124969 124806 124646 124490 124337 124186 124036 123887 123740 123592
          123445 123299 130350 130210 130073 129941 129817 129704 129605 129521 129449 129375
          129285 129171 129034 128877 128706 128523 128331 128131 127924 127713 127497 127277
          127054 126828 126599 126367 126132 125892 125648 125399 125144 124885 124635 124405
          124201 124018 123847 123685 123529 123377 123227 123080 122934 122789 122645 122501
          122358 122215 122072 128664 128550 128439 128333 128236 128150 128083 128042 128031
          128023 127977 127886 127762 127615 127450 127272 127083 126885 126681 126471 126257
          126038 125816 125590 125361 125129 124892 124651 124404 124148 123881 123594 123309
          123068 122874 122704 122546 122396 122249 122104 121962 121821 121680 121541 121401
          121262 121124 120985 120846 126978 126887 126800 126717 126642 126580 126536 126524