<?xml version="1.0"?>
<VTKFile type="UnstructuredGrid" version="0.1" byte_order="LittleEndian">
  <UnstructuredGrid>
    <Piece NumberOfCells="1834" NumberOfPoints="1925">
      <CellData Scalars="elementMarker">
        <DataArray type="Float32" Name="elementMarker" NumberOfComponents="1" format="ascii">
          1 1 1 1 1 1 1 1 1 1 1 1
          1 1 1 1 1 1 1 1 1 1 1 1
          1 1 1 1 1 1 1 1 1 1 1 1
          1 1 1 1 1 1 1 1 1 1 1 1
          1 1 1 1 1 1 1 1 1 1 1 1
          1 1 1 1 1 1 1 1 1 1 1 1
          1 1 1 1 1 1 1 1 1 1 1 1
          1 1 1 1 1 1 1 1 1 1 1 1
          1 1 1 1 1 1 1 1 1 1 1 1
          1 1 1 1 1 1 1 1 1 1 1 1
          1 1 1 1 1 1 1 1 1 1 1 1
          1 1 1 1 1 1 1 1 1 1 1 1
          1 1 1 1 1 1 1 1 1 1 1 1
          1 1 1 1 1 1 1 1 1 1 1 1
          1 1 1 1 2 2 2 2 2 2 2 2
          2 2 2 2 2 2 2 2 2 2 2 2
          2 2 2 2 2 2 2 2 2 2 2 2
          2 2 2 2 2 2 2 2 2 2 2 2
          2 2 2 2 2 2 2 2 2 2 2 2
          2 2 2 2 2 2 2 2 2 2 2 2
          2 2 2 2 2 2 2 2 2 2 2 2
          2 2 2 2 2 2 2 2 2 2 2 2
          2 2 2 2 2 2 2 2 2 2 2 2
          2 2 2 2 2 2 2 2 2 2 2 2
          2 2 2 2 2 2 2 2 2 2 2 2
          2 2 2 2 2 2 2 2 2 2 2 2
          2 2 2 2 2 2 2 2 2 2 2 2
          2 2 2 2 2 2 2 2 2 2 2 2
          2 2 2 2 2 2 2 2 2 2 2 2
          2 2 2 2 2 2 2 2 2 2 2 2
          2 2 2 2 2 2 2 2 2 2 2 2
          2 2 2 2 2 2 2 2 2 2 2 2
          2 2 2 2 2 2 2 2 2 2 2 2
          2 2 2 2 2 2 2 2 2 2 2 2
          2 2 2 2 2 2 2 2 2 2 2 2
          2 2 2 2 2 2 2 2 2 2 2 2
          2 2 2 2 2 2 2 2 2 2 2 2
          2 2 2 2 2 2 2 2 2 2 2 2
          2 2 2 2 2 2 2 2 2 2 2 2
          2 2 2 2 2 2 2 2 2 2 2 2
          2 2 2 2 2 2 2 2 2 2 2 2
          2 2 2 2 2 2 2 2 2 2 2 2
          2 2 3 3 3 3 3 3 3 3 3 3
          3 3 3 3 3 3 3 3 3 3 3 3
          3 3 3 3 3 3 3 3 3 3 3 3
          3 3 3 3 3 3 3 3 3 3 3 3
          3 3 3 3 3 3 3 3 3 3 3 3
          3 3 3 3 3 3 3 3 3 3 3 3
          3 3 3 3 3 3 3 3 3 3 3 3
          3 3 3 3 3 3 3 3 3 3 3 3
          3 3 3 3 3 3 3 3 3 3 3 3
          3 3 3 3 3 3 3 3 3 3 3 3
          3 3 3 3 3 3 3 3 3 3 3 3
          3 3 3 3 3 3 3 3 3 3 3 3
          3 3 3 3 3 3 3 3 3 3 3 3
          3 3 3 3 3 3 3 3 3 3 3 3
          3 3 3 3 3 3 3 3 3 3 3 3
          3 3 3 3 3 3 3 3 3 3 3 3
          3 3 3 3 3 3 3 3 3 3 3 3
          3 3 3 3 3 3 3 3 3 3 3 3
          3 3 3 3 3 3 3 3 3 3 3 3
          3 3 3 3 3 3 3 3 3 3 3 3
          3 3 3 3 3 3 3 3 3 3 3 3
          3 3 3 3 3 3 3 3 3 3 3 3
          3 3 3 3 3 3 3 3 3 3 3 3
          3 3 3 3 3 3 3 3 3 3 3 3
          3 3 3 3 3 3 3 3 3 3 3 3
          3 3 3 3 3 3 3 3 3 3 3 3
          3 3 3 3 3 3 3 3 3 3 3 3
          3 3 3 3 3 3 3 3 3 3 3 3
          3 3 3 3 3 3 3 3 3 3 3 3
          3 3 3 3 3 3 3 3 3 3 3 3
          3 3 3 3 3 3 3 3 3 3 3 3
          3 3 3 3 3 3 3 3 3 3 3 3
          3 3 3 3 3 3 3 3 3 3 3 3
          3 3 3 3 3 3 3 3 3 3 3 3
          3 3 3 3 3 3 3 3 3 3 3 3
          3 3 3 3 3 3 3 3 3 3 3 3
          3 3 3 3 3 3 3 3 3 3 3 3
          3 3 3 3 3 3 3 3 3 3 3 3
          3 3 3 3 3 3 3 3 3 3 3 3
          3 3 3 3 3 3 3 3 3 3 3 3
          3 3 3 3 3 3 3 3 3 3 3 3
          3 3 3 3 3 3 3 3 3 3 3 3
          3 3 3 3 3 3 3 3 3 3 3 3
          3 3 3 3 3 3 3 3 3 3 3 3
          3 3 3 3 3 3 3 3 3 3 3 3
          3 3 3 3 3 3 3 3 3 3 3 3
          3 3 3 3 3 3 3 3 3 3 3 3
          3 3 3 3 3 3 3 3 3 3 3 3
          3 3 3 3 3 3 3 3 3 3 3 3
          3 3 3 3 3 3 3 3 3 3 3 3
          3 3 3 3 3 3 3 3 3 3 3 3
          3 3 3 3 3 3 3 3 3 3 3 3
          3 3 3 3 3 3 3 3 3 3 3 3
          3 3 3 3 3 3 3 3 3 3 3 3
          3 3 3 3 3 3 3 3 3 3 3 3
          3 3 3 3 3 3 3 3 3 3 3 3
          3 3 3 3 3 3 3 3 3 3 3 3
          3 3 3 3 3 3 3 3 3 3 3 3
          3 3 3 3 3 3 3 3 3 3 3 3
          3 3 3 3 3 3 3 3 3 3 3 3
          3 3 3 3 3 3 3 3 3 3 3 3
          3 3 3 3 3 3 3 3 3 3 3 3
          3 3 3 3 3 3 3 3 3 3 3 3
          3 3 3 3 3 3 3 3 3 3 3 3
          3 3 3 3 3 3 3 3 3 3 3 3
          3 3 3 3 3 3 3 3 3 3 3 3
          3 3 3 3 3 3 3 3 3 3 3 3
          3 3 3 3 3 3 3 3 3 3 3 3
          3 3 3 3 3 3 3 3 3 3 3 3
          3 3 3 3 3 3 3 3 3 3 3 3
          3 3 3 3 3 3 3 3 3 3 3 3
          3 3 3 3 3 3 3 3 3 3 3 3
          3 3 3 3 3 3 3 3 3 3 3 3
          3 3 3 3 3 3 3 3 3 3 3 3
          3 3 3 3 3 3 3 3 3 3 3 3
          3 3 3 3 3 3 3 3 3 3 3 3
          3 3 3 3 3 3 3 3 3 3 3 3
          3 3 3 3 3 3 3 3 3 3 3 3
          3 3 3 3 3 3 3 3 3 3 3 3
          3 3 3 3 3 3 3 3 3 3 3 3
          3 3 3 3 3 3 3 3 3 3 3 3
          3 3 3 3 3 3 3 3 3 3 3 3
          3 3 3 3 3 3 3 3 3 3 3 3
          3 3 3 3 3 3 3 3 3 3 3 3
          3 3 3 3 3 3 3 3 3 3 3 3
          3 3 3 3 3 3 3 3 3 3 3 3
          3 3 3 3 3 3 3 3 3 3 3 3
          3 3 3 3 3 3 3 3 3 3 3 3
          3 3 3 3 3 3 3 3 3 3 3 3
          3 3 3 3 3 3 3 3 3 3 3 3
          3 3 3 3 3 3 3 3 3 3 3 3
          3 3 3 3 3 3 3 3 3 3 3 3
          3 3 3 3 3 3 3 3 3 3 3 3
          3 3 3 3 3 3 3 3 3 3 3 3
          3 3 3 3 3 3 3 3 3 3 3 3
          3 3 3 3 3 3 3 3 3 3 3 3
          3 3 3 3 3 3 3 3 3 3 3 3
          3 3 3 3 3 3 3 3 3 3 3 3
          3 3 3 3 3 3 3 3 3 3 3 3
          3 3 3 3 3 3 3 3 3 3 3 3
          3 3 3 3 3 3 3 3 3 3 3 3
          3 3 3 3 3 3 3 3 3 3 3 3
          3 3 3 3 3 3 3 3 3 3 3 3
          3 3 3 3 3 3 3 3 3 3 3 3
          3 3 3 3 3 3 3 3 3 3 3 3
          3 3 3 3 3 3 3 3 3 3 3 3
          3 3 3 3 3 3 3 3 3 3 3 3
          3 3 3 3 3 3 3 3 3 3 3 3
          3 3 3 3 3 3 3 3 3 3 3 3
          3 3 3 3 3 3 3 3 3 3 3 3
          3 3 3 3 3 3 3 3 3 3
        </DataArray>
        <DataArray type="Float32" Name="rank" NumberOfComponents="1" format="ascii">
          1 1 1 1 1 1 1 1 1 1 1 1
          1 1 1 1 1 1 1 1 1 1 1 1
          1 1 1 1 1 1 1 1 1 1 1 1
          1 1 1 1 1 1 1 1 1 1 1 1
          1 1 1 1 1 1 1 1 1 1 1 1
          1 1 1 1 1 1 1 1 1 1 1 1
          1 1 1 1 1 1 1 1 1 1 1 1
          1 1 1 1 1 1 1 1 1 1 1 1
          1 1 1 1 1 1 1 1 1 1 1 1
          1 1 1 1 1 1 1 1 1 1 1 1
          1 1 1 1 1 1 1 1 1 1 1 1
          1 1 1 1 1 1 1 1 1 1 1 1
          1 1 1 1 1 1 1 1 1 1 1 1
          1 1 1 1 1 1 1 1 1 1 1 1
          1 1 1 1 1 1 1 1 1 1 1 1
          1 1 1 1 1 1 1 1 1 1 1 1
          1 1 1 1 1 1 1 1 1 1 1 1
          1 1 1 1 1 1 1 1 1 1 1 1
          1 1 1 1 1 1 1 1 1 1 1 1
          1 1 1 1 1 1 1 1 1 1 1 1
          1 1 1 1 1 1 1 1 1 1 1 1
          1 1 1 1 1 1 1 1 1 1 1 1
          1 1 1 1 1 1 1 1 1 1 1 1
          1 1 1 1 1 1 1 1 1 1 1 1
          1 1 1 1 1 1 1 1 1 1 1 1
          1 1 1 1 1 1 1 1 1 1 1 1
          1 1 1 1 1 1 1 1 1 1 1 1
          1 1 1 1 1 1 1 1 1 1 1 1
          1 1 1 1 1 1 1 1 1 1 1 1
          1 1 1 1 1 1 1 1 1 1 1 1
          1 1 1 1 1 1 1 1 1 1 1 1
          1 1 1 1 1 1 1 1 1 1 1 1
          1 1 1 1 1 1 1 1 1 1 1 1
          1 1 1 1 1 1 1 1 1 1 1 1
          1 1 1 1 1 1 1 1 1 1 1 1
          1 1 1 1 1 1 1 1 1 1 1 1
          1 1 1 1 1 1 1 1 1 1 1 1
          1 1 1 1 1 1 1 1 1 1 1 1
          1 1 1 1 1 1 1 1 1 1 1 1
          1 1 1 1 1 1 1 1 1 1 1 1
          1 1 1 1 1 1 1 1 1 1 1 1
          1 1 1 1 1 1 1 1 1 1 1 1
          1 1 1 1 1 1 1 1 1 1 1 1
          1 1 1 1 1 1 1 1 1 1 1 1
          1 1 1 1 1 1 1 1 1 1 1 1
          1 1 1 1 1 1 1 1 1 1 1 1
          1 1 1 1 1 1 1 1 1 1 1 1
          1 1 1 1 1 1 1 1 1 1 1 1
          1 1 1 1 1 1 1 1 1 1 1 1
          1 1 1 1 1 1 1 1 1 1 1 1
          1 1 1 1 1 1 1 1 1 1 1 1
          1 1 1 1 1 1 1 1 1 1 1 1
          1 1 1 1 1 1 1 1 1 1 1 1
          1 1 1 1 1 1 1 1 1 1 1 1
          1 1 1 1 1 1 1 1 1 1 1 1
          1 1 1 1 1 1 1 1 1 1 1 1
          1 1 1 1 1 1 1 1 1 1 1 1
          1 1 1 1 1 1 1 1 1 1 1 1
          1 1 1 1 1 1 1 1 1 1 1 1
          1 1 1 1 1 1 1 1 1 1 1 1
          1 1 1 1 1 1 1 1 1 1 1 1
          1 1 1 1 1 1 1 1 1 1 1 1
          1 1 1 1 1 1 1 1 1 1 1 1
          1 1 1 1 1 1 1 1 1 1 1 1
          1 1 1 1 1 1 1 1 1 1 1 1
          1 1 1 1 1 1 1 1 1 1 1 1
          1 1 1 1 1 1 1 1 1 1 1 1
          1 1 1 1 1 1 1 1 1 1 1 1
          1 1 1 1 1 1 1 1 1 1 1 1
          1 1 1 1 1 1 1 1 1 1 1 1
          1 1 1 1 1 1 1 1 1 1 1 1
          1 1 1 1 1 1 1 1 1 1 1 1
          1 1 1 1 1 1 1 1 1 1 1 1
          1 1 1 1 1 1 1 1 1 1 1 1
          1 1 1 1 1 1 1 1 1 1 1 1
          1 1 1 1 1 1 1 1 1 1 1 1
          1 1 1 1 1 1 1 1 1 1 1 1
          1 1 1 1 1 1 1 1 1 1 1 1
          1 1 1 1 1 1 1 1 1 1 1 1
          1 1 1 1 1 1 1 1 1 1 1 1
          1 1 1 1 1 1 1 1 1 1 1 1
          1 1 1 1 1 1 1 1 1 1 1 1
          1 1 1 1 1 1 1 1 1 1 1 1
          1 1 1 1 1 1 1 1 1 1 1 1
          1 1 1 1 1 1 1 1 1 1 1 1
          1 1 1 1 1 1 1 1 1 1 1 1
          1 1 1 1 1 1 1 1 1 1 1 1
          1 1 1 1 1 1 1 1 1 1 1 1
          1 1 1 1 1 1 1 1 1 1 1 1
          1 1 1 1 1 1 1 1 1 1 1 1
          1 1 1 1 1 1 1 1 1 1 1 1
          1 1 1 1 1 1 1 1 1 1 1 1
          1 1 1 1 1 1 1 1 1 1 1 1
          1 1 1 1 1 1 1 1 1 1 1 1
          1 1 1 1 1 1 1 1 1 1 1 1
          1 1 1 1 1 1 1 1 1 1 1 1
          1 1 1 1 1 1 1 1 1 1 1 1
          1 1 1 1 1 1 1 1 1 1 1 1
          1 1 1 1 1 1 1 1 1 1 1 1
          1 1 1 1 1 1 1 1 1 1 1 1
          1 1 1 1 1 1 1 1 1 1 1 1
          1 1 1 1 1 1 1 1 1 1 1 1
          1 1 1 1 1 1 1 1 1 1 1 1
          1 1 1 1 1 1 1 1 1 1 1 1
          1 1 1 1 1 1 1 1 1 1 1 1
          1 1 1 1 1 1 1 1 1 1 1 1
          1 1 1 1 1 1 1 1 1 1 1 1
          1 1 1 1 1 1 1 1 1 1 1 1
          1 1 1 1 1 1 1 1 1 1 1 1
          1 1 1 1 1 1 1 1 1 1 1 1
          1 1 1 1 1 1 1 1 1 1 1 1
          1 1 1 1 1 1 1 1 1 1 1 1
          1 1 1 1 1 1 1 1 1 1 1 1
          1 1 1 1 1 1 1 1 1 1 1 1
          1 1 1 1 1 1 1 1 1 1 1 1
          1 1 1 1 1 1 1 1 1 1 1 1
          1 1 1 1 1 1 1 1 1 1 1 1
          1 1 1 1 1 1 1 1 1 1 1 1
          1 1 1 1 1 1 1 1 1 1 1 1
          1 1 1 1 1 1 1 1 1 1 1 1
          1 1 1 1 1 1 1 1 1 1 1 1
          1 1 1 1 1 1 1 1 1 1 1 1
          1 1 1 1 1 1 1 1 1 1 1 1
          1 1 1 1 1 1 1 1 1 1 1 1
          1 1 1 1 1 1 1 1 1 1 1 1
          1 1 1 1 1 1 1 1 1 1 1 1
          1 1 1 1 1 1 1 1 1 1 1 1
          1 1 1 1 1 1 1 1 1 1 1 1
          1 1 1 1 1 1 1 1 1 1 1 1
          1 1 1 1 1 1 1 1 1 1 1 1
          1 1 1 1 1 1 1 1 1 1 1 1
          1 1 1 1 1 1 1 1 1 1 1 1
          1 1 1 1 1 1 1 1 1 1 1 1
          1 1 1 1 1 1 1 1 1 1 1 1
          1 1 1 1 1 1 1 1 1 1 1 1
          1 1 1 1 1 1 1 1 1 1 1 1
          1 1 1 1 1 1 1 1 1 1 1 1
          1 1 1 1 1 1 1 1 1 1 1 1
          1 1 1 1 1 1 1 1 1 1 1 1
          1 1 1 1 1 1 1 1 1 1 1 1
          1 1 1 1 1 1 1 1 1 1 1 1
          1 1 1 1 1 1 1 1 1 1 1 1
          1 1 1 1 1 1 1 1 1 1 1 1
          1 1 1 1 1 1 1 1 1 1 1 1
          1 1 1 1 1 1 1 1 1 1 1 1
          1 1 1 1 1 1 1 1 1 1 1 1
          1 1 1 1 1 1 1 1 1 1 1 1
          1 1 1 1 1 1 1 1 1 1 1 1
          1 1 1 1 1 1 1 1 1 1 1 1
          1 1 1 1 1 1 1 1 1 1 1 1
          1 1 1 1 1 1 1 1 1 1 1 1
          1 1 1 1 1 1 1 1 1 1 1 1
          1 1 1 1 1 1 1 1 1 1
        </DataArray>
      </CellData>
      <Points>
        <DataArray type="Float32" Name="Coordinates" NumberOfComponents="3" format="ascii">
          166.671 98.7902 0 168.07 98.395 0 166.463 100 0 168.739 100 0
          165.48 97.9755 0 166.944 96.7918 0 164.188 100 0 161.634 98.7608 0
          160.18 98.3351 0 162.873 97.9474 0 161.391 96.7076 0 161.849 100 0
          159.511 100 0 148.798 96.3432 0 148.87 94.6125 0 150.344 97.1409 0
          151.16 94.7486 0 147.18 97.2761 0 146.558 94.9962 0 148.646 100 0
          140.682 98.6878 0 139.031 97.9935 0 142.364 98.07 0 140.78 95.8441 0
          140.651 100 0 138.075 100 0 143.226 100 0 129.806 98.5855 0
          130.953 97.5274 0 130.159 100 0 132.67 100 0 128.307 98.2291 0
          129.167 96.3666 0 127.648 100 0 134.006 91.241 0 135.709 91.5322 0
          133.05 92.7812 0 135.19 93.9435 0 133.26 89.4095 0 135.513 88.9812 0
          130.88 90.8515 0 101.13 98.9017 0 99.6051 98.3116 0 102.669 98.3936 0
          101.326 96.5045 0 103.417 100 0 101.116 100 0 171.178 92.5493 0
          171.134 91.136 0 172.604 93.0635 0 173.131 91.0794 0 169.795 93.4484 0
          169.077 91.6155 0 171.442 95.2756 0 118.238 97.5963 0 116.018 97.6881 0
          118.275 95.1383 0 115.945 95.3605 0 120.432 97.5588 0 120.575 95.019 0
          118.225 100 0 116.079 100 0 120.371 100 0 190.154 93.1385 0
          187.882 92.9937 0 190.616 91.1071 0 188.585 90.7383 0 192.46 93.0251 0
          192.664 90.8967 0 189.661 95.428 0 187.257 95.4215 0 192.15 95.3216 0
          174.62 97.725 0 174.44 95.4106 0 176.739 97.702 0 176.934 95.3705 0
          174.969 100 0 176.572 100 0 172.332 97.7874 0 173.367 100 0
          194.121 97.4164 0 191.446 97.6275 0 194.422 94.9678 0 196.667 97.0702 0
          196.634 94.4481 0 193.947 100 0 190.519 100 0 197.375 100 0
          122.56 97.6598 0 122.778 95.268 0 124.628 97.8122 0 124.965 95.5862 0
          122.4 100 0 124.429 100 0 138.07 92.0569 0 138.031 89.2963 0
          140.87 92.5814 0 140.812 89.7196 0 137.671 94.8177 0 185.28 92.6524 0
          186.038 90.097 0 184.617 95.1714 0 182.584 92.3475 0 182.985 89.2218 0
          182.051 95.0062 0 113.95 97.7908 0 113.656 95.5827 0 114.362 100 0
          111.763 97.8924 0 111.238 95.7744 0 112.645 100 0 194.513 92.6385 0
          194.583 90.4698 0 196.587 92.0911 0 196.594 89.918 0 178.925 97.6013 0
          179.462 95.1359 0 181.2 97.5673 0 178.3 100 0 180.028 100 0
          148.943 92.2956 0 146.432 92.4907 0 148.949 89.8141 0 146.37 89.9584 0
          151.52 92.2652 0 151.874 89.5222 0 102.473 91.4328 0 101.842 93.7876 0
          100.011 90.8129 0 99.3215 93.2302 0 143.703 92.5713 0 143.537 89.9001 0
          143.972 95.3129 0 104.444 93.8743 0 106.754 93.8804 0 104.233 96.1398 0
          106.525 95.9897 0 104.945 91.6894 0 107.238 91.8291 0 122.95 92.8226 0
          123.124 90.4059 0 125.22 93.139 0 125.31 90.6896 0 120.676 92.4773 0
          120.758 89.4661 0 183.696 97.6117 0 186.312 97.7083 0 182.656 100 0
          185.283 100 0 136.554 97.3623 0 134.143 96.6382 0 135.372 100 0
          153.939 92.4478 0 154.298 90.3539 0 156.217 92.3192 0 155.9 90.7548 0
          153.721 94.8529 0 156.873 94.7635 0 127.509 93.4296 0 127.806 90.7503 0
          129.94 93.9718 0 127.071 95.8572 0 126.511 97.9746 0 126.039 100 0
          113.558 93.3504 0 115.923 93.0062 0 111.277 93.6238 0 113.377 91.189 0
          115.77 90.6863 0 111.296 91.5695 0 174.968 93.0544 0 175.436 90.8388 0
          177.392 92.9046 0 177.835 90.5223 0 132.021 95.2297 0 152.769 97.3808 0
          155.53 97.5294 0 151.482 100 0 154.318 100 0 160.694 93.9734 0
          159 92.9439 0 161.83 92.1402 0 160.255 91.7647 0 162.659 94.9692 0
          164.258 92.8294 0 159.289 95.8404 0 118.231 92.699 0 118.049 90.1743 0
          167.88 94.17 0 166.938 92.1107 0 169.018 96.076 0 165.77 95.0449 0
          144.863 97.6647 0 145.936 100 0 104.925 98.1398 0 107.139 98.0256 0
          105.66 100 0 107.903 100 0 109.073 93.8248 0 109.016 95.8786 0
          109.243 91.9163 0 164.195 96.4842 0 179.9 92.6452 0 180.161 90.1927 0
          170.119 98.0646 0 171.053 100 0 157.978 97.9262 0 156.914 100 0
          109.548 97.9492 0 110.274 100 0 188.83 97.691 0 187.901 100 0
          198.433 96.4404 0 198.377 93.6768 0 200 95.0147 0 200 92.5295 0
          198.688 100 0 200 97.5 0 198.317 91.2917 0 198.304 89.0629 0
          200 90.336 0 200 88.1425 0 143.918 40.2252 0 142.994 38.8441 0
          145.403 40.1124 0 144.893 37.5163 0 143.356 41.7192 0 141.387 40.5594 0
          145.309 42.3619 0 151.34 46.0432 0 151.568 47.8334 0 149.538 45.4376 0
          149.053 47.7364 0 152.914 44.8586 0 154.535 47.2838 0 150.663 42.8929 0
          105.001 42.6219 0 103.746 43.3106 0 105.05 41.233 0 102.884 41.0385 0
          106.206 43.3222 0 104.993 44.7871 0 106.868 41.7911 0 135.147 40.0207 0
          136.56 39.5833 0 134.757 41.3906 0 136.887 41.2875 0 134.125 39.0881 0
          135.688 38.0342 0 132.541 40.7766 0 190.136 40.9026 0 191.028 39.9916 0
          190.77 41.9983 0 192.44 41.0555 0 188.61 40.7179 0 189.307 39.1967 0
          188.373 42.639 0 185.842 55.667 0 187.483 55.3349 0 185.27 57.1746 0
          187.434 57.4358 0 184.774 54.4916 0 186.851 53.46 0 182.867 56.1338 0
          180.25 54.7515 0 178.861 53.8862 0 181.637 53.9767 0 180.087 52.3732 0
          180.253 56.3916 0 178.089 55.8684 0 165.208 58.504 0 163.805 59.337 0
          165.337 57.0734 0 162.857 57.3913 0 166.484 59.1017 0 165.084 60.673 0
          167.385 57.2754 0 104.972 58.9413 0 103.495 60.028 0 104.625 57.2239 0
          102.404 57.9811 0 106.795 59.5721 0 105.648 62.2427 0 107.046 57.0217 0
          103.073 50.9837 0 101.351 51.0022 0 104.1 49.4555 0 101.645 48.4155 0
          103.768 52.4935 0 101.546 53.219 0 106.317 51.0597 0 136.766 48.8242 0
          137.005 50.3818 0 135.166 48.4417 0 134.773 50.7499 0 138.126 47.6493 0
          139.056 49.4025 0 136.546 45.9774 0 145.553 53.9465 0 144.189 54.3562 0
          146.064 52.327 0 144.104 52.2495 0 146.405 55.1563 0 144.67 56.2076 0
          148.294 53.3353 0 156.009 55.3884 0 156.278 53.7055 0 157.363 56.6876 0
          158.371 54.8284 0 154.385 55.7722 0 153.991 53.2427 0 155.729 58.4538 0
          182.281 45.1199 0 183.143 44.0299 0 182.963 46.2258 0 184.538 45.2699 0
          180.736 45.1042 0 181.301 42.8661 0 181.045 46.8965 0 158.055 46.7728 0
          157.437 48.6444 0 156.708 45.3028 0 160.021 46.3712 0 160.373 49.3804 0
          159.063 44.0038 0 163.571 49.806 0 162.441 51.3414 0 162.973 48.0845 0
          165.298 49.9922 0 164.499 52.3026 0 165.489 47.5905 0 117.338 45.1074 0
          117.779 46.7616 0 115.43 44.6185 0 114.848 47.4302 0 118.806 43.9423 0
          119.984 45.8657 0 116.926 41.917 0 122.683 46.7257 0 124.55 47.2536 0
          121.26 47.8156 0 123.246 49.7229 0 122.238 45.1081 0 125.126 44.6568 0
          125.438 51.943 0 126.497 53.2671 0 123.713 52.4228 0 124.55 54.5179 0
          126.103 50.139 0 128.708 51.2477 0 199.013 56.7005 0 198.514 58.034 0
          198.524 55.3698 0 196.871 56.6574 0 200 56.6977 0 200 58.7409 0
          200 54.6544 0 198.392 43.381 0 197.59 42.2045 0 200 43.373 0
          200 41.0107 0 197.587 44.5654 0 195.937 43.3904 0 200 45.7353 0
          198.403 48.1034 0 197.625 49.3225 0 197.586 46.9345 0 195.928 48.1638 0
          200 48.0531 0 200 50.3709 0 147.121 45.0373 0 146.556 47.478 0
          144.742 44.5677 0 143.72 47.1156 0 147.649 42.666 0 168.296 44.7263 0
          168.159 47.5307 0 165.374 44.6944 0 168.491 41.6672 0 165.026 41.0904 0
          171.159 45.0128 0 170.995 47.7273 0 171.4 42.1583 0 151.467 50.472 0
          148.761 50.331 0 154.167 50.5252 0 151.374 53.1984 0 142.728 43.6518 0
          141.835 45.417 0 140.977 42.9035 0 140.693 44.386 0 146.341 50.0286 0
          143.982 49.9782 0 121.703 53.682 0 122.79 55.7415 0 119.736 55.3116 0
          121.215 57.5055 0 120.574 51.2522 0 118.286 52.789 0 193.915 59.2424 0
          191.641 59.3413 0 194.349 56.7064 0 192.035 56.8039 0 196.188 59.337 0
          193.481 61.585 0 191.162 61.7958 0 195.719 61.5379 0 104.29 54.8791 0
          101.94 55.5739 0 106.826 54.2252 0 99.7419 56.0662 0 100.231 58.474 0
          99.3689 53.7943 0 102.167 44.6463 0 103.552 46.3281 0 100.372 46.1844 0
          100.998 42.7622 0 98.6995 44.2698 0 151.952 55.9834 0 152.718 58.6172 0
          149.329 56.3459 0 150.074 58.8611 0 147.53 40.081 0 147.161 37.7988 0
          149.907 39.7468 0 149.157 37.2946 0 184.854 59.3809 0 187.059 59.6656 0
          184.58 61.6439 0 186.601 62.0706 0 182.506 59.0393 0 182.408 61.6387 0
          194.411 54.4108 0 192.081 54.3539 0 194.746 52.3003 0 192.094 51.5418 0
          196.467 54.2825 0 196.327 52.7212 0 109.543 39.6853 0 107.428 39.6914 0
          110.01 37.5658 0 107.841 37.7431 0 111.842 39.5883 0 112.324 37.2592 0
          108.891 41.8958 0 111.175 41.9529 0 119.077 49.0253 0 116.694 50.2717 0
          162.52 45.4591 0 161.711 42.6862 0 132.654 48.4061 0 129.791 48.2819 0
          133.555 45.8895 0 130.805 45.7601 0 132.103 51.0113 0 127.13 47.7582 0
          128.076 45.3584 0 172.693 50.7476 0 170.26 50.3103 0 173.554 48.1597 0
          175.158 51.4265 0 176.508 48.7693 0 171.8 53.0938 0 169.423 52.7325 0
          174.124 53.6697 0 166.09 54.8254 0 163.701 54.6066 0 166.921 52.5402 0
          168.4 55.0813 0 125.676 40.7797 0 123.585 42.1245 0 124.58 38.9049 0
          122.477 39.9221 0 127.485 39.6211 0 126.596 37.3083 0 127.054 42.4682 0
          128.177 41.1486 0 156.779 51.295 0 159.233 52.305 0 137.367 52.6071 0
          139.573 51.6807 0 137.872 55.0829 0 140.043 54.0469 0 135.02 53.2829 0
          135.529 55.999 0 105.584 47.4524 0 106.874 45.5989 0 107.812 48.4273 0
          109.077 46.2049 0 167.66 50.0934 0 155.196 43.2298 0 153.549 41.0286 0
          157.616 41.7291 0 156.062 39.4391 0 180.465 49.5548 0 179.098 47.6819 0
          182.353 48.5328 0 181.914 51.1795 0 183.858 50.0905 0 178.495 50.8251 0
          161.47 53.56 0 160.504 55.987 0 114.476 52.1746 0 116.009 54.7856 0
          112.338 53.649 0 113.433 57.0311 0 112.863 49.9921 0 111.619 51.539 0
          141.704 50.7724 0 141.17 48.4085 0 142.094 53.022 0 170.7 55.5257 0
          172.991 56.1946 0 169.608 57.7331 0 171.891 58.5083 0 178.722 45.4279 0
          176.317 45.7857 0 178.739 43.1398 0 176.358 43.3236 0 129.187 43.0554 0
          131.735 43.3136 0 129.884 41.0813 0 186.854 40.025 0 187.554 38.2943 0
          186.187 41.6175 0 185.067 39.4704 0 185.444 37.2052 0 184.877 40.901 0
          147.21 57.3969 0 145.215 58.3787 0 147.892 59.7067 0 145.435 61.4364 0
          138.92 43.0692 0 136.691 43.4413 0 138.917 40.9651 0 139.094 44.9668 0
          112.81 44.3059 0 111.771 46.7036 0 110.246 44.0741 0 113.794 41.8276 0
          159.338 57.8164 0 161.105 59.035 0 158.379 59.5562 0 160.007 60.1449 0
          183.105 39.7503 0 180.963 40.3645 0 182.878 37.5789 0 180.668 38.0479 0
          183.511 41.5873 0 132.479 53.7924 0 133.047 56.4846 0 129.744 54.3908 0
          130.532 57.0769 0 117.726 57.2148 0 119.449 59.4726 0 115.708 59.2892 0
          117.337 61.9708 0 192.065 48.2711 0 190.155 46.8693 0 194.036 46.9584 0
          192.166 45.7066 0 194.057 49.6463 0 190.012 49.6105 0 188.096 48.0268 0
          189.575 54.871 0 189.099 52.6176 0 189.635 57.1776 0 192.318 43.2613 0
          194.082 44.5441 0 190.268 44.3014 0 194.154 42.2016 0 195.877 41.0291 0
          194.176 39.8708 0 197.587 39.8397 0 195.929 38.6517 0 110.492 49.1282 0
          109.523 51.3899 0 189.284 59.5387 0 188.801 61.9703 0 187.642 50.7666 0
          185.983 49.1011 0 185.472 51.737 0 142.482 55.2002 0 143.043 57.1003 0
          140.603 56.3221 0 141.42 58.4373 0 134.184 43.5087 0 195.823 45.7506 0
          183.449 52.8462 0 127.419 55.6902 0 125.278 56.788 0 128.156 58.3148 0
          125.489 59.839 0 188.291 45.4657 0 186.278 46.6136 0 186.463 44.0783 0
          184.395 47.6183 0 173.759 45.4446 0 174.006 42.82 0 198.16 53.4943 0
          197.651 51.8121 0 200 52.5126 0 121.165 42.993 0 120.033 40.7973 0
          101.212 60.71 0 102.493 63.2034 0 177.16 52.749 0 176.127 54.858 0
          196.02 50.7703 0 140.056 46.6104 0 109.662 54.0662 0 109.963 57.0008 0
          184.826 42.8283 0 175.187 57.3705 0 174.142 59.9693 0 177.487 58.4601 0
          176.775 61.8169 0 129.498 39.178 0 129.157 37.3015 0 131.464 38.7079 0
          130.794 37.3343 0 108.054 43.7228 0 120.27 70.8437 0 118.727 71.5053 0
          119.237 69.1827 0 117.733 70.5698 0 116.847 69.5255 0 117.566 67.4837 0
          112.553 1.19112 0 111.015 1.76884 0 112.567 0 0 110.184 0 0
          114.078 1.80452 0 112.47 3.77361 0 114.95 0 0 111.338 22.2503 0
          110.512 23.2757 0 110.647 21.1227 0 109.07 22.1759 0 112.856 22.3524 0
          112.321 24.0188 0 112.851 20.3223 0 115.48 19.4481 0 117.051 18.9552 0
          115.039 20.9786 0 116.962 21.1303 0 114.349 18.4104 0 116.406 16.5767 0
          109.678 15.0015 0 109.74 13.5681 0 110.859 15.8717 0 111.689 14.2095 0
          108.434 15.5649 0 107.898 13.6826 0 109.467 17.1358 0 106.739 22.249 0
          105.037 22.2832 0 107.623 20.9943 0 105.567 19.8094 0 107.557 23.4695 0
          105.311 24.7946 0 106.542 35.8251 0 105.515 34.6121 0 108.083 35.5047 0
          107.647 32.9599 0 106.027 37.3584 0 104.293 36.4044 0 123.668 37.5824 0
          121.969 37.7512 0 124.454 36.0911 0 122.158 35.2625 0 178.471 78.8829 0
          176.793 78.9299 0 179.384 77.4689 0 176.95 76.5464 0 179.237 80.2499 0
          177.154 81.0295 0 181.467 78.9143 0 189.159 79.3242 0 190.771 78.8345 0
          188.946 80.9123 0 191.113 81.1365 0 187.76 78.2257 0 189.745 76.327 0
          186.812 80.127 0 184.438 63.1646 0 185.844 63.9768 0 182.891 63.8731 0
          184.223 66.1111 0 152.324 75.5674 0 153.738 75.9156 0 150.997 76.6733 0
          152.584 78.2776 0 152.238 74.1133 0 154.238 73.8346 0 150.2 74.9146 0
          143.829 74.8792 0 142.702 73.8824 0 145.476 74.3749 0 144.622 72.0524 0
          143.311 76.3804 0 141.435 75.6058 0 145.626 76.9099 0 148.212 83.4094 0
          148.187 85.0705 0 146.859 82.3702 0 145.466 84.3301 0 149.589 82.7876 0
          150.644 84.9414 0 148.397 81.0114 0 166.515 86.0116 0 166.793 87.5413 0
          165.026 85.7143 0 164.576 87.7477 0 167.726 84.7791 0 169.244 86.5999 0
          166.052 83.7282 0 143.717 58.4877 0 142.893 59.984 0 148.99 61.3142 0
          150.767 61.2553 0 148.312 62.9806 0 150.81 63.6641 0 143.923 64.6871 0
          143.232 66.2867 0 142.816 63.1151 0 140.798 64.9976 0 145.721 64.6595 0
          145.438 67.0739 0 114.221 60.7659 0 114.589 62.8048 0 112.365 60.2036 0
          112.08 62.9619 0 113.249 77.8021 0 114.99 77.8473 0 112.456 79.5219 0
          114.684 80.4219 0 112.301 76.0371 0 114.754 74.8217 0 110.105 77.8552 0
          102.77 76.4949 0 101.488 75.5923 0 104.308 75.9252 0 103.127 73.7743 0
          102.514 77.9672 0 100.506 77.4365 0 104.652 77.9691 0 131.825 77.1986 0
          132.145 78.8968 0 130.28 76.9132 0 129.99 79.3011 0 133.05 75.7859 0
          134.527 77.882 0 131.165 74.1362 0 123.19 82.3209 0 121.969 83.8067 0
          122.764 80.5457 0 120.163 81.674 0 124.836 82.6102 0 124.079 85.4881 0
          125.067 80.137 0 134.365 17.0832 0 136.111 16.1043 0 134.283 18.7466 0
          136.844 18.3077 0 132.7 16.3987 0 134.197 13.8351 0 131.928 18.6947 0
          145.786 1.32357 0 143.919 1.71913 0 146.217 0 0 143.188 0 0
          147.223 2.25158 0 144.778 3.77297 0 149.246 0 0 153.018 1.53868 0
          155.102 2.09246 0 151.22 2.52358 0 153.499 4.5514 0 152.731 0 0
          156.215 0 0 151.462 7.14028 0 153.529 7.25071 0 150.204 8.50305 0
          152.823 10.0254 0 150.653 5.66709 0 148.545 6.85927 0 145.766 6.46188 0
          146.432 7.95432 0 143.856 6.19791 0 143.584 8.78676 0 147.011 5.23341 0
          150.594 18.7727 0 149.382 17.9087 0 152.08 18.2054 0 151.103 16.5975 0
          150.319 20.204 0 148.279 19.6753 0 152.593 20.2596 0 126.654 0.957576 0
          126.627 0 0 127.958 1.41187 0 128.579 0 0 125.377 1.46086 0
          124.675 0 0 126.753 3.06467 0 119.996 3.37953 0 118.582 2.65496 0
          121.421 2.40693 0 120.073 0 0 119.985 5.07669 0 117.837 5.02655 0
          122.107 4.45331 0 158.171 18.4709 0 159.367 18.6646 0 157.209 19.3935 0
          158.694 20.5682 0 157.936 17.3547 0 159.498 17.0194 0 156.376 18.0821 0
          158.023 22.8286 0 159.371 22.7491 0 157.631 24.0868 0 159.485 24.756 0
          157.068 21.6499 0 155.993 22.9405 0 140.405 9.61823 0 140.832 7.97782 0
          141.811 10.8921 0 138.571 9.9848 0 137.955 7.54488 0 139.816 12.1767 0
          137.835 4.8983 0 137.883 3.5955 0 139.201 5.53989 0 139.734 3.72507 0
          136.42 5.55951 0 135.931 3.79209 0 118.654 26.0148 0 119.819 26.2502 0
          117.649 26.9777 0 118.948 27.8193 0 118.494 24.8164 0 120.244 24.6231 0
          116.48 25.5008 0 123.467 88.6428 0 122.214 87.3161 0 125.062 88.2064 0
          137.514 71.4212 0 137.548 69.845 0 138.843 72.0812 0 139.684 70.1442 0
          136.151 72.3376 0 135.161 70.1385 0 137.504 73.751 0 152.433 86.9118 0
          152.88 85.6119 0 153.574 87.8875 0 154.679 86.3431 0 150.846 87.2358 0
          101.555 71.3463 0 100.671 69.9899 0 103.151 71.2085 0 102.534 68.9731 0
          100.843 72.8405 0 99.1969 71.5313 0 109.298 90.5556 0 110.715 89.7873 0
          107.937 89.9633 0 109.26 87.9641 0 110.616 85.6272 0 111.336 84.2 0
          111.614 87.1484 0 113.749 85.8019 0 108.898 85.5331 0 109.096 83.3593 0
          109.054 69.8819 0 110.169 71.2576 0 107.533 70.243 0 108.251 72.3862 0
          109.46 68.1452 0 112.006 69.1291 0 107.23 67.9941 0 118.974 64.6883 0
          119.916 66.1213 0 117.12 64.8781 0 119.886 63.0656 0 121.771 64.5319 0
          177.602 10.3549 0 178.514 8.81465 0 178.63 11.8841 0 180.549 10.2624 0
          175.663 10.3659 0 175.932 7.72216 0 176.019 13.1818 0 176.511 5.06742 0
          176.793 3.70078 0 177.755 5.96055 0 178.717 4.09584 0 174.986 5.54093 0
          174.846 3.68976 0 179.803 88.6022 0 181.114 87.2575 0 178.132 88.3562 0
          178.89 85.8482 0 160.846 71.1761 0 161.961 69.75 0 161.235 72.7677 0
          163.8 71.7134 0 159.343 71.0107 0 160.107 68.8457 0 159.015 73.1251 0
          146.494 69.541 0 144.87 69.3389 0 147.452 68.0132 0 147.161 71.2708 0
          149.63 69.697 0 137.968 64.1031 0 138.234 65.5827 0 136.418 63.7504 0
          136.188 65.6814 0 139.251 62.9763 0 137.149 61.411 0 134.559 67.4055 0
          135.949 67.7129 0 133.434 68.5993 0 134.295 65.9042 0 132.157 66.6461 0
          130.915 64.3438 0 130.208 62.9676 0 132.363 64.2729 0 132.071 62.1522 0
          130.172 65.791 0 128.651 64.4909 0 176.414 65.3686 0 178.075 64.7114 0
          176.323 67.3192 0 178.705 67.2415 0 174.844 64.0751 0 173.524 66.7672 0
          171.874 85.2045 0 171.58 86.912 0 170.629 84.1958 0 173.412 84.5056 0
          173.765 86.658 0 172.329 82.1329 0 177.104 73.7442 0 178.645 74.5964 0
          175.57 74.512 0 177.098 72.124 0 179.828 72.4048 0 174.773 72.4156 0