<?xml version="1.0"?>
<VTKFile type="UnstructuredGrid" version="0.1" byte_order="LittleEndian">
  <UnstructuredGrid>
    <Piece NumberOfCells="3667" NumberOfPoints="3794">
      <PointData Scalars="vertexData">
        <DataArray type="Float32" Name="vertexData" NumberOfComponents="1" format="ascii">
          3754 1381 3753 10 1715 192 9 3752 1320 1716 191 3751
          59 3746 3745 2941 104 3363 13 203 3744 3225 3364 388
          1290 387 204 3743 3233 2309 206 1840 207 14 3742 3028
          1838 332 3741 35 15 3740 2400 3739 33 2968 209 17
          3702 3350 2398 326 3222 325 323 3700 2452 3311 925 3422
          486 335 3695 3694 3312 42 3534 40 343 3693 3433 2321
          347 3692 105 37 3691 2558 3041 346 2323 348 345 3690
          2975 2322 2905 349 3689 3459 1099 450 3688 102 41 3687
          3016 3500 353 3382 362 352 3678 1162 1799 389 3677 57
          55 3674 1999 2512 570 1880 611 402 3536 989 3432 202
          3535 39 3533 3279 1930 398 3396 320 3532 54 34 3531
          2017 3457 448 3530 50 3504 363 47 3505 3463 3038 365
          3503 46 3502 3501 2232 354 3379 355 3496 3495 3420 451
          3458 2016 449 3465 2786 3464 2790 369 51 3462 3309 3461
          649 3273 661 1076 193 306 3460 3456 3451 2940 3043 344
          3409 340 2835 341 3440 2511 3259 401 3439 60 1383 61
          3434 2906 3431 3423 3421 1100 3415 1077 3272 1032 307 3414
          58 31 3398 3078 2966 208 3397 16 3384 3378 3383 44
          998 45 3381 3137 3380 43 3365 2834 1160 3351 1062 3165
          329 3027 3313 986 1101 3310 3277 3075 1677 650 194 3281
          2630 3280 1220 400 53 3275 3274 952 659 3260 1674 3074
          3258 12 3234 3166 2256 331 2983 334 3226 1161 2129 3107
          386 3167 2276 1839 3138 2231 1619 359 3136 52 3108 1736
          1800 391 1846 390 3079 3077 2977 322 1933 321 3076 1075
          3073 11 3044 3042 1126 3039 2785 956 364 2014 452 3029
          2399 3026 3017 1200 3015 507 997 125 2984 2028 1171 308
          2310 333 2979 2978 2397 2967 2969 2965 2942 1127 2939 38
          2907 2234 988 924 2791 1428 2340 366 2789 49 2788 2339
          2787 368 2631 1931 1735 2421 399 392 2514 2513 1675 571
          2401 2341 1852 2338 367 2324 1125 2311 1318 2308 36 2233
          1634 2230 358 2065 1170 2064 625 1713 612 1319 2018 2015
          1934 1932 1881 1879 1382 1714 1853 1427 1636 357 1851 356
          1842 1841 1802 1218 1801 56 1737 1219 1734 1717 1678 1676
          1637 1635 1620 1621 1426 1618 48 1429 1425 1385 1384 1321
          1317 1222 1221 1202 1199 1201 1198 509 62 1163 1159 1128
          1124 1103 1102 1078 1074 1034 951 1033 115 1031 32 1000
          999 996 103 990 987 955 953 954 70 3793 2363 1718
          835 2946 127 126 3792 3385 2919 132 2216 133 130 3790
          2792 3132 798 2215 834 3781 2099 3064 729 3339 730 143
          3780 3366 3510 585 2460 690 144 3775 3150 1603 823 1067
          822 152 3772 1745 1653 731 1774 732 158 3771 2101 1780
          668 2062 166 165 3767 1832 3035 173 1641 638 171 3766
          1504 1638 664 2155 643 3761 3087 2651 596 2581 594 182
          3755 1522 3237 408 3336 403 189 3671 3449 2597 715 3238
          413 412 3668 2864 2330 802 2627 869 418 3667 2218 2549
          805 3314 804 811 3666 2840 3476 431 2372 439 422 3665
          2803 2498 521 1835 522 426 3664 1919 2035 487 1188 493
          427 3662 3254 3477 432 2842 433 3661 3085 2848 495 2841
          540 3656 1751 2923 442 3252 441 440 3655 1860 1386 492
          1750 490 3642 2685 2427 909 1387 491 3641 1630 2312 498
          2687 500 497 3636 2499 2805 1369 524 519 3633 1473 2489
          887 2716 93 532 3625 2600 2744 568 1449 587 567 3621
          1659 3304 583 2050 588 579 3620 2604 1944 597 3113 582
          581 3609 1374 1590 673 2133 686 667 3607 2603 2462 2752
          679 675 3605 2281 2751 2496 682 678 3597 3163 3151 821
          3448 828 3596 2825 1951 750 1528 749 716 3592 2697 2823
          751 1527 755 3591 1615 3282 753 2696 754 3584 2811 3203
          836 3537 832 797 3581 3008 3162 829 2810 830 827 3580
          2793 2820 831 2812 3555 1488 1559 635 3554 68 117 3552
          1770 3551 65 1645 628 119 3550 1462 1646 627 3549 66
          3545 1420 3544 100 2640 526 123 3538 3130 2794 3400 794
          3522 2804 2883 523 2639 3412 520 3511 3302 3338 584 3066
          3498 1906 3399 860 3146 861 3497 854 859 3478 2876 3323
          420 3466 2493 2750 2482 161 1573 680 159 3450 2471 3153
          229 3441 2865 1253 868 2920 800 3386 801 3413 943 2910
          533 1370 518 3401 3205 3202 3387 3131 2415 799 3367 3303
          2602 3112 3340 1447 2019 569 3324 2025 3097 421 1396 419
          3305 2163 3284 3283 1875 760 2824 752 3267 3250 2877 444
          3253 2924 443 3256 1727 2943 636 1487 2522 637 633 3255
          2847 3251 2878 3218 2209 424 423 3239 3154 1415 3206 1905
          1869 796 2417 795 3204 2364 2949 3164 2955 2472 3155 1524
          1720 409 3152 2598 3149 3133 2416 3114 2465 2051 580 3067
          3065 1276 724 3037 1728 3036 172 2156 170 3009 2956 2819
          1312 815 826 2957 2954 2278 814 2950 2947 2948 863 2944
          1833 1464 639 1560 634 2925 1389 2115 445 2922 2921 2918
          131 2911 2717 2491 1367 525 2894 1602 2705 154 1913 153
          1064 151 2879 1397 2866 2108 1871 2849 978 1748 488 2826
          2165 2822 1001 2821 824 2813 2365 2806 1157 2795 1002 2753
          2749 2745 2698 1655 756 1886 2718 942 2715 121 2699 2066
          2693 2494 1576 1505 689 2160 681 666 2688 1191 2288 499
          1920 2652 2282 2495 2159 2641 944 2638 63 2637 1526 2636
          709 1131 155 2067 157 2629 1437 2628 971 502 456 2605
          2280 2601 2162 2502 586 1887 591 2599 1066 1753 415 2550
          1830 2287 1190 494 2500 2026 1399 2497 2473 1719 2366 2463
          1275 2461 725 2457 1861 1749 977 1918 489 2418 1872 2402
          2132 1589 1639 665 1506 2367 2332 1870 1908 2331 852 2314
          1921 2313 1858 496 2289 1255 1293 870 2283 1945 2217 1003
          1185 833 2211 2210 1836 425 1398 2166 1874 1417 188 1755
          414 2164 1448 1658 2161 1210 2158 644 2134 1575 1230 687
          2109 1254 1436 1294 503 2068 1656 1130 2063 2061 1372 1928
          163 164 2052 2049 2048 184 2037 976 2036 428 2004 429
          2027 1368 1147 2020 1654 1744 1450 1952 1754 1065 1912 1947
          1946 1686 592 1929 1229 1891 688 1375 1922 1889 1888 1616
          141 1878 1876 1877 410 1873 1863 1611 1643 672 1465 1679
          671 1862 1859 1837 1154 1764 896 1834 1680 1726 1781 1644
          1610 1767 1771 1768 1769 886 1756 1416 1752 1729 1040 1721
          929 1681 1592 1640 1662 1660 1661 589 1657 1647 1642 1633
          1296 1631 504 1632 911 1617 1614 1613 758 1612 1591 1373
          1593 1577 1574 1562 1463 1561 1530 1529 1525 1523 926 864
          1507 1211 1466 1451 1438 1295 1435 1419 1418 1400 1390 1388
          1376 1371 1297 1257 1256 1212 1209 1208 640 1192 1189 1133
          1132 1129 156 1068 980 979 945 941 314 1299 2915 416
          1095 411 3791 2220 2995 806 3789 1581 2350 779 1819 782
          136 3788 3518 2198 138 3787 3 2 3786 2731 1518 784
          3517 774 3785 2971 3515 771 3784 82 3783 1531 3782 5
          3118 139 4 3779 2441 2669 150 1953 149 147 3778 1547
          1954 294 1587 290 3777 2567 1586 767 2040 768 148 3776
          2951 2670 778 2443 780 3774 3018 2706 712 1605 789 3773
          3512 2167 711 3770 3105 2767 655 2895 646 168 3769 3373
          2551 657 1537 651 169 3768 1043 3109 641 3765 2999 3352
          618 1648 572 174 3764 2390 2190 621 2719 622 175 3763
          2254 2586 330 2735 624 176 3762 3187 2654 610 1937 609
          180 3760 1900 3759 2464 2225 577 3758 2432 1901 602 2224
          601 3757 3159 1213 550 2931 871 187 3756 3347 3335 190
          3750 2294 2594 378 2675 196 195 3749 2665 2674 198 2595
          379 3748 3228 3194 395 3182 313 199 3747 3429 2898 371
          3296 373 200 3738 1882 2778 211 2344 319 210 3737 2476
          3070 309 3062 310 213 3736 1732 1864 298 2578 303 215
          3735 3523 3734 19 3357 218 18 3733 1460 3354 288 3732
          28 3731 2285 2541 271 3355 287 3730 2540 2505 286 3356
          3729 3437 1986 274 3417 222 221 3728 3727 1825 26 1972
          27 223 3726 3245 1794 243 2119 245 225 3725 2515 2117
          248 1797 255 3724 2182 3468 236 2145 237 227 3723 3722
          2844 21 2543 20 228 3721 3292 3010 240 2478 231 230
          3720 2657 3032 808 2469 807 235 3719 1898 2678 258 3011
          259 239 3718 3244 1696 244 2892 242 3717 1895 1697 3246
          246 3716 2571 2516 3391 249 247 3715 3315 2244 875 2333
          254 253 3714 2170 2335 812 1796 256 3713 3287 1808 260
          1897 261 3712 3480 3711 87 1622 843 23 3710 3116 1974
          79 2801 761 264 3709 2762 2525 742 2274 733 273 3708
          3294 1670 720 2526 276 3707 2506 2814 1268 283 280 3706
          3407 2507 285 1440 284 3705 1566 2881 302 2445 293 292
          3704 2474 3345 3703 2532 2392 603 2342 604 317 3701 1978
          2029 623 2255 3699 1378 2006 856 2435 338 337 3698 3003
          1379 462 2434 339 3697 2560 1760 342 3696 3290 2836 383
          3410 382 3686 2962 3369 508 3685 1692 2096 361 3684 2377
          2095 922 3683 3124 2827 515 2963 360 3682 2486 2093 513
          1691 528 3681 2083 3298 474 2379 370 3680 2562 3540 405
          3428 372 3679 2617 3200 867 3389 866 374 3676 2419 1849
          394 3675 3192 2420 396 2781 397 3673 3183 3539 407 1017
          406 404 3672 2916 3348 3120 759 3670 2889 3231 554 2106
          535 417 3669 2269 2689 457 3663 2245 1828 1741 876 430
          3660 3264 1452 437 2449 436 434 3659 2991 1454 534 2184
          539 435 3658 3333 3084 877 1453 3657 2992 2187 2371 538
          3654 3483 2913 470 3093 465 446 3653 3487 2072 483 3652
          1595 2690 455 2270 461 3651 2407 2127 477 3170 479 459
          3650 3002 3168 463 1596 460 3649 3174 2927 471 3046 472
          466 3648 2202 3172 917 3045 918 3647 2081 2194 514 3173
          527 3646 3156 2409 920 2346 482 478 3645 3054 2408 3528
          480 3644 3488 3053 485 2453 484 3643 2235 2451 3103 923
          3640 2207 2375 2903 910 506 3639 3056 2387 510 2739 904
          512 3638 2829 2740 516 2487 3637 2737 2828 2405 903 3635
          3634 3493 98 3424 95 529 3632 2509 2448 873 2105 851
          536 3631 1266 2299 544 2681 543 542 3630 2042 3158 993
          547 545 3629 1328 2137 553 2888 552 546 3628 2624 2556
          895 3454 890 558 3627 2382 3141 701 3319 563 562 3626
          3446 2383 566 2212 565 3624 2797 2757 645 3623 2070 1706
          614 2175 575 573 3622 2430 2223 2191 576 3619 2531 3508
          599 1902 590 3618 2533 2150 3506 598 3617 2423 3507 600
          3220 757 3616 3110 3330 642 2712 606 3615 2001 1936 2858
          608 607 3614 2768 2936 3331 653 615 3613 2642 3089 632
          1915 652 630 3612 3375 3276 662 3611 948 3371 658 2607
          69 656 3610 1492 3049 703 2086 743 663 3608 3307 2528
          881 3050 702 674 3606 2292 2832 677 2960 721 676 3604
          1490 2085 2783 684 683 3603 2852 1491 744 1556 745 3602
          3361 3321 692 3327 695 691 3601 3600 3328 76 1967 75
          3599 3143 1413 706 2764 698 697 3598 2880 3474 880 3178
          718 714 3595 1407 2455 723 3594 1948 1723 727 2098 728
          726 3593 2807 2759 736 2273 734 3590 3121 3589 2867 2614
          764 2368 763 762 3588 2729 3516 2868 775 3587 2634 2988
          788 2952 776 3586 3248 2730 3185 785 783 3585 2886 1542
          790 1710 787 786 3583 1815 3582 3189 2267 819 3485 825
          818 3579 3230 3209 872 2644 839 838 3578 2258 2074 853
          3577 3006 3388 3147 862 3576 1579 3268 894 3402 892 891
          3575 3024 1600 901 3139 899 898 3574 2738 3211 3023 900
          3573 2428 2262 908 3216 907 906 3572 2980 2203 916 2302
          921 915 3571 1994 3570 99 1598 107 3569 1992 2623 3568
          94 108 3567 1394 1471 888 3566 92 109 3565 1700 3564
          110 3563 1362 3562 77 1792 708 111 3561 3326 3560 73
          3359 113 3559 1305 3360 696 3558 74 3557 2573 3556 67
          2609 629 116 3553 2523 1486 2575 631 118 3548 2682 1990
          556 1324 557 120 3547 1322 3546 64 1087 305 122 3543
          3542 1403 124 3541 2899 2672 3529 3102 3169 3001 481 3527
          2929 3471 842 3526 89 3343 837 88 3525 2504 3406 3524
          30 3521 1216 3492 186 3520 97 3472 8 3519 3514 947
          3376 660 2552 3372 3513 1911 2985 713 3509 2547 3499 3020
          2817 278 3436 279 3416 219 3494 3242 3491 3490 1086 3425
          531 3241 3213 530 3489 2348 3486 1313 2746 3484 3235 2926
          1499 464 3482 1433 3443 128 3481 0 3479 3059 3180 847
          3300 845 2318 263 262 3475 2708 2986 1910 3473 2932 3470
          3469 3196 1786 241 3033 226 3467 2304 2591 458 972 505
          2691 3455 1119 2973 185 3403 555 3453 1813 2703 146 3452
          6 1226 145 7 3447 3393 2058 3445 72 71 3444 2862
          3342 129 3442 1 3438 2815 1136 281 3435 3317 2568 766
          2613 1532 140 3430 3100 3199 375 3427 1085 3426 96 3419
          3306 3013 883 1497 707 2908 882 3418 1549 1665 220 3411
          1759 963 381 3408 1348 3405 25 3404 3261 1309 3395 2381
          3394 1969 694 91 3392 2327 981 874 2091 250 3390 1983
          2666 3377 2356 3374 3207 3370 3123 3368 1977 2734 620 2998
          2726 619 613 3362 3144 3358 3353 2733 2588 2189 3349 1094
          1016 3346 3061 3223 324 3344 1345 3341 3337 1019 3334 3265
          1739 878 2584 3332 1166 2855 3329 3325 3322 2359 2124 693
          1968 3320 2213 3134 2838 561 559 3318 1057 3117 2800 765
          3316 1829 2700 3308 2228 1667 704 3301 1624 2045 844 3288
          846 3299 1332 957 453 3297 3099 3285 2012 377 201 3295
          2761 1554 740 2290 741 3293 1787 3197 1695 3291 1288 962
          1570 384 197 3289 2319 1036 3286 3193 2780 2901 3278 2796
          2553 648 3271 2544 1174 238 2677 3270 83 84 3269 3262
          2490 1472 3266 982 2328 3263 1393 2625 889 3257 1935 2653
          2727 181 3030 179 178 3249 3176 1519 791 1543 3247 1241
          3243 1264 1215 549 3240 3191 3227 2475 2055 311 3236 3215
          3047 468 3092 467 3232 2710 2773 3229 1298 3071 312 3224
          1059 1883 327 3221 2647 2149 2438 315 316 3219 2114 3094
          447 2934 3217 1784 934 3214 2683 1323 1263 3212 2404 1115
          905 1996 106 3210 3160 2930 1344 3208 2608 1916 3090 3201
          2667 2563 3198 1142 2891 257 3195 3190 2747 1626 769 2032
          770 3188 2000 3068 3186 1820 2518 1540 135 3184 2900 1097
          3181 2412 1431 849 1180 850 3179 2632 1482 717 2707 3177
          2885 2662 793 3127 792 3175 2754 3171 2305 3161 2772 3157
          2981 2301 1079 476 3148 2259 3145 2360 1304 3142 1050 3081
          747 2122 699 3140 3057 1155 1763 897 3135 3080 2851 748
          939 142 3129 2178 1307 541 1330 551 2993 537 3128 1520
          2845 1259 772 773 3126 2468 1186 803 2996 3125 1402 2403
          517 3122 2649 3119 3115 3111 1164 2154 3106 2859 968 2937
          617 3104 1046 3052 3101 1568 1855 376 3098 2177 2373 438
          1146 893 3096 2854 1340 605 1358 595 2713 183 3095 2113
          3091 2521 2574 3088 1360 1687 593 3086 2583 2185 3083 1724
          1949 2770 267 1026 268 269 3082 1105 1013 746 3072 2873
          2777 212 3069 1169 2655 626 3063 1884 2776 3060 1239 2570
          848 1181 252 3058 3022 1501 3055 2347 3051 1668 1893 3048
          933 3040 2959 2831 3034 1139 2181 3031 1338 966 616 1707
          3025 1995 3021 1029 2078 1722 277 3019 1817 2989 817 2633
          3014 2227 2765 700 2742 3012 1698 1173 3007 928 2618 865
          3005 1228 2694 685 2087 160 1892 3004 1047 3000 1705 2173
          2997 2265 2658 809 2994 2620 2990 2021 1924 777 2987 2241
          1804 710 2982 2147 2297 473 2976 1958 2559 351 2236 350
          2974 1310 2138 1327 2972 2615 2869 2970 80 2964 1693 2961
          1274 2110 722 2958 1962 1245 304 1942 291 2721 266 265
          2953 2351 1583 2945 2249 2808 735 2871 1091 738 270 2938
          967 2856 2935 2912 1765 469 2933 2928 2193 2385 511 2917
          2648 2874 2914 1502 1762 2909 2135 2395 669 2529 670 2904
          973 2590 1069 501 2902 2897 1555 2760 936 2850 2896 1151
          2798 647 2860 2893 2171 1795 2890 2774 2621 2887 2663 2144
          233 2884 1599 1421 902 1156 2882 1481 2242 2875 1300 2437
          2872 2272 1134 272 2284 2870 1281 2863 2411 1342 841 1432
          2861 2756 2857 1337 2853 1104 2846 1260 2724 2843 2186 2839
          2250 2141 737 938 739 2837 1291 2833 1006 2483 162 2830
          1690 2818 1865 1731 1028 297 2816 2539 1730 2809 937 2251
          2802 2722 1941 2799 1150 2784 1557 1007 2291 2782 1848 2009
          393 2779 2439 2775 994 2771 2354 1203 301 2325 296 2769
          1109 1538 167 2766 1051 2361 2763 2758 2002 2755 2082 2296
          1333 475 2748 1004 1184 2743 1494 1412 1363 705 2741 2736
          1979 2732 1821 2728 1704 1021 2725 2661 2479 232 1176 2723
          1965 1973 2720 2535 2587 1286 318 177 2714 2580 2711 2645
          1777 840 2104 2709 2704 1089 1458 289 2702 29 2701 1352
          2264 810 2336 2695 1231 2484 2692 2686 2315 2611 913 2684
          2555 2680 1807 2679 86 2676 1856 961 2673 2565 1018 2671
          2038 1585 2668 1854 2664 2480 2660 2222 2466 2537 578 1650
          574 2659 1354 1140 813 2656 1022 2650 2424 2646 1343 2413
          2643 1111 1165 654 1042 2635 2442 2626 1392 2622 1329 1476
          2619 2564 927 2616 1533 2612 2206 2610 2606 2596 2007 1981
          857 2593 2033 1711 781 1541 2519 134 2592 2126 2306 2589
          1283 2585 2582 1357 2579 1246 1961 1939 214 2577 2576 2572
          2118 2090 2569 2369 1056 2566 2561 2458 2557 1120 1991 2554
          1149 2548 2425 2501 2546 1175 2545 2542 1137 2538 1688 2069
          2174 2536 1844 2343 2391 2534 2431 2530 1890 2394 2527 1550
          1985 2524 1041 2520 2352 2238 137 2517 2334 2247 2510 984
          1776 2089 251 2508 2503 1903 2492 1144 2488 2386 2196 2485
          1009 2481 1788 2477 2053 2470 1183 1627 2467 1685 2459 1757
          1957 1510 380 205 2456 2077 2111 275 1273 2454 2450 983
          1478 2447 2378 2094 2195 2080 2446 1955 1546 1682 295 2444
          1483 2440 2152 2436 1511 1959 2433 2389 2429 2316 1783 2426
          2422 2054 2414 1778 2410 1514 2406 1116 2396 2102 2393 2388
          1500 2384 2123 2380 2376 974 2374 2179 2370 2039 1278 879
          2362 2121 2358 946 2357 114 2355 2168 1772 2353 1923 2349
          1080 2345 2151 2337 2329 2246 1740 2326 1027 1608 1866 217
          2320 1240 1896 2317 2205 1469 912 2307 1594 2303 2261 1515
          914 2300 992 1121 548 2043 2298 2201 1334 2295 1758 1509
          964 2293 1671 2286 1459 1092 2279 1315 2022 816 1816 2277
          1284 2253 1061 328 2275 1987 2271 2075 1195 855 2268 2239
          2023 820 1314 2266 1355 2219 2263 931 1468 2260 1982 1234
          858 2257 2252 1812 2248 2243 1805 1565 299 2240 1926 2031
          2237 1045 2229 1011 1052 564 2226 2221 2214 2059 2140 560
          2208 1072 2204 932 2200 1517 1258 2199 81 2197 2192 1649
          2188 2183 1442 1628 234 2180 1578 2176 1651 2172 1353 1141
          2169 1803 1204 300 2157 2153 2148 1335 1082 958 454 2146
          1709 1789 2143 2011 2130 385 1289 1569 2142 1811 1225 2139
          1122 991 2136 1250 1702 885 1496 884 2131 1847 2010 2128
          1070 1513 919 2125 2120 1238 2116 1782 2112 1663 1672 719
          2107 1477 2103 1701 2100 1408 1743 2097 2092 1178 2088 1008
          2084 2079 1410 1664 2076 1405 1907 2073 959 1081 2071 1359
          1339 2060 1224 2057 78 2056 2047 1623 2046 1037 22 2044
          1214 1265 2041 1582 2034 1444 2030 1023 1168 2024 1925 2013
          2008 1236 1508 2005 1738 1827 2003 1998 1997 1993 1989 1988
          1135 1984 1235 1980 1024 1976 1975 1971 1970 1966 1963 1824
          1439 282 224 1964 1270 1960 1048 1956 1480 1950 1746 1773
          1943 1054 1545 1940 1867 1607 1683 216 1938 969 1927 1917
          1112 1536 1914 1909 1904 1899 1894 1885 1843 1868 1857 1571
          1850 1845 1060 1285 1831 1826 1350 1823 24 1822 1280 1818
          1604 1814 1090 1810 1035 1809 85 1806 1205 1798 1793 1251
          1495 1791 90 1790 1785 1779 1179 1775 1766 1761 1747 1742
          1733 1269 1725 1409 1712 1443 1708 1703 1249 1699 1694 1689
          1684 1243 1563 1673 1551 1669 1012 1106 1666 1552 1652 1629
          1445 1625 1430 1609 1206 1564 1606 1601 1422 1597 1194 1588
          1055 1584 1279 1580 1145 1308 1572 1567 1558 1553 1548 1244
          1544 1539 1152 1535 1534 1521 1516 1467 1512 1503 1498 1493
          1107 1489 1485 1484 1479 1455 1475 1474 1470 1071 1461 1457
          1456 1446 1441 1349 1271 1434 1424 1423 1414 1303 1364 112
          1411 1406 1233 1377 1196 336 1404 1117 1401 101 1395 1391
          1380 1193 1366 1365 1361 1356 1351 1347 1346 1341 1336 1331
          1326 1325 1316 1311 1306 1302 1301 1096 1292 1287 1282 1277
          1272 1267 1262 1261 1252 1248 1247 1242 1237 1232 1227 1223
          1217 1207 1197 1187 1182 1177 1172 1167 1110 1158 1153 1148
          1143 1138 1123 1118 1114 1113 1108 1098 1093 1088 1084 1083
          1073 1063 1058 1053 1014 1049 1044 1039 1038 1030 1025 1020
          1015 1010 1005 995 985 975 970 965 960 950 949 940
          935 930
        </DataArray>
      </PointData>
      <Points>
        <DataArray type="Float32" Name="Coordinates" NumberOfComponents="3" format="ascii">
          166.671 98.7902 0 168.07 98.395 0 166.463 100 0 168.739 100 0
          165.48 97.9755 0 166.944 96.7918 0 164.188 100 0 161.634 98.7608 0
          160.18 98.3351 0 162.873 97.9474 0 161.391 96.7076 0 161.849 100 0
          159.511 100 0 88.5934 98.4225 0 88.9652 100 0 86.4756 97.88 0
          85.5595 100 0 90.3395 97.3874 0 92.3709 100 0 87.9309 95.3917 0
          95.3126 92.4779 0 96.9764 92.6798 0 94.1622 93.8674 0 96.0901 94.931 0
          94.7991 90.8864 0 97.2698 89.9089 0 92.8383 92.2819 0 148.798 96.3432 0
          148.87 94.6125 0 150.344 97.1409 0 151.16 94.7486 0 147.18 97.2761 0
          146.558 94.9962 0 148.646 100 0 140.682 98.6878 0 139.031 97.9935 0
          142.364 98.07 0 140.78 95.8441 0 140.651 100 0 138.075 100 0
          143.226 100 0 129.806 98.5855 0 130.953 97.5274 0 130.159 100 0
          132.67 100 0 128.307 98.2291 0 129.167 96.3666 0 127.648 100 0
          134.006 91.241 0 135.709 91.5322 0 133.05 92.7812 0 135.19 93.9435 0
          133.26 89.4095 0 135.513 88.9812 0 130.88 90.8515 0 56.836 93.6395 0
          57.7977 92.5373 0 57.6062 94.9137 0 59.3618 94.0116 0 55.104 93.4677 0
          55.5135 91.1191 0 55.5315 95.4732 0 61.7577 98.9255 0 61.4728 100 0
          60.4182 98.1625 0 58.7066 100 0 63.3822 98.6141 0 64.2389 100 0
          62.3148 97.2259 0 72.1096 98.5796 0 70.6387 98.1572 0 73.2497 97.5814 0
          71.3632 95.9309 0 72.4404 100 0 70.1005 100 0 74.7803 100 0
          76.8244 92.7248 0 76.5385 91.3605 0 78.1277 92.9031 0 78.3164 91.0965 0
          75.807 93.9107 0 74.4112 92.1503 0 77.4098 94.8361 0 71.851 93.0211 0
          72.1314 91.3361 0 73.089 94.2334 0 70.3325 93.4936 0 69.948 91.202 0
          50.5658 98.9188 0 49.1152 98.3893 0 52.0243 98.367 0 50.4085 96.5456 0
          50.558 100 0 48.3252 100 0 52.7908 100 0 5.74115 94.6953 0
          4.73069 93.7249 0 6.97824 94.3897 0 6.21221 92.3409 0 5.51453 95.9714 0
          3.82344 95.266 0 7.20783 96.1881 0 101.13 98.9017 0 99.6051 98.3116 0
          102.669 98.3936 0 101.326 96.5045 0 101.116 100 0 98.8145 100 0
          103.417 100 0 171.178 92.5493 0 171.134 91.136 0 172.604 93.0635 0
          173.131 91.0794 0 169.795 93.4484 0 169.077 91.6155 0 171.442 95.2756 0
          65.074 98.3672 0 64.2777 96.6765 0 66.9355 98.1782 0 66.5188 96.2721 0
          65.7007 100 0 67.1624 100 0 118.238 97.5963 0 116.018 97.6881 0
          118.275 95.1383 0 115.945 95.3605 0 120.432 97.5588 0 120.575 95.019 0
          118.225 100 0 116.079 100 0 120.371 100 0 42.8649 97.5822 0
          42.9494 95.1065 0 45.1192 97.7672 0 45.3069 95.4679 0 42.8391 100 0
          45.0855 100 0 40.5519 97.4549 0 40.5703 94.8478 0 40.5927 100 0
          38.1577 97.4384 0 35.7234 97.4163 0 38.2202 94.8824 0 35.8194 94.8872 0
          38.1351 100 0 35.6775 100 0 8.86855 94.3208 0 8.47025 92.3993 0
          10.9384 94.1922 0 10.5609 92.0582 0 9.08729 96.3019 0 11.0199 96.3847 0
          47.7593 93.5226 0 47.7634 91.3192 0 50.1944 93.7708 0 49.9443 91.3378 0
          47.6591 95.9099 0 45.4204 93.0904 0 45.6178 90.7582 0 33.2274 97.3403 0
          33.4206 94.6946 0 33.1393 100 0 30.6262 97.2505 0 30.9438 94.4609 0
          30.6012 100 0 190.154 93.1385 0 187.882 92.9937 0 190.616 91.1071 0
          188.585 90.7383 0 192.46 93.0251 0 192.664 90.8967 0 189.661 95.428 0
          187.257 95.4215 0 192.15 95.3216 0 47.1497 98.0166 0 46.7053 100 0
          84.8102 92.5095 0 84.6326 95.1614 0 82.2748 92.5383 0 81.9552 95.0683 0
          84.9119 90.0019 0 82.2824 89.7271 0 87.4216 92.3364 0 87.1634 89.9413 0
          174.62 97.725 0 174.44 95.4106 0 176.739 97.702 0 176.934 95.3705 0
          174.969 100 0 176.572 100 0 172.332 97.7874 0 173.367 100 0
          68.7294 98.0895 0 68.7118 96.0225 0 68.6315 100 0 52.7701 93.5868 0
          52.5328 91.1988 0 53.249 95.9101 0 194.121 97.4164 0 191.446 97.6275 0
          194.422 94.9678 0 196.667 97.0702 0 196.634 94.4481 0 193.947 100 0
          190.519 100 0 197.375 100 0 122.56 97.6598 0 122.778 95.268 0
          124.628 97.8122 0 124.965 95.5862 0 122.4 100 0 124.429 100 0
          5.46471 97.8674 0 7.53088 98.0562 0 5.44267 100 0 8.26033 100 0
          3.37075 97.4419 0 2.625 100 0 9.29679 98.1389 0 10.9778 98.1977 0
          9.59115 100 0 10.922 100 0 92.4391 95.5176 0 90.7435 93.7068 0
          94.5114 97.1086 0 138.07 92.0569 0 138.031 89.2963 0 140.87 92.5814 0
          140.812 89.7196 0 137.671 94.8177 0 58.9489 96.5581 0 60.9075 95.6598 0
          56.8637 97.4965 0 185.28 92.6524 0 186.038 90.097 0 184.617 95.1714 0
          182.584 92.3475 0 182.985 89.2218 0 182.051 95.0062 0 113.95 97.7908 0
          113.656 95.5827 0 114.362 100 0 111.763 97.8924 0 111.238 95.7744 0
          112.645 100 0 194.513 92.6385 0 194.583 90.4698 0 196.587 92.0911 0
          196.594 89.918 0 178.925 97.6013 0 179.462 95.1359 0 181.2 97.5673 0
          178.3 100 0 180.028 100 0 148.943 92.2956 0 146.432 92.4907 0
          148.949 89.8141 0 146.37 89.9584 0 151.52 92.2652 0 151.874 89.5222 0
          99.3215 93.2302 0 98.4565 95.6404 0 100.011 90.8129 0 101.842 93.7876 0
          102.473 91.4328 0 143.703 92.5713 0 143.537 89.9001 0 143.972 95.3129 0
          12.7195 98.0617 0 13.0969 96.0835 0 14.5901 97.9655 0 15.3466 95.8519 0
          12.2134 100 0 13.5047 100 0 104.444 93.8743 0 106.754 93.8804 0
          104.233 96.1398 0 106.525 95.9897 0 104.945 91.6894 0 107.238 91.8291 0
          122.95 92.8226 0 123.124 90.4059 0 125.22 93.139 0 125.31 90.6896 0
          120.676 92.4773 0 120.758 89.4661 0 183.696 97.6117 0 186.312 97.7083 0
          182.656 100 0 185.283 100 0 80.0031 92.8059 0 80.1125 90.7409 0
          79.4976 95.0415 0 38.4788 92.4114 0 36.0773 92.3108 0 38.868 90.0094 0
          36.4765 89.909 0 40.7496 92.4428 0 41.061 89.9901 0 136.554 97.3623 0
          134.143 96.6382 0 135.372 100 0 3.31127 92.7397 0 1.98451 91.5608 0
          4.3503 91.2902 0 3.11592 90.6878 0 2.17956 94.3829 0 0 92.9026 0
          153.939 92.4478 0 154.298 90.3539 0 156.217 92.3192 0 155.9 90.7548 0
          153.721 94.8529 0 156.873 94.7635 0 127.509 93.4296 0 127.806 90.7503 0
          129.94 93.9718 0 127.071 95.8572 0 126.511 97.9746 0 126.039 100 0
          83.7369 97.6452 0 81.0805 97.5394 0 82.7589 100 0 79.9584 100 0
          67.9728 93.7458 0 67.3863 91.3394 0 65.4607 94.1276 0 64.1425 91.5839 0
          27.6511 97.2967 0 24.6864 97.3618 0 28.2455 94.5744 0 25.6184 94.7324 0
          27.0465 100 0 23.4918 100 0 33.7058 92.0973 0 31.1775 91.8312 0
          34.1477 89.5525 0 31.3872 88.8704 0 113.558 93.3504 0 115.923 93.0062 0
          111.277 93.6238 0 113.377 91.189 0 115.77 90.6863 0 111.296 91.5695 0
          174.968 93.0544 0 175.436 90.8388 0 177.392 92.9046 0 177.835 90.5223 0
          132.021 95.2297 0 28.5366 92.0723 0 26.1192 92.3055 0 28.6041 89.5779 0
          26.405 90.0007 0 74.6263 95.686 0 76.3596 97.0186 0 152.769 97.3808 0
          155.53 97.5294 0 151.482 100 0 154.318 100 0 13.239 93.7227 0
          15.8773 93.3013 0 13.0436 91.314 0 16.2706 90.2869 0 160.694 93.9734 0
          159 92.9439 0 161.83 92.1402 0 160.255 91.7647 0 162.659 94.9692 0
          164.258 92.8294 0 159.289 95.8404 0 43.1452 92.7506 0 43.4612 90.3625 0
          118.231 92.699 0 118.049 90.1743 0 167.88 94.17 0 166.938 92.1107 0
          169.018 96.076 0 165.77 95.0449 0 23.5715 92.5974 0 22.8991 95.0283 0
          21.1148 92.7369 0 20.3091 95.2811 0 24.1528 90.319 0 21.8335 89.9294 0
          144.863 97.6647 0 145.936 100 0 104.925 98.1398 0 107.139 98.0256 0
          105.66 100 0 107.903 100 0 109.073 93.8248 0 109.016 95.8786 0
          109.243 91.9163 0 164.195 96.4842 0 179.9 92.6452 0 180.161 90.1927 0
          18.445 93.032 0 19.0291 90.562 0 17.7589 95.5281 0 16.8342 97.7873 0
          19.252 97.6557 0 15.7358 100 0 17.9668 100 0 21.8917 97.5115 0
          20.7293 100 0 170.119 98.0646 0 171.053 100 0 157.978 97.9262 0
          156.914 100 0 109.548 97.9492 0 110.274 100 0 1.60438 89.9963 0
          3.09907 89.2949 0 0 90.8975 0 1.33392 88.2317 0 2.87369 87.0525 0
          0 88.8924 0 97.0414 97.7651 0 95.5927 100 0 78.5768 97.3999 0
          77.3694 100 0 54.4714 97.9434 0 55.7487 100 0 188.83 97.691 0
          187.901 100 0 198.433 96.4404 0 198.377 93.6768 0 200 95.0147 0
          200 92.5295 0 198.688 100 0 200 97.5 0 1.7157 96.7565 0
          1.3125 100 0 0 95.2013 0 0 97.5 0 63.0516 94.8563 0