<?xml version="1.0"?>
<VTKFile type="UnstructuredGrid" version="0.1" byte_order="LittleEndian">
  <UnstructuredGrid>
    <Piece NumberOfCells="160" NumberOfPoints="205">
      <PointData Scalars="S_aq">
        <DataArray type="Float32" Name="S_aq" NumberOfComponents="1" format="ascii">
          0.97 0.970035 0.97 0.97004 0.970056 0.97007 0.970081 0.970099 0.970109 0.970114 0.970228 0.970298
          0.97025 0.970325 0.970176 0.970194 0.970194 0.970235 0.970214 0.970259 0.970234 0.970283 0.970255 0.970308
          0.970275 0.970333 0.970296 0.970358 0.970316 0.970383 0.970334 0.970408 0.970341 0.970415 0.970342 0.970414
          0.970343 0.970414 0.970342 0.970414 0.970342 0.970413 0.970341 0.970412 0.97034 0.970411 0.97034 0.97041
          0.970339 0.97041 0.970339 0.970409 0.970339 0.970409 0.970338 0.970408 0.970337 0.970408 0.970337 0.970407
          0.970336 0.970406 0.970336 0.970406 0.970336 0.970406 0.970335 0.970405 0.970335 0.970406 0.970336 0.970407
          0.970335 0.970408 0.970332 0.97041 0.970322 0.970407 0.970287 0.970385 0.97 0.97 0.97 0.966741
          0.9692 0.9698 0.96899 0.969275 0.969269 0.969149 0.969684 0.969647 0.969606 0.969514 0.969275 0.968776
          0.96763 0.965134 0.960215 0.95259 0.942587 0.93056 0.916654 0.901085 0.883975 0.865404 0.845455 0.824389
          0.802296 0.779063 0.755431 0.731114 0.706657 0.682175 0.657728 0.63334 0.609593 0.585945 0.5617 0.535395
          0.504984 0.466663 0.482422 0.12 0.12 0.12 0.12 0.12 0.120001 0.120001 0.12 0.12
          0.12 0.12 0.12 0.12 0.12 0.12 0.12 0.12 0.12 0.12 0.12 0.12
          0.12 0.12 0.12 0.12 0.12 0.12 0.12 0.12 0.12 0.12 0.12 0.12
          0.12 0.12 0.12 0.12 0.12 0.12 0.12 0.12 0.12 0.12 0.12 0.12
          0.12 0.120001 0.120001 0.12 0.12 0.12 0.12 0.12 0.12 0.12 0.12 0.12
          0.12 0.12 0.12 0.12 0.12 0.12 0.12 0.12 0.12 0.12 0.12 0.12
          0.12 0.12 0.12 0.12 0.12 0.12 0.12 0.12 0.12 0.12 0.12 0.12
          0.12
        </DataArray>
        <DataArray type="Float32" Name="S_napl" NumberOfComponents="1" format="ascii">
          0 0 0 0 0 0 0 0 0 0 0 0
          0 0 0 0 0 0 0 0 0 0 0 0
          0 0 0 0 0 0 0 0 0 0 0 0
          0 0 0 0 0 0 0 0 0 0 0 0
          0 0 0 0 0 0 0 0 0 0 0 0
          0 0 0 0 0 0 0 0 0 0 0 0
          0 0 0 0 0 0 0 0 0 0 0 0
          0 0 0 0.000688086 0.000688087 0 0 0 0 0 0 0
          0 0 0 0 0 0 0 0 0 0 0 0
          0 0 0 0 0 0 0 0 0 0 0 0
          0 0 0 0 0 0 0 3.99409e-06 0.0498337 0.0498336 3.95257e-06 0
          0 0 0 0 0 0 0 0 0 0 0 0
          0 0 0 0 0 0 0 0 0 0 0 0
          0 0 0 0 0 0 0 0 0 0 0 0
          0.000553318 0.134257 0.134257 0.000553164 0 0 0 0 0 0 0 0
          0 0 0 0 0 0 0 0 0 0 0 0
          0 0 0 0 0 0 0 0 0 0 0 0
          0
        </DataArray>
        <DataArray type="Float32" Name="S_gas" NumberOfComponents="1" format="ascii">
          0.03 0.0299654 0.03 0.0299603 0.0299437 0.0299302 0.0299191 0.0299006 0.0298913 0.0298862 0.0297724 0.029702
          0.02975 0.0296752 0.029824 0.0298057 0.0298059 0.0297648 0.0297862 0.0297411 0.0297662 0.0297171 0.0297455 0.0296922
          0.0297246 0.029667 0.0297041 0.0296418 0.0296843 0.0296168 0.0296661 0.0295923 0.0296591 0.0295854 0.0296578 0.0295857
          0.0296575 0.029586 0.0296576 0.0295863 0.0296584 0.0295875 0.029659 0.0295883 0.0296596 0.0295889 0.0296601 0.0295896
          0.0296608 0.0295904 0.0296612 0.0295908 0.0296615 0.029591 0.0296623 0.0295923 0.0296626 0.0295924 0.0296632 0.0295933
          0.0296636 0.0295937 0.0296639 0.029594 0.0296642 0.0295943 0.0296647 0.0295949 0.0296646 0.0295945 0.0296645 0.0295935
          0.0296648 0.0295919 0.0296676 0.0295902 0.0296778 0.0295934 0.0297131 0.0296154 0.03 0.03 0.03 0.0332591
          0.0307998 0.0301999 0.0310104 0.0300367 0.0300428 0.030851 0.0303157 0.0303525 0.0303935 0.0304859 0.0307247 0.031224
          0.0323702 0.0348659 0.0397846 0.0474103 0.0574126 0.0694401 0.0833462 0.0989153 0.116025 0.134596 0.154545 0.175611
          0.197704 0.220937 0.244569 0.268886 0.293343 0.317825 0.342272 0.36666 0.390407 0.414055 0.4383 0.464605
          0.495016 0.533337 0.517578 0.88 0.88 0.88 0.88 0.879996 0.830166 0.830166 0.879996 0.88
          0.88 0.88 0.88 0.88 0.88 0.88 0.88 0.88 0.88 0.88 0.88 0.88
          0.88 0.88 0.88 0.88 0.88 0.88 0.88 0.88 0.88 0.88 0.88 0.88
          0.88 0.88 0.88 0.88 0.88 0.88 0.88 0.88 0.88 0.88 0.88 0.88
          0.879446 0.745742 0.745742 0.879446 0.88 0.88 0.88 0.88 0.88 0.88 0.88 0.88
          0.88 0.88 0.88 0.88 0.88 0.88 0.88 0.88 0.88 0.88 0.88 0.88
          0.88 0.88 0.88 0.88 0.88 0.88 0.88 0.88 0.88 0.88 0.88 0.88
          0.88
        </DataArray>
        <DataArray type="Float32" Name="p_aq" NumberOfComponents="1" format="ascii">
          148117 148128 123592 123611 148142 123624 148150 123632 148171 123648 148353 123840
          148354 123841 148174 123650 148157 123639 148154 123635 148149 123631 148145 123627
          148141 123622 148134 123615 148122 123604 148100 123582 148064 123546 148014 123496
          147957 123438 147896 123377 147833 123314 147770 123251 147706 123188 147643 123124
          147580 123061 147517 122998 147454 122935 147390 122872 147327 122809 147264 122746
          147201 122683 147139 122620 147076 122558 147013 122495 146950 122431 146883 122365
          146806 122288 146703 122185 146536 122019 146231 121720 145665 121140 99067.1 99093.8
          99105.4 99116.5 99112.3 99337.3 99338.1 99114.4 99123.4 99117 99112.9 99108.6 99104.1 99097.6
          99086.1 99065 99028.3 98978.2 98920.4 98859.2 98796.3 98732.9 98669.6 98606.3 98543 98480
          98417.1 98353.6 98290.8 98227.6 98164.8 98102.3 98039.7 97976.7 97914.3 97851 97784.5 97710.6
          97621.6 97510.6 97546.8 87622.4 87634.5 87637.7 87641.7 87646.3 83943.4 83944.2 87648.7 87644.9
          87642.7 87640.2 87637.8 87635.2 87632.6 87630.1 87627.6 87625.2 87622.9 87620.6 87618.3 87616.1
          87613.9 87611.8 87609.7 87607.7 87605.8 87604 87602.2 87600.6 87599.1 87597.7 87596.5 87595.4
          87594.4 87593.6 87593 87592.9 87593.7 87596.5 87603.9 87622.4 87622.4 87600 87608.3 87611.6
          87615.5 83937 83937.8 87617.9 87615 87612.7 87610.2 87607.7 87605.2 87602.6 87600.1 87597.6
          87595.2 87592.8 87590.6 87588.3 87586.1 87583.9 87581.8 87579.7 87577.7 87575.8 87573.9 87572.2
          87570.6 87569.1 87567.7 87566.4 87565.3 87564.4 87563.6 87563 87562.9 87563.6 87567.2 87569.9
          87622.4
        </DataArray>
        <DataArray type="Float32" Name="p_napl" NumberOfComponents="1" format="ascii">
          148117 148128 123592 123611 148142 123624 148150 123632 148171 123648 148353 123840
          148354 123841 148174 123650 148157 123639 148154 123635 148149 123631 148145 123627
          148141 123622 148134 123615 148122 123604 148100 123582 148064 123546 148014 123496
          147957 123438 147896 123377 147833 123314 147770 123251 147706 123188 147643 123124
          147580 123061 147517 122998 147454 122935 147390 122872 147327 122809 147264 122746
          147201 122683 147139 122620 147076 122558 147013 122495 146950 122431 146883 122365
          146806 122288 146703 122185 146536 122019 146231 121720 145665 121140 99067.1 99093.8
          99105.4 99116.5 99112.3 99337.3 99338.1 99114.4 99123.4 99117 99112.9 99108.6 99104.1 99097.6
          99086.1 99065 99028.3 98978.2 98920.4 98859.2 98796.3 98732.9 98669.6 98606.3 98543 98480
          98417.1 98353.6 98290.8 98227.6 98164.8 98102.3 98039.7 97976.7 97914.3 97851 97784.5 97710.6
          97621.6 97510.6 97546.8 87622.4 87634.5 87637.7 87641.7 87646.3 92755 92755.8 87648.7 87644.9
          87642.7 87640.2 87637.8 87635.2 87632.6 87630.1 87627.6 87625.2 87622.9 87620.6 87618.3 87616.1
          87613.9 87611.8 87609.7 87607.7 87605.8 87604 87602.2 87600.6 87599.1 87597.7 87596.5 87595.4
          87594.4 87593.6 87593 87592.9 87593.7 87596.5 87603.9 87622.4 87622.4 87600 87608.3 87611.6
          87615.5 96314.4 96315.2 87617.9 87615 87612.7 87610.2 87607.7 87605.2 87602.6 87600.1 87597.6
          87595.2 87592.8 87590.6 87588.3 87586.1 87583.9 87581.8 87579.7 87577.7 87575.8 87573.9 87572.2
          87570.6 87569.1 87567.7 87566.4 87565.3 87564.4 87563.6 87563 87562.9 87563.6 87567.2 87569.9
          87622.4
        </DataArray>
        <DataArray type="Float32" Name="p_gas" NumberOfComponents="1" format="ascii">
          149050 149060 124525 124543 149075 124556 149082 124564 149103 124579 149284 124770
          149285 124771 149105 124581 149088 124570 149085 124566 149080 124562 149076 124557
          149071 124552 149064 124545 149052 124533 149030 124512 148994 124475 148944 124425
          148887 124368 148826 124307 148763 124244 148700 124181 148636 124117 148573 124054
          148510 123991 148447 123928 148384 123865 148320 123801 148257 123738 148194 123675
          148132 123613 148069 123550 148006 123487 147943 123424 147880 123361 147813 123294
          147736 123218 147633 123115 147466 122949 147162 122650 146598 122072 100000 100052
          100045 100051 100053 100276 100277 100054 100059 100053 100049 100045 100043 100040
          100038 100035 100033 100030 100028 100026 100024 100022 100019 100017 100015 100013
          100012 100010 100008 100007 100005 100004 100003 100002 100001 100001 100000 100001
          100003 100016 100000 100000 100012 100015 100019 100024 100008 100009 100026 100023
          100020 100018 100015 100013 100010 100008 100005 100003 100000 99998.2 99995.9 99993.7
          99991.5 99989.4 99987.3 99985.3 99983.4 99981.5 99979.8 99978.2 99976.7 99975.3 99974 99972.9
          99972 99971.2 99970.6 99970.5 99971.2 99974.1 99981.5 100000 100000 99977.5 99985.9 99989.2
          99993 99978.6 99979.4 99995.3 99992.6 99990.2 99987.8 99985.3 99982.7 99980.2 99977.6 99975.1
          99972.7 99970.4 99968.1 99965.9 99963.7 99961.5 99959.4 99957.3 99955.3 99953.4 99951.5 99949.8
          99948.1 99946.6 99945.3 99944 99942.9 99942 99941.2 99940.6 99940.5 99941.2 99944.8 99947.4
          100000
        </DataArray>
        <DataArray type="Float32" Name="rho_aq" NumberOfComponents="1" format="ascii">
          999.741 999.741 999.726 999.726 999.741 999.726 999.741 999.726 999.741 999.726 999.741 999.727
          999.741 999.727 999.741 999.726 999.741 999.726 999.741 999.726 999.741 999.726 999.741 999.726
          999.741 999.726 999.741 999.726 999.741 999.726 999.741 999.726 999.741 999.726 999.741 999.726
          999.741 999.726 999.741 999.726 999.741 999.726 999.74 999.726 999.74 999.726 999.74 999.726
          999.74 999.726 999.74 999.726 999.74 999.726 999.74 999.726 999.74 999.726 999.74 999.726
          999.74 999.726 999.74 999.726 999.74 999.726 999.74 999.726 999.74 999.726 999.74 999.726
          999.74 999.725 999.74 999.725 999.74 999.725 999.74 999.725 999.739 999.725 999.712 999.712
          999.712 999.712 999.712 999.731 999.731 999.712 999.712 999.712 999.712 999.712 999.712 999.712
          999.712 999.712 999.712 999.712 999.712 999.712 999.712 999.712 999.712 999.712 999.711 999.711
          999.711 999.711 999.711 999.711 999.711 999.711 999.711 999.711 999.711 999.711 999.711 999.711
          999.711 999.711 999.711 999.706 999.706 999.706 999.708 999.726 999.724 999.724 999.726 999.707
          999.706 999.706 999.706 999.706 999.706 999.706 999.706 999.706 999.706 999.706 999.706 999.706
          999.706 999.706 999.706 999.706 999.706 999.706 999.706 999.706 999.706 999.706 999.706 999.706
          999.706 999.706 999.706 999.706 999.706 999.706 999.706 999.706 999.706 999.706 999.706 999.707
          999.726 999.724 999.724 999.726 999.707 999.706 999.706 999.706 999.706 999.706 999.706 999.706
          999.706 999.706 999.706 999.706 999.706 999.706 999.706 999.706 999.706 999.706 999.706 999.706
          999.706 999.706 999.706 999.706 999.706 999.706 999.706 999.706 999.706 999.706 999.706 999.706
          999.706
        </DataArray>
        <DataArray type="Float32" Name="rho_napl" NumberOfComponents="1" format="ascii">
          878.771 878.771 878.771 878.771 878.771 878.771 878.771 878.771 878.771 878.771 878.771 878.771
          878.771 878.771 878.771 878.771 878.771 878.771 878.771 878.771 878.771 878.771 878.771 878.771
          878.771 878.771 878.771 878.771 878.771 878.771 878.771 878.771 878.771 878.771 878.771 878.771
          878.771 878.771 878.771 878.771 878.771 878.771 878.771 878.771 878.771 878.771 878.771 878.771
          878.771 878.771 878.771 878.771 878.771 878.771 878.771 878.771 878.771 878.771 878.771 878.771
          878.771 878.771 878.771 878.771 878.771 878.771 878.771 878.771 878.771 878.771 878.771 878.771
          878.771 878.771 878.771 878.771 878.771 878.771 878.771 878.771 878.771 878.771 878.771 878.771
          878.771 878.771 878.771 878.771 878.771 878.771 878.771 878.771 878.771 878.771 878.771 878.771
          878.771 878.771 878.771 878.771 878.771 878.771 878.771 878.771 878.771 878.771 878.771 878.771
          878.771 878.771 878.771 878.771 878.771 878.771 878.771 878.771 878.771 878.771 878.771 878.771
          878.771 878.771 878.771 878.771 878.771 878.771 878.771 878.771 878.771 878.771 878.771 878.771
          878.771 878.771 878.771 878.771 878.771 878.771 878.771 878.771 878.771 878.771 878.771 878.771
          878.771 878.771 878.771 878.771 878.771 878.771 878.771 878.771 878.771 878.771 878.771 878.771
          878.771 878.771 878.771 878.771 878.771 878.771 878.771 878.771 878.771 878.771 878.771 878.771
          878.771 878.771 878.771 878.771 878.771 878.771 878.771 878.771 878.771 878.771 878.771 878.771
          878.771 878.771 878.771 878.771 878.771 878.771 878.771 878.771 878.771 878.771 878.771 878.771
          878.771 878.771 878.771 878.771 878.771 878.771 878.771 878.771 878.771 878.771 878.771 878.771
          878.771
        </DataArray>
        <DataArray type="Float32" Name="rho_gas" NumberOfComponents="1" format="ascii">
          1.8278 1.82793 1.52611 1.52633 1.8281 1.52649 1.8282 1.52659 1.82845 1.52678 1.83068 1.52918
          1.83069 1.52918 1.82848 1.5268 1.82827 1.52666 1.82823 1.52662 1.82817 1.52656 1.82812 1.5265
          1.82806 1.52644 1.82797 1.52636 1.82782 1.52621 1.82756 1.52595 1.82711 1.5255 1.8265 1.52488
          1.82579 1.52418 1.82504 1.52342 1.82427 1.52265 1.82349 1.52187 1.82271 1.52109 1.82193 1.52032
          1.82115 1.51954 1.82038 1.51876 1.8196 1.51799 1.81882 1.51721 1.81805 1.51643 1.81727 1.51566
          1.8165 1.51488 1.81573 1.51411 1.81496 1.51334 1.81418 1.51257 1.8134 1.51179 1.81258 1.51097
          1.81164 1.51003 1.81036 1.50876 1.80831 1.50672 1.80457 1.50305 1.79763 1.49594 1.22442 1.22506
          1.22497 1.22505 1.2251 1.23217 1.23218 1.22511 1.22515 1.22507 1.22502 1.22498 1.22495 1.22492
          1.22489 1.22485 1.22483 1.2248 1.22477 1.22474 1.22471 1.22469 1.22466 1.22464 1.22461 1.22459
          1.22456 1.22454 1.22452 1.2245 1.22449 1.22447 1.22446 1.22445 1.22444 1.22443 1.22443 1.22444
          1.22446 1.22462 1.22442 1.22442 1.22457 1.22462 1.22497 1.22907 1.22888 1.22888 1.2291 1.22495
          1.22467 1.22464 1.22461 1.22458 1.22455 1.22452 1.22449 1.22446 1.22443 1.2244 1.22437 1.22434
          1.22432 1.22429 1.22427 1.22424 1.22422 1.22419 1.22417 1.22415 1.22413 1.22412 1.2241 1.22409
          1.22408 1.22407 1.22406 1.22406 1.22407 1.2241 1.22419 1.22442 1.22442 1.22415 1.22427 1.22447
          1.22869 1.22851 1.22852 1.22872 1.22445 1.22432 1.22427 1.22424 1.22421 1.22418 1.22415 1.22412
          1.22409 1.22406 1.22403 1.224 1.22397 1.22395 1.22392 1.2239 1.22387 1.22385 1.22383 1.2238
          1.22378 1.22377 1.22375 1.22373 1.22372 1.22371 1.2237 1.22369 1.22369 1.2237 1.22374 1.22378
          1.22442
        </DataArray>
        <DataArray type="Float32" Name="x^H2O_aq" NumberOfComponents="1" format="ascii">
          0.999973 0.999973 0.999977 0.999977 0.999973 0.999977 0.999973 0.999977 0.999973 0.999977 0.999973 0.999977
          0.999973 0.999977 0.999973 0.999977 0.999973 0.999977 0.999973 0.999977 0.999973 0.999977 0.999973 0.999977
          0.999973 0.999977 0.999973 0.999977 0.999973 0.999977 0.999973 0.999977 0.999973 0.999977 0.999973 0.999977
          0.999973 0.999977 0.999973 0.999977 0.999973 0.999977 0.999973 0.999977 0.999973 0.999977 0.999973 0.999977
          0.999973 0.999977 0.999973 0.999977 0.999973 0.999977 0.999973 0.999977 0.999973 0.999977 0.999973 0.999977
          0.999973 0.999977 0.999973 0.999977 0.999973 0.999977 0.999973 0.999977 0.999973 0.999978 0.999973 0.999978
          0.999973 0.999978 0.999973 0.999978 0.999973 0.999978 0.999973 0.999978 0.999973 0.999978 0.999982 0.999982
          0.999982 0.999982 0.999982 0.999978 0.999978 0.999982 0.999982 0.999982 0.999982 0.999982 0.999982 0.999982
          0.999982 0.999982 0.999982 0.999982 0.999982 0.999982 0.999982 0.999982 0.999982 0.999982 0.999982 0.999982
          0.999982 0.999982 0.999982 0.999982 0.999982 0.999982 0.999982 0.999982 0.999982 0.999982 0.999982 0.999982
          0.999982 0.999982 0.999982 0.999982 0.999982 0.999982 0.999982 0.999978 0.999978 0.999978 0.999978 0.999982
          0.999982 0.999982 0.999982 0.999982 0.999982 0.999982 0.999982 0.999982 0.999982 0.999982 0.999982 0.999982
          0.999982 0.999982 0.999982 0.999982 0.999982 0.999982 0.999982 0.999982 0.999982 0.999982 0.999982 0.999982
          0.999982 0.999982 0.999982 0.999982 0.999982 0.999982 0.999982 0.999982 0.999982 0.999982 0.999982 0.999982
          0.999978 0.999978 0.999978 0.999978 0.999982 0.999982 0.999982 0.999982 0.999982 0.999982 0.999982 0.999982
          0.999982 0.999982 0.999982 0.999982 0.999982 0.999982 0.999982 0.999982 0.999982 0.999982 0.999982 0.999982
          0.999982 0.999982 0.999982 0.999982 0.999982 0.999982 0.999982 0.999982 0.999982 0.999982 0.999982 0.999982
          0.999982
        </DataArray>
        <DataArray type="Float32" Name="x^mesitylene_aq" NumberOfComponents="1" format="ascii">
          4.50629e-09 4.50282e-09 3.76482e-09 3.76216e-09 4.50206e-09 3.76064e-09 4.50028e-09 3.75909e-09 4.50026e-09 4.01389e-09 4.71233e-09 4.2464e-08
          4.70988e-09 4.24118e-08 4.49474e-09 4.0061e-09 4.49106e-09 3.74981e-09 4.48947e-09 3.748e-09 4.4877e-09 3.74625e-09 4.48584e-09 3.74438e-09
          4.48393e-09 3.74243e-09 4.48194e-09 3.74036e-09 4.47971e-09 3.73797e-09 4.47715e-09 3.73504e-09 4.47569e-09 3.73378e-09 4.4744e-09 3.73275e-09
          4.47278e-09 3.73124e-09 4.47099e-09 3.72946e-09 4.46921e-09 3.72772e-09 4.46737e-09 3.7259e-09 4.46551e-09 3.72404e-09 4.46366e-09 3.72218e-09
          4.46181e-09 3.72035e-09 4.45995e-09 3.71848e-09 4.45806e-09 3.71659e-09 4.45625e-09 3.71481e-09 4.45437e-09 3.71291e-09 4.45254e-09 3.7111e-09
          4.45068e-09 3.70925e-09 4.44882e-09 3.70738e-09 4.44696e-09 3.70552e-09 4.44511e-09 3.70367e-09 4.44311e-09 3.70164e-09 4.4409e-09 3.69933e-09
          4.43809e-09 3.69628e-09 4.43391e-09 3.69152e-09 4.42678e-09 3.68337e-09 4.41488e-09 3.6694e-09 4.43214e-09 3.69067e-09 3.02334e-09 3.02391e-09
          3.02403e-09 3.03011e-09 1.80822e-08 3.40605e-06 3.40605e-06 1.77451e-08 3.02818e-09 3.02373e-09 3.02345e-09 3.02343e-09 3.02343e-09 3.02343e-09
          3.02342e-09 3.02342e-09 3.02342e-09 3.02342e-09 3.02342e-09 3.02342e-09 3.02342e-09 3.02343e-09 3.02342e-09 3.02342e-09 3.02345e-09 3.02343e-09
          3.02342e-09 3.02347e-09 3.02341e-09 3.02344e-09 3.02343e-09 3.02341e-09 3.0234e-09 3.02341e-09 3.0234e-09 3.0234e-09 3.0234e-09 3.02342e-09
          3.02345e-09 3.02372e-09 3.02334e-09 3.02334e-09 3.76099e-09 9.78336e-09 2.437e-07 3.40605e-06 3.40605e-06 3.40605e-06 3.40605e-06 2.01356e-07
          4.60255e-09 3.74906e-09 2.98864e-09 3.02726e-09 3.0234e-09 3.02361e-09 3.02354e-09 3.02349e-09 3.02344e-09 3.0234e-09 3.02335e-09 3.02331e-09
          3.02326e-09 3.02322e-09 3.02318e-09 3.02314e-09 3.0231e-09 3.02306e-09 3.02302e-09 3.02299e-09 3.02296e-09 3.02292e-09 3.0229e-09 3.02287e-09
          3.02285e-09 3.02282e-09 3.02281e-09 3.0228e-09 3.0228e-09 3.02282e-09 3.02287e-09 3.02334e-09 3.02334e-09 3.28156e-09 2.092e-08 1.46026e-07
          3.40605e-06 3.40605e-06 3.40605e-06 3.40605e-06 9.93465e-08 1.92643e-08 2.281e-09 3.1137e-09 3.01652e-09 3.02324e-09 3.02267e-09 3.02266e-09
          3.0226e-09 3.02256e-09 3.02251e-09 3.02247e-09 3.02242e-09 3.02238e-09 3.02234e-09 3.0223e-09 3.02225e-09 3.02222e-09 3.02218e-09 3.02214e-09
          3.02211e-09 3.02208e-09 3.02205e-09 3.02202e-09 3.02199e-09 3.02197e-09 3.02195e-09 3.02194e-09 3.02193e-09 3.02193e-09 3.02198e-09 3.02186e-09
          3.02334e-09
        </DataArray>
        <DataArray type="Float32" Name="x^Air_aq" NumberOfComponents="1" format="ascii">
          2.72214e-05 2.72233e-05 2.27051e-05 2.27084e-05 2.72259e-05 2.27108e-05 2.72273e-05 2.27124e-05 2.72312e-05 2.27151e-05 2.72645e-05 2.275e-05
          2.72646e-05 2.27501e-05 2.72316e-05 2.27155e-05 2.72284e-05 2.27134e-05 2.72279e-05 2.27127e-05 2.7227e-05 2.27118e-05 2.72262e-05 2.2711e-05
          2.72253e-05 2.27101e-05 2.7224e-05 2.27089e-05 2.72218e-05 2.27067e-05 2.72178e-05 2.27026e-05 2.7211e-05 2.26959e-05 2.72019e-05 2.26867e-05
          2.71913e-05 2.26762e-05 2.71801e-05 2.26649e-05 2.71685e-05 2.26533e-05 2.71569e-05 2.26417e-05 2.71452e-05 2.263e-05 2.71335e-05 2.26184e-05
          2.71219e-05 2.26067e-05 2.71103e-05 2.25951e-05 2.70987e-05 2.25835e-05 2.7087e-05 2.25718e-05 2.70754e-05 2.25603e-05 2.70638e-05 2.25486e-05
          2.70523e-05 2.25371e-05 2.70407e-05 2.25255e-05 2.70292e-05 2.2514e-05 2.70176e-05 2.25024e-05 2.70059e-05 2.24907e-05 2.69936e-05 2.24785e-05
          2.69795e-05 2.24644e-05 2.69604e-05 2.24455e-05 2.69297e-05 2.24149e-05 2.68736e-05 2.23599e-05 2.67698e-05 2.22535e-05 1.81888e-05 1.81984e-05
          1.81971e-05 1.81982e-05 1.81985e-05 1.82189e-05 1.82191e-05 1.81987e-05 1.81997e-05 1.81985e-05 1.81978e-05 1.81972e-05 1.81967e-05 1.81962e-05
          1.81958e-05 1.81953e-05 1.81949e-05 1.81944e-05 1.8194e-05 1.81936e-05 1.81932e-05 1.81928e-05 1.81924e-05 1.8192e-05 1.81917e-05 1.81913e-05
          1.8191e-05 1.81906e-05 1.81903e-05 1.81901e-05 1.81898e-05 1.81896e-05 1.81894e-05 1.81892e-05 1.81891e-05 1.81889e-05 1.81889e-05 1.81891e-05
          1.81894e-05 1.81918e-05 1.81888e-05 1.81888e-05 1.81911e-05 1.81916e-05 1.81909e-05 1.81725e-05 1.81696e-05 1.81698e-05 1.81729e-05 1.81918e-05
          1.81926e-05 1.81921e-05 1.81917e-05 1.81912e-05 1.81907e-05 1.81902e-05 1.81898e-05 1.81893e-05 1.81889e-05 1.81885e-05 1.81881e-05 1.81877e-05
          1.81873e-05 1.81869e-05 1.81865e-05 1.81861e-05 1.81858e-05 1.81854e-05 1.81851e-05 1.81848e-05 1.81845e-05 1.81843e-05 1.8184e-05 1.81838e-05
          1.81837e-05 1.81835e-05 1.81834e-05 1.81834e-05 1.81835e-05 1.81841e-05 1.81854e-05 1.81888e-05 1.81888e-05 1.81847e-05 1.81861e-05 1.8186e-05
          1.81668e-05 1.81642e-05 1.81643e-05 1.81672e-05 1.81869e-05 1.81869e-05 1.81866e-05 1.81861e-05 1.81856e-05 1.81852e-05 1.81847e-05 1.81843e-05
          1.81838e-05 1.81834e-05 1.8183e-05 1.81825e-05 1.81821e-05 1.81817e-05 1.81813e-05 1.8181e-05 1.81806e-05 1.81802e-05 1.81799e-05 1.81796e-05
          1.81793e-05 1.8179e-05 1.81787e-05 1.81785e-05 1.81783e-05 1.81781e-05 1.8178e-05 1.81779e-05 1.81779e-05 1.8178e-05 1.81787e-05 1.81791e-05
          1.81888e-05
        </DataArray>
        <DataArray type="Float32" Name="x^H2O_napl" NumberOfComponents="1" format="ascii">
          1e-10 1e-10 1e-10 1e-10 1e-10 1e-10 1e-10 1e-10 1e-10 1e-10 1e-10 1e-10
          1e-10 1e-10 1e-10 1e-10 1e-10 1e-10 1e-10 1e-10 1e-10 1e-10 1e-10 1e-10
          1e-10 1e-10 1e-10 1e-10 1e-10 1e-10 1e-10 1e-10 1e-10 1e-10 1e-10 1e-10
          1e-10 1e-10 1e-10 1e-10 1e-10 1e-10 1e-10 1e-10 1e-10 1e-10 1e-10 1e-10
          1e-10 1e-10 1e-10 1e-10 1e-10 1e-10 1e-10 1e-10 1e-10 1e-10 1e-10 1e-10
          1e-10 1e-10 1e-10 1e-10 1e-10 1e-10 1e-10 1e-10 1e-10 1e-10 1e-10 1e-10
          1e-10 1e-10 1e-10 1e-10 1e-10 1e-10 1e-10 1e-10 1e-10 1e-10 1e-10 1e-10
          1e-10 1e-10 1e-10 1e-10 1e-10 1e-10 1e-10 1e-10 1e-10 1e-10 1e-10 1e-10
          1e-10 1e-10 1e-10 1e-10 1e-10 1e-10 1e-10 1e-10 1e-10 1e-10 1e-10 1e-10
          1e-10 1e-10 1e-10 1e-10 1e-10 1e-10 1e-10 1e-10 1e-10 1e-10 1e-10 1e-10
          1e-10 1e-10 1e-10 1e-10 1e-10 1e-10 1e-10 1e-10 1e-10 1e-10 1e-10 1e-10
          1e-10 1e-10 1e-10 1e-10 1e-10 1e-10 1e-10 1e-10 1e-10 1e-10 1e-10 1e-10
          1e-10 1e-10 1e-10 1e-10 1e-10 1e-10 1e-10 1e-10 1e-10 1e-10 1e-10 1e-10
          1e-10 1e-10 1e-10 1e-10 1e-10 1e-10 1e-10 1e-10 1e-10 1e-10 1e-10 1e-10
          1e-10 1e-10 1e-10 1e-10 1e-10 1e-10 1e-10 1e-10 1e-10 1e-10 1e-10 1e-10
          1e-10 1e-10 1e-10 1e-10 1e-10 1e-10 1e-10 1e-10 1e-10 1e-10 1e-10 1e-10
          1e-10 1e-10 1e-10 1e-10 1e-10 1e-10 1e-10 1e-10 1e-10 1e-10 1e-10 1e-10
          1e-10
        </DataArray>
        <DataArray type="Float32" Name="x^mesitylene_napl" NumberOfComponents="1" format="ascii">
          0.00132302 0.00132201 0.00110533 0.00110455 0.00132178 0.00110411 0.00132126 0.00110365 0.00132125 0.00117846 0.00138352 0.0124672
          0.0013828 0.0124519 0.00131963 0.00117617 0.00131855 0.00110093 0.00131809 0.00110039 0.00131757 0.00109988 0.00131702 0.00109933
          0.00131646 0.00109876 0.00131587 0.00109815 0.00131522 0.00109745 0.00131447 0.00109659 0.00131404 0.00109622 0.00131366 0.00109592
          0.00131319 0.00109547 0.00131266 0.00109495 0.00131214 0.00109444 0.0013116 0.0010939 0.00131105 0.00109336 0.00131051 0.00109281
          0.00130997 0.00109228 0.00130942 0.00109173 0.00130887 0.00109117 0.00130833 0.00109065 0.00130778 0.00109009 0.00130724 0.00108956
          0.0013067 0.00108902 0.00130615 0.00108847 0.0013056 0.00108792 0.00130506 0.00108738 0.00130448 0.00108678 0.00130382 0.00108611
          0.001303 0.00108521 0.00130177 0.00108381 0.00129968 0.00108142 0.00129619 0.00107732 0.00130125 0.00108356 0.000887638 0.000887804
          0.00088784 0.000889626 0.00530883 1 1 0.00520989 0.000889058 0.000887753 0.00088767 0.000887663 0.000887663 0.000887662
          0.000887662 0.000887662 0.000887662 0.000887662 0.000887662 0.000887662 0.000887662 0.000887664 0.000887662 0.000887662 0.000887669 0.000887663
          0.00088766 0.000887676 0.000887659 0.000887666 0.000887663 0.000887657 0.000887656 0.000887659 0.000887655 0.000887655 0.000887656 0.000887661
          0.000887669 0.000887749 0.000887638 0.000887638 0.00110421 0.00287235 0.0715491 1 1 1 1 0.059117
          0.00135129 0.0011007 0.000877451 0.000888788 0.000887655 0.000887715 0.000887695 0.000887682 0.000887668 0.000887655 0.000887641 0.000887628
          0.000887615 0.000887603 0.00088759 0.000887578 0.000887567 0.000887555 0.000887545 0.000887534 0.000887525 0.000887515 0.000887507 0.000887499
          0.000887492 0.000887486 0.000887481 0.000887478 0.00088748 0.000887485 0.0008875 0.000887638 0.000887638 0.000963451 0.00614201 0.0428724
          1 1 1 1 0.0291676 0.00565589 0.000669689 0.000914168 0.000885636 0.000887608 0.00088744 0.000887436
          0.000887422 0.000887408 0.000887395 0.000887381 0.000887368 0.000887355 0.000887343 0.000887331 0.000887319 0.000887307 0.000887296 0.000887286
          0.000887276 0.000887266 0.000887257 0.000887249 0.000887242 0.000887236 0.00088723 0.000887225 0.000887224 0.000887225 0.000887238 0.000887202
          0.000887638
        </DataArray>
        <DataArray type="Float32" Name="x^Air_napl" NumberOfComponents="1" format="ascii">
          1e-10 1e-10 1e-10 1e-10 1e-10 1e-10 1e-10 1e-10 1e-10 1e-10 1e-10 1e-10
          1e-10 1e-10 1e-10 1e-10 1e-10 1e-10 1e-10 1e-10 1e-10 1e-10 1e-10 1e-10
          1e-10 1e-10 1e-10 1e-10 1e-10 1e-10 1e-10 1e-10 1e-10 1e-10 1e-10 1e-10
          1e-10 1e-10 1e-10 1e-10 1e-10 1e-10 1e-10 1e-10 1e-10 1e-10 1e-10 1e-10
          1e-10 1e-10 1e-10 1e-10 1e-10 1e-10 1e-10 1e-10 1e-10 1e-10 1e-10 1e-10
          1e-10 1e-10 1e-10 1e-10 1e-10 1e-10 1e-10 1e-10 1e-10 1e-10 1e-10 1e-10
          1e-10 1e-10 1e-10 1e-10 1e-10 1e-10 1e-10 1e-10 1e-10 1e-10 1e-10 1e-10
          1e-10 1e-10 1e-10 1e-10 1e-10 1e-10 1e-10 1e-10 1e-10 1e-10 1e-10 1e-10
          1e-10 1e-10 1e-10 1e-10 1e-10 1e-10 1e-10 1e-10 1e-10 1e-10 1e-10 1e-10
          1e-10 1e-10 1e-10 1e-10 1e-10 1e-10 1e-10 1e-10 1e-10 1e-10 1e-10 1e-10
          1e-10 1e-10 1e-10 1e-10 1e-10 1e-10 1e-10 1e-10 1e-10 1e-10 1e-10 1e-10
          1e-10 1e-10 1e-10 1e-10 1e-10 1e-10 1e-10 1e-10 1e-10 1e-10 1e-10 1e-10
          1e-10 1e-10 1e-10 1e-10 1e-10 1e-10 1e-10 1e-10 1e-10 1e-10 1e-10 1e-10
          1e-10 1e-10 1e-10 1e-10 1e-10 1e-10 1e-10 1e-10 1e-10 1e-10 1e-10 1e-10
          1e-10 1e-10 1e-10 1e-10 1e-10 1e-10 1e-10 1e-10 1e-10 1e-10 1e-10 1e-10
          1e-10 1e-10 1e-10 1e-10 1e-10 1e-10 1e-10 1e-10 1e-10 1e-10 1e-10 1e-10
          1e-10 1e-10 1e-10 1e-10 1e-10 1e-10 1e-10 1e-10 1e-10 1e-10 1e-10 1e-10
          1e-10
        </DataArray>
        <DataArray type="Float32" Name="x^H2O_gas" NumberOfComponents="1" format="ascii">
          0.00824008 0.0082395 0.00986295 0.00986152 0.00823871 0.00986049 0.00823829 0.00985983 0.00823713 0.00985864 0.00822714 0.00984356
          0.00822711 0.00984352 0.00823703 0.0098585 0.00823796 0.00985938 0.00823814 0.00985968 0.0082384 0.00986006 0.00823864 0.00986041
          0.00823891 0.00986079 0.00823929 0.00986134 0.00823996 0.00986228 0.00824116 0.00986401 0.00824319 0.00986691 0.00824593 0.00987085
          0.00824911 0.00987542 0.0082525 0.00988027 0.00825598 0.00988527 0.0082595 0.00989031 0.00826301 0.00989535 0.00826653 0.0099004
          0.00827006 0.00990545 0.00827357 0.00991049 0.00827708 0.00991553 0.00828062 0.00992061 0.00828413 0.00992565 0.00828766 0.00993071
          0.00829117 0.00993576 0.00829468 0.00994079 0.00829819 0.00994584 0.00830172 0.00995091 0.00830529 0.00995603 0.00830903 0.00996141