<?xml version="1.0"?>
<VTKFile type="UnstructuredGrid" version="0.1" byte_order="LittleEndian">
  <UnstructuredGrid>
    <Piece NumberOfCells="500" NumberOfPoints="561">
      <CellData Scalars="sw">
        <DataArray type="Float32" Name="sw" NumberOfComponents="1" format="ascii">
          0.996755 0.998106 0.998109 0.99811 0.99811 0.998111 0.998111 0.998112 0.998112 0.998113 0.998113 0.998113
          0.998114 0.998114 0.998114 0.998114 0.998114 0.998115 0.998115 0.998115 0.998115 0.998115 0.998115 0.998115
          0.998115 0.998115 0.998115 0.998115 0.998116 0.998116 0.998116 0.998116 0.998116 0.998116 0.998116 0.998116
          0.998116 0.998117 0.998117 0.998117 0.998117 0.998117 0.998117 0.998116 0.998116 0.998116 0.998116 0.998116
          0.998114 0.997126 0.994834 0.996588 0.99659 0.996591 0.996592 0.996593 0.996594 0.996595 0.996596 0.996596
          0.996597 0.996598 0.996598 0.996599 0.996599 0.996599 0.9966 0.9966 0.9966 0.9966 0.996601 0.996601
          0.996601 0.996601 0.996601 0.996601 0.996602 0.996602 0.996602 0.996602 0.996603 0.996603 0.996603 0.996603
          0.996603 0.996604 0.996604 0.996604 0.996604 0.996604 0.996604 0.996604 0.996604 0.996604 0.996603 0.996603
          0.996602 0.996602 0.996601 0.995328 0.99296 0.99491 0.994907 0.994907 0.994909 0.994911 0.994912 0.994914
          0.994915 0.994916 0.994917 0.994918 0.994919 0.99492 0.99492 0.994921 0.994922 0.994922 0.994922 0.994923
          0.994923 0.994923 0.994923 0.994924 0.994924 0.994924 0.994925 0.994925 0.994925 0.994926 0.994926 0.994927
          0.994927 0.994927 0.994928 0.994928 0.994928 0.994929 0.994929 0.994929 0.994929 0.994929 0.994929 0.994928
          0.994928 0.994927 0.994926 0.994927 0.99493 0.993528 0.990562 0.992235 0.992165 0.992158 0.99216 0.992163
          0.992166 0.992168 0.99217 0.992172 0.992173 0.992175 0.992176 0.992177 0.992179 0.992179 0.99218 0.992181
          0.992182 0.992182 0.992182 0.992183 0.992183 0.992184 0.992184 0.992185 0.992185 0.992186 0.992186 0.992187
          0.992187 0.992188 0.992189 0.992189 0.99219 0.99219 0.992191 0.992191 0.992191 0.992191 0.992191 0.992191
          0.992191 0.99219 0.992189 0.992188 0.992187 0.992192 0.992245 0.991073 0.906701 0.872051 0.868608 0.868219
          0.868166 0.868149 0.868135 0.868121 0.868106 0.868092 0.868077 0.868062 0.868047 0.868031 0.868013 0.867972
          0.867954 0.867941 0.867951 0.867938 0.867922 0.867906 0.867891 0.867875 0.867859 0.867844 0.867829 0.867814
          0.867799 0.867785 0.867769 0.867755 0.86774 0.867725 0.86771 0.867695 0.867681 0.867666 0.867651 0.867636
          0.867621 0.867605 0.867589 0.867573 0.867556 0.867541 0.867552 0.867812 0.870316 0.894652 0.177669 0.175959
          0.174383 0.172873 0.171424 0.170036 0.168649 0.167382 0.166116 0.16491 0.163735 0.16262 0.161536 0.160452
          0.159459 0.158466 0.157533 0.156602 0.155731 0.154861 0.15402 0.15324 0.15246 0.151711 0.150962 0.150273
          0.149585 0.148927 0.148284 0.147671 0.147059 0.146477 0.14591 0.145359 0.144823 0.144302 0.143796 0.14332
          0.142845 0.142384 0.141925 0.141495 0.14108 0.140665 0.140266 0.139881 0.139497 0.139129 0.138779 0.138491
          0.12 0.12 0.12 0.12 0.12 0.12 0.12 0.12 0.12 0.12 0.12 0.12
          0.12 0.12 0.12 0.12 0.12 0.12 0.12 0.12 0.12 0.12 0.12 0.12
          0.12 0.12 0.12 0.12 0.12 0.12 0.12 0.12 0.12 0.12 0.12 0.12
          0.12 0.12 0.12 0.12 0.12 0.12 0.12 0.12 0.12 0.12 0.12 0.12
          0.12 0.12 0.12 0.12 0.12 0.12 0.12 0.12 0.12 0.12 0.12 0.12
          0.12 0.12 0.12 0.12 0.12 0.12 0.12 0.12 0.12 0.12 0.12 0.12
          0.12 0.12 0.12 0.12 0.12 0.12 0.12 0.12 0.12 0.12 0.12 0.12
          0.12 0.12 0.12 0.12 0.12 0.12 0.12 0.12 0.12 0.12 0.12 0.12
          0.12 0.12 0.12 0.12 0.12 0.12 0.12 0.12 0.12 0.12 0.12 0.12
          0.12 0.12 0.12 0.12 0.12 0.12 0.12 0.12 0.12 0.12 0.12 0.12
          0.12 0.12 0.12 0.12 0.12 0.12 0.12 0.12 0.12 0.12 0.12 0.12
          0.12 0.12 0.12 0.12 0.12 0.12 0.12 0.12 0.12 0.12 0.12 0.12
          0.12 0.12 0.12 0.12 0.12 0.12 0.12 0.12 0.12 0.12 0.12 0.12
          0.12 0.12 0.12 0.12 0.12 0.12 0.12 0.12 0.12 0.12 0.12 0.12
          0.12 0.12 0.12 0.12 0.12 0.12 0.12 0.12 0.12 0.12 0.12 0.12
          0.12 0.12 0.12 0.12 0.12 0.12 0.12 0.12 0.12 0.12 0.12 0.12
          0.12 0.12 0.12 0.12 0.12 0.12 0.12 0.12
        </DataArray>
        <DataArray type="Float32" Name="sn" NumberOfComponents="1" format="ascii">
          0 0 0 0 0 0 0 0 0 0 0 0
          0 0 0 0 0 0 0 0 0 0 0 0
          0 0 0 0 0 0 0 0 0 0 0 0
          0 0 0 0 0 0 0 0 0 0 0 0
          0 0 0 0 0 0 0 0 0 0 0 0
          0 0 0 0 0 0 0 0 0 0 0 0
          0 0 0 0 0 0 0 0 0 0 0 0
          0 0 0 0 0 0 0 0 0 0 0 0
          0 0 0 0 0 0 0 0 0 0 0 0
          0 0 0 0 0 0 0 0 0 0 0 0
          0 0 0 0 0 0 0 0 0 0 0 0
          0 0 0 0 0 0 0 0 0 0 0 0
          0 0 0 0 0 0 0 0 0 0 0 0
          0 0 0 0 0 0 0 0 0 0 0 0
          0 0 0 0 0 0 0 0 0 0 0 0
          0 0 0 0 0 0 0 0 0 0 0 0
          0 0 0 0 0 0 0 0 0 0 0 0
          0 0 0 0 0 0 0 0 0 0 0 0
          0 0 0 0 0 0 0 0 0 0 0 0
          0 0 0 0 0 0 0 0 0 0 0 0
          0 0 0 0 0 0 0 0 0 0 0 0
          0 0 0 0 0 0 0 0 0 0 0 0
          0 0 0 0 0 0 0 0 0 0 0 0
          0 0 0 0 0 0 0 0 0 0 0 0
          0 0 0 0 0 0 0 0 0 0 0 0
          0 0 0 0 0 0 0 0 0 0 0 0
          0 0 0 0 0 0 0 0 0 0 0 0
          0 0 0 0 0 0 0 0 0 0 0 0
          0 0 0 0 0 0 0 0 0 0 0 0
          0 0 0 0 0 0 0 0 0 0 0 0
          0 0 0 0 0 7.43989e-25 7.27761e-25 7.43936e-25 0 0 0 0
          0 0 0 0 0 0 0 0 0 0 0 0
          0 0 0 0 0 0 0 0 0 0 0 0
          0 0 0 0 0 0 0 0 0 0 0 0
          0 0 0 0 0 0 1.4438e-29 9.30937e-08 9.30937e-08 9.30937e-08 1.39929e-29 0
          0 0 0 0 0 0 0 0 0 0 0 0
          0 0 0 0 0 0 0 0 0 0 0 0
          0 0 0 0 0 0 0 0 0 0 0 0
          0 0 0 0 0 0 0 0 4.59174e-11 0.0102415 0.0102415 0.0102415
          4.59187e-11 0 0 0 0 0 0 0 0 0 0 0
          0 0 0 0 0 0 0 0 0 0 0 0
          0 0 0 0 0 0 0 0
        </DataArray>
        <DataArray type="Float32" Name="sg" NumberOfComponents="1" format="ascii">
          0.00324502 0.00189369 0.00189058 0.00189009 0.00188956 0.00188903 0.00188854 0.00188809 0.0018877 0.00188735 0.00188703 0.00188674
          0.00188647 0.00188621 0.00188597 0.00188575 0.00188558 0.00188545 0.00188537 0.00188529 0.00188522 0.00188514 0.00188506 0.00188496
          0.00188486 0.00188475 0.00188464 0.00188453 0.00188441 0.00188429 0.00188416 0.00188404 0.00188392 0.00188381 0.0018837 0.0018836
          0.0018835 0.00188343 0.00188337 0.00188334 0.00188333 0.00188337 0.00188345 0.00188358 0.00188376 0.00188398 0.00188422 0.00188444
          0.00188621 0.00287406 0.00516585 0.00341204 0.00340956 0.00340897 0.00340795 0.00340692 0.00340596 0.0034051 0.00340433 0.00340365
          0.00340304 0.00340247 0.00340195 0.00340145 0.00340098 0.00340056 0.00340022 0.00339997 0.0033998 0.00339965 0.00339951 0.00339936
          0.00339919 0.00339901 0.00339881 0.0033986 0.00339838 0.00339816 0.00339792 0.00339769 0.00339745 0.00339721 0.00339698 0.00339675
          0.00339654 0.00339634 0.00339616 0.003396 0.00339589 0.00339582 0.00339582 0.00339589 0.00339604 0.00339629 0.00339664 0.00339707
          0.00339751 0.00339768 0.00339854 0.00467201 0.00703961 0.00509016 0.00509295 0.00509259 0.00509097 0.00508928 0.00508771 0.00508631
          0.00508507 0.00508395 0.00508295 0.00508203 0.00508117 0.00508035 0.00507958 0.00507892 0.00507837 0.00507796 0.00507764 0.0050774
          0.00507716 0.00507691 0.00507663 0.00507633 0.005076 0.00507565 0.00507528 0.0050749 0.00507452 0.00507412 0.00507373 0.00507334
          0.00507295 0.00507257 0.00507221 0.00507188 0.00507157 0.00507131 0.00507112 0.005071 0.00507097 0.00507107 0.00507131 0.00507171
          0.00507227 0.00507296 0.00507364 0.00507346 0.00507 0.00647197 0.00943837 0.00776523 0.00783517 0.00784174 0.00783977 0.00783701
          0.00783443 0.00783212 0.00783009 0.0078283 0.00782669 0.00782522 0.00782384 0.00782254 0.00782135 0.00782075 0.00781992 0.00781927
          0.00781837 0.007818 0.00781769 0.00781733 0.00781694 0.00781649 0.00781601 0.00781549 0.00781494 0.00781437 0.00781378 0.00781318
          0.00781258 0.00781198 0.00781139 0.00781082 0.00781028 0.00780977 0.00780932 0.00780893 0.00780866 0.00780851 0.00780853 0.00780876
          0.00780922 0.00780997 0.00781101 0.00781224 0.00781297 0.00780757 0.00775499 0.00892655 0.0932989 0.127949 0.131392 0.131781
          0.131834 0.131851 0.131865 0.131879 0.131894 0.131908 0.131923 0.131938 0.131953 0.131969 0.131987 0.132028
          0.132046 0.132059 0.132049 0.132062 0.132078 0.132094 0.132109 0.132125 0.132141 0.132156 0.132171 0.132186
          0.132201 0.132215 0.132231 0.132245 0.13226 0.132275 0.13229 0.132305 0.132319 0.132334 0.132349 0.132364
          0.132379 0.132395 0.132411 0.132427 0.132444 0.132459 0.132448 0.132188 0.129684 0.105348 0.822331 0.824041
          0.825617 0.827127 0.828576 0.829964 0.831351 0.832618 0.833884 0.83509 0.836265 0.83738 0.838464 0.839548
          0.840541 0.841534 0.842467 0.843398 0.844269 0.845139 0.84598 0.84676 0.84754 0.848289 0.849038 0.849727
          0.850415 0.851073 0.851716 0.852329 0.852941 0.853523 0.85409 0.854641 0.855177 0.855698 0.856204 0.85668
          0.857155 0.857616 0.858075 0.858505 0.85892 0.859335 0.859734 0.860119 0.860503 0.860871 0.861221 0.861509
          0.88 0.88 0.88 0.88 0.88 0.88 0.88 0.88 0.88 0.88 0.88 0.88
          0.88 0.88 0.88 0.88 0.88 0.88 0.88 0.88 0.88 0.88 0.88 0.88
          0.88 0.88 0.88 0.88 0.88 0.88 0.88 0.88 0.88 0.88 0.88 0.88
          0.88 0.88 0.88 0.88 0.88 0.88 0.88 0.88 0.88 0.88 0.88 0.88
          0.88 0.88 0.88 0.88 0.88 0.88 0.88 0.88 0.88 0.88 0.88 0.88
          0.88 0.88 0.88 0.88 0.88 0.88 0.88 0.88 0.88 0.88 0.88 0.88
          0.88 0.88 0.88 0.88 0.88 0.88 0.88 0.88 0.88 0.88 0.88 0.88
          0.88 0.88 0.88 0.88 0.88 0.88 0.88 0.88 0.88 0.88 0.88 0.88
          0.88 0.88 0.88 0.88 0.88 0.88 0.88 0.88 0.88 0.88 0.88 0.88
          0.88 0.88 0.88 0.88 0.88 0.88 0.88 0.88 0.88 0.88 0.88 0.88
          0.88 0.88 0.88 0.88 0.88 0.88 0.88 0.88 0.88 0.88 0.88 0.88
          0.88 0.88 0.88 0.88 0.88 0.88 0.88 0.88 0.88 0.88 0.88 0.88
          0.88 0.88 0.88 0.88 0.88 0.88 0.88 0.88 0.88 0.88 0.88 0.88
          0.88 0.88 0.88 0.88 0.88 0.88 0.88 0.88 0.88 0.869758 0.869758 0.869758
          0.88 0.88 0.88 0.88 0.88 0.88 0.88 0.88 0.88 0.88 0.88 0.88
          0.88 0.88 0.88 0.88 0.88 0.88 0.88 0.88 0.88 0.88 0.88 0.88
          0.88 0.88 0.88 0.88 0.88 0.88 0.88 0.88
        </DataArray>
        <DataArray type="Float32" Name="pw" NumberOfComponents="1" format="ascii">
          138123 136826 136746 136811 136882 136943 136993 137032 137063 137088 137108 137126
          137142 137157 137173 137187 137193 137188 137174 137161 137149 137140 137132 137125
          137120 137115 137111 137108 137105 137102 137099 137097 137094 137090 137086 137082
          137076 137068 137059 137046 137029 137007 136979 136942 136897 136840 136773 136706
          136731 137518 128285 127053 126984 127051 127122 127183 127232 127272 127303 127328
          127348 127365 127381 127396 127412 127427 127432 127428 127414 127400 127389 127379
          127371 127364 127359 127354 127351 127347 127344 127341 127339 127336 127333 127330
          127326 127321 127315 127308 127298 127285 127268 127247 127218 127182 127136 127079
          127012 126944 126962 127710 118450 117357 117309 117379 117450 117511 117560 117600
          117631 117655 117676 117693 117709 117724 117740 117755 117760 117755 117741 117728
          117716 117707 117699 117692 117686 117682 117678 117675 117672 117669 117666 117663
          117660 117657 117653 117648 117643 117635 117625 117612 117596 117574 117546 117509
          117463 117407 117339 117270 117274 117938 108655 107790 107774 107847 107919 107980
          108029 108068 108099 108124 108144 108161 108177 108192 108207 108223 108228 108223
          108209 108195 108184 108174 108166 108159 108154 108149 108145 108142 108139 108136
          108133 108130 108127 108124 108120 108115 108109 108102 108092 108079 108063 108041
          108012 107976 107930 107874 107806 107734 107718 108245 99032.3 98879.2 98963.5 99049
          99122.3 99182.6 99231.2 99269.9 99300.5 99324.9 99344.9 99361.9 99377.4 99392.4 99407.9 99423.9
          99429.5 99424.2 99408.9 99395.2 99383.6 99373.8 99365.8 99359.1 99353.5 99348.9 99344.9 99341.4
          99338.3 99335.4 99332.6 99329.7 99326.6 99323.2 99319.2 99314.5 99308.5 99300.9 99291.1 99278.3
          99261.6 99239.9 99211.7 99175.7 99130.1 99073.6 99005 98924.8 98841.9 98889.8 95200.7 95265.3
          95317.5 95356.2 95381.3 95393.7 95392.6 95384.3 95366.2 95342.6 95314.1 95283.6 95251.1 95216.7
          95185.2 95152.9 95111.4 95057.5 94995 94932.8 94872.8 94816.7 94760.9 94706.9 94652.5 94601.5
          94549.9 94499.5 94449.1 94399.8 94349.2 94299.6 94249.7 94199.4 94148.6 94096.9 94044.1 93991.3
          93935 93876 93811.9 93744.6 93671.3 93588.9 93497.6 93395.8 93280.8 93153.7 93015.1 92870
          87735.8 87853.8 87955 88042.3 88115.8 88176.2 88224.9 88263.7 88294.4 88318.9 88338.9 88356
          88371.6 88386.7 88402.2 88418.7 88424.3 88419.1 88403.5 88389.9 88378.3 88368.6 88360.5 88353.9
          88348.4 88343.8 88339.9 88336.4 88333.4 88330.5 88327.7 88324.9 88321.9 88318.5 88314.6 88309.8
          88303.9 88296.4 88286.6 88273.9 88257.2 88235.5 88207.3 88171.3 88125.8 88069.3 88000.6 87919.2
          87824.8 87716 87722.2 87841.3 87942.7 88030 88103.5 88163.9 88212.6 88251.3 88282 88306.6
          88326.6 88343.7 88359.2 88374.3 88389.9 88406.6 88412.3 88407 88391.2 88377.5 88365.9 88356.2
          88348.2 88341.6 88336.1 88331.5 88327.5 88324.1 88321 88318.2 88315.4 88312.6 88309.6 88306.2
          88302.3 88297.5 88291.6 88284 88274.3 88261.5 88244.9 88223.2 88195 88159 88113.5 88057
          87988.4 87906.9 87812.4 87703.2 87709.4 87829 87930.4 88017.8 88091.2 88151.6 88200.3 88239.1
          88269.8 88294.3 88314.3 88331.4 88347 88362.1 88377.7 88394.7 88400.4 88395.1 88378.9 88365.2
          88353.7 88344 88335.9 88329.3 88323.8 88319.2 88315.3 88311.9 88308.8 88305.9 88303.1 88300.3
          88297.3 88293.9 88290 88285.3 88279.3 88271.8 88262 88249.3 88232.6 88210.9 88182.8 88146.7
          88101.2 88044.8 87976.1 87894.6 87800.2 87690.8 87697 87816.8 87918.3 88005.6 88079 88139.4
          88188.1 88226.9 88257.6 88282.1 88302.1 88319.2 88334.8 88349.8 88365.4 87092.7 87098.3 87093.1
          88366.7 88353 88341.4 88331.8 88323.7 88317.1 88311.6 88307 88303.1 88299.6 88296.6 88293.7
          88290.9 88288.1 88285.1 88281.7 88277.8 88273.1 88267.1 88259.6 88249.8 88237.1 88220.4 88198.7
          88170.6 88134.5 88089 88032.6 87964 87882.5 87788 87678.8
        </DataArray>
        <DataArray type="Float32" Name="pn" NumberOfComponents="1" format="ascii">
          138123 136826 136746 136811 136882 136943 136993 137032 137063 137088 137108 137126
          137142 137157 137173 137187 137193 137188 137174 137161 137149 137140 137132 137125
          137120 137115 137111 137108 137105 137102 137099 137097 137094 137090 137086 137082
          137076 137068 137059 137046 137029 137007 136979 136942 136897 136840 136773 136706
          136731 137518 128285 127053 126984 127051 127122 127183 127232 127272 127303 127328
          127348 127365 127381 127396 127412 127427 127432 127428 127414 127400 127389 127379
          127371 127364 127359 127354 127351 127347 127344 127341 127339 127336 127333 127330
          127326 127321 127315 127308 127298 127285 127268 127247 127218 127182 127136 127079
          127012 126944 126962 127710 118450 117357 117309 117379 117450 117511 117560 117600
          117631 117655 117676 117693 117709 117724 117740 117755 117760 117755 117741 117728
          117716 117707 117699 117692 117686 117682 117678 117675 117672 117669 117666 117663
          117660 117657 117653 117648 117643 117635 117625 117612 117596 117574 117546 117509
          117463 117407 117339 117270 117274 117938 108655 107790 107774 107847 107919 107980
          108029 108068 108099 108124 108144 108161 108177 108192 108207 108223 108228 108223
          108209 108195 108184 108174 108166 108159 108154 108149 108145 108142 108139 108136
          108133 108130 108127 108124 108120 108115 108109 108102 108092 108079 108063 108041
          108012 107976 107930 107874 107806 107734 107718 108245 99032.3 98879.2 98963.5 99049
          99122.3 99182.6 99231.2 99269.9 99300.5 99324.9 99344.9 99361.9 99377.4 99392.4 99407.9 99423.9
          99429.5 99424.2 99408.9 99395.2 99383.6 99373.8 99365.8 99359.1 99353.5 99348.9 99344.9 99341.4
          99338.3 99335.4 99332.6 99329.7 99326.6 99323.2 99319.2 99314.5 99308.5 99300.9 99291.1 99278.3
          99261.6 99239.9 99211.7 99175.7 99130.1 99073.6 99005 98924.8 98841.9 98889.8 95200.7 95265.3
          95317.5 95356.2 95381.3 95393.7 95392.6 95384.3 95366.2 95342.6 95314.1 95283.6 95251.1 95216.7
          95185.2 95152.9 95111.4 95057.5 94995 94932.8 94872.8 94816.7 94760.9 94706.9 94652.5 94601.5
          94549.9 94499.5 94449.1 94399.8 94349.2 94299.6 94249.7 94199.4 94148.6 94096.9 94044.1 93991.3
          93935 93876 93811.9 93744.6 93671.3 93588.9 93497.6 93395.8 93280.8 93153.7 93015.1 92870
          87735.8 87853.8 87955 88042.3 88115.8 88176.2 88224.9 88263.7 88294.4 88318.9 88338.9 88356
          88371.6 88386.7 88402.2 88418.7 88424.3 88419.1 88403.5 88389.9 88378.3 88368.6 88360.5 88353.9
          88348.4 88343.8 88339.9 88336.4 88333.4 88330.5 88327.7 88324.9 88321.9 88318.5 88314.6 88309.8
          88303.9 88296.4 88286.6 88273.9 88257.2 88235.5 88207.3 88171.3 88125.8 88069.3 88000.6 87919.2
          87824.8 87716 87722.2 87841.3 87942.7 88030 88103.5 88163.9 88212.6 88251.3 88282 88306.6
          88326.6 88343.7 88359.2 88374.3 88389.9 88406.6 88412.3 88407 88391.2 88377.5 88365.9 88356.2
          88348.2 88341.6 88336.1 88331.5 88327.5 88324.1 88321 88318.2 88315.4 88312.6 88309.6 88306.2
          88302.3 88297.5 88291.6 88284 88274.3 88261.5 88244.9 88223.2 88195 88159 88113.5 88057
          87988.4 87906.9 87812.4 87703.2 87709.4 87829 87930.4 88017.8 88091.2 88151.6 88200.3 88239.1
          88269.8 88294.3 88314.3 88331.4 88347 88362.1 88377.7 88394.7 88400.4 88395.1 88378.9 88365.2
          88353.7 88344 88335.9 88329.3 88323.8 88319.2 88315.3 88311.9 88308.8 88305.9 88303.1 88300.3
          88297.3 88293.9 88290 88285.3 88279.3 88271.8 88262 88249.3 88232.6 88210.9 88182.8 88146.7
          88101.2 88044.8 87976.1 87894.6 87800.2 87690.8 87697 87816.8 87918.3 88005.6 88079 88139.4
          88188.1 88226.9 88257.6 88282.1 88302.1 88319.2 88334.8 88349.8 88365.4 88903.6 88909.3 88904
          88366.7 88353 88341.4 88331.8 88323.7 88317.1 88311.6 88307 88303.1 88299.6 88296.6 88293.7
          88290.9 88288.1 88285.1 88281.7 88277.8 88273.1 88267.1 88259.6 88249.8 88237.1 88220.4 88198.7
          88170.6 88134.5 88089 88032.6 87964 87882.5 87788 87678.8
        </DataArray>
        <DataArray type="Float32" Name="pg" NumberOfComponents="1" format="ascii">
          138696 137372 137292 137357 137429 137490 137539 137578 137609 137634 137655 137672
          137688 137703 137719 137733 137739 137734 137720 137707 137695 137686 137678 137671
          137666 137661 137657 137654 137651 137648 137645 137643 137640 137636 137633 137628
          137622 137614 137605 137592 137575 137553 137525 137489 137443 137386 137319 137252
          137277 138084 128896 127629 127560 127627 127698 127759 127808 127848 127879 127903
          127924 127941 127957 127972 127988 128003 128008 128003 127990 127976 127965 127955
          127947 127940 127935 127930 127926 127923 127920 127917 127914 127912 127909 127905
          127902 127897 127891 127884 127874 127861 127844 127822 127794 127758 127712 127655
          127588 127520 127538 128311 119097 117966 117918 117987 118059 118120 118169 118208
          118240 118264 118285 118302 118318 118333 118348 118363 118369 118364 118350 118337
          118325 118315 118307 118301 118295 118290 118287 118283 118280 118277 118275 118272
          118269 118266 118262 118257 118251 118244 118234 118221 118204 118182 118154 118118
          118072 118015 117948 117878 117883 118574 109348 108452 108436 108510 108582 108643
          108692 108731 108761 108786 108806 108823 108839 108854 108870 108885 108891 108885
          108871 108858 108846 108836 108828 108822 108816 108811 108807 108804 108801 108798
          108795 108793 108790 108786 108782 108778 108772 108764 108754 108741 108725 108703
          108675 108638 108593 108536 108468 108396 108380 108929 100300 100269 100364 100451
          100524 100585 100633 100672 100703 100727 100747 100764 100780 100795 100811 100827
          100832 100827 100812 100798 100787 100777 100769 100762 100757 100752 100748 100745
          100742 100739 100736 100733 100730 100727 100723 100718 100712 100705 100695 100682
          100666 100644 100616 100580 100534 100478 100409 100328 100237 100202 100128 100244
          100345 100432 100506 100566 100615 100654 100684 100709 100729 100746 100762 100777
          100792 100809 100814 100809 100794 100780 100768 100759 100750 100744 100738 100734
          100730 100726 100723 100720 100718 100715 100712 100708 100705 100700 100694 100686
          100677 100664 100647 100625 100597 100561 100516 100459 100391 100309 100215 100107
          100113 100231 100333 100420 100493 100554 100602 100641 100672 100696 100716 100734
          100749 100764 100780 100796 100802 100797 100781 100767 100756 100746 100738 100731
          100726 100721 100717 100714 100711 100708 100705 100702 100699 100696 100692 100687
          100681 100674 100664 100651 100635 100613 100585 100549 100503 100447 100378 100297
          100202 100094 100100 100219 100320 100408 100481 100541 100590 100629 100660 100684
          100704 100721 100737 100752 100768 100784 100790 100785 100769 100755 100744 100734
          100726 100719 100714 100709 100705 100702 100699 100696 100693 100690 100687 100684
          100680 100675 100669 100662 100652 100639 100622 100601 100573 100537 100491 100435
          100366 100284 100190 100081 100087 100207 100308 100395 100469 100529 100578 100617
          100647 100672 100692 100709 100725 100740 100755 100772 100778 100773 100757 100743
          100731 100722 100714 100707 100701 100697 100693 100689 100686 100684 100681 100678
          100675 100672 100668 100663 100657 100649 100640 100627 100610 100588 100560 100524
          100479 100422 100354 100272 100178 100068 100075 100194 100296 100383 100457 100517
          100566 100604 100635 100660 100680 100697 100712 100727 100743 100761 100766 100761
          100744 100731 100719 100709 100701 100695 100689 100685 100681 100677 100674 100671
          100669 100666 100663 100659 100655 100651 100645 100637 100627 100615 100598 100576
          100548 100512 100467 100410 100342 100260 100166 100056
        </DataArray>
        <DataArray type="Float32" Name="rhow" NumberOfComponents="1" format="ascii">
          999.719 999.719 999.719 999.719 999.719 999.719 999.719 999.719 999.719 999.719 999.719 999.719
          999.719 999.719 999.719 999.719 999.719 999.719 999.719 999.719 999.719 999.719 999.719 999.719
          999.719 999.719 999.719 999.719 999.719 999.719 999.719 999.719 999.719 999.719 999.719 999.719
          999.719 999.719 999.719 999.719 999.719 999.719 999.719 999.719 999.719 999.719 999.719 999.719
          999.719 999.719 999.715 999.714 999.714 999.714 999.714 999.714 999.714 999.714 999.714 999.714
          999.714 999.714 999.714 999.714 999.714 999.714 999.714 999.714 999.714 999.714 999.714 999.714
          999.714 999.714 999.714 999.714 999.714 999.714 999.714 999.714 999.714 999.714 999.714 999.714
          999.714 999.714 999.714 999.714 999.714 999.714 999.714 999.714 999.714 999.714 999.714 999.714
          999.714 999.714 999.714 999.714 999.71 999.709 999.709 999.709 999.709 999.71 999.71 999.71
          999.71 999.71 999.71 999.71 999.71 999.71 999.71 999.71 999.71 999.71 999.71 999.71
          999.71 999.71 999.71 999.71 999.71 999.71 999.71 999.71 999.71 999.71 999.71 999.71
          999.71 999.71 999.71 999.71 999.71 999.71 999.71 999.71 999.71 999.71 999.71 999.71
          999.709 999.709 999.709 999.709 999.709 999.71 999.705 999.705 999.705 999.705 999.705 999.705
          999.705 999.705 999.705 999.705 999.705 999.705 999.705 999.705 999.705 999.705 999.705 999.705
          999.705 999.705 999.705 999.705 999.705 999.705 999.705 999.705 999.705 999.705 999.705 999.705
          999.705 999.705 999.705 999.705 999.705 999.705 999.705 999.705 999.705 999.705 999.705 999.705
          999.705 999.705 999.705 999.705 999.705 999.705 999.705 999.705 999.701 999.701 999.701 999.701
          999.701 999.701 999.701 999.701 999.701 999.701 999.701 999.701 999.701 999.701 999.701 999.701
          999.701 999.701 999.701 999.701 999.701 999.701 999.701 999.701 999.701 999.701 999.701 999.701
          999.701 999.701 999.701 999.701 999.701 999.701 999.701 999.701 999.701 999.701 999.701 999.701
          999.701 999.701 999.701 999.701 999.701 999.701 999.701 999.701 999.701 999.701 999.699 999.699
          999.699 999.699 999.699 999.699 999.699 999.699 999.699 999.699 999.699 999.699 999.699 999.699
          999.699 999.699 999.699 999.699 999.699 999.699 999.699 999.699 999.699 999.699 999.699 999.699
          999.699 999.698 999.698 999.698 999.698 999.698 999.698 999.698 999.698 999.698 999.698 999.698
          999.698 999.698 999.698 999.698 999.698 999.698 999.698 999.698 999.698 999.698 999.698 999.698
          999.695 999.695 999.695 999.695 999.695 999.695 999.695 999.696 999.696 999.696 999.696 999.696
          999.696 999.696 999.696 999.696 999.696 999.696 999.696 999.696 999.696 999.696 999.696 999.696
          999.696 999.696 999.696 999.696 999.696 999.696 999.696 999.696 999.696 999.696 999.696 999.696
          999.696 999.696 999.696 999.696 999.696 999.695 999.695 999.695 999.695 999.695 999.695 999.695
          999.695 999.695 999.695 999.695 999.695 999.695 999.695 999.695 999.695 999.696 999.696 999.696
          999.696 999.696 999.696 999.696 999.696 999.696 999.696 999.696 999.696 999.696 999.696 999.696
          999.696 999.696 999.696 999.696 999.696 999.696 999.696 999.696 999.696 999.696 999.696 999.696
          999.696 999.696 999.696 999.696 999.696 999.696 999.696 999.695 999.695 999.695 999.695 999.695
          999.695 999.695 999.695 999.695 999.695 999.695 999.695 999.695 999.695 999.695 999.695 999.695
          999.696 999.696 999.696 999.696 999.696 999.696 999.696 999.696 999.696 999.696 999.696 999.696
          999.696 999.696 999.696 999.696 999.696 999.696 999.696 999.696 999.696 999.696 999.696 999.696
          999.696 999.696 999.696 999.696 999.696 999.696 999.696 999.696 999.695 999.695 999.695 999.695
          999.695 999.695 999.695 999.695 999.695 999.695 999.695 999.695 999.695 999.695 999.695 999.695
          999.695 999.695 999.696 999.696 999.696 999.696 999.696 999.696 999.696 999.695 999.695 999.695
          999.696 999.696 999.696 999.696 999.696 999.696 999.696 999.696 999.696 999.696 999.696 999.696
          999.696 999.696 999.696 999.696 999.696 999.696 999.696 999.696 999.696 999.695 999.695 999.695
          999.695 999.695 999.695 999.695 999.695 999.695 999.695 999.695
        </DataArray>
        <DataArray type="Float32" Name="rhon" NumberOfComponents="1" format="ascii">
          878.771 878.771 878.771 878.771 878.771 878.771 878.771 878.771 878.771 878.771 878.771 878.771
          878.771 878.771 878.771 878.771 878.771 878.771 878.771 878.771 878.771 878.771 878.771 878.771
          878.771 878.771 878.771 878.771 878.771 878.771 878.771 878.771 878.771 878.771 878.771 878.771
          878.771 878.771 878.771 878.771 878.771 878.771 878.771 878.771 878.771 878.771 878.771 878.771
          878.771 878.771 878.771 878.771 878.771 878.771 878.771 878.771 878.771 878.771 878.771 878.771
          878.771 878.771 878.771 878.771 878.771 878.771 878.771 878.771 878.771 878.771 878.771 878.771
          878.771 878.771 878.771 878.771 878.771 878.771 878.771 878.771 878.771 878.771 878.771 878.771
          878.771 878.771 878.771 878.771 878.771 878.771 878.771 878.771 878.771 878.771 878.771 878.771
          878.771 878.771 878.771 878.771 878.771 878.771 878.771 878.771 878.771 878.771 878.771 878.771
          878.771 878.771 878.771 878.771 878.771 878.771 878.771 878.771 878.771 878.771 878.771 878.771
          878.771 878.771 878.771 878.771 878.771 878.771 878.771 878.771 878.771 878.771 878.771 878.771
          878.771 878.771 878.771 878.771 878.771 878.771 878.771 878.771 878.771 878.771 878.771 878.771
          878.771 878.771 878.771 878.771 878.771 878.771 878.771 878.771 878.771 878.771 878.771 878.771
          878.771 878.771 878.771 878.771 878.771 878.771 878.771 878.771 878.771 878.771 878.771 878.771
          878.771 878.771 878.771 878.771 878.771 878.771 878.771 878.771 878.771 878.771 878.771 878.771
          878.771 878.771 878.771 878.771 878.771 878.771 878.771 878.771 878.771 878.771 878.771 878.771
          878.771 878.771 878.771 878.771 878.771 878.771 878.771 878.771 878.771 878.771 878.771 878.771
          878.771 878.771 878.771 878.771 878.771 878.771 878.771 878.771 878.771 878.771 878.771 878.771
          878.771 878.771 878.771 878.771 878.771 878.771 878.771 878.771 878.771 878.771 878.771 878.771
          878.771 878.771 878.771 878.771 878.771 878.771 878.771 878.771 878.771 878.771 878.771 878.771
          878.771 878.771 878.771 878.771 878.771 878.771 878.771 878.771 878.771 878.771 878.771 878.771