<?xml version="1.0"?>
<VTKFile type="UnstructuredGrid" version="0.1" byte_order="LittleEndian">
  <UnstructuredGrid>
    <Piece NumberOfCells="160" NumberOfPoints="205">
      <CellData Scalars="Sw">
        <DataArray type="Float32" Name="Sw" NumberOfComponents="1" format="ascii">
          0.998496 0.999961 1 1 1 1 1 1 1 1 0.999989 0.999987
          0.999987 0.999987 0.999986 0.999986 0.999986 0.999986 0.999986 0.999986 0.999986 0.999986 0.999986 0.999986
          0.999986 0.999987 0.999987 0.999987 0.999987 0.999987 0.999989 1 1 1 1 1
          1 1 0.999967 0.998554 0.996438 0.999766 1 1 0.999947 0.999732 0.999151 0.996935
          0.986199 0.95761 0.943292 0.9405 0.940041 0.939967 0.939956 0.939954 0.939954 0.939954 0.939954 0.939954
          0.939954 0.939954 0.939955 0.939955 0.939955 0.939955 0.939958 0.939972 0.940056 0.940566 0.943568 0.95835
          0.986771 0.997152 0.999222 0.999751 0.999937 1 0.999721 0.996101 0.120239 0.120064 0.12 0.12
          0.12 0.12 0.12 0.12 0.12 0.12 0.12 0.12 0.12 0.12 0.12 0.12
          0.12 0.12 0.12 0.12 0.12 0.12 0.12 0.12 0.12 0.12 0.12 0.12
          0.12 0.12 0.12 0.12 0.12 0.12 0.12 0.12 0.12 0.12 0.12 0.12
          0.12 0.12 0.12 0.12 0.120001 0.120001 0.12 0.12 0.12 0.12 0.12 0.12
          0.12 0.12 0.12 0.12 0.12 0.12 0.12 0.12 0.12 0.12 0.12 0.12
          0.12 0.12 0.12 0.12 0.12 0.12 0.12 0.12 0.12 0.12 0.12 0.12
          0.12 0.12 0.12 0.12
        </DataArray>
        <DataArray type="Float32" Name="Sn" NumberOfComponents="1" format="ascii">
          0 0 0 0 0 0 0 0 0 0 0 0
          0 0 0 0 0 0 0 0 0 0 0 0
          0 0 0 0 0 0 0 0 0 0 0 0
          0 0 0 0 0 0 0 0 0 0 0 0
          0 0 0 0 0 0 0 0 0 0 0 0
          0 0 0 0 0 0 0 0 0 0 0 0
          0 0 0 0 0 0 0 0 0 0 0 0
          0.0156528 0.0156506 0 0 0 0 0 0 0 0 0 0
          0 0 0 0 0 0 0 0 0 0 0 0
          0 0 0 0 0 0 0 0 0 0 0 0
          0 0 0 0.000164425 0.102136 0.102136 0.000162375 0 0 0 0 0
          0 0 0 0 0 0 0 0 0 0 0 0
          0 0 0 0 0 0 0 0 0 0 0 0
          0 0 0 0
        </DataArray>
        <DataArray type="Float32" Name="Sg" NumberOfComponents="1" format="ascii">
          0.00150431 3.90973e-05 0 0 0 0 0 0 0 0 1.08658e-05 1.30332e-05
          1.34042e-05 1.34819e-05 1.35075e-05 1.35303e-05 1.35495e-05 1.35639e-05 1.35734e-05 1.35779e-05 1.35774e-05 1.35718e-05 1.35613e-05 1.35458e-05
          1.35254e-05 1.35004e-05 1.34722e-05 1.34402e-05 1.33517e-05 1.29538e-05 1.07262e-05 0 0 0 0 0
          0 0 3.31425e-05 0.00144605 0.00356179 0.000234069 0 0 5.27738e-05 0.000268313 0.000849044 0.0030655
          0.0138011 0.0423898 0.0567083 0.0595 0.0599591 0.0600327 0.0600443 0.0600461 0.0600462 0.0600461 0.060046 0.0600458
          0.0600457 0.0600456 0.0600454 0.0600453 0.0600451 0.0600446 0.0600422 0.0600283 0.0599439 0.0594341 0.0564321 0.0416498
          0.0132292 0.00284788 0.00077841 0.000249108 6.34511e-05 0 0.000278837 0.00389868 0.879761 0.879936 0.88 0.88
          0.864347 0.864349 0.88 0.88 0.88 0.88 0.88 0.88 0.88 0.88 0.88 0.88
          0.88 0.88 0.88 0.88 0.88 0.88 0.88 0.88 0.88 0.88 0.88 0.88
          0.88 0.88 0.88 0.88 0.88 0.88 0.88 0.88 0.88 0.88 0.88 0.88
          0.88 0.88 0.88 0.879835 0.777863 0.777864 0.879837 0.88 0.88 0.88 0.88 0.88
          0.88 0.88 0.88 0.88 0.88 0.88 0.88 0.88 0.88 0.88 0.88 0.88
          0.88 0.88 0.88 0.88 0.88 0.88 0.88 0.88 0.88 0.88 0.88 0.88
          0.88 0.88 0.88 0.88
        </DataArray>
        <DataArray type="Float32" Name="pw" NumberOfComponents="1" format="ascii">
          134984 133559 132175 130795 129415 128039 126672 125341 124188 123658 123540 123519
          123515 123514 123513 123512 123511 123510 123509 123508 123507 123506 123505 123504
          123503 123502 123502 123501 123500 123503 123524 123641 124155 125211 126409 127634
          128867 130102 131343 132621 110466 109041 107656 106277 104897 103521 102152 100816
          99645.5 99123 99018.6 99000.6 98996.9 98995.5 98994.6 98993.6 98992.7 98991.8 98990.9 98990
          98989 98988.1 98987.2 98986.3 98985.3 98984.4 98983.5 98982.6 98982.2 98984.3 99001.6 99107.2
          99615.4 100687 101889 103116 104349 105583 106824 108103 87731 87679.9 87667.5 87677.7
          85977.4 85985.8 87701.8 87706.7 87710.9 87712.2 87711.8 87711 87710.1 87709.2 87708.2 87707.3
          87706.4 87705.5 87704.6 87703.7 87702.7 87701.8 87700.9 87700 87699 87698.1 87697.2 87696.2
          87695.3 87694.3 87693.3 87691.9 87688.7 87683.1 87676.9 87670.6 87664.2 87657.8 87651.5 87644.6
          87617.7 87627.4 87637.5 87647.6 83617.8 83626 87671.8 87676.6 87680.7 87682.1 87681.7 87680.9
          87680 87679.1 87678.2 87677.3 87676.4 87675.5 87674.5 87673.6 87672.7 87671.8 87670.8 87669.9
          87669 87668 87667.1 87666.2 87665.2 87664.3 87663.2 87661.8 87658.6 87653 87646.9 87640.5
          87634.2 87627.8 87621.4 87615.4
        </DataArray>
        <DataArray type="Float32" Name="pn" NumberOfComponents="1" format="ascii">
          134984 133559 132175 130795 129415 128039 126672 125341 124188 123658 123540 123519
          123515 123514 123513 123512 123511 123510 123509 123508 123507 123506 123505 123504
          123503 123502 123502 123501 123500 123503 123524 123641 124155 125211 126409 127634
          128867 130102 131343 132621 110466 109041 107656 106277 104897 103521 102152 100816
          99645.5 99123 99018.6 99000.6 98996.9 98995.5 98994.6 98993.6 98992.7 98991.8 98990.9 98990
          98989 98988.1 98987.2 98986.3 98985.3 98984.4 98983.5 98982.6 98982.2 98984.3 99001.6 99107.2
          99615.4 100687 101889 103116 104349 105583 106824 108103 87731 87679.9 87667.5 87677.7
          88745.1 88753.1 87701.8 87706.7 87710.9 87712.2 87711.8 87711 87710.1 87709.2 87708.2 87707.3
          87706.4 87705.5 87704.6 87703.7 87702.7 87701.8 87700.9 87700 87699 87698.1 87697.2 87696.2
          87695.3 87694.3 87693.3 87691.9 87688.7 87683.1 87676.9 87670.6 87664.2 87657.8 87651.5 87644.6
          87617.7 87627.4 87637.5 87647.6 95995.1 96003.3 87671.8 87676.6 87680.7 87682.1 87681.7 87680.9
          87680 87679.1 87678.2 87677.3 87676.4 87675.5 87674.5 87673.6 87672.7 87671.8 87670.8 87669.9
          87669 87668 87667.1 87666.2 87665.2 87664.3 87663.2 87661.8 87658.6 87653 87646.9 87640.5
          87634.2 87627.8 87621.4 87615.4
        </DataArray>
        <DataArray type="Float32" Name="pg" NumberOfComponents="1" format="ascii">
          135523 134069 132684 131304 129925 128548 127181 125850 124698 124167 124050 124029
          124025 124023 124022 124021 124020 124019 124018 124018 124017 124016 124015 124014
          124013 124012 124011 124010 124010 124013 124033 124150 124664 125720 126918 128144
          129376 130611 131853 133159 111045 109554 108166 106786 105407 104035 102678 101385
          100410 100144 100123 100119 100118 100117 100116 100115 100114 100113 100112 100111
          100110 100109 100109 100108 100107 100106 100105 100104 100103 100103 100104 100124
          100371 101252 102414 103630 104859 106092 107339 108689 100025 100035 100045 100055
          100066 100074 100079 100084 100088 100090 100089 100089 100088 100087 100086 100085
          100084 100083 100082 100081 100080 100079 100078 100078 100077 100076 100075 100074
          100073 100072 100071 100069 100066 100061 100054 100048 100042 100035 100029 100022
          99995.2 100005 100015 100025 100036 100044 100049 100054 100058 100060 100059 100058
          100058 100057 100056 100055 100054 100053 100052 100051 100050 100049 100048 100047
          100047 100046 100045 100044 100043 100042 100041 100039 100036 100031 100024 100018
          100012 100005 99999 99993
        </DataArray>
        <DataArray type="Float32" Name="rhow" NumberOfComponents="1" format="ascii">
          999.733 999.732 999.731 999.73 999.729 999.728 999.728 999.727 999.727 999.726 999.726 999.726
          999.726 999.726 999.726 999.726 999.726 999.726 999.726 999.726 999.726 999.726 999.726 999.726
          999.726 999.726 999.726 999.726 999.726 999.726 999.726 999.726 999.726 999.727 999.728 999.728
          999.729 999.73 999.731 999.732 999.718 999.718 999.717 999.716 999.718 999.718 999.714 999.713
          999.712 999.712 999.712 999.712 999.712 999.712 999.712 999.712 999.712 999.712 999.712 999.712
          999.712 999.712 999.712 999.712 999.712 999.712 999.712 999.712 999.712 999.712 999.712 999.712
          999.712 999.713 999.713 999.714 999.715 999.716 999.716 999.717 999.706 999.706 999.707 999.711
          999.725 999.725 999.706 999.706 999.706 999.706 999.706 999.706 999.706 999.706 999.706 999.706
          999.706 999.706 999.706 999.706 999.706 999.706 999.706 999.706 999.706 999.706 999.706 999.706
          999.706 999.706 999.706 999.706 999.706 999.706 999.706 999.706 999.706 999.706 999.706 999.706
          999.706 999.707 999.709 999.726 999.724 999.724 999.726 999.706 999.706 999.706 999.706 999.706
          999.706 999.706 999.706 999.706 999.706 999.706 999.706 999.706 999.706 999.706 999.706 999.706
          999.706 999.706 999.706 999.706 999.706 999.706 999.706 999.706 999.706 999.706 999.706 999.706
          999.706 999.706 999.706 999.706
        </DataArray>
        <DataArray type="Float32" Name="rhon" NumberOfComponents="1" format="ascii">
          878.771 878.771 878.771 878.771 878.771 878.771 878.771 878.771 878.771 878.771 878.771 878.771
          878.771 878.771 878.771 878.771 878.771 878.771 878.771 878.771 878.771 878.771 878.771 878.771
          878.771 878.771 878.771 878.771 878.771 878.771 878.771 878.771 878.771 878.771 878.771 878.771
          878.771 878.771 878.771 878.771 878.771 878.771 878.771 878.771 878.771 878.771 878.771 878.771
          878.771 878.771 878.771 878.771 878.771 878.771 878.771 878.771 878.771 878.771 878.771 878.771
          878.771 878.771 878.771 878.771 878.771 878.771 878.771 878.771 878.771 878.771 878.771 878.771
          878.771 878.771 878.771 878.771 878.771 878.771 878.771 878.771 878.771 878.771 878.771 878.771
          878.771 878.771 878.771 878.771 878.771 878.771 878.771 878.771 878.771 878.771 878.771 878.771
          878.771 878.771 878.771 878.771 878.771 878.771 878.771 878.771 878.771 878.771 878.771 878.771
          878.771 878.771 878.771 878.771 878.771 878.771 878.771 878.771 878.771 878.771 878.771 878.771
          878.771 878.771 878.771 878.771 878.771 878.771 878.771 878.771 878.771 878.771 878.771 878.771
          878.771 878.771 878.771 878.771 878.771 878.771 878.771 878.771 878.771 878.771 878.771 878.771
          878.771 878.771 878.771 878.771 878.771 878.771 878.771 878.771 878.771 878.771 878.771 878.771
          878.771 878.771 878.771 878.771
        </DataArray>
        <DataArray type="Float32" Name="rhog" NumberOfComponents="1" format="ascii">
          1.6614 1.64352 1.58917 1.56019 1.541 1.53138 1.52596 1.5234 1.5221 1.52138 1.52027 1.52001
          1.51995 1.51994 1.51992 1.51991 1.5199 1.51989 1.51988 1.51987 1.51986 1.51984 1.51983 1.51982
          1.51981 1.5198 1.51979 1.51978 1.51977 1.51981 1.52006 1.52118 1.52199 1.52354 1.52669 1.53353
          1.54758 1.57149 1.61625 1.63231 1.36029 1.34195 1.31872 1.30384 1.29155 1.27484 1.25738 1.24146
          1.22946 1.2262 1.22593 1.22589 1.22587 1.22586 1.22585 1.22584 1.22583 1.22581 1.2258 1.22579
          1.22578 1.22577 1.22576 1.22575 1.22573 1.22572 1.22571 1.2257 1.22569 1.22568 1.2257 1.22595
          1.22899 1.23983 1.25411 1.26908 1.28419 1.29878 1.3147 1.3313 1.22473 1.22487 1.22511 1.22606
          1.22959 1.22969 1.22541 1.22546 1.22551 1.22553 1.22552 1.22551 1.2255 1.22549 1.22548 1.22547
          1.22546 1.22544 1.22543 1.22542 1.22541 1.2254 1.22539 1.22538 1.22536 1.22535 1.22534 1.22533
          1.22532 1.22531 1.22529 1.22528 1.22524 1.22517 1.22509 1.22501 1.22494 1.22486 1.22478 1.22469
          1.22437 1.22454 1.22523 1.22908 1.22922 1.22932 1.22938 1.22509 1.22514 1.22516 1.22515 1.22514
          1.22513 1.22512 1.22511 1.2251 1.22509 1.22507 1.22506 1.22505 1.22504 1.22503 1.22502 1.22501
          1.22499 1.22498 1.22497 1.22496 1.22495 1.22494 1.22492 1.22491 1.22487 1.2248 1.22472 1.22464
          1.22457 1.22449 1.22441 1.22434
        </DataArray>
        <DataArray type="Float32" Name="x^H2O_w" NumberOfComponents="1" format="ascii">
          0.999975 0.999976 0.999976 0.999977 0.999977 0.999977 0.999977 0.999977 0.999977 0.999977 0.999977 0.999977
          0.999977 0.999977 0.999977 0.999977 0.999977 0.999977 0.999977 0.999977 0.999977 0.999977 0.999977 0.999977
          0.999977 0.999977 0.999977 0.999977 0.999977 0.999977 0.999977 0.999977 0.999977 0.999977 0.999977 0.999977
          0.999977 0.999977 0.999976 0.999976 0.99998 0.99998 0.99998 0.999981 0.99998 0.99998 0.999981 0.999982
          0.999982 0.999982 0.999982 0.999982 0.999982 0.999982 0.999982 0.999982 0.999982 0.999982 0.999982 0.999982
          0.999982 0.999982 0.999982 0.999982 0.999982 0.999982 0.999982 0.999982 0.999982 0.999982 0.999982 0.999982
          0.999982 0.999982 0.999981 0.999981 0.999981 0.999981 0.99998 0.99998 0.999982 0.999982 0.999982 0.999981
          0.999978 0.999978 0.999982 0.999982 0.999982 0.999982 0.999982 0.999982 0.999982 0.999982 0.999982 0.999982
          0.999982 0.999982 0.999982 0.999982 0.999982 0.999982 0.999982 0.999982 0.999982 0.999982 0.999982 0.999982
          0.999982 0.999982 0.999982 0.999982 0.999982 0.999982 0.999982 0.999982 0.999982 0.999982 0.999982 0.999982
          0.999982 0.999982 0.999981 0.999978 0.999978 0.999978 0.999978 0.999982 0.999982 0.999982 0.999982 0.999982
          0.999982 0.999982 0.999982 0.999982 0.999982 0.999982 0.999982 0.999982 0.999982 0.999982 0.999982 0.999982
          0.999982 0.999982 0.999982 0.999982 0.999982 0.999982 0.999982 0.999982 0.999982 0.999982 0.999982 0.999982
          0.999982 0.999982 0.999982 0.999982
        </DataArray>
        <DataArray type="Float32" Name="x^mesitylene_w" NumberOfComponents="1" format="ascii">
          4.12671e-09 4.12713e-09 4.12052e-09 4.10975e-09 4.10303e-09 4.09978e-09 4.09672e-09 4.09455e-09 4.09249e-09 4.09055e-09 4.08867e-09 4.08683e-09
          4.085e-09 4.08318e-09 4.08135e-09 4.07953e-09 4.07771e-09 4.07589e-09 4.07406e-09 4.07224e-09 4.07042e-09 4.06859e-09 4.06677e-09 4.06494e-09
          4.06312e-09 4.06129e-09 4.05946e-09 4.05764e-09 4.05582e-09 4.054e-09 4.05219e-09 4.0504e-09 4.04862e-09 4.04697e-09 4.04567e-09 4.04517e-09
          4.04646e-09 4.05275e-09 4.05735e-09 4.0543e-09 3.38718e-09 3.39112e-09 3.39231e-09 3.39799e-09 4.79573e-07 6.15658e-07 1.84499e-08 3.74903e-09
          3.39604e-09 3.37734e-09 3.36983e-09 3.36676e-09 3.36473e-09 3.36288e-09 3.36106e-09 3.35924e-09 3.35742e-09 3.35561e-09 3.35379e-09 3.35197e-09
          3.35015e-09 3.34833e-09 3.34651e-09 3.3447e-09 3.34288e-09 3.34106e-09 3.33925e-09 3.33743e-09 3.33565e-09 3.33406e-09 3.33357e-09 3.33752e-09
          3.34573e-09 3.34745e-09 3.34604e-09 3.34339e-09 3.33908e-09 3.33014e-09 3.32321e-09 3.31553e-09 4.38693e-09 1.47485e-08 1.06095e-07 7.55179e-07
          3.40605e-06 3.40605e-06 1.26636e-08 3.04614e-09 3.04174e-09 3.03464e-09 3.03085e-09 3.02999e-09 3.02979e-09 3.0297e-09 3.02964e-09 3.02958e-09
          3.02952e-09 3.02946e-09 3.0294e-09 3.02934e-09 3.02928e-09 3.02922e-09 3.02917e-09 3.02911e-09 3.02906e-09 3.029e-09 3.02895e-09 3.0289e-09
          3.02887e-09 3.02895e-09 3.02966e-09 3.033e-09 3.03894e-09 3.04064e-09 3.04059e-09 3.04015e-09 3.03949e-09 3.03814e-09 3.03654e-09 3.03989e-09
          6.91488e-09 5.07607e-08 4.88761e-07 3.40605e-06 3.40605e-06 3.40605e-06 3.40605e-06 3.02473e-09 3.02473e-09 3.0246e-09 3.02455e-09 3.02453e-09
          3.02451e-09 3.02449e-09 3.02447e-09 3.02445e-09 3.02443e-09 3.02441e-09 3.0244e-09 3.02438e-09 3.02436e-09 3.02434e-09 3.02432e-09 3.0243e-09
          3.02428e-09 3.02426e-09 3.02424e-09 3.02422e-09 3.0242e-09 3.02418e-09 3.02417e-09 3.02418e-09 3.02424e-09 3.02418e-09 3.02406e-09 3.02393e-09
          3.0238e-09 3.02367e-09 3.02353e-09 3.02333e-09
        </DataArray>
        <DataArray type="Float32" Name="x^Air_w" NumberOfComponents="1" format="ascii">
          2.47304e-05 2.44627e-05 2.36491e-05 2.32153e-05 2.2928e-05 2.27839e-05 2.27029e-05 2.26645e-05 2.26451e-05 2.26343e-05 2.26176e-05 2.26137e-05
          2.2613e-05 2.26127e-05 2.26125e-05 2.26123e-05 2.26122e-05 2.2612e-05 2.26118e-05 2.26117e-05 2.26115e-05 2.26113e-05 2.26111e-05 2.2611e-05
          2.26108e-05 2.26106e-05 2.26105e-05 2.26103e-05 2.26102e-05 2.26107e-05 2.26145e-05 2.26314e-05 2.26435e-05 2.26667e-05 2.27137e-05 2.28161e-05
          2.30266e-05 2.33845e-05 2.40545e-05 2.4295e-05 2.02228e-05 1.99483e-05 1.96005e-05 1.93776e-05 1.91817e-05 1.89281e-05 1.86819e-05 1.84439e-05
          1.82642e-05 1.82154e-05 1.82114e-05 1.82108e-05 1.82105e-05 1.82103e-05 1.82102e-05 1.821e-05 1.82098e-05 1.82097e-05 1.82095e-05 1.82093e-05
          1.82092e-05 1.8209e-05 1.82088e-05 1.82086e-05 1.82085e-05 1.82083e-05 1.82081e-05 1.8208e-05 1.82078e-05 1.82077e-05 1.8208e-05 1.82116e-05
          1.82572e-05 1.84194e-05 1.86333e-05 1.88573e-05 1.90836e-05 1.9302e-05 1.95402e-05 1.97889e-05 1.81933e-05 1.81952e-05 1.81965e-05 1.81944e-05
          1.81803e-05 1.81818e-05 1.82034e-05 1.82043e-05 1.82051e-05 1.82054e-05 1.82053e-05 1.82051e-05 1.8205e-05 1.82048e-05 1.82046e-05 1.82045e-05
          1.82043e-05 1.82041e-05 1.8204e-05 1.82038e-05 1.82036e-05 1.82034e-05 1.82033e-05 1.82031e-05 1.82029e-05 1.82028e-05 1.82026e-05 1.82024e-05
          1.82022e-05 1.82021e-05 1.82019e-05 1.82016e-05 1.8201e-05 1.82e-05 1.81989e-05 1.81977e-05 1.81965e-05 1.81953e-05 1.81942e-05 1.81929e-05
          1.81879e-05 1.81895e-05 1.81886e-05 1.81727e-05 1.81747e-05 1.81762e-05 1.81772e-05 1.81988e-05 1.81996e-05 1.81998e-05 1.81997e-05 1.81996e-05
          1.81994e-05 1.81993e-05 1.81991e-05 1.81989e-05 1.81988e-05 1.81986e-05 1.81984e-05 1.81983e-05 1.81981e-05 1.81979e-05 1.81977e-05 1.81976e-05
          1.81974e-05 1.81972e-05 1.81971e-05 1.81969e-05 1.81967e-05 1.81965e-05 1.81963e-05 1.81961e-05 1.81955e-05 1.81945e-05 1.81933e-05 1.81922e-05
          1.8191e-05 1.81898e-05 1.81886e-05 1.81875e-05
        </DataArray>
        <DataArray type="Float32" Name="x^H2O_n" NumberOfComponents="1" format="ascii">
          1e-10 1e-10 1e-10 1e-10 1e-10 1e-10 1e-10 1e-10 1e-10 1e-10 1e-10 1e-10
          1e-10 1e-10 1e-10 1e-10 1e-10 1e-10 1e-10 1e-10 1e-10 1e-10 1e-10 1e-10
          1e-10 1e-10 1e-10 1e-10 1e-10 1e-10 1e-10 1e-10 1e-10 1e-10 1e-10 1e-10
          1e-10 1e-10 1e-10 1e-10 1e-10 1e-10 1e-10 1e-10 1e-10 1e-10 1e-10 1e-10
          1e-10 1e-10 1e-10 1e-10 1e-10 1e-10 1e-10 1e-10 1e-10 1e-10 1e-10 1e-10
          1e-10 1e-10 1e-10 1e-10 1e-10 1e-10 1e-10 1e-10 1e-10 1e-10 1e-10 1e-10
          1e-10 1e-10 1e-10 1e-10 1e-10 1e-10 1e-10 1e-10 1e-10 1e-10 1e-10 1e-10
          1e-10 1e-10 1e-10 1e-10 1e-10 1e-10 1e-10 1e-10 1e-10 1e-10 1e-10 1e-10
          1e-10 1e-10 1e-10 1e-10 1e-10 1e-10 1e-10 1e-10 1e-10 1e-10 1e-10 1e-10
          1e-10 1e-10 1e-10 1e-10 1e-10 1e-10 1e-10 1e-10 1e-10 1e-10 1e-10 1e-10
          1e-10 1e-10 1e-10 1e-10 1e-10 1e-10 1e-10 1e-10 1e-10 1e-10 1e-10 1e-10
          1e-10 1e-10 1e-10 1e-10 1e-10 1e-10 1e-10 1e-10 1e-10 1e-10 1e-10 1e-10
          1e-10 1e-10 1e-10 1e-10 1e-10 1e-10 1e-10 1e-10 1e-10 1e-10 1e-10 1e-10
          1e-10 1e-10 1e-10 1e-10
        </DataArray>
        <DataArray type="Float32" Name="x^mesitylene_n" NumberOfComponents="1" format="ascii">
          0.00121158 0.0012117 0.13629 0.135934 0.135712 0.135604 0.135503 0.135431 0.135363 0.135299 0.00120041 0.00119987
          0.00119934 0.0011988 0.00119826 0.00119773 0.00119719 0.00119666 0.00119612 0.00119559 0.00119505 0.00119452 0.00119398 0.00119345
          0.00119291 0.00119237 0.00119184 0.0011913 0.00119077 0.00119023 0.0011897 0.133971 0.133912 0.133857 0.133815 0.133798
          0.133841 0.134049 0.00119122 0.00119032 0.00099446 0.000995616 0.112204 0.112392 0.1408 0.180754 0.0054168 0.0011007
          0.000997061 0.000991571 0.000989364 0.000988464 0.000987869 0.000987326 0.000986791 0.000986257 0.000985723 0.000985189 0.000984655 0.000984121
          0.000983587 0.000983053 0.00098252 0.000981986 0.000981453 0.000980919 0.000980386 0.000979853 0.000979329 0.000978863 0.000978719 0.000979878
          0.00098229 0.000982794 0.00098238 0.000981603 0.000980338 0.110148 0.000975677 0.000973423 0.00128798 0.0043301 0.031149 0.221717
          1 1 0.00371797 0.000894331 0.000893038 0.000890954 0.000889841 0.000889588 0.00088953 0.000889505 0.000889486 0.000889468
          0.000889451 0.000889433 0.000889416 0.000889399 0.000889382 0.000889365 0.000889349 0.000889332 0.000889316 0.0008893 0.000889284 0.00088927
          0.000889261 0.000889285 0.000889494 0.000890475 0.000892216 0.000892716 0.000892701 0.000892573 0.000892378 0.000891982 0.000891514 0.000892495
          0.00203017 0.0149031 0.143498 1 1 1 1 0.000888045 0.000888045 0.000888008 0.000887992 0.000887985
          0.00088798 0.000887975 0.000887969 0.000887964 0.000887958 0.000887953 0.000887948 0.000887942 0.000887937 0.000887931 0.000887925 0.00088792
          0.000887914 0.000887908 0.000887903 0.000887897 0.000887891 0.000887885 0.00088788 0.000887883 0.000887902 0.000887885 0.00088785 0.000887812
          0.000887774 0.000887735 0.000887695 0.000887633
        </DataArray>
        <DataArray type="Float32" Name="x^Air_n" NumberOfComponents="1" format="ascii">
          1e-10 1e-10 1e-10 1e-10 1e-10 1e-10 1e-10 1e-10 1e-10 1e-10 1e-10 1e-10
          1e-10 1e-10 1e-10 1e-10 1e-10 1e-10 1e-10 1e-10 1e-10 1e-10 1e-10 1e-10
          1e-10 1e-10 1e-10 1e-10 1e-10 1e-10 1e-10 1e-10 1e-10 1e-10 1e-10 1e-10
          1e-10 1e-10 1e-10 1e-10 1e-10 1e-10 1e-10 1e-10 1e-10 1e-10 1e-10 1e-10
          1e-10 1e-10 1e-10 1e-10 1e-10 1e-10 1e-10 1e-10 1e-10 1e-10 1e-10 1e-10
          1e-10 1e-10 1e-10 1e-10 1e-10 1e-10 1e-10 1e-10 1e-10 1e-10 1e-10 1e-10
          1e-10 1e-10 1e-10 1e-10 1e-10 1e-10 1e-10 1e-10 1e-10 1e-10 1e-10 1e-10
          1e-10 1e-10 1e-10 1e-10 1e-10 1e-10 1e-10 1e-10 1e-10 1e-10 1e-10 1e-10
          1e-10 1e-10 1e-10 1e-10 1e-10 1e-10 1e-10 1e-10 1e-10 1e-10 1e-10 1e-10
          1e-10 1e-10 1e-10 1e-10 1e-10 1e-10 1e-10 1e-10 1e-10 1e-10 1e-10 1e-10
          1e-10 1e-10 1e-10 1e-10 1e-10 1e-10 1e-10 1e-10 1e-10 1e-10 1e-10 1e-10
          1e-10 1e-10 1e-10 1e-10 1e-10 1e-10 1e-10 1e-10 1e-10 1e-10 1e-10 1e-10
          1e-10 1e-10 1e-10 1e-10 1e-10 1e-10 1e-10 1e-10 1e-10 1e-10 1e-10 1e-10
          1e-10 1e-10 1e-10 1e-10
        </DataArray>
        <DataArray type="Float32" Name="x^H2O_g" NumberOfComponents="1" format="ascii">
          0.00906256 0.00916082 0.00925646 0.00935373 0.00945305 0.00955426 0.00965699 0.0097591 0.00984929 0.0098914 0.00990072 0.00990241
          0.00990275 0.00990286 0.00990294 0.00990302 0.00990309 0.00990316 0.00990324 0.00990331 0.00990338 0.00990346 0.00990353 0.00990361
          0.00990368 0.00990375 0.00990383 0.00990389 0.00990392 0.00990371 0.00990207 0.00989272 0.00985193 0.00976919 0.009677 0.00958444
          0.00949313 0.00940338 0.00931483 0.00922346 0.0110602 0.0112107 0.0113547 0.0115014 0.0116518 0.0118055 0.0119615 0.0121141
          0.0122317 0.0122641 0.0122668 0.0122672 0.0122674 0.0122675 0.0122676 0.0122677 0.0122678 0.012268 0.0122681 0.0122682
          0.0122683 0.0122684 0.0122685 0.0122686 0.0122688 0.0122689 0.012269 0.0122691 0.0122692 0.0122693 0.012269 0.0122666
          0.0122364 0.01213 0.0119924 0.0118516 0.0117127 0.0115765 0.0114421 0.0113 0.0122788 0.0122775 0.0122763 0.0122751
          0.0122737 0.0122727 0.0122721 0.0122715 0.012271 0.0122708 0.0122709 0.012271 0.0122711 0.0122712 0.0122713 0.0122714
          0.0122715 0.0122716 0.0122718 0.0122719 0.012272 0.0122721 0.0122722 0.0122723 0.0122724 0.0122726 0.0122727 0.0122728
          0.0122729 0.012273 0.0122731 0.0122733 0.0122737 0.0122744 0.0122752 0.0122759 0.0122767 0.0122775 0.0122783 0.0122791
          0.0122824 0.0122812 0.01228 0.0122788 0.0122774 0.0122764 0.0122758 0.0122752 0.0122747 0.0122745 0.0122746 0.0122747
          0.0122748 0.0122749 0.012275 0.0122751 0.0122752 0.0122753 0.0122754 0.0122756 0.0122757 0.0122758 0.0122759 0.012276
          0.0122761 0.0122762 0.0122764 0.0122765 0.0122766 0.0122767 0.0122768 0.012277 0.0122774 0.0122781 0.0122788 0.0122796
          0.0122804 0.0122812 0.012282 0.0122827
        </DataArray>
        <DataArray type="Float32" Name="x^mesitylene_g" NumberOfComponents="1" format="ascii">
          1.00717e-06 1.0182e-06 1.02718e-06 1.03526e-06 1.04454e-06 1.05489e-06 1.06544e-06 1.07613e-06 1.08553e-06 1.08966e-06 1.09018e-06 1.08988e-06
          1.08943e-06 1.08895e-06 1.08847e-06 1.088e-06 1.08752e-06 1.08704e-06 1.08656e-06 1.08608e-06 1.08561e-06 1.08513e-06 1.08465e-06 1.08417e-06
          1.08369e-06 1.08321e-06 1.08273e-06 1.08225e-06 1.08177e-06 1.08126e-06 1.0806e-06 1.0791e-06 1.07418e-06 1.06473e-06 1.05434e-06 1.04413e-06
          1.03451e-06 1.02632e-06 1.01781e-06 1.00707e-06 1.00891e-06 1.02383e-06 1.03734e-06 1.0525e-06 0.000150486 0.000195737 5.94334e-06 1.22309e-06
          1.11869e-06 1.11548e-06 1.11324e-06 1.11226e-06 1.11161e-06 1.11101e-06 1.11042e-06 1.10983e-06 1.10924e-06 1.10865e-06 1.10805e-06 1.10746e-06
          1.10687e-06 1.10628e-06 1.10569e-06 1.1051e-06 1.10451e-06 1.10392e-06 1.10333e-06 1.10274e-06 1.10216e-06 1.10164e-06 1.10146e-06 1.10255e-06
          1.10254e-06 1.09351e-06 1.08065e-06 1.06712e-06 1.05326e-06 1.03822e-06 1.02403e-06 1.00898e-06 1.45067e-06 4.87652e-06 3.50762e-05 0.000249645
          0.00112584 0.00112575 4.1853e-06 1.00669e-06 1.0052e-06 1.00284e-06 1.00159e-06 1.00131e-06 1.00125e-06 1.00124e-06 1.00122e-06 1.00121e-06
          1.0012e-06 1.00119e-06 1.00118e-06 1.00117e-06 1.00116e-06 1.00115e-06 1.00114e-06 1.00113e-06 1.00112e-06 1.00112e-06 1.00111e-06 1.0011e-06
          1.0011e-06 1.00114e-06 1.00138e-06 1.0025e-06 1.00449e-06 1.00511e-06 1.00516e-06 1.00508e-06 1.00492e-06 1.00454e-06 1.00408e-06 1.00525e-06
          2.28727e-06 1.67888e-05 0.000161638 0.0011263 0.00112618 0.00112609 0.00112603 9.99917e-07 9.99876e-07 9.9982e-07 9.99806e-07 9.99807e-07
          9.9981e-07 9.99813e-07 9.99816e-07 9.99819e-07 9.99822e-07 9.99825e-07 9.99828e-07 9.99831e-07 9.99834e-07 9.99837e-07 9.9984e-07 9.99843e-07
          9.99846e-07 9.99849e-07 9.99852e-07 9.99854e-07 9.99857e-07 9.99861e-07 9.99865e-07 9.99883e-07 9.99936e-07 9.99972e-07 9.99995e-07 1.00002e-06
          1.00004e-06 1.00006e-06 1.00007e-06 1.00007e-06
        </DataArray>
        <DataArray type="Float32" Name="x^Air_g" NumberOfComponents="1" format="ascii">
          0.990936 0.990838 0.967887 0.960117 0.958301 0.962476 0.969366 0.977958 0.986151 0.989897 0.990098 0.990097
          0.990096 0.990096 0.990096 0.990096 0.990096 0.990096 0.990096 0.990096 0.990096 0.990095 0.990095 0.990095
          0.990095 0.990095 0.990095 0.990095 0.990095 0.990095 0.990097 0.989899 0.986344 0.979063 0.971838 0.966882
          0.966503 0.972248 0.990684 0.990776 0.988939 0.988788 0.984026 0.985404 0.988198 0.987999 0.988033 0.987885
          0.987767 0.987735 0.987732 0.987732 0.987732 0.987731 0.987731 0.987731 0.987731 0.987731 0.987731 0.987731
          0.987731 0.987731 0.98773 0.98773 0.98773 0.98773 0.98773 0.98773 0.98773 0.98773 0.98773 0.987732
          0.987763 0.987869 0.988007 0.988147 0.988286 0.987976 0.988557 0.988699 0.98772 0.987718 0.987689 0.987475
          0.9866 0.986602 0.987724 0.987728 0.987728 0.987728 0.987728 0.987728 0.987728 0.987728 0.987728 0.987728
          0.987727 0.987727 0.987727 0.987727 0.987727 0.987727 0.987727 0.987727 0.987727 0.987726 0.987726 0.987726
          0.987726 0.987726 0.987726 0.987726 0.987725 0.987725 0.987724 0.987723 0.987722 0.987722 0.987721 0.98772
          0.987715 0.987702 0.987558 0.986595 0.986596 0.986597 0.986598 0.987724 0.987724 0.987724 0.987724 0.987724
          0.987724 0.987724 0.987724 0.987724 0.987724 0.987724 0.987724 0.987723 0.987723 0.987723 0.987723 0.987723
          0.987723 0.987723 0.987723 0.987723 0.987722 0.987722 0.987722 0.987722 0.987722 0.987721 0.98772 0.987719
          0.987719 0.987718 0.987717 0.987716
        </DataArray>
        <DataArray type="Float32" Name="porosity" NumberOfComponents="1" format="ascii">
          0.4 0.4 0.4 0.4 0.4 0.4 0.4 0.4 0.4 0.4 0.4 0.4
          0.4 0.4 0.4 0.4 0.4 0.4 0.4 0.4 0.4 0.4 0.4 0.4
          0.4 0.4 0.4 0.4 0.4 0.4 0.4 0.4 0.4 0.4 0.4 0.4
          0.4 0.4 0.4 0.4 0.4 0.4 0.4 0.4 0.4 0.4 0.4 0.4
          0.4 0.4 0.4 0.4 0.4 0.4 0.4 0.4 0.4 0.4 0.4 0.4
          0.4 0.4 0.4 0.4 0.4 0.4 0.4 0.4 0.4 0.4 0.4 0.4
          0.4 0.4 0.4 0.4 0.4 0.4 0.4 0.4 0.4 0.4 0.4 0.4
          0.4 0.4 0.4 0.4 0.4 0.4 0.4 0.4 0.4 0.4 0.4 0.4
          0.4 0.4 0.4 0.4 0.4 0.4 0.4 0.4 0.4 0.4 0.4 0.4
          0.4 0.4 0.4 0.4 0.4 0.4 0.4 0.4 0.4 0.4 0.4 0.4
          0.4 0.4 0.4 0.4 0.4 0.4 0.4 0.4 0.4 0.4 0.4 0.4
          0.4 0.4 0.4 0.4 0.4 0.4 0.4 0.4 0.4 0.4 0.4 0.4
          0.4 0.4 0.4 0.4 0.4 0.4 0.4 0.4 0.4 0.4 0.4 0.4
          0.4 0.4 0.4 0.4
        </DataArray>
        <DataArray type="Float32" Name="temperature" NumberOfComponents="1" format="ascii">
          283.15 283.15 283.15 283.15 283.15 283.15 283.15 283.15 283.15 283.15 283.15 283.15
          283.15 283.15 283.15 283.15 283.15 283.15 283.15 283.15 283.15 283.15 283.15 283.15
          283.15 283.15 283.15 283.15 283.15 283.15 283.15 283.15 283.15 283.15 283.15 283.15
          283.15 283.15 283.15 283.15 283.15 283.15 283.15 283.15 283.15 283.15 283.15 283.15
          283.15 283.15 283.15 283.15 283.15 283.15 283.15 283.15 283.15 283.15 283.15 283.15
          283.15 283.15 283.15 283.15 283.15 283.15 283.15 283.15 283.15 283.15 283.15 283.15