<?xml version="1.0"?>
<VTKFile type="UnstructuredGrid" version="0.1" byte_order="LittleEndian">
  <UnstructuredGrid>
    <Piece NumberOfCells="160" NumberOfPoints="205">
      <PointData Scalars="Sw">
        <DataArray type="Float32" Name="Sw" NumberOfComponents="1" format="ascii">
          0.97 0.970038 0.97 0.970049 0.970058 0.970071 0.970082 0.970102 0.97011 0.970117 0.970231 0.970302
          0.970253 0.970329 0.970178 0.970198 0.970196 0.970238 0.970216 0.970262 0.970236 0.970287 0.970257 0.970312
          0.970278 0.970337 0.970299 0.970362 0.97032 0.970387 0.970341 0.970413 0.970362 0.970438 0.970383 0.970463
          0.970404 0.970489 0.970425 0.970514 0.970447 0.970541 0.970469 0.970571 0.970483 0.970588 0.970481 0.970583
          0.97048 0.97058 0.970479 0.970578 0.970478 0.970578 0.970478 0.970577 0.970477 0.970576 0.970477 0.970576
          0.970476 0.970575 0.970476 0.970575 0.970475 0.970574 0.970475 0.970574 0.970475 0.970574 0.970475 0.970575
          0.970476 0.970579 0.970476 0.970587 0.970472 0.970599 0.970439 0.970594 0.97 0.97 0.97 0.96463
          0.969795 0.969876 0.968824 0.969416 0.969409 0.968942 0.969693 0.969659 0.96962 0.969581 0.969541 0.969502
          0.969463 0.969425 0.969387 0.969349 0.969268 0.969038 0.968206 0.965314 0.956668 0.940062 0.919201 0.896066
          0.871624 0.846185 0.819924 0.793399 0.766522 0.739563 0.712385 0.685835 0.659681 0.633245 0.606509 0.575917
          0.537916 0.48426 0.519531 0.12 0.12 0.12 0.12 0.12 0.120001 0.120001 0.12 0.12
          0.12 0.12 0.12 0.12 0.12 0.12 0.12 0.12 0.12 0.12 0.12 0.12
          0.12 0.12 0.12 0.12 0.12 0.12 0.12 0.12 0.12 0.12 0.12 0.12
          0.12 0.12 0.12 0.12 0.12 0.12 0.12 0.12 0.12 0.12 0.12 0.12
          0.12 0.120001 0.120001 0.12 0.12 0.12 0.12 0.12 0.12 0.12 0.12 0.12
          0.12 0.12 0.12 0.12 0.12 0.12 0.12 0.12 0.12 0.12 0.12 0.12
          0.12 0.12 0.12 0.12 0.12 0.12 0.12 0.12 0.12 0.12 0.12 0.12
          0.12
        </DataArray>
        <DataArray type="Float32" Name="Sn" NumberOfComponents="1" format="ascii">
          0 0 0 0 0 0 0 0 0 0 0 0
          0 0 0 0 0 0 0 0 0 0 0 0
          0 0 0 0 0 0 0 0 0 0 0 0
          0 0 0 0 0 0 0 0 0 0 0 0
          0 0 0 0 0 0 0 0 0 0 0 0
          0 0 0 0 0 0 0 0 0 0 0 0
          0 0 0 0 0 0 0 0 0 0 0 0
          0 0 0 0.000535532 0.00053554 0 0 0 0 0 0 0
          0 0 0 0 0 0 0 0 0 0 0 0
          0 0 0 0 0 0 0 0 0 0 0 0
          0 0 0 0 0 0 0 0 0.0496194 0.0496194 0 0
          0 0 0 0 0 0 0 0 0 0 0 0
          0 0 0 0 0 0 0 0 0 0 0 0
          0 0 0 0 0 0 0 0 0 0 0 0
          0.000575043 0.134979 0.134979 0.000574878 0 0 0 0 0 0 0 0
          0 0 0 0 0 0 0 0 0 0 0 0
          0 0 0 0 0 0 0 0 0 0 0 0
          0
        </DataArray>
        <DataArray type="Float32" Name="Sg" NumberOfComponents="1" format="ascii">
          0.03 0.0299618 0.03 0.0299513 0.0299424 0.0299287 0.0299178 0.0298982 0.0298896 0.0298829 0.0297693 0.0296977
          0.0297469 0.0296708 0.029822 0.029802 0.029804 0.0297616 0.0297841 0.0297375 0.0297638 0.0297133 0.029743 0.0296883
          0.0297221 0.0296632 0.0297011 0.029638 0.0296801 0.0296127 0.0296591 0.0295874 0.029638 0.0295621 0.029617 0.0295368
          0.0295958 0.0295113 0.0295746 0.0294856 0.0295529 0.0294588 0.0295307 0.029429 0.0295175 0.0294118 0.029519 0.0294174
          0.0295203 0.0294201 0.0295212 0.0294216 0.0295218 0.0294222 0.0295224 0.0294229 0.0295231 0.0294238 0.0295234 0.0294241
          0.0295239 0.0294245 0.0295242 0.0294248 0.0295249 0.0294259 0.0295251 0.0294259 0.0295251 0.0294255 0.0295253 0.029425
          0.0295244 0.029421 0.029524 0.0294129 0.0295276 0.0294007 0.0295606 0.0294058 0.03 0.03 0.03 0.0353699
          0.0302053 0.0301236 0.0311758 0.0300481 0.0300553 0.0310582 0.0303072 0.0303414 0.0303798 0.0304186 0.030459 0.0304985
          0.0305368 0.0305747 0.0306126 0.0306512 0.0307324 0.0309616 0.0317941 0.0346859 0.043332 0.0599382 0.0807994 0.103934
          0.128376 0.153815 0.180076 0.206601 0.233479 0.260437 0.287615 0.314165 0.340319 0.366755 0.393491 0.424083
          0.462084 0.51574 0.480469 0.88 0.88 0.88 0.88 0.88 0.83038 0.83038 0.88 0.88
          0.88 0.88 0.88 0.88 0.88 0.88 0.88 0.88 0.88 0.88 0.88 0.88
          0.88 0.88 0.88 0.88 0.88 0.88 0.88 0.88 0.88 0.88 0.88 0.88
          0.88 0.88 0.88 0.88 0.88 0.88 0.88 0.88 0.88 0.88 0.88 0.88
          0.879425 0.745021 0.745021 0.879425 0.88 0.88 0.88 0.88 0.88 0.88 0.88 0.88
          0.88 0.88 0.88 0.88 0.88 0.88 0.88 0.88 0.88 0.88 0.88 0.88
          0.88 0.88 0.88 0.88 0.88 0.88 0.88 0.88 0.88 0.88 0.88 0.88
          0.88
        </DataArray>
        <DataArray type="Float32" Name="pw" NumberOfComponents="1" format="ascii">
          147725 147744 123200 123227 147757 123238 147764 123246 147786 123262 147973 123460
          147974 123460 147788 123264 147772 123254 147769 123251 147765 123246 147761 123243
          147758 123239 147754 123236 147751 123233 147748 123229 147745 123226 147742 123223
          147738 123220 147735 123216 147729 123211 147716 123198 147687 123169 147636 123118
          147576 123058 147514 122995 147450 122932 147387 122868 147323 122805 147260 122742
          147197 122679 147134 122615 147071 122552 147008 122489 146944 122426 146877 122359
          146800 122282 146690 122174 146493 121977 146086 121579 145273 120748 98675.2 98710.8
          98719.4 98730.7 98726.1 98957.4 98958.3 98728.5 98738.2 98732.1 98728.4 98724.6 98721.1 98717.7
          98714.4 98711.2 98708.1 98705 98701.9 98698.5 98693.1 98681.3 98652 98600.5 98540.2 98477.1
          98413.7 98350.2 98286.5 98223.5 98160.5 98097.5 98033.9 97971.1 97908.4 97843.7 97776.6 97697.9
          97595.7 97448.3 97547 87075.5 87088.2 87092 87096.3 87101.9 83282.2 83283.4 87105.1 87100.9
          87098.6 87095.9 87093.3 87090.7 87088 87085.3 87082.6 87080 87077.3 87074.6 87071.8 87069.1
          87066.5 87063.9 87061.5 87059.2 87056.9 87054.7 87052.5 87050.5 87048.5 87046.7 87045 87043.4
          87042 87040.7 87039.6 87038.9 87039.2 87042 87051.1 87075.5 87075.5 87053.6 87062.6 87066.3
          87071.1 83220.1 83221.3 87074.3 87071.1 87068.5 87065.9 87063.3 87060.6 87058 87055.3 87052.6
          87049.9 87047.2 87044.5 87041.8 87039.1 87036.5 87033.9 87031.5 87029.1 87026.9 87024.6 87022.5
          87020.5 87018.5 87016.7 87015 87013.4 87011.9 87010.7 87009.6 87009 87009.2 87012.7 87017.2
          87075.5
        </DataArray>
        <DataArray type="Float32" Name="pn" NumberOfComponents="1" format="ascii">
          147725 147744 123200 123227 147757 123238 147764 123246 147786 123262 147973 123460
          147974 123460 147788 123264 147772 123254 147769 123251 147765 123246 147761 123243
          147758 123239 147754 123236 147751 123233 147748 123229 147745 123226 147742 123223
          147738 123220 147735 123216 147729 123211 147716 123198 147687 123169 147636 123118
          147576 123058 147514 122995 147450 122932 147387 122868 147323 122805 147260 122742
          147197 122679 147134 122615 147071 122552 147008 122489 146944 122426 146877 122359
          146800 122282 146690 122174 146493 121977 146086 121579 145273 120748 98675.2 98710.8
          98719.4 98730.7 98726.1 98957.4 98958.3 98728.5 98738.2 98732.1 98728.4 98724.6 98721.1 98717.7
          98714.4 98711.2 98708.1 98705 98701.9 98698.5 98693.1 98681.3 98652 98600.5 98540.2 98477.1
          98413.7 98350.2 98286.5 98223.5 98160.5 98097.5 98033.9 97971.1 97908.4 97843.7 97776.6 97697.9
          97595.7 97448.3 97547 87075.5 87088.2 87092 87096.3 87101.9 92571.2 92572.3 87105.1 87100.9
          87098.6 87095.9 87093.3 87090.7 87088 87085.3 87082.6 87080 87077.3 87074.6 87071.8 87069.1
          87066.5 87063.9 87061.5 87059.2 87056.9 87054.7 87052.5 87050.5 87048.5 87046.7 87045 87043.4
          87042 87040.7 87039.6 87038.9 87039.2 87042 87051.1 87075.5 87075.5 87053.6 87062.6 87066.3
          87071.1 96324.5 96325.6 87074.3 87071.1 87068.5 87065.9 87063.3 87060.6 87058 87055.3 87052.6
          87049.9 87047.2 87044.5 87041.8 87039.1 87036.5 87033.9 87031.5 87029.1 87026.9 87024.6 87022.5
          87020.5 87018.5 87016.7 87015 87013.4 87011.9 87010.7 87009.6 87009 87009.2 87012.7 87017.2
          87075.5
        </DataArray>
        <DataArray type="Float32" Name="pg" NumberOfComponents="1" format="ascii">
          149050 149068 124525 124551 149081 124563 149089 124571 149110 124586 149297 124783
          149298 124784 149113 124589 149096 124578 149093 124574 149089 124570 149085 124567
          149082 124563 149078 124559 149075 124556 149072 124553 149068 124550 149065 124546
          149062 124543 149058 124540 149053 124534 149040 124521 149010 124491 148960 124441
          148900 124381 148837 124318 148773 124255 148710 124191 148646 124128 148583 124065
          148520 124002 148457 123938 148394 123875 148331 123812 148267 123749 148200 123682
          148123 123605 148014 123497 147816 123300 147409 122902 146598 122072 100000 100053
          100045 100056 100055 100284 100285 100057 100064 100058 100054 100051 100047 100044
          100041 100038 100035 100032 100029 100026 100024 100021 100018 100016 100014 100011
          100009 100007 100005 100003 100001 99999.5 99997.9 99996.5 99995.2 99994.1 99993.4 99993.7
          99995.6 100010 100000 100000 100013 100017 100021 100026 100011 100012 100029 100025
          100023 100020 100018 100015 100013 100010 100007 100004 100002 99999.1 99996.4 99993.7
          99991 99988.5 99986 99983.7 99981.4 99979.2 99977 99975 99973 99971.2 99969.5 99967.9
          99966.5 99965.2 99964.1 99963.5 99963.7 99966.5 99975.6 100000 100000 99978.1 99987.1 99990.8
          99995.5 99981.5 99982.7 99998.7 99995.6 99993.1 99990.4 99987.8 99985.2 99982.5 99979.8 99977.1
          99974.5 99971.8 99969.1 99966.4 99963.7 99961 99958.5 99956 99953.7 99951.4 99949.2 99947
          99945 99943 99941.2 99939.5 99937.9 99936.5 99935.2 99934.1 99933.5 99933.7 99937.2 99941.7
          100000
        </DataArray>
        <DataArray type="Float32" Name="rhow" NumberOfComponents="1" format="ascii">
          999.74 999.741 999.726 999.726 999.741 999.726 999.741 999.726 999.741 999.726 999.741 999.726
          999.741 999.726 999.741 999.726 999.741 999.726 999.741 999.726 999.741 999.726 999.741 999.726
          999.741 999.726 999.741 999.726 999.741 999.726 999.741 999.726 999.741 999.726 999.741 999.726
          999.741 999.726 999.74 999.726 999.74 999.726 999.74 999.726 999.74 999.726 999.74 999.726
          999.74 999.726 999.74 999.726 999.74 999.726 999.74 999.726 999.74 999.726 999.74 999.726
          999.74 999.726 999.74 999.726 999.74 999.726 999.74 999.726 999.74 999.726 999.74 999.726
          999.74 999.726 999.74 999.725 999.74 999.725 999.74 999.725 999.739 999.725 999.712 999.712
          999.712 999.712 999.712 999.731 999.731 999.712 999.712 999.712 999.712 999.712 999.712 999.712
          999.712 999.712 999.712 999.712 999.712 999.712 999.712 999.712 999.712 999.712 999.711 999.711
          999.711 999.711 999.711 999.711 999.711 999.711 999.711 999.711 999.711 999.711 999.711 999.711
          999.711 999.711 999.711 999.706 999.706 999.706 999.706 999.724 999.723 999.723 999.724 999.706
          999.706 999.706 999.706 999.706 999.706 999.706 999.706 999.706 999.706 999.706 999.706 999.706
          999.706 999.706 999.706 999.706 999.706 999.706 999.706 999.706 999.706 999.706 999.706 999.706
          999.706 999.706 999.706 999.706 999.706 999.706 999.706 999.706 999.706 999.706 999.706 999.707
          999.725 999.723 999.723 999.725 999.707 999.706 999.706 999.706 999.706 999.706 999.706 999.706
          999.706 999.706 999.706 999.706 999.706 999.706 999.706 999.706 999.706 999.706 999.706 999.706
          999.706 999.706 999.706 999.706 999.706 999.706 999.706 999.706 999.706 999.706 999.706 999.706
          999.706
        </DataArray>
        <DataArray type="Float32" Name="rhon" NumberOfComponents="1" format="ascii">
          878.771 878.771 878.771 878.771 878.771 878.771 878.771 878.771 878.771 878.771 878.771 878.771
          878.771 878.771 878.771 878.771 878.771 878.771 878.771 878.771 878.771 878.771 878.771 878.771
          878.771 878.771 878.771 878.771 878.771 878.771 878.771 878.771 878.771 878.771 878.771 878.771
          878.771 878.771 878.771 878.771 878.771 878.771 878.771 878.771 878.771 878.771 878.771 878.771
          878.771 878.771 878.771 878.771 878.771 878.771 878.771 878.771 878.771 878.771 878.771 878.771
          878.771 878.771 878.771 878.771 878.771 878.771 878.771 878.771 878.771 878.771 878.771 878.771
          878.771 878.771 878.771 878.771 878.771 878.771 878.771 878.771 878.771 878.771 878.771 878.771
          878.771 878.771 878.771 878.771 878.771 878.771 878.771 878.771 878.771 878.771 878.771 878.771
          878.771 878.771 878.771 878.771 878.771 878.771 878.771 878.771 878.771 878.771 878.771 878.771
          878.771 878.771 878.771 878.771 878.771 878.771 878.771 878.771 878.771 878.771 878.771 878.771
          878.771 878.771 878.771 878.771 878.771 878.771 878.771 878.771 878.771 878.771 878.771 878.771
          878.771 878.771 878.771 878.771 878.771 878.771 878.771 878.771 878.771 878.771 878.771 878.771
          878.771 878.771 878.771 878.771 878.771 878.771 878.771 878.771 878.771 878.771 878.771 878.771
          878.771 878.771 878.771 878.771 878.771 878.771 878.771 878.771 878.771 878.771 878.771 878.771
          878.771 878.771 878.771 878.771 878.771 878.771 878.771 878.771 878.771 878.771 878.771 878.771
          878.771 878.771 878.771 878.771 878.771 878.771 878.771 878.771 878.771 878.771 878.771 878.771
          878.771 878.771 878.771 878.771 878.771 878.771 878.771 878.771 878.771 878.771 878.771 878.771
          878.771
        </DataArray>
        <DataArray type="Float32" Name="rhog" NumberOfComponents="1" format="ascii">
          1.8278 1.82802 1.52611 1.52643 1.82818 1.52657 1.82827 1.52667 1.82854 1.52686 1.83084 1.52933
          1.83085 1.52934 1.82857 1.52689 1.82836 1.52676 1.82833 1.52672 1.82828 1.52667 1.82823 1.52662
          1.82819 1.52658 1.82814 1.52653 1.8281 1.52649 1.82806 1.52645 1.82802 1.52641 1.82798 1.52637
          1.82794 1.52633 1.8279 1.52629 1.82783 1.52622 1.82767 1.52606 1.8273 1.5257 1.82669 1.52508
          1.82595 1.52434 1.82518 1.52356 1.8244 1.52278 1.82361 1.522 1.82283 1.52122 1.82206 1.52045
          1.82128 1.51967 1.82051 1.51889 1.81973 1.51811 1.81895 1.51734 1.81817 1.51656 1.81735 1.51574
          1.8164 1.5148 1.81505 1.51346 1.81262 1.51104 1.80761 1.50614 1.79763 1.49594 1.22442 1.22507
          1.22497 1.22511 1.22511 1.23227 1.23228 1.22514 1.22521 1.22514 1.22509 1.22505 1.225 1.22496
          1.22493 1.22489 1.22485 1.22481 1.22478 1.22475 1.22471 1.22468 1.22465 1.22462 1.22459 1.22456
          1.22454 1.22451 1.22448 1.22446 1.22444 1.22442 1.2244 1.22438 1.22436 1.22435 1.22434 1.22434
          1.22437 1.22454 1.22442 1.22442 1.22458 1.22463 1.22477 1.22892 1.22891 1.22892 1.22892 1.22479
          1.22471 1.22467 1.22464 1.22461 1.22458 1.22454 1.22451 1.22448 1.22444 1.22441 1.22438 1.22434
          1.22431 1.22428 1.22425 1.22422 1.22419 1.22417 1.22414 1.22411 1.22409 1.22407 1.22405 1.22403
          1.22401 1.22399 1.22398 1.22397 1.22398 1.22401 1.22412 1.22442 1.22442 1.22415 1.22427 1.22457
          1.22872 1.22855 1.22856 1.22876 1.22454 1.22434 1.2243 1.22427 1.22424 1.22421 1.22417 1.22414
          1.22411 1.22407 1.22404 1.22401 1.22397 1.22394 1.22391 1.22388 1.22385 1.22382 1.2238 1.22377
          1.22375 1.22372 1.2237 1.22368 1.22366 1.22364 1.22362 1.22361 1.2236 1.22361 1.22365 1.2237
          1.22442
        </DataArray>
        <DataArray type="Float32" Name="x^w_H2O" NumberOfComponents="1" format="ascii">
          0.999973 0.999973 0.999977 0.999977 0.999973 0.999977 0.999973 0.999977 0.999973 0.999977 0.999973 0.999977
          0.999973 0.999977 0.999973 0.999977 0.999973 0.999977 0.999973 0.999977 0.999973 0.999977 0.999973 0.999977
          0.999973 0.999977 0.999973 0.999977 0.999973 0.999977 0.999973 0.999977 0.999973 0.999977 0.999973 0.999977
          0.999973 0.999977 0.999973 0.999977 0.999973 0.999977 0.999973 0.999977 0.999973 0.999977 0.999973 0.999977
          0.999973 0.999977 0.999973 0.999977 0.999973 0.999977 0.999973 0.999977 0.999973 0.999977 0.999973 0.999977
          0.999973 0.999977 0.999973 0.999977 0.999973 0.999977 0.999973 0.999977 0.999973 0.999977 0.999973 0.999977
          0.999973 0.999977 0.999973 0.999977 0.999973 0.999978 0.999973 0.999978 0.999973 0.999978 0.999982 0.999982
          0.999982 0.999982 0.999982 0.999978 0.999978 0.999982 0.999982 0.999982 0.999982 0.999982 0.999982 0.999982
          0.999982 0.999982 0.999982 0.999982 0.999982 0.999982 0.999982 0.999982 0.999982 0.999982 0.999982 0.999982
          0.999982 0.999982 0.999982 0.999982 0.999982 0.999982 0.999982 0.999982 0.999982 0.999982 0.999982 0.999982
          0.999982 0.999982 0.999982 0.999982 0.999982 0.999982 0.999982 0.999979 0.999978 0.999978 0.999979 0.999982
          0.999982 0.999982 0.999982 0.999982 0.999982 0.999982 0.999982 0.999982 0.999982 0.999982 0.999982 0.999982
          0.999982 0.999982 0.999982 0.999982 0.999982 0.999982 0.999982 0.999982 0.999982 0.999982 0.999982 0.999982
          0.999982 0.999982 0.999982 0.999982 0.999982 0.999982 0.999982 0.999982 0.999982 0.999982 0.999982 0.999982
          0.999978 0.999978 0.999978 0.999978 0.999982 0.999982 0.999982 0.999982 0.999982 0.999982 0.999982 0.999982
          0.999982 0.999982 0.999982 0.999982 0.999982 0.999982 0.999982 0.999982 0.999982 0.999982 0.999982 0.999982
          0.999982 0.999982 0.999982 0.999982 0.999982 0.999982 0.999982 0.999982 0.999982 0.999982 0.999982 0.999982
          0.999982
        </DataArray>
        <DataArray type="Float32" Name="x^w_mesitylene" NumberOfComponents="1" format="ascii">
          4.50629e-09 4.50268e-09 3.76482e-09 3.7613e-09 4.50226e-09 3.76085e-09 4.50047e-09 3.75903e-09 4.49962e-09 3.9344e-09 4.65788e-09 3.77412e-08
          4.6555e-09 3.76896e-08 4.4941e-09 3.92685e-09 4.49121e-09 3.74972e-09 4.48962e-09 3.74801e-09 4.48785e-09 3.74626e-09 4.486e-09 3.74441e-09
          4.48416e-09 3.74255e-09 4.48231e-09 3.7407e-09 4.48047e-09 3.73884e-09 4.47862e-09 3.73699e-09 4.47678e-09 3.73513e-09 4.47493e-09 3.73328e-09
          4.47307e-09 3.7314e-09 4.47116e-09 3.72946e-09 4.46903e-09 3.72722e-09 4.46631e-09 3.7241e-09 4.46413e-09 3.72175e-09 4.46334e-09 3.72147e-09
          4.46188e-09 3.72014e-09 4.46014e-09 3.71845e-09 4.45829e-09 3.7166e-09 4.45643e-09 3.71474e-09 4.45459e-09 3.71293e-09 4.45273e-09 3.71104e-09
          4.45087e-09 3.70919e-09 4.44899e-09 3.7073e-09 4.44718e-09 3.70552e-09 4.44529e-09 3.70361e-09 4.44332e-09 3.7016e-09 4.44115e-09 3.69936e-09
          4.4381e-09 3.69599e-09 4.43293e-09 3.68999e-09 4.4225e-09 3.67788e-09 4.40324e-09 3.65569e-09 4.43214e-09 3.69067e-09 3.02334e-09 3.0234e-09
          3.02349e-09 3.02447e-09 1.61236e-08 3.40605e-06 3.40605e-06 1.58541e-08 3.02434e-09 3.02346e-09 3.02339e-09 3.02337e-09 3.02337e-09 3.02336e-09
          3.02336e-09 3.02336e-09 3.02336e-09 3.02336e-09 3.02335e-09 3.02335e-09 3.02335e-09 3.02335e-09 3.02335e-09 3.02335e-09 3.02335e-09 3.02336e-09
          3.02335e-09 3.02335e-09 3.0234e-09 3.02335e-09 3.02335e-09 3.02334e-09 3.02339e-09 3.02333e-09 3.02332e-09 3.02332e-09 3.02331e-09 3.02332e-09
          3.02333e-09 3.02359e-09 3.02334e-09 3.02334e-09 3.10207e-09 5.06238e-09 7.6557e-08 3.26846e-06 3.40605e-06 3.40605e-06 3.23653e-06 4.26149e-08
          3.59319e-09 3.0317e-09 3.0238e-09 3.02364e-09 3.02359e-09 3.02354e-09 3.02348e-09 3.02343e-09 3.02338e-09 3.02332e-09 3.02327e-09 3.02321e-09
          3.02316e-09 3.02311e-09 3.02306e-09 3.02301e-09 3.02297e-09 3.02292e-09 3.02288e-09 3.02284e-09 3.0228e-09 3.02277e-09 3.02273e-09 3.0227e-09
          3.02267e-09 3.02265e-09 3.02263e-09 3.02261e-09 3.02262e-09 3.02268e-09 3.02278e-09 3.02334e-09 3.02334e-09 3.24074e-09 9.00985e-09 2.04641e-07
          3.40605e-06 3.40605e-06 3.40605e-06 3.40605e-06 1.35423e-07 5.78813e-09 3.07294e-09 3.02389e-09 3.02306e-09 3.02299e-09 3.02294e-09 3.02288e-09
          3.02283e-09 3.02278e-09 3.02272e-09 3.02267e-09 3.02261e-09 3.02256e-09 3.02251e-09 3.02246e-09 3.02241e-09 3.02237e-09 3.02233e-09 3.02228e-09
          3.02224e-09 3.0222e-09 3.02217e-09 3.02213e-09 3.0221e-09 3.02207e-09 3.02205e-09 3.02203e-09 3.02201e-09 3.02201e-09 3.02202e-09 3.02178e-09
          3.02334e-09
        </DataArray>
        <DataArray type="Float32" Name="x^w_Air" NumberOfComponents="1" format="ascii">
          2.72214e-05 2.72248e-05 2.27051e-05 2.27099e-05 2.72271e-05 2.2712e-05 2.72285e-05 2.27136e-05 2.72325e-05 2.27164e-05 2.72669e-05 2.27525e-05
          2.7267e-05 2.27526e-05 2.72329e-05 2.27168e-05 2.72298e-05 2.27149e-05 2.72293e-05 2.27142e-05 2.72286e-05 2.27135e-05 2.72279e-05 2.27128e-05
          2.72272e-05 2.27121e-05 2.72266e-05 2.27115e-05 2.72259e-05 2.27108e-05 2.72253e-05 2.27102e-05 2.72248e-05 2.27096e-05 2.72242e-05 2.27091e-05
          2.72236e-05 2.27085e-05 2.72229e-05 2.27078e-05 2.72219e-05 2.27068e-05 2.72195e-05 2.27044e-05 2.7214e-05 2.26989e-05 2.72047e-05 2.26896e-05
          2.71937e-05 2.26786e-05 2.71821e-05 2.2667e-05 2.71705e-05 2.26553e-05 2.71588e-05 2.26436e-05 2.71471e-05 2.26319e-05 2.71354e-05 2.26203e-05
          2.71238e-05 2.26087e-05 2.71122e-05 2.25971e-05 2.71006e-05 2.25854e-05 2.7089e-05 2.25738e-05 2.70772e-05 2.25621e-05 2.70649e-05 2.25498e-05
          2.70508e-05 2.25357e-05 2.70306e-05 2.25157e-05 2.69941e-05 2.24796e-05 2.69192e-05 2.24062e-05 2.67698e-05 2.22535e-05 1.81888e-05 1.81985e-05
          1.81971e-05 1.81991e-05 1.81988e-05 1.82204e-05 1.82206e-05 1.81992e-05 1.82006e-05 1.81995e-05 1.81988e-05 1.81982e-05 1.81976e-05 1.81969e-05
          1.81964e-05 1.81958e-05 1.81953e-05 1.81947e-05 1.81942e-05 1.81937e-05 1.81932e-05 1.81927e-05 1.81922e-05 1.81918e-05 1.81914e-05 1.81909e-05
          1.81905e-05 1.81901e-05 1.81898e-05 1.81894e-05 1.81891e-05 1.81887e-05 1.81884e-05 1.81882e-05 1.81879e-05 1.81878e-05 1.81876e-05 1.81877e-05
          1.8188e-05 1.81907e-05 1.81888e-05 1.81888e-05 1.81912e-05 1.81919e-05 1.81922e-05 1.81738e-05 1.81701e-05 1.81703e-05 1.81746e-05 1.81933e-05
          1.81931e-05 1.81926e-05 1.81921e-05 1.81916e-05 1.81911e-05 1.81906e-05 1.81901e-05 1.81897e-05 1.81892e-05 1.81887e-05 1.81882e-05 1.81877e-05
          1.81872e-05 1.81867e-05 1.81863e-05 1.81858e-05 1.81854e-05 1.8185e-05 1.81846e-05 1.81842e-05 1.81839e-05 1.81835e-05 1.81832e-05 1.81829e-05
          1.81827e-05 1.81824e-05 1.81822e-05 1.81821e-05 1.81822e-05 1.81827e-05 1.81843e-05 1.81888e-05 1.81888e-05 1.81848e-05 1.81864e-05 1.81859e-05
          1.81673e-05 1.81647e-05 1.81649e-05 1.81679e-05 1.81872e-05 1.81875e-05 1.81871e-05 1.81866e-05 1.81861e-05 1.81856e-05 1.81851e-05 1.81846e-05
          1.81841e-05 1.81836e-05 1.81831e-05 1.81826e-05 1.81821e-05 1.81816e-05 1.81812e-05 1.81807e-05 1.81803e-05 1.81799e-05 1.81795e-05 1.81791e-05
          1.81787e-05 1.81783e-05 1.8178e-05 1.81777e-05 1.81774e-05 1.81771e-05 1.81769e-05 1.81767e-05 1.81766e-05 1.81766e-05 1.81773e-05 1.81781e-05
          1.81888e-05
        </DataArray>
        <DataArray type="Float32" Name="x^n_H2O" NumberOfComponents="1" format="ascii">
          1e-10 1e-10 1e-10 1e-10 1e-10 1e-10 1e-10 1e-10 1e-10 1e-10 1e-10 1e-10
          1e-10 1e-10 1e-10 1e-10 1e-10 1e-10 1e-10 1e-10 1e-10 1e-10 1e-10 1e-10
          1e-10 1e-10 1e-10 1e-10 1e-10 1e-10 1e-10 1e-10 1e-10 1e-10 1e-10 1e-10
          1e-10 1e-10 1e-10 1e-10 1e-10 1e-10 1e-10 1e-10 1e-10 1e-10 1e-10 1e-10
          1e-10 1e-10 1e-10 1e-10 1e-10 1e-10 1e-10 1e-10 1e-10 1e-10 1e-10 1e-10
          1e-10 1e-10 1e-10 1e-10 1e-10 1e-10 1e-10 1e-10 1e-10 1e-10 1e-10 1e-10
          1e-10 1e-10 1e-10 1e-10 1e-10 1e-10 1e-10 1e-10 1e-10 1e-10 1e-10 1e-10
          1e-10 1e-10 1e-10 1e-10 1e-10 1e-10 1e-10 1e-10 1e-10 1e-10 1e-10 1e-10
          1e-10 1e-10 1e-10 1e-10 1e-10 1e-10 1e-10 1e-10 1e-10 1e-10 1e-10 1e-10
          1e-10 1e-10 1e-10 1e-10 1e-10 1e-10 1e-10 1e-10 1e-10 1e-10 1e-10 1e-10
          1e-10 1e-10 1e-10 1e-10 1e-10 1e-10 1e-10 1e-10 1e-10 1e-10 1e-10 1e-10
          1e-10 1e-10 1e-10 1e-10 1e-10 1e-10 1e-10 1e-10 1e-10 1e-10 1e-10 1e-10
          1e-10 1e-10 1e-10 1e-10 1e-10 1e-10 1e-10 1e-10 1e-10 1e-10 1e-10 1e-10
          1e-10 1e-10 1e-10 1e-10 1e-10 1e-10 1e-10 1e-10 1e-10 1e-10 1e-10 1e-10
          1e-10 1e-10 1e-10 1e-10 1e-10 1e-10 1e-10 1e-10 1e-10 1e-10 1e-10 1e-10
          1e-10 1e-10 1e-10 1e-10 1e-10 1e-10 1e-10 1e-10 1e-10 1e-10 1e-10 1e-10
          1e-10 1e-10 1e-10 1e-10 1e-10 1e-10 1e-10 1e-10 1e-10 1e-10 1e-10 1e-10
          1e-10
        </DataArray>
        <DataArray type="Float32" Name="x^n_mesitylene" NumberOfComponents="1" format="ascii">
          0.00132302 0.00132196 0.00110533 0.0011043 0.00132184 0.00110417 0.00132131 0.00110363 0.00132107 0.00115512 0.00136753 0.0110806
          0.00136683 0.0110655 0.00131944 0.0011529 0.0013186 0.0011009 0.00131813 0.0011004 0.00131761 0.00109988 0.00131707 0.00109934
          0.00131653 0.00109879 0.00131598 0.00109825 0.00131544 0.0010977 0.0013149 0.00109716 0.00131436 0.00109662 0.00131382 0.00109607
          0.00131327 0.00109552 0.00131271 0.00109495 0.00131209 0.00109429 0.00131129 0.00109338 0.00131065 0.00109269 0.00131042 0.0010926
          0.00130999 0.00109222 0.00130947 0.00109172 0.00130893 0.00109118 0.00130839 0.00109063 0.00130785 0.0010901 0.0013073 0.00108954
          0.00130675 0.001089 0.0013062 0.00108844 0.00130567 0.00108792 0.00130511 0.00108736 0.00130454 0.00108677 0.0013039 0.00108611
          0.001303 0.00108512 0.00130149 0.00108336 0.00129843 0.00107981 0.00129277 0.00107329 0.00130125 0.00108356 0.000887638 0.000887655
          0.000887681 0.000887968 0.00473381 1 1 0.00465467 0.000887932 0.000887672 0.000887651 0.000887645 0.000887645 0.000887644
          0.000887643 0.000887643 0.000887642 0.000887642 0.000887641 0.000887641 0.000887641 0.000887641 0.000887641 0.000887641 0.000887641 0.000887642
          0.000887641 0.000887641 0.000887655 0.00088764 0.000887639 0.000887637 0.000887653 0.000887635 0.000887633 0.000887631 0.00088763 0.000887631
          0.000887635 0.00088771 0.000887638 0.000887638 0.000910751 0.00148629 0.0224768 0.959604 1 1 0.950229 0.0125115
          0.00105494 0.000890091 0.000887774 0.000887727 0.000887711 0.000887695 0.000887679 0.000887664 0.000887648 0.000887632 0.000887616 0.0008876
          0.000887585 0.00088757 0.000887556 0.000887542 0.000887528 0.000887516 0.000887503 0.000887491 0.00088748 0.000887469 0.000887459 0.00088745
          0.000887441 0.000887434 0.000887428 0.000887424 0.000887427 0.000887443 0.000887473 0.000887638 0.000887638 0.000951466 0.00264525 0.0600816
          1 1 1 1 0.0397596 0.00169936 0.000902199 0.0008878 0.000887554 0.000887535 0.000887519 0.000887503
          0.000887488 0.000887472 0.000887456 0.00088744 0.000887424 0.000887409 0.000887394 0.00088738 0.000887366 0.000887352 0.00088734 0.000887327
          0.000887315 0.000887304 0.000887293 0.000887283 0.000887274 0.000887265 0.000887258 0.000887252 0.000887248 0.000887247 0.000887249 0.000887178
          0.000887638
        </DataArray>
        <DataArray type="Float32" Name="x^n_Air" NumberOfComponents="1" format="ascii">
          1e-10 1e-10 1e-10 1e-10 1e-10 1e-10 1e-10 1e-10 1e-10 1e-10 1e-10 1e-10
          1e-10 1e-10 1e-10 1e-10 1e-10 1e-10 1e-10 1e-10 1e-10 1e-10 1e-10 1e-10
          1e-10 1e-10 1e-10 1e-10 1e-10 1e-10 1e-10 1e-10 1e-10 1e-10 1e-10 1e-10
          1e-10 1e-10 1e-10 1e-10 1e-10 1e-10 1e-10 1e-10 1e-10 1e-10 1e-10 1e-10
          1e-10 1e-10 1e-10 1e-10 1e-10 1e-10 1e-10 1e-10 1e-10 1e-10 1e-10 1e-10
          1e-10 1e-10 1e-10 1e-10 1e-10 1e-10 1e-10 1e-10 1e-10 1e-10 1e-10 1e-10
          1e-10 1e-10 1e-10 1e-10 1e-10 1e-10 1e-10 1e-10 1e-10 1e-10 1e-10 1e-10
          1e-10 1e-10 1e-10 1e-10 1e-10 1e-10 1e-10 1e-10 1e-10 1e-10 1e-10 1e-10
          1e-10 1e-10 1e-10 1e-10 1e-10 1e-10 1e-10 1e-10 1e-10 1e-10 1e-10 1e-10
          1e-10 1e-10 1e-10 1e-10 1e-10 1e-10 1e-10 1e-10 1e-10 1e-10 1e-10 1e-10
          1e-10 1e-10 1e-10 1e-10 1e-10 1e-10 1e-10 1e-10 1e-10 1e-10 1e-10 1e-10
          1e-10 1e-10 1e-10 1e-10 1e-10 1e-10 1e-10 1e-10 1e-10 1e-10 1e-10 1e-10
          1e-10 1e-10 1e-10 1e-10 1e-10 1e-10 1e-10 1e-10 1e-10 1e-10 1e-10 1e-10
          1e-10 1e-10 1e-10 1e-10 1e-10 1e-10 1e-10 1e-10 1e-10 1e-10 1e-10 1e-10
          1e-10 1e-10 1e-10 1e-10 1e-10 1e-10 1e-10 1e-10 1e-10 1e-10 1e-10 1e-10
          1e-10 1e-10 1e-10 1e-10 1e-10 1e-10 1e-10 1e-10 1e-10 1e-10 1e-10 1e-10
          1e-10 1e-10 1e-10 1e-10 1e-10 1e-10 1e-10 1e-10 1e-10 1e-10 1e-10 1e-10
          1e-10
        </DataArray>
        <DataArray type="Float32" Name="x^g_H2O" NumberOfComponents="1" format="ascii">
          0.00824008 0.00823906 0.00986295 0.00986087 0.00823835 0.00985997 0.00823794 0.00985932 0.00823675 0.0098581 0.00822645 0.00984252
          0.00822641 0.00984246 0.00823661 0.00985791 0.00823754 0.00985876 0.00823769 0.00985903 0.00823793 0.00985936 0.00823813 0.00985966
          0.00823834 0.00985995 0.00823853 0.00986022 0.00823871 0.00986049 0.00823889 0.00986075 0.00823907 0.009861 0.00823924 0.00986125
          0.00823942 0.0098615 0.00823962 0.00986179 0.00823994 0.00986224 0.00824065 0.00986324 0.0082423 0.00986561 0.00824508 0.00986961
          0.00824839 0.00987437 0.00825188 0.00987936 0.0082554 0.0098844 0.00825892 0.00988946 0.00826245 0.00989453 0.00826596 0.00989955
          0.00826947 0.00990459 0.00827298 0.00990963 0.00827652 0.0099147 0.00828003 0.00991974 0.00828358 0.00992483 0.00828731 0.00993019