<?xml version="1.0"?>
<VTKFile type="UnstructuredGrid" version="0.1" byte_order="LittleEndian">
  <UnstructuredGrid>
    <Piece NumberOfCells="160" NumberOfPoints="205">
      <PointData Scalars="Sw">
        <DataArray type="Float32" Name="Sw" NumberOfComponents="1" format="ascii">
          0.97 0.970034 0.97 0.97004 0.970056 0.97007 0.97008 0.970099 0.970108 0.970114 0.970227 0.970298
          0.970249 0.970325 0.970175 0.970194 0.970193 0.970235 0.970213 0.970259 0.970233 0.970283 0.970254 0.970308
          0.970275 0.970333 0.970295 0.970358 0.970315 0.970383 0.970333 0.970408 0.97034 0.970415 0.970342 0.970414
          0.970342 0.970414 0.970342 0.970414 0.970341 0.970413 0.97034 0.970412 0.97034 0.970411 0.970339 0.970411
          0.970339 0.97041 0.970338 0.970409 0.970338 0.970409 0.970337 0.970408 0.970337 0.970408 0.970336 0.970407
          0.970336 0.970407 0.970335 0.970406 0.970335 0.970406 0.970335 0.970405 0.970335 0.970406 0.970335 0.970407
          0.970334 0.970408 0.970332 0.97041 0.970321 0.970407 0.970286 0.970385 0.97 0.97 0.97 0.966743
          0.969207 0.9698 0.96901 0.969249 0.969242 0.969171 0.969685 0.969649 0.969607 0.969516 0.969276 0.968776
          0.967631 0.965135 0.960216 0.95259 0.942587 0.93056 0.916654 0.901085 0.883976 0.865404 0.845455 0.824389
          0.802296 0.779063 0.755431 0.731114 0.706657 0.682175 0.657728 0.63334 0.609592 0.585945 0.5617 0.535395
          0.504986 0.466669 0.482422 0.12 0.12 0.12 0.12 0.12 0.120001 0.120001 0.12 0.12
          0.12 0.12 0.12 0.12 0.12 0.12 0.12 0.12 0.12 0.12 0.12 0.12
          0.12 0.12 0.12 0.12 0.12 0.12 0.12 0.12 0.12 0.12 0.12 0.12
          0.12 0.12 0.12 0.12 0.12 0.12 0.12 0.12 0.12 0.12 0.12 0.12
          0.12 0.120001 0.120001 0.12 0.12 0.12 0.12 0.12 0.12 0.12 0.12 0.12
          0.12 0.12 0.12 0.12 0.12 0.12 0.12 0.12 0.12 0.12 0.12 0.12
          0.12 0.12 0.12 0.12 0.12 0.12 0.12 0.12 0.12 0.12 0.12 0.12
          0.12
        </DataArray>
        <DataArray type="Float32" Name="Sn" NumberOfComponents="1" format="ascii">
          0 0 0 0 0 0 0 0 0 0 0 0
          0 0 0 0 0 0 0 0 0 0 0 0
          0 0 0 0 0 0 0 0 0 0 0 0
          0 0 0 0 0 0 0 0 0 0 0 0
          0 0 0 0 0 0 0 0 0 0 0 0
          0 0 0 0 0 0 0 0 0 0 0 0
          0 0 0 0 0 0 0 0 0 0 0 0
          0 0 0 0.00071391 0.00071391 0 0 0 0 0 0 0
          0 0 0 0 0 0 0 0 0 0 0 0
          0 0 0 0 0 0 0 0 0 0 0 0
          0 0 0 0 0 0 0 1.88277e-06 0.0498259 0.0498259 1.82023e-06 0
          0 0 0 0 0 0 0 0 0 0 0 0
          0 0 0 0 0 0 0 0 0 0 0 0
          0 0 0 0 0 0 0 0 0 0 0 0
          0.000560706 0.134219 0.134219 0.000560576 0 0 0 0 0 0 0 0
          0 0 0 0 0 0 0 0 0 0 0 0
          0 0 0 0 0 0 0 0 0 0 0 0
          0
        </DataArray>
        <DataArray type="Float32" Name="Sg" NumberOfComponents="1" format="ascii">
          0.03 0.0299661 0.03 0.0299603 0.0299444 0.0299301 0.0299198 0.0299006 0.029892 0.0298862 0.029773 0.0297018
          0.0297506 0.029675 0.0298246 0.0298056 0.0298066 0.0297647 0.0297869 0.029741 0.0297668 0.029717 0.0297462 0.0296921
          0.0297253 0.0296669 0.0297048 0.0296418 0.029685 0.0296167 0.0296668 0.0295923 0.0296598 0.0295853 0.0296585 0.0295856
          0.0296582 0.029586 0.0296583 0.0295862 0.0296591 0.0295874 0.0296597 0.0295882 0.0296603 0.0295888 0.0296609 0.0295894
          0.0296615 0.0295903 0.0296619 0.0295907 0.0296622 0.0295909 0.029663 0.0295921 0.0296633 0.0295922 0.029664 0.0295931
          0.0296643 0.0295935 0.0296646 0.0295937 0.0296649 0.0295941 0.0296654 0.0295946 0.0296653 0.0295942 0.0296652 0.0295932
          0.0296656 0.0295916 0.0296684 0.0295899 0.0296785 0.029593 0.0297139 0.0296151 0.03 0.03 0.03 0.0332575
          0.0307932 0.0301998 0.03099 0.0300376 0.0300437 0.0308294 0.0303146 0.0303514 0.0303926 0.0304841 0.0307239 0.0312236
          0.0323695 0.0348647 0.0397837 0.0474101 0.0574126 0.06944 0.083346 0.0989151 0.116024 0.134596 0.154545 0.175611
          0.197704 0.220937 0.244569 0.268886 0.293343 0.317825 0.342272 0.36666 0.390407 0.414055 0.438301 0.464605
          0.495014 0.533331 0.517578 0.88 0.88 0.88 0.88 0.879998 0.830173 0.830174 0.879998 0.88
          0.88 0.88 0.88 0.88 0.88 0.88 0.88 0.88 0.88 0.88 0.88 0.88
          0.88 0.88 0.88 0.88 0.88 0.88 0.88 0.88 0.88 0.88 0.88 0.88
          0.88 0.88 0.88 0.88 0.88 0.88 0.88 0.88 0.88 0.88 0.88 0.88
          0.879439 0.745781 0.745781 0.879439 0.88 0.88 0.88 0.88 0.88 0.88 0.88 0.88
          0.88 0.88 0.88 0.88 0.88 0.88 0.88 0.88 0.88 0.88 0.88 0.88
          0.88 0.88 0.88 0.88 0.88 0.88 0.88 0.88 0.88 0.88 0.88 0.88
          0.88
        </DataArray>
        <DataArray type="Float32" Name="pw" NumberOfComponents="1" format="ascii">
          148117 148128 123592 123611 148142 123624 148150 123632 148172 123648 148354 123840
          148354 123841 148174 123650 148157 123639 148154 123636 148150 123631 148145 123627
          148141 123622 148134 123616 148122 123604 148100 123582 148064 123546 148014 123496
          147957 123438 147896 123377 147833 123314 147770 123251 147706 123188 147643 123124
          147580 123061 147517 122998 147454 122935 147390 122872 147327 122809 147264 122746
          147201 122683 147139 122620 147076 122558 147013 122495 146950 122431 146883 122365
          146806 122288 146703 122185 146536 122019 146231 121720 145665 121140 99067.1 99093.9
          99105.5 99116.7 99112.6 99337.5 99338.3 99114.7 99123.7 99117.2 99113.1 99108.8 99104.2 99097.7
          99086.3 99065.1 99028.4 98978.3 98920.5 98859.3 98796.3 98733 98669.7 98606.4 98543.1 98480.1
          98417.2 98353.6 98290.9 98227.6 98164.9 98102.3 98039.7 97976.7 97914.3 97851 97784.5 97710.6
          97621.6 97510.6 97546.8 87622.4 87634.6 87637.7 87641.8 87646.4 83943.9 83944.7 87648.9 87645.1
          87642.9 87640.4 87637.9 87635.3 87632.7 87630.2 87627.7 87625.3 87623 87620.7 87618.4 87616.2
          87614 87611.9 87609.8 87607.8 87605.9 87604 87602.3 87600.6 87599.1 87597.7 87596.5 87595.4
          87594.4 87593.6 87593.1 87592.9 87593.7 87596.5 87603.9 87622.4 87622.4 87600 87608.4 87611.8
          87615.7 83936.8 83937.6 87618.1 87615.2 87612.8 87610.4 87607.9 87605.3 87602.7 87600.2 87597.7
          87595.3 87592.9 87590.6 87588.4 87586.2 87584 87581.8 87579.8 87577.8 87575.8 87574 87572.2
          87570.6 87569.1 87567.7 87566.5 87565.4 87564.4 87563.6 87563 87562.9 87563.6 87567.2 87569.9
          87622.4
        </DataArray>
        <DataArray type="Float32" Name="pn" NumberOfComponents="1" format="ascii">
          148117 148128 123592 123611 148142 123624 148150 123632 148172 123648 148354 123840
          148354 123841 148174 123650 148157 123639 148154 123636 148150 123631 148145 123627
          148141 123622 148134 123616 148122 123604 148100 123582 148064 123546 148014 123496
          147957 123438 147896 123377 147833 123314 147770 123251 147706 123188 147643 123124
          147580 123061 147517 122998 147454 122935 147390 122872 147327 122809 147264 122746
          147201 122683 147139 122620 147076 122558 147013 122495 146950 122431 146883 122365
          146806 122288 146703 122185 146536 122019 146231 121720 145665 121140 99067.1 99093.9
          99105.5 99116.7 99112.6 99337.5 99338.3 99114.7 99123.7 99117.2 99113.1 99108.8 99104.2 99097.7
          99086.3 99065.1 99028.4 98978.3 98920.5 98859.3 98796.3 98733 98669.7 98606.4 98543.1 98480.1
          98417.2 98353.6 98290.9 98227.6 98164.9 98102.3 98039.7 97976.7 97914.3 97851 97784.5 97710.6
          97621.6 97510.6 97546.8 87622.4 87634.6 87637.7 87641.8 87646.4 92754.1 92754.9 87648.9 87645.1
          87642.9 87640.4 87637.9 87635.3 87632.7 87630.2 87627.7 87625.3 87623 87620.7 87618.4 87616.2
          87614 87611.9 87609.8 87607.8 87605.9 87604 87602.3 87600.6 87599.1 87597.7 87596.5 87595.4
          87594.4 87593.6 87593.1 87592.9 87593.7 87596.5 87603.9 87622.4 87622.4 87600 87608.4 87611.8
          87615.7 96314.1 96315 87618.1 87615.2 87612.8 87610.4 87607.9 87605.3 87602.7 87600.2 87597.7
          87595.3 87592.9 87590.6 87588.4 87586.2 87584 87581.8 87579.8 87577.8 87575.8 87574 87572.2
          87570.6 87569.1 87567.7 87566.5 87565.4 87564.4 87563.6 87563 87562.9 87563.6 87567.2 87569.9
          87622.4
        </DataArray>
        <DataArray type="Float32" Name="pg" NumberOfComponents="1" format="ascii">
          149050 149061 124525 124543 149075 124556 149083 124565 149104 124580 149285 124771
          149285 124771 149105 124581 149089 124570 149085 124566 149081 124562 149076 124557
          149071 124552 149064 124545 149052 124534 149031 124512 148994 124475 148944 124425
          148887 124368 148826 124307 148763 124244 148700 124181 148636 124117 148573 124054
          148510 123991 148447 123928 148384 123865 148320 123801 148257 123738 148194 123675
          148132 123613 148069 123550 148006 123487 147943 123424 147880 123361 147813 123294
          147736 123218 147633 123115 147466 122949 147162 122650 146598 122072 100000 100052
          100045 100051 100053 100276 100277 100054 100059 100053 100049 100046 100043 100040
          100038 100035 100033 100031 100028 100026 100024 100022 100019 100017 100015 100013
          100012 100010 100008 100007 100005 100004 100003 100002 100001 100001 100000 100001
          100003 100016 100000 100000 100012 100015 100019 100024 100008 100009 100026 100023
          100020 100018 100015 100013 100010 100008 100005 100003 100001 99998.2 99996 99993.8
          99991.6 99989.4 99987.4 99985.4 99983.4 99981.6 99979.8 99978.2 99976.7 99975.3 99974.1 99973
          99972 99971.2 99970.6 99970.5 99971.2 99974.1 99981.5 100000 100000 99977.6 99985.9 99989.3
          99993.1 99978.7 99979.5 99995.5 99992.8 99990.4 99987.9 99985.4 99982.9 99980.3 99977.7 99975.3
          99972.9 99970.5 99968.2 99966 99963.7 99961.5 99959.4 99957.4 99955.3 99953.4 99951.6 99949.8
          99948.2 99946.7 99945.3 99944 99942.9 99942 99941.2 99940.6 99940.5 99941.2 99944.8 99947.4
          100000
        </DataArray>
        <DataArray type="Float32" Name="rhow" NumberOfComponents="1" format="ascii">
          999.741 999.741 999.726 999.726 999.741 999.726 999.741 999.726 999.741 999.726 999.741 999.727
          999.741 999.727 999.741 999.726 999.741 999.726 999.741 999.726 999.741 999.726 999.741 999.726
          999.741 999.726 999.741 999.726 999.741 999.726 999.741 999.726 999.741 999.726 999.741 999.726
          999.741 999.726 999.741 999.726 999.741 999.726 999.74 999.726 999.74 999.726 999.74 999.726
          999.74 999.726 999.74 999.726 999.74 999.726 999.74 999.726 999.74 999.726 999.74 999.726
          999.74 999.726 999.74 999.726 999.74 999.726 999.74 999.726 999.74 999.726 999.74 999.726
          999.74 999.725 999.74 999.725 999.74 999.725 999.74 999.725 999.739 999.725 999.712 999.712
          999.712 999.712 999.712 999.731 999.731 999.712 999.712 999.712 999.712 999.712 999.712 999.712
          999.712 999.712 999.712 999.712 999.712 999.712 999.712 999.712 999.712 999.712 999.711 999.711
          999.711 999.711 999.711 999.711 999.711 999.711 999.711 999.711 999.711 999.711 999.711 999.711
          999.711 999.711 999.711 999.706 999.706 999.706 999.707 999.726 999.724 999.724 999.726 999.707
          999.706 999.706 999.706 999.706 999.706 999.706 999.706 999.706 999.706 999.706 999.706 999.706
          999.706 999.706 999.706 999.706 999.706 999.706 999.706 999.706 999.706 999.706 999.706 999.706
          999.706 999.706 999.706 999.706 999.706 999.706 999.706 999.706 999.706 999.706 999.706 999.707
          999.726 999.724 999.724 999.726 999.707 999.706 999.706 999.706 999.706 999.706 999.706 999.706
          999.706 999.706 999.706 999.706 999.706 999.706 999.706 999.706 999.706 999.706 999.706 999.706
          999.706 999.706 999.706 999.706 999.706 999.706 999.706 999.706 999.706 999.706 999.706 999.706
          999.706
        </DataArray>
        <DataArray type="Float32" Name="rhon" NumberOfComponents="1" format="ascii">
          878.771 878.771 878.771 878.771 878.771 878.771 878.771 878.771 878.771 878.771 878.771 878.771
          878.771 878.771 878.771 878.771 878.771 878.771 878.771 878.771 878.771 878.771 878.771 878.771
          878.771 878.771 878.771 878.771 878.771 878.771 878.771 878.771 878.771 878.771 878.771 878.771
          878.771 878.771 878.771 878.771 878.771 878.771 878.771 878.771 878.771 878.771 878.771 878.771
          878.771 878.771 878.771 878.771 878.771 878.771 878.771 878.771 878.771 878.771 878.771 878.771
          878.771 878.771 878.771 878.771 878.771 878.771 878.771 878.771 878.771 878.771 878.771 878.771
          878.771 878.771 878.771 878.771 878.771 878.771 878.771 878.771 878.771 878.771 878.771 878.771
          878.771 878.771 878.771 878.771 878.771 878.771 878.771 878.771 878.771 878.771 878.771 878.771
          878.771 878.771 878.771 878.771 878.771 878.771 878.771 878.771 878.771 878.771 878.771 878.771
          878.771 878.771 878.771 878.771 878.771 878.771 878.771 878.771 878.771 878.771 878.771 878.771
          878.771 878.771 878.771 878.771 878.771 878.771 878.771 878.771 878.771 878.771 878.771 878.771
          878.771 878.771 878.771 878.771 878.771 878.771 878.771 878.771 878.771 878.771 878.771 878.771
          878.771 878.771 878.771 878.771 878.771 878.771 878.771 878.771 878.771 878.771 878.771 878.771
          878.771 878.771 878.771 878.771 878.771 878.771 878.771 878.771 878.771 878.771 878.771 878.771
          878.771 878.771 878.771 878.771 878.771 878.771 878.771 878.771 878.771 878.771 878.771 878.771
          878.771 878.771 878.771 878.771 878.771 878.771 878.771 878.771 878.771 878.771 878.771 878.771
          878.771 878.771 878.771 878.771 878.771 878.771 878.771 878.771 878.771 878.771 878.771 878.771
          878.771
        </DataArray>
        <DataArray type="Float32" Name="rhog" NumberOfComponents="1" format="ascii">
          1.8278 1.82793 1.52611 1.52633 1.8281 1.52649 1.8282 1.5266 1.82846 1.52678 1.83068 1.52918
          1.83069 1.52919 1.82848 1.5268 1.82827 1.52667 1.82823 1.52662 1.82817 1.52656 1.82812 1.52651
          1.82806 1.52645 1.82797 1.52636 1.82783 1.52621 1.82756 1.52595 1.82711 1.5255 1.8265 1.52488
          1.82579 1.52418 1.82504 1.52342 1.82427 1.52265 1.82349 1.52187 1.82271 1.52109 1.82193 1.52032
          1.82115 1.51954 1.82038 1.51876 1.8196 1.51799 1.81882 1.51721 1.81805 1.51643 1.81727 1.51566
          1.8165 1.51489 1.81573 1.51412 1.81496 1.51334 1.81418 1.51257 1.8134 1.51179 1.81258 1.51097
          1.81164 1.51003 1.81036 1.50876 1.80831 1.50672 1.80457 1.50305 1.79763 1.49594 1.22442 1.22506
          1.22497 1.22505 1.2251 1.23217 1.23219 1.22511 1.22515 1.22507 1.22503 1.22498 1.22495 1.22492
          1.22489 1.22486 1.22483 1.2248 1.22477 1.22474 1.22471 1.22469 1.22466 1.22464 1.22461 1.22459
          1.22456 1.22454 1.22452 1.2245 1.22449 1.22447 1.22446 1.22445 1.22444 1.22443 1.22443 1.22444
          1.22446 1.22462 1.22442 1.22442 1.22457 1.22461 1.22477 1.22907 1.22888 1.22889 1.2291 1.22477
          1.22467 1.22464 1.22461 1.22458 1.22455 1.22452 1.22449 1.22446 1.22443 1.2244 1.22437 1.22434
          1.22432 1.22429 1.22427 1.22424 1.22422 1.2242 1.22417 1.22415 1.22414 1.22412 1.2241 1.22409
          1.22408 1.22407 1.22406 1.22406 1.22407 1.2241 1.22419 1.22442 1.22442 1.22415 1.22426 1.22453
          1.22869 1.22851 1.22852 1.22872 1.2245 1.22431 1.22427 1.22424 1.22421 1.22418 1.22415 1.22412
          1.22409 1.22406 1.22403 1.224 1.22398 1.22395 1.22392 1.2239 1.22387 1.22385 1.22383 1.2238
          1.22378 1.22377 1.22375 1.22373 1.22372 1.22371 1.2237 1.22369 1.22369 1.2237 1.22374 1.22378
          1.22442
        </DataArray>
        <DataArray type="Float32" Name="x^H2O_w" NumberOfComponents="1" format="ascii">
          0.999973 0.999973 0.999977 0.999977 0.999973 0.999977 0.999973 0.999977 0.999973 0.999977 0.999973 0.999977
          0.999973 0.999977 0.999973 0.999977 0.999973 0.999977 0.999973 0.999977 0.999973 0.999977 0.999973 0.999977
          0.999973 0.999977 0.999973 0.999977 0.999973 0.999977 0.999973 0.999977 0.999973 0.999977 0.999973 0.999977
          0.999973 0.999977 0.999973 0.999977 0.999973 0.999977 0.999973 0.999977 0.999973 0.999977 0.999973 0.999977
          0.999973 0.999977 0.999973 0.999977 0.999973 0.999977 0.999973 0.999977 0.999973 0.999977 0.999973 0.999977
          0.999973 0.999977 0.999973 0.999977 0.999973 0.999977 0.999973 0.999977 0.999973 0.999978 0.999973 0.999978
          0.999973 0.999978 0.999973 0.999978 0.999973 0.999978 0.999973 0.999978 0.999973 0.999978 0.999982 0.999982
          0.999982 0.999982 0.999982 0.999978 0.999978 0.999982 0.999982 0.999982 0.999982 0.999982 0.999982 0.999982
          0.999982 0.999982 0.999982 0.999982 0.999982 0.999982 0.999982 0.999982 0.999982 0.999982 0.999982 0.999982
          0.999982 0.999982 0.999982 0.999982 0.999982 0.999982 0.999982 0.999982 0.999982 0.999982 0.999982 0.999982
          0.999982 0.999982 0.999982 0.999982 0.999982 0.999982 0.999982 0.999978 0.999978 0.999978 0.999978 0.999982
          0.999982 0.999982 0.999982 0.999982 0.999982 0.999982 0.999982 0.999982 0.999982 0.999982 0.999982 0.999982
          0.999982 0.999982 0.999982 0.999982 0.999982 0.999982 0.999982 0.999982 0.999982 0.999982 0.999982 0.999982
          0.999982 0.999982 0.999982 0.999982 0.999982 0.999982 0.999982 0.999982 0.999982 0.999982 0.999982 0.999982
          0.999978 0.999978 0.999978 0.999978 0.999982 0.999982 0.999982 0.999982 0.999982 0.999982 0.999982 0.999982
          0.999982 0.999982 0.999982 0.999982 0.999982 0.999982 0.999982 0.999982 0.999982 0.999982 0.999982 0.999982
          0.999982 0.999982 0.999982 0.999982 0.999982 0.999982 0.999982 0.999982 0.999982 0.999982 0.999982 0.999982
          0.999982
        </DataArray>
        <DataArray type="Float32" Name="x^mesitylene_w" NumberOfComponents="1" format="ascii">
          4.50629e-09 4.50296e-09 3.76482e-09 3.76216e-09 4.5022e-09 3.76065e-09 4.50042e-09 3.75901e-09 4.50004e-09 3.99261e-09 4.71335e-09 4.23804e-08
          4.71091e-09 4.2329e-08 4.49452e-09 3.98479e-09 4.4912e-09 3.74973e-09 4.48961e-09 3.748e-09 4.48784e-09 3.74625e-09 4.48598e-09 3.74438e-09
          4.48407e-09 3.74243e-09 4.48207e-09 3.74035e-09 4.47985e-09 3.73797e-09 4.47729e-09 3.73504e-09 4.47583e-09 3.73377e-09 4.47454e-09 3.73275e-09
          4.47292e-09 3.73123e-09 4.47113e-09 3.72946e-09 4.46935e-09 3.72771e-09 4.46751e-09 3.72588e-09 4.46565e-09 3.72402e-09 4.4638e-09 3.72217e-09
          4.46195e-09 3.72034e-09 4.46009e-09 3.71846e-09 4.4582e-09 3.71656e-09 4.45639e-09 3.71479e-09 4.45451e-09 3.71288e-09 4.45268e-09 3.71107e-09
          4.45082e-09 3.70921e-09 4.44896e-09 3.70734e-09 4.4471e-09 3.70547e-09 4.44525e-09 3.70363e-09 4.44325e-09 3.7016e-09 4.44104e-09 3.69928e-09
          4.43823e-09 3.69623e-09 4.43405e-09 3.69146e-09 4.42692e-09 3.68332e-09 4.41502e-09 3.66935e-09 4.43214e-09 3.69067e-09 3.02334e-09 3.02364e-09
          3.02354e-09 3.02464e-09 1.79647e-08 3.40605e-06 3.40605e-06 1.764e-08 3.02437e-09 3.02346e-09 3.02338e-09 3.02336e-09 3.02336e-09 3.02336e-09
          3.02336e-09 3.02336e-09 3.02336e-09 3.02336e-09 3.02336e-09 3.02336e-09 3.02336e-09 3.02337e-09 3.02336e-09 3.02336e-09 3.02339e-09 3.02337e-09
          3.02336e-09 3.02342e-09 3.02336e-09 3.02339e-09 3.02338e-09 3.02336e-09 3.02335e-09 3.02336e-09 3.02335e-09 3.02335e-09 3.02335e-09 3.02336e-09
          3.02338e-09 3.02367e-09 3.02334e-09 3.02334e-09 3.11189e-09 5.48538e-09 9.05718e-08 3.40605e-06 3.40605e-06 3.40605e-06 3.40605e-06 5.51126e-08
          3.89228e-09 3.03758e-09 3.02387e-09 3.0236e-09 3.02355e-09 3.02349e-09 3.02345e-09 3.0234e-09 3.02335e-09 3.0233e-09 3.02326e-09 3.02322e-09
          3.02317e-09 3.02313e-09 3.02309e-09 3.02305e-09 3.02301e-09 3.02297e-09 3.02294e-09 3.02291e-09 3.02288e-09 3.02285e-09 3.02282e-09 3.0228e-09
          3.02278e-09 3.02277e-09 3.02276e-09 3.02275e-09 3.02277e-09 3.02282e-09 3.0229e-09 3.02334e-09 3.02334e-09 3.23926e-09 8.82043e-09 1.8716e-07
          3.40605e-06 3.40605e-06 3.40605e-06 3.40605e-06 1.34825e-07 6.01137e-09 3.0828e-09 3.02413e-09 3.02302e-09 3.02295e-09 3.0229e-09 3.02285e-09
          3.0228e-09 3.02275e-09 3.02271e-09 3.02266e-09 3.02262e-09 3.02257e-09 3.02253e-09 3.02249e-09 3.02245e-09 3.02241e-09 3.02237e-09 3.02234e-09
          3.02231e-09 3.02228e-09 3.02225e-09 3.02222e-09 3.0222e-09 3.02218e-09 3.02217e-09 3.02216e-09 3.02215e-09 3.02216e-09 3.02216e-09 3.02191e-09
          3.02334e-09
        </DataArray>
        <DataArray type="Float32" Name="x^Air_w" NumberOfComponents="1" format="ascii">
          2.72214e-05 2.72233e-05 2.27051e-05 2.27084e-05 2.7226e-05 2.27108e-05 2.72274e-05 2.27124e-05 2.72312e-05 2.27152e-05 2.72646e-05 2.27501e-05
          2.72647e-05 2.27502e-05 2.72316e-05 2.27155e-05 2.72285e-05 2.27135e-05 2.72279e-05 2.27127e-05 2.7227e-05 2.27119e-05 2.72262e-05 2.2711e-05
          2.72253e-05 2.27102e-05 2.7224e-05 2.27089e-05 2.72218e-05 2.27067e-05 2.72178e-05 2.27027e-05 2.72111e-05 2.26959e-05 2.72019e-05 2.26868e-05
          2.71913e-05 2.26762e-05 2.71801e-05 2.26649e-05 2.71685e-05 2.26533e-05 2.71569e-05 2.26417e-05 2.71452e-05 2.263e-05 2.71336e-05 2.26184e-05
          2.71219e-05 2.26067e-05 2.71103e-05 2.25951e-05 2.70987e-05 2.25835e-05 2.7087e-05 2.25718e-05 2.70754e-05 2.25603e-05 2.70638e-05 2.25486e-05
          2.70523e-05 2.25371e-05 2.70407e-05 2.25256e-05 2.70292e-05 2.2514e-05 2.70176e-05 2.25024e-05 2.70059e-05 2.24907e-05 2.69936e-05 2.24785e-05
          2.69795e-05 2.24644e-05 2.69604e-05 2.24455e-05 2.69297e-05 2.24149e-05 2.68736e-05 2.23599e-05 2.67698e-05 2.22535e-05 1.81888e-05 1.81984e-05
          1.81971e-05 1.81983e-05 1.81986e-05 1.8219e-05 1.82192e-05 1.81987e-05 1.81997e-05 1.81986e-05 1.81979e-05 1.81972e-05 1.81967e-05 1.81963e-05
          1.81958e-05 1.81953e-05 1.81949e-05 1.81945e-05 1.8194e-05 1.81936e-05 1.81932e-05 1.81928e-05 1.81924e-05 1.8192e-05 1.81917e-05 1.81913e-05
          1.8191e-05 1.81906e-05 1.81903e-05 1.81901e-05 1.81898e-05 1.81896e-05 1.81894e-05 1.81892e-05 1.81891e-05 1.81889e-05 1.81889e-05 1.81891e-05
          1.81894e-05 1.81918e-05 1.81888e-05 1.81888e-05 1.81911e-05 1.81916e-05 1.81919e-05 1.81725e-05 1.81696e-05 1.81698e-05 1.81729e-05 1.81927e-05
          1.81926e-05 1.81921e-05 1.81917e-05 1.81912e-05 1.81907e-05 1.81903e-05 1.81898e-05 1.81894e-05 1.81889e-05 1.81885e-05 1.81881e-05 1.81877e-05
          1.81873e-05 1.81869e-05 1.81865e-05 1.81861e-05 1.81858e-05 1.81854e-05 1.81851e-05 1.81848e-05 1.81845e-05 1.81843e-05 1.81841e-05 1.81838e-05
          1.81837e-05 1.81835e-05 1.81834e-05 1.81834e-05 1.81835e-05 1.81841e-05 1.81854e-05 1.81888e-05 1.81888e-05 1.81847e-05 1.81862e-05 1.81857e-05
          1.81668e-05 1.81642e-05 1.81643e-05 1.81673e-05 1.81867e-05 1.8187e-05 1.81866e-05 1.81861e-05 1.81857e-05 1.81852e-05 1.81847e-05 1.81843e-05
          1.81838e-05 1.81834e-05 1.8183e-05 1.81826e-05 1.81822e-05 1.81817e-05 1.81814e-05 1.8181e-05 1.81806e-05 1.81802e-05 1.81799e-05 1.81796e-05
          1.81793e-05 1.8179e-05 1.81788e-05 1.81785e-05 1.81783e-05 1.81781e-05 1.8178e-05 1.81779e-05 1.81779e-05 1.8178e-05 1.81787e-05 1.81791e-05
          1.81888e-05
        </DataArray>
        <DataArray type="Float32" Name="x^H2O_n" NumberOfComponents="1" format="ascii">
          1e-10 1e-10 1e-10 1e-10 1e-10 1e-10 1e-10 1e-10 1e-10 1e-10 1e-10 1e-10
          1e-10 1e-10 1e-10 1e-10 1e-10 1e-10 1e-10 1e-10 1e-10 1e-10 1e-10 1e-10
          1e-10 1e-10 1e-10 1e-10 1e-10 1e-10 1e-10 1e-10 1e-10 1e-10 1e-10 1e-10
          1e-10 1e-10 1e-10 1e-10 1e-10 1e-10 1e-10 1e-10 1e-10 1e-10 1e-10 1e-10
          1e-10 1e-10 1e-10 1e-10 1e-10 1e-10 1e-10 1e-10 1e-10 1e-10 1e-10 1e-10
          1e-10 1e-10 1e-10 1e-10 1e-10 1e-10 1e-10 1e-10 1e-10 1e-10 1e-10 1e-10
          1e-10 1e-10 1e-10 1e-10 1e-10 1e-10 1e-10 1e-10 1e-10 1e-10 1e-10 1e-10
          1e-10 1e-10 1e-10 1e-10 1e-10 1e-10 1e-10 1e-10 1e-10 1e-10 1e-10 1e-10
          1e-10 1e-10 1e-10 1e-10 1e-10 1e-10 1e-10 1e-10 1e-10 1e-10 1e-10 1e-10
          1e-10 1e-10 1e-10 1e-10 1e-10 1e-10 1e-10 1e-10 1e-10 1e-10 1e-10 1e-10
          1e-10 1e-10 1e-10 1e-10 1e-10 1e-10 1e-10 1e-10 1e-10 1e-10 1e-10 1e-10
          1e-10 1e-10 1e-10 1e-10 1e-10 1e-10 1e-10 1e-10 1e-10 1e-10 1e-10 1e-10
          1e-10 1e-10 1e-10 1e-10 1e-10 1e-10 1e-10 1e-10 1e-10 1e-10 1e-10 1e-10
          1e-10 1e-10 1e-10 1e-10 1e-10 1e-10 1e-10 1e-10 1e-10 1e-10 1e-10 1e-10
          1e-10 1e-10 1e-10 1e-10 1e-10 1e-10 1e-10 1e-10 1e-10 1e-10 1e-10 1e-10
          1e-10 1e-10 1e-10 1e-10 1e-10 1e-10 1e-10 1e-10 1e-10 1e-10 1e-10 1e-10
          1e-10 1e-10 1e-10 1e-10 1e-10 1e-10 1e-10 1e-10 1e-10 1e-10 1e-10 1e-10
          1e-10
        </DataArray>
        <DataArray type="Float32" Name="x^mesitylene_n" NumberOfComponents="1" format="ascii">
          0.00132302 0.00132205 0.00110533 0.00110455 0.00132182 0.00110411 0.0013213 0.00110363 0.00132119 0.00117221 0.00138382 0.0124427
          0.0013831 0.0124276 0.00131957 0.00116991 0.00131859 0.0011009 0.00131813 0.00110039 0.00131761 0.00109988 0.00131706 0.00109933
          0.0013165 0.00109876 0.00131591 0.00109815 0.00131526 0.00109745 0.00131451 0.00109659 0.00131408 0.00109622 0.0013137 0.00109592
          0.00131323 0.00109547 0.0013127 0.00109495 0.00131218 0.00109444 0.00131164 0.0010939 0.00131109 0.00109335 0.00131055 0.00109281
          0.00131001 0.00109227 0.00130946 0.00109172 0.00130891 0.00109116 0.00130837 0.00109064 0.00130782 0.00109008 0.00130728 0.00108955
          0.00130674 0.00108901 0.00130619 0.00108846 0.00130565 0.00108791 0.0013051 0.00108737 0.00130452 0.00108677 0.00130387 0.00108609
          0.00130304 0.00108519 0.00130181 0.00108379 0.00129972 0.0010814 0.00129623 0.0010773 0.00130125 0.00108356 0.000887638 0.000887724
          0.000887696 0.00088802 0.00527434 1 1 0.00517901 0.00088794 0.000887671 0.00088765 0.000887643 0.000887643 0.000887643
          0.000887642 0.000887642 0.000887642 0.000887643 0.000887643 0.000887643 0.000887644 0.000887646 0.000887645 0.000887645 0.000887652 0.000887647
          0.000887644 0.00088766 0.000887644 0.000887651 0.000887648 0.000887642 0.000887641 0.000887644 0.000887639 0.000887639 0.000887639 0.000887643
          0.00088765 0.000887733 0.000887638 0.000887638 0.000913634 0.00161048 0.0265914 1 1 1 1 0.0161808
          0.00114275 0.000891817 0.000887792 0.000887714 0.000887698 0.000887683 0.000887668 0.000887654 0.000887641 0.000887627 0.000887614 0.000887601
          0.000887588 0.000887576 0.000887563 0.000887552 0.00088754 0.00088753 0.000887519 0.00088751 0.000887501 0.000887493 0.000887486 0.000887479
          0.000887474 0.000887469 0.000887466 0.000887465 0.000887471 0.000887485 0.000887509 0.000887638 0.000887638 0.000951031 0.00258963 0.0549492
          1 1 1 1 0.0395841 0.00176491 0.000905095 0.00088787 0.000887542 0.000887522 0.000887507 0.000887492
          0.000887478 0.000887465 0.000887451 0.000887438 0.000887425 0.000887412 0.0008874 0.000887387 0.000887376 0.000887364 0.000887354 0.000887343
          0.000887334 0.000887325 0.000887317 0.00088731 0.000887303 0.000887298 0.000887293 0.00088729 0.000887289 0.00088729 0.000887292 0.000887218
          0.000887638
        </DataArray>
        <DataArray type="Float32" Name="x^Air_n" NumberOfComponents="1" format="ascii">
          1e-10 1e-10 1e-10 1e-10 1e-10 1e-10 1e-10 1e-10 1e-10 1e-10 1e-10 1e-10
          1e-10 1e-10 1e-10 1e-10 1e-10 1e-10 1e-10 1e-10 1e-10 1e-10 1e-10 1e-10
          1e-10 1e-10 1e-10 1e-10 1e-10 1e-10 1e-10 1e-10 1e-10 1e-10 1e-10 1e-10
          1e-10 1e-10 1e-10 1e-10 1e-10 1e-10 1e-10 1e-10 1e-10 1e-10 1e-10 1e-10
          1e-10 1e-10 1e-10 1e-10 1e-10 1e-10 1e-10 1e-10 1e-10 1e-10 1e-10 1e-10
          1e-10 1e-10 1e-10 1e-10 1e-10 1e-10 1e-10 1e-10 1e-10 1e-10 1e-10 1e-10
          1e-10 1e-10 1e-10 1e-10 1e-10 1e-10 1e-10 1e-10 1e-10 1e-10 1e-10 1e-10
          1e-10 1e-10 1e-10 1e-10 1e-10 1e-10 1e-10 1e-10 1e-10 1e-10 1e-10 1e-10
          1e-10 1e-10 1e-10 1e-10 1e-10 1e-10 1e-10 1e-10 1e-10 1e-10 1e-10 1e-10
          1e-10 1e-10 1e-10 1e-10 1e-10 1e-10 1e-10 1e-10 1e-10 1e-10 1e-10 1e-10
          1e-10 1e-10 1e-10 1e-10 1e-10 1e-10 1e-10 1e-10 1e-10 1e-10 1e-10 1e-10
          1e-10 1e-10 1e-10 1e-10 1e-10 1e-10 1e-10 1e-10 1e-10 1e-10 1e-10 1e-10
          1e-10 1e-10 1e-10 1e-10 1e-10 1e-10 1e-10 1e-10 1e-10 1e-10 1e-10 1e-10
          1e-10 1e-10 1e-10 1e-10 1e-10 1e-10 1e-10 1e-10 1e-10 1e-10 1e-10 1e-10
          1e-10 1e-10 1e-10 1e-10 1e-10 1e-10 1e-10 1e-10 1e-10 1e-10 1e-10 1e-10
          1e-10 1e-10 1e-10 1e-10 1e-10 1e-10 1e-10 1e-10 1e-10 1e-10 1e-10 1e-10
          1e-10 1e-10 1e-10 1e-10 1e-10 1e-10 1e-10 1e-10 1e-10 1e-10 1e-10 1e-10
          1e-10
        </DataArray>
        <DataArray type="Float32" Name="x^H2O_g" NumberOfComponents="1" format="ascii">
          0.00824008 0.0082395 0.00986295 0.00986152 0.00823871 0.00986048 0.00823828 0.00985982 0.00823712 0.00985862 0.00822713 0.00984354
          0.0082271 0.0098435 0.00823701 0.00985848 0.00823795 0.00985936 0.00823813 0.00985967 0.00823839 0.00986004 0.00823864 0.0098604
          0.0082389 0.00986078 0.00823929 0.00986133 0.00823995 0.00986227 0.00824116 0.009864 0.00824318 0.0098669 0.00824593 0.00987085
          0.00824911 0.00987541 0.00825249 0.00988027 0.00825598 0.00988526 0.00825949 0.0098903 0.00826301 0.00989535 0.00826653 0.00990039
          0.00827005 0.00990545 0.00827357 0.00991049 0.00827708 0.00991553 0.00828061 0.0099206 0.00828413 0.00992565 0.00828766 0.00993071
          0.00829117 0.00993575 0.00829467 0.00994079 0.00829819 0.00994583 0.00830172 0.00995091 0.00830528 0.00995603 0.00830903 0.00996141