<?xml version="1.0"?>
<VTKFile type="UnstructuredGrid" version="0.1" byte_order="LittleEndian">
  <UnstructuredGrid>
    <Piece NumberOfCells="500" NumberOfPoints="561">
      <PointData Scalars="S_aq">
        <DataArray type="Float32" Name="S_aq" NumberOfComponents="1" format="ascii">
          0.97 0.970013 0.97 0.970015 0.970023 0.970025 0.970032 0.970035 0.970042 0.970046 0.970052 0.970056
          0.970061 0.970066 0.970071 0.970077 0.970081 0.970087 0.970091 0.970098 0.970101 0.970109 0.970111 0.97012
          0.970122 0.970131 0.970133 0.970143 0.970144 0.970155 0.970156 0.970167 0.970167 0.970179 0.970177 0.97019
          0.970184 0.970198 0.970191 0.970205 0.970191 0.970205 0.970189 0.970203 0.970188 0.970202 0.970188 0.970202
          0.970187 0.970201 0.970187 0.970201 0.970187 0.970201 0.970187 0.9702 0.970186 0.9702 0.970186 0.9702
          0.970186 0.9702 0.970186 0.9702 0.970186 0.9702 0.970186 0.9702 0.970186 0.9702 0.970186 0.9702
          0.970186 0.9702 0.970186 0.9702 0.970186 0.9702 0.970186 0.970199 0.970185 0.970199 0.970185 0.970198
          0.970184 0.970197 0.970183 0.970196 0.970181 0.970195 0.970179 0.970192 0.970176 0.970189 0.97017 0.970183
          0.970156 0.970168 0.970114 0.970124 0.97 0.97 0.97 0.970017 0.970028 0.970039 0.97005 0.970061
          0.970072 0.970083 0.970095 0.970106 0.970118 0.97013 0.970142 0.970154 0.970167 0.97018 0.970194 0.970205
          0.970214 0.970221 0.970221 0.970219 0.970218 0.970217 0.970217 0.970217 0.970216 0.970216 0.970216 0.970216
          0.970216 0.970216 0.970216 0.970216 0.970216 0.970216 0.970216 0.970216 0.970216 0.970215 0.970215 0.970214
          0.970213 0.970212 0.97021 0.970208 0.970204 0.970198 0.970182 0.970136 0.97 0.97 0.970019 0.970031
          0.970043 0.970055 0.970066 0.970079 0.970091 0.970103 0.970115 0.970128 0.970141 0.970154 0.970168 0.970182
          0.970196 0.97021 0.970222 0.970232 0.97024 0.97024 0.970238 0.970237 0.970236 0.970236 0.970235 0.970235
          0.970235 0.970235 0.970235 0.970235 0.970235 0.970235 0.970234 0.970234 0.970235 0.970235 0.970234 0.970234
          0.970234 0.970233 0.970233 0.970232 0.970231 0.970229 0.970226 0.970222 0.970216 0.970199 0.970152 0.97
          0.97 0.970022 0.970034 0.970047 0.97006 0.970073 0.970086 0.9701 0.970113 0.970127 0.97014 0.970154
          0.970169 0.970183 0.970199 0.970214 0.97023 0.970243 0.970253 0.970263 0.970262 0.97026 0.970259 0.970258
          0.970257 0.970257 0.970257 0.970256 0.970256 0.970256 0.970256 0.970256 0.970256 0.970256 0.970256 0.970257
          0.970256 0.970256 0.970256 0.970256 0.970255 0.970255 0.970254 0.970253 0.970251 0.970248 0.970244 0.970237
          0.97022 0.970172 0.97 0.97 0.96983 0.969875 0.969821 0.969769 0.969718 0.969666 0.969614 0.969562
          0.969509 0.969455 0.969401 0.969346 0.969289 0.969231 0.969166 0.969074 0.969023 0.969 0.968852 0.962568
          0.955258 0.946723 0.937442 0.927189 0.915959 0.903745 0.890082 0.875918 0.860782 0.844669 0.828059 0.810483
          0.791939 0.77338 0.754815 0.735291 0.715762 0.696229 0.676696 0.65717 0.637647 0.619088 0.600055 0.581994
          0.563941 0.546371 0.529272 0.512588 0.4966 0.482422 0.127289 0.127151 0.127014 0.126873 0.126732 0.126595
          0.126457 0.126316 0.126175 0.126038 0.125896 0.125755 0.125618 0.125481 0.12534 0.125198 0.125061 0.124924
          0.124783 0.124659 0.124527 0.124391 0.12425 0.124113 0.123976 0.123839 0.123702 0.123561 0.123423 0.123285
          0.123146 0.123008 0.122869 0.122727 0.122588 0.122451 0.122311 0.122171 0.122032 0.121892 0.121752 0.121611
          0.121473 0.121331 0.121193 0.121052 0.12091 0.120768 0.120627 0.120489 0.120327 0.12 0.12 0.12
          0.12 0.12 0.12 0.12 0.12 0.12 0.12 0.12 0.12 0.12 0.12 0.12
          0.12 0.12 0.12 0.12 0.12 0.12 0.12 0.12 0.12 0.12 0.12 0.12
          0.12 0.12 0.12 0.12 0.12 0.12 0.12 0.12 0.12 0.12 0.12 0.12
          0.12 0.12 0.12 0.12 0.12 0.12 0.12 0.12 0.12 0.12 0.12 0.12
          0.12 0.12 0.12 0.12 0.12 0.12 0.12 0.12 0.12 0.12 0.12 0.12
          0.12 0.12 0.12 0.12 0.12 0.12 0.12 0.12 0.12 0.12 0.12 0.12
          0.12 0.12 0.12 0.12 0.12 0.12 0.12 0.12 0.12 0.12 0.12 0.12
          0.12 0.12 0.12 0.12 0.12 0.12 0.12 0.12 0.12 0.12 0.12 0.12
          0.12 0.12 0.12 0.12 0.12 0.12 0.12 0.12 0.12 0.12 0.12 0.12
          0.12 0.12 0.12 0.12 0.12 0.12 0.12 0.12 0.12 0.12 0.12 0.12
          0.12 0.12 0.12 0.12 0.12 0.12 0.12 0.12 0.12 0.12 0.12 0.12
          0.12 0.12 0.12 0.12 0.12 0.12 0.12 0.12 0.12 0.12 0.12 0.12
          0.12 0.12 0.12 0.12 0.12 0.12 0.12 0.12 0.12 0.12 0.12 0.12
          0.12 0.12 0.12 0.12 0.12 0.12 0.12 0.12 0.12 0.12 0.12 0.12
          0.12 0.12 0.12 0.12 0.12 0.12 0.12 0.12 0.12 0.12 0.12 0.12
          0.12 0.12 0.12 0.12 0.12 0.12 0.12 0.12 0.12 0.12 0.12 0.12
          0.12 0.12 0.12 0.12 0.12 0.12 0.12 0.12 0.12
        </DataArray>
        <DataArray type="Float32" Name="S_napl" NumberOfComponents="1" format="ascii">
          0 0 0 0 0 0 0 0 0 0 0 0
          0 0 0 0 0 0 0 0 0 0 0 0
          0 0 0 0 0 0 0 0 0 0 0 0
          0 0 0 0 0 0 0 0 0 0 0 0
          0 0 0 0 0 0 0 0 0 0 0 0
          0 0 0 0 0 0 0 0 0 0 0 0
          0 0 0 0 0 0 0 0 0 0 0 0
          0 0 0 0 0 0 0 0 0 0 0 0
          0 0 0 0 0 0 0 0 0 0 0 0
          0 0 0 0 0 0 0 0 0 0 0 0
          0 0 0 0 0 0 0 0 0 0 0 0
          0 0 0 0 0 0 0 0 0 0 0 0
          0 0 0 0 0 0 0 0 0 0 0 0
          0 0 0 0 0 0 0 0 0 0 0 0
          0 0 0 0 0 0 0 0 0 0 0 0
          0 0 0 0 0 0 0 0 0 0 0 0
          0 0 0 0 0 0 0 0 0 0 0 0
          0 0 0 0 0 0 0 0 0 0 0 0
          0 0 0 0 0 0 0 0 0 0 0 0
          0 0 0 0 0 0 0 0 0 0 0 0
          0 0 0 0 0 0 0 0 0 0 0 0
          0 0 0 0 0 0 0 0 0 0 0 0
          0 0 0 0 0 0 0 0 0 0 0 0
          0 0 0 0 0 0 0 0 0 0 0 0
          0 0 0 0 0 0 0 0 0 0 0 0
          0 0 0 0 0 0 0 0 0 0 0 0
          0 0 0 0 0 0 0 0 0 0 0 0
          0 0 0 0 0 0 0 0 0 0 0 0
          0 0 0 0 0 0 0 0 0 0 0 0
          0 0 0 0 0 0 0 0 0 0 0 0
          0 0 0 0 0 0 0 0 0 0 0 0
          0 0 0 0 0 0 0 0 0 0 0 0
          0 0 0 0 0 0 0 0 0 0 0 0
          0 0 0 0 0 0 0 0 0 0 0 0
          0 0 0 0 0 0 0 0 0 0 0 0
          0 0 0 0 6.592e-21 6.59332e-21 0 0 0 0 0 0
          0 0 0 0 0 0 0 0 0 0 0 0
          0 0 0 0 0 0 0 0 0 0 0 0
          0 0 0 0 0 0 0 0 0 0 0 0
          0 0 0 0 0 0 1.51044e-24 9.1416e-07 9.1416e-07 1.5253e-24 0 0
          0 0 0 0 0 0 0 0 0 0 0 0
          0 0 0 0 0 0 0 0 0 0 0 0
          0 0 0 0 0 0 0 0 0 0 0 0
          0 0 0 0 0 0 0 0 2.2469e-35 9.40677e-10 0.0204813 0.0204813
          9.42472e-10 3.68833e-35 0 0 0 0 0 0 0 0 0 0
          0 0 0 0 0 0 0 0 0 0 0 0
          0 0 0 0 0 0 0 0 0
        </DataArray>
        <DataArray type="Float32" Name="S_gas" NumberOfComponents="1" format="ascii">
          0.03 0.0299868 0.03 0.0299851 0.0299769 0.0299747 0.0299675 0.0299647 0.0299579 0.0299544 0.0299483 0.0299441
          0.0299386 0.0299337 0.0299288 0.0299232 0.029919 0.0299127 0.029909 0.029902 0.0298989 0.0298912 0.0298886 0.0298801
          0.029878 0.0298688 0.0298672 0.0298572 0.029856 0.0298453 0.0298444 0.0298329 0.0298329 0.0298206 0.0298233 0.0298103
          0.0298157 0.0298021 0.0298094 0.0297954 0.0298094 0.0297954 0.0298106 0.0297966 0.0298116 0.0297978 0.0298123 0.0297985
          0.0298127 0.0297989 0.029813 0.0297992 0.0298132 0.0297994 0.0298135 0.0297997 0.0298135 0.0297998 0.0298136 0.0297998
          0.0298136 0.0297998 0.0298135 0.0297998 0.0298136 0.0297998 0.0298137 0.0298 0.0298137 0.0298 0.0298136 0.0297999
          0.0298138 0.0298 0.0298139 0.0298001 0.0298141 0.0298003 0.0298144 0.0298006 0.0298148 0.0298011 0.0298155 0.0298017
          0.0298162 0.0298026 0.0298174 0.0298038 0.029819 0.0298055 0.0298212 0.0298078 0.0298244 0.0298113 0.0298302 0.0298174
          0.0298438 0.0298319 0.0298855 0.0298761 0.03 0.03 0.03 0.0299832 0.0299722 0.0299613 0.0299503 0.0299392
          0.029928 0.0299168 0.0299054 0.029894 0.0298823 0.0298704 0.0298583 0.0298458 0.0298329 0.0298196 0.0298063 0.0297952
          0.0297865 0.0297791 0.0297793 0.0297806 0.0297818 0.0297825 0.029783 0.0297833 0.0297835 0.0297839 0.0297839 0.029784
          0.029784 0.0297839 0.0297839 0.0297841 0.0297841 0.029784 0.0297841 0.0297842 0.0297844 0.0297847 0.0297852 0.0297859
          0.0297867 0.029788 0.0297898 0.0297922 0.0297959 0.0298023 0.0298178 0.029864 0.03 0.03 0.0299808 0.0299692
          0.0299575 0.0299455 0.0299335 0.0299214 0.0299092 0.029897 0.0298845 0.0298719 0.0298591 0.0298459 0.0298324 0.0298184
          0.029804 0.0297895 0.0297776 0.0297682 0.0297599 0.0297604 0.0297618 0.0297632 0.029764 0.0297645 0.0297648 0.029765
          0.0297654 0.0297655 0.0297655 0.0297655 0.0297654 0.0297654 0.0297656 0.0297656 0.0297654 0.0297655 0.0297656 0.0297658
          0.0297661 0.0297666 0.0297673 0.0297681 0.0297695 0.0297713 0.0297739 0.0297777 0.0297844 0.0298008 0.0298484 0.03
          0.03 0.0299778 0.0299657 0.0299529 0.0299399 0.0299268 0.0299136 0.0299004 0.029887 0.0298734 0.0298597 0.0298456
          0.0298313 0.0298166 0.0298014 0.0297856 0.0297698 0.0297568 0.0297466 0.0297372 0.0297382 0.0297397 0.0297412 0.029742
          0.0297426 0.029743 0.0297432 0.0297436 0.0297437 0.0297437 0.0297437 0.0297435 0.0297436 0.0297438 0.0297437 0.0297435
          0.0297436 0.0297437 0.0297438 0.029744 0.0297445 0.0297452 0.029746 0.0297474 0.0297492 0.0297519 0.0297559 0.0297629
          0.0297803 0.0298284 0.03 0.03 0.0301698 0.0301253 0.0301787 0.0302311 0.0302825 0.0303342 0.030386 0.0304381
          0.0304911 0.0305446 0.0305988 0.0306544 0.0307112 0.0307693 0.0308344 0.0309261 0.0309771 0.0309996 0.0311484 0.0374321
          0.0447424 0.0532766 0.0625578 0.0728108 0.0840414 0.096255 0.109918 0.124082 0.139218 0.155331 0.171941 0.189517
          0.208061 0.22662 0.245185 0.264709 0.284238 0.303771 0.323304 0.34283 0.362353 0.380913 0.399945 0.418006
          0.436059 0.453629 0.470728 0.487412 0.5034 0.517578 0.872711 0.872849 0.872986 0.873127 0.873268 0.873405
          0.873543 0.873684 0.873825 0.873962 0.874104 0.874245 0.874382 0.874519 0.87466 0.874802 0.874939 0.875076
          0.875217 0.875341 0.875473 0.875609 0.87575 0.875887 0.876024 0.876161 0.876298 0.876439 0.876577 0.876715
          0.876854 0.876992 0.877131 0.877273 0.877412 0.877549 0.877689 0.877829 0.877968 0.878108 0.878248 0.878389
          0.878527 0.878669 0.878807 0.878948 0.87909 0.879232 0.879373 0.879511 0.879673 0.88 0.88 0.88
          0.88 0.88 0.88 0.88 0.88 0.88 0.88 0.88 0.88 0.88 0.88 0.88
          0.88 0.88 0.88 0.88 0.88 0.88 0.88 0.88 0.88 0.88 0.88 0.88
          0.88 0.88 0.88 0.88 0.88 0.88 0.88 0.88 0.88 0.88 0.88 0.88
          0.88 0.88 0.88 0.88 0.88 0.88 0.88 0.88 0.88 0.88 0.88 0.88
          0.88 0.88 0.88 0.88 0.88 0.88 0.88 0.88 0.88 0.88 0.88 0.88
          0.88 0.88 0.88 0.88 0.88 0.88 0.88 0.88 0.88 0.88 0.88 0.88
          0.88 0.88 0.88 0.88 0.88 0.88 0.88 0.88 0.88 0.88 0.88 0.88
          0.88 0.88 0.88 0.88 0.88 0.88 0.88 0.88 0.88 0.88 0.88 0.88
          0.88 0.88 0.88 0.88 0.88 0.88 0.88 0.88 0.88 0.88 0.88 0.88
          0.88 0.88 0.88 0.88 0.88 0.88 0.88 0.879999 0.879999 0.88 0.88 0.88
          0.88 0.88 0.88 0.88 0.88 0.88 0.88 0.88 0.88 0.88 0.88 0.88
          0.88 0.88 0.88 0.88 0.88 0.88 0.88 0.88 0.88 0.88 0.88 0.88
          0.88 0.88 0.88 0.88 0.88 0.88 0.88 0.88 0.88 0.88 0.88 0.88
          0.88 0.88 0.88 0.88 0.88 0.88 0.88 0.88 0.88 0.88 0.859519 0.859519
          0.88 0.88 0.88 0.88 0.88 0.88 0.88 0.88 0.88 0.88 0.88 0.88
          0.88 0.88 0.88 0.88 0.88 0.88 0.88 0.88 0.88 0.88 0.88 0.88
          0.88 0.88 0.88 0.88 0.88 0.88 0.88 0.88 0.88
        </DataArray>
        <DataArray type="Float32" Name="p_aq" NumberOfComponents="1" format="ascii">
          148117 148134 138307 138327 148134 138327 148132 138324 148130 138323 148129 138322
          148128 138321 148128 138321 148128 138321 148129 138321 148130 138323 148132 138325
          148136 138328 148141 138333 148147 138340 148156 138349 148164 138357 148163 138356
          148152 138344 148134 138327 148084 138277 148029 138222 147975 138167 147922 138115
          147870 138063 147820 138013 147769 137962 147719 137911 147669 137862 147619 137812
          147570 137763 147521 137714 147471 137664 147421 137614 147372 137564 147323 137516
          147273 137466 147223 137416 147173 137365 147122 137315 147070 137263 147018 137211
          146964 137157 146909 137102 146852 137045 146792 136985 146726 136920 146649 136842
          146532 136725 146276 136472 145665 135855 128497 128521 128519 128517 128516 128515
          128514 128514 128514 128514 128515 128518 128521 128526 128533 128542 128550 128549
          128537 128520 128470 128415 128360 128308 128256 128205 128155 128104 128054 128005
          127955 127906 127857 127807 127757 127708 127659 127609 127558 127508 127456 127404
          127351 127296 127239 127179 127114 127037 126921 126673 126045 118687 118715 118712
          118710 118709 118708 118707 118706 118706 118707 118708 118711 118714 118719 118726
          118735 118744 118742 118731 118715 118663 118608 118553 118501 118449 118398 118348
          118297 118247 118198 118148 118099 118050 118000 117950 117902 117852 117802 117752
          117701 117650 117597 117545 117490 117433 117374 117309 117233 117118 116880 116235
          108877 108909 108905 108903 108902 108901 108900 108899 108899 108900 108902 108904
          108908 108913 108919 108928 108937 108936 108924 108909 108856 108801 108746 108694
          108642 108591 108541 108490 108440 108391 108341 108292 108243 108193 108143 108095
          108045 107995 107945 107895 107844 107792 107739 107684 107628 107569 107505 107430
          107317 107093 106425 99067.1 99104.6 99097.3 99095.9 99094.6 99093.6 99092.8 99092.5 99092.5
          99093.2 99094.8 99097.2 99100.9 99106.1 99112.9 99121.7 99131.6 99130.3 99117.5 99105.2 99049.8
          98994.9 98939.7 98887 98835.3 98784.5 98734.4 98682.9 98633.5 98584.1 98534.4 98485.6 98436.2
          98385.9 98336.9 98288.9 98239.2 98190.1 98141.2 98092.4 98043.3 97993.9 97946.5 97897.1 97849.4
          97800.9 97752.6 97704.7 97656.4 97615.8 97546.8 90189.6 90164 90111.4 90061.2 90010.7 89961.7
          89913 89863.3 89814.1 89766.9 89719.1 89672.3 89628.1 89585.3 89542.9 89502.5 89464.8 89415.5
          89353.2 89298.5 89243.1 89187.9 89132.7 89080 89028.3 88977.5 88927.3 88875.9 88826.4 88777
          88727.3 88678.6 88629.1 88578.7 88529.7 88481.6 88432 88382.8 88333.7 88284.6 88235.4 88186.1
          88137.9 88088.3 88040.2 87991.5 87942.6 87894 87846.3 87804.2 87737.6 87622.4 87631.4 87629.2
          87628.4 87627.6 87627 87626.7 87626.7 87627.2 87628.4 87630.3 87633.2 87637.4 87643 87650.2
          87659.5 87670.4 87669.4 87656.7 87645.5 87636.6 87629.4 87623.6 87619.2 87615.8 87613.1 87611.2
          87609.8 87608.7 87607.9 87607.3 87606.9 87606.6 87606.4 87606.2 87606.1 87606.1 87606 87606.1
          87606.2 87606.3 87606.5 87606.9 87607.4 87608 87608.9 87610 87611.5 87613.7 87618.7 87622.4
          87622.4 87617.8 87617.3 87616.3 87615.6 87615 87614.6 87614.7 87615.2 87616.3 87618.2 87621.1
          87625.3 87630.9 87638.2 87647.4 87658.6 87657.7 87644.6 87633.5 87624.5 87617.3 87611.6 87607.1
          87603.7 87601.1 87599.1 87597.7 87596.6 87595.9 87595.3 87594.9 87594.5 87594.3 87594.2 87594.1
          87594 87594 87594 87594.1 87594.2 87594.5 87594.8 87595.3 87596 87596.8 87597.9 87599.5
          87601.8 87605.4 87622.4 87622.4 87604.2 87605.4 87604.2 87603.5 87602.9 87602.6 87602.6 87603.1
          87604.2 87606.2 87609.1 87613.2 87618.8 87626.1 87635.3 87647.1 87646.1 87632.4 87621.4 87612.4
          87605.2 87599.5 87595 87591.6 87589 87587.1 87585.6 87584.6 87583.8 87583.2 87582.8 87582.5
          87582.3 87582.1 87582 87581.9 87581.9 87582 87582 87582.2 87582.4 87582.8 87583.2 87583.9
          87584.8 87585.9 87587.4 87590 87591.9 87622.4 87622.4 87590.3 87593.6 87592.1 87591.4 87590.8
          87590.5 87590.5 87591 87592.2 87594.1 87597 87601.1 87606.8 87614.1 87623.1 85589.5 85588.6
          87620.2 87609.4 87600.4 87593.2 87587.4 87583 87579.6 87577 87575 87573.6 87572.5 87571.7
          87571.1 87570.7 87570.4 87570.2 87570 87569.9 87569.9 87569.9 87569.9 87570 87570.1 87570.4
          87570.7 87571.2 87571.8 87572.7 87573.8 87575.3 87578.2 87578.1 87622.4
        </DataArray>
        <DataArray type="Float32" Name="p_napl" NumberOfComponents="1" format="ascii">
          148117 148134 138307 138327 148134 138327 148132 138324 148130 138323 148129 138322
          148128 138321 148128 138321 148128 138321 148129 138321 148130 138323 148132 138325
          148136 138328 148141 138333 148147 138340 148156 138349 148164 138357 148163 138356
          148152 138344 148134 138327 148084 138277 148029 138222 147975 138167 147922 138115
          147870 138063 147820 138013 147769 137962 147719 137911 147669 137862 147619 137812
          147570 137763 147521 137714 147471 137664 147421 137614 147372 137564 147323 137516
          147273 137466 147223 137416 147173 137365 147122 137315 147070 137263 147018 137211
          146964 137157 146909 137102 146852 137045 146792 136985 146726 136920 146649 136842
          146532 136725 146276 136472 145665 135855 128497 128521 128519 128517 128516 128515
          128514 128514 128514 128514 128515 128518 128521 128526 128533 128542 128550 128549
          128537 128520 128470 128415 128360 128308 128256 128205 128155 128104 128054 128005
          127955 127906 127857 127807 127757 127708 127659 127609 127558 127508 127456 127404
          127351 127296 127239 127179 127114 127037 126921 126673 126045 118687 118715 118712
          118710 118709 118708 118707 118706 118706 118707 118708 118711 118714 118719 118726
          118735 118744 118742 118731 118715 118663 118608 118553 118501 118449 118398 118348
          118297 118247 118198 118148 118099 118050 118000 117950 117902 117852 117802 117752
          117701 117650 117597 117545 117490 117433 117374 117309 117233 117118 116880 116235
          108877 108909 108905 108903 108902 108901 108900 108899 108899 108900 108902 108904
          108908 108913 108919 108928 108937 108936 108924 108909 108856 108801 108746 108694
          108642 108591 108541 108490 108440 108391 108341 108292 108243 108193 108143 108095
          108045 107995 107945 107895 107844 107792 107739 107684 107628 107569 107505 107430
          107317 107093 106425 99067.1 99104.6 99097.3 99095.9 99094.6 99093.6 99092.8 99092.5 99092.5
          99093.2 99094.8 99097.2 99100.9 99106.1 99112.9 99121.7 99131.6 99130.3 99117.5 99105.2 99049.8
          98994.9 98939.7 98887 98835.3 98784.5 98734.4 98682.9 98633.5 98584.1 98534.4 98485.6 98436.2
          98385.9 98336.9 98288.9 98239.2 98190.1 98141.2 98092.4 98043.3 97993.9 97946.5 97897.1 97849.4
          97800.9 97752.6 97704.7 97656.4 97615.8 97546.8 90189.6 90164 90111.4 90061.2 90010.7 89961.7
          89913 89863.3 89814.1 89766.9 89719.1 89672.3 89628.1 89585.3 89542.9 89502.5 89464.8 89415.5
          89353.2 89298.5 89243.1 89187.9 89132.7 89080 89028.3 88977.5 88927.3 88875.9 88826.4 88777
          88727.3 88678.6 88629.1 88578.7 88529.7 88481.6 88432 88382.8 88333.7 88284.6 88235.4 88186.1
          88137.9 88088.3 88040.2 87991.5 87942.6 87894 87846.3 87804.2 87737.6 87622.4 87631.4 87629.2
          87628.4 87627.6 87627 87626.7 87626.7 87627.2 87628.4 87630.3 87633.2 87637.4 87643 87650.2
          87659.5 87670.4 87669.4 87656.7 87645.5 87636.6 87629.4 87623.6 87619.2 87615.8 87613.1 87611.2
          87609.8 87608.7 87607.9 87607.3 87606.9 87606.6 87606.4 87606.2 87606.1 87606.1 87606 87606.1
          87606.2 87606.3 87606.5 87606.9 87607.4 87608 87608.9 87610 87611.5 87613.7 87618.7 87622.4
          87622.4 87617.8 87617.3 87616.3 87615.6 87615 87614.6 87614.7 87615.2 87616.3 87618.2 87621.1
          87625.3 87630.9 87638.2 87647.4 87658.6 87657.7 87644.6 87633.5 87624.5 87617.3 87611.6 87607.1
          87603.7 87601.1 87599.1 87597.7 87596.6 87595.9 87595.3 87594.9 87594.5 87594.3 87594.2 87594.1
          87594 87594 87594 87594.1 87594.2 87594.5 87594.8 87595.3 87596 87596.8 87597.9 87599.5
          87601.8 87605.4 87622.4 87622.4 87604.2 87605.4 87604.2 87603.5 87602.9 87602.6 87602.6 87603.1
          87604.2 87606.2 87609.1 87613.2 87618.8 87626.1 87635.3 87647.1 87646.1 87632.4 87621.4 87612.4
          87605.2 87599.5 87595 87591.6 87589 87587.1 87585.6 87584.6 87583.8 87583.2 87582.8 87582.5
          87582.3 87582.1 87582 87581.9 87581.9 87582 87582 87582.2 87582.4 87582.8 87583.2 87583.9
          87584.8 87585.9 87587.4 87590 87591.9 87622.4 87622.4 87590.3 87593.6 87592.1 87591.4 87590.8
          87590.5 87590.5 87591 87592.2 87594.1 87597 87601.1 87606.8 87614.1 87623.1 89211.1 89210.1
          87620.2 87609.4 87600.4 87593.2 87587.4 87583 87579.6 87577 87575 87573.6 87572.5 87571.7
          87571.1 87570.7 87570.4 87570.2 87570 87569.9 87569.9 87569.9 87569.9 87570 87570.1 87570.4
          87570.7 87571.2 87571.8 87572.7 87573.8 87575.3 87578.2 87578.1 87622.4
        </DataArray>
        <DataArray type="Float32" Name="p_gas" NumberOfComponents="1" format="ascii">
          149050 149067 139240 139260 149067 139259 149064 139257 149063 139256 149062 139254
          149061 139254 149060 139253 149060 139253 149061 139253 149062 139255 149064 139257
          149068 139260 149072 139265 149079 139272 149087 139280 149096 139288 149094 139287
          149083 139276 149065 139258 149016 139208 148961 139153 148906 139099 148853 139046
          148802 138994 148751 138944 148701 138893 148650 138843 148600 138793 148551 138743
          148501 138694 148452 138645 148403 138595 148352 138545 148303 138496 148254 138447
          148204 138397 148154 138347 148104 138297 148053 138246 148002 138194 147949 138142
          147896 138089 147841 138033 147783 137976 147723 137916 147658 137851 147580 137773
          147463 137657 147208 137404 146598 136788 129430 129454 129452 129450 129448 129447
          129446 129446 129446 129446 129447 129450 129453 129458 129465 129473 129481 129480
          129469 129451 129401 129346 129291 129239 129187 129136 129086 129035 128986 128936
          128887 128838 128788 128738 128688 128640 128590 128540 128490 128439 128387 128335
          128282 128227 128170 128110 128045 127968 127852 127605 126978 119620 119648 119645
          119643 119641 119640 119639 119639 119638 119639 119640 119643 119646 119651 119658
          119666 119675 119673 119662 119645 119594 119539 119484 119432 119380 119329 119279
          119228 119178 119129 119079 119030 118981 118931 118881 118833 118783 118733 118683
          118632 118581 118528 118476 118421 118364 118305 118240 118164 118049 117812 117168
          109810 109842 109837 109835 109834 109833 109832 109831 109831 109832 109833 109836
          109839 109844 109851 109859 109868 109867 109855 109840 109787 109732 109677 109624
          109573 109522 109472 109421 109371 109322 109272 109223 109174 109123 109074 109026
          108976 108926 108876 108826 108774 108722 108670 108615 108559 108500 108436 108361
          108248 108024 107358 100000 100039 100031 100030 100029 100029 100028 100028 100029
          100030 100032 100035 100039 100045 100052 100061 100072 100071 100058 100047 100038
          100031 100025 100021 100017 100015 100013 100011 100010 100010 100009 100009 100008
          100008 100008 100008 100008 100008 100008 100008 100008 100008 100009 100009 100010
          100011 100012 100013 100015 100024 100000 100000 100023 100019 100018 100017 100017
          100016 100016 100017 100018 100020 100023 100027 100033 100040 100049 100060 100059
          100046 100035 100026 100019 100013 100009 100005 100003 100001 99999.4 99998.3 99997.6
          99997 99996.6 99996.2 99996 99995.9 99995.8 99995.7 99995.7 99995.7 99995.8 99996 99996.2
          99996.5 99997 99997.6 99998.5 99999.6 100001 100003 100010 100000 100000 100009 100007
          100006 100005 100005 100004 100004 100005 100006 100008 100011 100015 100021 100028
          100037 100048 100047 100034 100023 100014 100007 100001 99996.8 99993.3 99990.7 99988.8
          99987.3 99986.3 99985.5 99984.9 99984.5 99984.2 99984 99983.8 99983.7 99983.6 99983.6 99983.7
          99983.7 99983.9 99984.1 99984.5 99984.9 99985.6 99986.4 99987.6 99989.1 99991.3 99996.2 100000
          100000 99995.4 99994.9 99993.9 99993.1 99992.5 99992.2 99992.2 99992.7 99993.9 99995.8 99998.7
          100003 100008 100016 100025 100036 100035 100022 100011 100002 99994.9 99989.1 99984.7
          99981.3 99978.7 99976.7 99975.3 99974.2 99973.4 99972.9 99972.4 99972.1 99971.9 99971.8 99971.6
          99971.6 99971.6 99971.6 99971.7 99971.8 99972.1 99972.4 99972.9 99973.5 99974.4 99975.5 99977
          99979.4 99983 100000 100000 99981.8 99983 99981.8 99981.1 99980.5 99980.1 99980.2 99980.7
          99981.8 99983.7 99986.6 99990.8 99996.4 100004 100013 100025 100024 100010 99999 99990
          99982.8 99977.1 99972.6 99969.2 99966.6 99964.6 99963.2 99962.1 99961.4 99960.8 99960.4 99960.1
          99959.8 99959.7 99959.6 99959.5 99959.5 99959.5 99959.6 99959.8 99960 99960.3 99960.8 99961.5
          99962.3 99963.5 99965 99967.6 99969.5 100000 100000 99967.9 99971.2 99969.7 99969 99968.4
          99968.1 99968.1 99968.6 99969.7 99971.7 99974.6 99978.7 99984.3 99991.6 100001 100013 100012
          99997.8 99987 99978 99970.7 99965 99960.6 99957.1 99954.5 99952.6 99951.1 99950.1 99949.3
          99948.7 99948.3 99948 99947.8 99947.6 99947.5 99947.5 99947.4 99947.5 99947.6 99947.7 99947.9
          99948.3 99948.8 99949.4 99950.3 99951.4 99952.9 99955.8 99955.7 100000
        </DataArray>
        <DataArray type="Float32" Name="rho_aq" NumberOfComponents="1" format="ascii">
          999.724 999.724 999.719 999.719 999.724 999.719 999.724 999.719 999.724 999.719 999.724 999.719
          999.724 999.719 999.724 999.719 999.724 999.719 999.724 999.719 999.724 999.719 999.724 999.719
          999.724 999.719 999.724 999.719 999.724 999.719 999.724 999.719 999.724 999.719 999.724 999.719
          999.724 999.719 999.724 999.719 999.724 999.719 999.724 999.719 999.724 999.719 999.724 999.719
          999.724 999.719 999.724 999.719 999.724 999.719 999.724 999.719 999.724 999.719 999.724 999.719
          999.724 999.719 999.724 999.719 999.724 999.719 999.724 999.719 999.724 999.719 999.724 999.719
          999.724 999.719 999.724 999.719 999.724 999.719 999.724 999.719 999.724 999.719 999.724 999.719
          999.724 999.719 999.724 999.719 999.724 999.719 999.724 999.719 999.723 999.719 999.723 999.719
          999.723 999.719 999.723 999.719 999.723 999.718 999.715 999.715 999.715 999.715 999.715 999.715
          999.715 999.715 999.715 999.715 999.715 999.715 999.715 999.715 999.715 999.715 999.715 999.715
          999.715 999.715 999.715 999.715 999.715 999.715 999.715 999.715 999.715 999.715 999.715 999.715
          999.714 999.714 999.714 999.714 999.714 999.714 999.714 999.714 999.714 999.714 999.714 999.714
          999.714 999.714 999.714 999.714 999.714 999.714 999.714 999.714 999.714 999.71 999.71 999.71
          999.71 999.71 999.71 999.71 999.71 999.71 999.71 999.71 999.71 999.71 999.71 999.71
          999.71 999.71 999.71 999.71 999.71 999.71 999.71 999.71 999.71 999.71 999.71 999.71
          999.71 999.71 999.71 999.71 999.71 999.71 999.71 999.71 999.71 999.71 999.71 999.71
          999.71 999.71 999.71 999.71 999.709 999.709 999.709 999.709 999.709 999.709 999.709 999.709
          999.705 999.705 999.705 999.705 999.705 999.705 999.705 999.705 999.705 999.705 999.705 999.705
          999.705 999.705 999.705 999.705 999.705 999.705 999.705 999.705 999.705 999.705 999.705 999.705
          999.705 999.705 999.705 999.705 999.705 999.705 999.705 999.705 999.705 999.705 999.705 999.705
          999.705 999.705 999.705 999.705 999.705 999.705 999.705 999.705 999.705 999.705 999.705 999.705
          999.705 999.705 999.704 999.701 999.701 999.701 999.701 999.701 999.701 999.701 999.701 999.701
          999.701 999.701 999.701 999.701 999.701 999.701 999.701 999.701 999.701 999.701 999.701 999.701
          999.701 999.701 999.701 999.701 999.701 999.701 999.701 999.701 999.7 999.7 999.7 999.7
          999.7 999.7 999.7 999.7 999.7 999.7 999.7 999.7 999.7 999.7 999.7 999.7
          999.7 999.7 999.7 999.7 999.7 999.7 999.696 999.696 999.696 999.696 999.696 999.696
          999.696 999.696 999.696 999.696 999.696 999.696 999.696 999.696 999.696 999.696 999.696 999.696
          999.696 999.696 999.696 999.696 999.696 999.696 999.696 999.696 999.696 999.696 999.696 999.696
          999.696 999.696 999.696 999.696 999.696 999.696 999.696 999.696 999.696 999.696 999.695 999.695
          999.695 999.695 999.695 999.695 999.695 999.695 999.695 999.695 999.695 999.695 999.695 999.695
          999.695 999.695 999.695 999.695 999.695 999.695 999.695 999.695 999.695 999.695 999.695 999.695
          999.695 999.695 999.695 999.695 999.695 999.695 999.695 999.695 999.695 999.695 999.695 999.695
          999.695 999.695 999.695 999.695 999.695 999.695 999.695 999.695 999.695 999.695 999.695 999.695
          999.695 999.695 999.695 999.695 999.695 999.695 999.695 999.695 999.695 999.695 999.695 999.695
          999.695 999.695 999.695 999.695 999.695 999.695 999.695 999.695 999.695 999.695 999.695 999.695
          999.695 999.695 999.695 999.695 999.695 999.695 999.695 999.695 999.695 999.695 999.695 999.695
          999.695 999.695 999.695 999.695 999.695 999.695 999.695 999.695 999.695 999.695 999.695 999.695
          999.695 999.695 999.695 999.695 999.695 999.695 999.695 999.695 999.695 999.695 999.695 999.695