<?xml version="1.0"?>
<VTKFile type="UnstructuredGrid" version="0.1" byte_order="LittleEndian">
  <UnstructuredGrid>
    <Piece NumberOfCells="160" NumberOfPoints="205">
      <CellData Scalars="Sw">
        <DataArray type="Float32" Name="Sw" NumberOfComponents="1" format="ascii">
          0.97 0.97 0.97 0.97 0.97 0.97 0.97 0.97 0.97 0.97 0.97 0.97
          0.97 0.97 0.97 0.97 0.97 0.97 0.97 0.97 0.97 0.97 0.97 0.97
          0.97 0.97 0.97 0.97 0.97 0.97 0.97 0.97 0.97 0.97 0.97 0.97
          0.97 0.97 0.97 0.97 0.97 0.969999 0.969999 0.969998 0.969998 0.969998 0.969998 0.969998
          0.969998 0.969998 0.969998 0.969998 0.969998 0.969998 0.969998 0.969998 0.969998 0.969999 0.969999 0.969999
          0.969999 0.969999 0.969999 0.969999 0.969999 0.969999 0.969999 0.969999 0.969999 0.969999 0.969999 0.969999
          0.969999 0.97 0.97 0.97 0.97 0.97 0.97 0.97 0.121681 0.121517 0.121353 0.121189
          0.121887 0.121706 0.120701 0.120537 0.120377 0.120213 0.120049 0.12 0.12 0.12 0.12 0.12
          0.12 0.12 0.12 0.12 0.12 0.12 0.12 0.12 0.12 0.12 0.12 0.12
          0.12 0.12 0.12 0.12 0.12 0.12 0.12 0.12 0.12 0.12 0.12 0.12
          0.12 0.12 0.12 0.12 0.120001 0.120001 0.12 0.12 0.12 0.12 0.12 0.12
          0.12 0.12 0.12 0.12 0.12 0.12 0.12 0.12 0.12 0.12 0.12 0.12
          0.12 0.12 0.12 0.12 0.12 0.12 0.12 0.12 0.12 0.12 0.12 0.12
          0.12 0.12 0.12 0.12
        </DataArray>
        <DataArray type="Float32" Name="Sn" NumberOfComponents="1" format="ascii">
          0 0 0 0 0 0 0 0 0 0 0 0
          0 0 0 0 0 0 0 0 0 0 0 0
          0 0 0 0 0 0 0 0 0 0 0 0
          0 0 0 0 0 0 0 0 0 0 0 0
          0 0 0 0 0 0 0 0 0 0 0 0
          0 0 0 0 0 0 0 0 0 0 0 0
          0 0 0 0 0 0 0 0 0 0 0 0
          0.0176942 0.0177179 0 0 0 0 0 0 0 0 0 0
          0 0 0 0 0 0 0 0 0 0 0 0
          0 0 0 0 0 0 0 0 0 0 0 0
          0 0 0 0.000202936 0.100059 0.100036 0.000202568 0 0 0 0 0
          0 0 0 0 0 0 0 0 0 0 0 0
          0 0 0 0 0 0 0 0 0 0 0 0
          0 0 0 0
        </DataArray>
        <DataArray type="Float32" Name="Sg" NumberOfComponents="1" format="ascii">
          0.03 0.0300001 0.0300002 0.0300003 0.0300004 0.0300004 0.0300004 0.0300004 0.0300004 0.0300004 0.0300004 0.0300003
          0.0300003 0.0300003 0.0300003 0.0300003 0.0300003 0.0300003 0.0300003 0.0300002 0.0300002 0.0300002 0.0300002 0.0300002
          0.0300002 0.0300002 0.0300002 0.0300001 0.0300001 0.0300001 0.0300001 0.0300001 0.0300001 0.0300001 0.0300001 0.0300001
          0.03 0.03 0.03 0.03 0.0300002 0.0300006 0.0300011 0.0300015 0.030002 0.0300022 0.0300021 0.030002
          0.030002 0.0300019 0.0300019 0.0300018 0.0300017 0.0300017 0.0300016 0.0300016 0.0300015 0.0300014 0.0300014 0.0300013
          0.0300013 0.0300012 0.0300011 0.0300011 0.030001 0.0300009 0.0300009 0.0300008 0.0300008 0.0300007 0.0300006 0.0300006
          0.0300005 0.0300004 0.0300004 0.0300003 0.0300002 0.0300002 0.0300001 0.03 0.878319 0.878483 0.878647 0.878811
          0.860419 0.860576 0.879299 0.879463 0.879623 0.879787 0.879951 0.88 0.88 0.88 0.88 0.88
          0.88 0.88 0.88 0.88 0.88 0.88 0.88 0.88 0.88 0.88 0.88 0.88
          0.88 0.88 0.88 0.88 0.88 0.88 0.88 0.88 0.88 0.88 0.88 0.88
          0.88 0.88 0.88 0.879797 0.77994 0.779964 0.879797 0.88 0.88 0.88 0.88 0.88
          0.88 0.88 0.88 0.88 0.88 0.88 0.88 0.88 0.88 0.88 0.88 0.88
          0.88 0.88 0.88 0.88 0.88 0.88 0.88 0.88 0.88 0.88 0.88 0.88
          0.88 0.88 0.88 0.88
        </DataArray>
        <DataArray type="Float32" Name="pw" NumberOfComponents="1" format="ascii">
          135413 135319 135225 135132 135038 134964 134907 134851 134795 134739 134683 134626
          134570 134513 134457 134400 134344 134287 134231 134174 134117 134061 134004 133947
          133890 133833 133776 133720 133663 133606 133549 133492 133435 133378 133321 133264
          133207 133149 133092 133035 110894 110801 110707 110613 110519 110445 110389 110333
          110277 110221 110164 110108 110052 109995 109939 109882 109826 109769 109712 109656
          109599 109542 109486 109429 109372 109315 109258 109201 109144 109087 109030 108973
          108916 108859 108802 108745 108688 108631 108574 108517 87724.4 87668.3 87611.6 87555
          85999.8 85925.2 87378.6 87316.3 87255.5 87193.1 87130.8 87111.9 87111.2 87110.5 87109.8 87109.1
          87108.4 87107.7 87107 87106.3 87105.5 87104.8 87104 87103.3 87102.5 87101.8 87101 87100.2
          87099.5 87098.7 87097.9 87097.1 87096.4 87095.6 87094.8 87094 87093.2 87092.5 87091.7 87090.3
          87063.5 87068 87072.9 87078 82833.3 82835.4 87085.2 87084.5 87083.9 87083.2 87082.5 87081.9
          87081.2 87080.5 87079.8 87079.1 87078.4 87077.7 87077 87076.2 87075.5 87074.8 87074 87073.2
          87072.5 87071.7 87071 87070.2 87069.4 87068.7 87067.9 87067.1 87066.3 87065.6 87064.8 87064
          87063.2 87062.4 87061.6 87061.4
        </DataArray>
        <DataArray type="Float32" Name="pn" NumberOfComponents="1" format="ascii">
          135413 135319 135225 135132 135038 134964 134907 134851 134795 134739 134683 134626
          134570 134513 134457 134400 134344 134287 134231 134174 134117 134061 134004 133947
          133890 133833 133776 133720 133663 133606 133549 133492 133435 133378 133321 133264
          133207 133149 133092 133035 110894 110801 110707 110613 110519 110445 110389 110333
          110277 110221 110164 110108 110052 109995 109939 109882 109826 109769 109712 109656
          109599 109542 109486 109429 109372 109315 109258 109201 109144 109087 109030 108973
          108916 108859 108802 108745 108688 108631 108574 108517 87724.4 87668.3 87611.6 87555
          89116 89064.4 87378.6 87316.3 87255.5 87193.1 87130.8 87111.9 87111.2 87110.5 87109.8 87109.1
          87108.4 87107.7 87107 87106.3 87105.5 87104.8 87104 87103.3 87102.5 87101.8 87101 87100.2
          87099.5 87098.7 87097.9 87097.1 87096.4 87095.6 87094.8 87094 87093.2 87092.5 87091.7 87090.3
          87063.5 87068 87072.9 87078 95937.7 95939.7 87085.2 87084.5 87083.9 87083.2 87082.5 87081.9
          87081.2 87080.5 87079.8 87079.1 87078.4 87077.7 87077 87076.2 87075.5 87074.8 87074 87073.2
          87072.5 87071.7 87071 87070.2 87069.4 87068.7 87067.9 87067.1 87066.3 87065.6 87064.8 87064
          87063.2 87062.4 87061.6 87061.4
        </DataArray>
        <DataArray type="Float32" Name="pg" NumberOfComponents="1" format="ascii">
          136737 136644 136550 136457 136363 136289 136232 136176 136120 136064 136007 135951
          135895 135838 135782 135725 135669 135612 135556 135499 135442 135385 135329 135272
          135215 135158 135101 135044 134987 134930 134873 134816 134759 134702 134645 134588
          134531 134474 134417 134360 112219 112126 112032 111938 111844 111770 111714 111658
          111602 111545 111489 111433 111376 111320 111264 111207 111150 111094 111037 110981
          110924 110867 110810 110754 110697 110640 110583 110526 110469 110412 110355 110298
          110241 110184 110127 110070 110013 109956 109899 109842 100017 100022 100027 100033
          100038 100040 100040 100039 100038 100038 100037 100036 100036 100035 100034 100034
          100033 100032 100032 100031 100030 100029 100029 100028 100027 100026 100026 100025
          100024 100023 100022 100022 100021 100020 100019 100019 100018 100017 100016 100015
          99988.1 99992.5 99997.5 100002 100008 100010 100010 100009 100008 100008 100007 100006
          100006 100005 100004 100004 100003 100002 100001 100001 100000 99999.3 99998.5 99997.8
          99997 99996.3 99995.5 99994.7 99994 99993.2 99992.4 99991.6 99990.9 99990.1 99989.3 99988.5
          99987.7 99987 99986.2 99985.9
        </DataArray>
        <DataArray type="Float32" Name="rhow" NumberOfComponents="1" format="ascii">
          999.733 999.733 999.733 999.733 999.733 999.733 999.733 999.733 999.733 999.733 999.733 999.733
          999.733 999.733 999.733 999.733 999.733 999.733 999.733 999.732 999.732 999.732 999.732 999.732
          999.732 999.732 999.732 999.732 999.732 999.732 999.732 999.732 999.732 999.732 999.732 999.732
          999.732 999.732 999.732 999.732 999.719 999.719 999.719 999.719 999.719 999.719 999.719 999.718
          999.718 999.718 999.718 999.718 999.718 999.718 999.718 999.718 999.718 999.718 999.718 999.718
          999.718 999.718 999.718 999.718 999.718 999.718 999.718 999.718 999.718 999.718 999.718 999.718
          999.718 999.718 999.718 999.718 999.717 999.717 999.717 999.717 999.706 999.706 999.706 999.708
          999.725 999.725 999.707 999.706 999.706 999.706 999.706 999.706 999.706 999.706 999.706 999.706
          999.706 999.706 999.706 999.706 999.706 999.706 999.706 999.706 999.706 999.706 999.706 999.706
          999.706 999.706 999.706 999.706 999.706 999.706 999.706 999.706 999.706 999.706 999.706 999.706
          999.706 999.706 999.707 999.725 999.723 999.723 999.725 999.706 999.706 999.706 999.706 999.706
          999.706 999.706 999.706 999.706 999.706 999.706 999.706 999.706 999.706 999.706 999.706 999.706
          999.706 999.706 999.706 999.706 999.706 999.706 999.706 999.706 999.706 999.706 999.706 999.706
          999.706 999.706 999.706 999.706
        </DataArray>
        <DataArray type="Float32" Name="rhon" NumberOfComponents="1" format="ascii">
          878.771 878.771 878.771 878.771 878.771 878.771 878.771 878.771 878.771 878.771 878.771 878.771
          878.771 878.771 878.771 878.771 878.771 878.771 878.771 878.771 878.771 878.771 878.771 878.771
          878.771 878.771 878.771 878.771 878.771 878.771 878.771 878.771 878.771 878.771 878.771 878.771
          878.771 878.771 878.771 878.771 878.771 878.771 878.771 878.771 878.771 878.771 878.771 878.771
          878.771 878.771 878.771 878.771 878.771 878.771 878.771 878.771 878.771 878.771 878.771 878.771
          878.771 878.771 878.771 878.771 878.771 878.771 878.771 878.771 878.771 878.771 878.771 878.771
          878.771 878.771 878.771 878.771 878.771 878.771 878.771 878.771 878.771 878.771 878.771 878.771
          878.771 878.771 878.771 878.771 878.771 878.771 878.771 878.771 878.771 878.771 878.771 878.771
          878.771 878.771 878.771 878.771 878.771 878.771 878.771 878.771 878.771 878.771 878.771 878.771
          878.771 878.771 878.771 878.771 878.771 878.771 878.771 878.771 878.771 878.771 878.771 878.771
          878.771 878.771 878.771 878.771 878.771 878.771 878.771 878.771 878.771 878.771 878.771 878.771
          878.771 878.771 878.771 878.771 878.771 878.771 878.771 878.771 878.771 878.771 878.771 878.771
          878.771 878.771 878.771 878.771 878.771 878.771 878.771 878.771 878.771 878.771 878.771 878.771
          878.771 878.771 878.771 878.771
        </DataArray>
        <DataArray type="Float32" Name="rhog" NumberOfComponents="1" format="ascii">
          1.67634 1.67519 1.67403 1.67288 1.67174 1.67082 1.67012 1.66943 1.66874 1.66805 1.66736 1.66666
          1.66597 1.66528 1.66458 1.66389 1.66319 1.6625 1.6618 1.6611 1.6604 1.65971 1.65901 1.65831
          1.65761 1.65691 1.65621 1.65551 1.65481 1.65411 1.65341 1.65271 1.65201 1.6513 1.6506 1.6499
          1.6492 1.6485 1.6478 1.6471 1.37473 1.37358 1.37243 1.37128 1.37017 1.36926 1.36852 1.36783
          1.36714 1.36645 1.36575 1.36506 1.36437 1.36367 1.36298 1.36228 1.36159 1.36089 1.36019 1.3595
          1.3588 1.3581 1.3574 1.3567 1.356 1.35531 1.35461 1.35391 1.35321 1.3525 1.3518 1.3511
          1.3504 1.3497 1.349 1.3483 1.3476 1.34689 1.34619 1.34549 1.22463 1.2247 1.22478 1.22519
          1.22924 1.22927 1.22502 1.2249 1.22489 1.22489 1.22488 1.22487 1.22486 1.22485 1.22484 1.22484
          1.22483 1.22482 1.22481 1.2248 1.22479 1.22478 1.22477 1.22476 1.22475 1.22475 1.22474 1.22473
          1.22472 1.22471 1.2247 1.22469 1.22468 1.22467 1.22466 1.22465 1.22464 1.22463 1.22462 1.2246
          1.22428 1.22434 1.22463 1.2288 1.22887 1.2289 1.22889 1.22457 1.22453 1.22452 1.22451 1.2245
          1.22449 1.22448 1.22448 1.22447 1.22446 1.22445 1.22444 1.22443 1.22442 1.22441 1.2244 1.22439
          1.22439 1.22438 1.22437 1.22436 1.22435 1.22434 1.22433 1.22432 1.22431 1.2243 1.22429 1.22428
          1.22427 1.22426 1.22425 1.22425
        </DataArray>
        <DataArray type="Float32" Name="x^w_H2O" NumberOfComponents="1" format="ascii">
          0.999975 0.999975 0.999975 0.999975 0.999975 0.999975 0.999975 0.999975 0.999975 0.999975 0.999975 0.999975
          0.999975 0.999975 0.999975 0.999975 0.999975 0.999975 0.999975 0.999975 0.999975 0.999975 0.999975 0.999975
          0.999975 0.999975 0.999975 0.999975 0.999975 0.999975 0.999975 0.999975 0.999975 0.999975 0.999975 0.999975
          0.999975 0.999975 0.999975 0.999976 0.99998 0.99998 0.99998 0.99998 0.99998 0.99998 0.99998 0.99998
          0.99998 0.99998 0.99998 0.99998 0.99998 0.99998 0.99998 0.99998 0.99998 0.99998 0.99998 0.99998
          0.99998 0.99998 0.99998 0.99998 0.99998 0.99998 0.99998 0.99998 0.99998 0.99998 0.99998 0.99998
          0.99998 0.99998 0.99998 0.99998 0.99998 0.99998 0.99998 0.99998 0.999982 0.999982 0.999982 0.999982
          0.999978 0.999978 0.999982 0.999982 0.999982 0.999982 0.999982 0.999982 0.999982 0.999982 0.999982 0.999982
          0.999982 0.999982 0.999982 0.999982 0.999982 0.999982 0.999982 0.999982 0.999982 0.999982 0.999982 0.999982
          0.999982 0.999982 0.999982 0.999982 0.999982 0.999982 0.999982 0.999982 0.999982 0.999982 0.999982 0.999982
          0.999982 0.999982 0.999982 0.999978 0.999978 0.999978 0.999978 0.999982 0.999982 0.999982 0.999982 0.999982
          0.999982 0.999982 0.999982 0.999982 0.999982 0.999982 0.999982 0.999982 0.999982 0.999982 0.999982 0.999982
          0.999982 0.999982 0.999982 0.999982 0.999982 0.999982 0.999982 0.999982 0.999982 0.999982 0.999982 0.999982
          0.999982 0.999982 0.999982 0.999982
        </DataArray>
        <DataArray type="Float32" Name="x^w_mesitylene" NumberOfComponents="1" format="ascii">
          4.13462e-09 4.13276e-09 4.13089e-09 4.12903e-09 4.12716e-09 4.1253e-09 4.12345e-09 4.12159e-09 4.11974e-09 4.11789e-09 4.11604e-09 4.11419e-09
          4.11234e-09 4.11049e-09 4.10863e-09 4.10678e-09 4.10493e-09 4.10308e-09 4.10123e-09 4.09938e-09 4.09752e-09 4.09567e-09 4.09382e-09 4.09197e-09
          4.09012e-09 4.08826e-09 4.08641e-09 4.08456e-09 4.08271e-09 4.08086e-09 4.07901e-09 4.07715e-09 4.0753e-09 4.07345e-09 4.0716e-09 4.06975e-09
          4.06789e-09 4.06604e-09 4.06419e-09 4.06234e-09 3.39355e-09 3.3913e-09 3.38942e-09 3.38756e-09 4.04877e-08 4.59021e-08 3.43659e-09 3.38019e-09
          3.37827e-09 3.37642e-09 3.37457e-09 3.37272e-09 3.37087e-09 3.36901e-09 3.36716e-09 3.36531e-09 3.36346e-09 3.36161e-09 3.35976e-09 3.3579e-09
          3.35605e-09 3.3542e-09 3.35235e-09 3.3505e-09 3.34865e-09 3.34679e-09 3.34494e-09 3.34309e-09 3.34124e-09 3.33939e-09 3.33753e-09 3.33568e-09
          3.33383e-09 3.33198e-09 3.33013e-09 3.32827e-09 3.32642e-09 3.32457e-09 3.32273e-09 3.32127e-09 3.06394e-09 3.46007e-09 1.48799e-08 2.92152e-07
          3.40605e-06 3.40605e-06 8.9718e-08 3.43761e-09 3.02602e-09 3.0241e-09 3.02408e-09 3.02407e-09 3.02405e-09 3.02404e-09 3.02403e-09 3.02401e-09
          3.024e-09 3.02398e-09 3.02397e-09 3.02396e-09 3.02394e-09 3.02393e-09 3.02391e-09 3.0239e-09 3.02388e-09 3.02387e-09 3.02385e-09 3.02383e-09
          3.02382e-09 3.0238e-09 3.02379e-09 3.02377e-09 3.02376e-09 3.02374e-09 3.02373e-09 3.02371e-09 3.0237e-09 3.02368e-09 3.02367e-09 3.02373e-09
          3.20814e-09 1.03031e-08 1.91594e-07 3.40605e-06 3.40605e-06 3.40605e-06 3.40605e-06 2.9471e-08 3.17188e-09 3.0242e-09 3.02348e-09 3.02347e-09
          3.02345e-09 3.02344e-09 3.02343e-09 3.02341e-09 3.0234e-09 3.02338e-09 3.02337e-09 3.02336e-09 3.02334e-09 3.02333e-09 3.02331e-09 3.0233e-09
          3.02328e-09 3.02327e-09 3.02325e-09 3.02324e-09 3.02322e-09 3.0232e-09 3.02319e-09 3.02317e-09 3.02316e-09 3.02314e-09 3.02313e-09 3.02311e-09
          3.0231e-09 3.02308e-09 3.02306e-09 3.02301e-09
        </DataArray>
        <DataArray type="Float32" Name="x^w_Air" NumberOfComponents="1" format="ascii">
          2.4954e-05 2.49368e-05 2.49195e-05 2.49023e-05 2.48851e-05 2.48714e-05 2.4861e-05 2.48507e-05 2.48403e-05 2.483e-05 2.48196e-05 2.48092e-05
          2.47988e-05 2.47885e-05 2.47781e-05 2.47676e-05 2.47572e-05 2.47468e-05 2.47364e-05 2.47259e-05 2.47155e-05 2.47051e-05 2.46946e-05 2.46841e-05
          2.46737e-05 2.46632e-05 2.46527e-05 2.46422e-05 2.46318e-05 2.46213e-05 2.46108e-05 2.46003e-05 2.45898e-05 2.45793e-05 2.45688e-05 2.45583e-05
          2.45478e-05 2.45373e-05 2.45268e-05 2.45163e-05 2.04389e-05 2.04217e-05 2.04045e-05 2.03873e-05 2.03697e-05 2.0356e-05 2.0346e-05 2.03356e-05
          2.03253e-05 2.03149e-05 2.03046e-05 2.02942e-05 2.02838e-05 2.02734e-05 2.0263e-05 2.02526e-05 2.02422e-05 2.02318e-05 2.02213e-05 2.02109e-05
          2.02005e-05 2.019e-05 2.01796e-05 2.01691e-05 2.01586e-05 2.01482e-05 2.01377e-05 2.01272e-05 2.01167e-05 2.01062e-05 2.00957e-05 2.00852e-05
          2.00747e-05 2.00642e-05 2.00537e-05 2.00432e-05 2.00327e-05 2.00222e-05 2.00117e-05 2.00012e-05 1.8192e-05 1.8193e-05 1.81938e-05 1.81931e-05
          1.81751e-05 1.81755e-05 1.81956e-05 1.8196e-05 1.81959e-05 1.81958e-05 1.81957e-05 1.81955e-05 1.81954e-05 1.81953e-05 1.81952e-05 1.8195e-05
          1.81949e-05 1.81948e-05 1.81946e-05 1.81945e-05 1.81944e-05 1.81942e-05 1.81941e-05 1.8194e-05 1.81938e-05 1.81937e-05 1.81935e-05 1.81934e-05
          1.81932e-05 1.81931e-05 1.8193e-05 1.81928e-05 1.81927e-05 1.81925e-05 1.81924e-05 1.81922e-05 1.81921e-05 1.8192e-05 1.81918e-05 1.81916e-05
          1.81866e-05 1.81874e-05 1.81872e-05 1.81685e-05 1.81696e-05 1.817e-05 1.81699e-05 1.81903e-05 1.81904e-05 1.81903e-05 1.81901e-05 1.819e-05
          1.81899e-05 1.81898e-05 1.81896e-05 1.81895e-05 1.81894e-05 1.81892e-05 1.81891e-05 1.8189e-05 1.81888e-05 1.81887e-05 1.81886e-05 1.81884e-05
          1.81883e-05 1.81881e-05 1.8188e-05 1.81879e-05 1.81877e-05 1.81876e-05 1.81874e-05 1.81873e-05 1.81871e-05 1.8187e-05 1.81869e-05 1.81867e-05
          1.81866e-05 1.81864e-05 1.81863e-05 1.81862e-05
        </DataArray>
        <DataArray type="Float32" Name="x^n_H2O" NumberOfComponents="1" format="ascii">
          1e-10 1e-10 1e-10 1e-10 1e-10 1e-10 1e-10 1e-10 1e-10 1e-10 1e-10 1e-10
          1e-10 1e-10 1e-10 1e-10 1e-10 1e-10 1e-10 1e-10 1e-10 1e-10 1e-10 1e-10
          1e-10 1e-10 1e-10 1e-10 1e-10 1e-10 1e-10 1e-10 1e-10 1e-10 1e-10 1e-10
          1e-10 1e-10 1e-10 1e-10 1e-10 1e-10 1e-10 1e-10 1e-10 1e-10 1e-10 1e-10
          1e-10 1e-10 1e-10 1e-10 1e-10 1e-10 1e-10 1e-10 1e-10 1e-10 1e-10 1e-10
          1e-10 1e-10 1e-10 1e-10 1e-10 1e-10 1e-10 1e-10 1e-10 1e-10 1e-10 1e-10
          1e-10 1e-10 1e-10 1e-10 1e-10 1e-10 1e-10 1e-10 1e-10 1e-10 1e-10 1e-10
          1e-10 1e-10 1e-10 1e-10 1e-10 1e-10 1e-10 1e-10 1e-10 1e-10 1e-10 1e-10
          1e-10 1e-10 1e-10 1e-10 1e-10 1e-10 1e-10 1e-10 1e-10 1e-10 1e-10 1e-10
          1e-10 1e-10 1e-10 1e-10 1e-10 1e-10 1e-10 1e-10 1e-10 1e-10 1e-10 1e-10
          1e-10 1e-10 1e-10 1e-10 1e-10 1e-10 1e-10 1e-10 1e-10 1e-10 1e-10 1e-10
          1e-10 1e-10 1e-10 1e-10 1e-10 1e-10 1e-10 1e-10 1e-10 1e-10 1e-10 1e-10
          1e-10 1e-10 1e-10 1e-10 1e-10 1e-10 1e-10 1e-10 1e-10 1e-10 1e-10 1e-10
          1e-10 1e-10 1e-10 1e-10
        </DataArray>
        <DataArray type="Float32" Name="x^n_mesitylene" NumberOfComponents="1" format="ascii">
          0.0012139 0.00121336 0.00121281 0.00121226 0.00121171 0.00121117 0.00121062 0.00121008 0.00120954 0.00120899 0.00120845 0.00120791
          0.00120736 0.00120682 0.00120627 0.00120573 0.00120519 0.00120464 0.0012041 0.00120356 0.00120301 0.00120247 0.00120192 0.00120138
          0.00120084 0.00120029 0.00119975 0.00119921 0.00119866 0.00119812 0.00119758 0.00119703 0.00119649 0.00119594 0.0011954 0.00119486
          0.00119431 0.00119377 0.00119323 0.00119268 0.00099633 0.000995668 0.000995117 0.000994571 0.011887 0.0134766 0.00100896 0.000992408
          0.000991844 0.0009913 0.000990756 0.000990213 0.000989669 0.000989126 0.000988582 0.000988038 0.000987495 0.000986951 0.000986407 0.000985864
          0.00098532 0.000984776 0.000984233 0.000983689 0.000983145 0.000982602 0.000982058 0.000981514 0.000980971 0.000980427 0.000979883 0.00097934
          0.000978796 0.000978252 0.000977708 0.000977165 0.000976621 0.000976077 0.000975536 0.000975109 0.000899556 0.00101586 0.00436867 0.0857745
          1 1 0.0263408 0.00100926 0.000888423 0.000887861 0.000887855 0.000887851 0.000887847 0.000887843 0.000887839 0.000887835
          0.000887831 0.000887826 0.000887822 0.000887818 0.000887814 0.000887809 0.000887805 0.000887801 0.000887796 0.000887792 0.000887787 0.000887783
          0.000887778 0.000887774 0.000887769 0.000887765 0.00088776 0.000887755 0.000887751 0.000887746 0.000887742 0.000887737 0.000887733 0.000887752
          0.000941895 0.00302495 0.0562511 1 1 1 1 0.00865254 0.000931249 0.000887891 0.00088768 0.000887675
          0.000887671 0.000887667 0.000887663 0.000887659 0.000887655 0.000887651 0.000887646 0.000887642 0.000887638 0.000887633 0.000887629 0.000887625
          0.00088762 0.000887616 0.000887611 0.000887607 0.000887602 0.000887598 0.000887593 0.000887589 0.000887584 0.00088758 0.000887575 0.00088757
          0.000887566 0.000887561 0.000887557 0.00088754
        </DataArray>
        <DataArray type="Float32" Name="x^n_Air" NumberOfComponents="1" format="ascii">
          1e-10 1e-10 1e-10 1e-10 1e-10 1e-10 1e-10 1e-10 1e-10 1e-10 1e-10 1e-10
          1e-10 1e-10 1e-10 1e-10 1e-10 1e-10 1e-10 1e-10 1e-10 1e-10 1e-10 1e-10
          1e-10 1e-10 1e-10 1e-10 1e-10 1e-10 1e-10 1e-10 1e-10 1e-10 1e-10 1e-10
          1e-10 1e-10 1e-10 1e-10 1e-10 1e-10 1e-10 1e-10 1e-10 1e-10 1e-10 1e-10
          1e-10 1e-10 1e-10 1e-10 1e-10 1e-10 1e-10 1e-10 1e-10 1e-10 1e-10 1e-10
          1e-10 1e-10 1e-10 1e-10 1e-10 1e-10 1e-10 1e-10 1e-10 1e-10 1e-10 1e-10
          1e-10 1e-10 1e-10 1e-10 1e-10 1e-10 1e-10 1e-10 1e-10 1e-10 1e-10 1e-10
          1e-10 1e-10 1e-10 1e-10 1e-10 1e-10 1e-10 1e-10 1e-10 1e-10 1e-10 1e-10
          1e-10 1e-10 1e-10 1e-10 1e-10 1e-10 1e-10 1e-10 1e-10 1e-10 1e-10 1e-10
          1e-10 1e-10 1e-10 1e-10 1e-10 1e-10 1e-10 1e-10 1e-10 1e-10 1e-10 1e-10
          1e-10 1e-10 1e-10 1e-10 1e-10 1e-10 1e-10 1e-10 1e-10 1e-10 1e-10 1e-10
          1e-10 1e-10 1e-10 1e-10 1e-10 1e-10 1e-10 1e-10 1e-10 1e-10 1e-10 1e-10
          1e-10 1e-10 1e-10 1e-10 1e-10 1e-10 1e-10 1e-10 1e-10 1e-10 1e-10 1e-10
          1e-10 1e-10 1e-10 1e-10
        </DataArray>
        <DataArray type="Float32" Name="x^g_H2O" NumberOfComponents="1" format="ascii">
          0.00898206 0.00898822 0.00899438 0.00900055 0.0090067 0.00901164 0.00901537 0.00901908 0.00902281 0.00902653 0.00903027 0.00903401
          0.00903776 0.00904151 0.00904527 0.00904904 0.00905281 0.00905659 0.00906037 0.00906416 0.00906796 0.00907176 0.00907557 0.00907938
          0.00908319 0.00908701 0.00909084 0.00909467 0.00909851 0.00910235 0.00910619 0.00911004 0.0091139 0.00911776 0.00912162 0.00912548
          0.00912935 0.00913323 0.0091371 0.00914097 0.0109445 0.0109537 0.0109628 0.010972 0.0109812 0.0109885 0.010994 0.0109995
          0.0110051 0.0110106 0.0110162 0.0110217 0.0110273 0.0110329 0.0110385 0.0110441 0.0110497 0.0110554 0.011061 0.0110667
          0.0110723 0.011078 0.0110837 0.0110893 0.011095 0.0111007 0.0111064 0.0111122 0.0111179 0.0111236 0.0111294 0.0111351
          0.0111409 0.0111466 0.0111524 0.0111582 0.011164 0.0111698 0.0111756 0.0111814 0.0122798 0.0122791 0.0122785 0.0122778
          0.0122772 0.0122769 0.012277 0.012277 0.0122771 0.0122772 0.0122773 0.0122774 0.0122774 0.0122775 0.0122776 0.0122777
          0.0122778 0.0122779 0.012278 0.0122781 0.0122781 0.0122782 0.0122783 0.0122784 0.0122785 0.0122786 0.0122787 0.0122788
          0.0122789 0.012279 0.0122791 0.0122792 0.0122793 0.0122794 0.0122795 0.0122796 0.0122797 0.0122798 0.0122799 0.01228
          0.0122833 0.0122828 0.0122822 0.0122815 0.0122809 0.0122806 0.0122807 0.0122807 0.0122808 0.0122809 0.012281 0.0122811
          0.0122811 0.0122812 0.0122813 0.0122814 0.0122815 0.0122816 0.0122817 0.0122817 0.0122818 0.0122819 0.012282 0.0122821
          0.0122822 0.0122823 0.0122824 0.0122825 0.0122826 0.0122827 0.0122828 0.0122829 0.012283 0.0122831 0.0122832 0.0122832
          0.0122833 0.0122834 0.0122835 0.0122836
        </DataArray>
        <DataArray type="Float32" Name="x^g_mesitylene" NumberOfComponents="1" format="ascii">
          1.00014e-06 1.00038e-06 1.00061e-06 1.00084e-06 1.00108e-06 1.00117e-06 1.00114e-06 1.0011e-06 1.00106e-06 1.00103e-06 1.00099e-06 1.00095e-06
          1.00092e-06 1.00088e-06 1.00085e-06 1.00081e-06 1.00078e-06 1.00075e-06 1.00071e-06 1.00068e-06 1.00065e-06 1.00061e-06 1.00058e-06 1.00055e-06
          1.00052e-06 1.00048e-06 1.00045e-06 1.00042e-06 1.00039e-06 1.00036e-06 1.00032e-06 1.00029e-06 1.00026e-06 1.00023e-06 1.0002e-06 1.00017e-06
          1.00014e-06 1.00011e-06 1.00007e-06 1.00004e-06 1.00023e-06 1.0004e-06 1.00068e-06 1.00097e-06 1.19735e-05 1.35838e-05 1.0175e-06 1.0013e-06
          1.00124e-06 1.00119e-06 1.00115e-06 1.00111e-06 1.00106e-06 1.00102e-06 1.00098e-06 1.00093e-06 1.00089e-06 1.00085e-06 1.00081e-06 1.00077e-06
          1.00073e-06 1.00069e-06 1.00065e-06 1.00061e-06 1.00057e-06 1.00053e-06 1.00049e-06 1.00045e-06 1.00041e-06 1.00037e-06 1.00034e-06 1.0003e-06
          1.00026e-06 1.00022e-06 1.00018e-06 1.00014e-06 1.00011e-06 1.00007e-06 1.00003e-06 1.00011e-06 1.01326e-06 1.1442e-06 4.92033e-06 9.66009e-05
          0.00112616 0.00112613 2.96633e-05 1.13658e-06 1.0005e-06 9.99874e-07 9.99874e-07 9.99876e-07 9.99878e-07 9.99881e-07 9.99883e-07 9.99886e-07
          9.99888e-07 9.9989e-07 9.99893e-07 9.99895e-07 9.99898e-07 9.999e-07 9.99903e-07 9.99905e-07 9.99908e-07 9.99911e-07 9.99913e-07 9.99916e-07
          9.99918e-07 9.99921e-07 9.99924e-07 9.99926e-07 9.99929e-07 9.99932e-07 9.99934e-07 9.99937e-07 9.9994e-07 9.99942e-07 9.99946e-07 9.99981e-07
          1.06125e-06 3.40812e-06 6.33733e-05 0.00112656 0.0011265 0.00112647 0.00112648 9.74695e-06 1.04904e-06 1.00021e-06 9.99977e-07 9.99978e-07
          9.99981e-07 9.99983e-07 9.99985e-07 9.99988e-07 9.9999e-07 9.99992e-07 9.99995e-07 9.99997e-07 1e-06 1e-06 1e-06 1.00001e-06
          1.00001e-06 1.00001e-06 1.00002e-06 1.00002e-06 1.00002e-06 1.00002e-06 1.00003e-06 1.00003e-06 1.00003e-06 1.00003e-06 1.00004e-06 1.00004e-06
          1.00004e-06 1.00004e-06 1.00005e-06 1.00003e-06
        </DataArray>
        <DataArray type="Float32" Name="x^g_Air" NumberOfComponents="1" format="ascii">
          0.991017 0.991011 0.991005 0.990998 0.990992 0.990987 0.990984 0.99098 0.990976 0.990972 0.990969 0.990965
          0.990961 0.990957 0.990954 0.99095 0.990946 0.990942 0.990939 0.990935 0.990931 0.990927 0.990923 0.99092
          0.990916 0.990912 0.990908 0.990904 0.990901 0.990897 0.990893 0.990889 0.990885 0.990881 0.990877 0.990874
          0.99087 0.990866 0.990862 0.990858 0.989054 0.989045 0.989036 0.989027 0.989007 0.988998 0.989005 0.988999
          0.988994 0.988988 0.988983 0.988977 0.988972 0.988966 0.988961 0.988955 0.988949 0.988944 0.988938 0.988932
          0.988927 0.988921 0.988915 0.98891 0.988904 0.988898 0.988893 0.988887 0.988881 0.988875 0.98887 0.988864
          0.988858 0.988852 0.988847 0.988841 0.988835 0.988829 0.988823 0.988818 0.987719 0.98772 0.987717 0.987626
          0.986597 0.986597 0.987693 0.987722 0.987722 0.987722 0.987722 0.987722 0.987722 0.987721 0.987721 0.987721
          0.987721 0.987721 0.987721 0.987721 0.987721 0.987721 0.987721 0.987721 0.98772 0.98772 0.98772 0.98772
          0.98772 0.98772 0.98772 0.98772 0.98772 0.98772 0.98772 0.987719 0.987719 0.987719 0.987719 0.987719
          0.987716 0.987714 0.987654 0.986592 0.986593 0.986593 0.986593 0.98771 0.987718 0.987718 0.987718 0.987718
          0.987718 0.987718 0.987718 0.987718 0.987718 0.987717 0.987717 0.987717 0.987717 0.987717 0.987717 0.987717
          0.987717 0.987717 0.987717 0.987716 0.987716 0.987716 0.987716 0.987716 0.987716 0.987716 0.987716 0.987716
          0.987716 0.987716 0.987715 0.987715
        </DataArray>
        <DataArray type="Float32" Name="porosity" NumberOfComponents="1" format="ascii">
          0.4 0.4 0.4 0.4 0.4 0.4 0.4 0.4 0.4 0.4 0.4 0.4
          0.4 0.4 0.4 0.4 0.4 0.4 0.4 0.4 0.4 0.4 0.4 0.4
          0.4 0.4 0.4 0.4 0.4 0.4 0.4 0.4 0.4 0.4 0.4 0.4
          0.4 0.4 0.4 0.4 0.4 0.4 0.4 0.4 0.4 0.4 0.4 0.4
          0.4 0.4 0.4 0.4 0.4 0.4 0.4 0.4 0.4 0.4 0.4 0.4
          0.4 0.4 0.4 0.4 0.4 0.4 0.4 0.4 0.4 0.4 0.4 0.4
          0.4 0.4 0.4 0.4 0.4 0.4 0.4 0.4 0.4 0.4 0.4 0.4
          0.4 0.4 0.4 0.4 0.4 0.4 0.4 0.4 0.4 0.4 0.4 0.4
          0.4 0.4 0.4 0.4 0.4 0.4 0.4 0.4 0.4 0.4 0.4 0.4
          0.4 0.4 0.4 0.4 0.4 0.4 0.4 0.4 0.4 0.4 0.4 0.4
          0.4 0.4 0.4 0.4 0.4 0.4 0.4 0.4 0.4 0.4 0.4 0.4
          0.4 0.4 0.4 0.4 0.4 0.4 0.4 0.4 0.4 0.4 0.4 0.4
          0.4 0.4 0.4 0.4 0.4 0.4 0.4 0.4 0.4 0.4 0.4 0.4
          0.4 0.4 0.4 0.4
        </DataArray>
        <DataArray type="Float32" Name="temperature" NumberOfComponents="1" format="ascii">
          283.15 283.15 283.15 283.15 283.15 283.15 283.15 283.15 283.15 283.15 283.15 283.15
          283.15 283.15 283.15 283.15 283.15 283.15 283.15 283.15 283.15 283.15 283.15 283.15
          283.15 283.15 283.15 283.15 283.15 283.15 283.15 283.15 283.15 283.15 283.15 283.15
          283.15 283.15 283.15 283.15 283.15 283.15 283.15 283.15 283.15 283.15 283.15 283.15
          283.15 283.15 283.15 283.15 283.15 283.15 283.15 283.15 283.15 283.15 283.15 283.15
          283.15 283.15 283.15 283.15 283.15 283.15 283.15 283.15 283.15 283.15 283.15 283.15