<?xml version="1.0"?>
<VTKFile type="UnstructuredGrid" version="0.1" byte_order="LittleEndian">
  <UnstructuredGrid>
    <Piece NumberOfCells="500" NumberOfPoints="561">
      <CellData Scalars="sw">
        <DataArray type="Float32" Name="sw" NumberOfComponents="1" format="ascii">
          0.97 0.970001 0.970001 0.970001 0.970001 0.970001 0.970001 0.970001 0.970001 0.970001 0.97 0.97
          0.97 0.97 0.97 0.97 0.97 0.97 0.97 0.97 0.97 0.97 0.97 0.97
          0.97 0.97 0.97 0.97 0.97 0.97 0.97 0.97 0.97 0.97 0.97 0.97
          0.97 0.97 0.97 0.97 0.97 0.97 0.97 0.97 0.97 0.97 0.97 0.97
          0.97 0.97 0.97 0.970001 0.970001 0.970001 0.970001 0.970001 0.970001 0.970001 0.970001 0.97
          0.97 0.97 0.97 0.97 0.97 0.97 0.97 0.97 0.97 0.97 0.97 0.97
          0.97 0.97 0.97 0.97 0.97 0.97 0.97 0.97 0.97 0.97 0.97 0.97
          0.97 0.97 0.97 0.97 0.97 0.97 0.97 0.97 0.97 0.97 0.97 0.97
          0.97 0.97 0.97 0.97 0.97 0.970001 0.970001 0.970001 0.970001 0.970001 0.970001 0.970001
          0.970001 0.970001 0.97 0.97 0.97 0.97 0.97 0.97 0.97 0.97 0.97 0.97
          0.97 0.97 0.97 0.97 0.97 0.97 0.97 0.97 0.97 0.97 0.97 0.97
          0.97 0.97 0.97 0.97 0.97 0.97 0.97 0.97 0.97 0.97 0.97 0.97
          0.97 0.97 0.97 0.97 0.97 0.97 0.970001 0.970002 0.970002 0.970002 0.970002 0.970002
          0.970002 0.970002 0.970002 0.970001 0.970001 0.970001 0.970001 0.970001 0.970001 0.970001 0.97 0.97
          0.97 0.97 0.97 0.97 0.97 0.97 0.97 0.97 0.97 0.97 0.97 0.97
          0.97 0.97 0.97 0.97 0.97 0.97 0.97 0.97 0.97 0.97 0.97 0.97
          0.97 0.97 0.97 0.97 0.97 0.97 0.97 0.97 0.970003 0.970003 0.970004 0.970004
          0.970004 0.970003 0.970003 0.970003 0.970003 0.970003 0.970003 0.970003 0.970003 0.970003 0.970002 0.970002
          0.970002 0.970002 0.970002 0.970002 0.970002 0.970002 0.970002 0.970002 0.970002 0.970002 0.970002 0.970001
          0.970001 0.970001 0.970001 0.970001 0.970001 0.970001 0.970001 0.970001 0.970001 0.970001 0.970001 0.970001
          0.970001 0.970001 0.970001 0.970001 0.970001 0.970001 0.970001 0.970001 0.970001 0.970001 0.183459 0.18169
          0.179921 0.178274 0.176627 0.175102 0.173577 0.172112 0.170709 0.169367 0.168086 0.166804 0.165584 0.164425
          0.163265 0.162167 0.161129 0.160092 0.159116 0.15814 0.157224 0.156309 0.155455 0.1546 0.153776 0.152983
          0.15222 0.151488 0.150756 0.150054 0.149382 0.148711 0.14807 0.14746 0.14685 0.14627 0.14569 0.145141
          0.144622 0.144088 0.143585 0.143096 0.142608 0.14215 0.141693 0.14125 0.140823 0.140396 0.139999 0.139602
          0.12 0.12 0.12 0.12 0.12 0.12 0.12 0.12 0.12 0.12 0.12 0.12
          0.12 0.12 0.12 0.12 0.12 0.12 0.12 0.12 0.12 0.12 0.12 0.12
          0.12 0.12 0.12 0.12 0.12 0.12 0.12 0.12 0.12 0.12 0.12 0.12
          0.12 0.12 0.12 0.12 0.12 0.12 0.12 0.12 0.12 0.12 0.12 0.12
          0.12 0.12 0.12 0.12 0.12 0.12 0.12 0.12 0.12 0.12 0.12 0.12
          0.12 0.12 0.12 0.12 0.12 0.12 0.12 0.12 0.12 0.12 0.12 0.12
          0.12 0.12 0.12 0.12 0.12 0.12 0.12 0.12 0.12 0.12 0.12 0.12
          0.12 0.12 0.12 0.12 0.12 0.12 0.12 0.12 0.12 0.12 0.12 0.12
          0.12 0.12 0.12 0.12 0.12 0.12 0.12 0.12 0.12 0.12 0.12 0.12
          0.12 0.12 0.12 0.12 0.12 0.12 0.12 0.12 0.12 0.12 0.12 0.12
          0.12 0.12 0.12 0.12 0.12 0.12 0.12 0.12 0.12 0.12 0.12 0.12
          0.12 0.12 0.12 0.12 0.12 0.12 0.12 0.12 0.12 0.12 0.12 0.12
          0.12 0.12 0.12 0.12 0.12 0.12 0.12 0.12 0.12 0.12 0.12 0.12
          0.12 0.12 0.12 0.12 0.12 0.12 0.12 0.12 0.12 0.12 0.12 0.12
          0.12 0.12 0.12 0.12 0.12 0.12 0.12 0.12 0.12 0.12 0.12 0.12
          0.12 0.12 0.12 0.12 0.12 0.12 0.12 0.12 0.12 0.12 0.12 0.12
          0.12 0.12 0.12 0.12 0.12 0.12 0.12 0.12
        </DataArray>
        <DataArray type="Float32" Name="sn" NumberOfComponents="1" format="ascii">
          0 0 0 0 0 0 0 0 0 0 0 0
          0 0 0 0 0 0 0 0 0 0 0 0
          0 0 0 0 0 0 0 0 0 0 0 0
          0 0 0 0 0 0 0 0 0 0 0 0
          0 0 0 0 0 0 0 0 0 0 0 0
          0 0 0 0 0 0 0 0 0 0 0 0
          0 0 0 0 0 0 0 0 0 0 0 0
          0 0 0 0 0 0 0 0 0 0 0 0
          0 0 0 0 0 0 0 0 0 0 0 0
          0 0 0 0 0 0 0 0 0 0 0 0
          0 0 0 0 0 0 0 0 0 0 0 0
          0 0 0 0 0 0 0 0 0 0 0 0
          0 0 0 0 0 0 0 0 0 0 0 0
          0 0 0 0 0 0 0 0 0 0 0 0
          0 0 0 0 0 0 0 0 0 0 0 0
          0 0 0 0 0 0 0 0 0 0 0 0
          0 0 0 0 0 0 0 0 0 0 0 0
          0 0 0 0 0 0 0 0 0 0 0 0
          0 0 0 0 0 0 0 0 0 0 0 0
          0 0 0 0 0 0 0 0 0 0 0 0
          0 0 0 0 0 0 0 0 0 0 0 0
          0 0 0 0 0 0 0 0 0 0 0 0
          0 0 0 0 0 0 0 0 0 0 0 0
          0 0 0 0 0 0 0 0 0 0 0 0
          0 0 0 0 0 0 0 0 0 0 0 0
          0 0 0 0 0 0 0 0 0 0 0 0
          0 0 0 0 0 0 0 0 0 0 0 0
          0 0 0 0 0 0 0 0 0 0 0 0
          0 0 0 0 0 0 0 0 0 0 0 0
          0 0 0 0 0 0 0 0 0 0 0 0
          0 0 0 0 0 4.49648e-24 4.44747e-24 4.49878e-24 0 0 0 0
          0 0 0 0 0 0 0 0 0 0 0 0
          0 0 0 0 0 0 0 0 0 0 0 0
          0 0 0 0 0 0 0 0 0 0 0 0
          0 0 0 0 0 0 8.90509e-29 9.47655e-08 9.47656e-08 9.47655e-08 8.916e-29 0
          0 0 0 0 0 0 0 0 0 0 0 0
          0 0 0 0 0 0 0 0 0 0 0 0
          0 0 0 0 0 0 0 0 0 0 0 0
          0 0 0 0 0 0 0 0 5.27534e-11 0.0102415 0.0102415 0.0102415
          5.27547e-11 0 0 0 0 0 0 0 0 0 0 0
          0 0 0 0 0 0 0 0 0 0 0 0
          0 0 0 0 0 0 0 0
        </DataArray>
        <DataArray type="Float32" Name="sg" NumberOfComponents="1" format="ascii">
          0.0299998 0.0299993 0.0299991 0.029999 0.0299991 0.0299992 0.0299993 0.0299993 0.0299994 0.0299995 0.0299996 0.0299996
          0.0299996 0.0299997 0.0299997 0.0299997 0.0299998 0.0299998 0.0299998 0.0299998 0.0299999 0.0299999 0.0299999 0.0299999
          0.0299999 0.0299999 0.03 0.03 0.03 0.03 0.03 0.03 0.03 0.03 0.03 0.03
          0.03 0.03 0.03 0.03 0.03 0.03 0.03 0.03 0.03 0.03 0.03 0.03
          0.03 0.03 0.0299998 0.0299993 0.0299991 0.0299991 0.0299991 0.0299992 0.0299993 0.0299994 0.0299995 0.0299995
          0.0299996 0.0299996 0.0299997 0.0299997 0.0299998 0.0299998 0.0299999 0.0299999 0.0299999 0.03 0.03 0.03
          0.03 0.03 0.03 0.03 0.03 0.03 0.03 0.03 0.03 0.03 0.03 0.03
          0.03 0.03 0.03 0.03 0.03 0.03 0.03 0.03 0.03 0.03 0.0300001 0.0300001
          0.0300001 0.0300001 0.0300001 0.0300001 0.0299998 0.0299991 0.0299988 0.0299988 0.0299989 0.029999 0.0299992 0.0299993
          0.0299994 0.0299995 0.0299996 0.0299996 0.0299997 0.0299997 0.0299998 0.0299998 0.0299999 0.0299999 0.03 0.03
          0.03 0.03 0.03 0.03 0.03 0.03 0.03 0.03 0.0300001 0.0300001 0.0300001 0.0300001
          0.0300001 0.0300001 0.0300001 0.0300001 0.0300001 0.0300001 0.0300001 0.0300001 0.0300001 0.0300001 0.0300001 0.0300001
          0.0300001 0.0300001 0.0300001 0.0300001 0.0300001 0.0300001 0.0299987 0.0299978 0.0299976 0.0299976 0.0299978 0.029998
          0.0299981 0.0299983 0.0299985 0.0299986 0.0299988 0.029999 0.0299991 0.0299992 0.0299993 0.0299994 0.0299995 0.0299996
          0.0299997 0.0299998 0.0299999 0.0299999 0.03 0.03 0.03 0.03 0.03 0.0300001 0.0300001 0.0300001
          0.0300001 0.0300001 0.0300001 0.0300001 0.0300001 0.0300001 0.0300001 0.0300001 0.0300001 0.0300001 0.0300002 0.0300002
          0.0300002 0.0300002 0.0300002 0.0300002 0.0300002 0.0300002 0.0300002 0.0300002 0.0299974 0.0299965 0.0299963 0.0299963
          0.0299964 0.0299965 0.0299967 0.0299968 0.0299969 0.0299971 0.0299972 0.0299973 0.0299974 0.0299974 0.0299975 0.0299976
          0.0299976 0.0299977 0.0299978 0.0299978 0.0299979 0.029998 0.0299981 0.0299982 0.0299983 0.0299984 0.0299985 0.0299985
          0.0299986 0.0299987 0.0299987 0.0299988 0.0299988 0.0299989 0.0299989 0.029999 0.029999 0.0299991 0.0299991 0.0299991
          0.0299991 0.0299992 0.0299992 0.0299992 0.0299992 0.0299992 0.0299993 0.0299993 0.0299993 0.0299993 0.816541 0.81831
          0.820079 0.821726 0.823373 0.824898 0.826423 0.827888 0.829291 0.830633 0.831914 0.833196 0.834416 0.835575
          0.836735 0.837833 0.838871 0.839908 0.840884 0.84186 0.842776 0.843691 0.844545 0.8454 0.846224 0.847017
          0.84778 0.848512 0.849244 0.849946 0.850618 0.851289 0.85193 0.85254 0.85315 0.85373 0.85431 0.854859
          0.855378 0.855912 0.856415 0.856904 0.857392 0.85785 0.858307 0.85875 0.859177 0.859604 0.860001 0.860398
          0.88 0.88 0.88 0.88 0.88 0.88 0.88 0.88 0.88 0.88 0.88 0.88
          0.88 0.88 0.88 0.88 0.88 0.88 0.88 0.88 0.88 0.88 0.88 0.88
          0.88 0.88 0.88 0.88 0.88 0.88 0.88 0.88 0.88 0.88 0.88 0.88
          0.88 0.88 0.88 0.88 0.88 0.88 0.88 0.88 0.88 0.88 0.88 0.88
          0.88 0.88 0.88 0.88 0.88 0.88 0.88 0.88 0.88 0.88 0.88 0.88
          0.88 0.88 0.88 0.88 0.88 0.88 0.88 0.88 0.88 0.88 0.88 0.88
          0.88 0.88 0.88 0.88 0.88 0.88 0.88 0.88 0.88 0.88 0.88 0.88
          0.88 0.88 0.88 0.88 0.88 0.88 0.88 0.88 0.88 0.88 0.88 0.88
          0.88 0.88 0.88 0.88 0.88 0.88 0.88 0.88 0.88 0.88 0.88 0.88
          0.88 0.88 0.88 0.88 0.88 0.88 0.88 0.88 0.88 0.88 0.88 0.88
          0.88 0.88 0.88 0.88 0.88 0.88 0.88 0.88 0.88 0.88 0.88 0.88
          0.88 0.88 0.88 0.88 0.88 0.88 0.88 0.88 0.88 0.88 0.88 0.88
          0.88 0.88 0.88 0.88 0.88 0.88 0.88 0.88 0.88 0.88 0.88 0.88
          0.88 0.88 0.88 0.88 0.88 0.88 0.88 0.88 0.88 0.869758 0.869758 0.869758
          0.88 0.88 0.88 0.88 0.88 0.88 0.88 0.88 0.88 0.88 0.88 0.88
          0.88 0.88 0.88 0.88 0.88 0.88 0.88 0.88 0.88 0.88 0.88 0.88
          0.88 0.88 0.88 0.88 0.88 0.88 0.88 0.88
        </DataArray>
        <DataArray type="Float32" Name="pw" NumberOfComponents="1" format="ascii">
          142793 142747 142699 142650 142600 142551 142501 142452 142402 142353 142304 142254
          142205 142155 142106 142057 142008 141958 141909 141860 141811 141762 141712 141663
          141614 141565 141516 141467 141418 141368 141319 141270 141221 141172 141123 141074
          141025 140976 140927 140877 140828 140779 140730 140681 140632 140583 140534 140485
          140436 140387 132986 132940 132892 132843 132793 132744 132694 132645 132595 132546
          132496 132447 132398 132348 132299 132250 132200 132151 132102 132053 132003 131954
          131905 131856 131807 131758 131709 131659 131610 131561 131512 131463 131414 131365
          131316 131267 131217 131168 131119 131070 131021 130972 130923 130874 130825 130776
          130727 130678 130629 130580 123179 123133 123085 123036 122986 122937 122887 122838
          122788 122739 122689 122640 122590 122541 122492 122443 122393 122344 122295 122246
          122196 122147 122098 122049 122000 121950 121901 121852 121803 121754 121705 121656
          121607 121558 121508 121459 121410 121361 121312 121263 121214 121165 121116 121067
          121018 120969 120920 120870 120821 120772 113372 113326 113278 113228 113179 113130
          113080 113030 112981 112931 112882 112833 112783 112734 112685 112635 112586 112537
          112488 112438 112389 112340 112291 112242 112192 112143 112094 112045 111996 111947
          111898 111849 111800 111750 111701 111652 111603 111554 111505 111456 111407 111358
          111309 111260 111211 111161 111112 111063 111014 110965 103565 103519 103471 103422
          103372 103323 103273 103223 103174 103124 103075 103026 102976 102927 102878 102828
          102779 102730 102681 102631 102582 102533 102484 102435 102385 102336 102287 102238
          102189 102140 102091 102042 101992 101943 101894 101845 101796 101747 101698 101649
          101600 101551 101502 101453 101403 101354 101305 101256 101207 101158 95093.1 95046.6
          94997.3 94949.8 94900.6 94853.8 94805.6 94758.2 94711.9 94667.1 94624.1 94581 94540.6 94503.4
          94467.2 94434.4 94392.1 94336.9 94272.2 94208.5 94149 94090.3 94035.4 93980.6 93927.2 93875.2
          93824.4 93774.6 93723.8 93673.8 93624.8 93574.4 93525 93476.6 93426.8 93378.1 93328 93279.2
          93231.8 93181.6 93132.8 93084.3 93034.3 92986.2 92936.7 92887.5 92838.8 92788.6 92740.8 92690.7
          87087.4 87088.4 87088.9 87089.4 87090.2 87091.3 87092.8 87094.9 87097.8 87101.7 87106.9 87113.8
          87122.6 87133.8 87147.6 87164.2 87169.8 87164.1 87147.6 87133.7 87122.6 87113.7 87106.9 87101.7
          87097.8 87094.9 87092.8 87091.3 87090.2 87089.4 87088.9 87088.5 87088.2 87088.1 87087.9 87087.9
          87087.8 87087.7 87087.7 87087.7 87087.7 87087.7 87087.7 87087.7 87087.7 87087.7 87087.7 87087.7
          87087.6 87087 87076 87076.4 87076.8 87077.4 87078.1 87079.2 87080.8 87082.9 87085.8 87089.7
          87094.9 87101.7 87110.5 87121.7 87135.6 87152.4 87158 87152.3 87135.5 87121.7 87110.5 87101.7
          87094.8 87089.6 87085.7 87082.9 87080.8 87079.2 87078.1 87077.4 87076.8 87076.4 87076.2 87076
          87075.9 87075.8 87075.7 87075.7 87075.6 87075.6 87075.6 87075.6 87075.6 87075.6 87075.6 87075.6
          87075.6 87075.6 87075.6 87075.6 87064.6 87064.3 87064.7 87065.3 87066.1 87067.2 87068.7 87070.8
          87073.7 87077.6 87082.8 87089.6 87098.5 87109.6 87123.5 87140.7 87146.3 87140.7 87123.5 87109.6
          87098.4 87089.6 87082.8 87077.6 87073.7 87070.8 87068.7 87067.2 87066.1 87065.3 87064.8 87064.4
          87064.1 87063.9 87063.8 87063.7 87063.7 87063.6 87063.6 87063.6 87063.5 87063.5 87063.5 87063.5
          87063.5 87063.5 87063.5 87063.5 87063.5 87064.2 87053 87052.3 87052.7 87053.2 87054 87055.1
          87056.6 87058.7 87061.6 87065.5 87070.7 87077.6 87086.4 87097.6 87111.4 85812.5 85818.1 85812.5
          87111.4 87097.5 87086.3 87077.5 87070.7 87065.5 87061.6 87058.7 87056.6 87055.1 87054 87053.2
          87052.7 87052.3 87052 87051.9 87051.7 87051.6 87051.6 87051.5 87051.5 87051.5 87051.5 87051.5
          87051.5 87051.5 87051.5 87051.5 87051.5 87051.5 87051.5 87052.6
        </DataArray>
        <DataArray type="Float32" Name="pn" NumberOfComponents="1" format="ascii">
          142793 142747 142699 142650 142600 142551 142501 142452 142402 142353 142304 142254
          142205 142155 142106 142057 142008 141958 141909 141860 141811 141762 141712 141663
          141614 141565 141516 141467 141418 141368 141319 141270 141221 141172 141123 141074
          141025 140976 140927 140877 140828 140779 140730 140681 140632 140583 140534 140485
          140436 140387 132986 132940 132892 132843 132793 132744 132694 132645 132595 132546
          132496 132447 132398 132348 132299 132250 132200 132151 132102 132053 132003 131954
          131905 131856 131807 131758 131709 131659 131610 131561 131512 131463 131414 131365
          131316 131267 131217 131168 131119 131070 131021 130972 130923 130874 130825 130776
          130727 130678 130629 130580 123179 123133 123085 123036 122986 122937 122887 122838
          122788 122739 122689 122640 122590 122541 122492 122443 122393 122344 122295 122246
          122196 122147 122098 122049 122000 121950 121901 121852 121803 121754 121705 121656
          121607 121558 121508 121459 121410 121361 121312 121263 121214 121165 121116 121067
          121018 120969 120920 120870 120821 120772 113372 113326 113278 113228 113179 113130
          113080 113030 112981 112931 112882 112833 112783 112734 112685 112635 112586 112537
          112488 112438 112389 112340 112291 112242 112192 112143 112094 112045 111996 111947
          111898 111849 111800 111750 111701 111652 111603 111554 111505 111456 111407 111358
          111309 111260 111211 111161 111112 111063 111014 110965 103565 103519 103471 103422
          103372 103323 103273 103223 103174 103124 103075 103026 102976 102927 102878 102828
          102779 102730 102681 102631 102582 102533 102484 102435 102385 102336 102287 102238
          102189 102140 102091 102042 101992 101943 101894 101845 101796 101747 101698 101649
          101600 101551 101502 101453 101403 101354 101305 101256 101207 101158 95093.1 95046.6
          94997.3 94949.8 94900.6 94853.8 94805.6 94758.2 94711.9 94667.1 94624.1 94581 94540.6 94503.4
          94467.2 94434.4 94392.1 94336.9 94272.2 94208.5 94149 94090.3 94035.4 93980.6 93927.2 93875.2
          93824.4 93774.6 93723.8 93673.8 93624.8 93574.4 93525 93476.6 93426.8 93378.1 93328 93279.2
          93231.8 93181.6 93132.8 93084.3 93034.3 92986.2 92936.7 92887.5 92838.8 92788.6 92740.8 92690.7
          87087.4 87088.4 87088.9 87089.4 87090.2 87091.3 87092.8 87094.9 87097.8 87101.7 87106.9 87113.8
          87122.6 87133.8 87147.6 87164.2 87169.8 87164.1 87147.6 87133.7 87122.6 87113.7 87106.9 87101.7
          87097.8 87094.9 87092.8 87091.3 87090.2 87089.4 87088.9 87088.5 87088.2 87088.1 87087.9 87087.9
          87087.8 87087.7 87087.7 87087.7 87087.7 87087.7 87087.7 87087.7 87087.7 87087.7 87087.7 87087.7
          87087.6 87087 87076 87076.4 87076.8 87077.4 87078.1 87079.2 87080.8 87082.9 87085.8 87089.7
          87094.9 87101.7 87110.5 87121.7 87135.6 87152.4 87158 87152.3 87135.5 87121.7 87110.5 87101.7
          87094.8 87089.6 87085.7 87082.9 87080.8 87079.2 87078.1 87077.4 87076.8 87076.4 87076.2 87076
          87075.9 87075.8 87075.7 87075.7 87075.6 87075.6 87075.6 87075.6 87075.6 87075.6 87075.6 87075.6
          87075.6 87075.6 87075.6 87075.6 87064.6 87064.3 87064.7 87065.3 87066.1 87067.2 87068.7 87070.8
          87073.7 87077.6 87082.8 87089.6 87098.5 87109.6 87123.5 87140.7 87146.3 87140.7 87123.5 87109.6
          87098.4 87089.6 87082.8 87077.6 87073.7 87070.8 87068.7 87067.2 87066.1 87065.3 87064.8 87064.4
          87064.1 87063.9 87063.8 87063.7 87063.7 87063.6 87063.6 87063.6 87063.5 87063.5 87063.5 87063.5
          87063.5 87063.5 87063.5 87063.5 87063.5 87064.2 87053 87052.3 87052.7 87053.2 87054 87055.1
          87056.6 87058.7 87061.6 87065.5 87070.7 87077.6 87086.4 87097.6 87111.4 87729.8 87735.4 87729.8
          87111.4 87097.5 87086.3 87077.5 87070.7 87065.5 87061.6 87058.7 87056.6 87055.1 87054 87053.2
          87052.7 87052.3 87052 87051.9 87051.7 87051.6 87051.6 87051.5 87051.5 87051.5 87051.5 87051.5
          87051.5 87051.5 87051.5 87051.5 87051.5 87051.5 87051.5 87052.6
        </DataArray>
        <DataArray type="Float32" Name="pg" NumberOfComponents="1" format="ascii">
          144118 144072 144024 143975 143925 143876 143826 143777 143727 143678 143628 143579
          143530 143480 143431 143382 143332 143283 143234 143185 143136 143086 143037 142988
          142939 142890 142841 142791 142742 142693 142644 142595 142546 142497 142448 142399
          142350 142300 142251 142202 142153 142104 142055 142006 141957 141908 141859 141810
          141761 141712 134311 134265 134217 134168 134118 134069 134019 133969 133920 133871
          133821 133772 133722 133673 133624 133574 133525 133476 133427 133378 133328 133279
          133230 133181 133132 133082 133033 132984 132935 132886 132837 132788 132739 132690
          132640 132591 132542 132493 132444 132395 132346 132297 132248 132199 132150 132101
          132052 132002 131953 131904 124504 124458 124409 124360 124311 124261 124212 124162
          124113 124063 124014 123965 123915 123866 123817 123767 123718 123669 123620 123570
          123521 123472 123423 123374 123324 123275 123226 123177 123128 123079 123030 122981
          122931 122882 122833 122784 122735 122686 122637 122588 122539 122490 122441 122392
          122342 122293 122244 122195 122146 122097 114697 114651 114602 114553 114504 114454
          114405 114355 114306 114256 114207 114157 114108 114059 114009 113960 113911 113862
          113812 113763 113714 113665 113616 113566 113517 113468 113419 113370 113321 113272
          113223 113173 113124 113075 113026 112977 112928 112879 112830 112781 112732 112683
          112633 112584 112535 112486 112437 112388 112339 112290 104889 104844 104795 104746
          104697 104647 104598 104548 104499 104449 104400 104350 104301 104252 104202 104153
          104104 104055 104005 103956 103907 103858 103809 103759 103710 103661 103612 103563
          103514 103465 103415 103366 103317 103268 103219 103170 103121 103072 103023 102974
          102925 102875 102826 102777 102728 102679 102630 102581 102532 102483 100024 100025
          100025 100026 100027 100028 100029 100032 100034 100038 100044 100050 100059 100070
          100084 100101 100106 100101 100084 100070 100059 100050 100044 100038 100034 100032
          100029 100028 100027 100026 100025 100025 100025 100025 100025 100024 100024 100024
          100024 100024 100024 100024 100024 100024 100024 100024 100024 100024 100024 100023
          100012 100013 100013 100014 100015 100016 100017 100019 100022 100026 100031 100038
          100047 100058 100072 100089 100094 100089 100072 100058 100047 100038 100031 100026
          100022 100019 100017 100016 100015 100014 100013 100013 100013 100013 100012 100012
          100012 100012 100012 100012 100012 100012 100012 100012 100012 100012 100012 100012
          100012 100012 100001 100001 100001 100002 100003 100004 100005 100007 100010 100014
          100019 100026 100035 100046 100060 100077 100082 100077 100060 100046 100035 100026
          100019 100014 100010 100007 100005 100004 100003 100002 100001 100001 100001 100001
          100000 100000 100000 100000 100000 100000 100000 100000 100000 100000 100000 100000
          100000 100000 100000 100000 99989.1 99988.9 99989.3 99989.8 99990.6 99991.7 99993.2 99995.3
          99998.2 100002 100007 100014 100023 100034 100048 100065 100071 100065 100048 100034
          100023 100014 100007 100002 99998.2 99995.3 99993.2 99991.7 99990.6 99989.8 99989.3 99988.9
          99988.6 99988.5 99988.3 99988.2 99988.2 99988.1 99988.1 99988.1 99988.1 99988.1 99988.1 99988.1
          99988.1 99988.1 99988.1 99988.1 99988.1 99988.7 99977.5 99976.8 99977.2 99977.8 99978.5 99979.6
          99981.2 99983.3 99986.2 99990.1 99995.3 100002 100011 100022 100036 100054 100059 100054
          100036 100022 100011 100002 99995.2 99990 99986.1 99983.3 99981.2 99979.6 99978.5 99977.8
          99977.2 99976.8 99976.6 99976.4 99976.3 99976.2 99976.1 99976.1 99976 99976 99976 99976
          99976 99976 99976 99976 99976 99976 99976 99977.1
        </DataArray>
        <DataArray type="Float32" Name="rhow" NumberOfComponents="1" format="ascii">
          999.722 999.722 999.722 999.721 999.721 999.721 999.721 999.721 999.721 999.721 999.721 999.721
          999.721 999.721 999.721 999.721 999.721 999.721 999.721 999.721 999.721 999.721 999.721 999.721
          999.721 999.721 999.721 999.721 999.721 999.721 999.721 999.721 999.721 999.721 999.721 999.721
          999.721 999.721 999.721 999.721 999.721 999.721 999.721 999.721 999.721 999.721 999.721 999.72
          999.72 999.72 999.717 999.717 999.717 999.717 999.717 999.717 999.717 999.717 999.717 999.717
          999.717 999.717 999.717 999.717 999.717 999.717 999.717 999.716 999.716 999.716 999.716 999.716
          999.716 999.716 999.716 999.716 999.716 999.716 999.716 999.716 999.716 999.716 999.716 999.716
          999.716 999.716 999.716 999.716 999.716 999.716 999.716 999.716 999.716 999.716 999.716 999.716
          999.716 999.716 999.716 999.716 999.712 999.712 999.712 999.712 999.712 999.712 999.712 999.712
          999.712 999.712 999.712 999.712 999.712 999.712 999.712 999.712 999.712 999.712 999.712 999.712
          999.712 999.712 999.712 999.712 999.712 999.712 999.712 999.712 999.712 999.712 999.711 999.711
          999.711 999.711 999.711 999.711 999.711 999.711 999.711 999.711 999.711 999.711 999.711 999.711
          999.711 999.711 999.711 999.711 999.711 999.711 999.708 999.708 999.707 999.707 999.707 999.707
          999.707 999.707 999.707 999.707 999.707 999.707 999.707 999.707 999.707 999.707 999.707 999.707
          999.707 999.707 999.707 999.707 999.707 999.707 999.707 999.707 999.707 999.707 999.707 999.707
          999.707 999.707 999.707 999.707 999.707 999.707 999.707 999.707 999.707 999.707 999.707 999.707
          999.707 999.707 999.706 999.706 999.706 999.706 999.706 999.706 999.703 999.703 999.703 999.703
          999.703 999.703 999.703 999.703 999.703 999.703 999.703 999.703 999.703 999.703 999.703 999.703
          999.702 999.702 999.702 999.702 999.702 999.702 999.702 999.702 999.702 999.702 999.702 999.702
          999.702 999.702 999.702 999.702 999.702 999.702 999.702 999.702 999.702 999.702 999.702 999.702
          999.702 999.702 999.702 999.702 999.702 999.702 999.702 999.702 999.702 999.702 999.699 999.699
          999.699 999.699 999.699 999.699 999.699 999.699 999.699 999.699 999.699 999.699 999.699 999.699
          999.698 999.698 999.698 999.698 999.698 999.698 999.698 999.698 999.698 999.698 999.698 999.698
          999.698 999.698 999.698 999.698 999.698 999.698 999.698 999.698 999.698 999.698 999.698 999.698
          999.698 999.698 999.698 999.698 999.698 999.698 999.698 999.698 999.698 999.698 999.698 999.698
          999.695 999.695 999.695 999.695 999.695 999.695 999.695 999.695 999.695 999.695 999.695 999.695
          999.695 999.695 999.695 999.695 999.695 999.695 999.695 999.695 999.695 999.695 999.695 999.695
          999.695 999.695 999.695 999.695 999.695 999.695 999.695 999.695 999.695 999.695 999.695 999.695
          999.695 999.695 999.695 999.695 999.695 999.695 999.695 999.695 999.695 999.695 999.695 999.695
          999.695 999.695 999.695 999.695 999.695 999.695 999.695 999.695 999.695 999.695 999.695 999.695
          999.695 999.695 999.695 999.695 999.695 999.695 999.695 999.695 999.695 999.695 999.695 999.695
          999.695 999.695 999.695 999.695 999.695 999.695 999.695 999.695 999.695 999.695 999.695 999.695
          999.695 999.695 999.695 999.695 999.695 999.695 999.695 999.695 999.695 999.695 999.695 999.695
          999.695 999.695 999.695 999.695 999.695 999.695 999.695 999.695 999.695 999.695 999.695 999.695
          999.695 999.695 999.695 999.695 999.695 999.695 999.695 999.695 999.695 999.695 999.695 999.695
          999.695 999.695 999.695 999.695 999.695 999.695 999.695 999.695 999.695 999.695 999.695 999.695
          999.695 999.695 999.695 999.695 999.695 999.695 999.695 999.695 999.695 999.695 999.695 999.695
          999.695 999.695 999.695 999.695 999.695 999.695 999.695 999.695 999.695 999.695 999.695 999.695
          999.695 999.695 999.695 999.695 999.695 999.695 999.695 999.695 999.695 999.694 999.694 999.694
          999.695 999.695 999.695 999.695 999.695 999.695 999.695 999.695 999.695 999.695 999.695 999.695
          999.695 999.695 999.695 999.695 999.695 999.695 999.695 999.695 999.695 999.695 999.695 999.695
          999.695 999.695 999.695 999.695 999.695 999.695 999.695 999.695
        </DataArray>
        <DataArray type="Float32" Name="rhon" NumberOfComponents="1" format="ascii">
          878.771 878.771 878.771 878.771 878.771 878.771 878.771 878.771 878.771 878.771 878.771 878.771
          878.771 878.771 878.771 878.771 878.771 878.771 878.771 878.771 878.771 878.771 878.771 878.771
          878.771 878.771 878.771 878.771 878.771 878.771 878.771 878.771 878.771 878.771 878.771 878.771
          878.771 878.771 878.771 878.771 878.771 878.771 878.771 878.771 878.771 878.771 878.771 878.771
          878.771 878.771 878.771 878.771 878.771 878.771 878.771 878.771 878.771 878.771 878.771 878.771
          878.771 878.771 878.771 878.771 878.771 878.771 878.771 878.771 878.771 878.771 878.771 878.771
          878.771 878.771 878.771 878.771 878.771 878.771 878.771 878.771 878.771 878.771 878.771 878.771
          878.771 878.771 878.771 878.771 878.771 878.771 878.771 878.771 878.771 878.771 878.771 878.771
          878.771 878.771 878.771 878.771 878.771 878.771 878.771 878.771 878.771 878.771 878.771 878.771
          878.771 878.771 878.771 878.771 878.771 878.771 878.771 878.771 878.771 878.771 878.771 878.771
          878.771 878.771 878.771 878.771 878.771 878.771 878.771 878.771 878.771 878.771 878.771 878.771
          878.771 878.771 878.771 878.771 878.771 878.771 878.771 878.771 878.771 878.771 878.771 878.771
          878.771 878.771 878.771 878.771 878.771 878.771 878.771 878.771 878.771 878.771 878.771 878.771
          878.771 878.771 878.771 878.771 878.771 878.771 878.771 878.771 878.771 878.771 878.771 878.771
          878.771 878.771 878.771 878.771 878.771 878.771 878.771 878.771 878.771 878.771 878.771 878.771
          878.771 878.771 878.771 878.771 878.771 878.771 878.771 878.771 878.771 878.771 878.771 878.771
          878.771 878.771 878.771 878.771 878.771 878.771 878.771 878.771 878.771 878.771 878.771 878.771
          878.771 878.771 878.771 878.771 878.771 878.771 878.771 878.771 878.771 878.771 878.771 878.771
          878.771 878.771 878.771 878.771 878.771 878.771 878.771 878.771 878.771 878.771 878.771 878.771
          878.771 878.771 878.771 878.771 878.771 878.771 878.771 878.771 878.771 878.771 878.771 878.771
          878.771 878.771 878.771 878.771 878.771 878.771 878.771 878.771 878.771 878.771 878.771 878.771
          878.771 878.771 878.771 878.771 878.771 878.771 878.771 878.771 878.771 878.771 878.771 878.771
          878.771 878.771 878.771 878.771 878.771 878.771 878.771 878.771 878.771 878.771 878.771 878.771
          878.771 878.771 878.771 878.771 878.771 878.771 878.771 878.771 878.771 878.771 878.771 878.771
          878.771 878.771 878.771 878.771 878.771 878.771 878.771 878.771 878.771 878.771 878.771 878.771
          878.771 878.771 878.771 878.771 878.771 878.771 878.771 878.771 878.771 878.771 878.771 878.771
          878.771 878.771 878.771 878.771 878.771 878.771 878.771 878.771 878.771 878.771 878.771 878.771
          878.771 878.771 878.771 878.771 878.771 878.771 878.771 878.771 878.771 878.771 878.771 878.771
          878.771 878.771 878.771 878.771 878.771 878.771 878.771 878.771 878.771 878.771 878.771 878.771
          878.771 878.771 878.771 878.771 878.771 878.771 878.771 878.771 878.771 878.771 878.771 878.771