<?xml version="1.0"?>
<VTKFile type="UnstructuredGrid" version="0.1" byte_order="LittleEndian">
  <UnstructuredGrid>
    <Piece NumberOfCells="500" NumberOfPoints="561">
      <PointData Scalars="sw">
        <DataArray type="Float32" Name="sw" NumberOfComponents="1" format="ascii">
          0.97 0.998753 0.97 0.997052 0.999136 0.997586 0.999137 0.997587 0.999137 0.997587 0.999137 0.997588
          0.999137 0.997589 0.999138 0.997589 0.999138 0.99759 0.999138 0.99759 0.999138 0.997591 0.999138 0.997591
          0.999138 0.997591 0.999138 0.997592 0.999138 0.997592 0.999139 0.997592 0.999139 0.997593 0.999139 0.997593
          0.999139 0.997593 0.999139 0.997593 0.999139 0.997594 0.99914 0.997595 0.99914 0.997596 0.99914 0.997597
          0.999141 0.997598 0.999141 0.997599 0.999141 0.997599 0.999141 0.997599 0.999141 0.997598 0.99914 0.997596
          0.999139 0.997593 0.999138 0.997588 0.999136 0.997581 0.999133 0.997573 0.99913 0.997566 0.999128 0.997559
          0.999127 0.997554 0.999126 0.997551 0.999125 0.997549 0.999125 0.997547 0.999124 0.997546 0.999124 0.997546
          0.999124 0.997545 0.999124 0.997545 0.999124 0.997545 0.999124 0.997544 0.999124 0.997544 0.999124 0.997544
          0.999123 0.997543 0.998266 0.996332 0.97 0.97 0.97 0.995418 0.996019 0.996019 0.99602 0.996022
          0.996023 0.996024 0.996025 0.996026 0.996027 0.996027 0.996028 0.996028 0.996029 0.99603 0.99603 0.99603
          0.996031 0.99603 0.996032 0.996034 0.996035 0.996037 0.996038 0.996038 0.996038 0.996038 0.996036 0.996032
          0.996025 0.996016 0.996004 0.995989 0.995975 0.995963 0.995953 0.995947 0.995943 0.99594 0.995938 0.995936
          0.995935 0.995934 0.995933 0.995932 0.995931 0.99593 0.995932 0.994557 0.97 0.97 0.993654 0.994262
          0.994261 0.994263 0.994265 0.994267 0.994269 0.994271 0.994272 0.994273 0.994274 0.994275 0.994276 0.994277
          0.994278 0.994278 0.994279 0.994279 0.994278 0.994279 0.994279 0.994277 0.994275 0.994272 0.994267 0.99426
          0.99425 0.994237 0.994219 0.994195 0.994164 0.994124 0.994078 0.994028 0.99398 0.993935 0.993894 0.993858
          0.993824 0.993794 0.993765 0.99374 0.993715 0.993693 0.993673 0.993654 0.993637 0.993648 0.992384 0.97
          0.97 0.990836 0.99114 0.991115 0.991117 0.991121 0.991124 0.991127 0.991129 0.991131 0.991133 0.991134
          0.991136 0.991137 0.991138 0.991138 0.991138 0.991138 0.991138 0.991126 0.991047 0.990936 0.990794 0.990618
          0.990397 0.990118 0.989759 0.989279 0.988655 0.987816 0.986661 0.985079 0.982855 0.979753 0.975723 0.970801
          0.964959 0.958663 0.952214 0.945801 0.939545 0.933531 0.92805 0.922752 0.917994 0.913545 0.909502 0.905839
          0.903722 0.92324 0.97 0.97 0.867282 0.854893 0.854065 0.854003 0.853973 0.853943 0.853911 0.853877
          0.853844 0.853809 0.853774 0.853739 0.853703 0.853656 0.853589 0.853503 0.85344 0.853384 0.852991 0.847497
          0.840746 0.832778 0.82399 0.81422 0.803477 0.79177 0.778774 0.765328 0.751142 0.736331 0.721421 0.706239
          0.691027 0.676648 0.66307 0.649472 0.636258 0.623191 0.610091 0.596839 0.583355 0.570283 0.556573 0.543272
          0.529674 0.516151 0.502729 0.48946 0.478644 0.482422 0.127289 0.129845 0.129359 0.129224 0.129119 0.129014
          0.12891 0.128803 0.128697 0.128594 0.128488 0.128382 0.128278 0.128175 0.128081 0.128001 0.127921 0.127844
          0.127767 0.127686 0.127039 0.126438 0.125882 0.125408 0.124999 0.124644 0.124333 0.124052 0.12381 0.123589
          0.123383 0.123192 0.123013 0.122841 0.122675 0.122514 0.122359 0.122207 0.122055 0.121905 0.12176 0.121616
          0.121471 0.121326 0.121185 0.121044 0.120901 0.120758 0.120618 0.12049 0.120327 0.12 0.12 0.12
          0.12 0.12 0.12 0.12 0.12 0.12 0.12 0.12 0.12 0.12 0.12 0.12
          0.12 0.12 0.12 0.12 0.12 0.12 0.12 0.12 0.12 0.12 0.12 0.12
          0.12 0.12 0.12 0.12 0.12 0.12 0.12 0.12 0.12 0.12 0.12 0.12
          0.12 0.12 0.12 0.12 0.12 0.12 0.12 0.12 0.12 0.12 0.12 0.12
          0.12 0.12 0.12 0.12 0.12 0.12 0.12 0.12 0.12 0.12 0.12 0.12
          0.12 0.12 0.12 0.12 0.12 0.12 0.12 0.12 0.12 0.12 0.12 0.12
          0.12 0.12 0.12 0.12 0.12 0.12 0.12 0.12 0.12 0.12 0.12 0.12
          0.12 0.12 0.12 0.12 0.12 0.12 0.12 0.12 0.12 0.12 0.12 0.12
          0.12 0.12 0.12 0.12 0.12 0.12 0.12 0.12 0.12 0.12 0.12 0.12
          0.12 0.12 0.12 0.12 0.12 0.12 0.12 0.12 0.12 0.12 0.12 0.12
          0.12 0.12 0.12 0.12 0.12 0.12 0.12 0.12 0.12 0.12 0.12 0.12
          0.12 0.12 0.12 0.12 0.12 0.12 0.12 0.12 0.12 0.12 0.12 0.12
          0.12 0.12 0.12 0.12 0.12 0.12 0.12 0.12 0.12 0.12 0.12 0.12
          0.12 0.12 0.12 0.12 0.12 0.12 0.12 0.12 0.12 0.12 0.12 0.12
          0.12 0.12 0.12 0.12 0.12 0.12 0.12 0.12 0.12 0.12 0.12 0.12
          0.12 0.12 0.12 0.12 0.12 0.12 0.12 0.12 0.12 0.12 0.12 0.12
          0.12 0.12 0.12 0.12 0.12 0.12 0.12 0.12 0.12
        </DataArray>
        <DataArray type="Float32" Name="sn" NumberOfComponents="1" format="ascii">
          0 0 0 0 0 0 0 0 0 0 0 0
          0 0 0 0 0 0 0 0 0 0 0 0
          0 0 0 0 0 0 0 0 0 0 0 0
          0 0 0 0 0 0 0 0 0 0 0 0
          0 0 0 0 0 0 0 0 0 0 0 0
          0 0 0 0 0 0 0 0 0 0 0 0
          0 0 0 0 0 0 0 0 0 0 0 0
          0 0 0 0 0 0 0 0 0 0 0 0
          0 0 0 0 0 0 0 0 0 0 0 0
          0 0 0 0 0 0 0 0 0 0 0 0
          0 0 0 0 0 0 0 0 0 0 0 0
          0 0 0 0 0 0 0 0 0 0 0 0
          0 0 0 0 0 0 0 0 0 0 0 0
          0 0 0 0 0 0 0 0 0 0 0 0
          0 0 0 0 0 0 0 0 0 0 0 0
          0 0 0 0 0 0 0 0 0 0 0 0
          0 0 0 0 0 0 0 0 0 0 0 0
          0 0 0 0 0 0 0 0 0 0 0 0
          0 0 0 0 0 0 0 0 0 0 0 0
          0 0 0 0 0 0 0 0 0 0 0 0
          0 0 0 0 0 0 0 0 0 0 0 0
          0 0 0 0 0 0 0 0 0 0 0 0
          0 0 0 0 0 0 0 0 0 0 0 0
          0 0 0 0 0 0 0 0 0 0 0 0
          0 0 0 0 0 0 0 0 0 0 0 0
          0 0 0 0 0 0 0 0 0 0 0 0
          0 0 0 0 0 0 0 0 0 0 0 0
          0 0 0 0 0 0 0 0 0 0 0 0
          0 0 0 0 0 0 0 0 0 0 0 0
          0 0 0 0 0 0 0 0 0 0 0 0
          0 0 0 0 0 0 0 0 0 0 0 0
          0 0 0 0 0 0 0 0 0 0 0 0
          0 0 0 0 0 0 0 0 0 0 0 0
          0 0 0 0 0 0 0 0 0 0 0 0
          0 0 0 0 0 0 0 0 0 0 0 0
          0 0 0 0 5.96664e-21 5.96682e-21 0 0 0 0 0 0
          0 0 0 0 0 0 0 0 0 0 0 0
          0 0 0 0 0 0 0 0 0 0 0 0
          0 0 0 0 0 0 0 0 0 0 0 0
          0 0 0 0 0 0 1.44288e-24 8.67824e-07 8.67824e-07 1.44271e-24 0 0
          0 0 0 0 0 0 0 0 0 0 0 0
          0 0 0 0 0 0 0 0 0 0 0 0
          0 0 0 0 0 0 0 0 0 0 0 0
          0 0 0 0 0 0 0 0 0 9.05345e-10 0.0204814 0.0204814
          9.05939e-10 0 0 0 0 0 0 0 0 0 0 0
          0 0 0 0 0 0 0 0 0 0 0 0
          0 0 0 0 0 0 0 0 0
        </DataArray>
        <DataArray type="Float32" Name="sg" NumberOfComponents="1" format="ascii">
          0.03 0.0012467 0.03 0.00294815 0.00086361 0.00241401 0.000863314 0.00241348 0.000863102 0.00241282 0.000862868 0.00241209
          0.000862647 0.0024114 0.000862446 0.00241077 0.000862268 0.00241022 0.000862112 0.00240973 0.000861975 0.0024093 0.000861853 0.00240892
          0.000861745 0.00240858 0.000861645 0.00240826 0.000861552 0.00240797 0.000861465 0.00240769 0.00086139 0.00240746 0.000861332 0.00240727
          0.000861295 0.00240715 0.000861248 0.00240713 0.000860833 0.00240596 0.000860397 0.00240484 0.000859967 0.00240374 0.000859576 0.00240276
          0.000859228 0.00240191 0.000858947 0.00240126 0.000858772 0.00240093 0.000858748 0.00240103 0.000858976 0.00240191 0.000859547 0.0024038
          0.000860583 0.00240707 0.000862178 0.00241202 0.000864355 0.00241869 0.000866949 0.00242659 0.000869516 0.00243442 0.00087167 0.00244103
          0.000873283 0.00244599 0.000874342 0.0024493 0.000874999 0.00245138 0.000875403 0.00245268 0.000875657 0.00245353 0.000875826 0.0024541
          0.00087595 0.00245454 0.000876057 0.0024549 0.00087616 0.00245526 0.000876263 0.00245561 0.000876368 0.00245597 0.000876452 0.00245629
          0.000876917 0.00245674 0.00173429 0.00366766 0.03 0.03 0.03 0.00458242 0.00398119 0.00398095 0.00397976 0.00397842
          0.00397717 0.00397603 0.00397503 0.00397416 0.00397338 0.00397269 0.00397207 0.0039715 0.00397096 0.00397045 0.00397004 0.00396969
          0.00396949 0.00396969 0.00396781 0.00396623 0.00396471 0.00396343 0.00396239 0.00396171 0.00396165 0.00396232 0.00396441 0.00396829
          0.00397459 0.00398388 0.00399619 0.00401065 0.00402505 0.00403734 0.0040467 0.00405313 0.00405738 0.00406022 0.0040622 0.00406366
          0.00406486 0.00406587 0.00406685 0.00406779 0.00406871 0.00406958 0.00406808 0.00544346 0.03 0.03 0.00634605 0.00573753
          0.0057388 0.00573694 0.00573478 0.00573278 0.00573098 0.0057294 0.00572801 0.00572679 0.0057257 0.0057247 0.00572379 0.00572293
          0.00572214 0.00572151 0.00572096 0.00572066 0.00572162 0.00572075 0.00572133 0.00572262 0.00572489 0.00572825 0.00573308 0.00574
          0.0057495 0.00576277 0.00578078 0.00580492 0.00583643 0.00587599 0.00592248 0.00597172 0.0060197 0.00606492 0.00610579 0.00614248
          0.00617581 0.00620647 0.00623478 0.00626042 0.00628459 0.00630661 0.00632712 0.00634594 0.00636318 0.00635224 0.00761641 0.03
          0.03 0.00916394 0.00886045 0.00888484 0.00888288 0.00887934 0.00887615 0.00887338 0.00887101 0.00886899 0.00886727 0.00886577
          0.00886443 0.00886324 0.00886231 0.00886182 0.00886205 0.0088619 0.00886211 0.00887351 0.00895266 0.00906367 0.00920644 0.00938227
          0.00960265 0.00988184 0.0102414 0.0107212 0.0113445 0.0121844 0.0133388 0.0149211 0.0171452 0.020247 0.0242768 0.029199
          0.0350406 0.0413372 0.0477861 0.0541985 0.0604548 0.0664687 0.0719498 0.0772482 0.0820062 0.0864546 0.0904984 0.0941606
          0.096278 0.07676 0.03 0.03 0.132718 0.145107 0.145935 0.145997 0.146027 0.146057 0.146089 0.146123
          0.146156 0.146191 0.146226 0.146261 0.146297 0.146344 0.146411 0.146497 0.14656 0.146616 0.147009 0.152503
          0.159254 0.167222 0.17601 0.18578 0.196523 0.20823 0.221226 0.234672 0.248858 0.263669 0.278579 0.293761
          0.308973 0.323352 0.336929 0.350528 0.363742 0.376809 0.389909 0.403161 0.416645 0.429717 0.443427 0.456728
          0.470326 0.483849 0.497271 0.51054 0.521356 0.517578 0.872711 0.870155 0.870641 0.870776 0.870881 0.870986
          0.87109 0.871197 0.871303 0.871406 0.871512 0.871618 0.871722 0.871825 0.871919 0.871999 0.872079 0.872156
          0.872233 0.872314 0.872961 0.873562 0.874118 0.874592 0.875001 0.875356 0.875667 0.875948 0.87619 0.876411
          0.876617 0.876808 0.876987 0.877159 0.877325 0.877486 0.877641 0.877793 0.877945 0.878095 0.87824 0.878384
          0.878529 0.878674 0.878815 0.878955 0.879099 0.879242 0.879382 0.87951 0.879673 0.88 0.88 0.88
          0.88 0.88 0.88 0.88 0.88 0.88 0.88 0.88 0.88 0.88 0.88 0.88
          0.88 0.88 0.88 0.88 0.88 0.88 0.88 0.88 0.88 0.88 0.88 0.88
          0.88 0.88 0.88 0.88 0.88 0.88 0.88 0.88 0.88 0.88 0.88 0.88
          0.88 0.88 0.88 0.88 0.88 0.88 0.88 0.88 0.88 0.88 0.88 0.88
          0.88 0.88 0.88 0.88 0.88 0.88 0.88 0.88 0.88 0.88 0.88 0.88
          0.88 0.88 0.88 0.88 0.88 0.88 0.88 0.88 0.88 0.88 0.88 0.88
          0.88 0.88 0.88 0.88 0.88 0.88 0.88 0.88 0.88 0.88 0.88 0.88
          0.88 0.88 0.88 0.88 0.88 0.88 0.88 0.88 0.88 0.88 0.88 0.88
          0.88 0.88 0.88 0.88 0.88 0.88 0.88 0.88 0.88 0.88 0.88 0.88
          0.88 0.88 0.88 0.88 0.88 0.88 0.88 0.879999 0.879999 0.88 0.88 0.88
          0.88 0.88 0.88 0.88 0.88 0.88 0.88 0.88 0.88 0.88 0.88 0.88
          0.88 0.88 0.88 0.88 0.88 0.88 0.88 0.88 0.88 0.88 0.88 0.88
          0.88 0.88 0.88 0.88 0.88 0.88 0.88 0.88 0.88 0.88 0.88 0.88
          0.88 0.88 0.88 0.88 0.88 0.88 0.88 0.88 0.88 0.88 0.859519 0.859519
          0.88 0.88 0.88 0.88 0.88 0.88 0.88 0.88 0.88 0.88 0.88 0.88
          0.88 0.88 0.88 0.88 0.88 0.88 0.88 0.88 0.88 0.88 0.88 0.88
          0.88 0.88 0.88 0.88 0.88 0.88 0.88 0.88 0.88
        </DataArray>
        <DataArray type="Float32" Name="pw" NumberOfComponents="1" format="ascii">
          148117 146087 138307 136284 145997 136201 146080 136284 146169 136373 146244 136448
          146305 136509 146353 136557 146391 136595 146421 136625 146444 136648 146463 136667
          146478 136682 146491 136695 146504 136708 146516 136720 146526 136730 146525 136729
          146514 136718 146492 136696 146416 136620 146316 136520 146196 136400 146055 136259
          145887 136091 145686 135890 145440 135644 145132 135337 144760 134964 144298 134503
          143729 133933 143050 133255 142264 132469 141418 131622 140625 130828 139958 130162
          139430 129633 139043 129247 138761 128965 138548 128752 138380 128584 138241 128445
          138123 128327 138013 128217 137909 128114 137807 128011 137702 127906 137595 127799
          137476 127681 138212 128379 145665 135855 128497 126538 126466 126550 126639 126715
          126775 126824 126862 126891 126914 126933 126948 126962 126974 126986 126996 126996
          126984 126963 126886 126787 126667 126526 126358 126157 125912 125605 125233 124772
          124203 123525 122738 121890 121094 120428 119899 119513 119231 119019 118851 118712
          118594 118484 118381 118278 118174 118067 117951 118531 126045 118687 116897 116836
          116923 117013 117088 117149 117197 117235 117264 117287 117306 117321 117334 117347
          117359 117369 117369 117357 117338 117259 117160 117040 116900 116733 116532 116288
          115981 115611 115151 114583 113906 113118 112266 111468 110802 110272 109887 109607
          109395 109228 109089 108971 108861 108759 108656 108552 108444 108336 108711 116235
          108877 107425 107367 107461 107550 107625 107686 107734 107772 107801 107824 107842
          107857 107871 107883 107895 107905 107905 107893 107876 107796 107698 107579 107440
          107275 107076 106835 106532 106166 105711 105148 104478 103695 102847 102056 101402
          100886 100520 100259 100067 99918.1 99797.2 99697.5 99603.9 99517.2 99429.2 99339.6 99239.4
          99175.3 99009.1 106425 99067.1 98812.3 98865.2 98971.8 99060.8 99135.1 99195.1 99242.8 99280.3
          99309.4 99332.2 99350.4 99365.6 99378.9 99391.3 99403.8 99415.9 99415.6 99403.1 99389.7 99362.7
          99333.1 99301.5 99268.9 99234.8 99199.2 99162 99122.6 99082.8 99042.2 99001.1 98960.7 98920.7
          98881.5 98843.8 98806.4 98767.3 98726.6 98683.7 98637.7 98587.6 98532.5 98472.7 98404.3 98328.7
          98242.8 98146.1 98039.2 97916.4 97824.8 97546.8 90189.6 91237.9 91204 91265.8 91320.5 91359.2
          91383.7 91394.4 91394.5 91387.5 91373.1 91354.1 91333 91310 91289.5 91274.1 91258.6 91231.1
          91191.5 91151.2 90913.3 90692.2 90488.7 90314.7 90164.1 90033.5 89918.7 89814.9 89725.1 89643.6
          89567.8 89498 89433 89371 89310.7 89251.1 89191.6 89131.2 89068.5 89003.8 88937.5 88867.8
          88792.8 88711.3 88623.9 88527.8 88421 88304.2 88176.6 88054.3 87737.6 87622.4 87782.2 87903.6
          88009.3 88099.1 88173.4 88233.6 88281.4 88319 88348.3 88371.2 88389.6 88404.9 88418.3 88430.9
          88443.5 88456.3 88456.3 88443.6 88431.7 88421.5 88412.5 88404.6 88397.5 88391.2 88385.4 88380.2
          88375.4 88371.1 88367.2 88363.9 88361.3 88359.5 88358.1 88356.3 88353.2 88348.4 88341.5 88332.3
          88320.5 88305.5 88286.4 88262.3 88232 88194.2 88147.7 88091.4 88025 87947.6 87861.8 87622.4
          87622.4 87768 87891.5 87997 88086.8 88161.1 88221.3 88269.1 88306.7 88336 88358.9 88377.3
          88392.5 88405.9 88418.5 88431.2 88444.3 88444.3 88431.2 88419.4 88409.2 88400.2 88392.2 88385.2
          88378.9 88373.1 88367.9 88363.1 88358.8 88354.9 88351.7 88349.1 88347.3 88345.9 88344 88340.9
          88336.1 88329.2 88320 88308.2 88293.2 88274.2 88250 88219.7 88181.9 88135.4 88079.2 88012.6
          87936.1 87843.9 87622.4 87622.4 87754 87879.5 87984.8 88074.5 88148.8 88209 88256.9 88294.4
          88323.7 88346.6 88365 88380.3 88393.7 88406.3 88418.8 88432.6 88432.5 88418.9 88407.2 88396.9
          88387.9 88380 88372.9 88366.6 88360.9 88355.7 88350.9 88346.6 88342.7 88339.5 88336.9 88335.1
          88333.7 88331.8 88328.6 88323.9 88317 88307.8 88296 88281 88261.9 88237.8 88207.5 88169.7
          88123.2 88067 88000.4 87924.4 87827.7 87622.4 87622.4 87739.9 87867.6 87972.6 88062.4 88136.7
          88196.8 88244.7 88282.2 88311.5 88334.5 88352.8 88368.1 88381.5 88394.1 88406.5 86374.9 86374.8
          88406.6 88395 88384.7 88375.7 88367.8 88360.7 88354.4 88348.7 88343.5 88338.7 88334.4 88330.5
          88327.3 88324.7 88322.9 88321.5 88319.6 88316.5 88311.7 88304.8 88295.6 88283.8 88268.8 88249.8
          88225.7 88195.4 88157.6 88111.1 88054.9 87988.2 87912.6 87812.9 87622.4
        </DataArray>
        <DataArray type="Float32" Name="pn" NumberOfComponents="1" format="ascii">
          148117 146087 138307 136284 145997 136201 146080 136284 146169 136373 146244 136448
          146305 136509 146353 136557 146391 136595 146421 136625 146444 136648 146463 136667
          146478 136682 146491 136695 146504 136708 146516 136720 146526 136730 146525 136729
          146514 136718 146492 136696 146416 136620 146316 136520 146196 136400 146055 136259
          145887 136091 145686 135890 145440 135644 145132 135337 144760 134964 144298 134503
          143729 133933 143050 133255 142264 132469 141418 131622 140625 130828 139958 130162
          139430 129633 139043 129247 138761 128965 138548 128752 138380 128584 138241 128445
          138123 128327 138013 128217 137909 128114 137807 128011 137702 127906 137595 127799
          137476 127681 138212 128379 145665 135855 128497 126538 126466 126550 126639 126715
          126775 126824 126862 126891 126914 126933 126948 126962 126974 126986 126996 126996
          126984 126963 126886 126787 126667 126526 126358 126157 125912 125605 125233 124772
          124203 123525 122738 121890 121094 120428 119899 119513 119231 119019 118851 118712
          118594 118484 118381 118278 118174 118067 117951 118531 126045 118687 116897 116836
          116923 117013 117088 117149 117197 117235 117264 117287 117306 117321 117334 117347
          117359 117369 117369 117357 117338 117259 117160 117040 116900 116733 116532 116288
          115981 115611 115151 114583 113906 113118 112266 111468 110802 110272 109887 109607
          109395 109228 109089 108971 108861 108759 108656 108552 108444 108336 108711 116235
          108877 107425 107367 107461 107550 107625 107686 107734 107772 107801 107824 107842
          107857 107871 107883 107895 107905 107905 107893 107876 107796 107698 107579 107440
          107275 107076 106835 106532 106166 105711 105148 104478 103695 102847 102056 101402
          100886 100520 100259 100067 99918.1 99797.2 99697.5 99603.9 99517.2 99429.2 99339.6 99239.4
          99175.3 99009.1 106425 99067.1 98812.3 98865.2 98971.8 99060.8 99135.1 99195.1 99242.8 99280.3
          99309.4 99332.2 99350.4 99365.6 99378.9 99391.3 99403.8 99415.9 99415.6 99403.1 99389.7 99362.7
          99333.1 99301.5 99268.9 99234.8 99199.2 99162 99122.6 99082.8 99042.2 99001.1 98960.7 98920.7
          98881.5 98843.8 98806.4 98767.3 98726.6 98683.7 98637.7 98587.6 98532.5 98472.7 98404.3 98328.7
          98242.8 98146.1 98039.2 97916.4 97824.8 97546.8 90189.6 91237.9 91204 91265.8 91320.5 91359.2
          91383.7 91394.4 91394.5 91387.5 91373.1 91354.1 91333 91310 91289.5 91274.1 91258.6 91231.1
          91191.5 91151.2 90913.3 90692.2 90488.7 90314.7 90164.1 90033.5 89918.7 89814.9 89725.1 89643.6
          89567.8 89498 89433 89371 89310.7 89251.1 89191.6 89131.2 89068.5 89003.8 88937.5 88867.8
          88792.8 88711.3 88623.9 88527.8 88421 88304.2 88176.6 88054.3 87737.6 87622.4 87782.2 87903.6
          88009.3 88099.1 88173.4 88233.6 88281.4 88319 88348.3 88371.2 88389.6 88404.9 88418.3 88430.9
          88443.5 88456.3 88456.3 88443.6 88431.7 88421.5 88412.5 88404.6 88397.5 88391.2 88385.4 88380.2
          88375.4 88371.1 88367.2 88363.9 88361.3 88359.5 88358.1 88356.3 88353.2 88348.4 88341.5 88332.3
          88320.5 88305.5 88286.4 88262.3 88232 88194.2 88147.7 88091.4 88025 87947.6 87861.8 87622.4
          87622.4 87768 87891.5 87997 88086.8 88161.1 88221.3 88269.1 88306.7 88336 88358.9 88377.3
          88392.5 88405.9 88418.5 88431.2 88444.3 88444.3 88431.2 88419.4 88409.2 88400.2 88392.2 88385.2
          88378.9 88373.1 88367.9 88363.1 88358.8 88354.9 88351.7 88349.1 88347.3 88345.9 88344 88340.9
          88336.1 88329.2 88320 88308.2 88293.2 88274.2 88250 88219.7 88181.9 88135.4 88079.2 88012.6
          87936.1 87843.9 87622.4 87622.4 87754 87879.5 87984.8 88074.5 88148.8 88209 88256.9 88294.4
          88323.7 88346.6 88365 88380.3 88393.7 88406.3 88418.8 88432.6 88432.5 88418.9 88407.2 88396.9
          88387.9 88380 88372.9 88366.6 88360.9 88355.7 88350.9 88346.6 88342.7 88339.5 88336.9 88335.1
          88333.7 88331.8 88328.6 88323.9 88317 88307.8 88296 88281 88261.9 88237.8 88207.5 88169.7
          88123.2 88067 88000.4 87924.4 87827.7 87622.4 87622.4 87739.9 87867.6 87972.6 88062.4 88136.7
          88196.8 88244.7 88282.2 88311.5 88334.5 88352.8 88368.1 88381.5 88394.1 88406.5 89996.5 89996.4
          88406.6 88395 88384.7 88375.7 88367.8 88360.7 88354.4 88348.7 88343.5 88338.7 88334.4 88330.5
          88327.3 88324.7 88322.9 88321.5 88319.6 88316.5 88311.7 88304.8 88295.6 88283.8 88268.8 88249.8
          88225.7 88195.4 88157.6 88111.1 88054.9 87988.2 87912.6 87812.9 87622.4
        </DataArray>
        <DataArray type="Float32" Name="pg" NumberOfComponents="1" format="ascii">
          149050 146620 139240 136851 146523 136758 146606 136840 146695 136929 146770 137004
          146831 137065 146879 137114 146917 137152 146947 137181 146970 137204 146989 137223
          147004 137238 147018 137252 147030 137264 147042 137276 147052 137286 147051 137286
          147040 137275 147018 137252 146942 137176 146842 137077 146722 136956 146581 136815
          146413 136648 146212 136446 145966 136200 145658 135893 145286 135520 144824 135059
          144255 134490 143576 133812 142790 133025 141945 132179 141151 131385 140485 130719
          139956 130190 139569 129804 139287 129522 139075 129310 138907 129142 138767 129002
          138649 128884 138539 128774 138436 128671 138333 128568 138228 128463 138122 128357
          138003 128238 138755 128960 146598 136788 129430 127137 127054 127137 127227 127302
          127363 127411 127449 127478 127501 127520 127535 127549 127561 127573 127583 127583
          127571 127550 127473 127374 127253 127113 126945 126744 126499 126192 125820 125359
          124790 124112 123325 122477 121682 121016 120487 120101 119820 119608 119440 119301
          119183 119073 118970 118867 118763 118656 118540 119147 126978 119620 117531 117458
          117545 117635 117710 117770 117818 117856 117886 117909 117927 117942 117956 117968
          117980 117990 117990 117978 117959 117881 117782 117661 117521 117354 117154 116910
          116603 116233 115774 115206 114529 113742 112891 112095 111429 110900 110516 110236
          110025 109859 109720 109603 109493 109391 109289 109185 109078 108969 109370 117168
          109810 108113 108050 108145 108234 108308 108369 108417 108454 108484 108507 108525
          108540 108553 108566 108578 108588 108588 108576 108559 108481 108385 108268 108133
          107971 107778 107544 107248 106893 106452 105906 105257 104502 103690 102939 102328
          101858 101535 101314 101157 101042 100950 100876 100806 100739 100669 100596 100510
          100454 100209 107358 100000 100217 100309 100418 100507 100582 100642 100690 100727
          100756 100779 100798 100813 100826 100839 100852 100864 100864 100852 100839 100829
          100819 100811 100803 100797 100790 100785 100780 100775 100771 100767 100764 100762
          100761 100759 100756 100751 100744 100735 100723 100708 100689 100665 100635 100597
          100550 100494 100428 100347 100290 100000 100000 100175 100293 100399 100489 100563
          100624 100671 100709 100738 100761 100780 100795 100808 100821 100834 100846 100846
          100834 100822 100812 100802 100795 100787 100781 100775 100770 100765 100761 100757
          100754 100751 100749 100748 100746 100743 100738 100731 100722 100710 100695 100676
          100652 100622 100584 100538 100481 100415 100336 100259 100000 100000 100160 100281
          100387 100477 100551 100611 100659 100697 100726 100749 100767 100782 100796 100808
          100821 100834 100834 100821 100809 100799 100790 100782 100775 100769 100763 100758
          100753 100749 100745 100742 100739 100737 100736 100734 100731 100726 100719 100710
          100698 100683 100664 100640 100610 100572 100525 100469 100403 100325 100239 100000
          100000 100146 100269 100375 100464 100539 100599 100647 100684 100714 100736 100755
          100770 100784 100796 100809 100822 100822 100809 100797 100787 100778 100770 100763
          100756 100751 100745 100741 100736 100733 100729 100727 100725 100723 100722 100718
          100714 100707 100698 100686 100671 100652 100628 100597 100559 100513 100457 100390
          100314 100221 100000 100000 100132 100257 100362 100452 100526 100587 100634 100672
          100701 100724 100743 100758 100771 100784 100796 100810 100810 100796 100785 100774
          100765 100758 100750 100744 100738 100733 100728 100724 100720 100717 100714 100713
          100711 100709 100706 100701 100695 100685 100674 100659 100640 100615 100585 100547
          100501 100445 100378 100302 100205 100000 100000 100117 100245 100350 100440 100514
          100574 100622 100660 100689 100712 100730 100746 100759 100772 100784 100799 100799
          100784 100773 100762 100753 100745 100738 100732 100726 100721 100716 100712 100708
          100705 100702 100700 100699 100697 100694 100689 100682 100673 100661 100646 100627
          100603 100573 100535 100489 100432 100366 100290 100191 100000
        </DataArray>
        <DataArray type="Float32" Name="rhow" NumberOfComponents="1" format="ascii">
          999.724 999.723 999.719 999.719 999.723 999.718 999.723 999.719 999.723 999.719 999.723 999.719
          999.723 999.719 999.723 999.719 999.723 999.719 999.723 999.719 999.723 999.719 999.723 999.719
          999.723 999.719 999.723 999.719 999.723 999.719 999.723 999.719 999.723 999.719 999.723 999.719
          999.723 999.719 999.723 999.719 999.723 999.719 999.723 999.719 999.723 999.719 999.723 999.718
          999.723 999.718 999.723 999.718 999.723 999.718 999.723 999.718 999.723 999.718 999.722 999.718
          999.722 999.717 999.722 999.717 999.721 999.717 999.721 999.716 999.721 999.716 999.72 999.716
          999.72 999.715 999.72 999.715 999.72 999.715 999.72 999.715 999.719 999.715 999.719 999.715
          999.719 999.715 999.719 999.715 999.719 999.715 999.719 999.715 999.719 999.714 999.719 999.714
          999.719 999.714 999.719 999.715 999.723 999.718 999.715 999.714 999.714 999.714 999.714 999.714
          999.714 999.714 999.714 999.714 999.714 999.714 999.714 999.714 999.714 999.714 999.714 999.714
          999.714 999.714 999.714 999.714 999.714 999.714 999.714 999.714 999.714 999.713 999.713 999.713
          999.713 999.712 999.712 999.712 999.711 999.711 999.711 999.71 999.71 999.71 999.71 999.71
          999.71 999.71 999.71 999.71 999.71 999.71 999.71 999.71 999.714 999.71 999.709 999.709
          999.709 999.709 999.709 999.709 999.709 999.709 999.709 999.709 999.709 999.709 999.709 999.709
          999.709 999.709 999.709 999.709 999.709 999.709 999.709 999.709 999.709 999.709 999.709 999.709
          999.709 999.709 999.708 999.708 999.708 999.707 999.707 999.707 999.706 999.706 999.706 999.706
          999.706 999.706 999.706 999.705 999.705 999.705 999.705 999.705 999.705 999.705 999.705 999.709
          999.705 999.705 999.705 999.705 999.705 999.705 999.705 999.705 999.705 999.705 999.705 999.705
          999.705 999.705 999.705 999.705 999.705 999.705 999.705 999.705 999.705 999.705 999.705 999.705
          999.705 999.705 999.704 999.704 999.704 999.704 999.704 999.703 999.703 999.703 999.702 999.702
          999.702 999.701 999.701 999.701 999.701 999.701 999.701 999.701 999.701 999.701 999.701 999.701
          999.701 999.701 999.704 999.701 999.701 999.701 999.701 999.701 999.701 999.701 999.701 999.701
          999.701 999.701 999.701 999.701 999.701 999.701 999.701 999.701 999.701 999.701 999.701 999.701
          999.701 999.701 999.701 999.701 999.701 999.701 999.701 999.701 999.701 999.701 999.701 999.701
          999.701 999.701 999.701 999.701 999.701 999.701 999.701 999.7 999.7 999.7 999.7 999.7
          999.7 999.7 999.7 999.7 999.7 999.7 999.696 999.697 999.697 999.697 999.697 999.697
          999.697 999.697 999.697 999.697 999.697 999.697 999.697 999.697 999.697 999.697 999.697 999.697
          999.697 999.697 999.697 999.697 999.697 999.697 999.696 999.696 999.696 999.696 999.696 999.696
          999.696 999.696 999.696 999.696 999.696 999.696 999.696 999.696 999.696 999.696 999.696 999.696
          999.696 999.696 999.696 999.696 999.696 999.696 999.695 999.695 999.695 999.695 999.695 999.695
          999.695 999.695 999.695 999.695 999.696 999.696 999.696 999.696 999.696 999.696 999.696 999.696
          999.696 999.696 999.696 999.696 999.696 999.696 999.696 999.696 999.696 999.696 999.696 999.696
          999.696 999.696 999.696 999.696 999.696 999.696 999.696 999.696 999.696 999.696 999.696 999.696
          999.696 999.696 999.696 999.696 999.695 999.695 999.695 999.695 999.695 999.695 999.695 999.695
          999.695 999.695 999.695 999.695 999.695 999.695 999.695 999.696 999.696 999.696 999.696 999.696
          999.696 999.696 999.696 999.696 999.696 999.696 999.696 999.696 999.696 999.696 999.696 999.696
          999.696 999.696 999.696 999.696 999.696 999.696 999.696 999.696 999.696 999.696 999.696 999.696