<?xml version="1.0"?>
<VTKFile type="UnstructuredGrid" version="0.1" byte_order="LittleEndian">
  <UnstructuredGrid>
    <Piece NumberOfCells="500" NumberOfPoints="561">
      <CellData Scalars="S_aq">
        <DataArray type="Float32" Name="S_aq" NumberOfComponents="1" format="ascii">
          0.97 0.97 0.97 0.97 0.97 0.97 0.97 0.97 0.97 0.97 0.97 0.97
          0.97 0.97 0.97 0.97 0.97 0.97 0.97 0.97 0.97 0.97 0.97 0.97
          0.97 0.97 0.97 0.97 0.97 0.97 0.97 0.97 0.97 0.97 0.97 0.97
          0.97 0.97 0.97 0.97 0.97 0.97 0.97 0.97 0.97 0.97 0.97 0.97
          0.97 0.97 0.97 0.97 0.97 0.97 0.97 0.97 0.97 0.97 0.97 0.97
          0.97 0.97 0.97 0.97 0.97 0.97 0.97 0.97 0.97 0.97 0.97 0.97
          0.97 0.97 0.97 0.97 0.97 0.97 0.97 0.97 0.97 0.97 0.97 0.97
          0.97 0.97 0.97 0.97 0.97 0.97 0.97 0.97 0.97 0.97 0.97 0.97
          0.97 0.97 0.97 0.97 0.97 0.97 0.97 0.97 0.97 0.97 0.97 0.97
          0.97 0.97 0.97 0.97 0.97 0.97 0.97 0.97 0.97 0.97 0.97 0.97
          0.97 0.97 0.97 0.97 0.97 0.97 0.97 0.97 0.97 0.97 0.97 0.97
          0.97 0.97 0.97 0.97 0.97 0.97 0.97 0.97 0.97 0.97 0.97 0.97
          0.97 0.97 0.97 0.97 0.97 0.97 0.97 0.970001 0.970001 0.970001 0.970001 0.970001
          0.970001 0.97 0.97 0.97 0.97 0.97 0.97 0.97 0.97 0.97 0.97 0.97
          0.97 0.97 0.97 0.97 0.97 0.97 0.97 0.97 0.97 0.97 0.97 0.97
          0.97 0.97 0.97 0.97 0.97 0.97 0.97 0.97 0.97 0.97 0.97 0.97
          0.97 0.97 0.97 0.97 0.97 0.97 0.97 0.97 0.970002 0.970003 0.970003 0.970003
          0.970003 0.970003 0.970002 0.970002 0.970002 0.970002 0.970002 0.970002 0.970002 0.970002 0.970002 0.970002
          0.970002 0.970002 0.970001 0.970001 0.970001 0.970001 0.970001 0.970001 0.970001 0.970001 0.970001 0.970001
          0.970001 0.970001 0.970001 0.970001 0.970001 0.970001 0.970001 0.970001 0.970001 0.970001 0.970001 0.970001
          0.970001 0.970001 0.970001 0.970001 0.970001 0.97 0.97 0.97 0.970001 0.97 0.177606 0.175958
          0.174372 0.172847 0.171382 0.169979 0.168575 0.167294 0.166012 0.164792 0.163602 0.162473 0.161375 0.160276
          0.159269 0.158262 0.157316 0.15637 0.155486 0.154601 0.153746 0.152953 0.15216 0.151397 0.150634 0.149932
          0.14923 0.148559 0.147903 0.147277 0.146652 0.146057 0.145477 0.144912 0.144363 0.143829 0.14331 0.142822
          0.142334 0.141861 0.141388 0.140945 0.140518 0.140091 0.139679 0.139282 0.138885 0.138504 0.138138 0.137787
          0.12 0.12 0.12 0.12 0.12 0.12 0.12 0.12 0.12 0.12 0.12 0.12
          0.12 0.12 0.12 0.12 0.12 0.12 0.12 0.12 0.12 0.12 0.12 0.12
          0.12 0.12 0.12 0.12 0.12 0.12 0.12 0.12 0.12 0.12 0.12 0.12
          0.12 0.12 0.12 0.12 0.12 0.12 0.12 0.12 0.12 0.12 0.12 0.12
          0.12 0.12 0.12 0.12 0.12 0.12 0.12 0.12 0.12 0.12 0.12 0.12
          0.12 0.12 0.12 0.12 0.12 0.12 0.12 0.12 0.12 0.12 0.12 0.12
          0.12 0.12 0.12 0.12 0.12 0.12 0.12 0.12 0.12 0.12 0.12 0.12
          0.12 0.12 0.12 0.12 0.12 0.12 0.12 0.12 0.12 0.12 0.12 0.12
          0.12 0.12 0.12 0.12 0.12 0.12 0.12 0.12 0.12 0.12 0.12 0.12
          0.12 0.12 0.12 0.12 0.12 0.12 0.12 0.12 0.12 0.12 0.12 0.12
          0.12 0.12 0.12 0.12 0.12 0.12 0.12 0.12 0.12 0.12 0.12 0.12
          0.12 0.12 0.12 0.12 0.12 0.12 0.12 0.12 0.12 0.12 0.12 0.12
          0.12 0.12 0.12 0.12 0.12 0.12 0.12 0.12 0.12 0.12 0.12 0.12
          0.12 0.12 0.12 0.12 0.12 0.12 0.12 0.12 0.12 0.12 0.12 0.12
          0.12 0.12 0.12 0.12 0.12 0.12 0.12 0.12 0.12 0.12 0.12 0.12
          0.12 0.12 0.12 0.12 0.12 0.12 0.12 0.12 0.12 0.12 0.12 0.12
          0.12 0.12 0.12 0.12 0.12 0.12 0.12 0.12
        </DataArray>
        <DataArray type="Float32" Name="S_napl" NumberOfComponents="1" format="ascii">
          0 0 0 0 0 0 0 0 0 0 0 0
          0 0 0 0 0 0 0 0 0 0 0 0
          0 0 0 0 0 0 0 0 0 0 0 0
          0 0 0 0 0 0 0 0 0 0 0 0
          0 0 0 0 0 0 0 0 0 0 0 0
          0 0 0 0 0 0 0 0 0 0 0 0
          0 0 0 0 0 0 0 0 0 0 0 0
          0 0 0 0 0 0 0 0 0 0 0 0
          0 0 0 0 0 0 0 0 0 0 0 0
          0 0 0 0 0 0 0 0 0 0 0 0
          0 0 0 0 0 0 0 0 0 0 0 0
          0 0 0 0 0 0 0 0 0 0 0 0
          0 0 0 0 0 0 0 0 0 0 0 0
          0 0 0 0 0 0 0 0 0 0 0 0
          0 0 0 0 0 0 0 0 0 0 0 0
          0 0 0 0 0 0 0 0 0 0 0 0
          0 0 0 0 0 0 0 0 0 0 0 0
          0 0 0 0 0 0 0 0 0 0 0 0
          0 0 0 0 0 0 0 0 0 0 0 0
          0 0 0 0 0 0 0 0 0 0 0 0
          0 0 0 0 0 0 0 0 0 0 0 0
          0 0 0 0 0 0 0 0 0 0 0 0
          0 0 0 0 0 0 0 0 0 0 0 0
          0 0 0 0 0 0 0 0 0 0 0 0
          0 0 0 0 0 0 0 0 0 0 0 0
          0 0 0 0 0 0 0 0 0 0 0 0
          0 0 0 0 0 0 0 0 0 0 0 0
          0 0 0 0 0 0 0 0 0 0 0 0
          0 0 0 0 0 0 0 0 0 0 0 0
          0 0 0 0 0 0 0 0 0 0 0 0
          0 0 0 0 0 4.42018e-24 4.37407e-24 4.42374e-24 0 0 0 0
          0 0 0 0 0 0 0 0 0 0 0 0
          0 0 0 0 0 0 0 0 0 0 0 0
          0 0 0 0 0 0 0 0 0 0 0 0
          0 0 0 0 0 0 8.01116e-29 9.404e-08 9.404e-08 9.404e-08 8.02477e-29 0
          0 0 0 0 0 0 0 0 0 0 0 0
          0 0 0 0 0 0 0 0 0 0 0 0
          0 0 0 0 0 0 0 0 0 0 0 0
          0 0 0 0 0 0 0 0 4.53516e-11 0.0102415 0.0102415 0.0102415
          4.5353e-11 0 0 0 0 0 0 0 0 0 0 0
          0 0 0 0 0 0 0 0 0 0 0 0
          0 0 0 0 0 0 0 0
        </DataArray>
        <DataArray type="Float32" Name="S_gas" NumberOfComponents="1" format="ascii">
          0.0299999 0.0299997 0.0299996 0.0299996 0.0299996 0.0299997 0.0299997 0.0299997 0.0299997 0.0299998 0.0299998 0.0299998
          0.0299998 0.0299999 0.0299999 0.0299999 0.0299999 0.0299999 0.0299999 0.0299999 0.0299999 0.03 0.03 0.03
          0.03 0.03 0.03 0.03 0.03 0.03 0.03 0.03 0.03 0.03 0.03 0.03
          0.03 0.03 0.03 0.03 0.03 0.03 0.03 0.03 0.03 0.03 0.03 0.03
          0.03 0.03 0.03 0.0299997 0.0299997 0.0299996 0.0299997 0.0299997 0.0299997 0.0299998 0.0299998 0.0299998
          0.0299999 0.0299999 0.0299999 0.03 0.03 0.03 0.03 0.03 0.03 0.03 0.03 0.03
          0.03 0.03 0.03 0.03 0.03 0.03 0.03 0.03 0.03 0.03 0.03 0.03
          0.03 0.03 0.03 0.03 0.03 0.03 0.03 0.03 0.03 0.03 0.03 0.03
          0.03 0.03 0.03 0.03 0.03 0.0299997 0.0299996 0.0299996 0.0299997 0.0299997 0.0299998 0.0299998
          0.0299998 0.0299999 0.0299999 0.03 0.03 0.03 0.03 0.03 0.03 0.03 0.03 0.03
          0.03 0.03 0.03 0.03 0.03 0.03 0.0300001 0.0300001 0.0300001 0.0300001 0.0300001 0.0300001
          0.0300001 0.0300001 0.0300001 0.0300001 0.0300001 0.0300001 0.0300001 0.0300001 0.0300001 0.0300001 0.0300001 0.0300001
          0.0300001 0.0300001 0.0300001 0.0300001 0.0300001 0.0300001 0.0299998 0.0299991 0.029999 0.0299991 0.0299992 0.0299993
          0.0299994 0.0299996 0.0299997 0.0299997 0.0299998 0.0299998 0.0299999 0.0299999 0.03 0.03 0.03 0.03
          0.03 0.03 0.03 0.03 0.0300001 0.0300001 0.0300001 0.0300001 0.0300001 0.0300001 0.0300001 0.0300001
          0.0300001 0.0300001 0.0300001 0.0300001 0.0300001 0.0300001 0.0300001 0.0300001 0.0300001 0.0300001 0.0300001 0.0300001
          0.0300001 0.0300001 0.0300001 0.0300001 0.0300001 0.0300001 0.0300001 0.0300002 0.0299979 0.0299974 0.0299973 0.0299973
          0.0299974 0.0299974 0.0299975 0.0299976 0.0299977 0.0299978 0.0299979 0.0299979 0.029998 0.0299981 0.0299982 0.0299983
          0.0299984 0.0299985 0.0299986 0.0299987 0.0299988 0.0299988 0.0299989 0.0299989 0.029999 0.0299991 0.0299991 0.0299991
          0.0299992 0.0299992 0.0299993 0.0299993 0.0299993 0.0299993 0.0299994 0.0299994 0.0299994 0.0299994 0.0299994 0.0299995
          0.0299995 0.0299995 0.0299995 0.0299995 0.0299995 0.0299995 0.0299995 0.0299995 0.0299995 0.0299995 0.822394 0.824042
          0.825628 0.827153 0.828618 0.830021 0.831425 0.832706 0.833988 0.835208 0.836398 0.837527 0.838625 0.839724
          0.840731 0.841738 0.842684 0.84363 0.844514 0.845399 0.846254 0.847047 0.84784 0.848603 0.849366 0.850068
          0.85077 0.851441 0.852097 0.852723 0.853348 0.853943 0.854523 0.855088 0.855637 0.856171 0.85669 0.857178
          0.857666 0.858139 0.858612 0.859055 0.859482 0.859909 0.860321 0.860718 0.861115 0.861496 0.861862 0.862213
          0.88 0.88 0.88 0.88 0.88 0.88 0.88 0.88 0.88 0.88 0.88 0.88
          0.88 0.88 0.88 0.88 0.88 0.88 0.88 0.88 0.88 0.88 0.88 0.88
          0.88 0.88 0.88 0.88 0.88 0.88 0.88 0.88 0.88 0.88 0.88 0.88
          0.88 0.88 0.88 0.88 0.88 0.88 0.88 0.88 0.88 0.88 0.88 0.88
          0.88 0.88 0.88 0.88 0.88 0.88 0.88 0.88 0.88 0.88 0.88 0.88
          0.88 0.88 0.88 0.88 0.88 0.88 0.88 0.88 0.88 0.88 0.88 0.88
          0.88 0.88 0.88 0.88 0.88 0.88 0.88 0.88 0.88 0.88 0.88 0.88
          0.88 0.88 0.88 0.88 0.88 0.88 0.88 0.88 0.88 0.88 0.88 0.88
          0.88 0.88 0.88 0.88 0.88 0.88 0.88 0.88 0.88 0.88 0.88 0.88
          0.88 0.88 0.88 0.88 0.88 0.88 0.88 0.88 0.88 0.88 0.88 0.88
          0.88 0.88 0.88 0.88 0.88 0.88 0.88 0.88 0.88 0.88 0.88 0.88
          0.88 0.88 0.88 0.88 0.88 0.88 0.88 0.88 0.88 0.88 0.88 0.88
          0.88 0.88 0.88 0.88 0.88 0.88 0.88 0.88 0.88 0.88 0.88 0.88
          0.88 0.88 0.88 0.88 0.88 0.88 0.88 0.88 0.88 0.869758 0.869758 0.869758
          0.88 0.88 0.88 0.88 0.88 0.88 0.88 0.88 0.88 0.88 0.88 0.88
          0.88 0.88 0.88 0.88 0.88 0.88 0.88 0.88 0.88 0.88 0.88 0.88
          0.88 0.88 0.88 0.88 0.88 0.88 0.88 0.88
        </DataArray>
        <DataArray type="Float32" Name="p_aq" NumberOfComponents="1" format="ascii">
          143184 143136 143087 143038 142989 142940 142891 142841 142792 142743 142694 142644
          142595 142546 142497 142448 142398 142349 142300 142251 142202 142153 142104 142054
          142005 141956 141907 141858 141809 141760 141711 141662 141613 141564 141515 141465
          141416 141367 141318 141269 141220 141171 141122 141073 141024 140975 140926 140877
          140828 140779 133377 133329 133280 133231 133182 133133 133083 133034 132985 132936
          132886 132837 132788 132739 132690 132640 132591 132542 132493 132444 132395 132345
          132296 132247 132198 132149 132100 132051 132002 131953 131904 131855 131805 131756
          131707 131658 131609 131560 131511 131462 131413 131364 131315 131266 131217 131168
          131119 131070 131020 130972 123569 123522 123473 123424 123375 123325 123276 123227
          123178 123128 123079 123030 122981 122931 122882 122833 122784 122735 122686 122637
          122587 122538 122489 122440 122391 122342 122293 122244 122195 122146 122096 122047
          121998 121949 121900 121851 121802 121753 121704 121655 121606 121557 121508 121459
          121409 121360 121311 121262 121213 121164 113762 113715 113666 113617 113568 113518
          113469 113420 113370 113321 113272 113223 113174 113124 113075 113026 112977 112928
          112879 112829 112780 112731 112682 112633 112584 112535 112486 112437 112387 112338
          112289 112240 112191 112142 112093 112044 111995 111946 111897 111848 111799 111750
          111700 111651 111602 111553 111504 111455 111406 111357 103955 103908 103859 103810
          103761 103711 103662 103613 103563 103514 103465 103416 103366 103317 103268 103219
          103170 103121 103071 103022 102973 102924 102875 102826 102777 102728 102679 102629
          102580 102531 102482 102433 102384 102335 102286 102237 102188 102139 102090 102041
          101992 101942 101893 101844 101795 101746 101697 101648 101599 101550 95094.1 95046.4
          94997.8 94949.4 94901.3 94853.9 94805.1 94759.6 94713.1 94668.1 94623.9 94582.1 94541.7 94501.6
          94466.5 94431.9 94388.8 94333.8 94270.6 94207.9 94147.7 94091.6 94035.8 93981.8 93927.4 93876.6
          93825 93774.6 93724.2 93675.1 93624.7 93575.4 93526.1 93476.7 93427.3 93377.9 93328.4 93280.6
          93231.4 93182.4 93131.9 93083.4 93035.2 92985.6 92936.5 92887.9 92838 92788.7 92740 92691
          87634.3 87635.4 87636 87636.6 87637.5 87638.8 87640.4 87642.6 87645.6 87649.5 87654.6 87661.3
          87669.7 87680.2 87693 87708.1 87713.2 87708.1 87693 87680.1 87669.6 87661.2 87654.6 87649.5
          87645.6 87642.6 87640.4 87638.8 87637.6 87636.7 87636.1 87635.7 87635.4 87635.1 87635 87634.9
          87634.8 87634.7 87634.7 87634.7 87634.6 87634.6 87634.6 87634.6 87634.6 87634.6 87634.6 87634.6
          87634.6 87633.9 87622.9 87623.4 87623.9 87624.6 87625.5 87626.7 87628.3 87630.6 87633.5 87637.4
          87642.6 87649.2 87657.6 87668.1 87680.9 87696.3 87701.4 87696.3 87680.9 87668 87657.6 87649.1
          87642.5 87637.4 87633.5 87630.5 87628.3 87626.7 87625.5 87624.7 87624 87623.6 87623.3 87623.1
          87622.9 87622.8 87622.7 87622.7 87622.6 87622.6 87622.6 87622.6 87622.5 87622.5 87622.5 87622.5
          87622.5 87622.5 87622.5 87622.5 87611.5 87611.3 87611.8 87612.5 87613.4 87614.6 87616.3 87618.5
          87621.5 87625.4 87630.5 87637.1 87645.5 87656 87668.9 87684.6 87689.7 87684.6 87668.9 87656
          87645.5 87637.1 87630.5 87625.3 87621.4 87618.5 87616.3 87614.6 87613.5 87612.6 87612 87611.5
          87611.2 87611 87610.8 87610.7 87610.6 87610.6 87610.6 87610.5 87610.5 87610.5 87610.5 87610.5
          87610.5 87610.5 87610.4 87610.4 87610.5 87611.1 87599.9 87599.3 87599.8 87600.4 87601.4 87602.6
          87604.2 87606.4 87609.4 87613.3 87618.4 87625.1 87633.5 87643.9 87656.8 86382.7 86387.8 86382.7
          87656.8 87643.9 87633.4 87625 87618.4 87613.3 87609.4 87606.4 87604.2 87602.6 87601.4 87600.5
          87599.9 87599.5 87599.1 87598.9 87598.8 87598.7 87598.6 87598.5 87598.5 87598.5 87598.4 87598.4
          87598.4 87598.4 87598.4 87598.4 87598.4 87598.4 87598.4 87599.5
        </DataArray>
        <DataArray type="Float32" Name="p_napl" NumberOfComponents="1" format="ascii">
          143184 143136 143087 143038 142989 142940 142891 142841 142792 142743 142694 142644
          142595 142546 142497 142448 142398 142349 142300 142251 142202 142153 142104 142054
          142005 141956 141907 141858 141809 141760 141711 141662 141613 141564 141515 141465
          141416 141367 141318 141269 141220 141171 141122 141073 141024 140975 140926 140877
          140828 140779 133377 133329 133280 133231 133182 133133 133083 133034 132985 132936
          132886 132837 132788 132739 132690 132640 132591 132542 132493 132444 132395 132345
          132296 132247 132198 132149 132100 132051 132002 131953 131904 131855 131805 131756
          131707 131658 131609 131560 131511 131462 131413 131364 131315 131266 131217 131168
          131119 131070 131020 130972 123569 123522 123473 123424 123375 123325 123276 123227
          123178 123128 123079 123030 122981 122931 122882 122833 122784 122735 122686 122637
          122587 122538 122489 122440 122391 122342 122293 122244 122195 122146 122096 122047
          121998 121949 121900 121851 121802 121753 121704 121655 121606 121557 121508 121459
          121409 121360 121311 121262 121213 121164 113762 113715 113666 113617 113568 113518
          113469 113420 113370 113321 113272 113223 113174 113124 113075 113026 112977 112928
          112879 112829 112780 112731 112682 112633 112584 112535 112486 112437 112387 112338
          112289 112240 112191 112142 112093 112044 111995 111946 111897 111848 111799 111750
          111700 111651 111602 111553 111504 111455 111406 111357 103955 103908 103859 103810
          103761 103711 103662 103613 103563 103514 103465 103416 103366 103317 103268 103219
          103170 103121 103071 103022 102973 102924 102875 102826 102777 102728 102679 102629
          102580 102531 102482 102433 102384 102335 102286 102237 102188 102139 102090 102041
          101992 101942 101893 101844 101795 101746 101697 101648 101599 101550 95094.1 95046.4
          94997.8 94949.4 94901.3 94853.9 94805.1 94759.6 94713.1 94668.1 94623.9 94582.1 94541.7 94501.6
          94466.5 94431.9 94388.8 94333.8 94270.6 94207.9 94147.7 94091.6 94035.8 93981.8 93927.4 93876.6
          93825 93774.6 93724.2 93675.1 93624.7 93575.4 93526.1 93476.7 93427.3 93377.9 93328.4 93280.6
          93231.4 93182.4 93131.9 93083.4 93035.2 92985.6 92936.5 92887.9 92838 92788.7 92740 92691
          87634.3 87635.4 87636 87636.6 87637.5 87638.8 87640.4 87642.6 87645.6 87649.5 87654.6 87661.3
          87669.7 87680.2 87693 87708.1 87713.2 87708.1 87693 87680.1 87669.6 87661.2 87654.6 87649.5
          87645.6 87642.6 87640.4 87638.8 87637.6 87636.7 87636.1 87635.7 87635.4 87635.1 87635 87634.9
          87634.8 87634.7 87634.7 87634.7 87634.6 87634.6 87634.6 87634.6 87634.6 87634.6 87634.6 87634.6
          87634.6 87633.9 87622.9 87623.4 87623.9 87624.6 87625.5 87626.7 87628.3 87630.6 87633.5 87637.4
          87642.6 87649.2 87657.6 87668.1 87680.9 87696.3 87701.4 87696.3 87680.9 87668 87657.6 87649.1
          87642.5 87637.4 87633.5 87630.5 87628.3 87626.7 87625.5 87624.7 87624 87623.6 87623.3 87623.1
          87622.9 87622.8 87622.7 87622.7 87622.6 87622.6 87622.6 87622.6 87622.5 87622.5 87622.5 87622.5
          87622.5 87622.5 87622.5 87622.5 87611.5 87611.3 87611.8 87612.5 87613.4 87614.6 87616.3 87618.5
          87621.5 87625.4 87630.5 87637.1 87645.5 87656 87668.9 87684.6 87689.7 87684.6 87668.9 87656
          87645.5 87637.1 87630.5 87625.3 87621.4 87618.5 87616.3 87614.6 87613.5 87612.6 87612 87611.5
          87611.2 87611 87610.8 87610.7 87610.6 87610.6 87610.6 87610.5 87610.5 87610.5 87610.5 87610.5
          87610.5 87610.5 87610.4 87610.4 87610.5 87611.1 87599.9 87599.3 87599.8 87600.4 87601.4 87602.6
          87604.2 87606.4 87609.4 87613.3 87618.4 87625.1 87633.5 87643.9 87656.8 88193.6 88198.8 88193.6
          87656.8 87643.9 87633.4 87625 87618.4 87613.3 87609.4 87606.4 87604.2 87602.6 87601.4 87600.5
          87599.9 87599.5 87599.1 87598.9 87598.8 87598.7 87598.6 87598.5 87598.5 87598.5 87598.4 87598.4
          87598.4 87598.4 87598.4 87598.4 87598.4 87598.4 87598.4 87599.5
        </DataArray>
        <DataArray type="Float32" Name="p_gas" NumberOfComponents="1" format="ascii">
          144117 144069 144020 143971 143922 143873 143823 143774 143725 143676 143626 143577
          143528 143479 143430 143380 143331 143282 143233 143184 143135 143086 143036 142987
          142938 142889 142840 142791 142742 142693 142644 142595 142546 142496 142447 142398
          142349 142300 142251 142202 142153 142104 142055 142006 141957 141908 141859 141810
          141761 141712 134309 134262 134213 134164 134115 134066 134016 133967 133918 133868
          133819 133770 133721 133672 133622 133573 133524 133475 133426 133377 133327 133278
          133229 133180 133131 133082 133033 132984 132935 132886 132836 132787 132738 132689
          132640 132591 132542 132493 132444 132395 132346 132297 132248 132199 132150 132100
          132051 132002 131953 131904 124502 124455 124406 124357 124308 124258 124209 124160
          124110 124061 124012 123963 123914 123864 123815 123766 123717 123668 123619 123569
          123520 123471 123422 123373 123324 123275 123226 123177 123127 123078 123029 122980
          122931 122882 122833 122784 122735 122686 122637 122588 122539 122490 122440 122391
          122342 122293 122244 122195 122146 122097 114695 114647 114599 114550 114501 114451
          114402 114353 114303 114254 114205 114156 114106 114057 114008 113959 113910 113861
          113811 113762 113713 113664 113615 113566 113517 113468 113419 113369 113320 113271
          113222 113173 113124 113075 113026 112977 112928 112879 112830 112781 112731 112682
          112633 112584 112535 112486 112437 112388 112339 112290 104888 104840 104792 104743
          104693 104644 104595 104546 104496 104447 104398 104349 104299 104250 104201 104152
          104103 104053 104004 103955 103906 103857 103808 103759 103710 103661 103611 103562
          103513 103464 103415 103366 103317 103268 103219 103170 103121 103072 103023 102973
          102924 102875 102826 102777 102728 102679 102630 102581 102532 102483 100024 100025
          100026 100026 100027 100028 100030 100032 100035 100039 100044 100051 100059 100070
          100083 100098 100103 100098 100083 100070 100059 100051 100044 100039 100035 100032
          100030 100028 100027 100026 100026 100025 100025 100025 100025 100025 100024 100024
          100024 100024 100024 100024 100024 100024 100024 100024 100024 100024 100024 100023
          100012 100013 100014 100014 100015 100016 100018 100020 100023 100027 100032 100039
          100047 100058 100071 100086 100091 100086 100071 100058 100047 100039 100032 100027
          100023 100020 100018 100016 100015 100014 100014 100013 100013 100013 100013 100012
          100012 100012 100012 100012 100012 100012 100012 100012 100012 100012 100012 100012
          100012 100011 100000 100001 100001 100002 100003 100004 100006 100008 100011 100015
          100020 100027 100035 100046 100059 100074 100079 100074 100058 100046 100035 100027
          100020 100015 100011 100008 100006 100004 100003 100002 100002 100001 100001 100001
          100000 100000 100000 100000 100000 100000 100000 100000 100000 100000 100000 100000
          100000 100000 100000 100000 99989.1 99988.9 99989.4 99990.1 99991 99992.2 99993.9 99996.1
          99999 100003 100008 100015 100023 100034 100046 100062 100067 100062 100046 100034
          100023 100015 100008 100003 99999 99996 99993.8 99992.2 99991 99990.2 99989.6 99989.1
          99988.8 99988.6 99988.4 99988.3 99988.2 99988.2 99988.1 99988.1 99988.1 99988.1 99988.1 99988
          99988 99988 99988 99988 99988 99988.7 99977.5 99976.8 99977.3 99978 99978.9 99980.1
          99981.8 99984 99987 99990.9 99996 100003 100011 100022 100034 100051 100056 100051
          100034 100021 100011 100003 99996 99990.8 99986.9 99984 99981.8 99980.1 99979 99978.1
          99977.5 99977 99976.7 99976.5 99976.3 99976.2 99976.2 99976.1 99976.1 99976 99976 99976
          99976 99976 99976 99976 99976 99976 99976 99977.1
        </DataArray>
        <DataArray type="Float32" Name="rho_aq" NumberOfComponents="1" format="ascii">
          999.722 999.722 999.722 999.722 999.722 999.722 999.722 999.722 999.722 999.722 999.722 999.721
          999.721 999.721 999.721 999.721 999.721 999.721 999.721 999.721 999.721 999.721 999.721 999.721
          999.721 999.721 999.721 999.721 999.721 999.721 999.721 999.721 999.721 999.721 999.721 999.721
          999.721 999.721 999.721 999.721 999.721 999.721 999.721 999.721 999.721 999.721 999.721 999.721
          999.721 999.721 999.717 999.717 999.717 999.717 999.717 999.717 999.717 999.717 999.717 999.717
          999.717 999.717 999.717 999.717 999.717 999.717 999.717 999.717 999.717 999.717 999.717 999.717
          999.717 999.717 999.717 999.716 999.716 999.716 999.716 999.716 999.716 999.716 999.716 999.716
          999.716 999.716 999.716 999.716 999.716 999.716 999.716 999.716 999.716 999.716 999.716 999.716
          999.716 999.716 999.716 999.716 999.712 999.712 999.712 999.712 999.712 999.712 999.712 999.712
          999.712 999.712 999.712 999.712 999.712 999.712 999.712 999.712 999.712 999.712 999.712 999.712
          999.712 999.712 999.712 999.712 999.712 999.712 999.712 999.712 999.712 999.712 999.712 999.712
          999.712 999.712 999.712 999.712 999.712 999.712 999.711 999.711 999.711 999.711 999.711 999.711
          999.711 999.711 999.711 999.711 999.711 999.711 999.708 999.708 999.708 999.708 999.708 999.708
          999.708 999.708 999.708 999.708 999.707 999.707 999.707 999.707 999.707 999.707 999.707 999.707
          999.707 999.707 999.707 999.707 999.707 999.707 999.707 999.707 999.707 999.707 999.707 999.707
          999.707 999.707 999.707 999.707 999.707 999.707 999.707 999.707 999.707 999.707 999.707 999.707
          999.707 999.707 999.707 999.707 999.707 999.707 999.707 999.707 999.703 999.703 999.703 999.703
          999.703 999.703 999.703 999.703 999.703 999.703 999.703 999.703 999.703 999.703 999.703 999.703
          999.703 999.703 999.703 999.703 999.703 999.703 999.703 999.703 999.702 999.702 999.702 999.702
          999.702 999.702 999.702 999.702 999.702 999.702 999.702 999.702 999.702 999.702 999.702 999.702
          999.702 999.702 999.702 999.702 999.702 999.702 999.702 999.702 999.702 999.702 999.699 999.699
          999.699 999.699 999.699 999.699 999.699 999.699 999.699 999.699 999.699 999.699 999.699 999.698
          999.698 999.698 999.698 999.698 999.698 999.698 999.698 999.698 999.698 999.698 999.698 999.698
          999.698 999.698 999.698 999.698 999.698 999.698 999.698 999.698 999.698 999.698 999.698 999.698
          999.698 999.698 999.698 999.698 999.698 999.698 999.698 999.698 999.698 999.698 999.698 999.698
          999.695 999.695 999.695 999.695 999.695 999.695 999.695 999.695 999.695 999.695 999.695 999.695
          999.695 999.695 999.695 999.695 999.695 999.695 999.695 999.695 999.695 999.695 999.695 999.695
          999.695 999.695 999.695 999.695 999.695 999.695 999.695 999.695 999.695 999.695 999.695 999.695
          999.695 999.695 999.695 999.695 999.695 999.695 999.695 999.695 999.695 999.695 999.695 999.695
          999.695 999.695 999.695 999.695 999.695 999.695 999.695 999.695 999.695 999.695 999.695 999.695
          999.695 999.695 999.695 999.695 999.695 999.695 999.695 999.695 999.695 999.695 999.695 999.695
          999.695 999.695 999.695 999.695 999.695 999.695 999.695 999.695 999.695 999.695 999.695 999.695
          999.695 999.695 999.695 999.695 999.695 999.695 999.695 999.695 999.695 999.695 999.695 999.695
          999.695 999.695 999.695 999.695 999.695 999.695 999.695 999.695 999.695 999.695 999.695 999.695
          999.695 999.695 999.695 999.695 999.695 999.695 999.695 999.695 999.695 999.695 999.695 999.695
          999.695 999.695 999.695 999.695 999.695 999.695 999.695 999.695 999.695 999.695 999.695 999.695
          999.695 999.695 999.695 999.695 999.695 999.695 999.695 999.695 999.695 999.695 999.695 999.695
          999.695 999.695 999.695 999.695 999.695 999.695 999.695 999.695 999.695 999.695 999.695 999.695
          999.695 999.695 999.695 999.695 999.695 999.695 999.695 999.695 999.695 999.695 999.695 999.695
          999.695 999.695 999.695 999.695 999.695 999.695 999.695 999.695 999.695 999.695 999.695 999.695
          999.695 999.695 999.695 999.695 999.695 999.695 999.695 999.695 999.695 999.695 999.695 999.695
          999.695 999.695 999.695 999.695 999.695 999.695 999.695 999.695
        </DataArray>
        <DataArray type="Float32" Name="rho_napl" NumberOfComponents="1" format="ascii">
          878.771 878.771 878.771 878.771 878.771 878.771 878.771 878.771 878.771 878.771 878.771 878.771
          878.771 878.771 878.771 878.771 878.771 878.771 878.771 878.771 878.771 878.771 878.771 878.771
          878.771 878.771 878.771 878.771 878.771 878.771 878.771 878.771 878.771 878.771 878.771 878.771
          878.771 878.771 878.771 878.771 878.771 878.771 878.771 878.771 878.771 878.771 878.771 878.771
          878.771 878.771 878.771 878.771 878.771 878.771 878.771 878.771 878.771 878.771 878.771 878.771
          878.771 878.771 878.771 878.771 878.771 878.771 878.771 878.771 878.771 878.771 878.771 878.771
          878.771 878.771 878.771 878.771 878.771 878.771 878.771 878.771 878.771 878.771 878.771 878.771
          878.771 878.771 878.771 878.771 878.771 878.771 878.771 878.771 878.771 878.771 878.771 878.771
          878.771 878.771 878.771 878.771 878.771 878.771 878.771 878.771 878.771 878.771 878.771 878.771
          878.771 878.771 878.771 878.771 878.771 878.771 878.771 878.771 878.771 878.771 878.771 878.771
          878.771 878.771 878.771 878.771 878.771 878.771 878.771 878.771 878.771 878.771 878.771 878.771
          878.771 878.771 878.771 878.771 878.771 878.771 878.771 878.771 878.771 878.771 878.771 878.771
          878.771 878.771 878.771 878.771 878.771 878.771 878.771 878.771 878.771 878.771 878.771 878.771
          878.771 878.771 878.771 878.771 878.771 878.771 878.771 878.771 878.771 878.771 878.771 878.771
          878.771 878.771 878.771 878.771 878.771 878.771 878.771 878.771 878.771 878.771 878.771 878.771
          878.771 878.771 878.771 878.771 878.771 878.771 878.771 878.771 878.771 878.771 878.771 878.771
          878.771 878.771 878.771 878.771 878.771 878.771 878.771 878.771 878.771 878.771 878.771 878.771
          878.771 878.771 878.771 878.771 878.771 878.771 878.771 878.771 878.771 878.771 878.771 878.771
          878.771 878.771 878.771 878.771 878.771 878.771 878.771 878.771 878.771 878.771 878.771 878.771
          878.771 878.771 878.771 878.771 878.771 878.771 878.771 878.771 878.771 878.771 878.771 878.771
          878.771 878.771 878.771 878.771 878.771 878.771 878.771 878.771 878.771 878.771 878.771 878.771
          878.771 878.771 878.771 878.771 878.771 878.771 878.771 878.771 878.771 878.771 878.771 878.771
          878.771 878.771 878.771 878.771 878.771 878.771 878.771 878.771 878.771 878.771 878.771 878.771
          878.771 878.771 878.771 878.771 878.771 878.771 878.771 878.771 878.771 878.771 878.771 878.771
          878.771 878.771 878.771 878.771 878.771 878.771 878.771 878.771 878.771 878.771 878.771 878.771
          878.771 878.771 878.771 878.771 878.771 878.771 878.771 878.771 878.771 878.771 878.771 878.771
          878.771 878.771 878.771 878.771 878.771 878.771 878.771 878.771 878.771 878.771 878.771 878.771
          878.771 878.771 878.771 878.771 878.771 878.771 878.771 878.771 878.771 878.771 878.771 878.771
          878.771 878.771 878.771 878.771 878.771 878.771 878.771 878.771 878.771 878.771 878.771 878.771
          878.771 878.771 878.771 878.771 878.771 878.771 878.771 878.771 878.771 878.771 878.771 878.771
          878.771 878.771 878.771 878.771 878.771 878.771 878.771 878.771 878.771 878.771 878.771 878.771
          878.771 878.771 878.771 878.771 878.771 878.771 878.771 878.771 878.771 878.771 878.771 878.771
          878.771 878.771 878.771 878.771 878.771 878.771 878.771 878.771 878.771 878.771 878.771 878.771