<?xml version="1.0"?>
<VTKFile type="UnstructuredGrid" version="0.1" byte_order="LittleEndian">
  <UnstructuredGrid>
    <Piece NumberOfCells="160" NumberOfPoints="205">
      <PointData Scalars="Sw">
        <DataArray type="Float32" Name="Sw" NumberOfComponents="1" format="ascii">
          0.97 0.999561 0.97 0.999208 0.999993 0.999978 0.999993 0.999978 0.999992 0.999976 0.999997 0.999987
          0.999997 0.999987 0.999992 0.999975 0.999992 0.999979 0.999992 0.999978 0.999992 0.999978 0.999992 0.999978
          0.999992 0.999978 0.999992 0.999978 0.999992 0.999978 0.999992 0.999979 0.999992 0.999978 0.999992 0.999978
          0.999992 0.999978 0.999992 0.999978 0.999992 0.999978 0.999992 0.999978 0.999992 0.999978 0.999992 0.999977
          0.999992 0.999977 0.999992 0.999977 0.999992 0.999978 0.999992 0.999978 0.999992 0.999978 0.999992 0.999978
          0.999992 0.999978 0.999992 0.999978 0.999993 0.999978 0.999993 0.999978 0.999993 0.999979 0.999994 0.99998
          0.999995 0.999981 0.999996 0.999985 1 0.99999 1 1 0.97 0.97 0.97 0.943169
          0.933587 0.926637 0.918649 0.933384 0.933197 0.917727 0.923705 0.924557 0.924847 0.92489 0.924828 0.924568
          0.923744 0.921509 0.916172 0.907961 0.897624 0.88549 0.871567 0.856033 0.838973 0.820441 0.800514 0.77946
          0.757363 0.734105 0.710443 0.686069 0.661536 0.636957 0.61241 0.587972 0.56424 0.540918 0.517845 0.494711
          0.471365 0.446698 0.482422 0.12 0.12 0.12 0.12 0.12 0.120001 0.120001 0.12 0.12
          0.12 0.12 0.12 0.12 0.12 0.12 0.12 0.12 0.12 0.12 0.12 0.12
          0.12 0.12 0.12 0.12 0.12 0.12 0.12 0.12 0.12 0.12 0.12 0.12
          0.12 0.12 0.12 0.12 0.12 0.12 0.12 0.12 0.12 0.12 0.12 0.12
          0.12 0.120001 0.120001 0.12 0.12 0.12 0.12 0.12 0.12 0.12 0.12 0.12
          0.12 0.12 0.12 0.12 0.12 0.12 0.12 0.12 0.12 0.12 0.12 0.12
          0.12 0.12 0.12 0.12 0.12 0.12 0.12 0.12 0.12 0.12 0.12 0.12
          0.12
        </DataArray>
        <DataArray type="Float32" Name="Sn" NumberOfComponents="1" format="ascii">
          0 0 0 0 0 0 0 0 0 0 0 0
          0 0 0 0 0 0 0 0 0 0 0 0
          0 0 0 0 0 0 0 0 0 0 0 0
          0 0 0 0 0 0 0 0 0 0 0 0
          0 0 0 0 0 0 0 0 0 0 0 0
          0 0 0 0 0 0 0 0 0 0 0 0
          0 0 0 0 0 0 0 0 0 0 0 0
          0 0 0 0.000529992 0.000529997 0 0 0 0 0 0 0
          0 0 0 0 0 0 0 0 0 0 0 0
          0 0 0 0 0 0 0 0 0 0 0 0
          0 0 0 0 0 0 0 0 0.0495115 0.0495107 0 0
          0 0 0 0 0 0 0 0 0 0 0 0
          0 0 0 0 0 0 0 0 0 0 0 0
          0 0 0 0 0 0 0 0 0 0 0 0
          0.000544388 0.135241 0.135241 0.000543345 0 0 0 0 0 0 0 0
          0 0 0 0 0 0 0 0 0 0 0 0
          0 0 0 0 0 0 0 0 0 0 0 0
          0
        </DataArray>
        <DataArray type="Float32" Name="Sg" NumberOfComponents="1" format="ascii">
          0.03 0.000438518 0.03 0.00079195 6.96404e-06 2.20087e-05 7.42215e-06 2.15741e-05 8.1681e-06 2.44722e-05 2.83244e-06 1.32606e-05
          2.90495e-06 1.33426e-05 8.478e-06 2.47721e-05 7.59698e-06 2.14584e-05 7.67877e-06 2.16426e-05 7.86813e-06 2.20039e-05 7.92699e-06 2.21181e-05
          7.9556e-06 2.21612e-05 7.9366e-06 2.20986e-05 7.82874e-06 2.18393e-05 7.6242e-06 2.13585e-05 7.70987e-06 2.15757e-05 7.87539e-06 2.19812e-05
          7.95805e-06 2.22002e-05 7.98384e-06 2.22943e-05 8.01208e-06 2.24e-05 8.01892e-06 2.24604e-05 8.00951e-06 2.2489e-05 7.99411e-06 2.25072e-05
          7.98083e-06 2.25349e-05 7.93914e-06 2.25035e-05 7.88555e-06 2.24457e-05 7.86281e-06 2.24669e-05 7.7832e-06 2.23564e-05 7.72421e-06 2.23042e-05
          7.63612e-06 2.21875e-05 7.52452e-06 2.20261e-05 7.39803e-06 2.18364e-05 7.23311e-06 2.15858e-05 6.94026e-06 2.10807e-05 6.43069e-06 2.01925e-05
          5.4636e-06 1.85414e-05 3.50524e-06 1.54206e-05 0 9.54498e-06 0 -7.16524e-07 0.03 0.03 0.03 0.0568306
          0.0664127 0.0733635 0.0813509 0.0660855 0.0662725 0.0822734 0.0762955 0.0754427 0.0751525 0.0751099 0.0751719 0.0754324
          0.0762559 0.078491 0.0838276 0.0920394 0.102376 0.11451 0.128433 0.143967 0.161027 0.179559 0.199486 0.22054
          0.242637 0.265895 0.289556 0.313931 0.338464 0.363043 0.38759 0.412028 0.43576 0.459082 0.482155 0.505289
          0.528635 0.553303 0.517578 0.88 0.88 0.88 0.88 0.88 0.830488 0.830489 0.88 0.88
          0.88 0.88 0.88 0.88 0.88 0.88 0.88 0.88 0.88 0.88 0.88 0.88
          0.88 0.88 0.88 0.88 0.88 0.88 0.88 0.88 0.88 0.88 0.88 0.88
          0.88 0.88 0.88 0.88 0.88 0.88 0.88 0.88 0.88 0.88 0.88 0.88
          0.879455 0.744758 0.744759 0.879456 0.88 0.88 0.88 0.88 0.88 0.88 0.88 0.88
          0.88 0.88 0.88 0.88 0.88 0.88 0.88 0.88 0.88 0.88 0.88 0.88
          0.88 0.88 0.88 0.88 0.88 0.88 0.88 0.88 0.88 0.88 0.88 0.88
          0.88
        </DataArray>
        <DataArray type="Float32" Name="pw" NumberOfComponents="1" format="ascii">
          148117 147998 123592 123479 147936 123417 147905 123387 147886 123365 147940 123423
          147940 123423 147885 123364 147895 123377 147899 123381 147898 123380 147896 123378
          147893 123375 147890 123371 147883 123365 147871 123352 147846 123328 147812 123293
          147771 123252 147726 123207 147677 123159 147626 123108 147573 123055 147518 123000
          147462 122943 147404 122886 147345 122827 147285 122767 147224 122706 147162 122644
          147099 122581 147036 122518 146972 122453 146906 122388 146839 122320 146766 122248
          146682 122164 146571 122054 146405 121888 146133 121620 145665 121140 99067.1 98960.5
          98896.4 98869.5 98839.1 98911.9 98912 98838.6 98861.5 98862.9 98861.8 98859.6 98857 98853.5
          98847.5 98835.6 98810.9 98775.9 98734.8 98689.6 98641 98590 98536.9 98482.1 98425.6 98368.1
          98309.4 98248.9 98188.2 98126 98063.4 98000.2 97936.1 97871 97806 97740.2 97672.8 97603.2
          97530.1 97458.7 97546.8 87622.4 87636.6 87641.5 87646.2 87650.9 83984.2 83985.3 87654.1 87651.4
          87649 87646.7 87644.3 87642 87639.6 87637.3 87635 87632.8 87630.6 87628.6 87626.5 87624.6
          87622.6 87620.8 87619 87617.3 87615.7 87614.2 87612.8 87611.5 87610.4 87609.5 87608.6 87608
          87607.5 87607.3 87607.3 87607.8 87609.4 87613 87620 87622.4 87622.4 87602 87612.1 87616.1
          87620.7 83971.2 83972.2 87624 87621.4 87619 87616.7 87614.3 87611.9 87609.6 87607.2 87605
          87602.7 87600.6 87598.5 87596.5 87594.5 87592.6 87590.8 87589 87587.3 87585.7 87584.2 87582.8
          87581.5 87580.4 87579.4 87578.6 87578 87577.5 87577.3 87577.3 87577.8 87579.3 87583.7 87585.5
          87622.4
        </DataArray>
        <DataArray type="Float32" Name="pn" NumberOfComponents="1" format="ascii">
          148117 147998 123592 123479 147936 123417 147905 123387 147886 123365 147940 123423
          147940 123423 147885 123364 147895 123377 147899 123381 147898 123380 147896 123378
          147893 123375 147890 123371 147883 123365 147871 123352 147846 123328 147812 123293
          147771 123252 147726 123207 147677 123159 147626 123108 147573 123055 147518 123000
          147462 122943 147404 122886 147345 122827 147285 122767 147224 122706 147162 122644
          147099 122581 147036 122518 146972 122453 146906 122388 146839 122320 146766 122248
          146682 122164 146571 122054 146405 121888 146133 121620 145665 121140 99067.1 98960.5
          98896.4 98869.5 98839.1 98911.9 98912 98838.6 98861.5 98862.9 98861.8 98859.6 98857 98853.5
          98847.5 98835.6 98810.9 98775.9 98734.8 98689.6 98641 98590 98536.9 98482.1 98425.6 98368.1
          98309.4 98248.9 98188.2 98126 98063.4 98000.2 97936.1 97871 97806 97740.2 97672.8 97603.2
          97530.1 97458.7 97546.8 87622.4 87636.6 87641.5 87646.2 87650.9 92738.8 92739.7 87654.1 87651.4
          87649 87646.7 87644.3 87642 87639.6 87637.3 87635 87632.8 87630.6 87628.6 87626.5 87624.6
          87622.6 87620.8 87619 87617.3 87615.7 87614.2 87612.8 87611.5 87610.4 87609.5 87608.6 87608
          87607.5 87607.3 87607.3 87607.8 87609.4 87613 87620 87622.4 87622.4 87602 87612.1 87616.1
          87620.7 96348.5 96349.6 87624 87621.4 87619 87616.7 87614.3 87611.9 87609.6 87607.2 87605
          87602.7 87600.6 87598.5 87596.5 87594.5 87592.6 87590.8 87589 87587.3 87585.7 87584.2 87582.8
          87581.5 87580.4 87579.4 87578.6 87578 87577.5 87577.3 87577.3 87577.8 87579.3 87583.7 87585.5
          87622.4
        </DataArray>
        <DataArray type="Float32" Name="pg" NumberOfComponents="1" format="ascii">
          149050 148515 124525 124004 148446 123927 148414 123896 148395 123875 148449 123932
          148449 123933 148394 123874 148404 123887 148409 123890 148408 123889 148405 123887
          148403 123885 148399 123881 148393 123875 148380 123862 148356 123838 148321 123803
          148280 123762 148235 123717 148186 123668 148135 123617 148082 123564 148028 123509
          147971 123453 147914 123395 147855 123337 147794 123276 147734 123215 147672 123153
          147609 123091 147545 123027 147481 122963 147416 122897 147348 122830 147276 122758
          147191 122674 147080 122563 146914 122398 146642 122129 146598 122072 100000 100065
          100049 100054 100058 100065 100066 100062 100059 100057 100054 100052 100050 100047
          100045 100043 100040 100038 100036 100034 100032 100030 100028 100027 100025 100023
          100022 100020 100019 100018 100017 100016 100016 100015 100015 100015 100015 100017
          100020 100034 100000 100000 100014 100019 100024 100028 100033 100034 100032 100029
          100027 100024 100022 100020 100017 100015 100013 100010 100008 100006 100004 100002
          100000 99998.4 99996.6 99994.9 99993.2 99991.8 99990.4 99989.1 99988 99987 99986.2 99985.6
          99985.1 99984.8 99984.9 99985.4 99987 99990.6 99997.6 100000 100000 99979.5 99989.7 99993.6
          99998.2 100003 100004 100001 99999 99996.6 99994.2 99991.9 99989.5 99987.2 99984.8 99982.5
          99980.3 99978.2 99976.1 99974.1 99972.1 99970.2 99968.3 99966.5 99964.8 99963.2 99961.7 99960.3
          99959.1 99958 99957 99956.2 99955.6 99955.1 99954.8 99954.9 99955.4 99956.9 99961.3 99963.1
          100000
        </DataArray>
        <DataArray type="Float32" Name="rhow" NumberOfComponents="1" format="ascii">
          999.741 999.741 999.726 999.726 999.741 999.726 999.741 999.726 999.74 999.726 999.741 999.726
          999.741 999.726 999.74 999.726 999.741 999.726 999.741 999.726 999.741 999.726 999.741 999.726
          999.741 999.726 999.74 999.726 999.74 999.726 999.74 999.726 999.74 999.726 999.74 999.726
          999.74 999.726 999.74 999.726 999.74 999.726 999.74 999.726 999.74 999.726 999.74 999.726
          999.74 999.726 999.74 999.726 999.74 999.726 999.74 999.726 999.74 999.726 999.74 999.726
          999.74 999.726 999.74 999.726 999.74 999.726 999.74 999.725 999.74 999.725 999.74 999.725
          999.74 999.725 999.74 999.725 999.74 999.725 999.739 999.725 999.739 999.725 999.712 999.712
          999.712 999.712 999.712 999.731 999.731 999.712 999.712 999.712 999.712 999.712 999.712 999.712
          999.712 999.712 999.712 999.712 999.712 999.712 999.712 999.712 999.711 999.711 999.711 999.711
          999.711 999.711 999.711 999.711 999.711 999.711 999.711 999.711 999.711 999.711 999.711 999.711
          999.711 999.711 999.711 999.706 999.706 999.706 999.707 999.724 999.724 999.724 999.721 999.706
          999.706 999.706 999.706 999.706 999.706 999.706 999.706 999.706 999.706 999.706 999.706 999.706
          999.706 999.706 999.706 999.706 999.706 999.706 999.706 999.706 999.706 999.706 999.706 999.706
          999.706 999.706 999.706 999.706 999.706 999.706 999.706 999.706 999.706 999.706 999.706 999.708
          999.726 999.724 999.724 999.726 999.707 999.706 999.706 999.706 999.706 999.706 999.706 999.706
          999.706 999.706 999.706 999.706 999.706 999.706 999.706 999.706 999.706 999.706 999.706 999.706
          999.706 999.706 999.706 999.706 999.706 999.706 999.706 999.706 999.706 999.706 999.706 999.706
          999.706
        </DataArray>
        <DataArray type="Float32" Name="rhon" NumberOfComponents="1" format="ascii">
          878.771 878.771 878.771 878.771 878.771 878.771 878.771 878.771 878.771 878.771 878.771 878.771
          878.771 878.771 878.771 878.771 878.771 878.771 878.771 878.771 878.771 878.771 878.771 878.771
          878.771 878.771 878.771 878.771 878.771 878.771 878.771 878.771 878.771 878.771 878.771 878.771
          878.771 878.771 878.771 878.771 878.771 878.771 878.771 878.771 878.771 878.771 878.771 878.771
          878.771 878.771 878.771 878.771 878.771 878.771 878.771 878.771 878.771 878.771 878.771 878.771
          878.771 878.771 878.771 878.771 878.771 878.771 878.771 878.771 878.771 878.771 878.771 878.771
          878.771 878.771 878.771 878.771 878.771 878.771 878.771 878.771 878.771 878.771 878.771 878.771
          878.771 878.771 878.771 878.771 878.771 878.771 878.771 878.771 878.771 878.771 878.771 878.771
          878.771 878.771 878.771 878.771 878.771 878.771 878.771 878.771 878.771 878.771 878.771 878.771
          878.771 878.771 878.771 878.771 878.771 878.771 878.771 878.771 878.771 878.771 878.771 878.771
          878.771 878.771 878.771 878.771 878.771 878.771 878.771 878.771 878.771 878.771 878.771 878.771
          878.771 878.771 878.771 878.771 878.771 878.771 878.771 878.771 878.771 878.771 878.771 878.771
          878.771 878.771 878.771 878.771 878.771 878.771 878.771 878.771 878.771 878.771 878.771 878.771
          878.771 878.771 878.771 878.771 878.771 878.771 878.771 878.771 878.771 878.771 878.771 878.771
          878.771 878.771 878.771 878.771 878.771 878.771 878.771 878.771 878.771 878.771 878.771 878.771
          878.771 878.771 878.771 878.771 878.771 878.771 878.771 878.771 878.771 878.771 878.771 878.771
          878.771 878.771 878.771 878.771 878.771 878.771 878.771 878.771 878.771 878.771 878.771 878.771
          878.771
        </DataArray>
        <DataArray type="Float32" Name="rhog" NumberOfComponents="1" format="ascii">
          1.8278 1.82122 1.52611 1.5197 1.82036 1.51875 1.81998 1.51837 1.81974 1.51811 1.82041 1.51884
          1.82041 1.51884 1.81973 1.5181 1.81986 1.51826 1.81991 1.5183 1.81989 1.51829 1.81987 1.51826
          1.81984 1.51823 1.81979 1.51819 1.81971 1.51811 1.81955 1.51795 1.81925 1.51765 1.81883 1.51723
          1.81833 1.51672 1.81777 1.51617 1.81717 1.51557 1.81655 1.51494 1.8159 1.51429 1.81522 1.51362
          1.81453 1.51292 1.81382 1.51221 1.81309 1.51149 1.81235 1.51075 1.8116 1.51 1.81084 1.50924
          1.81007 1.50847 1.80929 1.50769 1.8085 1.50689 1.80769 1.50609 1.80686 1.50526 1.80597 1.50437
          1.80493 1.50334 1.80357 1.50198 1.80139 1.49994 1.79696 1.49664 1.79763 1.49594 1.22442 1.22522
          1.22502 1.22509 1.22515 1.22958 1.22959 1.22519 1.22515 1.22512 1.22509 1.22506 1.22503 1.225
          1.22497 1.22495 1.22492 1.22489 1.22487 1.22484 1.22482 1.22479 1.22477 1.22475 1.22473 1.22471
          1.22469 1.22467 1.22466 1.22464 1.22463 1.22462 1.22461 1.22461 1.2246 1.2246 1.22461 1.22463
          1.22466 1.22484 1.22442 1.22442 1.2246 1.22466 1.22486 1.22877 1.22918 1.2292 1.22825 1.22482
          1.22475 1.22472 1.22469 1.22466 1.22463 1.2246 1.22458 1.22455 1.22452 1.2245 1.22447 1.22445
          1.22442 1.2244 1.22438 1.22436 1.22434 1.22432 1.2243 1.22429 1.22427 1.22426 1.22425 1.22424
          1.22424 1.22424 1.22424 1.22424 1.22426 1.22431 1.22439 1.22442 1.22442 1.22417 1.22432 1.22473
          1.22875 1.22881 1.22882 1.22879 1.22451 1.22438 1.22435 1.22432 1.22429 1.22426 1.22424 1.22421
          1.22418 1.22415 1.22413 1.2241 1.22408 1.22406 1.22403 1.22401 1.22399 1.22397 1.22395 1.22393
          1.22392 1.2239 1.22389 1.22388 1.22388 1.22387 1.22387 1.22387 1.22387 1.22389 1.22395 1.22397
          1.22442
        </DataArray>
        <DataArray type="Float32" Name="x^H2O_w" NumberOfComponents="1" format="ascii">
          0.999973 0.999973 0.999977 0.999977 0.999973 0.999977 0.999973 0.999977 0.999973 0.999977 0.999973 0.999977
          0.999973 0.999977 0.999973 0.999977 0.999973 0.999977 0.999973 0.999977 0.999973 0.999977 0.999973 0.999977
          0.999973 0.999977 0.999973 0.999977 0.999973 0.999977 0.999973 0.999977 0.999973 0.999977 0.999973 0.999977
          0.999973 0.999977 0.999973 0.999977 0.999973 0.999977 0.999973 0.999977 0.999973 0.999977 0.999973 0.999977
          0.999973 0.999977 0.999973 0.999977 0.999973 0.999978 0.999973 0.999978 0.999973 0.999978 0.999973 0.999978
          0.999973 0.999978 0.999973 0.999978 0.999973 0.999978 0.999973 0.999978 0.999973 0.999978 0.999973 0.999978
          0.999973 0.999978 0.999973 0.999978 0.999973 0.999978 0.999973 0.999978 0.999973 0.999978 0.999982 0.999982
          0.999982 0.999982 0.999982 0.999978 0.999978 0.999982 0.999982 0.999982 0.999982 0.999982 0.999982 0.999982
          0.999982 0.999982 0.999982 0.999982 0.999982 0.999982 0.999982 0.999982 0.999982 0.999982 0.999982 0.999982
          0.999982 0.999982 0.999982 0.999982 0.999982 0.999982 0.999982 0.999982 0.999982 0.999982 0.999982 0.999982
          0.999982 0.999982 0.999982 0.999982 0.999982 0.999982 0.999982 0.999979 0.999978 0.999978 0.999979 0.999982
          0.999982 0.999982 0.999982 0.999982 0.999982 0.999982 0.999982 0.999982 0.999982 0.999982 0.999982 0.999982
          0.999982 0.999982 0.999982 0.999982 0.999982 0.999982 0.999982 0.999982 0.999982 0.999982 0.999982 0.999982
          0.999982 0.999982 0.999982 0.999982 0.999982 0.999982 0.999982 0.999982 0.999982 0.999982 0.999982 0.999982
          0.999978 0.999978 0.999978 0.999978 0.999982 0.999982 0.999982 0.999982 0.999982 0.999982 0.999982 0.999982
          0.999982 0.999982 0.999982 0.999982 0.999982 0.999982 0.999982 0.999982 0.999982 0.999982 0.999982 0.999982
          0.999982 0.999982 0.999982 0.999982 0.999982 0.999982 0.999982 0.999982 0.999982 0.999982 0.999982 0.999982
          0.999982
        </DataArray>
        <DataArray type="Float32" Name="x^mesitylene_w" NumberOfComponents="1" format="ascii">
          4.50629e-09 4.48506e-09 3.76482e-09 3.73729e-09 4.48034e-09 3.73102e-09 4.47791e-09 3.72757e-09 4.47598e-09 3.748e-09 4.49209e-09 1.57228e-08
          4.49104e-09 1.5949e-08 4.47047e-09 3.74313e-09 4.46819e-09 3.71767e-09 4.46655e-09 3.71616e-09 4.46487e-09 3.71459e-09 4.46306e-09 3.71287e-09
          4.46121e-09 3.71109e-09 4.45929e-09 3.70921e-09 4.45714e-09 3.70704e-09 4.45455e-09 3.70423e-09 4.45303e-09 3.70293e-09 4.45164e-09 3.70178e-09
          4.44994e-09 3.70021e-09 4.44812e-09 3.69847e-09 4.44634e-09 3.6968e-09 4.44451e-09 3.69506e-09 4.44266e-09 3.69329e-09 4.4408e-09 3.69152e-09
          4.43896e-09 3.68978e-09 4.43707e-09 3.68796e-09 4.43515e-09 3.68611e-09 4.43334e-09 3.68441e-09 4.43137e-09 3.6825e-09 4.42949e-09 3.68071e-09
          4.42755e-09 3.67884e-09 4.42557e-09 3.67694e-09 4.4236e-09 3.67504e-09 4.42165e-09 3.67319e-09 4.41958e-09 3.67116e-09 4.41744e-09 3.66907e-09
          4.41518e-09 3.66681e-09 4.41267e-09 3.66419e-09 4.4094e-09 3.66086e-09 4.40508e-09 3.65615e-09 4.43214e-09 3.69067e-09 3.02334e-09 3.02681e-09
          3.03277e-09 3.02436e-09 1.02975e-08 3.40605e-06 3.40605e-06 9.73631e-09 3.02922e-09 3.02295e-09 3.0229e-09 3.02287e-09 3.02284e-09 3.02282e-09
          3.02279e-09 3.02276e-09 3.02275e-09 3.02275e-09 3.02274e-09 3.02274e-09 3.02273e-09 3.02273e-09 3.02273e-09 3.02274e-09 3.02274e-09 3.02276e-09
          3.02277e-09 3.0228e-09 3.02283e-09 3.02287e-09 3.02293e-09 3.023e-09 3.0231e-09 3.02324e-09 3.0234e-09 3.0236e-09 3.02384e-09 3.02409e-09
          3.02428e-09 3.02478e-09 3.02334e-09 3.02334e-09 3.62765e-09 9.88963e-09 1.14382e-07 3.12771e-06 3.40605e-06 3.40605e-06 2.68867e-06 3.31102e-08
          3.36144e-09 3.02758e-09 3.02373e-09 3.02363e-09 3.02359e-09 3.02354e-09 3.0235e-09 3.02345e-09 3.02341e-09 3.02337e-09 3.02333e-09 3.02329e-09
          3.02326e-09 3.02322e-09 3.02319e-09 3.02316e-09 3.02314e-09 3.02311e-09 3.02309e-09 3.02307e-09 3.02306e-09 3.02304e-09 3.02304e-09 3.02303e-09
          3.02303e-09 3.02302e-09 3.02302e-09 3.02301e-09 3.02301e-09 3.02308e-09 3.02338e-09 3.02334e-09 3.02334e-09 4.14611e-09 1.93962e-08 3.03001e-07
          3.40605e-06 3.40605e-06 3.40605e-06 3.40605e-06 7.98526e-08 4.22995e-09 3.03946e-09 3.02337e-09 3.02312e-09 3.02307e-09 3.02303e-09 3.02298e-09
          3.02294e-09 3.02289e-09 3.02285e-09 3.02281e-09 3.02277e-09 3.02273e-09 3.0227e-09 3.02266e-09 3.02263e-09 3.0226e-09 3.02256e-09 3.02254e-09
          3.02251e-09 3.02249e-09 3.02247e-09 3.02245e-09 3.02244e-09 3.02243e-09 3.02243e-09 3.02243e-09 3.02244e-09 3.02245e-09 3.02245e-09 3.02231e-09
          3.02334e-09
        </DataArray>
        <DataArray type="Float32" Name="x^Air_w" NumberOfComponents="1" format="ascii">
          2.72214e-05 2.71229e-05 2.27051e-05 2.26092e-05 2.71101e-05 2.25949e-05 2.71043e-05 2.25893e-05 2.71008e-05 2.25853e-05 2.71107e-05 2.25959e-05
          2.71107e-05 2.25959e-05 2.71006e-05 2.25852e-05 2.71025e-05 2.25876e-05 2.71033e-05 2.25882e-05 2.71031e-05 2.25881e-05 2.71027e-05 2.25877e-05
          2.71022e-05 2.25872e-05 2.71015e-05 2.25865e-05 2.71003e-05 2.25853e-05 2.7098e-05 2.2583e-05 2.70935e-05 2.25785e-05 2.70871e-05 2.25721e-05
          2.70796e-05 2.25646e-05 2.70713e-05 2.25563e-05 2.70624e-05 2.25474e-05 2.7053e-05 2.2538e-05 2.70432e-05 2.25282e-05 2.70331e-05 2.25181e-05
          2.70227e-05 2.25077e-05 2.70121e-05 2.24971e-05 2.70013e-05 2.24863e-05 2.69902e-05 2.24752e-05 2.6979e-05 2.24639e-05 2.69675e-05 2.24525e-05
          2.6956e-05 2.2441e-05 2.69443e-05 2.24293e-05 2.69325e-05 2.24174e-05 2.69204e-05 2.24054e-05 2.6908e-05 2.2393e-05 2.68947e-05 2.23797e-05
          2.68791e-05 2.23642e-05 2.68587e-05 2.23438e-05 2.6826e-05 2.23134e-05 2.67598e-05 2.2264e-05 2.67698e-05 2.22535e-05 1.81888e-05 1.82008e-05
          1.81978e-05 1.81988e-05 1.81995e-05 1.81802e-05 1.81803e-05 1.82001e-05 1.81997e-05 1.81993e-05 1.81988e-05 1.81984e-05 1.8198e-05 1.81975e-05
          1.81971e-05 1.81967e-05 1.81963e-05 1.81959e-05 1.81955e-05 1.81951e-05 1.81948e-05 1.81944e-05 1.81941e-05 1.81937e-05 1.81934e-05 1.81931e-05
          1.81928e-05 1.81926e-05 1.81924e-05 1.81921e-05 1.8192e-05 1.81918e-05 1.81917e-05 1.81916e-05 1.81916e-05 1.81916e-05 1.81917e-05 1.8192e-05
          1.81925e-05 1.8195e-05 1.81888e-05 1.81888e-05 1.81914e-05 1.81923e-05 1.81925e-05 1.8175e-05 1.81742e-05 1.81744e-05 1.81783e-05 1.8194e-05
          1.81937e-05 1.81933e-05 1.81929e-05 1.81924e-05 1.8192e-05 1.81916e-05 1.81911e-05 1.81907e-05 1.81903e-05 1.819e-05 1.81896e-05 1.81892e-05
          1.81889e-05 1.81885e-05 1.81882e-05 1.81879e-05 1.81876e-05 1.81873e-05 1.81871e-05 1.81868e-05 1.81866e-05 1.81864e-05 1.81863e-05 1.81862e-05
          1.81861e-05 1.8186e-05 1.8186e-05 1.81861e-05 1.81864e-05 1.81871e-05 1.81884e-05 1.81888e-05 1.81888e-05 1.81851e-05 1.81868e-05 1.81858e-05
          1.81678e-05 1.81687e-05 1.81689e-05 1.81684e-05 1.81882e-05 1.81882e-05 1.81878e-05 1.81873e-05 1.81869e-05 1.81865e-05 1.8186e-05 1.81856e-05
          1.81852e-05 1.81848e-05 1.81844e-05 1.81841e-05 1.81837e-05 1.81833e-05 1.8183e-05 1.81827e-05 1.81824e-05 1.81821e-05 1.81818e-05 1.81815e-05
          1.81813e-05 1.81811e-05 1.81809e-05 1.81808e-05 1.81806e-05 1.81806e-05 1.81805e-05 1.81805e-05 1.81806e-05 1.81809e-05 1.81817e-05 1.8182e-05
          1.81888e-05
        </DataArray>
        <DataArray type="Float32" Name="x^H2O_n" NumberOfComponents="1" format="ascii">
          1e-10 1e-10 1e-10 1e-10 1e-10 1e-10 1e-10 1e-10 1e-10 1e-10 1e-10 1e-10
          1e-10 1e-10 1e-10 1e-10 1e-10 1e-10 1e-10 1e-10 1e-10 1e-10 1e-10 1e-10
          1e-10 1e-10 1e-10 1e-10 1e-10 1e-10 1e-10 1e-10 1e-10 1e-10 1e-10 1e-10
          1e-10 1e-10 1e-10 1e-10 1e-10 1e-10 1e-10 1e-10 1e-10 1e-10 1e-10 1e-10
          1e-10 1e-10 1e-10 1e-10 1e-10 1e-10 1e-10 1e-10 1e-10 1e-10 1e-10 1e-10
          1e-10 1e-10 1e-10 1e-10 1e-10 1e-10 1e-10 1e-10 1e-10 1e-10 1e-10 1e-10
          1e-10 1e-10 1e-10 1e-10 1e-10 1e-10 1e-10 1e-10 1e-10 1e-10 1e-10 1e-10
          1e-10 1e-10 1e-10 1e-10 1e-10 1e-10 1e-10 1e-10 1e-10 1e-10 1e-10 1e-10
          1e-10 1e-10 1e-10 1e-10 1e-10 1e-10 1e-10 1e-10 1e-10 1e-10 1e-10 1e-10
          1e-10 1e-10 1e-10 1e-10 1e-10 1e-10 1e-10 1e-10 1e-10 1e-10 1e-10 1e-10
          1e-10 1e-10 1e-10 1e-10 1e-10 1e-10 1e-10 1e-10 1e-10 1e-10 1e-10 1e-10
          1e-10 1e-10 1e-10 1e-10 1e-10 1e-10 1e-10 1e-10 1e-10 1e-10 1e-10 1e-10
          1e-10 1e-10 1e-10 1e-10 1e-10 1e-10 1e-10 1e-10 1e-10 1e-10 1e-10 1e-10
          1e-10 1e-10 1e-10 1e-10 1e-10 1e-10 1e-10 1e-10 1e-10 1e-10 1e-10 1e-10
          1e-10 1e-10 1e-10 1e-10 1e-10 1e-10 1e-10 1e-10 1e-10 1e-10 1e-10 1e-10
          1e-10 1e-10 1e-10 1e-10 1e-10 1e-10 1e-10 1e-10 1e-10 1e-10 1e-10 1e-10
          1e-10 1e-10 1e-10 1e-10 1e-10 1e-10 1e-10 1e-10 1e-10 1e-10 1e-10 1e-10
          1e-10
        </DataArray>
        <DataArray type="Float32" Name="x^mesitylene_n" NumberOfComponents="1" format="ascii">
          0.00132302 0.00131679 0.00110533 0.00109725 0.00131541 0.00109541 0.00131469 0.0010944 0.00131412 0.00110039 0.00131886 0.00461614
          0.00131855 0.00468255 0.00131251 0.00109897 0.00131184 0.00109149 0.00131136 0.00109105 0.00131086 0.00109059 0.00131033 0.00109008
          0.00130979 0.00108956 0.00130923 0.00108901 0.00130859 0.00108837 0.00130783 0.00108754 0.00130739 0.00108716 0.00130698 0.00108682
          0.00130648 0.00108636 0.00130594 0.00108585 0.00130542 0.00108536 0.00130489 0.00108485 0.00130434 0.00108433 0.0013038 0.00108381
          0.00130326 0.0010833 0.0013027 0.00108277 0.00130214 0.00108222 0.00130161 0.00108172 0.00130103 0.00108116 0.00130048 0.00108064
          0.00129991 0.00108009 0.00129933 0.00107953 0.00129875 0.00107897 0.00129817 0.00107843 0.00129757 0.00107784 0.00129694 0.00107722
          0.00129628 0.00107656 0.00129554 0.00107579 0.145845 0.00107481 0.145702 0.00107343 0.00130125 0.00108356 0.000887638 0.000888656
          0.000890407 0.000887938 0.0030233 1 1 0.00285853 0.000889362 0.000887523 0.000887507 0.000887499 0.000887492 0.000887484
          0.000887476 0.000887469 0.000887465 0.000887463 0.000887462 0.00088746 0.000887459 0.000887459 0.000887459 0.00088746 0.000887463 0.000887466
          0.00088747 0.000887477 0.000887487 0.000887499 0.000887516 0.000887539 0.000887568 0.000887607 0.000887655 0.000887715 0.000887785 0.000887857
          0.000887912 0.00088806 0.000887638 0.000887638 0.00106506 0.00290355 0.0335821 0.918279 1 1 0.78938 0.00972097
          0.000986902 0.000888882 0.000887751 0.000887724 0.000887709 0.000887696 0.000887684 0.00088767 0.000887657 0.000887646 0.000887634 0.000887624
          0.000887613 0.000887603 0.000887594 0.000887586 0.000887578 0.000887571 0.000887564 0.000887559 0.000887554 0.000887551 0.000887548 0.000887546
          0.000887545 0.000887544 0.000887543 0.00088754 0.000887541 0.00088756 0.000887648 0.000887638 0.000887638 0.00121728 0.00569463 0.0889594
          1 1 1 1 0.0234443 0.00124189 0.000892371 0.000887646 0.000887573 0.000887559 0.000887545 0.000887532
          0.000887519 0.000887507 0.000887494 0.000887483 0.000887471 0.00088746 0.000887449 0.000887438 0.000887428 0.000887419 0.00088741 0.000887402
          0.000887394 0.000887388 0.000887382 0.000887377 0.000887374 0.000887371 0.00088737 0.00088737 0.000887373 0.000887377 0.000887376 0.000887336
          0.000887638
        </DataArray>
        <DataArray type="Float32" Name="x^Air_n" NumberOfComponents="1" format="ascii">
          1e-10 1e-10 1e-10 1e-10 1e-10 1e-10 1e-10 1e-10 1e-10 1e-10 1e-10 1e-10
          1e-10 1e-10 1e-10 1e-10 1e-10 1e-10 1e-10 1e-10 1e-10 1e-10 1e-10 1e-10
          1e-10 1e-10 1e-10 1e-10 1e-10 1e-10 1e-10 1e-10 1e-10 1e-10 1e-10 1e-10
          1e-10 1e-10 1e-10 1e-10 1e-10 1e-10 1e-10 1e-10 1e-10 1e-10 1e-10 1e-10
          1e-10 1e-10 1e-10 1e-10 1e-10 1e-10 1e-10 1e-10 1e-10 1e-10 1e-10 1e-10
          1e-10 1e-10 1e-10 1e-10 1e-10 1e-10 1e-10 1e-10 1e-10 1e-10 1e-10 1e-10
          1e-10 1e-10 1e-10 1e-10 1e-10 1e-10 1e-10 1e-10 1e-10 1e-10 1e-10 1e-10
          1e-10 1e-10 1e-10 1e-10 1e-10 1e-10 1e-10 1e-10 1e-10 1e-10 1e-10 1e-10
          1e-10 1e-10 1e-10 1e-10 1e-10 1e-10 1e-10 1e-10 1e-10 1e-10 1e-10 1e-10
          1e-10 1e-10 1e-10 1e-10 1e-10 1e-10 1e-10 1e-10 1e-10 1e-10 1e-10 1e-10
          1e-10 1e-10 1e-10 1e-10 1e-10 1e-10 1e-10 1e-10 1e-10 1e-10 1e-10 1e-10
          1e-10 1e-10 1e-10 1e-10 1e-10 1e-10 1e-10 1e-10 1e-10 1e-10 1e-10 1e-10
          1e-10 1e-10 1e-10 1e-10 1e-10 1e-10 1e-10 1e-10 1e-10 1e-10 1e-10 1e-10
          1e-10 1e-10 1e-10 1e-10 1e-10 1e-10 1e-10 1e-10 1e-10 1e-10 1e-10 1e-10
          1e-10 1e-10 1e-10 1e-10 1e-10 1e-10 1e-10 1e-10 1e-10 1e-10 1e-10 1e-10
          1e-10 1e-10 1e-10 1e-10 1e-10 1e-10 1e-10 1e-10 1e-10 1e-10 1e-10 1e-10
          1e-10 1e-10 1e-10 1e-10 1e-10 1e-10 1e-10 1e-10 1e-10 1e-10 1e-10 1e-10
          1e-10
        </DataArray>
        <DataArray type="Float32" Name="x^H2O_g" NumberOfComponents="1" format="ascii">
          0.00824008 0.00826974 0.00986295 0.00990438 0.00827363 0.00991058 0.00827538 0.00991301 0.00827645 0.00991473 0.00827343 0.0099101
          0.00827343 0.0099101 0.00827651 0.00991481 0.00827593 0.00991376 0.0082757 0.00991347 0.00827575 0.00991355 0.00827587 0.00991372
          0.00827602 0.00991394 0.00827622 0.00991423 0.00827658 0.00991473 0.00827729 0.00991575 0.00827865 0.0099177 0.00828058 0.00992047
          0.00828286 0.00992376 0.00828539 0.00992738 0.0082881 0.00993127 0.00829095 0.00993537 0.00829392 0.00993963 0.00829699 0.00994404
          0.00830015 0.00994859 0.00830339 0.00995323 0.00830669 0.00995798 0.00831008 0.00996285 0.00831351 0.00996778 0.008317 0.0099728
          0.00832053 0.00997788 0.00832411 0.00998302 0.00832774 0.00998825 0.00833144 0.00999357 0.00833525 0.00999905 0.00833935 0.0100049