<?xml version="1.0"?>
<VTKFile type="UnstructuredGrid" version="0.1" byte_order="LittleEndian">
  <UnstructuredGrid>
    <Piece NumberOfCells="160" NumberOfPoints="205">
      <CellData Scalars="Sw">
        <DataArray type="Float32" Name="Sw" NumberOfComponents="1" format="ascii">
          0.97 0.97 0.97 0.97 0.97 0.97 0.97 0.97 0.97 0.97 0.97 0.97
          0.97 0.97 0.97 0.97 0.97 0.97 0.97 0.97 0.97 0.97 0.97 0.97
          0.97 0.97 0.97 0.97 0.97 0.97 0.97 0.97 0.97 0.97 0.97 0.97
          0.97 0.97 0.97 0.97 0.97 0.97 0.969999 0.969999 0.969998 0.969998 0.969998 0.969998
          0.969998 0.969998 0.969998 0.969998 0.969998 0.969998 0.969998 0.969999 0.969999 0.969999 0.969999 0.969999
          0.969999 0.969999 0.969999 0.969999 0.969999 0.969999 0.969999 0.969999 0.969999 0.969999 0.969999 0.969999
          0.97 0.97 0.97 0.97 0.97 0.97 0.97 0.97 0.121681 0.121517 0.121353 0.121189
          0.121916 0.121733 0.120701 0.120537 0.120377 0.120213 0.120049 0.12 0.12 0.12 0.12 0.12
          0.12 0.12 0.12 0.12 0.12 0.12 0.12 0.12 0.12 0.12 0.12 0.12
          0.12 0.12 0.12 0.12 0.12 0.12 0.12 0.12 0.12 0.12 0.12 0.12
          0.12 0.12 0.12 0.12 0.120001 0.120001 0.12 0.12 0.12 0.12 0.12 0.12
          0.12 0.12 0.12 0.12 0.12 0.12 0.12 0.12 0.12 0.12 0.12 0.12
          0.12 0.12 0.12 0.12 0.12 0.12 0.12 0.12 0.12 0.12 0.12 0.12
          0.12 0.12 0.12 0.12
        </DataArray>
        <DataArray type="Float32" Name="Sn" NumberOfComponents="1" format="ascii">
          0 0 0 0 0 0 0 0 0 0 0 0
          0 0 0 0 0 0 0 0 0 0 0 0
          0 0 0 0 0 0 0 0 0 0 0 0
          0 0 0 0 0 0 0 0 0 0 0 0
          0 0 0 0 0 0 0 0 0 0 0 0
          0 0 0 0 0 0 0 0 0 0 0 0
          0 0 0 0 0 0 0 0 0 0 0 0
          0.0176917 0.0177156 0 0 0 0 0 0 0 0 0 0
          0 0 0 0 0 0 0 0 0 0 0 0
          0 0 0 0 0 0 0 0 0 0 0 0
          0 0 0 0.000202952 0.100062 0.100038 0.000202574 0 0 0 0 0
          0 0 0 0 0 0 0 0 0 0 0 0
          0 0 0 0 0 0 0 0 0 0 0 0
          0 0 0 0
        </DataArray>
        <DataArray type="Float32" Name="Sg" NumberOfComponents="1" format="ascii">
          0.03 0.0300001 0.0300002 0.0300003 0.0300004 0.0300004 0.0300004 0.0300004 0.0300004 0.0300003 0.0300003 0.0300003
          0.0300003 0.0300003 0.0300003 0.0300003 0.0300003 0.0300002 0.0300002 0.0300002 0.0300002 0.0300002 0.0300002 0.0300002
          0.0300002 0.0300002 0.0300001 0.0300001 0.0300001 0.0300001 0.0300001 0.0300001 0.0300001 0.0300001 0.0300001 0.03
          0.03 0.03 0.03 0.03 0.03 0.0300004 0.0300009 0.0300014 0.0300019 0.0300021 0.030002 0.0300019
          0.0300019 0.0300018 0.0300017 0.0300017 0.0300016 0.0300016 0.0300015 0.0300015 0.0300014 0.0300013 0.0300013 0.0300012
          0.0300012 0.0300011 0.030001 0.030001 0.0300009 0.0300009 0.0300008 0.0300008 0.0300007 0.0300006 0.0300006 0.0300005
          0.0300005 0.0300004 0.0300003 0.0300003 0.0300002 0.0300001 0.0300001 0.03 0.878319 0.878483 0.878647 0.878811
          0.860392 0.860551 0.879299 0.879463 0.879623 0.879787 0.879951 0.88 0.88 0.88 0.88 0.88
          0.88 0.88 0.88 0.88 0.88 0.88 0.88 0.88 0.88 0.88 0.88 0.88
          0.88 0.88 0.88 0.88 0.88 0.88 0.88 0.88 0.88 0.88 0.88 0.88
          0.88 0.88 0.88 0.879797 0.779938 0.779961 0.879797 0.88 0.88 0.88 0.88 0.88
          0.88 0.88 0.88 0.88 0.88 0.88 0.88 0.88 0.88 0.88 0.88 0.88
          0.88 0.88 0.88 0.88 0.88 0.88 0.88 0.88 0.88 0.88 0.88 0.88
          0.88 0.88 0.88 0.88
        </DataArray>
        <DataArray type="Float32" Name="pw" NumberOfComponents="1" format="ascii">
          135432 135334 135238 135143 135049 134973 134916 134860 134804 134747 134691 134634
          134577 134521 134464 134407 134351 134294 134237 134180 134123 134066 134009 133952
          133895 133838 133781 133724 133667 133610 133552 133495 133438 133381 133324 133266
          133209 133152 133095 133041 110907 110815 110720 110625 110530 110454 110398 110342
          110285 110229 110172 110116 110059 110003 109946 109889 109832 109776 109719 109662
          109605 109548 109491 109434 109377 109320 109263 109206 109148 109091 109034 108977
          108920 108863 108805 108748 108691 108634 108576 108516 87707.5 87665.6 87609.2 87552.7
          86009.8 85934.3 87376.5 87314.2 87253.4 87191.1 87128.8 87110 87109.3 87108.7 87108.1 87107.4
          87106.8 87106.1 87105.4 87104.7 87104.1 87103.4 87102.7 87102 87101.3 87100.6 87099.9 87099.2
          87098.5 87097.7 87097 87096.3 87095.6 87094.9 87094.1 87093.4 87092.7 87091.9 87090.9 87075.5
          87075.5 87065.8 87070.5 87075.7 82831.1 82833.2 87083.1 87082.4 87081.8 87081.2 87080.6 87079.9
          87079.3 87078.7 87078 87077.4 87076.7 87076.1 87075.4 87074.7 87074 87073.3 87072.6 87072
          87071.3 87070.6 87069.8 87069.1 87068.4 87067.7 87067 87066.3 87065.5 87064.8 87064.1 87063.4
          87062.6 87061.9 87061.5 87075.5
        </DataArray>
        <DataArray type="Float32" Name="pn" NumberOfComponents="1" format="ascii">
          135432 135334 135238 135143 135049 134973 134916 134860 134804 134747 134691 134634
          134577 134521 134464 134407 134351 134294 134237 134180 134123 134066 134009 133952
          133895 133838 133781 133724 133667 133610 133552 133495 133438 133381 133324 133266
          133209 133152 133095 133041 110907 110815 110720 110625 110530 110454 110398 110342
          110285 110229 110172 110116 110059 110003 109946 109889 109832 109776 109719 109662
          109605 109548 109491 109434 109377 109320 109263 109206 109148 109091 109034 108977
          108920 108863 108805 108748 108691 108634 108576 108516 87707.5 87665.6 87609.2 87552.7
          89122.5 89070.4 87376.5 87314.2 87253.4 87191.1 87128.8 87110 87109.3 87108.7 87108.1 87107.4
          87106.8 87106.1 87105.4 87104.7 87104.1 87103.4 87102.7 87102 87101.3 87100.6 87099.9 87099.2
          87098.5 87097.7 87097 87096.3 87095.6 87094.9 87094.1 87093.4 87092.7 87091.9 87090.9 87075.5
          87075.5 87065.8 87070.5 87075.7 95935.4 95937.5 87083.1 87082.4 87081.8 87081.2 87080.6 87079.9
          87079.3 87078.7 87078 87077.4 87076.7 87076.1 87075.4 87074.7 87074 87073.3 87072.6 87072
          87071.3 87070.6 87069.8 87069.1 87068.4 87067.7 87067 87066.3 87065.5 87064.8 87064.1 87063.4
          87062.6 87061.9 87061.5 87075.5
        </DataArray>
        <DataArray type="Float32" Name="pg" NumberOfComponents="1" format="ascii">
          136757 136658 136563 136468 136373 136298 136241 136185 136128 136072 136015 135959
          135902 135846 135789 135732 135675 135619 135562 135505 135448 135391 135334 135277
          135220 135163 135106 135049 134992 134934 134877 134820 134763 134706 134648 134591
          134534 134477 134420 134366 112232 112140 112045 111950 111854 111779 111723 111667
          111610 111554 111497 111441 111384 111327 111271 111214 111157 111100 111043 110987
          110930 110873 110816 110759 110702 110645 110588 110530 110473 110416 110359 110302
          110245 110187 110130 110073 110016 109959 109901 109841 100000 100020 100025 100030
          100036 100038 100038 100037 100036 100036 100035 100034 100034 100033 100033 100032
          100031 100031 100030 100029 100029 100028 100027 100027 100026 100025 100024 100024
          100023 100022 100022 100021 100020 100019 100019 100018 100017 100016 100015 100000
          100000 99990.3 99995.1 100000 100006 100008 100007 100007 100006 100006 100005 100004
          100004 100003 100003 100002 100001 100001 99999.9 99999.2 99998.6 99997.9 99997.2 99996.5
          99995.8 99995.1 99994.4 99993.7 99993 99992.2 99991.5 99990.8 99990.1 99989.4 99988.6 99987.9
          99987.2 99986.4 99986 100000
        </DataArray>
        <DataArray type="Float32" Name="rhow" NumberOfComponents="1" format="ascii">
          999.733 999.733 999.733 999.733 999.733 999.733 999.733 999.733 999.733 999.733 999.733 999.733
          999.733 999.733 999.733 999.733 999.733 999.733 999.733 999.733 999.732 999.732 999.732 999.732
          999.732 999.732 999.732 999.732 999.732 999.732 999.732 999.732 999.732 999.732 999.732 999.732
          999.732 999.732 999.732 999.732 999.719 999.719 999.719 999.719 999.719 999.719 999.719 999.718
          999.718 999.718 999.718 999.718 999.718 999.718 999.718 999.718 999.718 999.718 999.718 999.718
          999.718 999.718 999.718 999.718 999.718 999.718 999.718 999.718 999.718 999.718 999.718 999.718
          999.718 999.718 999.718 999.718 999.717 999.717 999.717 999.717 999.706 999.706 999.706 999.708
          999.725 999.725 999.707 999.706 999.706 999.706 999.706 999.706 999.706 999.706 999.706 999.706
          999.706 999.706 999.706 999.706 999.706 999.706 999.706 999.706 999.706 999.706 999.706 999.706
          999.706 999.706 999.706 999.706 999.706 999.706 999.706 999.706 999.706 999.706 999.706 999.706
          999.706 999.706 999.707 999.725 999.723 999.723 999.725 999.706 999.706 999.706 999.706 999.706
          999.706 999.706 999.706 999.706 999.706 999.706 999.706 999.706 999.706 999.706 999.706 999.706
          999.706 999.706 999.706 999.706 999.706 999.706 999.706 999.706 999.706 999.706 999.706 999.706
          999.706 999.706 999.706 999.706
        </DataArray>
        <DataArray type="Float32" Name="rhon" NumberOfComponents="1" format="ascii">
          878.771 878.771 878.771 878.771 878.771 878.771 878.771 878.771 878.771 878.771 878.771 878.771
          878.771 878.771 878.771 878.771 878.771 878.771 878.771 878.771 878.771 878.771 878.771 878.771
          878.771 878.771 878.771 878.771 878.771 878.771 878.771 878.771 878.771 878.771 878.771 878.771
          878.771 878.771 878.771 878.771 878.771 878.771 878.771 878.771 878.771 878.771 878.771 878.771
          878.771 878.771 878.771 878.771 878.771 878.771 878.771 878.771 878.771 878.771 878.771 878.771
          878.771 878.771 878.771 878.771 878.771 878.771 878.771 878.771 878.771 878.771 878.771 878.771
          878.771 878.771 878.771 878.771 878.771 878.771 878.771 878.771 878.771 878.771 878.771 878.771
          878.771 878.771 878.771 878.771 878.771 878.771 878.771 878.771 878.771 878.771 878.771 878.771
          878.771 878.771 878.771 878.771 878.771 878.771 878.771 878.771 878.771 878.771 878.771 878.771
          878.771 878.771 878.771 878.771 878.771 878.771 878.771 878.771 878.771 878.771 878.771 878.771
          878.771 878.771 878.771 878.771 878.771 878.771 878.771 878.771 878.771 878.771 878.771 878.771
          878.771 878.771 878.771 878.771 878.771 878.771 878.771 878.771 878.771 878.771 878.771 878.771
          878.771 878.771 878.771 878.771 878.771 878.771 878.771 878.771 878.771 878.771 878.771 878.771
          878.771 878.771 878.771 878.771
        </DataArray>
        <DataArray type="Float32" Name="rhog" NumberOfComponents="1" format="ascii">
          1.67658 1.67537 1.6742 1.67303 1.67186 1.67093 1.67023 1.66954 1.66885 1.66815 1.66746 1.66676
          1.66606 1.66537 1.66467 1.66397 1.66327 1.66257 1.66188 1.66118 1.66048 1.65977 1.65907 1.65837
          1.65767 1.65697 1.65627 1.65556 1.65486 1.65416 1.65346 1.65275 1.65205 1.65134 1.65064 1.64994
          1.64923 1.64853 1.64783 1.64716 1.37489 1.37376 1.37259 1.37142 1.37029 1.36937 1.36863 1.36794
          1.36724 1.36655 1.36585 1.36516 1.36446 1.36376 1.36306 1.36237 1.36167 1.36097 1.36027 1.35957
          1.35887 1.35817 1.35747 1.35677 1.35607 1.35536 1.35466 1.35396 1.35326 1.35255 1.35185 1.35115
          1.35044 1.34974 1.34904 1.34833 1.34763 1.34692 1.34622 1.34547 1.22442 1.22467 1.22475 1.22517
          1.22921 1.22924 1.22499 1.22488 1.22487 1.22486 1.22485 1.22485 1.22484 1.22483 1.22482 1.22481
          1.22481 1.2248 1.22479 1.22478 1.22477 1.22477 1.22476 1.22475 1.22474 1.22473 1.22472 1.22471
          1.2247 1.2247 1.22469 1.22468 1.22467 1.22466 1.22465 1.22464 1.22463 1.22462 1.22461 1.22442
          1.22442 1.22431 1.2246 1.22878 1.22884 1.22887 1.22887 1.22454 1.2245 1.22449 1.22448 1.22448
          1.22447 1.22446 1.22445 1.22445 1.22444 1.22443 1.22442 1.22441 1.2244 1.2244 1.22439 1.22438
          1.22437 1.22436 1.22435 1.22434 1.22434 1.22433 1.22432 1.22431 1.2243 1.22429 1.22428 1.22427
          1.22426 1.22426 1.22425 1.22442
        </DataArray>
        <DataArray type="Float32" Name="x^w_H2O" NumberOfComponents="1" format="ascii">
          0.999975 0.999975 0.999975 0.999975 0.999975 0.999975 0.999975 0.999975 0.999975 0.999975 0.999975 0.999975
          0.999975 0.999975 0.999975 0.999975 0.999975 0.999975 0.999975 0.999975 0.999975 0.999975 0.999975 0.999975
          0.999975 0.999975 0.999975 0.999975 0.999975 0.999975 0.999975 0.999975 0.999975 0.999975 0.999975 0.999975
          0.999975 0.999975 0.999975 0.999976 0.99998 0.99998 0.99998 0.99998 0.99998 0.99998 0.99998 0.99998
          0.99998 0.99998 0.99998 0.99998 0.99998 0.99998 0.99998 0.99998 0.99998 0.99998 0.99998 0.99998
          0.99998 0.99998 0.99998 0.99998 0.99998 0.99998 0.99998 0.99998 0.99998 0.99998 0.99998 0.99998
          0.99998 0.99998 0.99998 0.99998 0.99998 0.99998 0.99998 0.99998 0.999982 0.999982 0.999982 0.999982
          0.999978 0.999978 0.999982 0.999982 0.999982 0.999982 0.999982 0.999982 0.999982 0.999982 0.999982 0.999982
          0.999982 0.999982 0.999982 0.999982 0.999982 0.999982 0.999982 0.999982 0.999982 0.999982 0.999982 0.999982
          0.999982 0.999982 0.999982 0.999982 0.999982 0.999982 0.999982 0.999982 0.999982 0.999982 0.999982 0.999982
          0.999982 0.999982 0.999982 0.999978 0.999978 0.999978 0.999978 0.999982 0.999982 0.999982 0.999982 0.999982
          0.999982 0.999982 0.999982 0.999982 0.999982 0.999982 0.999982 0.999982 0.999982 0.999982 0.999982 0.999982
          0.999982 0.999982 0.999982 0.999982 0.999982 0.999982 0.999982 0.999982 0.999982 0.999982 0.999982 0.999982
          0.999982 0.999982 0.999982 0.999982
        </DataArray>
        <DataArray type="Float32" Name="x^w_mesitylene" NumberOfComponents="1" format="ascii">
          4.13463e-09 4.13277e-09 4.1309e-09 4.12903e-09 4.12716e-09 4.1253e-09 4.12345e-09 4.1216e-09 4.11975e-09 4.1179e-09 4.11604e-09 4.11419e-09
          4.11234e-09 4.11049e-09 4.10864e-09 4.10679e-09 4.10493e-09 4.10308e-09 4.10123e-09 4.09938e-09 4.09753e-09 4.09567e-09 4.09382e-09 4.09197e-09
          4.09012e-09 4.08827e-09 4.08641e-09 4.08456e-09 4.08271e-09 4.08086e-09 4.07901e-09 4.07716e-09 4.0753e-09 4.07345e-09 4.0716e-09 4.06975e-09
          4.0679e-09 4.06604e-09 4.06419e-09 4.06233e-09 3.39315e-09 3.3915e-09 3.38943e-09 3.38757e-09 3.9671e-08 4.51637e-08 3.43587e-09 3.3802e-09
          3.37828e-09 3.37642e-09 3.37457e-09 3.37272e-09 3.37087e-09 3.36902e-09 3.36717e-09 3.36531e-09 3.36346e-09 3.36161e-09 3.35976e-09 3.35791e-09
          3.35605e-09 3.3542e-09 3.35235e-09 3.3505e-09 3.34865e-09 3.3468e-09 3.34494e-09 3.34309e-09 3.34124e-09 3.33939e-09 3.33754e-09 3.33568e-09
          3.33383e-09 3.33198e-09 3.33013e-09 3.32828e-09 3.32642e-09 3.32458e-09 3.32293e-09 3.32086e-09 3.02334e-09 4.03037e-09 1.54818e-08 2.95366e-07
          3.40605e-06 3.40605e-06 8.70691e-08 3.38805e-09 3.0256e-09 3.02406e-09 3.02404e-09 3.02403e-09 3.02402e-09 3.024e-09 3.02399e-09 3.02398e-09
          3.02396e-09 3.02395e-09 3.02394e-09 3.02392e-09 3.02391e-09 3.0239e-09 3.02388e-09 3.02387e-09 3.02386e-09 3.02384e-09 3.02383e-09 3.02381e-09
          3.0238e-09 3.02379e-09 3.02377e-09 3.02376e-09 3.02374e-09 3.02373e-09 3.02371e-09 3.0237e-09 3.02368e-09 3.02367e-09 3.02371e-09 3.02334e-09
          3.02334e-09 9.62243e-09 1.93506e-07 3.40605e-06 3.40605e-06 3.40605e-06 3.40605e-06 2.73721e-08 3.14966e-09 3.02401e-09 3.02344e-09 3.02343e-09
          3.02342e-09 3.0234e-09 3.02339e-09 3.02338e-09 3.02337e-09 3.02335e-09 3.02334e-09 3.02333e-09 3.02331e-09 3.0233e-09 3.02328e-09 3.02327e-09
          3.02326e-09 3.02324e-09 3.02323e-09 3.02321e-09 3.0232e-09 3.02319e-09 3.02317e-09 3.02316e-09 3.02314e-09 3.02313e-09 3.02311e-09 3.0231e-09
          3.02308e-09 3.02307e-09 3.02303e-09 3.02334e-09
        </DataArray>
        <DataArray type="Float32" Name="x^w_Air" NumberOfComponents="1" format="ascii">
          2.49576e-05 2.49395e-05 2.4922e-05 2.49044e-05 2.4887e-05 2.48731e-05 2.48627e-05 2.48523e-05 2.48419e-05 2.48315e-05 2.48211e-05 2.48107e-05
          2.48002e-05 2.47898e-05 2.47794e-05 2.47689e-05 2.47585e-05 2.4748e-05 2.47375e-05 2.4727e-05 2.47166e-05 2.47061e-05 2.46956e-05 2.46851e-05
          2.46746e-05 2.46641e-05 2.46536e-05 2.4643e-05 2.46325e-05 2.4622e-05 2.46115e-05 2.46009e-05 2.45904e-05 2.45799e-05 2.45693e-05 2.45588e-05
          2.45483e-05 2.45377e-05 2.45272e-05 2.45173e-05 2.04413e-05 2.04244e-05 2.04069e-05 2.03894e-05 2.03716e-05 2.03577e-05 2.03476e-05 2.03372e-05
          2.03268e-05 2.03164e-05 2.0306e-05 2.02956e-05 2.02852e-05 2.02748e-05 2.02643e-05 2.02539e-05 2.02434e-05 2.0233e-05 2.02225e-05 2.0212e-05
          2.02015e-05 2.0191e-05 2.01805e-05 2.017e-05 2.01595e-05 2.0149e-05 2.01385e-05 2.0128e-05 2.01175e-05 2.0107e-05 2.00964e-05 2.00859e-05
          2.00754e-05 2.00648e-05 2.00543e-05 2.00438e-05 2.00332e-05 2.00227e-05 2.00121e-05 2.0001e-05 1.81888e-05 1.81925e-05 1.81934e-05 1.81926e-05
          1.81747e-05 1.81751e-05 1.81952e-05 1.81956e-05 1.81955e-05 1.81954e-05 1.81953e-05 1.81952e-05 1.81951e-05 1.81949e-05 1.81948e-05 1.81947e-05
          1.81946e-05 1.81945e-05 1.81943e-05 1.81942e-05 1.81941e-05 1.8194e-05 1.81938e-05 1.81937e-05 1.81936e-05 1.81935e-05 1.81933e-05 1.81932e-05
          1.81931e-05 1.81929e-05 1.81928e-05 1.81927e-05 1.81925e-05 1.81924e-05 1.81923e-05 1.81921e-05 1.8192e-05 1.81919e-05 1.81917e-05 1.81888e-05
          1.81888e-05 1.8187e-05 1.81868e-05 1.81681e-05 1.81691e-05 1.81696e-05 1.81695e-05 1.81899e-05 1.819e-05 1.81899e-05 1.81898e-05 1.81897e-05
          1.81895e-05 1.81894e-05 1.81893e-05 1.81892e-05 1.81891e-05 1.81889e-05 1.81888e-05 1.81887e-05 1.81886e-05 1.81884e-05 1.81883e-05 1.81882e-05
          1.81881e-05 1.81879e-05 1.81878e-05 1.81877e-05 1.81875e-05 1.81874e-05 1.81873e-05 1.81871e-05 1.8187e-05 1.81869e-05 1.81867e-05 1.81866e-05
          1.81865e-05 1.81863e-05 1.81863e-05 1.81888e-05
        </DataArray>
        <DataArray type="Float32" Name="x^n_H2O" NumberOfComponents="1" format="ascii">
          1e-10 1e-10 1e-10 1e-10 1e-10 1e-10 1e-10 1e-10 1e-10 1e-10 1e-10 1e-10
          1e-10 1e-10 1e-10 1e-10 1e-10 1e-10 1e-10 1e-10 1e-10 1e-10 1e-10 1e-10
          1e-10 1e-10 1e-10 1e-10 1e-10 1e-10 1e-10 1e-10 1e-10 1e-10 1e-10 1e-10
          1e-10 1e-10 1e-10 1e-10 1e-10 1e-10 1e-10 1e-10 1e-10 1e-10 1e-10 1e-10
          1e-10 1e-10 1e-10 1e-10 1e-10 1e-10 1e-10 1e-10 1e-10 1e-10 1e-10 1e-10
          1e-10 1e-10 1e-10 1e-10 1e-10 1e-10 1e-10 1e-10 1e-10 1e-10 1e-10 1e-10
          1e-10 1e-10 1e-10 1e-10 1e-10 1e-10 1e-10 1e-10 1e-10 1e-10 1e-10 1e-10
          1e-10 1e-10 1e-10 1e-10 1e-10 1e-10 1e-10 1e-10 1e-10 1e-10 1e-10 1e-10
          1e-10 1e-10 1e-10 1e-10 1e-10 1e-10 1e-10 1e-10 1e-10 1e-10 1e-10 1e-10
          1e-10 1e-10 1e-10 1e-10 1e-10 1e-10 1e-10 1e-10 1e-10 1e-10 1e-10 1e-10
          1e-10 1e-10 1e-10 1e-10 1e-10 1e-10 1e-10 1e-10 1e-10 1e-10 1e-10 1e-10
          1e-10 1e-10 1e-10 1e-10 1e-10 1e-10 1e-10 1e-10 1e-10 1e-10 1e-10 1e-10
          1e-10 1e-10 1e-10 1e-10 1e-10 1e-10 1e-10 1e-10 1e-10 1e-10 1e-10 1e-10
          1e-10 1e-10 1e-10 1e-10
        </DataArray>
        <DataArray type="Float32" Name="x^n_mesitylene" NumberOfComponents="1" format="ascii">
          0.00121391 0.00121336 0.00121281 0.00121226 0.00121171 0.00121117 0.00121062 0.00121008 0.00120954 0.00120899 0.00120845 0.00120791
          0.00120736 0.00120682 0.00120628 0.00120573 0.00120519 0.00120464 0.0012041 0.00120356 0.00120301 0.00120247 0.00120193 0.00120138
          0.00120084 0.00120029 0.00119975 0.00119921 0.00119866 0.00119812 0.00119758 0.00119703 0.00119649 0.00119594 0.0011954 0.00119486
          0.00119431 0.00119377 0.00119323 0.00119268 0.000996212 0.000995727 0.00099512 0.000994572 0.0116472 0.0132598 0.00100876 0.000992409
          0.000991845 0.000991301 0.000990757 0.000990214 0.00098967 0.000989127 0.000988583 0.000988039 0.000987496 0.000986952 0.000986408 0.000985865
          0.000985321 0.000984777 0.000984233 0.00098369 0.000983146 0.000982602 0.000982059 0.000981515 0.000980971 0.000980427 0.000979884 0.00097934
          0.000978796 0.000978253 0.000977709 0.000977165 0.000976621 0.000976079 0.000975595 0.000974987 0.000887638 0.0011833 0.00454539 0.086718
          1 1 0.0255631 0.000994716 0.0008883 0.000887849 0.000887843 0.00088784 0.000887836 0.000887832 0.000887829 0.000887825
          0.000887821 0.000887817 0.000887813 0.000887809 0.000887805 0.000887801 0.000887797 0.000887793 0.000887789 0.000887785 0.000887781 0.000887776
          0.000887772 0.000887768 0.000887764 0.00088776 0.000887755 0.000887751 0.000887747 0.000887743 0.000887738 0.000887735 0.000887746 0.000887638
          0.000887638 0.0028251 0.0568124 1 1 1 1 0.00803631 0.000924723 0.000887834 0.000887668 0.000887664
          0.00088766 0.000887656 0.000887653 0.000887649 0.000887645 0.000887641 0.000887637 0.000887633 0.000887629 0.000887625 0.000887621 0.000887617
          0.000887613 0.000887609 0.000887605 0.0008876 0.000887596 0.000887592 0.000887588 0.000887584 0.000887579 0.000887575 0.000887571 0.000887567
          0.000887562 0.000887558 0.000887547 0.000887638
        </DataArray>
        <DataArray type="Float32" Name="x^n_Air" NumberOfComponents="1" format="ascii">
          1e-10 1e-10 1e-10 1e-10 1e-10 1e-10 1e-10 1e-10 1e-10 1e-10 1e-10 1e-10
          1e-10 1e-10 1e-10 1e-10 1e-10 1e-10 1e-10 1e-10 1e-10 1e-10 1e-10 1e-10
          1e-10 1e-10 1e-10 1e-10 1e-10 1e-10 1e-10 1e-10 1e-10 1e-10 1e-10 1e-10
          1e-10 1e-10 1e-10 1e-10 1e-10 1e-10 1e-10 1e-10 1e-10 1e-10 1e-10 1e-10
          1e-10 1e-10 1e-10 1e-10 1e-10 1e-10 1e-10 1e-10 1e-10 1e-10 1e-10 1e-10
          1e-10 1e-10 1e-10 1e-10 1e-10 1e-10 1e-10 1e-10 1e-10 1e-10 1e-10 1e-10
          1e-10 1e-10 1e-10 1e-10 1e-10 1e-10 1e-10 1e-10 1e-10 1e-10 1e-10 1e-10
          1e-10 1e-10 1e-10 1e-10 1e-10 1e-10 1e-10 1e-10 1e-10 1e-10 1e-10 1e-10
          1e-10 1e-10 1e-10 1e-10 1e-10 1e-10 1e-10 1e-10 1e-10 1e-10 1e-10 1e-10
          1e-10 1e-10 1e-10 1e-10 1e-10 1e-10 1e-10 1e-10 1e-10 1e-10 1e-10 1e-10
          1e-10 1e-10 1e-10 1e-10 1e-10 1e-10 1e-10 1e-10 1e-10 1e-10 1e-10 1e-10
          1e-10 1e-10 1e-10 1e-10 1e-10 1e-10 1e-10 1e-10 1e-10 1e-10 1e-10 1e-10
          1e-10 1e-10 1e-10 1e-10 1e-10 1e-10 1e-10 1e-10 1e-10 1e-10 1e-10 1e-10
          1e-10 1e-10 1e-10 1e-10
        </DataArray>
        <DataArray type="Float32" Name="x^g_H2O" NumberOfComponents="1" format="ascii">
          0.00898079 0.00898725 0.00899351 0.00899978 0.00900604 0.00901102 0.00901477 0.00901851 0.00902224 0.00902599 0.00902974 0.00903349
          0.00903726 0.00904103 0.0090448 0.00904858 0.00905237 0.00905616 0.00905996 0.00906376 0.00906757 0.00907139 0.00907521 0.00907903
          0.00908286 0.0090867 0.00909053 0.00909438 0.00909823 0.00910208 0.00910594 0.0091098 0.00911367 0.00911754 0.00912141 0.00912529
          0.00912917 0.00913306 0.00913694 0.00914061 0.0109433 0.0109522 0.0109615 0.0109708 0.0109802 0.0109876 0.0109931 0.0109987
          0.0110042 0.0110098 0.0110154 0.011021 0.0110266 0.0110322 0.0110378 0.0110434 0.0110491 0.0110547 0.0110604 0.0110661
          0.0110717 0.0110774 0.0110831 0.0110888 0.0110945 0.0111003 0.011106 0.0111117 0.0111175 0.0111232 0.011129 0.0111348
          0.0111405 0.0111463 0.0111521 0.0111579 0.0111637 0.0111695 0.0111753 0.0111815 0.0122818 0.0122794 0.0122788 0.0122781
          0.0122775 0.0122772 0.0122772 0.0122773 0.0122774 0.0122775 0.0122775 0.0122776 0.0122777 0.0122778 0.0122778 0.0122779
          0.012278 0.0122781 0.0122782 0.0122782 0.0122783 0.0122784 0.0122785 0.0122786 0.0122787 0.0122788 0.0122788 0.0122789
          0.012279 0.0122791 0.0122792 0.0122793 0.0122794 0.0122795 0.0122795 0.0122796 0.0122797 0.0122798 0.0122799 0.0122818
          0.0122818 0.012283 0.0122824 0.0122818 0.0122812 0.0122808 0.0122809 0.012281 0.0122811 0.0122811 0.0122812 0.0122813
          0.0122814 0.0122814 0.0122815 0.0122816 0.0122817 0.0122818 0.0122818 0.0122819 0.012282 0.0122821 0.0122822 0.0122823
          0.0122824 0.0122824 0.0122825 0.0122826 0.0122827 0.0122828 0.0122829 0.012283 0.0122831 0.0122831 0.0122832 0.0122833
          0.0122834 0.0122835 0.0122836 0.0122818
        </DataArray>
        <DataArray type="Float32" Name="x^g_mesitylene" NumberOfComponents="1" format="ascii">
          1e-06 1.00027e-06 1.00051e-06 1.00076e-06 1.001e-06 1.0011e-06 1.00107e-06 1.00104e-06 1.001e-06 1.00097e-06 1.00093e-06 1.0009e-06
          1.00086e-06 1.00083e-06 1.0008e-06 1.00076e-06 1.00073e-06 1.0007e-06 1.00067e-06 1.00064e-06 1.0006e-06 1.00057e-06 1.00054e-06 1.00051e-06
          1.00048e-06 1.00045e-06 1.00042e-06 1.00039e-06 1.00036e-06 1.00033e-06 1.0003e-06 1.00027e-06 1.00024e-06 1.00021e-06 1.00018e-06 1.00015e-06
          1.00012e-06 1.00009e-06 1.00006e-06 1e-06 1e-06 1.00033e-06 1.00057e-06 1.00087e-06 1.17309e-05 1.33642e-05 1.0172e-06 1.00123e-06
          1.00116e-06 1.00112e-06 1.00108e-06 1.00104e-06 1.001e-06 1.00095e-06 1.00091e-06 1.00087e-06 1.00083e-06 1.00079e-06 1.00076e-06 1.00072e-06
          1.00068e-06 1.00064e-06 1.0006e-06 1.00056e-06 1.00053e-06 1.00049e-06 1.00045e-06 1.00041e-06 1.00038e-06 1.00034e-06 1.0003e-06 1.00027e-06
          1.00023e-06 1.00019e-06 1.00016e-06 1.00012e-06 1.00008e-06 1.00005e-06 1.00007e-06 1e-06 1e-06 1.33282e-06 5.11948e-06 9.76658e-05
          0.00112618 0.00112616 2.87882e-05 1.12022e-06 1.00038e-06 9.99881e-07 9.99881e-07 9.99883e-07 9.99885e-07 9.99887e-07 9.99889e-07 9.99891e-07
          9.99894e-07 9.99896e-07 9.99898e-07 9.99901e-07 9.99903e-07 9.99905e-07 9.99907e-07 9.9991e-07 9.99912e-07 9.99915e-07 9.99917e-07 9.99919e-07
          9.99922e-07 9.99924e-07 9.99927e-07 9.99929e-07 9.99932e-07 9.99934e-07 9.99937e-07 9.99939e-07 9.99942e-07 9.99945e-07 9.99967e-07 1e-06
          1e-06 3.18302e-06 6.40072e-05 0.00112658 0.00112652 0.0011265 0.0011265 9.05297e-06 1.04171e-06 1.00016e-06 9.99983e-07 9.99985e-07
          9.99987e-07 9.99989e-07 9.99991e-07 9.99994e-07 9.99996e-07 9.99998e-07 1e-06 1e-06 1e-06 1.00001e-06 1.00001e-06 1.00001e-06
          1.00001e-06 1.00002e-06 1.00002e-06 1.00002e-06 1.00002e-06 1.00003e-06 1.00003e-06 1.00003e-06 1.00003e-06 1.00004e-06 1.00004e-06 1.00004e-06
          1.00004e-06 1.00005e-06 1.00004e-06 1e-06
        </DataArray>
        <DataArray type="Float32" Name="x^g_Air" NumberOfComponents="1" format="ascii">
          0.991018 0.991012 0.991005 0.990999 0.990993 0.990988 0.990984 0.990981 0.990977 0.990973 0.990969 0.990965
          0.990962 0.990958 0.990954 0.99095 0.990947 0.990943 0.990939 0.990935 0.990931 0.990928 0.990924 0.99092
          0.990916 0.990912 0.990908 0.990905 0.990901 0.990897 0.990893 0.990889 0.990885 0.990881 0.990878 0.990874
          0.99087 0.990866 0.990862 0.990858 0.989056 0.989047 0.989037 0.989028 0.989008 0.988999 0.989006 0.989
          0.988995 0.988989 0.988984 0.988978 0.988972 0.988967 0.988961 0.988956 0.98895 0.988944 0.988939 0.988933
          0.988927 0.988922 0.988916 0.98891 0.988904 0.988899 0.988893 0.988887 0.988882 0.988876 0.98887 0.988864
          0.988858 0.988853 0.988847 0.988841 0.988835 0.988829 0.988824 0.988818 0.987717 0.987719 0.987716 0.987624
          0.986596 0.986597 0.987694 0.987722 0.987722 0.987722 0.987722 0.987721 0.987721 0.987721 0.987721 0.987721
          0.987721 0.987721 0.987721 0.987721 0.987721 0.987721 0.98772 0.98772 0.98772 0.98772 0.98772 0.98772
          0.98772 0.98772 0.98772 0.98772 0.98772 0.98772 0.987719 0.987719 0.987719 0.987719 0.987719 0.987717
          0.987717 0.987714 0.987654 0.986592 0.986592 0.986593 0.986593 0.98771 0.987718 0.987718 0.987718 0.987718
          0.987718 0.987718 0.987717 0.987717 0.987717 0.987717 0.987717 0.987717 0.987717 0.987717 0.987717 0.987717
          0.987717 0.987717 0.987716 0.987716 0.987716 0.987716 0.987716 0.987716 0.987716 0.987716 0.987716 0.987716
          0.987716 0.987715 0.987715 0.987717
        </DataArray>
        <DataArray type="Float32" Name="porosity" NumberOfComponents="1" format="ascii">
          0.4 0.4 0.4 0.4 0.4 0.4 0.4 0.4 0.4 0.4 0.4 0.4
          0.4 0.4 0.4 0.4 0.4 0.4 0.4 0.4 0.4 0.4 0.4 0.4
          0.4 0.4 0.4 0.4 0.4 0.4 0.4 0.4 0.4 0.4 0.4 0.4
          0.4 0.4 0.4 0.4 0.4 0.4 0.4 0.4 0.4 0.4 0.4 0.4
          0.4 0.4 0.4 0.4 0.4 0.4 0.4 0.4 0.4 0.4 0.4 0.4
          0.4 0.4 0.4 0.4 0.4 0.4 0.4 0.4 0.4 0.4 0.4 0.4
          0.4 0.4 0.4 0.4 0.4 0.4 0.4 0.4 0.4 0.4 0.4 0.4
          0.4 0.4 0.4 0.4 0.4 0.4 0.4 0.4 0.4 0.4 0.4 0.4
          0.4 0.4 0.4 0.4 0.4 0.4 0.4 0.4 0.4 0.4 0.4 0.4
          0.4 0.4 0.4 0.4 0.4 0.4 0.4 0.4 0.4 0.4 0.4 0.4
          0.4 0.4 0.4 0.4 0.4 0.4 0.4 0.4 0.4 0.4 0.4 0.4
          0.4 0.4 0.4 0.4 0.4 0.4 0.4 0.4 0.4 0.4 0.4 0.4
          0.4 0.4 0.4 0.4 0.4 0.4 0.4 0.4 0.4 0.4 0.4 0.4
          0.4 0.4 0.4 0.4
        </DataArray>
        <DataArray type="Float32" Name="permeability" NumberOfComponents="1" format="ascii">
          1e-11 1e-11 1e-11 1e-11 1e-11 1e-11 1e-11 1e-11 1e-11 1e-11 1e-11 1e-11
          1e-11 1e-11 1e-11 1e-11 1e-11 1e-11 1e-11 1e-11 1e-11 1e-11 1e-11 1e-11
          1e-11 1e-11 1e-11 1e-11 1e-11 1e-11 1e-11 1e-11 1e-11 1e-11 1e-11 1e-11
          1e-11 1e-11 1e-11 1e-11 1e-11 1e-11 1e-11 1e-11 1e-11 1e-11 1e-11 1e-11
          1e-11 1e-11 1e-11 1e-11 1e-11 1e-11 1e-11 1e-11 1e-11 1e-11 1e-11 1e-11
          1e-11 1e-11 1e-11 1e-11 1e-11 1e-11 1e-11 1e-11 1e-11 1e-11 1e-11 1e-11
          1e-11 1e-11 1e-11 1e-11 1e-11 1e-11 1e-11 1e-11 1e-11 1e-11 1e-11 1e-11
          1e-11 1e-11 1e-11 1e-11 1e-11 1e-11 1e-11 1e-11 1e-11 1e-11 1e-11 1e-11