<?xml version="1.0"?>
<VTKFile type="UnstructuredGrid" version="0.1" byte_order="LittleEndian">
  <UnstructuredGrid>
    <Piece NumberOfCells="500" NumberOfPoints="561">
      <PointData Scalars="sw">
        <DataArray type="Float32" Name="sw" NumberOfComponents="1" format="ascii">
          0.97 0.970013 0.97 0.970015 0.970023 0.970025 0.970033 0.970036 0.970042 0.970046 0.970052 0.970056
          0.970062 0.970067 0.970071 0.970077 0.970081 0.970088 0.970091 0.970098 0.970102 0.970109 0.970112 0.97012
          0.970123 0.970132 0.970134 0.970144 0.970145 0.970156 0.970157 0.970168 0.970168 0.970181 0.970178 0.970191
          0.970185 0.970199 0.970193 0.970207 0.970201 0.970215 0.970209 0.970224 0.970217 0.970233 0.970226 0.970243
          0.970235 0.970252 0.970244 0.970262 0.970254 0.970272 0.970262 0.970281 0.970263 0.970282 0.970263 0.970282
          0.970263 0.970282 0.970263 0.970282 0.970263 0.970282 0.970263 0.970282 0.970263 0.970282 0.970263 0.970282
          0.970263 0.970283 0.970263 0.970283 0.970263 0.970282 0.970263 0.970282 0.970263 0.970282 0.970263 0.970282
          0.970262 0.970281 0.970262 0.970281 0.97026 0.97028 0.970259 0.970278 0.970257 0.970275 0.970252 0.97027
          0.970237 0.970255 0.970181 0.970195 0.97 0.97 0.97 0.970017 0.970028 0.970039 0.97005 0.970061
          0.970072 0.970084 0.970095 0.970107 0.970118 0.97013 0.970142 0.970155 0.970168 0.970182 0.970195 0.970206
          0.970215 0.970223 0.970232 0.970242 0.970252 0.970262 0.970272 0.970283 0.970294 0.970303 0.970304 0.970304
          0.970304 0.970304 0.970304 0.970304 0.970304 0.970304 0.970305 0.970305 0.970305 0.970304 0.970304 0.970304
          0.970304 0.970303 0.970302 0.9703 0.970297 0.970292 0.970276 0.970214 0.97 0.97 0.970019 0.970031
          0.970043 0.970055 0.970067 0.970079 0.970091 0.970104 0.970116 0.970129 0.970142 0.970155 0.970169 0.970183
          0.970197 0.970212 0.970224 0.970233 0.970242 0.970252 0.970262 0.970273 0.970284 0.970295 0.970307 0.970318
          0.970329 0.97033 0.97033 0.97033 0.97033 0.97033 0.97033 0.97033 0.97033 0.97033 0.970331 0.97033
          0.97033 0.97033 0.97033 0.970329 0.970329 0.970328 0.970326 0.970323 0.970318 0.9703 0.970238 0.97
          0.97 0.970022 0.970034 0.970047 0.97006 0.970074 0.970087 0.9701 0.970114 0.970127 0.970141 0.970155
          0.97017 0.970185 0.9702 0.970216 0.970232 0.970245 0.970255 0.970265 0.970276 0.970287 0.970298 0.97031
          0.970322 0.970335 0.970348 0.97036 0.97036 0.97036 0.97036 0.97036 0.97036 0.970361 0.970361 0.970361
          0.970361 0.970361 0.970361 0.970361 0.970361 0.970361 0.97036 0.97036 0.970358 0.970357 0.970354 0.970348
          0.97033 0.97027 0.97 0.97 0.969828 0.969874 0.96982 0.969768 0.969716 0.969664 0.969612 0.96956
          0.969507 0.969453 0.969398 0.969342 0.969285 0.969227 0.96916 0.969064 0.969013 0.969007 0.968971 0.968928
          0.968882 0.968836 0.968788 0.968739 0.96869 0.968628 0.968448 0.952659 0.936062 0.918482 0.899927 0.880398
          0.860857 0.84035 0.818877 0.798354 0.776871 0.754904 0.732934 0.711451 0.690932 0.669456 0.648948 0.628451
          0.608921 0.589397 0.570812 0.552572 0.534225 0.519531 0.128284 0.128155 0.128025 0.127892 0.127762 0.127632
          0.127502 0.127373 0.127243 0.127113 0.12698 0.12685 0.12672 0.126587 0.126457 0.126328 0.126198 0.126068
          0.125938 0.125809 0.125675 0.125546 0.125412 0.125282 0.125153 0.125023 0.124893 0.124788 0.124658 0.124529
          0.1244 0.12427 0.124138 0.124011 0.123881 0.123747 0.123621 0.123491 0.123358 0.123225 0.123094 0.122968
          0.122834 0.122703 0.122571 0.122441 0.122308 0.122177 0.122046 0.121913 0.121761 0.12 0.12 0.12
          0.12 0.12 0.12 0.12 0.12 0.12 0.12 0.12 0.12 0.12 0.12 0.12
          0.12 0.12 0.12 0.12 0.12 0.12 0.12 0.12 0.12 0.12 0.12 0.12
          0.12 0.12 0.12 0.12 0.12 0.12 0.12 0.12 0.12 0.12 0.12 0.12
          0.12 0.12 0.12 0.12 0.12 0.12 0.12 0.12 0.12 0.12 0.12 0.12
          0.12 0.12 0.12 0.12 0.12 0.12 0.12 0.12 0.12 0.12 0.12 0.12
          0.12 0.12 0.12 0.12 0.12 0.12 0.12 0.12 0.12 0.12 0.12 0.12
          0.12 0.12 0.12 0.12 0.12 0.12 0.12 0.12 0.12 0.12 0.12 0.12
          0.12 0.12 0.12 0.12 0.12 0.12 0.12 0.12 0.12 0.12 0.12 0.12
          0.12 0.12 0.12 0.12 0.12 0.12 0.12 0.12 0.12 0.12 0.12 0.12
          0.12 0.12 0.12 0.12 0.12 0.12 0.12 0.12 0.12 0.12 0.12 0.12
          0.12 0.12 0.12 0.12 0.12 0.12 0.12 0.12 0.12 0.12 0.12 0.12
          0.12 0.12 0.12 0.12 0.12 0.12 0.12 0.12 0.12 0.12 0.12 0.12
          0.12 0.12 0.12 0.12 0.12 0.12 0.12 0.12 0.12 0.12 0.12 0.12
          0.12 0.12 0.12 0.12 0.12 0.12 0.12 0.12 0.12 0.12 0.12 0.12
          0.12 0.12 0.12 0.12 0.12 0.12 0.12 0.12 0.12 0.12 0.12 0.12
          0.12 0.12 0.12 0.12 0.12 0.12 0.12 0.12 0.12 0.12 0.12 0.12
          0.12 0.12 0.12 0.12 0.12 0.12 0.12 0.12 0.12
        </DataArray>
        <DataArray type="Float32" Name="sn" NumberOfComponents="1" format="ascii">
          0 0 0 0 0 0 0 0 0 0 0 0
          0 0 0 0 0 0 0 0 0 0 0 0
          0 0 0 0 0 0 0 0 0 0 0 0
          0 0 0 0 0 0 0 0 0 0 0 0
          0 0 0 0 0 0 0 0 0 0 0 0
          0 0 0 0 0 0 0 0 0 0 0 0
          0 0 0 0 0 0 0 0 0 0 0 0
          0 0 0 0 0 0 0 0 0 0 0 0
          0 0 0 0 0 0 0 0 0 0 0 0
          0 0 0 0 0 0 0 0 0 0 0 0
          0 0 0 0 0 0 0 0 0 0 0 0
          0 0 0 0 0 0 0 0 0 0 0 0
          0 0 0 0 0 0 0 0 0 0 0 0
          0 0 0 0 0 0 0 0 0 0 0 0
          0 0 0 0 0 0 0 0 0 0 0 0
          0 0 0 0 0 0 0 0 0 0 0 0
          0 0 0 0 0 0 0 0 0 0 0 0
          0 0 0 0 0 0 0 0 0 0 0 0
          0 0 0 0 0 0 0 0 0 0 0 0
          0 0 0 0 0 0 0 0 0 0 0 0
          0 0 0 0 0 0 0 0 0 0 0 0
          0 0 0 0 0 0 0 0 0 0 0 0
          0 0 0 0 0 0 0 0 0 0 0 0
          0 0 0 0 0 0 0 0 0 0 0 0
          0 0 0 0 0 0 0 0 0 0 0 0
          0 0 0 0 0 0 0 0 0 0 0 0
          0 0 0 0 0 0 0 0 0 0 0 0
          0 0 0 0 0 0 0 0 0 0 0 0
          0 0 0 0 0 0 0 0 0 0 0 0
          0 0 0 0 0 0 0 0 0 0 0 0
          0 0 0 0 0 0 0 0 0 0 0 0
          0 0 0 0 0 0 0 0 0 0 0 0
          0 0 0 0 0 0 0 0 0 0 0 0
          0 0 0 0 0 0 0 0 0 0 0 0
          0 0 0 0 0 0 0 0 0 0 0 0
          0 0 0 0 6.84489e-21 6.84682e-21 0 0 0 0 0 0
          0 0 0 0 0 0 0 0 0 0 0 0
          0 0 0 0 0 0 0 0 0 0 0 0
          0 0 0 0 0 0 0 0 0 0 0 0
          0 0 0 0 0 0 1.729e-24 9.25751e-07 9.25751e-07 1.74938e-24 0 0
          0 0 0 0 0 0 0 0 0 0 0 0
          0 0 0 0 0 0 0 0 0 0 0 0
          0 0 0 0 0 0 0 0 0 0 0 0
          0 0 0 0 0 0 0 0 3.07977e-35 1.04094e-09 0.0204813 0.0204813
          1.04329e-09 5.52396e-35 0 0 0 0 0 0 0 0 0 0
          0 0 0 0 0 0 0 0 0 0 0 0
          0 0 0 0 0 0 0 0 0
        </DataArray>
        <DataArray type="Float32" Name="sg" NumberOfComponents="1" format="ascii">
          0.03 0.0299866 0.03 0.029985 0.0299767 0.0299745 0.0299673 0.0299645 0.0299577 0.0299541 0.029948 0.0299438
          0.0299383 0.0299334 0.0299285 0.0299229 0.0299186 0.0299123 0.0299086 0.0299016 0.0298984 0.0298907 0.029888 0.0298796
          0.0298774 0.0298682 0.0298665 0.0298565 0.0298551 0.0298443 0.0298434 0.0298317 0.0298316 0.0298192 0.0298221 0.0298089
          0.0298146 0.029801 0.0298072 0.029793 0.0297994 0.0297847 0.0297912 0.0297759 0.0297826 0.0297667 0.0297738 0.0297573
          0.0297648 0.0297476 0.0297556 0.0297378 0.0297462 0.0297277 0.0297381 0.029719 0.029737 0.0297178 0.029737 0.0297178
          0.0297369 0.0297178 0.029737 0.0297178 0.029737 0.0297178 0.0297368 0.0297177 0.0297368 0.0297176 0.0297369 0.0297177
          0.0297367 0.0297175 0.0297366 0.0297174 0.0297368 0.0297176 0.029737 0.0297178 0.0297372 0.029718 0.0297373 0.0297181
          0.0297378 0.0297186 0.0297385 0.0297194 0.0297396 0.0297205 0.029741 0.029722 0.0297434 0.0297245 0.0297483 0.0297297
          0.029763 0.0297453 0.0298191 0.0298046 0.03 0.03 0.03 0.029983 0.029972 0.0299611 0.02995 0.0299389
          0.0299277 0.0299164 0.029905 0.0298935 0.0298817 0.0298698 0.0298575 0.0298449 0.0298319 0.0298183 0.0298047 0.0297937
          0.0297852 0.0297767 0.0297677 0.0297582 0.0297484 0.0297382 0.0297278 0.0297172 0.0297065 0.0296969 0.0296958 0.0296958
          0.0296958 0.0296958 0.0296958 0.0296956 0.0296955 0.0296956 0.0296953 0.0296953 0.0296955 0.0296957 0.0296958 0.0296959
          0.0296964 0.0296972 0.0296983 0.0296999 0.0297026 0.029708 0.0297245 0.0297858 0.03 0.03 0.0299806 0.029969
          0.0299572 0.0299452 0.0299332 0.029921 0.0299088 0.0298965 0.029884 0.0298713 0.0298584 0.0298451 0.0298314 0.0298173
          0.0298026 0.0297879 0.0297759 0.0297668 0.0297576 0.0297479 0.0297376 0.029727 0.029716 0.0297048 0.0296933 0.0296817
          0.0296711 0.0296702 0.0296701 0.0296701 0.0296701 0.0296701 0.0296698 0.0296698 0.0296699 0.0296695 0.0296694 0.0296696
          0.0296698 0.0296699 0.02967 0.0296705 0.0296712 0.0296724 0.029674 0.0296767 0.0296823 0.0296996 0.0297616 0.03
          0.03 0.0299776 0.0299655 0.0299526 0.0299395 0.0299264 0.0299132 0.0298999 0.0298864 0.0298728 0.029859 0.0298449
          0.0298304 0.0298155 0.0298001 0.0297841 0.0297679 0.0297549 0.0297451 0.0297351 0.0297245 0.0297134 0.0297018 0.0296899
          0.0296776 0.0296651 0.0296525 0.0296404 0.0296399 0.0296399 0.0296398 0.0296398 0.0296398 0.0296395 0.0296394 0.0296395
          0.029639 0.0296389 0.0296391 0.0296393 0.0296394 0.0296393 0.0296398 0.0296405 0.0296416 0.0296432 0.029646 0.0296516
          0.0296698 0.0297303 0.03 0.03 0.030172 0.0301259 0.0301795 0.0302323 0.0302839 0.0303357 0.0303878 0.0304403
          0.0304934 0.030547 0.0306017 0.0306576 0.0307145 0.0307733 0.0308397 0.0309359 0.030987 0.030993 0.031029 0.0310723
          0.0311177 0.031164 0.0312119 0.0312606 0.0313098 0.0313717 0.0315518 0.047341 0.063938 0.0815183 0.100073 0.119602
          0.139143 0.15965 0.181123 0.201646 0.223129 0.245096 0.267066 0.288549 0.309068 0.330544 0.351052 0.371549
          0.391079 0.410603 0.429188 0.447427 0.465775 0.480469 0.871716 0.871845 0.871975 0.872108 0.872238 0.872368
          0.872498 0.872627 0.872757 0.872887 0.87302 0.87315 0.87328 0.873413 0.873543 0.873672 0.873802 0.873932
          0.874062 0.874191 0.874325 0.874454 0.874588 0.874718 0.874847 0.874977 0.875107 0.875212 0.875342 0.875471
          0.8756 0.87573 0.875862 0.875989 0.876119 0.876253 0.876379 0.876509 0.876642 0.876775 0.876906 0.877032
          0.877166 0.877297 0.877429 0.877559 0.877692 0.877823 0.877954 0.878087 0.878239 0.88 0.88 0.88
          0.88 0.88 0.88 0.88 0.88 0.88 0.88 0.88 0.88 0.88 0.88 0.88
          0.88 0.88 0.88 0.88 0.88 0.88 0.88 0.88 0.88 0.88 0.88 0.88
          0.88 0.88 0.88 0.88 0.88 0.88 0.88 0.88 0.88 0.88 0.88 0.88
          0.88 0.88 0.88 0.88 0.88 0.88 0.88 0.88 0.88 0.88 0.88 0.88
          0.88 0.88 0.88 0.88 0.88 0.88 0.88 0.88 0.88 0.88 0.88 0.88
          0.88 0.88 0.88 0.88 0.88 0.88 0.88 0.88 0.88 0.88 0.88 0.88
          0.88 0.88 0.88 0.88 0.88 0.88 0.88 0.88 0.88 0.88 0.88 0.88
          0.88 0.88 0.88 0.88 0.88 0.88 0.88 0.88 0.88 0.88 0.88 0.88
          0.88 0.88 0.88 0.88 0.88 0.88 0.88 0.88 0.88 0.88 0.88 0.88
          0.88 0.88 0.88 0.88 0.88 0.88 0.88 0.879999 0.879999 0.88 0.88 0.88
          0.88 0.88 0.88 0.88 0.88 0.88 0.88 0.88 0.88 0.88 0.88 0.88
          0.88 0.88 0.88 0.88 0.88 0.88 0.88 0.88 0.88 0.88 0.88 0.88
          0.88 0.88 0.88 0.88 0.88 0.88 0.88 0.88 0.88 0.88 0.88 0.88
          0.88 0.88 0.88 0.88 0.88 0.88 0.88 0.88 0.88 0.88 0.859519 0.859519
          0.88 0.88 0.88 0.88 0.88 0.88 0.88 0.88 0.88 0.88 0.88 0.88
          0.88 0.88 0.88 0.88 0.88 0.88 0.88 0.88 0.88 0.88 0.88 0.88
          0.88 0.88 0.88 0.88 0.88 0.88 0.88 0.88 0.88
        </DataArray>
        <DataArray type="Float32" Name="pw" NumberOfComponents="1" format="ascii">
          147725 147743 137915 137936 147743 137935 147740 137933 147739 137932 147738 137931
          147738 137930 147737 137930 147737 137930 147738 137931 147740 137932 147742 137935
          147746 137939 147752 137944 147759 137952 147768 137961 147778 137971 147776 137969
          147764 137957 147752 137945 147742 137934 147733 137926 147727 137920 147722 137914
          147717 137910 147714 137907 147712 137904 147703 137896 147659 137852 147609 137802
          147560 137753 147510 137703 147461 137654 147412 137605 147363 137556 147313 137506
          147265 137457 147215 137408 147165 137358 147114 137307 147064 137257 147014 137207
          146962 137155 146909 137102 146854 137047 146798 136991 146736 136929 146662 136855
          146540 136734 146212 136409 145273 135463 128105 128130 128128 128126 128125 128124
          128123 128123 128123 128124 128125 128128 128132 128137 128145 128154 128164 128162
          128150 128138 128127 128119 128113 128107 128103 128100 128097 128089 128044 127995
          127946 127896 127846 127798 127748 127699 127650 127601 127551 127500 127450 127400
          127348 127295 127241 127184 127123 127050 126930 126616 125653 118295 118324 118321
          118319 118318 118317 118316 118316 118316 118317 118318 118321 118325 118330 118338
          118347 118357 118356 118343 118331 118321 118312 118306 118300 118296 118293 118290
          118283 118237 118188 118138 118089 118039 117991 117941 117891 117843 117794 117744
          117693 117643 117593 117542 117489 117435 117379 117318 117246 117128 116831 115843
          108485 108518 108513 108512 108511 108510 108509 108509 108509 108510 108511 108514
          108518 108524 108531 108541 108551 108550 108536 108524 108514 108505 108499 108493
          108489 108486 108483 108478 108430 108381 108331 108282 108232 108184 108134 108084
          108036 107987 107937 107886 107837 107787 107736 107684 107630 107574 107514 107444
          107328 107057 106033 98675.2 98713.4 98706 98704.6 98703.5 98702.6 98702 98701.8 98702
          98702.9 98704.6 98707.3 98711.4 98717.1 98724.6 98734.3 98745.5 98744.1 98730 98717.5 98707.2
          98698.8 98692 98686.6 98682.2 98678.8 98676 98673.4 98623.2 98573.9 98524.5 98475 98425.1
          98376.9 98327.8 98277.4 98230.1 98181.1 98131.2 98081.5 98032.6 97985.6 97935.9 97887.9 97839.1
          97791.8 97743.6 97697 97650 97608.5 97547 90189.7 90163.6 90110.6 90059.9 90010.2 89960.8
          89911.6 89862.8 89814.4 89766.7 89718.4 89672.5 89628 89583.7 89542.6 89503.8 89466.6 89416.6
          89353.8 89292.6 89232.2 89175.2 89118.4 89064.4 89011.4 88959.4 88908.1 88866.3 88816.3 88766.8
          88717.5 88668 88618.1 88569.9 88520.7 88470.4 88423 88373.9 88324.1 88274.2 88225.3 88178.1
          88128.3 88080 88031.2 87983.5 87935.3 87888.3 87841.6 87799.5 87737.6 87075.5 87084.4 87082.1
          87081.3 87080.4 87079.7 87079.3 87079.2 87079.6 87080.6 87082.5 87085.4 87089.7 87095.5 87103.2
          87113.1 87124.8 87123.6 87109.4 87097 87086.8 87078.5 87071.9 87066.6 87062.4 87059.2 87056.6
          87054.6 87053.2 87052.1 87051.4 87050.8 87050.4 87050.1 87049.8 87049.7 87049.7 87049.7 87049.7
          87049.9 87050.1 87050.5 87051 87051.7 87052.7 87053.9 87055.6 87057.8 87060.8 87067.3 87075.5
          87075.5 87070.8 87070.2 87069.2 87068.3 87067.6 87067.2 87067.1 87067.5 87068.6 87070.4 87073.4
          87077.6 87083.4 87091.1 87101 87113.1 87111.9 87097.2 87084.9 87074.7 87066.5 87059.8 87054.5
          87050.4 87047.1 87044.5 87042.5 87041.1 87040.1 87039.3 87038.7 87038.3 87038 87037.8 87037.7
          87037.6 87037.6 87037.7 87037.8 87038.1 87038.4 87038.9 87039.6 87040.6 87041.9 87043.5 87045.7
          87048.9 87054.1 87075.5 87075.5 87057.2 87058.3 87057.1 87056.3 87055.6 87055.1 87055.1 87055.5
          87056.5 87058.4 87061.3 87065.5 87071.4 87079.1 87088.9 87101.6 87100.4 87085.1 87072.9 87062.7
          87054.4 87047.8 87042.5 87038.3 87035 87032.5 87030.5 87029.1 87028 87027.2 87026.6 87026.2
          87025.9 87025.7 87025.6 87025.5 87025.5 87025.6 87025.8 87026 87026.4 87026.9 87027.6 87028.6
          87029.8 87031.5 87033.6 87037.1 87040.7 87075.5 87075.5 87043.3 87046.6 87045 87044.2 87043.5
          87043.1 87043 87043.4 87044.4 87046.3 87049.2 87053.5 87059.3 87067 87076.7 84991.5 84990.2
          87072.9 87060.8 87050.6 87042.3 87035.7 87030.4 87026.2 87023 87020.4 87018.4 87017 87016
          87015.2 87014.6 87014.2 87013.9 87013.7 87013.5 87013.5 87013.5 87013.6 87013.7 87014 87014.3
          87014.8 87015.5 87016.5 87017.8 87019.4 87021.5 87025.3 87026.8 87075.5
        </DataArray>
        <DataArray type="Float32" Name="pn" NumberOfComponents="1" format="ascii">
          147725 147743 137915 137936 147743 137935 147740 137933 147739 137932 147738 137931
          147738 137930 147737 137930 147737 137930 147738 137931 147740 137932 147742 137935
          147746 137939 147752 137944 147759 137952 147768 137961 147778 137971 147776 137969
          147764 137957 147752 137945 147742 137934 147733 137926 147727 137920 147722 137914
          147717 137910 147714 137907 147712 137904 147703 137896 147659 137852 147609 137802
          147560 137753 147510 137703 147461 137654 147412 137605 147363 137556 147313 137506
          147265 137457 147215 137408 147165 137358 147114 137307 147064 137257 147014 137207
          146962 137155 146909 137102 146854 137047 146798 136991 146736 136929 146662 136855
          146540 136734 146212 136409 145273 135463 128105 128130 128128 128126 128125 128124
          128123 128123 128123 128124 128125 128128 128132 128137 128145 128154 128164 128162
          128150 128138 128127 128119 128113 128107 128103 128100 128097 128089 128044 127995
          127946 127896 127846 127798 127748 127699 127650 127601 127551 127500 127450 127400
          127348 127295 127241 127184 127123 127050 126930 126616 125653 118295 118324 118321
          118319 118318 118317 118316 118316 118316 118317 118318 118321 118325 118330 118338
          118347 118357 118356 118343 118331 118321 118312 118306 118300 118296 118293 118290
          118283 118237 118188 118138 118089 118039 117991 117941 117891 117843 117794 117744
          117693 117643 117593 117542 117489 117435 117379 117318 117246 117128 116831 115843
          108485 108518 108513 108512 108511 108510 108509 108509 108509 108510 108511 108514
          108518 108524 108531 108541 108551 108550 108536 108524 108514 108505 108499 108493
          108489 108486 108483 108478 108430 108381 108331 108282 108232 108184 108134 108084
          108036 107987 107937 107886 107837 107787 107736 107684 107630 107574 107514 107444
          107328 107057 106033 98675.2 98713.4 98706 98704.6 98703.5 98702.6 98702 98701.8 98702
          98702.9 98704.6 98707.3 98711.4 98717.1 98724.6 98734.3 98745.5 98744.1 98730 98717.5 98707.2
          98698.8 98692 98686.6 98682.2 98678.8 98676 98673.4 98623.2 98573.9 98524.5 98475 98425.1
          98376.9 98327.8 98277.4 98230.1 98181.1 98131.2 98081.5 98032.6 97985.6 97935.9 97887.9 97839.1
          97791.8 97743.6 97697 97650 97608.5 97547 90189.7 90163.6 90110.6 90059.9 90010.2 89960.8
          89911.6 89862.8 89814.4 89766.7 89718.4 89672.5 89628 89583.7 89542.6 89503.8 89466.6 89416.6
          89353.8 89292.6 89232.2 89175.2 89118.4 89064.4 89011.4 88959.4 88908.1 88866.3 88816.3 88766.8
          88717.5 88668 88618.1 88569.9 88520.7 88470.4 88423 88373.9 88324.1 88274.2 88225.3 88178.1
          88128.3 88080 88031.2 87983.5 87935.3 87888.3 87841.6 87799.5 87737.6 87075.5 87084.4 87082.1
          87081.3 87080.4 87079.7 87079.3 87079.2 87079.6 87080.6 87082.5 87085.4 87089.7 87095.5 87103.2
          87113.1 87124.8 87123.6 87109.4 87097 87086.8 87078.5 87071.9 87066.6 87062.4 87059.2 87056.6
          87054.6 87053.2 87052.1 87051.4 87050.8 87050.4 87050.1 87049.8 87049.7 87049.7 87049.7 87049.7
          87049.9 87050.1 87050.5 87051 87051.7 87052.7 87053.9 87055.6 87057.8 87060.8 87067.3 87075.5
          87075.5 87070.8 87070.2 87069.2 87068.3 87067.6 87067.2 87067.1 87067.5 87068.6 87070.4 87073.4
          87077.6 87083.4 87091.1 87101 87113.1 87111.9 87097.2 87084.9 87074.7 87066.5 87059.8 87054.5
          87050.4 87047.1 87044.5 87042.5 87041.1 87040.1 87039.3 87038.7 87038.3 87038 87037.8 87037.7
          87037.6 87037.6 87037.7 87037.8 87038.1 87038.4 87038.9 87039.6 87040.6 87041.9 87043.5 87045.7
          87048.9 87054.1 87075.5 87075.5 87057.2 87058.3 87057.1 87056.3 87055.6 87055.1 87055.1 87055.5
          87056.5 87058.4 87061.3 87065.5 87071.4 87079.1 87088.9 87101.6 87100.4 87085.1 87072.9 87062.7
          87054.4 87047.8 87042.5 87038.3 87035 87032.5 87030.5 87029.1 87028 87027.2 87026.6 87026.2
          87025.9 87025.7 87025.6 87025.5 87025.5 87025.6 87025.8 87026 87026.4 87026.9 87027.6 87028.6
          87029.8 87031.5 87033.6 87037.1 87040.7 87075.5 87075.5 87043.3 87046.6 87045 87044.2 87043.5
          87043.1 87043 87043.4 87044.4 87046.3 87049.2 87053.5 87059.3 87067 87076.7 88825.8 88824.5
          87072.9 87060.8 87050.6 87042.3 87035.7 87030.4 87026.2 87023 87020.4 87018.4 87017 87016
          87015.2 87014.6 87014.2 87013.9 87013.7 87013.5 87013.5 87013.5 87013.6 87013.7 87014 87014.3
          87014.8 87015.5 87016.5 87017.8 87019.4 87021.5 87025.3 87026.8 87075.5
        </DataArray>
        <DataArray type="Float32" Name="pg" NumberOfComponents="1" format="ascii">
          149050 149067 139240 139261 149068 139260 149065 139258 149064 139257 149063 139256
          149062 139255 149062 139255 149062 139255 149063 139255 149064 139257 149067 139259
          149071 139263 149076 139269 149083 139276 149093 139285 149102 139295 149101 139293
          149088 139281 149076 139269 149066 139259 149058 139250 149051 139244 149046 139238
          149042 139234 149038 139231 149036 139228 149027 139220 148983 139176 148933 139126
          148884 139077 148834 139027 148785 138978 148736 138929 148687 138879 148637 138830
          148588 138781 148539 138732 148489 138682 148438 138631 148388 138581 148338 138531
          148286 138479 148233 138426 148178 138371 148122 138314 148060 138253 147986 138179
          147864 138058 147536 137734 146598 136788 129430 129454 129453 129451 129449 129448
          129448 129447 129448 129448 129450 129452 129456 129462 129469 129478 129488 129486
          129474 129462 129451 129443 129437 129431 129427 129424 129421 129413 129368 129319
          129269 129220 129170 129122 129072 129022 128974 128925 128874 128824 128774 128724
          128672 128619 128565 128508 128447 128374 128254 127940 126978 119620 119648 119645
          119643 119642 119641 119641 119640 119640 119641 119643 119645 119649 119655 119662
          119672 119681 119680 119667 119655 119645 119636 119629 119624 119620 119616 119614
          119607 119561 119512 119462 119413 119363 119314 119265 119215 119167 119118 119067
          119017 118967 118917 118865 118813 118759 118703 118642 118570 118452 118155 117168
          109810 109843 109838 109836 109835 109834 109834 109833 109833 109834 109836 109838
          109842 109848 109855 109865 109875 109874 109860 109848 109838 109829 109823 109817
          109813 109809 109807 109802 109754 109704 109655 109606 109556 109507 109458 109408
          109360 109311 109261 109210 109160 109111 109059 109007 108953 108898 108838 108768
          108652 108381 107358 100000 100039 100031 100030 100029 100028 100028 100028 100028
          100029 100031 100034 100038 100044 100052 100062 100073 100072 100058 100046 100035
          100027 100021 100015 100011 100008 100005 100003 100002 100001 100000 99999.4 99999
          99998.7 99998.5 99998.4 99998.3 99998.3 99998.4 99998.5 99998.8 99999.1 99999.6 100000 100001
          100003 100004 100006 100009 100019 100000 100000 100023 100018 100018 100017 100016
          100016 100016 100016 100017 100019 100022 100026 100032 100040 100050 100061 100060
          100046 100034 100023 100015 100008 100003 99999 99995.8 99993.2 99991.2 99989.8 99988.7
          99987.9 99987.4 99986.9 99986.6 99986.4 99986.3 99986.2 99986.3 99986.3 99986.5 99986.7 99987.1
          99987.6 99988.3 99989.3 99990.5 99992.2 99994.4 99997.1 100005 100000 100000 100009 100007
          100006 100005 100004 100004 100004 100004 100005 100007 100010 100014 100020 100028
          100038 100049 100048 100034 100022 100011 100003 99996.4 99991.1 99987 99983.7 99981.1
          99979.1 99977.7 99976.7 99975.9 99975.3 99974.9 99974.6 99974.4 99974.3 99974.2 99974.2 99974.3
          99974.4 99974.7 99975 99975.5 99976.2 99977.2 99978.5 99980.1 99982.3 99985.3 99991.8 100000
          100000 99995.4 99994.7 99993.7 99992.8 99992.2 99991.7 99991.6 99992.1 99993.1 99995 99997.9
          100002 100008 100016 100026 100038 100036 100022 100009 99999.3 99991 99984.4 99979.1
          99974.9 99971.6 99969 99967 99965.6 99964.6 99963.8 99963.2 99962.8 99962.5 99962.3 99962.2
          99962.1 99962.1 99962.2 99962.4 99962.6 99963 99963.5 99964.2 99965.1 99966.4 99968.1 99970.2
          99973.5 99978.6 100000 100000 99981.7 99982.9 99981.6 99980.8 99980.1 99979.7 99979.6 99980
          99981 99982.9 99985.8 99990.1 99995.9 100004 100013 100026 100025 100010 99997.4 99987.2
          99978.9 99972.3 99967 99962.8 99959.6 99957 99955 99953.6 99952.5 99951.8 99951.2 99950.8
          99950.5 99950.2 99950.1 99950.1 99950.1 99950.1 99950.3 99950.5 99950.9 99951.4 99952.1 99953.1
          99954.4 99956 99958.2 99961.6 99965.2 100000 100000 99967.8 99971.1 99969.5 99968.7 99968
          99967.6 99967.5 99967.9 99969 99970.8 99973.8 99978 99983.8 99991.6 100001 100015 100014
          99997.4 99985.3 99975.1 99966.9 99960.2 99955 99950.8 99947.5 99944.9 99942.9 99941.5 99940.5
          99939.7 99939.1 99938.7 99938.4 99938.2 99938.1 99938 99938 99938.1 99938.2 99938.5 99938.8
          99939.4 99940.1 99941 99942.3 99944 99946.1 99949.8 99951.4 100000
        </DataArray>
        <DataArray type="Float32" Name="rhow" NumberOfComponents="1" format="ascii">
          999.724 999.724 999.719 999.719 999.724 999.719 999.724 999.719 999.724 999.719 999.724 999.719
          999.724 999.719 999.724 999.719 999.724 999.719 999.724 999.719 999.724 999.719 999.724 999.719
          999.724 999.719 999.724 999.719 999.724 999.719 999.724 999.719 999.724 999.719 999.724 999.719
          999.724 999.719 999.724 999.719 999.724 999.719 999.724 999.719 999.724 999.719 999.724 999.719
          999.724 999.719 999.724 999.719 999.724 999.719 999.724 999.719 999.724 999.719 999.724 999.719
          999.724 999.719 999.724 999.719 999.724 999.719 999.724 999.719 999.724 999.719 999.724 999.719
          999.724 999.719 999.724 999.719 999.724 999.719 999.724 999.719 999.724 999.719 999.724 999.719
          999.724 999.719 999.724 999.719 999.724 999.719 999.724 999.719 999.723 999.719 999.723 999.719
          999.723 999.719 999.723 999.719 999.723 999.718 999.715 999.715 999.715 999.715 999.715 999.715
          999.715 999.715 999.715 999.715 999.715 999.715 999.715 999.715 999.715 999.715 999.715 999.715
          999.715 999.715 999.715 999.715 999.715 999.715 999.715 999.715 999.715 999.715 999.715 999.715
          999.714 999.714 999.714 999.714 999.714 999.714 999.714 999.714 999.714 999.714 999.714 999.714
          999.714 999.714 999.714 999.714 999.714 999.714 999.714 999.714 999.713 999.71 999.71 999.71
          999.71 999.71 999.71 999.71 999.71 999.71 999.71 999.71 999.71 999.71 999.71 999.71
          999.71 999.71 999.71 999.71 999.71 999.71 999.71 999.71 999.71 999.71 999.71 999.71
          999.71 999.71 999.71 999.71 999.71 999.71 999.71 999.71 999.71 999.71 999.71 999.71
          999.71 999.71 999.71 999.71 999.709 999.709 999.709 999.709 999.709 999.709 999.709 999.709
          999.705 999.705 999.705 999.705 999.705 999.705 999.705 999.705 999.705 999.705 999.705 999.705
          999.705 999.705 999.705 999.705 999.705 999.705 999.705 999.705 999.705 999.705 999.705 999.705
          999.705 999.705 999.705 999.705 999.705 999.705 999.705 999.705 999.705 999.705 999.705 999.705
          999.705 999.705 999.705 999.705 999.705 999.705 999.705 999.705 999.705 999.705 999.705 999.705
          999.705 999.705 999.704 999.701 999.701 999.701 999.701 999.701 999.701 999.701 999.701 999.701
          999.701 999.701 999.701 999.701 999.701 999.701 999.701 999.701 999.701 999.701 999.701 999.701
          999.701 999.701 999.701 999.701 999.701 999.701 999.701 999.701 999.7 999.7 999.7 999.7
          999.7 999.7 999.7 999.7 999.7 999.7 999.7 999.7 999.7 999.7 999.7 999.7
          999.7 999.7 999.7 999.7 999.7 999.7 999.696 999.696 999.696 999.696 999.696 999.696
          999.696 999.696 999.696 999.696 999.696 999.696 999.696 999.696 999.696 999.696 999.696 999.696
          999.696 999.696 999.696 999.696 999.696 999.696 999.696 999.696 999.696 999.696 999.696 999.696
          999.696 999.696 999.696 999.696 999.696 999.696 999.696 999.696 999.696 999.696 999.695 999.695
          999.695 999.695 999.695 999.695 999.695 999.695 999.695 999.695 999.695 999.695 999.695 999.695
          999.695 999.695 999.695 999.695 999.695 999.695 999.695 999.695 999.695 999.695 999.695 999.695
          999.695 999.695 999.695 999.695 999.695 999.695 999.695 999.695 999.695 999.695 999.695 999.695
          999.695 999.695 999.695 999.695 999.695 999.695 999.695 999.695 999.695 999.695 999.695 999.695
          999.695 999.695 999.695 999.695 999.695 999.695 999.695 999.695 999.695 999.695 999.695 999.695
          999.695 999.695 999.695 999.695 999.695 999.695 999.695 999.695 999.695 999.695 999.695 999.695
          999.695 999.695 999.695 999.695 999.695 999.695 999.695 999.695 999.695 999.695 999.695 999.695
          999.695 999.695 999.695 999.695 999.695 999.695 999.695 999.695 999.695 999.695 999.695 999.695
          999.695 999.695 999.695 999.695 999.695 999.695 999.695 999.695 999.695 999.695 999.695 999.695