<?xml version="1.0"?>
<VTKFile type="UnstructuredGrid" version="0.1" byte_order="LittleEndian">
  <UnstructuredGrid>
    <Piece NumberOfCells="160" NumberOfPoints="205">
      <CellData Scalars="Sw">
        <DataArray type="Float32" Name="Sw" NumberOfComponents="1" format="ascii">
          0.97 0.97 0.97 0.97 0.97 0.969999 0.969999 0.969999 0.97 0.97 0.97 0.97
          0.97 0.97 0.97 0.97 0.97 0.97 0.97 0.97 0.97 0.97 0.97 0.97
          0.97 0.97 0.97 0.97 0.97 0.97 0.97 0.97 0.97 0.97 0.97 0.97
          0.97 0.97 0.97 0.97 0.97 0.969999 0.969999 0.969998 0.969998 0.969997 0.969997 0.969998
          0.969998 0.969998 0.969998 0.969998 0.969998 0.969998 0.969998 0.969998 0.969998 0.969998 0.969998 0.969998
          0.969998 0.969999 0.969999 0.969999 0.969999 0.969999 0.969999 0.969999 0.969999 0.969999 0.969999 0.969999
          0.969999 0.969999 0.97 0.97 0.97 0.97 0.97 0.97 0.120239 0.120064 0.12 0.12
          0.121341 0.121134 0.12 0.12 0.12 0.12 0.12 0.12 0.12 0.12 0.12 0.12
          0.12 0.12 0.12 0.12 0.12 0.12 0.12 0.12 0.12 0.12 0.12 0.12
          0.12 0.12 0.12 0.12 0.12 0.12 0.12 0.12 0.12 0.12 0.12 0.12
          0.12 0.12 0.12 0.12 0.120001 0.120001 0.12 0.12 0.12 0.12 0.12 0.12
          0.12 0.12 0.12 0.12 0.12 0.12 0.12 0.12 0.12 0.12 0.12 0.12
          0.12 0.12 0.12 0.12 0.12 0.12 0.12 0.12 0.12 0.12 0.12 0.12
          0.12 0.12 0.12 0.12
        </DataArray>
        <DataArray type="Float32" Name="Sn" NumberOfComponents="1" format="ascii">
          0 0 0 0 0 0 0 0 0 0 0 0
          0 0 0 0 0 0 0 0 0 0 0 0
          0 0 0 0 0 0 0 0 0 0 0 0
          0 0 0 0 0 0 0 0 0 0 0 0
          0 0 0 0 0 0 0 0 0 0 0 0
          0 0 0 0 0 0 0 0 0 0 0 0
          0 0 0 0 0 0 0 0 0 0 0 0
          0.0176262 0.017643 0 0 0 0 0 0 0 0 0 0
          0 0 0 0 0 0 0 0 0 0 0 0
          0 0 0 0 0 0 0 0 0 0 0 0
          0 0 0 0.000185805 0.10014 0.100123 0.000185334 0 0 0 0 0
          0 0 0 0 0 0 0 0 0 0 0 0
          0 0 0 0 0 0 0 0 0 0 0 0
          0 0 0 0
        </DataArray>
        <DataArray type="Float32" Name="Sg" NumberOfComponents="1" format="ascii">
          0.0300001 0.0300002 0.0300003 0.0300004 0.0300005 0.0300005 0.0300005 0.0300005 0.0300005 0.0300004 0.0300004 0.0300004
          0.0300004 0.0300004 0.0300004 0.0300004 0.0300003 0.0300003 0.0300003 0.0300003 0.0300003 0.0300003 0.0300002 0.0300002
          0.0300002 0.0300002 0.0300002 0.0300002 0.0300002 0.0300001 0.0300001 0.0300001 0.0300001 0.0300001 0.0300001 0.0300001
          0.03 0.03 0.03 0.03 0.0300003 0.0300008 0.0300013 0.0300019 0.0300024 0.0300027 0.0300026 0.0300025
          0.0300024 0.0300023 0.0300023 0.0300022 0.0300021 0.030002 0.030002 0.0300019 0.0300018 0.0300017 0.0300017 0.0300016
          0.0300015 0.0300015 0.0300014 0.0300013 0.0300012 0.0300012 0.0300011 0.030001 0.0300009 0.0300008 0.0300008 0.0300007
          0.0300006 0.0300005 0.0300005 0.0300004 0.0300003 0.0300002 0.0300001 0.0300001 0.879761 0.879936 0.88 0.88
          0.861033 0.861223 0.88 0.88 0.88 0.88 0.88 0.88 0.88 0.88 0.88 0.88
          0.88 0.88 0.88 0.88 0.88 0.88 0.88 0.88 0.88 0.88 0.88 0.88
          0.88 0.88 0.88 0.88 0.88 0.88 0.88 0.88 0.88 0.88 0.88 0.88
          0.88 0.88 0.88 0.879814 0.77986 0.779876 0.879814 0.88 0.88 0.88 0.88 0.88
          0.88 0.88 0.88 0.88 0.88 0.88 0.88 0.88 0.88 0.88 0.88 0.88
          0.88 0.88 0.88 0.88 0.88 0.88 0.88 0.88 0.88 0.88 0.88 0.88
          0.88 0.88 0.88 0.88
        </DataArray>
        <DataArray type="Float32" Name="pw" NumberOfComponents="1" format="ascii">
          135797 135689 135580 135472 135364 135285 135231 135177 135123 135069 135015 134961
          134906 134852 134798 134743 134689 134634 134580 134525 134471 134416 134361 134306
          134252 134197 134142 134087 134032 133977 133922 133867 133812 133757 133702 133647
          133592 133537 133481 133426 111279 111170 111062 110954 110845 110766 110713 110659
          110605 110551 110497 110442 110388 110334 110280 110225 110171 110116 110062 110007
          109952 109898 109843 109788 109733 109679 109624 109569 109514 109459 109404 109349
          109294 109239 109184 109129 109073 109018 108963 108908 87723.5 87666.9 87649.1 87653.9
          86324.1 86245.7 87660.6 87659.9 87659.4 87658.8 87658.2 87657.6 87657 87656.4 87655.8 87655.1
          87654.5 87653.8 87653.1 87652.4 87651.8 87651.1 87650.4 87649.7 87649 87648.2 87647.5 87646.8
          87646.1 87645.3 87644.6 87643.8 87643.1 87642.3 87641.6 87640.8 87640.1 87639.3 87638.6 87637.2
          87610.3 87614.4 87619.1 87623.8 83559.8 83561.8 87630.5 87629.9 87629.3 87628.7 87628.2 87627.6
          87627 87626.3 87625.7 87625.1 87624.4 87623.8 87623.1 87622.4 87621.7 87621 87620.3 87619.6
          87618.9 87618.2 87617.5 87616.8 87616 87615.3 87614.5 87613.8 87613.1 87612.3 87611.6 87610.8
          87610.1 87609.3 87608.6 87608.4
        </DataArray>
        <DataArray type="Float32" Name="pn" NumberOfComponents="1" format="ascii">
          135797 135689 135580 135472 135364 135285 135231 135177 135123 135069 135015 134961
          134906 134852 134798 134743 134689 134634 134580 134525 134471 134416 134361 134306
          134252 134197 134142 134087 134032 133977 133922 133867 133812 133757 133702 133647
          133592 133537 133481 133426 111279 111170 111062 110954 110845 110766 110713 110659
          110605 110551 110497 110442 110388 110334 110280 110225 110171 110116 110062 110007
          109952 109898 109843 109788 109733 109679 109624 109569 109514 109459 109404 109349
          109294 109239 109184 109129 109073 109018 108963 108908 87723.5 87666.9 87649.1 87653.9
          89321.9 89264.7 87660.6 87659.9 87659.4 87658.8 87658.2 87657.6 87657 87656.4 87655.8 87655.1
          87654.5 87653.8 87653.1 87652.4 87651.8 87651.1 87650.4 87649.7 87649 87648.2 87647.5 87646.8
          87646.1 87645.3 87644.6 87643.8 87643.1 87642.3 87641.6 87640.8 87640.1 87639.3 87638.6 87637.2
          87610.3 87614.4 87619.1 87623.8 95937.2 95939.2 87630.5 87629.9 87629.3 87628.7 87628.2 87627.6
          87627 87626.3 87625.7 87625.1 87624.4 87623.8 87623.1 87622.4 87621.7 87621 87620.3 87619.6
          87618.9 87618.2 87617.5 87616.8 87616 87615.3 87614.5 87613.8 87613.1 87612.3 87611.6 87610.8
          87610.1 87609.3 87608.6 87608.4
        </DataArray>
        <DataArray type="Float32" Name="pg" NumberOfComponents="1" format="ascii">
          136730 136622 136513 136405 136297 136218 136164 136110 136056 136002 135948 135894
          135839 135785 135731 135676 135622 135567 135513 135458 135404 135349 135294 135239
          135184 135130 135075 135020 134965 134910 134855 134800 134745 134690 134635 134580
          134525 134469 134414 134359 112212 112103 111995 111887 111778 111699 111645 111592
          111538 111484 111429 111375 111321 111267 111212 111158 111104 111049 110994 110940
          110885 110831 110776 110721 110666 110611 110557 110502 110447 110392 110337 110282
          110227 110172 110117 110061 110006 109951 109896 109841 100017 100022 100027 100031
          100036 100039 100038 100037 100037 100036 100036 100035 100035 100034 100033 100033
          100032 100031 100031 100030 100029 100029 100028 100027 100027 100026 100025 100024
          100024 100023 100022 100021 100021 100020 100019 100018 100018 100017 100016 100015
          99987.9 99992 99996.6 100001 100006 100008 100008 100007 100007 100006 100006 100005
          100005 100004 100003 100003 100002 100001 100001 100000 99999.3 99998.6 99997.9 99997.2
          99996.5 99995.8 99995.1 99994.3 99993.6 99992.9 99992.1 99991.4 99990.6 99989.9 99989.1 99988.4
          99987.6 99986.9 99986.1 99985.9
        </DataArray>
        <DataArray type="Float32" Name="rhow" NumberOfComponents="1" format="ascii">
          999.733 999.733 999.733 999.733 999.733 999.733 999.733 999.733 999.733 999.733 999.733 999.733
          999.733 999.733 999.733 999.733 999.733 999.733 999.733 999.733 999.733 999.733 999.733 999.733
          999.732 999.732 999.732 999.732 999.732 999.732 999.732 999.732 999.732 999.732 999.732 999.732
          999.732 999.732 999.732 999.732 999.719 999.719 999.719 999.719 999.719 999.719 999.719 999.719
          999.719 999.719 999.719 999.718 999.718 999.718 999.718 999.718 999.718 999.718 999.718 999.718
          999.718 999.718 999.718 999.718 999.718 999.718 999.718 999.718 999.718 999.718 999.718 999.718
          999.718 999.718 999.718 999.718 999.718 999.718 999.718 999.718 999.706 999.706 999.707 999.717
          999.725 999.725 999.716 999.707 999.706 999.706 999.706 999.706 999.706 999.706 999.706 999.706
          999.706 999.706 999.706 999.706 999.706 999.706 999.706 999.706 999.706 999.706 999.706 999.706
          999.706 999.706 999.706 999.706 999.706 999.706 999.706 999.706 999.706 999.706 999.706 999.706
          999.706 999.706 999.708 999.726 999.724 999.724 999.726 999.707 999.706 999.706 999.706 999.706
          999.706 999.706 999.706 999.706 999.706 999.706 999.706 999.706 999.706 999.706 999.706 999.706
          999.706 999.706 999.706 999.706 999.706 999.706 999.706 999.706 999.706 999.706 999.706 999.706
          999.706 999.706 999.706 999.706
        </DataArray>
        <DataArray type="Float32" Name="rhon" NumberOfComponents="1" format="ascii">
          878.771 878.771 878.771 878.771 878.771 878.771 878.771 878.771 878.771 878.771 878.771 878.771
          878.771 878.771 878.771 878.771 878.771 878.771 878.771 878.771 878.771 878.771 878.771 878.771
          878.771 878.771 878.771 878.771 878.771 878.771 878.771 878.771 878.771 878.771 878.771 878.771
          878.771 878.771 878.771 878.771 878.771 878.771 878.771 878.771 878.771 878.771 878.771 878.771
          878.771 878.771 878.771 878.771 878.771 878.771 878.771 878.771 878.771 878.771 878.771 878.771
          878.771 878.771 878.771 878.771 878.771 878.771 878.771 878.771 878.771 878.771 878.771 878.771
          878.771 878.771 878.771 878.771 878.771 878.771 878.771 878.771 878.771 878.771 878.771 878.771
          878.771 878.771 878.771 878.771 878.771 878.771 878.771 878.771 878.771 878.771 878.771 878.771
          878.771 878.771 878.771 878.771 878.771 878.771 878.771 878.771 878.771 878.771 878.771 878.771
          878.771 878.771 878.771 878.771 878.771 878.771 878.771 878.771 878.771 878.771 878.771 878.771
          878.771 878.771 878.771 878.771 878.771 878.771 878.771 878.771 878.771 878.771 878.771 878.771
          878.771 878.771 878.771 878.771 878.771 878.771 878.771 878.771 878.771 878.771 878.771 878.771
          878.771 878.771 878.771 878.771 878.771 878.771 878.771 878.771 878.771 878.771 878.771 878.771
          878.771 878.771 878.771 878.771
        </DataArray>
        <DataArray type="Float32" Name="rhog" NumberOfComponents="1" format="ascii">
          1.67625 1.67491 1.67358 1.67225 1.67092 1.66995 1.66928 1.66862 1.66795 1.66729 1.66662 1.66596
          1.66529 1.66462 1.66395 1.66328 1.66261 1.66194 1.66127 1.6606 1.65993 1.65926 1.65858 1.65791
          1.65723 1.65656 1.65588 1.65521 1.65453 1.65386 1.65318 1.6525 1.65183 1.65115 1.65047 1.64979
          1.64912 1.64844 1.64776 1.64708 1.37464 1.37331 1.37197 1.37064 1.36931 1.36835 1.36768 1.36701
          1.36635 1.36568 1.36502 1.36435 1.36368 1.36302 1.36235 1.36168 1.36101 1.36034 1.35967 1.359
          1.35832 1.35765 1.35698 1.3563 1.35563 1.35495 1.35428 1.3536 1.35293 1.35225 1.35158 1.3509
          1.35022 1.34954 1.34887 1.34819 1.34751 1.34683 1.34616 1.34548 1.22463 1.22471 1.22496 1.22718
          1.22922 1.22925 1.22714 1.22497 1.22488 1.22487 1.22486 1.22485 1.22485 1.22484 1.22483 1.22482
          1.22482 1.22481 1.2248 1.22479 1.22478 1.22477 1.22477 1.22476 1.22475 1.22474 1.22473 1.22472
          1.22471 1.2247 1.22469 1.22469 1.22468 1.22467 1.22466 1.22465 1.22464 1.22463 1.22462 1.2246
          1.22427 1.22434 1.22468 1.22879 1.22885 1.22888 1.22887 1.22465 1.22451 1.2245 1.22449 1.22449
          1.22448 1.22447 1.22446 1.22445 1.22445 1.22444 1.22443 1.22442 1.22441 1.2244 1.2244 1.22439
          1.22438 1.22437 1.22436 1.22435 1.22434 1.22433 1.22432 1.22432 1.22431 1.2243 1.22429 1.22428
          1.22427 1.22426 1.22425 1.22425
        </DataArray>
        <DataArray type="Float32" Name="x^H2O_w" NumberOfComponents="1" format="ascii">
          0.999975 0.999975 0.999975 0.999975 0.999975 0.999975 0.999975 0.999975 0.999975 0.999975 0.999975 0.999975
          0.999975 0.999975 0.999975 0.999975 0.999975 0.999975 0.999975 0.999975 0.999975 0.999975 0.999975 0.999975
          0.999975 0.999975 0.999975 0.999975 0.999975 0.999975 0.999975 0.999975 0.999975 0.999975 0.999975 0.999975
          0.999975 0.999975 0.999975 0.999976 0.99998 0.99998 0.99998 0.99998 0.99998 0.99998 0.99998 0.99998
          0.99998 0.99998 0.99998 0.99998 0.99998 0.99998 0.99998 0.99998 0.99998 0.99998 0.99998 0.99998
          0.99998 0.99998 0.99998 0.99998 0.99998 0.99998 0.99998 0.99998 0.99998 0.99998 0.99998 0.99998
          0.99998 0.99998 0.99998 0.99998 0.99998 0.99998 0.99998 0.99998 0.999982 0.999982 0.999982 0.99998
          0.999978 0.999978 0.99998 0.999982 0.999982 0.999982 0.999982 0.999982 0.999982 0.999982 0.999982 0.999982
          0.999982 0.999982 0.999982 0.999982 0.999982 0.999982 0.999982 0.999982 0.999982 0.999982 0.999982 0.999982
          0.999982 0.999982 0.999982 0.999982 0.999982 0.999982 0.999982 0.999982 0.999982 0.999982 0.999982 0.999982
          0.999982 0.999982 0.999982 0.999978 0.999978 0.999978 0.999978 0.999982 0.999982 0.999982 0.999982 0.999982
          0.999982 0.999982 0.999982 0.999982 0.999982 0.999982 0.999982 0.999982 0.999982 0.999982 0.999982 0.999982
          0.999982 0.999982 0.999982 0.999982 0.999982 0.999982 0.999982 0.999982 0.999982 0.999982 0.999982 0.999982
          0.999982 0.999982 0.999982 0.999982
        </DataArray>
        <DataArray type="Float32" Name="x^mesitylene_w" NumberOfComponents="1" format="ascii">
          4.13449e-09 4.13262e-09 4.13075e-09 4.12887e-09 4.12734e-09 4.12572e-09 4.12329e-09 4.12143e-09 4.11958e-09 4.11773e-09 4.11588e-09 4.11403e-09
          4.11218e-09 4.11033e-09 4.10848e-09 4.10663e-09 4.10478e-09 4.10293e-09 4.10108e-09 4.09923e-09 4.09737e-09 4.09552e-09 4.09367e-09 4.09182e-09
          4.08997e-09 4.08812e-09 4.08627e-09 4.08442e-09 4.08257e-09 4.08072e-09 4.07886e-09 4.07701e-09 4.07516e-09 4.07331e-09 4.07146e-09 4.06961e-09
          4.06776e-09 4.06591e-09 4.06406e-09 4.06221e-09 3.39368e-09 3.39146e-09 3.39026e-09 3.3976e-09 1.02979e-08 1.52346e-08 3.40598e-09 3.38059e-09
          3.37839e-09 3.37653e-09 3.37468e-09 3.37283e-09 3.37097e-09 3.36912e-09 3.36727e-09 3.36542e-09 3.36357e-09 3.36172e-09 3.35987e-09 3.35802e-09
          3.35617e-09 3.35432e-09 3.35247e-09 3.35062e-09 3.34876e-09 3.34691e-09 3.34506e-09 3.34321e-09 3.34136e-09 3.33951e-09 3.33766e-09 3.33581e-09
          3.33396e-09 3.33211e-09 3.33025e-09 3.3284e-09 3.32655e-09 3.3247e-09 3.32286e-09 3.3214e-09 3.52356e-09 1.29389e-08 1.65296e-07 1.85413e-06
          3.40605e-06 3.40605e-06 1.76405e-06 7.48282e-08 5.02948e-09 3.07128e-09 3.02519e-09 3.02419e-09 3.02416e-09 3.02415e-09 3.02414e-09 3.02412e-09
          3.02411e-09 3.0241e-09 3.02408e-09 3.02407e-09 3.02406e-09 3.02404e-09 3.02403e-09 3.02401e-09 3.024e-09 3.02399e-09 3.02397e-09 3.02396e-09
          3.02394e-09 3.02393e-09 3.02391e-09 3.0239e-09 3.02388e-09 3.02387e-09 3.02385e-09 3.02384e-09 3.02382e-09 3.02381e-09 3.02379e-09 3.02378e-09
          3.50851e-09 1.53035e-08 2.33945e-07 3.40605e-06 3.40605e-06 3.40605e-06 3.40605e-06 1.06892e-07 5.53224e-09 3.07741e-09 3.02442e-09 3.02333e-09
          3.0233e-09 3.02329e-09 3.02328e-09 3.02326e-09 3.02325e-09 3.02324e-09 3.02322e-09 3.02321e-09 3.0232e-09 3.02318e-09 3.02317e-09 3.02315e-09
          3.02314e-09 3.02313e-09 3.02311e-09 3.0231e-09 3.02308e-09 3.02307e-09 3.02305e-09 3.02304e-09 3.02302e-09 3.02301e-09 3.02299e-09 3.02298e-09
          3.02296e-09 3.02295e-09 3.02293e-09 3.02293e-09
        </DataArray>
        <DataArray type="Float32" Name="x^Air_w" NumberOfComponents="1" format="ascii">
          2.49527e-05 2.49327e-05 2.49127e-05 2.48928e-05 2.48729e-05 2.48584e-05 2.48484e-05 2.48384e-05 2.48285e-05 2.48186e-05 2.48086e-05 2.47986e-05
          2.47886e-05 2.47786e-05 2.47686e-05 2.47586e-05 2.47486e-05 2.47385e-05 2.47285e-05 2.47184e-05 2.47084e-05 2.46983e-05 2.46882e-05 2.46781e-05
          2.46681e-05 2.4658e-05 2.46478e-05 2.46377e-05 2.46276e-05 2.46175e-05 2.46074e-05 2.45972e-05 2.45871e-05 2.4577e-05 2.45668e-05 2.45567e-05
          2.45465e-05 2.45364e-05 2.45262e-05 2.45161e-05 2.04376e-05 2.04177e-05 2.03977e-05 2.03777e-05 2.03576e-05 2.03431e-05 2.03333e-05 2.03234e-05
          2.03135e-05 2.03035e-05 2.02936e-05 2.02836e-05 2.02736e-05 2.02636e-05 2.02536e-05 2.02436e-05 2.02336e-05 2.02235e-05 2.02135e-05 2.02034e-05
          2.01933e-05 2.01833e-05 2.01732e-05 2.01631e-05 2.0153e-05 2.01429e-05 2.01328e-05 2.01227e-05 2.01126e-05 2.01025e-05 2.00923e-05 2.00822e-05
          2.00721e-05 2.00619e-05 2.00518e-05 2.00416e-05 2.00315e-05 2.00213e-05 2.00112e-05 2.0001e-05 1.81919e-05 1.81928e-05 1.81928e-05 1.81833e-05
          1.81748e-05 1.81752e-05 1.81851e-05 1.81953e-05 1.81956e-05 1.81955e-05 1.81954e-05 1.81953e-05 1.81952e-05 1.81951e-05 1.8195e-05 1.81948e-05
          1.81947e-05 1.81946e-05 1.81945e-05 1.81944e-05 1.81942e-05 1.81941e-05 1.8194e-05 1.81938e-05 1.81937e-05 1.81936e-05 1.81934e-05 1.81933e-05
          1.81932e-05 1.8193e-05 1.81929e-05 1.81928e-05 1.81926e-05 1.81925e-05 1.81924e-05 1.81922e-05 1.81921e-05 1.81919e-05 1.81918e-05 1.81916e-05
          1.81866e-05 1.81873e-05 1.81868e-05 1.81683e-05 1.81693e-05 1.81697e-05 1.81696e-05 1.81896e-05 1.81901e-05 1.819e-05 1.81899e-05 1.81898e-05
          1.81897e-05 1.81896e-05 1.81894e-05 1.81893e-05 1.81892e-05 1.81891e-05 1.8189e-05 1.81888e-05 1.81887e-05 1.81886e-05 1.81884e-05 1.81883e-05
          1.81882e-05 1.81881e-05 1.81879e-05 1.81878e-05 1.81876e-05 1.81875e-05 1.81874e-05 1.81872e-05 1.81871e-05 1.8187e-05 1.81868e-05 1.81867e-05
          1.81866e-05 1.81864e-05 1.81863e-05 1.81862e-05
        </DataArray>
        <DataArray type="Float32" Name="x^H2O_n" NumberOfComponents="1" format="ascii">
          1e-10 1e-10 1e-10 1e-10 1e-10 1e-10 1e-10 1e-10 1e-10 1e-10 1e-10 1e-10
          1e-10 1e-10 1e-10 1e-10 1e-10 1e-10 1e-10 1e-10 1e-10 1e-10 1e-10 1e-10
          1e-10 1e-10 1e-10 1e-10 1e-10 1e-10 1e-10 1e-10 1e-10 1e-10 1e-10 1e-10
          1e-10 1e-10 1e-10 1e-10 1e-10 1e-10 1e-10 1e-10 1e-10 1e-10 1e-10 1e-10
          1e-10 1e-10 1e-10 1e-10 1e-10 1e-10 1e-10 1e-10 1e-10 1e-10 1e-10 1e-10
          1e-10 1e-10 1e-10 1e-10 1e-10 1e-10 1e-10 1e-10 1e-10 1e-10 1e-10 1e-10
          1e-10 1e-10 1e-10 1e-10 1e-10 1e-10 1e-10 1e-10 1e-10 1e-10 1e-10 1e-10
          1e-10 1e-10 1e-10 1e-10 1e-10 1e-10 1e-10 1e-10 1e-10 1e-10 1e-10 1e-10
          1e-10 1e-10 1e-10 1e-10 1e-10 1e-10 1e-10 1e-10 1e-10 1e-10 1e-10 1e-10
          1e-10 1e-10 1e-10 1e-10 1e-10 1e-10 1e-10 1e-10 1e-10 1e-10 1e-10 1e-10
          1e-10 1e-10 1e-10 1e-10 1e-10 1e-10 1e-10 1e-10 1e-10 1e-10 1e-10 1e-10
          1e-10 1e-10 1e-10 1e-10 1e-10 1e-10 1e-10 1e-10 1e-10 1e-10 1e-10 1e-10
          1e-10 1e-10 1e-10 1e-10 1e-10 1e-10 1e-10 1e-10 1e-10 1e-10 1e-10 1e-10
          1e-10 1e-10 1e-10 1e-10
        </DataArray>
        <DataArray type="Float32" Name="x^mesitylene_n" NumberOfComponents="1" format="ascii">
          0.00121387 0.00121332 0.00121277 0.00121222 0.00121177 0.00121129 0.00121058 0.00121003 0.00120949 0.00120895 0.0012084 0.00120786
          0.00120732 0.00120677 0.00120623 0.00120569 0.00120514 0.0012046 0.00120406 0.00120351 0.00120297 0.00120243 0.00120188 0.00120134
          0.00120079 0.00120025 0.00119971 0.00119916 0.00119862 0.00119808 0.00119753 0.00119699 0.00119645 0.0011959 0.00119536 0.00119482
          0.00119427 0.00119373 0.00119319 0.00119264 0.000996369 0.000995716 0.000995364 0.000997518 0.00302343 0.00447281 0.00099998 0.000992523
          0.000991877 0.000991331 0.000990788 0.000990245 0.000989701 0.000989158 0.000988615 0.000988071 0.000987528 0.000986984 0.000986441 0.000985898
          0.000985354 0.000984811 0.000984267 0.000983724 0.000983181 0.000982637 0.000982094 0.00098155 0.000981007 0.000980463 0.00097992 0.000979376
          0.000978833 0.00097829 0.000977746 0.000977203 0.000976659 0.000976116 0.000975575 0.000975148 0.0010345 0.0037988 0.04853 0.544362
          1 1 0.517916 0.0219692 0.00147663 0.000901712 0.000888179 0.000887888 0.000887879 0.000887875 0.000887871 0.000887867
          0.000887864 0.00088786 0.000887856 0.000887852 0.000887848 0.000887844 0.00088784 0.000887836 0.000887831 0.000887827 0.000887823 0.000887819
          0.000887814 0.00088781 0.000887806 0.000887801 0.000887797 0.000887793 0.000887788 0.000887784 0.000887779 0.000887775 0.000887771 0.000887767
          0.00103008 0.00449304 0.068685 1 1 1 1 0.0313828 0.00162424 0.000903512 0.000887953 0.000887636
          0.000887626 0.000887622 0.000887619 0.000887615 0.000887611 0.000887607 0.000887603 0.000887599 0.000887595 0.000887591 0.000887587 0.000887583
          0.000887579 0.000887575 0.00088757 0.000887566 0.000887562 0.000887558 0.000887553 0.000887549 0.000887544 0.00088754 0.000887536 0.000887531
          0.000887527 0.000887522 0.000887518 0.000887518
        </DataArray>
        <DataArray type="Float32" Name="x^Air_n" NumberOfComponents="1" format="ascii">
          1e-10 1e-10 1e-10 1e-10 1e-10 1e-10 1e-10 1e-10 1e-10 1e-10 1e-10 1e-10
          1e-10 1e-10 1e-10 1e-10 1e-10 1e-10 1e-10 1e-10 1e-10 1e-10 1e-10 1e-10
          1e-10 1e-10 1e-10 1e-10 1e-10 1e-10 1e-10 1e-10 1e-10 1e-10 1e-10 1e-10
          1e-10 1e-10 1e-10 1e-10 1e-10 1e-10 1e-10 1e-10 1e-10 1e-10 1e-10 1e-10
          1e-10 1e-10 1e-10 1e-10 1e-10 1e-10 1e-10 1e-10 1e-10 1e-10 1e-10 1e-10
          1e-10 1e-10 1e-10 1e-10 1e-10 1e-10 1e-10 1e-10 1e-10 1e-10 1e-10 1e-10
          1e-10 1e-10 1e-10 1e-10 1e-10 1e-10 1e-10 1e-10 1e-10 1e-10 1e-10 1e-10
          1e-10 1e-10 1e-10 1e-10 1e-10 1e-10 1e-10 1e-10 1e-10 1e-10 1e-10 1e-10
          1e-10 1e-10 1e-10 1e-10 1e-10 1e-10 1e-10 1e-10 1e-10 1e-10 1e-10 1e-10
          1e-10 1e-10 1e-10 1e-10 1e-10 1e-10 1e-10 1e-10 1e-10 1e-10 1e-10 1e-10
          1e-10 1e-10 1e-10 1e-10 1e-10 1e-10 1e-10 1e-10 1e-10 1e-10 1e-10 1e-10
          1e-10 1e-10 1e-10 1e-10 1e-10 1e-10 1e-10 1e-10 1e-10 1e-10 1e-10 1e-10
          1e-10 1e-10 1e-10 1e-10 1e-10 1e-10 1e-10 1e-10 1e-10 1e-10 1e-10 1e-10
          1e-10 1e-10 1e-10 1e-10
        </DataArray>
        <DataArray type="Float32" Name="x^H2O_g" NumberOfComponents="1" format="ascii">
          0.00898254 0.00898967 0.00899681 0.00900396 0.00901109 0.00901631 0.00901991 0.00902348 0.00902706 0.00903064 0.00903424 0.00903784
          0.00904145 0.00904506 0.00904868 0.00905231 0.00905595 0.00905959 0.00906323 0.00906689 0.00907055 0.00907421 0.00907788 0.00908156
          0.00908524 0.00908893 0.00909262 0.00909632 0.00910002 0.00910373 0.00910744 0.00911116 0.00911488 0.00911861 0.00912234 0.00912607
          0.00912981 0.00913355 0.0091373 0.00914104 0.0109453 0.0109558 0.0109664 0.010977 0.0109878 0.0109955 0.0110008 0.0110061
          0.0110114 0.0110167 0.0110221 0.0110274 0.0110328 0.0110382 0.0110436 0.011049 0.0110544 0.0110598 0.0110653 0.0110707
          0.0110762 0.0110816 0.0110871 0.0110926 0.0110981 0.0111036 0.0111091 0.0111146 0.0111202 0.0111257 0.0111312 0.0111368
          0.0111424 0.0111479 0.0111535 0.0111591 0.0111647 0.0111703 0.0111759 0.0111815 0.0122798 0.0122791 0.0122786 0.012278
          0.0122774 0.0122771 0.0122772 0.0122772 0.0122773 0.0122774 0.0122774 0.0122775 0.0122776 0.0122777 0.0122777 0.0122778
          0.0122779 0.012278 0.0122781 0.0122782 0.0122782 0.0122783 0.0122784 0.0122785 0.0122786 0.0122787 0.0122788 0.0122788
          0.0122789 0.012279 0.0122791 0.0122792 0.0122793 0.0122794 0.0122795 0.0122796 0.0122797 0.0122798 0.0122799 0.01228
          0.0122833 0.0122828 0.0122823 0.0122817 0.0122811 0.0122808 0.0122809 0.0122809 0.012281 0.0122811 0.0122811 0.0122812
          0.0122813 0.0122814 0.0122814 0.0122815 0.0122816 0.0122817 0.0122818 0.0122818 0.0122819 0.012282 0.0122821 0.0122822
          0.0122823 0.0122824 0.0122824 0.0122825 0.0122826 0.0122827 0.0122828 0.0122829 0.012283 0.0122831 0.0122832 0.0122833
          0.0122834 0.0122835 0.0122835 0.0122836
        </DataArray>
        <DataArray type="Float32" Name="x^mesitylene_g" NumberOfComponents="1" format="ascii">
          1.00016e-06 1.0005e-06 1.00084e-06 1.00119e-06 1.00161e-06 1.00179e-06 1.0016e-06 1.00155e-06 1.0015e-06 1.00144e-06 1.00139e-06 1.00134e-06
          1.00129e-06 1.00124e-06 1.00119e-06 1.00114e-06 1.00109e-06 1.00104e-06 1.00099e-06 1.00094e-06 1.0009e-06 1.00085e-06 1.0008e-06 1.00075e-06
          1.00071e-06 1.00066e-06 1.00061e-06 1.00057e-06 1.00052e-06 1.00047e-06 1.00043e-06 1.00038e-06 1.00034e-06 1.00029e-06 1.00024e-06 1.0002e-06
          1.00015e-06 1.00011e-06 1.00006e-06 1.00002e-06 1.00034e-06 1.00065e-06 1.00126e-06 1.0044e-06 3.04726e-06 4.51124e-06 1.00905e-06 1.00201e-06
          1.00185e-06 1.00178e-06 1.00172e-06 1.00165e-06 1.00159e-06 1.00153e-06 1.00147e-06 1.00141e-06 1.00135e-06 1.00129e-06 1.00123e-06 1.00117e-06
          1.00111e-06 1.00105e-06 1.001e-06 1.00094e-06 1.00088e-06 1.00082e-06 1.00077e-06 1.00071e-06 1.00065e-06 1.0006e-06 1.00054e-06 1.00048e-06
          1.00043e-06 1.00037e-06 1.00032e-06 1.00026e-06 1.00021e-06 1.00015e-06 1.0001e-06 1.00016e-06 1.16526e-06 4.27873e-06 5.46587e-05 0.000613078
          0.00112618 0.00112615 0.000583255 2.47409e-05 1.66294e-06 1.01549e-06 1.00025e-06 9.9993e-07 9.99926e-07 9.99928e-07 9.9993e-07 9.99932e-07
          9.99934e-07 9.99937e-07 9.99939e-07 9.99941e-07 9.99943e-07 9.99946e-07 9.99948e-07 9.99951e-07 9.99953e-07 9.99955e-07 9.99958e-07 9.9996e-07
          9.99963e-07 9.99965e-07 9.99968e-07 9.9997e-07 9.99973e-07 9.99975e-07 9.99978e-07 9.99981e-07 9.99983e-07 9.99986e-07 9.99989e-07 9.99998e-07
          1.16062e-06 5.0622e-06 7.73822e-05 0.00112657 0.00112652 0.00112649 0.0011265 3.53528e-05 1.82972e-06 1.01782e-06 1.0003e-06 9.99946e-07
          9.99942e-07 9.99944e-07 9.99946e-07 9.99948e-07 9.9995e-07 9.99952e-07 9.99955e-07 9.99957e-07 9.99959e-07 9.99962e-07 9.99964e-07 9.99966e-07
          9.99969e-07 9.99971e-07 9.99974e-07 9.99976e-07 9.99979e-07 9.99981e-07 9.99984e-07 9.99986e-07 9.99989e-07 9.99991e-07 9.99994e-07 9.99996e-07
          9.99999e-07 1e-06 1e-06 1.00001e-06
        </DataArray>
        <DataArray type="Float32" Name="x^Air_g" NumberOfComponents="1" format="ascii">
          0.991016 0.991009 0.991002 0.990995 0.990988 0.990983 0.990979 0.990975 0.990972 0.990968 0.990965 0.990961
          0.990958 0.990954 0.99095 0.990947 0.990943 0.990939 0.990936 0.990932 0.990928 0.990925 0.990921 0.990917
          0.990914 0.99091 0.990906 0.990903 0.990899 0.990895 0.990892 0.990888 0.990884 0.99088 0.990877 0.990873
          0.990869 0.990865 0.990862 0.990858 0.989054 0.989043 0.989033 0.989022 0.989009 0.989 0.988998 0.988993
          0.988988 0.988982 0.988977 0.988972 0.988966 0.988961 0.988955 0.98895 0.988945 0.988939 0.988934 0.988928
          0.988923 0.988917 0.988912 0.988906 0.988901 0.988895 0.98889 0.988884 0.988879 0.988873 0.988868 0.988862
          0.988857 0.988851 0.988846 0.98884 0.988834 0.988829 0.988823 0.988818 0.987719 0.987717 0.987667 0.987109
          0.986596 0.986597 0.98714 0.987698 0.987721 0.987722 0.987722 0.987722 0.987721 0.987721 0.987721 0.987721
          0.987721 0.987721 0.987721 0.987721 0.987721 0.987721 0.987721 0.98772 0.98772 0.98772 0.98772 0.98772
          0.98772 0.98772 0.98772 0.98772 0.98772 0.98772 0.98772 0.987719 0.987719 0.987719 0.987719 0.987719
          0.987715 0.987712 0.98764 0.986592 0.986592 0.986593 0.986593 0.987684 0.987717 0.987718 0.987718 0.987718
          0.987718 0.987718 0.987718 0.987718 0.987717 0.987717 0.987717 0.987717 0.987717 0.987717 0.987717 0.987717
          0.987717 0.987717 0.987717 0.987716 0.987716 0.987716 0.987716 0.987716 0.987716 0.987716 0.987716 0.987716
          0.987716 0.987716 0.987715 0.987715
        </DataArray>
        <DataArray type="Float32" Name="porosity" NumberOfComponents="1" format="ascii">
          0.4 0.4 0.4 0.4 0.4 0.4 0.4 0.4 0.4 0.4 0.4 0.4
          0.4 0.4 0.4 0.4 0.4 0.4 0.4 0.4 0.4 0.4 0.4 0.4
          0.4 0.4 0.4 0.4 0.4 0.4 0.4 0.4 0.4 0.4 0.4 0.4
          0.4 0.4 0.4 0.4 0.4 0.4 0.4 0.4 0.4 0.4 0.4 0.4
          0.4 0.4 0.4 0.4 0.4 0.4 0.4 0.4 0.4 0.4 0.4 0.4
          0.4 0.4 0.4 0.4 0.4 0.4 0.4 0.4 0.4 0.4 0.4 0.4
          0.4 0.4 0.4 0.4 0.4 0.4 0.4 0.4 0.4 0.4 0.4 0.4
          0.4 0.4 0.4 0.4 0.4 0.4 0.4 0.4 0.4 0.4 0.4 0.4
          0.4 0.4 0.4 0.4 0.4 0.4 0.4 0.4 0.4 0.4 0.4 0.4
          0.4 0.4 0.4 0.4 0.4 0.4 0.4 0.4 0.4 0.4 0.4 0.4
          0.4 0.4 0.4 0.4 0.4 0.4 0.4 0.4 0.4 0.4 0.4 0.4
          0.4 0.4 0.4 0.4 0.4 0.4 0.4 0.4 0.4 0.4 0.4 0.4
          0.4 0.4 0.4 0.4 0.4 0.4 0.4 0.4 0.4 0.4 0.4 0.4
          0.4 0.4 0.4 0.4
        </DataArray>
        <DataArray type="Float32" Name="temperature" NumberOfComponents="1" format="ascii">
          283.15 283.15 283.15 283.15 283.15 283.15 283.15 283.15 283.15 283.15 283.15 283.15
          283.15 283.15 283.15 283.15 283.15 283.15 283.15 283.15 283.15 283.15 283.15 283.15
          283.15 283.15 283.15 283.15 283.15 283.15 283.15 283.15 283.15 283.15 283.15 283.15
          283.15 283.15 283.15 283.15 283.15 283.15 283.15 283.15 283.15 283.15 283.15 283.15
          283.15 283.15 283.15 283.15 283.15 283.15 283.15 283.15 283.15 283.15 283.15 283.15
          283.15 283.15 283.15 283.15 283.15 283.15 283.15 283.15 283.15 283.15 283.15 283.15