<?xml version="1.0"?>
<VTKFile type="UnstructuredGrid" version="0.1" byte_order="LittleEndian">
  <UnstructuredGrid>
    <Piece NumberOfCells="768" NumberOfPoints="425">
      <CellData Scalars="Sn">
        <DataArray type="Float32" Name="Sn" NumberOfComponents="1" format="ascii">
          0 0 0 0 0 0 0 0 0 0 0 0
          0 0 0 0 0 0 0 0 0 0 0 0
          0 0 0 0 0 0 0 0 0 0 0 0
          0 0 0 0 0 0 0 0 0 0 0 0
          0 0 0 0 0 0 0 0 0 0 0 0
          0 0 0 0 0 0 0 0 0 0 0 0
          0 0 0 0 0 0 0 0 0 0 0 0
          0 0 0 0 0 0 0 0 0 0 0 0
          0 0 0 0 0 0 0 0 0 0 0 0
          0 0 0 0 0 0 0 0 0 0 0 0
          0 0 0 0 0 0 0 0 0 0 0 0
          0 0 0 0 0 0 0 0 0 0 0 0
          0 0 0 0 0 0 0 0 0 0 0 0
          0 0 0 0 0 0 0 0 0 0 0 0
          0 0 0 0 0 0 0 0 0 0 0 0
          0 0 0 0 0 0 1.13336e-37 0 4.77574e-06 1.26545e-15 0.0932727 0.0143755
          0 0 0 0 0 0 0 0 0 0 0 0
          0 0 0 0 0 0 0 0 0 0 0 0
          0 0 0 0 0 0 0 0 0 0 0 0
          0 0 0 0 0 0 2.20218e-37 0 5.95779e-06 2.5496e-15 0.0925948 0.0151639
          0 0 0 0 0 0 0 0 0 0 0 0
          0 0 0 0 0 0 0 0 0 0 0 0
          0 0 0 0 0 0 0 0 0 0 0 0
          0 0 0 0 0 0 1.16686e-37 0 4.98328e-06 1.49666e-15 0.0920155 0.0158363
          0 0 0 0 0 0 0 0 0 0 0 0
          0 0 0 0 0 0 0 0 0 0 0 0
          0 0 0 0 0 0 0 0 0 0 0 0
          0 0 0 0 0 0 0 0 5.8295e-35 0 5.16284e-05 1.64894e-12
          0 0 0 0 0 0 0 0 0 0 0 0
          0 0 0 0 0 0 0 0 0 0 0 0
          0 0 0 0 0 0 0 0 0 0 0 0
          0 0 0 0 0 0 0 0 0 0 1.44259e-33 0
          0 0 0 0 0 0 0 0 0 0 0 0
          0 0 0 0 0 0 0 0 0 0 0 0
          0 0 0 0 0 0 0 0 0 0 0 0
          0 0 0 0 0 0 0 0 0 0 0 0
          0 0 0 0 0 0 0 0 0 0 0 0
          0 0 0 0 0 0 0 0 0 0 0 0
          0 0 0 0 0 0 0 0 0 0 0 0
          0 0 0 0 0 0 0 0 0 0 0 0
          0 0 0 0 0 0 0 0 0 0 0 0
          0 0 0 0 0 0 0 0 0 0 0 0
          0 0 0 0 0 0 0 0 0 0 0 0
          0 0 0 0 0 0 0 0 0 0 0 0
          0 0 0 0 0 0 0 0 0 0 0 0
          0 0 0 0 0 0 0 0 0 0 0 0
          0 0 0 0 0 0 0 0 0 0 0 0
          0 0 0 0 0 0 0 0 0 0 0 0
          0 0 0 0 0 0 0 0 0 0 0 0
          0 0 0 0 0 0 0 0 0 0 0 0
          0 0 0 0 0 0 0 0 0 0 0 0
          0 0 0 0 0 0 0 0 0 0 0 0
          0 0 0 0 0 0 0 0 0 0 0 0
          0 0 0 0 0 0 0 0 0 0 0 0
          0 0 0 0 0 0 0 0 0 0 0 0
          0 0 0 0 0 0 0 0 0 0 0 0
          0 0 0 0 0 0 0 0 0 0 0 0
          0 0 0 0 0 0 0 0 0 0 0 0
          0 0 0 0 0 0 0 0 0 0 0 0
          0 0 0 0 0 0 0 0 0 0 0 0
          0 0 0 0 0 0 0 0 0 0 0 0
          0 0 0 0 0 0 0 0 0 0 0 0
          0 0 0 0 0 0 0 0 0 0 0 0
          0 0 0 0 0 0 0 0 0 0 0 0
        </DataArray>
        <DataArray type="Float32" Name="Sw" NumberOfComponents="1" format="ascii">
          1 1 1 1 1 1 1 1 1 1 1 1
          1 1 1 1 1 1 1 1 1 1 1 1
          1 1 1 1 1 1 1 1 1 1 1 1
          1 1 1 1 1 1 1 1 1 1 1 1
          1 1 1 1 1 1 1 1 1 1 1 1
          1 1 1 1 1 1 1 1 1 1 1 1
          1 1 1 1 1 1 1 1 1 1 1 1
          1 1 1 1 1 1 1 1 1 1 1 1
          1 1 1 1 1 1 1 1 1 1 1 1
          1 1 1 1 1 1 1 1 1 1 1 1
          1 1 1 1 1 1 1 1 1 1 1 1
          1 1 1 1 1 1 1 1 1 1 1 1
          1 1 1 1 1 1 1 1 1 1 1 1
          1 1 1 1 1 1 1 1 1 1 1 1
          1 1 1 1 1 1 1 1 1 1 1 1
          1 1 1 1 1 1 1 1 0.999995 1 0.906727 0.985624
          1 1 1 1 1 1 1 1 1 1 1 1
          1 1 1 1 1 1 1 1 1 1 1 1
          1 1 1 1 1 1 1 1 1 1 1 1
          1 1 1 1 1 1 1 1 0.999994 1 0.907405 0.984836
          1 1 1 1 1 1 1 1 1 1 1 1
          1 1 1 1 1 1 1 1 1 1 1 1
          1 1 1 1 1 1 1 1 1 1 1 1
          1 1 1 1 1 1 1 1 0.999995 1 0.907984 0.984164
          1 1 1 1 1 1 1 1 1 1 1 1
          1 1 1 1 1 1 1 1 1 1 1 1
          1 1 1 1 1 1 1 1 1 1 1 1
          1 1 1 1 1 1 1 1 1 1 0.999948 1
          1 1 1 1 1 1 1 1 1 1 1 1
          1 1 1 1 1 1 1 1 1 1 1 1
          1 1 1 1 1 1 1 1 1 1 1 1
          1 1 1 1 1 1 1 1 1 1 1 1
          1 1 1 1 1 1 1 1 1 1 1 1
          1 1 1 1 1 1 1 1 1 1 1 1
          1 1 1 1 1 1 1 1 1 1 1 1
          1 1 1 1 1 1 1 1 1 1 1 1
          1 1 1 1 1 1 1 1 1 1 1 1
          1 1 1 1 1 1 1 1 1 1 1 1
          1 1 1 1 1 1 1 1 1 1 1 1
          1 1 1 1 1 1 1 1 1 1 1 1
          1 1 1 1 1 1 1 1 1 1 1 1
          1 1 1 1 1 1 1 1 1 1 1 1
          1 1 1 1 1 1 1 1 1 1 1 1
          1 1 1 1 1 1 1 1 1 1 1 1
          1 1 1 1 1 1 1 1 1 1 1 1
          1 1 1 1 1 1 1 1 1 1 1 1
          1 1 1 1 1 1 1 1 1 1 1 1
          1 1 1 1 1 1 1 1 1 1 1 1
          1 1 1 1 1 1 1 1 1 1 1 1
          1 1 1 1 1 1 1 1 1 1 1 1
          1 1 1 1 1 1 1 1 1 1 1 1
          1 1 1 1 1 1 1 1 1 1 1 1
          1 1 1 1 1 1 1 1 1 1 1 1
          1 1 1 1 1 1 1 1 1 1 1 1
          1 1 1 1 1 1 1 1 1 1 1 1
          1 1 1 1 1 1 1 1 1 1 1 1
          1 1 1 1 1 1 1 1 1 1 1 1
          1 1 1 1 1 1 1 1 1 1 1 1
          1 1 1 1 1 1 1 1 1 1 1 1
          1 1 1 1 1 1 1 1 1 1 1 1
          1 1 1 1 1 1 1 1 1 1 1 1
          1 1 1 1 1 1 1 1 1 1 1 1
          1 1 1 1 1 1 1 1 1 1 1 1
          1 1 1 1 1 1 1 1 1 1 1 1
        </DataArray>
        <DataArray type="Float32" Name="pn" NumberOfComponents="1" format="ascii">
          2.65971e+07 2.65877e+07 2.66097e+07 2.66007e+07 2.66209e+07 2.66121e+07 2.66314e+07 2.66228e+07 2.66414e+07 2.66329e+07 2.66511e+07 2.66427e+07
          2.66606e+07 2.66523e+07 2.667e+07 2.66616e+07 2.66792e+07 2.66709e+07 2.66884e+07 2.66801e+07 2.66976e+07 2.66893e+07 2.67069e+07 2.66985e+07
          2.67162e+07 2.67078e+07 2.67255e+07 2.67171e+07 2.67347e+07 2.67264e+07 2.6744e+07 2.67356e+07 2.67532e+07 2.67449e+07 2.67624e+07 2.67541e+07
          2.67716e+07 2.67633e+07 2.67808e+07 2.67725e+07 2.67898e+07 2.67816e+07 2.67987e+07 2.67905e+07 2.68072e+07 2.67991e+07 2.68154e+07 2.68074e+07
          2.65702e+07 2.65619e+07 2.65818e+07 2.65733e+07 2.65928e+07 2.65842e+07 2.66032e+07 2.65947e+07 2.66132e+07 2.66048e+07 2.66229e+07 2.66145e+07
          2.66324e+07 2.66241e+07 2.66418e+07 2.66335e+07 2.66509e+07 2.66426e+07 2.66601e+07 2.66518e+07 2.66693e+07 2.6661e+07 2.66786e+07 2.66702e+07
          2.66879e+07 2.66795e+07 2.66972e+07 2.66888e+07 2.67064e+07 2.66981e+07 2.67157e+07 2.67073e+07 2.67249e+07 2.67166e+07 2.67341e+07 2.67258e+07
          2.67434e+07 2.6735e+07 2.67526e+07 2.67443e+07 2.67617e+07 2.67534e+07 2.67707e+07 2.67625e+07 2.67794e+07 2.67714e+07 2.67877e+07 2.67798e+07
          2.65446e+07 2.65368e+07 2.6555e+07 2.65469e+07 2.65654e+07 2.65571e+07 2.65755e+07 2.65671e+07 2.65853e+07 2.6577e+07 2.65949e+07 2.65866e+07
          2.66044e+07 2.65961e+07 2.66138e+07 2.66055e+07 2.66228e+07 2.66146e+07 2.66319e+07 2.66237e+07 2.66411e+07 2.66328e+07 2.66502e+07 2.66419e+07
          2.66596e+07 2.66512e+07 2.66689e+07 2.66605e+07 2.66781e+07 2.66698e+07 2.66874e+07 2.6679e+07 2.66966e+07 2.66883e+07 2.67059e+07 2.66975e+07
          2.67151e+07 2.67068e+07 2.67244e+07 2.6716e+07 2.67336e+07 2.67253e+07 2.67429e+07 2.67346e+07 2.6752e+07 2.67439e+07 2.67605e+07 2.67528e+07
          2.65195e+07 2.65119e+07 2.65289e+07 2.65211e+07 2.65385e+07 2.65305e+07 2.65482e+07 2.654e+07 2.65577e+07 2.65495e+07 2.65672e+07 2.65589e+07
          2.65765e+07 2.65683e+07 2.65858e+07 2.65776e+07 2.65949e+07 2.65867e+07 2.6604e+07 2.65957e+07 2.6613e+07 2.66048e+07 2.66221e+07 2.66138e+07
          2.66314e+07 2.66231e+07 2.66406e+07 2.66323e+07 2.66499e+07 2.66415e+07 2.66591e+07 2.66508e+07 2.66683e+07 2.666e+07 2.66776e+07 2.66692e+07
          2.66868e+07 2.66785e+07 2.66961e+07 2.66878e+07 2.67055e+07 2.66971e+07 2.6715e+07 2.67066e+07 2.67248e+07 2.67164e+07 2.67357e+07 2.67268e+07
          2.64945e+07 2.64871e+07 2.65031e+07 2.64955e+07 2.6512e+07 2.65042e+07 2.65212e+07 2.65132e+07 2.65303e+07 2.65223e+07 2.65396e+07 2.65314e+07
          2.65488e+07 2.65406e+07 2.6558e+07 2.65498e+07 2.6567e+07 2.65588e+07 2.6576e+07 2.65678e+07 2.6585e+07 2.65768e+07 2.6594e+07 2.65858e+07
          2.66032e+07 2.65949e+07 2.66124e+07 2.66041e+07 2.66216e+07 2.66133e+07 2.66308e+07 2.66225e+07 2.664e+07 2.66317e+07 2.66493e+07 2.66409e+07
          2.66585e+07 2.66501e+07 2.66678e+07 2.66594e+07 2.66772e+07 2.66687e+07 2.66867e+07 2.66782e+07 2.66967e+07 2.66881e+07 2.67083e+07 2.66989e+07
          2.64695e+07 2.64622e+07 2.64774e+07 2.64699e+07 2.64857e+07 2.6478e+07 2.64943e+07 2.64865e+07 2.65031e+07 2.64951e+07 2.65121e+07 2.6504e+07
          2.65211e+07 2.6513e+07 2.65302e+07 2.6522e+07 2.65391e+07 2.6531e+07 2.65481e+07 2.65399e+07 2.6557e+07 2.65488e+07 2.6566e+07 2.65578e+07
          2.65751e+07 2.65668e+07 2.65843e+07 2.6576e+07 2.65934e+07 2.65851e+07 2.66026e+07 2.65943e+07 2.66118e+07 2.66034e+07 2.66209e+07 2.66126e+07
          2.66301e+07 2.66218e+07 2.66394e+07 2.6631e+07 2.66487e+07 2.66403e+07 2.66581e+07 2.66496e+07 2.66678e+07 2.66592e+07 2.66793e+07 2.66694e+07
          2.64444e+07 2.64374e+07 2.64517e+07 2.64443e+07 2.64594e+07 2.64518e+07 2.64675e+07 2.64597e+07 2.6476e+07 2.64681e+07 2.64847e+07 2.64766e+07
          2.64935e+07 2.64854e+07 2.65025e+07 2.64943e+07 2.65113e+07 2.65032e+07 2.65202e+07 2.6512e+07 2.65291e+07 2.65209e+07 2.6538e+07 2.65298e+07
          2.6547e+07 2.65388e+07 2.65561e+07 2.65478e+07 2.65652e+07 2.65569e+07 2.65743e+07 2.6566e+07 2.65835e+07 2.65752e+07 2.65926e+07 2.65843e+07
          2.66018e+07 2.65934e+07 2.66109e+07 2.66026e+07 2.66201e+07 2.66118e+07 2.66293e+07 2.66209e+07 2.66386e+07 2.66301e+07 2.66478e+07 2.66392e+07
          2.64193e+07 2.64124e+07 2.64258e+07 2.64185e+07 2.6433e+07 2.64254e+07 2.64407e+07 2.64329e+07 2.64488e+07 2.64409e+07 2.64572e+07 2.64492e+07
          2.64659e+07 2.64578e+07 2.64747e+07 2.64666e+07 2.64835e+07 2.64754e+07 2.64923e+07 2.64842e+07 2.65011e+07 2.6493e+07 2.651e+07 2.65018e+07
          2.65189e+07 2.65107e+07 2.6528e+07 2.65197e+07 2.6537e+07 2.65287e+07 2.65461e+07 2.65378e+07 2.65552e+07 2.65469e+07 2.65643e+07 2.6556e+07
          2.65734e+07 2.65651e+07 2.65825e+07 2.65742e+07 2.65916e+07 2.65833e+07 2.66007e+07 2.65923e+07 2.66096e+07 2.66013e+07 2.66184e+07 2.661e+07
          2.63939e+07 2.63872e+07 2.63996e+07 2.63924e+07 2.64062e+07 2.63987e+07 2.64136e+07 2.64058e+07 2.64214e+07 2.64135e+07 2.64296e+07 2.64216e+07
          2.64382e+07 2.64301e+07 2.64469e+07 2.64388e+07 2.64557e+07 2.64476e+07 2.64645e+07 2.64563e+07 2.64732e+07 2.64651e+07 2.6482e+07 2.64739e+07
          2.64908e+07 2.64826e+07 2.64998e+07 2.64916e+07 2.65088e+07 2.65005e+07 2.65179e+07 2.65096e+07 2.65269e+07 2.65187e+07 2.6536e+07 2.65277e+07
          2.65451e+07 2.65368e+07 2.65542e+07 2.65459e+07 2.65632e+07 2.65549e+07 2.65722e+07 2.65639e+07 2.6581e+07 2.65728e+07 2.65896e+07 2.65814e+07
          2.6369e+07 2.63628e+07 2.63742e+07 2.63677e+07 2.63803e+07 2.63735e+07 2.63873e+07 2.63802e+07 2.63947e+07 2.63874e+07 2.64027e+07 2.63952e+07
          2.64109e+07 2.64033e+07 2.64195e+07 2.64117e+07 2.64282e+07 2.64202e+07 2.64368e+07 2.64289e+07 2.64455e+07 2.64375e+07 2.64542e+07 2.64461e+07
          2.64629e+07 2.64548e+07 2.64718e+07 2.64636e+07 2.64807e+07 2.64725e+07 2.64897e+07 2.64815e+07 2.64987e+07 2.64904e+07 2.65077e+07 2.64994e+07
          2.65167e+07 2.65084e+07 2.65257e+07 2.65174e+07 2.65347e+07 2.65263e+07 2.65436e+07 2.65352e+07 2.65523e+07 2.65439e+07 2.65609e+07 2.65525e+07
          2.63451e+07 2.63386e+07 2.63502e+07 2.63436e+07 2.6356e+07 2.63492e+07 2.63624e+07 2.63554e+07 2.63694e+07 2.63622e+07 2.63769e+07 2.63694e+07
          2.63847e+07 2.63771e+07 2.63929e+07 2.63851e+07 2.64012e+07 2.63933e+07 2.64096e+07 2.64017e+07 2.64181e+07 2.64101e+07 2.64266e+07 2.64186e+07
          2.64353e+07 2.64272e+07 2.6444e+07 2.64359e+07 2.64528e+07 2.64446e+07 2.64616e+07 2.64534e+07 2.64705e+07 2.64623e+07 2.64794e+07 2.64711e+07
          2.64883e+07 2.648e+07 2.64971e+07 2.64888e+07 2.65059e+07 2.64976e+07 2.65147e+07 2.65064e+07 2.65233e+07 2.6515e+07 2.65318e+07 2.65235e+07
          2.63206e+07 2.63141e+07 2.63257e+07 2.6319e+07 2.63312e+07 2.63244e+07 2.63373e+07 2.63302e+07 2.63439e+07 2.63366e+07 2.63509e+07 2.63435e+07
          2.63584e+07 2.63509e+07 2.63662e+07 2.63585e+07 2.63742e+07 2.63664e+07 2.63824e+07 2.63745e+07 2.63907e+07 2.63828e+07 2.63991e+07 2.63911e+07
          2.64076e+07 2.63996e+07 2.64162e+07 2.64081e+07 2.64249e+07 2.64167e+07 2.64336e+07 2.64254e+07 2.64424e+07 2.64342e+07 2.64511e+07 2.64429e+07
          2.64599e+07 2.64517e+07 2.64686e+07 2.64604e+07 2.64773e+07 2.64691e+07 2.6486e+07 2.64777e+07 2.64945e+07 2.64862e+07 2.65029e+07 2.64946e+07
          2.62959e+07 2.62894e+07 2.63007e+07 2.62941e+07 2.6306e+07 2.62992e+07 2.63118e+07 2.63047e+07 2.6318e+07 2.63108e+07 2.63248e+07 2.63174e+07
          2.63319e+07 2.63244e+07 2.63395e+07 2.63318e+07 2.63472e+07 2.63395e+07 2.63552e+07 2.63474e+07 2.63633e+07 2.63554e+07 2.63715e+07 2.63636e+07
          2.63799e+07 2.63719e+07 2.63884e+07 2.63804e+07 2.6397e+07 2.63889e+07 2.64056e+07 2.63975e+07 2.64143e+07 2.64061e+07 2.64229e+07 2.64148e+07
          2.64316e+07 2.64234e+07 2.64403e+07 2.64321e+07 2.64489e+07 2.64407e+07 2.64574e+07 2.64492e+07 2.64658e+07 2.64576e+07 2.64742e+07 2.6466e+07
          2.62711e+07 2.62647e+07 2.62755e+07 2.62689e+07 2.62805e+07 2.62736e+07 2.62859e+07 2.62789e+07 2.62919e+07 2.62847e+07 2.62984e+07 2.6291e+07
          2.63053e+07 2.62978e+07 2.63126e+07 2.63049e+07 2.63202e+07 2.63124e+07 2.6328e+07 2.63202e+07 2.63359e+07 2.63281e+07 2.6344e+07 2.63361e+07
          2.63523e+07 2.63443e+07 2.63606e+07 2.63526e+07 2.63691e+07 2.6361e+07 2.63776e+07 2.63695e+07 2.63862e+07 2.6378e+07 2.63948e+07 2.63866e+07
          2.64034e+07 2.63952e+07 2.6412e+07 2.64038e+07 2.64205e+07 2.64124e+07 2.6429e+07 2.64208e+07 2.64374e+07 2.64292e+07 2.64456e+07 2.64375e+07
          2.62461e+07 2.62398e+07 2.625e+07 2.62434e+07 2.62546e+07 2.62477e+07 2.62597e+07 2.62527e+07 2.62655e+07 2.62582e+07 2.62717e+07 2.62643e+07
          2.62784e+07 2.62708e+07 2.62855e+07 2.62778e+07 2.62929e+07 2.62851e+07 2.63006e+07 2.62927e+07 2.63084e+07 2.63005e+07 2.63164e+07 2.63085e+07
          2.63245e+07 2.63165e+07 2.63328e+07 2.63247e+07 2.63411e+07 2.63331e+07 2.63496e+07 2.63415e+07 2.63581e+07 2.635e+07 2.63667e+07 2.63585e+07
          2.63752e+07 2.63671e+07 2.63838e+07 2.63756e+07 2.63923e+07 2.63841e+07 2.64007e+07 2.63926e+07 2.64091e+07 2.64009e+07 2.64173e+07 2.64092e+07
          2.62209e+07 2.62147e+07 2.62241e+07 2.62175e+07 2.62283e+07 2.62214e+07 2.62332e+07 2.62261e+07 2.62386e+07 2.62314e+07 2.62447e+07 2.62373e+07
          2.62512e+07 2.62436e+07 2.62581e+07 2.62504e+07 2.62654e+07 2.62576e+07 2.62729e+07 2.62651e+07 2.62807e+07 2.62728e+07 2.62886e+07 2.62806e+07
          2.62967e+07 2.62886e+07 2.63048e+07 2.62968e+07 2.63132e+07 2.63051e+07 2.63216e+07 2.63135e+07 2.633e+07 2.63219e+07 2.63386e+07 2.63304e+07
          2.63471e+07 2.6339e+07 2.63556e+07 2.63475e+07 2.63641e+07 2.6356e+07 2.63725e+07 2.63644e+07 2.63809e+07 2.63728e+07 2.63891e+07 2.6381e+07
        </DataArray>
        <DataArray type="Float32" Name="pw" NumberOfComponents="1" format="ascii">
          2.65871e+07 2.65777e+07 2.65997e+07 2.65907e+07 2.66109e+07 2.66021e+07 2.66214e+07 2.66128e+07 2.66314e+07 2.66229e+07 2.66411e+07 2.66327e+07
          2.66506e+07 2.66423e+07 2.666e+07 2.66516e+07 2.66692e+07 2.66609e+07 2.66784e+07 2.66701e+07 2.66876e+07 2.66793e+07 2.66969e+07 2.66885e+07
          2.67062e+07 2.66978e+07 2.67155e+07 2.67071e+07 2.67247e+07 2.67164e+07 2.6734e+07 2.67256e+07 2.67432e+07 2.67349e+07 2.67524e+07 2.67441e+07
          2.67616e+07 2.67533e+07 2.67708e+07 2.67625e+07 2.67798e+07 2.67716e+07 2.67887e+07 2.67805e+07 2.67972e+07 2.67891e+07 2.68054e+07 2.67974e+07
          2.65602e+07 2.65519e+07 2.65718e+07 2.65633e+07 2.65828e+07 2.65742e+07 2.65932e+07 2.65847e+07 2.66032e+07 2.65948e+07 2.66129e+07 2.66045e+07
          2.66224e+07 2.66141e+07 2.66318e+07 2.66235e+07 2.66409e+07 2.66326e+07 2.66501e+07 2.66418e+07 2.66593e+07 2.6651e+07 2.66686e+07 2.66602e+07
          2.66779e+07 2.66695e+07 2.66872e+07 2.66788e+07 2.66964e+07 2.66881e+07 2.67057e+07 2.66973e+07 2.67149e+07 2.67066e+07 2.67241e+07 2.67158e+07
          2.67334e+07 2.6725e+07 2.67426e+07 2.67343e+07 2.67517e+07 2.67434e+07 2.67607e+07 2.67525e+07 2.67694e+07 2.67614e+07 2.67777e+07 2.67698e+07
          2.65346e+07 2.65268e+07 2.6545e+07 2.65369e+07 2.65554e+07 2.65471e+07 2.65655e+07 2.65571e+07 2.65753e+07 2.6567e+07 2.65849e+07 2.65766e+07
          2.65944e+07 2.65861e+07 2.66038e+07 2.65955e+07 2.66128e+07 2.66046e+07 2.66219e+07 2.66137e+07 2.66311e+07 2.66228e+07 2.66402e+07 2.66319e+07
          2.66496e+07 2.66412e+07 2.66589e+07 2.66505e+07 2.66681e+07 2.66598e+07 2.66774e+07 2.6669e+07 2.66866e+07 2.66783e+07 2.66959e+07 2.66875e+07
          2.67051e+07 2.66968e+07 2.67144e+07 2.6706e+07 2.67236e+07 2.67153e+07 2.67329e+07 2.67246e+07 2.6742e+07 2.67339e+07 2.67505e+07 2.67428e+07
          2.65095e+07 2.65019e+07 2.65189e+07 2.65111e+07 2.65285e+07 2.65205e+07 2.65382e+07 2.653e+07 2.65477e+07 2.65395e+07 2.65572e+07 2.65489e+07
          2.65665e+07 2.65583e+07 2.65758e+07 2.65676e+07 2.65849e+07 2.65767e+07 2.6594e+07 2.65857e+07 2.6603e+07 2.65948e+07 2.66121e+07 2.66038e+07
          2.66214e+07 2.66131e+07 2.66306e+07 2.66223e+07 2.66399e+07 2.66315e+07 2.66491e+07 2.66408e+07 2.66583e+07 2.665e+07 2.66676e+07 2.66592e+07
          2.66768e+07 2.66685e+07 2.66861e+07 2.66778e+07 2.66955e+07 2.66871e+07 2.6705e+07 2.66966e+07 2.67148e+07 2.67064e+07 2.67251e+07 2.67167e+07
          2.64845e+07 2.64771e+07 2.64931e+07 2.64855e+07 2.6502e+07 2.64942e+07 2.65112e+07 2.65032e+07 2.65203e+07 2.65123e+07 2.65296e+07 2.65214e+07
          2.65388e+07 2.65306e+07 2.6548e+07 2.65398e+07 2.6557e+07 2.65488e+07 2.6566e+07 2.65578e+07 2.6575e+07 2.65668e+07 2.6584e+07 2.65758e+07
          2.65932e+07 2.65849e+07 2.66024e+07 2.65941e+07 2.66116e+07 2.66033e+07 2.66208e+07 2.66125e+07 2.663e+07 2.66217e+07 2.66393e+07 2.66309e+07
          2.66485e+07 2.66401e+07 2.66578e+07 2.66494e+07 2.66672e+07 2.66587e+07 2.66767e+07 2.66682e+07 2.66867e+07 2.66781e+07 2.66977e+07 2.66888e+07
          2.64595e+07 2.64522e+07 2.64674e+07 2.64599e+07 2.64757e+07 2.6468e+07 2.64843e+07 2.64765e+07 2.64931e+07 2.64851e+07 2.65021e+07 2.6494e+07
          2.65111e+07 2.6503e+07 2.65202e+07 2.6512e+07 2.65291e+07 2.6521e+07 2.65381e+07 2.65299e+07 2.6547e+07 2.65388e+07 2.6556e+07 2.65478e+07
          2.65651e+07 2.65568e+07 2.65743e+07 2.6566e+07 2.65834e+07 2.65751e+07 2.65926e+07 2.65843e+07 2.66018e+07 2.65934e+07 2.66109e+07 2.66026e+07
          2.66201e+07 2.66118e+07 2.66294e+07 2.6621e+07 2.66387e+07 2.66303e+07 2.66481e+07 2.66396e+07 2.66578e+07 2.66492e+07 2.66686e+07 2.66593e+07
          2.64344e+07 2.64274e+07 2.64417e+07 2.64343e+07 2.64494e+07 2.64418e+07 2.64575e+07 2.64497e+07 2.6466e+07 2.64581e+07 2.64747e+07 2.64666e+07
          2.64835e+07 2.64754e+07 2.64925e+07 2.64843e+07 2.65013e+07 2.64932e+07 2.65102e+07 2.6502e+07 2.65191e+07 2.65109e+07 2.6528e+07 2.65198e+07
          2.6537e+07 2.65288e+07 2.65461e+07 2.65378e+07 2.65552e+07 2.65469e+07 2.65643e+07 2.6556e+07 2.65735e+07 2.65652e+07 2.65826e+07 2.65743e+07
          2.65918e+07 2.65834e+07 2.66009e+07 2.65926e+07 2.66101e+07 2.66018e+07 2.66193e+07 2.66109e+07 2.66286e+07 2.66201e+07 2.66378e+07 2.66292e+07
          2.64093e+07 2.64024e+07 2.64158e+07 2.64085e+07 2.6423e+07 2.64154e+07 2.64307e+07 2.64229e+07 2.64388e+07 2.64309e+07 2.64472e+07 2.64392e+07
          2.64559e+07 2.64478e+07 2.64647e+07 2.64566e+07 2.64735e+07 2.64654e+07 2.64823e+07 2.64742e+07 2.64911e+07 2.6483e+07 2.65e+07 2.64918e+07
          2.65089e+07 2.65007e+07 2.6518e+07 2.65097e+07 2.6527e+07 2.65187e+07 2.65361e+07 2.65278e+07 2.65452e+07 2.65369e+07 2.65543e+07 2.6546e+07
          2.65634e+07 2.65551e+07 2.65725e+07 2.65642e+07 2.65816e+07 2.65733e+07 2.65907e+07 2.65823e+07 2.65996e+07 2.65913e+07 2.66084e+07 2.66e+07
          2.63839e+07 2.63772e+07 2.63896e+07 2.63824e+07 2.63962e+07 2.63887e+07 2.64036e+07 2.63958e+07 2.64114e+07 2.64035e+07 2.64196e+07 2.64116e+07
          2.64282e+07 2.64201e+07 2.64369e+07 2.64288e+07 2.64457e+07 2.64376e+07 2.64545e+07 2.64463e+07 2.64632e+07 2.64551e+07 2.6472e+07 2.64639e+07
          2.64808e+07 2.64726e+07 2.64898e+07 2.64816e+07 2.64988e+07 2.64905e+07 2.65079e+07 2.64996e+07 2.65169e+07 2.65087e+07 2.6526e+07 2.65177e+07
          2.65351e+07 2.65268e+07 2.65442e+07 2.65359e+07 2.65532e+07 2.65449e+07 2.65622e+07 2.65539e+07 2.6571e+07 2.65628e+07 2.65796e+07 2.65714e+07
          2.6359e+07 2.63528e+07 2.63642e+07 2.63577e+07 2.63703e+07 2.63635e+07 2.63773e+07 2.63702e+07 2.63847e+07 2.63774e+07 2.63927e+07 2.63852e+07
          2.64009e+07 2.63933e+07 2.64095e+07 2.64017e+07 2.64182e+07 2.64102e+07 2.64268e+07 2.64189e+07 2.64355e+07 2.64275e+07 2.64442e+07 2.64361e+07
          2.64529e+07 2.64448e+07 2.64618e+07 2.64536e+07 2.64707e+07 2.64625e+07 2.64797e+07 2.64715e+07 2.64887e+07 2.64804e+07 2.64977e+07 2.64894e+07
          2.65067e+07 2.64984e+07 2.65157e+07 2.65074e+07 2.65247e+07 2.65163e+07 2.65336e+07 2.65252e+07 2.65423e+07 2.65339e+07 2.65509e+07 2.65425e+07
          2.63351e+07 2.63286e+07 2.63402e+07 2.63336e+07 2.6346e+07 2.63392e+07 2.63524e+07 2.63454e+07 2.63594e+07 2.63522e+07 2.63669e+07 2.63594e+07
          2.63747e+07 2.63671e+07 2.63829e+07 2.63751e+07 2.63912e+07 2.63833e+07 2.63996e+07 2.63917e+07 2.64081e+07 2.64001e+07 2.64166e+07 2.64086e+07
          2.64253e+07 2.64172e+07 2.6434e+07 2.64259e+07 2.64428e+07 2.64346e+07 2.64516e+07 2.64434e+07 2.64605e+07 2.64523e+07 2.64694e+07 2.64611e+07
          2.64783e+07 2.647e+07 2.64871e+07 2.64788e+07 2.64959e+07 2.64876e+07 2.65047e+07 2.64964e+07 2.65133e+07 2.6505e+07 2.65218e+07 2.65135e+07
          2.63106e+07 2.63041e+07 2.63157e+07 2.6309e+07 2.63212e+07 2.63144e+07 2.63273e+07 2.63202e+07 2.63339e+07 2.63266e+07 2.63409e+07 2.63335e+07
          2.63484e+07 2.63409e+07 2.63562e+07 2.63485e+07 2.63642e+07 2.63564e+07 2.63724e+07 2.63645e+07 2.63807e+07 2.63728e+07 2.63891e+07 2.63811e+07
          2.63976e+07 2.63896e+07 2.64062e+07 2.63981e+07 2.64149e+07 2.64067e+07 2.64236e+07 2.64154e+07 2.64324e+07 2.64242e+07 2.64411e+07 2.64329e+07
          2.64499e+07 2.64417e+07 2.64586e+07 2.64504e+07 2.64673e+07 2.64591e+07 2.6476e+07 2.64677e+07 2.64845e+07 2.64762e+07 2.64929e+07 2.64846e+07
          2.62859e+07 2.62794e+07 2.62907e+07 2.62841e+07 2.6296e+07 2.62892e+07 2.63018e+07 2.62947e+07 2.6308e+07 2.63008e+07 2.63148e+07 2.63074e+07
          2.63219e+07 2.63144e+07 2.63295e+07 2.63218e+07 2.63372e+07 2.63295e+07 2.63452e+07 2.63374e+07 2.63533e+07 2.63454e+07 2.63615e+07 2.63536e+07
          2.63699e+07 2.63619e+07 2.63784e+07 2.63704e+07 2.6387e+07 2.63789e+07 2.63956e+07 2.63875e+07 2.64043e+07 2.63961e+07 2.64129e+07 2.64048e+07
          2.64216e+07 2.64134e+07 2.64303e+07 2.64221e+07 2.64389e+07 2.64307e+07 2.64474e+07 2.64392e+07 2.64558e+07 2.64476e+07 2.64642e+07 2.6456e+07
          2.62611e+07 2.62547e+07 2.62655e+07 2.62589e+07 2.62705e+07 2.62636e+07 2.62759e+07 2.62689e+07 2.62819e+07 2.62747e+07 2.62884e+07 2.6281e+07
          2.62953e+07 2.62878e+07 2.63026e+07 2.62949e+07 2.63102e+07 2.63024e+07 2.6318e+07 2.63102e+07 2.63259e+07 2.63181e+07 2.6334e+07 2.63261e+07
          2.63423e+07 2.63343e+07 2.63506e+07 2.63426e+07 2.63591e+07 2.6351e+07 2.63676e+07 2.63595e+07 2.63762e+07 2.6368e+07 2.63848e+07 2.63766e+07
          2.63934e+07 2.63852e+07 2.6402e+07 2.63938e+07 2.64105e+07 2.64024e+07 2.6419e+07 2.64108e+07 2.64274e+07 2.64192e+07 2.64356e+07 2.64275e+07
          2.62361e+07 2.62298e+07 2.624e+07 2.62334e+07 2.62446e+07 2.62377e+07 2.62497e+07 2.62427e+07 2.62555e+07 2.62482e+07 2.62617e+07 2.62543e+07
          2.62684e+07 2.62608e+07 2.62755e+07 2.62678e+07 2.62829e+07 2.62751e+07 2.62906e+07 2.62827e+07 2.62984e+07 2.62905e+07 2.63064e+07 2.62985e+07
          2.63145e+07 2.63065e+07 2.63228e+07 2.63147e+07 2.63311e+07 2.63231e+07 2.63396e+07 2.63315e+07 2.63481e+07 2.634e+07 2.63567e+07 2.63485e+07
          2.63652e+07 2.63571e+07 2.63738e+07 2.63656e+07 2.63823e+07 2.63741e+07 2.63907e+07 2.63826e+07 2.63991e+07 2.63909e+07 2.64073e+07 2.63992e+07
          2.62109e+07 2.62047e+07 2.62141e+07 2.62075e+07 2.62183e+07 2.62114e+07 2.62232e+07 2.62161e+07 2.62286e+07 2.62214e+07 2.62347e+07 2.62273e+07
          2.62412e+07 2.62336e+07 2.62481e+07 2.62404e+07 2.62554e+07 2.62476e+07 2.62629e+07 2.62551e+07 2.62707e+07 2.62628e+07 2.62786e+07 2.62706e+07
          2.62867e+07 2.62786e+07 2.62948e+07 2.62868e+07 2.63032e+07 2.62951e+07 2.63116e+07 2.63035e+07 2.632e+07 2.63119e+07 2.63286e+07 2.63204e+07
          2.63371e+07 2.6329e+07 2.63456e+07 2.63375e+07 2.63541e+07 2.6346e+07 2.63625e+07 2.63544e+07 2.63709e+07 2.63628e+07 2.63791e+07 2.6371e+07
        </DataArray>
        <DataArray type="Float32" Name="pc" NumberOfComponents="1" format="ascii">
          10000 10000 10000 10000 10000 10000 10000 10000 10000 10000 10000 10000
          10000 10000 10000 10000 10000 10000 10000 10000 10000 10000 10000 10000
          10000 10000 10000 10000 10000 10000 10000 10000 10000 10000 10000 10000
          10000 10000 10000 10000 10000 10000 10000 10000 10000 10000 10000 10000
          10000 10000 10000 10000 10000 10000 10000 10000 10000 10000 10000 10000
          10000 10000 10000 10000 10000 10000 10000 10000 10000 10000 10000 10000
          10000 10000 10000 10000 10000 10000 10000 10000 10000 10000 10000 10000
          10000 10000 10000 10000 10000 10000 10000 10000 10000 10000 10000 10000
          10000 10000 10000 10000 10000 10000 10000 10000 10000 10000 10000 10000
          10000 10000 10000 10000 10000 10000 10000 10000 10000 10000 10000 10000
          10000 10000 10000 10000 10000 10000 10000 10000 10000 10000 10000 10000
          10000 10000 10000 10000 10000 10000 10000 10000 10000 10000 10000 10000
          10000 10000 10000 10000 10000 10000 10000 10000 10000 10000 10000 10000
          10000 10000 10000 10000 10000 10000 10000 10000 10000 10000 10000 10000
          10000 10000 10000 10000 10000 10000 10000 10000 10000 10000 10000 10000
          10000 10000 10000 10000 10000 10000 10000 10000 10000 10000 10639.4 10091.1
          10000 10000 10000 10000 10000 10000 10000 10000 10000 10000 10000 10000
          10000 10000 10000 10000 10000 10000 10000 10000 10000 10000 10000 10000
          10000 10000 10000 10000 10000 10000 10000 10000 10000 10000 10000 10000
          10000 10000 10000 10000 10000 10000 10000 10000 10000 10000 10634.3 10096.1
          10000 10000 10000 10000 10000 10000 10000 10000 10000 10000 10000 10000
          10000 10000 10000 10000 10000 10000 10000 10000 10000 10000 10000 10000
          10000 10000 10000 10000 10000 10000 10000 10000 10000 10000 10000 10000
          10000 10000 10000 10000 10000 10000 10000 10000 10000 10000 10630 10100.5
          10000 10000 10000 10000 10000 10000 10000 10000 10000 10000 10000 10000
          10000 10000 10000 10000 10000 10000 10000 10000 10000 10000 10000 10000
          10000 10000 10000 10000 10000 10000 10000 10000 10000 10000 10000 10000
          10000 10000 10000 10000 10000 10000 10000 10000 10000 10000 10000.3 10000
          10000 10000 10000 10000 10000 10000 10000 10000 10000 10000 10000 10000
          10000 10000 10000 10000 10000 10000 10000 10000 10000 10000 10000 10000
          10000 10000 10000 10000 10000 10000 10000 10000 10000 10000 10000 10000
          10000 10000 10000 10000 10000 10000 10000 10000 10000 10000 10000 10000
          10000 10000 10000 10000 10000 10000 10000 10000 10000 10000 10000 10000
          10000 10000 10000 10000 10000 10000 10000 10000 10000 10000 10000 10000
          10000 10000 10000 10000 10000 10000 10000 10000 10000 10000 10000 10000
          10000 10000 10000 10000 10000 10000 10000 10000 10000 10000 10000 10000
          10000 10000 10000 10000 10000 10000 10000 10000 10000 10000 10000 10000
          10000 10000 10000 10000 10000 10000 10000 10000 10000 10000 10000 10000
          10000 10000 10000 10000 10000 10000 10000 10000 10000 10000 10000 10000
          10000 10000 10000 10000 10000 10000 10000 10000 10000 10000 10000 10000
          10000 10000 10000 10000 10000 10000 10000 10000 10000 10000 10000 10000
          10000 10000 10000 10000 10000 10000 10000 10000 10000 10000 10000 10000
          10000 10000 10000 10000 10000 10000 10000 10000 10000 10000 10000 10000
          10000 10000 10000 10000 10000 10000 10000 10000 10000 10000 10000 10000
          10000 10000 10000 10000 10000 10000 10000 10000 10000 10000 10000 10000
          10000 10000 10000 10000 10000 10000 10000 10000 10000 10000 10000 10000
          10000 10000 10000 10000 10000 10000 10000 10000 10000 10000 10000 10000
          10000 10000 10000 10000 10000 10000 10000 10000 10000 10000 10000 10000
          10000 10000 10000 10000 10000 10000 10000 10000 10000 10000 10000 10000
          10000 10000 10000 10000 10000 10000 10000 10000 10000 10000 10000 10000
          10000 10000 10000 10000 10000 10000 10000 10000 10000 10000 10000 10000
          10000 10000 10000 10000 10000 10000 10000 10000 10000 10000 10000 10000
          10000 10000 10000 10000 10000 10000 10000 10000 10000 10000 10000 10000
          10000 10000 10000 10000 10000 10000 10000 10000 10000 10000 10000 10000
          10000 10000 10000 10000 10000 10000 10000 10000 10000 10000 10000 10000
          10000 10000 10000 10000 10000 10000 10000 10000 10000 10000 10000 10000
          10000 10000 10000 10000 10000 10000 10000 10000 10000 10000 10000 10000
          10000 10000 10000 10000 10000 10000 10000 10000 10000 10000 10000 10000
          10000 10000 10000 10000 10000 10000 10000 10000 10000 10000 10000 10000
          10000 10000 10000 10000 10000 10000 10000 10000 10000 10000 10000 10000
          10000 10000 10000 10000 10000 10000 10000 10000 10000 10000 10000 10000
          10000 10000 10000 10000 10000 10000 10000 10000 10000 10000 10000 10000