<?xml version="1.0"?>
<VTKFile type="UnstructuredGrid" version="0.1" byte_order="LittleEndian">
  <UnstructuredGrid>
    <Piece NumberOfCells="768" NumberOfPoints="425">
      <CellData Scalars="S_liq">
        <DataArray type="Float32" Name="S_liq" NumberOfComponents="1" format="ascii">
          1 1 1 1 1 1 1 1 1 1 1 1
          1 1 1 1 1 1 1 1 1 1 1 1
          1 1 1 1 1 1 1 1 1 1 1 1
          1 1 1 1 1 1 1 1 1 1 1 1
          1 1 1 1 1 1 1 1 1 1 1 1
          1 1 1 1 1 1 1 1 1 1 1 1
          1 1 1 1 1 1 1 1 1 1 1 1
          1 1 1 1 1 1 1 1 1 1 1 1
          1 1 1 1 1 1 1 1 1 1 1 1
          1 1 1 1 1 1 1 1 1 1 1 1
          1 1 1 1 1 1 1 1 1 1 1 1
          1 1 1 1 1 1 1 1 1 1 1 1
          1 1 1 1 1 1 1 1 1 1 1 1
          1 1 1 1 1 1 1 1 1 1 1 1
          1 1 1 1 1 1 1 1 1 1 1 1
          1 1 1 1 1 1 1 1 0.999996 1 0.906275 0.986064
          1 1 1 1 1 1 1 1 1 1 1 1
          1 1 1 1 1 1 1 1 1 1 1 1
          1 1 1 1 1 1 1 1 1 1 1 1
          1 1 1 1 1 1 1 1 0.999996 1 0.906945 0.985289
          1 1 1 1 1 1 1 1 1 1 1 1
          1 1 1 1 1 1 1 1 1 1 1 1
          1 1 1 1 1 1 1 1 1 1 1 1
          1 1 1 1 1 1 1 1 0.999996 1 0.907517 0.984623
          1 1 1 1 1 1 1 1 1 1 1 1
          1 1 1 1 1 1 1 1 1 1 1 1
          1 1 1 1 1 1 1 1 1 1 1 1
          1 1 1 1 1 1 1 1 1 1 0.999961 1
          1 1 1 1 1 1 1 1 1 1 1 1
          1 1 1 1 1 1 1 1 1 1 1 1
          1 1 1 1 1 1 1 1 1 1 1 1
          1 1 1 1 1 1 1 1 1 1 1 1
          1 1 1 1 1 1 1 1 1 1 1 1
          1 1 1 1 1 1 1 1 1 1 1 1
          1 1 1 1 1 1 1 1 1 1 1 1
          1 1 1 1 1 1 1 1 1 1 1 1
          1 1 1 1 1 1 1 1 1 1 1 1
          1 1 1 1 1 1 1 1 1 1 1 1
          1 1 1 1 1 1 1 1 1 1 1 1
          1 1 1 1 1 1 1 1 1 1 1 1
          1 1 1 1 1 1 1 1 1 1 1 1
          1 1 1 1 1 1 1 1 1 1 1 1
          1 1 1 1 1 1 1 1 1 1 1 1
          1 1 1 1 1 1 1 1 1 1 1 1
          1 1 1 1 1 1 1 1 1 1 1 1
          1 1 1 1 1 1 1 1 1 1 1 1
          1 1 1 1 1 1 1 1 1 1 1 1
          1 1 1 1 1 1 1 1 1 1 1 1
          1 1 1 1 1 1 1 1 1 1 1 1
          1 1 1 1 1 1 1 1 1 1 1 1
          1 1 1 1 1 1 1 1 1 1 1 1
          1 1 1 1 1 1 1 1 1 1 1 1
          1 1 1 1 1 1 1 1 1 1 1 1
          1 1 1 1 1 1 1 1 1 1 1 1
          1 1 1 1 1 1 1 1 1 1 1 1
          1 1 1 1 1 1 1 1 1 1 1 1
          1 1 1 1 1 1 1 1 1 1 1 1
          1 1 1 1 1 1 1 1 1 1 1 1
          1 1 1 1 1 1 1 1 1 1 1 1
          1 1 1 1 1 1 1 1 1 1 1 1
          1 1 1 1 1 1 1 1 1 1 1 1
          1 1 1 1 1 1 1 1 1 1 1 1
          1 1 1 1 1 1 1 1 1 1 1 1
          1 1 1 1 1 1 1 1 1 1 1 1
        </DataArray>
        <DataArray type="Float32" Name="S_gas" NumberOfComponents="1" format="ascii">
          0 0 0 0 0 0 0 0 0 0 0 0
          0 0 0 0 0 0 0 0 0 0 0 0
          0 0 0 0 0 0 0 0 0 0 0 0
          0 0 0 0 0 0 0 0 0 0 0 0
          0 0 0 0 0 0 0 0 0 0 0 0
          0 0 0 0 0 0 0 0 0 0 0 0
          0 0 0 0 0 0 0 0 0 0 0 0
          0 0 0 0 0 0 0 0 0 0 0 0
          0 0 0 0 0 0 0 0 0 0 0 0
          0 0 0 0 0 0 0 0 0 0 0 0
          0 0 0 0 0 0 0 0 0 0 0 0
          0 0 0 0 0 0 0 0 0 0 0 0
          0 0 0 0 0 0 0 0 0 0 0 0
          0 0 0 0 0 0 0 0 0 0 0 0
          0 0 0 0 -0 0 -0 -0 -0 -0 -0 -0
          -0 -0 -0 -0 -0 -0 2.50458e-38 -0 3.5211e-06 3.29645e-16 0.093725 0.0139361
          0 0 0 0 0 0 0 0 0 0 0 0
          0 0 0 0 0 0 0 0 0 0 0 0
          0 0 0 0 -0 0 -0 -0 -0 -0 -0 -0
          -0 -0 -0 -0 -0 -0 4.89994e-38 -0 4.40088e-06 6.67656e-16 0.0930547 0.0147112
          0 0 0 0 0 0 0 0 0 0 0 0
          0 0 0 0 0 0 0 0 0 0 0 0
          0 0 0 0 -0 0 -0 -0 -0 -0 -0 -0
          -0 -0 -0 -0 -0 -0 2.53299e-38 -0 3.68035e-06 3.90361e-16 0.092483 0.0153766
          0 0 0 0 0 0 0 0 0 0 0 0
          0 0 0 0 0 0 0 0 0 0 0 0
          0 0 0 0 0 0 -0 -0 -0 -0 -0 -0
          -0 -0 -0 -0 -0 -0 -0 -0 1.32689e-35 -0 3.86973e-05 4.55965e-13
          0 0 0 0 0 0 0 0 0 0 0 0
          0 0 0 0 0 0 0 0 0 0 0 0
          0 0 0 0 0 0 0 0 -0 -0 -0 -0
          -0 -0 -0 -0 -0 -0 -0 -0 -0 -0 3.30165e-34 -0
          0 0 0 0 0 0 0 0 0 0 0 0
          0 0 0 0 0 0 0 0 0 0 0 0
          0 0 0 0 0 0 0 0 0 0 -0 -0
          -0 -0 -0 -0 -0 -0 -0 -0 -0 -0 -0 -0
          0 0 0 0 0 0 0 0 0 0 0 0
          0 0 0 0 0 0 0 0 0 0 0 0
          0 0 0 0 0 0 0 0 0 0 0 0
          -0 -0 -0 -0 -0 -0 -0 -0 -0 -0 -0 -0
          0 0 0 0 0 0 0 0 0 0 0 0
          0 0 0 0 0 0 0 0 0 0 0 0
          0 0 0 0 0 0 0 0 0 0 0 0
          0 0 -0 -0 -0 -0 -0 -0 -0 -0 -0 -0
          0 0 0 0 0 0 0 0 0 0 0 0
          0 0 0 0 0 0 0 0 0 0 0 0
          0 0 0 0 0 0 0 0 0 0 0 0
          0 0 0 0 -0 0 -0 -0 -0 -0 -0 -0
          0 0 0 0 0 0 0 0 0 0 0 0
          0 0 0 0 0 0 0 0 0 0 0 0
          0 0 0 0 0 0 0 0 0 0 0 0
          0 0 0 0 0 0 -0 0 -0 -0 -0 -0
          0 0 0 0 0 0 0 0 0 0 0 0
          0 0 0 0 0 0 0 0 0 0 0 0
          0 0 0 0 0 0 0 0 0 0 0 0
          0 0 0 0 0 0 0 0 -0 0 -0 -0
          0 0 0 0 0 0 0 0 0 0 0 0
          0 0 0 0 0 0 0 0 0 0 0 0
          0 0 0 0 0 0 0 0 0 0 0 0
          0 0 0 0 0 0 0 0 0 0 -0 0
          0 0 0 0 0 0 0 0 0 0 0 0
          0 0 0 0 0 0 0 0 0 0 0 0
          0 0 0 0 0 0 0 0 0 0 0 0
          0 0 0 0 0 0 0 0 0 0 0 0
        </DataArray>
        <DataArray type="Float32" Name="p_liq" NumberOfComponents="1" format="ascii">
          2.65871e+07 2.65777e+07 2.65997e+07 2.65907e+07 2.66109e+07 2.66022e+07 2.66214e+07 2.66128e+07 2.66315e+07 2.6623e+07 2.66412e+07 2.66328e+07
          2.66508e+07 2.66424e+07 2.66602e+07 2.66518e+07 2.66695e+07 2.66612e+07 2.66788e+07 2.66704e+07 2.6688e+07 2.66797e+07 2.66972e+07 2.66889e+07
          2.67065e+07 2.66982e+07 2.67158e+07 2.67074e+07 2.6725e+07 2.67167e+07 2.67342e+07 2.67259e+07 2.67435e+07 2.67351e+07 2.67527e+07 2.67443e+07
          2.67619e+07 2.67536e+07 2.6771e+07 2.67627e+07 2.67801e+07 2.67718e+07 2.67889e+07 2.67807e+07 2.67975e+07 2.67894e+07 2.68057e+07 2.67977e+07
          2.65602e+07 2.65519e+07 2.65718e+07 2.65633e+07 2.65828e+07 2.65743e+07 2.65932e+07 2.65847e+07 2.66032e+07 2.65948e+07 2.6613e+07 2.66046e+07
          2.66226e+07 2.66142e+07 2.6632e+07 2.66236e+07 2.66412e+07 2.66329e+07 2.66505e+07 2.66421e+07 2.66597e+07 2.66513e+07 2.66689e+07 2.66606e+07
          2.66782e+07 2.66699e+07 2.66875e+07 2.66791e+07 2.66967e+07 2.66884e+07 2.67059e+07 2.66976e+07 2.67152e+07 2.67068e+07 2.67244e+07 2.67161e+07
          2.67336e+07 2.67253e+07 2.67428e+07 2.67345e+07 2.6752e+07 2.67437e+07 2.6761e+07 2.67528e+07 2.67697e+07 2.67616e+07 2.6778e+07 2.67701e+07
          2.65346e+07 2.65268e+07 2.6545e+07 2.65369e+07 2.65554e+07 2.65471e+07 2.65655e+07 2.65572e+07 2.65753e+07 2.6567e+07 2.6585e+07 2.65767e+07
          2.65945e+07 2.65862e+07 2.66038e+07 2.65955e+07 2.66131e+07 2.66048e+07 2.66222e+07 2.66139e+07 2.66314e+07 2.6623e+07 2.66406e+07 2.66322e+07
          2.66499e+07 2.66416e+07 2.66592e+07 2.66508e+07 2.66684e+07 2.66601e+07 2.66776e+07 2.66693e+07 2.66869e+07 2.66785e+07 2.66961e+07 2.66878e+07
          2.67054e+07 2.6697e+07 2.67146e+07 2.67063e+07 2.67239e+07 2.67156e+07 2.67332e+07 2.67249e+07 2.67422e+07 2.67342e+07 2.67507e+07 2.6743e+07
          2.65095e+07 2.65019e+07 2.65189e+07 2.65111e+07 2.65285e+07 2.65205e+07 2.65382e+07 2.653e+07 2.65477e+07 2.65395e+07 2.65572e+07 2.65489e+07
          2.65666e+07 2.65583e+07 2.65759e+07 2.65676e+07 2.65851e+07 2.65769e+07 2.65941e+07 2.65859e+07 2.66032e+07 2.6595e+07 2.66124e+07 2.66041e+07
          2.66217e+07 2.66133e+07 2.66309e+07 2.66226e+07 2.66401e+07 2.66318e+07 2.66494e+07 2.6641e+07 2.66586e+07 2.66502e+07 2.66678e+07 2.66595e+07
          2.66771e+07 2.66687e+07 2.66864e+07 2.6678e+07 2.66957e+07 2.66874e+07 2.67053e+07 2.66969e+07 2.6715e+07 2.67066e+07 2.67253e+07 2.6717e+07
          2.64844e+07 2.64771e+07 2.64931e+07 2.64855e+07 2.6502e+07 2.64942e+07 2.65112e+07 2.65032e+07 2.65203e+07 2.65123e+07 2.65296e+07 2.65214e+07
          2.65388e+07 2.65306e+07 2.6548e+07 2.65398e+07 2.65572e+07 2.6549e+07 2.65662e+07 2.65579e+07 2.65752e+07 2.65669e+07 2.65843e+07 2.6576e+07
          2.65935e+07 2.65852e+07 2.66027e+07 2.65944e+07 2.66119e+07 2.66036e+07 2.66211e+07 2.66128e+07 2.66303e+07 2.6622e+07 2.66395e+07 2.66312e+07
          2.66487e+07 2.66404e+07 2.6658e+07 2.66496e+07 2.66674e+07 2.6659e+07 2.6677e+07 2.66685e+07 2.6687e+07 2.66783e+07 2.66979e+07 2.66891e+07
          2.64595e+07 2.64522e+07 2.64674e+07 2.64599e+07 2.64757e+07 2.6468e+07 2.64843e+07 2.64764e+07 2.64931e+07 2.64851e+07 2.65021e+07 2.6494e+07
          2.65111e+07 2.6503e+07 2.65202e+07 2.6512e+07 2.65293e+07 2.65211e+07 2.65382e+07 2.653e+07 2.65472e+07 2.65389e+07 2.65562e+07 2.65479e+07
          2.65653e+07 2.6557e+07 2.65745e+07 2.65662e+07 2.65836e+07 2.65753e+07 2.65928e+07 2.65845e+07 2.6602e+07 2.65937e+07 2.66112e+07 2.66028e+07
          2.66204e+07 2.6612e+07 2.66296e+07 2.66212e+07 2.66389e+07 2.66305e+07 2.66483e+07 2.66398e+07 2.66581e+07 2.66494e+07 2.66689e+07 2.66596e+07
          2.64344e+07 2.64274e+07 2.64417e+07 2.64343e+07 2.64494e+07 2.64418e+07 2.64575e+07 2.64497e+07 2.6466e+07 2.6458e+07 2.64746e+07 2.64666e+07
          2.64835e+07 2.64754e+07 2.64924e+07 2.64843e+07 2.65014e+07 2.64932e+07 2.65103e+07 2.65021e+07 2.65192e+07 2.6511e+07 2.65281e+07 2.65199e+07
          2.65372e+07 2.65289e+07 2.65463e+07 2.6538e+07 2.65554e+07 2.65471e+07 2.65646e+07 2.65562e+07 2.65737e+07 2.65654e+07 2.65829e+07 2.65745e+07
          2.6592e+07 2.65837e+07 2.66012e+07 2.65928e+07 2.66104e+07 2.6602e+07 2.66196e+07 2.66112e+07 2.66288e+07 2.66203e+07 2.6638e+07 2.66294e+07
          2.64093e+07 2.64024e+07 2.64158e+07 2.64085e+07 2.64229e+07 2.64154e+07 2.64306e+07 2.64229e+07 2.64387e+07 2.64309e+07 2.64472e+07 2.64392e+07
          2.64558e+07 2.64477e+07 2.64647e+07 2.64565e+07 2.64735e+07 2.64654e+07 2.64824e+07 2.64742e+07 2.64912e+07 2.6483e+07 2.65001e+07 2.64918e+07
          2.65091e+07 2.65008e+07 2.65181e+07 2.65098e+07 2.65272e+07 2.65189e+07 2.65363e+07 2.6528e+07 2.65454e+07 2.65371e+07 2.65545e+07 2.65462e+07
          2.65637e+07 2.65553e+07 2.65728e+07 2.65644e+07 2.65819e+07 2.65735e+07 2.65909e+07 2.65826e+07 2.65999e+07 2.65915e+07 2.66086e+07 2.66003e+07
          2.63839e+07 2.63772e+07 2.63896e+07 2.63824e+07 2.63962e+07 2.63887e+07 2.64035e+07 2.63958e+07 2.64114e+07 2.64035e+07 2.64196e+07 2.64116e+07
          2.64281e+07 2.642e+07 2.64368e+07 2.64287e+07 2.64457e+07 2.64375e+07 2.64545e+07 2.64463e+07 2.64633e+07 2.64551e+07 2.6472e+07 2.64638e+07
          2.64809e+07 2.64727e+07 2.64899e+07 2.64817e+07 2.6499e+07 2.64907e+07 2.65081e+07 2.64998e+07 2.65172e+07 2.65089e+07 2.65262e+07 2.65179e+07
          2.65353e+07 2.6527e+07 2.65444e+07 2.65361e+07 2.65535e+07 2.65452e+07 2.65624e+07 2.65541e+07 2.65713e+07 2.6563e+07 2.65798e+07 2.65716e+07
          2.6359e+07 2.63528e+07 2.63641e+07 2.63577e+07 2.63703e+07 2.63635e+07 2.63772e+07 2.63702e+07 2.63847e+07 2.63774e+07 2.63926e+07 2.63851e+07
          2.64009e+07 2.63932e+07 2.64094e+07 2.64016e+07 2.64181e+07 2.64102e+07 2.64268e+07 2.64188e+07 2.64355e+07 2.64275e+07 2.64442e+07 2.64361e+07
          2.6453e+07 2.64449e+07 2.64619e+07 2.64537e+07 2.64709e+07 2.64627e+07 2.64799e+07 2.64716e+07 2.64889e+07 2.64806e+07 2.64979e+07 2.64896e+07
          2.65069e+07 2.64986e+07 2.6516e+07 2.65076e+07 2.65249e+07 2.65165e+07 2.65338e+07 2.65254e+07 2.65426e+07 2.65342e+07 2.65511e+07 2.65428e+07
          2.63351e+07 2.63286e+07 2.63402e+07 2.63336e+07 2.6346e+07 2.63392e+07 2.63524e+07 2.63454e+07 2.63594e+07 2.63521e+07 2.63668e+07 2.63594e+07
          2.63746e+07 2.63671e+07 2.63828e+07 2.6375e+07 2.63911e+07 2.63833e+07 2.63996e+07 2.63916e+07 2.6408e+07 2.64001e+07 2.64166e+07 2.64086e+07
          2.64253e+07 2.64172e+07 2.64341e+07 2.64259e+07 2.64429e+07 2.64347e+07 2.64518e+07 2.64436e+07 2.64607e+07 2.64524e+07 2.64696e+07 2.64613e+07
          2.64785e+07 2.64702e+07 2.64873e+07 2.6479e+07 2.64962e+07 2.64878e+07 2.65049e+07 2.64966e+07 2.65135e+07 2.65052e+07 2.6522e+07 2.65137e+07
          2.63106e+07 2.63041e+07 2.63156e+07 2.6309e+07 2.63212e+07 2.63143e+07 2.63272e+07 2.63202e+07 2.63338e+07 2.63266e+07 2.63409e+07 2.63335e+07
          2.63483e+07 2.63408e+07 2.63561e+07 2.63484e+07 2.63642e+07 2.63564e+07 2.63723e+07 2.63645e+07 2.63806e+07 2.63727e+07 2.63891e+07 2.63811e+07
          2.63976e+07 2.63896e+07 2.64063e+07 2.63982e+07 2.6415e+07 2.64068e+07 2.64237e+07 2.64155e+07 2.64325e+07 2.64243e+07 2.64413e+07 2.64331e+07
          2.64501e+07 2.64418e+07 2.64588e+07 2.64506e+07 2.64675e+07 2.64593e+07 2.64762e+07 2.64679e+07 2.64847e+07 2.64764e+07 2.64931e+07 2.64848e+07
          2.62859e+07 2.62794e+07 2.62907e+07 2.62841e+07 2.6296e+07 2.62891e+07 2.63017e+07 2.62947e+07 2.6308e+07 2.63008e+07 2.63147e+07 2.63073e+07
          2.63219e+07 2.63143e+07 2.63294e+07 2.63217e+07 2.63371e+07 2.63294e+07 2.63451e+07 2.63373e+07 2.63533e+07 2.63454e+07 2.63615e+07 2.63536e+07
          2.63699e+07 2.63619e+07 2.63784e+07 2.63704e+07 2.6387e+07 2.63789e+07 2.63957e+07 2.63875e+07 2.64044e+07 2.63962e+07 2.64131e+07 2.64049e+07
          2.64218e+07 2.64136e+07 2.64304e+07 2.64222e+07 2.64391e+07 2.64308e+07 2.64476e+07 2.64394e+07 2.6456e+07 2.64478e+07 2.64644e+07 2.64562e+07
          2.62611e+07 2.62547e+07 2.62655e+07 2.62589e+07 2.62704e+07 2.62636e+07 2.62759e+07 2.62689e+07 2.62819e+07 2.62747e+07 2.62883e+07 2.62809e+07
          2.62952e+07 2.62877e+07 2.63025e+07 2.62948e+07 2.631e+07 2.63023e+07 2.63179e+07 2.63101e+07 2.63259e+07 2.6318e+07 2.6334e+07 2.6326e+07
          2.63422e+07 2.63342e+07 2.63506e+07 2.63426e+07 2.63591e+07 2.6351e+07 2.63677e+07 2.63595e+07 2.63763e+07 2.63681e+07 2.63849e+07 2.63767e+07
          2.63935e+07 2.63854e+07 2.64021e+07 2.6394e+07 2.64107e+07 2.64025e+07 2.64192e+07 2.6411e+07 2.64276e+07 2.64194e+07 2.64358e+07 2.64277e+07
          2.62361e+07 2.62298e+07 2.624e+07 2.62334e+07 2.62445e+07 2.62377e+07 2.62497e+07 2.62426e+07 2.62554e+07 2.62482e+07 2.62616e+07 2.62542e+07
          2.62683e+07 2.62608e+07 2.62753e+07 2.62677e+07 2.62827e+07 2.6275e+07 2.62904e+07 2.62826e+07 2.62983e+07 2.62904e+07 2.63063e+07 2.62983e+07
          2.63145e+07 2.63064e+07 2.63228e+07 2.63147e+07 2.63312e+07 2.63231e+07 2.63397e+07 2.63315e+07 2.63482e+07 2.63401e+07 2.63568e+07 2.63486e+07
          2.63654e+07 2.63572e+07 2.63739e+07 2.63658e+07 2.63824e+07 2.63743e+07 2.63909e+07 2.63828e+07 2.63992e+07 2.63911e+07 2.64074e+07 2.63993e+07
          2.62109e+07 2.62046e+07 2.62141e+07 2.62075e+07 2.62182e+07 2.62113e+07 2.62231e+07 2.6216e+07 2.62286e+07 2.62213e+07 2.62346e+07 2.62272e+07
          2.62411e+07 2.62335e+07 2.6248e+07 2.62403e+07 2.62552e+07 2.62474e+07 2.62628e+07 2.62549e+07 2.62705e+07 2.62626e+07 2.62785e+07 2.62705e+07
          2.62866e+07 2.62786e+07 2.62948e+07 2.62868e+07 2.63032e+07 2.62951e+07 2.63116e+07 2.63035e+07 2.63201e+07 2.6312e+07 2.63287e+07 2.63205e+07
          2.63372e+07 2.63291e+07 2.63458e+07 2.63376e+07 2.63543e+07 2.63461e+07 2.63627e+07 2.63546e+07 2.6371e+07 2.6363e+07 2.63792e+07 2.63712e+07
        </DataArray>
        <DataArray type="Float32" Name="p_gas" NumberOfComponents="1" format="ascii">
          2.65971e+07 2.65877e+07 2.66097e+07 2.66007e+07 2.66209e+07 2.66122e+07 2.66314e+07 2.66228e+07 2.66415e+07 2.6633e+07 2.66512e+07 2.66428e+07
          2.66608e+07 2.66524e+07 2.66702e+07 2.66618e+07 2.66795e+07 2.66712e+07 2.66888e+07 2.66804e+07 2.6698e+07 2.66897e+07 2.67072e+07 2.66989e+07
          2.67165e+07 2.67082e+07 2.67258e+07 2.67174e+07 2.6735e+07 2.67267e+07 2.67442e+07 2.67359e+07 2.67535e+07 2.67451e+07 2.67627e+07 2.67543e+07
          2.67719e+07 2.67636e+07 2.6781e+07 2.67727e+07 2.67901e+07 2.67818e+07 2.67989e+07 2.67907e+07 2.68075e+07 2.67994e+07 2.68157e+07 2.68077e+07
          2.65702e+07 2.65619e+07 2.65818e+07 2.65733e+07 2.65928e+07 2.65843e+07 2.66032e+07 2.65947e+07 2.66132e+07 2.66048e+07 2.6623e+07 2.66146e+07
          2.66326e+07 2.66242e+07 2.6642e+07 2.66336e+07 2.66512e+07 2.66429e+07 2.66605e+07 2.66521e+07 2.66697e+07 2.66613e+07 2.66789e+07 2.66706e+07
          2.66882e+07 2.66799e+07 2.66975e+07 2.66891e+07 2.67067e+07 2.66984e+07 2.67159e+07 2.67076e+07 2.67252e+07 2.67168e+07 2.67344e+07 2.67261e+07
          2.67436e+07 2.67353e+07 2.67528e+07 2.67445e+07 2.6762e+07 2.67537e+07 2.6771e+07 2.67628e+07 2.67797e+07 2.67716e+07 2.6788e+07 2.67801e+07
          2.65446e+07 2.65368e+07 2.6555e+07 2.65469e+07 2.65654e+07 2.65571e+07 2.65755e+07 2.65672e+07 2.65853e+07 2.6577e+07 2.6595e+07 2.65867e+07
          2.66045e+07 2.65962e+07 2.66138e+07 2.66055e+07 2.66231e+07 2.66148e+07 2.66322e+07 2.66239e+07 2.66414e+07 2.6633e+07 2.66506e+07 2.66422e+07
          2.66599e+07 2.66516e+07 2.66692e+07 2.66608e+07 2.66784e+07 2.66701e+07 2.66876e+07 2.66793e+07 2.66969e+07 2.66885e+07 2.67061e+07 2.66978e+07
          2.67154e+07 2.6707e+07 2.67246e+07 2.67163e+07 2.67339e+07 2.67256e+07 2.67432e+07 2.67349e+07 2.67522e+07 2.67442e+07 2.67607e+07 2.6753e+07
          2.65195e+07 2.65119e+07 2.65289e+07 2.65211e+07 2.65385e+07 2.65305e+07 2.65482e+07 2.654e+07 2.65577e+07 2.65495e+07 2.65672e+07 2.65589e+07
          2.65766e+07 2.65683e+07 2.65859e+07 2.65776e+07 2.65951e+07 2.65869e+07 2.66041e+07 2.65959e+07 2.66132e+07 2.6605e+07 2.66224e+07 2.66141e+07
          2.66317e+07 2.66233e+07 2.66409e+07 2.66326e+07 2.66501e+07 2.66418e+07 2.66594e+07 2.6651e+07 2.66686e+07 2.66602e+07 2.66778e+07 2.66695e+07
          2.66871e+07 2.66787e+07 2.66964e+07 2.6688e+07 2.67057e+07 2.66974e+07 2.67153e+07 2.67069e+07 2.6725e+07 2.67166e+07 2.67359e+07 2.67271e+07
          2.64944e+07 2.64871e+07 2.65031e+07 2.64955e+07 2.6512e+07 2.65042e+07 2.65212e+07 2.65132e+07 2.65303e+07 2.65223e+07 2.65396e+07 2.65314e+07
          2.65488e+07 2.65406e+07 2.6558e+07 2.65498e+07 2.65672e+07 2.6559e+07 2.65762e+07 2.65679e+07 2.65852e+07 2.65769e+07 2.65943e+07 2.6586e+07
          2.66035e+07 2.65952e+07 2.66127e+07 2.66044e+07 2.66219e+07 2.66136e+07 2.66311e+07 2.66228e+07 2.66403e+07 2.6632e+07 2.66495e+07 2.66412e+07
          2.66587e+07 2.66504e+07 2.6668e+07 2.66596e+07 2.66774e+07 2.6669e+07 2.6687e+07 2.66785e+07 2.6697e+07 2.66883e+07 2.67085e+07 2.66992e+07
          2.64695e+07 2.64622e+07 2.64774e+07 2.64699e+07 2.64857e+07 2.6478e+07 2.64943e+07 2.64864e+07 2.65031e+07 2.64951e+07 2.65121e+07 2.6504e+07
          2.65211e+07 2.6513e+07 2.65302e+07 2.6522e+07 2.65393e+07 2.65311e+07 2.65482e+07 2.654e+07 2.65572e+07 2.65489e+07 2.65662e+07 2.65579e+07
          2.65753e+07 2.6567e+07 2.65845e+07 2.65762e+07 2.65936e+07 2.65853e+07 2.66028e+07 2.65945e+07 2.6612e+07 2.66037e+07 2.66212e+07 2.66128e+07
          2.66304e+07 2.6622e+07 2.66396e+07 2.66312e+07 2.66489e+07 2.66405e+07 2.66583e+07 2.66498e+07 2.66681e+07 2.66594e+07 2.66795e+07 2.66697e+07
          2.64444e+07 2.64374e+07 2.64517e+07 2.64443e+07 2.64594e+07 2.64518e+07 2.64675e+07 2.64597e+07 2.6476e+07 2.6468e+07 2.64846e+07 2.64766e+07
          2.64935e+07 2.64854e+07 2.65024e+07 2.64943e+07 2.65114e+07 2.65032e+07 2.65203e+07 2.65121e+07 2.65292e+07 2.6521e+07 2.65381e+07 2.65299e+07
          2.65472e+07 2.65389e+07 2.65563e+07 2.6548e+07 2.65654e+07 2.65571e+07 2.65746e+07 2.65662e+07 2.65837e+07 2.65754e+07 2.65929e+07 2.65845e+07
          2.6602e+07 2.65937e+07 2.66112e+07 2.66028e+07 2.66204e+07 2.6612e+07 2.66296e+07 2.66212e+07 2.66388e+07 2.66303e+07 2.6648e+07 2.66394e+07
          2.64193e+07 2.64124e+07 2.64258e+07 2.64185e+07 2.64329e+07 2.64254e+07 2.64406e+07 2.64329e+07 2.64487e+07 2.64409e+07 2.64572e+07 2.64492e+07
          2.64658e+07 2.64577e+07 2.64747e+07 2.64665e+07 2.64835e+07 2.64754e+07 2.64924e+07 2.64842e+07 2.65012e+07 2.6493e+07 2.65101e+07 2.65018e+07
          2.65191e+07 2.65108e+07 2.65281e+07 2.65198e+07 2.65372e+07 2.65289e+07 2.65463e+07 2.6538e+07 2.65554e+07 2.65471e+07 2.65645e+07 2.65562e+07
          2.65737e+07 2.65653e+07 2.65828e+07 2.65744e+07 2.65919e+07 2.65835e+07 2.66009e+07 2.65926e+07 2.66099e+07 2.66015e+07 2.66186e+07 2.66103e+07
          2.63939e+07 2.63872e+07 2.63996e+07 2.63924e+07 2.64062e+07 2.63987e+07 2.64135e+07 2.64058e+07 2.64214e+07 2.64135e+07 2.64296e+07 2.64216e+07
          2.64381e+07 2.643e+07 2.64468e+07 2.64387e+07 2.64557e+07 2.64475e+07 2.64645e+07 2.64563e+07 2.64733e+07 2.64651e+07 2.6482e+07 2.64738e+07
          2.64909e+07 2.64827e+07 2.64999e+07 2.64917e+07 2.6509e+07 2.65007e+07 2.65181e+07 2.65098e+07 2.65272e+07 2.65189e+07 2.65362e+07 2.65279e+07
          2.65453e+07 2.6537e+07 2.65544e+07 2.65461e+07 2.65635e+07 2.65552e+07 2.65724e+07 2.65641e+07 2.65813e+07 2.6573e+07 2.65898e+07 2.65816e+07
          2.6369e+07 2.63628e+07 2.63741e+07 2.63677e+07 2.63803e+07 2.63735e+07 2.63872e+07 2.63802e+07 2.63947e+07 2.63874e+07 2.64026e+07 2.63951e+07
          2.64109e+07 2.64032e+07 2.64194e+07 2.64116e+07 2.64281e+07 2.64202e+07 2.64368e+07 2.64288e+07 2.64455e+07 2.64375e+07 2.64542e+07 2.64461e+07
          2.6463e+07 2.64549e+07 2.64719e+07 2.64637e+07 2.64809e+07 2.64727e+07 2.64899e+07 2.64816e+07 2.64989e+07 2.64906e+07 2.65079e+07 2.64996e+07
          2.65169e+07 2.65086e+07 2.6526e+07 2.65176e+07 2.65349e+07 2.65265e+07 2.65438e+07 2.65354e+07 2.65526e+07 2.65442e+07 2.65611e+07 2.65528e+07
          2.63451e+07 2.63386e+07 2.63502e+07 2.63436e+07 2.6356e+07 2.63492e+07 2.63624e+07 2.63554e+07 2.63694e+07 2.63621e+07 2.63768e+07 2.63694e+07
          2.63846e+07 2.63771e+07 2.63928e+07 2.6385e+07 2.64011e+07 2.63933e+07 2.64096e+07 2.64016e+07 2.6418e+07 2.64101e+07 2.64266e+07 2.64186e+07
          2.64353e+07 2.64272e+07 2.64441e+07 2.64359e+07 2.64529e+07 2.64447e+07 2.64618e+07 2.64536e+07 2.64707e+07 2.64624e+07 2.64796e+07 2.64713e+07
          2.64885e+07 2.64802e+07 2.64973e+07 2.6489e+07 2.65062e+07 2.64978e+07 2.65149e+07 2.65066e+07 2.65235e+07 2.65152e+07 2.6532e+07 2.65237e+07
          2.63206e+07 2.63141e+07 2.63256e+07 2.6319e+07 2.63312e+07 2.63243e+07 2.63372e+07 2.63302e+07 2.63438e+07 2.63366e+07 2.63509e+07 2.63435e+07
          2.63583e+07 2.63508e+07 2.63661e+07 2.63584e+07 2.63742e+07 2.63664e+07 2.63823e+07 2.63745e+07 2.63906e+07 2.63827e+07 2.63991e+07 2.63911e+07
          2.64076e+07 2.63996e+07 2.64163e+07 2.64082e+07 2.6425e+07 2.64168e+07 2.64337e+07 2.64255e+07 2.64425e+07 2.64343e+07 2.64513e+07 2.64431e+07
          2.64601e+07 2.64518e+07 2.64688e+07 2.64606e+07 2.64775e+07 2.64693e+07 2.64862e+07 2.64779e+07 2.64947e+07 2.64864e+07 2.65031e+07 2.64948e+07
          2.62959e+07 2.62894e+07 2.63007e+07 2.62941e+07 2.6306e+07 2.62991e+07 2.63117e+07 2.63047e+07 2.6318e+07 2.63108e+07 2.63247e+07 2.63173e+07
          2.63319e+07 2.63243e+07 2.63394e+07 2.63317e+07 2.63471e+07 2.63394e+07 2.63551e+07 2.63473e+07 2.63633e+07 2.63554e+07 2.63715e+07 2.63636e+07
          2.63799e+07 2.63719e+07 2.63884e+07 2.63804e+07 2.6397e+07 2.63889e+07 2.64057e+07 2.63975e+07 2.64144e+07 2.64062e+07 2.64231e+07 2.64149e+07
          2.64318e+07 2.64236e+07 2.64404e+07 2.64322e+07 2.64491e+07 2.64408e+07 2.64576e+07 2.64494e+07 2.6466e+07 2.64578e+07 2.64744e+07 2.64662e+07
          2.62711e+07 2.62647e+07 2.62755e+07 2.62689e+07 2.62804e+07 2.62736e+07 2.62859e+07 2.62789e+07 2.62919e+07 2.62847e+07 2.62983e+07 2.62909e+07
          2.63052e+07 2.62977e+07 2.63125e+07 2.63048e+07 2.632e+07 2.63123e+07 2.63279e+07 2.63201e+07 2.63359e+07 2.6328e+07 2.6344e+07 2.6336e+07
          2.63522e+07 2.63442e+07 2.63606e+07 2.63526e+07 2.63691e+07 2.6361e+07 2.63777e+07 2.63695e+07 2.63863e+07 2.63781e+07 2.63949e+07 2.63867e+07
          2.64035e+07 2.63954e+07 2.64121e+07 2.6404e+07 2.64207e+07 2.64125e+07 2.64292e+07 2.6421e+07 2.64376e+07 2.64294e+07 2.64458e+07 2.64377e+07
          2.62461e+07 2.62398e+07 2.625e+07 2.62434e+07 2.62545e+07 2.62477e+07 2.62597e+07 2.62526e+07 2.62654e+07 2.62582e+07 2.62716e+07 2.62642e+07
          2.62783e+07 2.62708e+07 2.62853e+07 2.62777e+07 2.62927e+07 2.6285e+07 2.63004e+07 2.62926e+07 2.63083e+07 2.63004e+07 2.63163e+07 2.63083e+07
          2.63245e+07 2.63164e+07 2.63328e+07 2.63247e+07 2.63412e+07 2.63331e+07 2.63497e+07 2.63415e+07 2.63582e+07 2.63501e+07 2.63668e+07 2.63586e+07
          2.63754e+07 2.63672e+07 2.63839e+07 2.63758e+07 2.63924e+07 2.63843e+07 2.64009e+07 2.63928e+07 2.64092e+07 2.64011e+07 2.64174e+07 2.64093e+07
          2.62209e+07 2.62146e+07 2.62241e+07 2.62175e+07 2.62282e+07 2.62213e+07 2.62331e+07 2.6226e+07 2.62386e+07 2.62313e+07 2.62446e+07 2.62372e+07
          2.62511e+07 2.62435e+07 2.6258e+07 2.62503e+07 2.62652e+07 2.62574e+07 2.62728e+07 2.62649e+07 2.62805e+07 2.62726e+07 2.62885e+07 2.62805e+07
          2.62966e+07 2.62886e+07 2.63048e+07 2.62968e+07 2.63132e+07 2.63051e+07 2.63216e+07 2.63135e+07 2.63301e+07 2.6322e+07 2.63387e+07 2.63305e+07
          2.63472e+07 2.63391e+07 2.63558e+07 2.63476e+07 2.63643e+07 2.63561e+07 2.63727e+07 2.63646e+07 2.6381e+07 2.6373e+07 2.63892e+07 2.63812e+07
        </DataArray>
        <DataArray type="Float32" Name="pc" NumberOfComponents="1" format="ascii">
          10000 10000 10000 10000 10000 10000 10000 10000 10000 10000 10000 10000
          10000 10000 10000 10000 10000 10000 10000 10000 10000 10000 10000 10000
          10000 10000 10000 10000 10000 10000 10000 10000 10000 10000 10000 10000
          10000 10000 10000 10000 10000 10000 10000 10000 10000 10000 10000 10000
          10000 10000 10000 10000 10000 10000 10000 10000 10000 10000 10000 10000
          10000 10000 10000 10000 10000 10000 10000 10000 10000 10000 10000 10000
          10000 10000 10000 10000 10000 10000 10000 10000 10000 10000 10000 10000
          10000 10000 10000 10000 10000 10000 10000 10000 10000 10000 10000 10000
          10000 10000 10000 10000 10000 10000 10000 10000 10000 10000 10000 10000
          10000 10000 10000 10000 10000 10000 10000 10000 10000 10000 10000 10000
          10000 10000 10000 10000 10000 10000 10000 10000 10000 10000 10000 10000
          10000 10000 10000 10000 10000 10000 10000 10000 10000 10000 10000 10000
          10000 10000 10000 10000 10000 10000 10000 10000 10000 10000 10000 10000
          10000 10000 10000 10000 10000 10000 10000 10000 10000 10000 10000 10000
          10000 10000 10000 10000 10000 10000 10000 10000 10000 10000 10000 10000
          10000 10000 10000 10000 10000 10000 10000 10000 10000 10000 10642.9 10088.3
          10000 10000 10000 10000 10000 10000 10000 10000 10000 10000 10000 10000
          10000 10000 10000 10000 10000 10000 10000 10000 10000 10000 10000 10000
          10000 10000 10000 10000 10000 10000 10000 10000 10000 10000 10000 10000
          10000 10000 10000 10000 10000 10000 10000 10000 10000 10000 10637.8 10093.2
          10000 10000 10000 10000 10000 10000 10000 10000 10000 10000 10000 10000
          10000 10000 10000 10000 10000 10000 10000 10000 10000 10000 10000 10000
          10000 10000 10000 10000 10000 10000 10000 10000 10000 10000 10000 10000
          10000 10000 10000 10000 10000 10000 10000 10000 10000 10000 10633.5 10097.5
          10000 10000 10000 10000 10000 10000 10000 10000 10000 10000 10000 10000
          10000 10000 10000 10000 10000 10000 10000 10000 10000 10000 10000 10000
          10000 10000 10000 10000 10000 10000 10000 10000 10000 10000 10000 10000
          10000 10000 10000 10000 10000 10000 10000 10000 10000 10000 10000.2 10000
          10000 10000 10000 10000 10000 10000 10000 10000 10000 10000 10000 10000
          10000 10000 10000 10000 10000 10000 10000 10000 10000 10000 10000 10000
          10000 10000 10000 10000 10000 10000 10000 10000 10000 10000 10000 10000
          10000 10000 10000 10000 10000 10000 10000 10000 10000 10000 10000 10000
          10000 10000 10000 10000 10000 10000 10000 10000 10000 10000 10000 10000
          10000 10000 10000 10000 10000 10000 10000 10000 10000 10000 10000 10000
          10000 10000 10000 10000 10000 10000 10000 10000 10000 10000 10000 10000
          10000 10000 10000 10000 10000 10000 10000 10000 10000 10000 10000 10000
          10000 10000 10000 10000 10000 10000 10000 10000 10000 10000 10000 10000
          10000 10000 10000 10000 10000 10000 10000 10000 10000 10000 10000 10000
          10000 10000 10000 10000 10000 10000 10000 10000 10000 10000 10000 10000
          10000 10000 10000 10000 10000 10000 10000 10000 10000 10000 10000 10000
          10000 10000 10000 10000 10000 10000 10000 10000 10000 10000 10000 10000
          10000 10000 10000 10000 10000 10000 10000 10000 10000 10000 10000 10000
          10000 10000 10000 10000 10000 10000 10000 10000 10000 10000 10000 10000
          10000 10000 10000 10000 10000 10000 10000 10000 10000 10000 10000 10000
          10000 10000 10000 10000 10000 10000 10000 10000 10000 10000 10000 10000
          10000 10000 10000 10000 10000 10000 10000 10000 10000 10000 10000 10000
          10000 10000 10000 10000 10000 10000 10000 10000 10000 10000 10000 10000
          10000 10000 10000 10000 10000 10000 10000 10000 10000 10000 10000 10000
          10000 10000 10000 10000 10000 10000 10000 10000 10000 10000 10000 10000
          10000 10000 10000 10000 10000 10000 10000 10000 10000 10000 10000 10000
          10000 10000 10000 10000 10000 10000 10000 10000 10000 10000 10000 10000
          10000 10000 10000 10000 10000 10000 10000 10000 10000 10000 10000 10000
          10000 10000 10000 10000 10000 10000 10000 10000 10000 10000 10000 10000
          10000 10000 10000 10000 10000 10000 10000 10000 10000 10000 10000 10000
          10000 10000 10000 10000 10000 10000 10000 10000 10000 10000 10000 10000
          10000 10000 10000 10000 10000 10000 10000 10000 10000 10000 10000 10000
          10000 10000 10000 10000 10000 10000 10000 10000 10000 10000 10000 10000
          10000 10000 10000 10000 10000 10000 10000 10000 10000 10000 10000 10000
          10000 10000 10000 10000 10000 10000 10000 10000 10000 10000 10000 10000
          10000 10000 10000 10000 10000 10000 10000 10000 10000 10000 10000 10000
          10000 10000 10000 10000 10000 10000 10000 10000 10000 10000 10000 10000