<?xml version="1.0"?>
<VTKFile type="UnstructuredGrid" version="0.1" byte_order="LittleEndian">
  <UnstructuredGrid>
    <Piece NumberOfCells="100" NumberOfPoints="121">
      <CellData Scalars="Sn">
        <DataArray type="Float32" Name="Sn" NumberOfComponents="1" format="ascii">
          0 0 0 0 0 0 0 0 0 0 0 0
          0 0 0 0 0 0 0 0 0 0 0 0
          0 0 0 0 0 0.0215558 0 0 0 0 0 0
          0 0 0 0.0216297 0 0 0 0 0 0 0 0
          0 0 0 0 0 0 0 0 0 0 0 0
          0 0 0 0 0 0 0 0 0 0 0 0
          0 0 0 0 0 0 0 0 0 0 0 0
          0 0 0 0 0 0 0 0 0 0 0 0
          0 0 0 0
        </DataArray>
        <DataArray type="Float32" Name="Sw" NumberOfComponents="1" format="ascii">
          1 1 1 1 1 1 1 1 1 1 1 1
          1 1 1 1 1 1 1 1 1 1 1 1
          1 1 1 1 1 0.978444 1 1 1 1 1 1
          1 1 1 0.97837 1 1 1 1 1 1 1 1
          1 1 1 1 1 1 1 1 1 1 1 1
          1 1 1 1 1 1 1 1 1 1 1 1
          1 1 1 1 1 1 1 1 1 1 1 1
          1 1 1 1 1 1 1 1 1 1 1 1
          1 1 1 1
        </DataArray>
        <DataArray type="Float32" Name="pn" NumberOfComponents="1" format="ascii">
          2.63742e+07 2.63789e+07 2.63835e+07 2.63879e+07 2.63923e+07 2.63967e+07 2.64011e+07 2.64054e+07 2.64095e+07 2.64127e+07 2.6335e+07 2.63396e+07
          2.63441e+07 2.63485e+07 2.63529e+07 2.63573e+07 2.63617e+07 2.63661e+07 2.63706e+07 2.63747e+07 2.6296e+07 2.63004e+07 2.63048e+07 2.63092e+07
          2.63136e+07 2.63179e+07 2.63224e+07 2.63269e+07 2.63318e+07 2.6339e+07 2.62569e+07 2.62612e+07 2.62655e+07 2.62699e+07 2.62742e+07 2.62786e+07
          2.62829e+07 2.62874e+07 2.62923e+07 2.62996e+07 2.62178e+07 2.6222e+07 2.62262e+07 2.62305e+07 2.62348e+07 2.62392e+07 2.62435e+07 2.62478e+07
          2.62522e+07 2.62562e+07 2.61787e+07 2.61827e+07 2.61869e+07 2.61912e+07 2.61954e+07 2.61997e+07 2.6204e+07 2.62082e+07 2.62122e+07 2.62152e+07
          2.61397e+07 2.61436e+07 2.61476e+07 2.61518e+07 2.6156e+07 2.61602e+07 2.61643e+07 2.61683e+07 2.61717e+07 2.61741e+07 2.61008e+07 2.61045e+07
          2.61084e+07 2.61125e+07 2.61166e+07 2.61206e+07 2.61244e+07 2.6128e+07 2.61309e+07 2.61327e+07 2.60618e+07 2.60654e+07 2.60692e+07 2.60731e+07
          2.60771e+07 2.6081e+07 2.60847e+07 2.6088e+07 2.60906e+07 2.60921e+07 2.60226e+07 2.60261e+07 2.60299e+07 2.60338e+07 2.60377e+07 2.60415e+07
          2.60451e+07 2.60483e+07 2.60507e+07 2.60521e+07
        </DataArray>
        <DataArray type="Float32" Name="pw" NumberOfComponents="1" format="ascii">
          2.63642e+07 2.63689e+07 2.63735e+07 2.63779e+07 2.63823e+07 2.63867e+07 2.63911e+07 2.63954e+07 2.63995e+07 2.64027e+07 2.6325e+07 2.63296e+07
          2.63341e+07 2.63385e+07 2.63429e+07 2.63473e+07 2.63517e+07 2.63561e+07 2.63606e+07 2.63647e+07 2.6286e+07 2.62904e+07 2.62948e+07 2.62992e+07
          2.63036e+07 2.63079e+07 2.63124e+07 2.63169e+07 2.63218e+07 2.63289e+07 2.62469e+07 2.62512e+07 2.62555e+07 2.62599e+07 2.62642e+07 2.62686e+07
          2.62729e+07 2.62774e+07 2.62823e+07 2.62894e+07 2.62078e+07 2.6212e+07 2.62162e+07 2.62205e+07 2.62248e+07 2.62292e+07 2.62335e+07 2.62378e+07
          2.62422e+07 2.62462e+07 2.61687e+07 2.61727e+07 2.61769e+07 2.61812e+07 2.61854e+07 2.61897e+07 2.6194e+07 2.61982e+07 2.62022e+07 2.62052e+07
          2.61297e+07 2.61336e+07 2.61376e+07 2.61418e+07 2.6146e+07 2.61502e+07 2.61543e+07 2.61583e+07 2.61617e+07 2.61641e+07 2.60908e+07 2.60945e+07
          2.60984e+07 2.61025e+07 2.61066e+07 2.61106e+07 2.61144e+07 2.6118e+07 2.61209e+07 2.61227e+07 2.60518e+07 2.60554e+07 2.60592e+07 2.60631e+07
          2.60671e+07 2.6071e+07 2.60747e+07 2.6078e+07 2.60806e+07 2.60821e+07 2.60126e+07 2.60161e+07 2.60199e+07 2.60238e+07 2.60277e+07 2.60315e+07
          2.60351e+07 2.60383e+07 2.60407e+07 2.60421e+07
        </DataArray>
        <DataArray type="Float32" Name="pc" NumberOfComponents="1" format="ascii">
          10000 10000 10000 10000 10000 10000 10000 10000 10000 10000 10000 10000
          10000 10000 10000 10000 10000 10000 10000 10000 10000 10000 10000 10000
          10000 10000 10000 10000 10000 10137.5 10000 10000 10000 10000 10000 10000
          10000 10000 10000 10138 10000 10000 10000 10000 10000 10000 10000 10000
          10000 10000 10000 10000 10000 10000 10000 10000 10000 10000 10000 10000
          10000 10000 10000 10000 10000 10000 10000 10000 10000 10000 10000 10000
          10000 10000 10000 10000 10000 10000 10000 10000 10000 10000 10000 10000
          10000 10000 10000 10000 10000 10000 10000 10000 10000 10000 10000 10000
          10000 10000 10000 10000
        </DataArray>
        <DataArray type="Float32" Name="rhoW" NumberOfComponents="1" format="ascii">
          1003.42 1003.42 1003.42 1003.43 1003.43 1003.43 1003.43 1003.43 1003.44 1003.44 1003.4 1003.41
          1003.41 1003.41 1003.41 1003.41 1003.42 1003.42 1003.42 1003.42 1003.39 1003.39 1003.39 1003.39
          1003.4 1003.4 1003.4 1003.4 1003.4 1003.41 1003.37 1003.37 1003.38 1003.38 1003.38 1003.38
          1003.38 1003.38 1003.39 1003.39 1003.36 1003.36 1003.36 1003.36 1003.36 1003.36 1003.37 1003.37
          1003.37 1003.37 1003.34 1003.34 1003.34 1003.34 1003.35 1003.35 1003.35 1003.35 1003.35 1003.35
          1003.32 1003.32 1003.33 1003.33 1003.33 1003.33 1003.33 1003.34 1003.34 1003.34 1003.31 1003.31
          1003.31 1003.31 1003.31 1003.32 1003.32 1003.32 1003.32 1003.32 1003.29 1003.29 1003.29 1003.3
          1003.3 1003.3 1003.3 1003.3 1003.3 1003.3 1003.27 1003.28 1003.28 1003.28 1003.28 1003.28
          1003.28 1003.29 1003.29 1003.29
        </DataArray>
        <DataArray type="Float32" Name="rhoN" NumberOfComponents="1" format="ascii">
          283.734 283.785 283.834 283.882 283.929 283.977 284.024 284.07 284.115 284.148 283.313 283.363
          283.411 283.459 283.506 283.553 283.6 283.648 283.696 283.74 282.893 282.941 282.988 283.035
          283.082 283.129 283.177 283.225 283.278 283.358 282.473 282.519 282.565 282.612 282.659 282.706
          282.753 282.801 282.854 282.933 282.052 282.097 282.143 282.189 282.235 282.282 282.328 282.375
          282.422 282.465 281.631 281.675 281.72 281.765 281.811 281.858 281.904 281.949 281.992 282.024
          281.212 281.253 281.297 281.342 281.387 281.432 281.477 281.519 281.556 281.582 280.793 280.833
          280.875 280.919 280.963 281.006 281.047 281.086 281.117 281.136 280.373 280.412 280.453 280.495
          280.538 280.58 280.62 280.655 280.683 280.699 279.952 279.99 280.03 280.072 280.114 280.155
          280.194 280.228 280.254 280.269
        </DataArray>
        <DataArray type="Float32" Name="mobW" NumberOfComponents="1" format="ascii">
          1523.33 1523.33 1523.32 1523.32 1523.32 1523.32 1523.32 1523.32 1523.32 1523.31 1523.34 1523.34
          1523.34 1523.34 1523.34 1523.33 1523.33 1523.33 1523.33 1523.33 1523.36 1523.36 1523.35 1523.35
          1523.35 1523.35 1523.35 1523.35 1523.34 1365.67 1523.37 1523.37 1523.37 1523.37 1523.37 1523.36
          1523.36 1523.36 1523.36 1365.17 1523.39 1523.38 1523.38 1523.38 1523.38 1523.38 1523.38 1523.38
          1523.37 1523.37 1523.4 1523.4 1523.4 1523.4 1523.39 1523.39 1523.39 1523.39 1523.39 1523.39
          1523.41 1523.41 1523.41 1523.41 1523.41 1523.41 1523.41 1523.4 1523.4 1523.4 1523.43 1523.43
          1523.43 1523.42 1523.42 1523.42 1523.42 1523.42 1523.42 1523.42 1523.44 1523.44 1523.44 1523.44
          1523.44 1523.44 1523.44 1523.43 1523.43 1523.43 1523.46 1523.46 1523.46 1523.45 1523.45 1523.45
          1523.45 1523.45 1523.45 1523.45
        </DataArray>
        <DataArray type="Float32" Name="mobN" NumberOfComponents="1" format="ascii">
          0 0 0 0 0 0 0 0 0 0 0 0
          0 0 0 0 0 0 0 0 0 0 0 0
          0 0 0 0 0 2.10969 0 0 0 0 0 0
          0 0 0 2.13138 0 0 0 0 0 0 0 0
          0 0 0 0 0 0 0 0 0 0 0 0
          0 0 0 0 0 0 0 0 0 0 0 0
          0 0 0 0 0 0 0 0 0 0 0 0
          0 0 0 0 0 0 0 0 0 0 0 0
          0 0 0 0
        </DataArray>
        <DataArray type="Float32" Name="X_w^H2O" NumberOfComponents="1" format="ascii">
          0.996201 0.996201 0.996201 0.996201 0.996201 0.996201 0.996201 0.996201 0.996201 0.996201 0.996206 0.996206
          0.996206 0.996206 0.996206 0.996206 0.996206 0.996206 0.996206 0.996204 0.996212 0.996212 0.996212 0.996212
          0.996212 0.996212 0.996212 0.996212 0.996208 0.996006 0.996218 0.996218 0.996218 0.996218 0.996218 0.996218
          0.996218 0.996218 0.996214 0.996012 0.996223 0.996223 0.996223 0.996223 0.996223 0.996223 0.996223 0.996223
          0.996223 0.996203 0.996229 0.996229 0.996229 0.996229 0.996229 0.996229 0.996229 0.996229 0.996229 0.996229
          0.996234 0.996234 0.996234 0.996234 0.996234 0.996234 0.996234 0.996234 0.996234 0.996234 0.99624 0.99624
          0.99624 0.99624 0.99624 0.99624 0.99624 0.99624 0.99624 0.99624 0.996246 0.996246 0.996246 0.996246
          0.996246 0.996246 0.996246 0.996246 0.996246 0.996246 0.996251 0.996251 0.996251 0.996251 0.996251 0.996251
          0.996251 0.996251 0.996251 0.996251
        </DataArray>
        <DataArray type="Float32" Name="X_w^N2" NumberOfComponents="1" format="ascii">
          0.00379919 0.00379918 0.00379918 0.00379918 0.00379918 0.00379918 0.00379918 0.00379918 0.00379917 0.00379916 0.00379359 0.00379357
          0.00379357 0.00379358 0.00379358 0.00379358 0.00379358 0.00379357 0.00379358 0.00379556 0.00378798 0.00378797 0.00378797 0.00378797
          0.00378797 0.00378797 0.00378797 0.00378799 0.0037916 0.00399432 0.00378238 0.00378237 0.00378237 0.00378237 0.00378237 0.00378237
          0.00378237 0.00378238 0.003786 0.00398834 0.00377678 0.00377676 0.00377676 0.00377676 0.00377677 0.00377677 0.00377677 0.00377677
          0.00377683 0.00379732 0.00377118 0.00377116 0.00377116 0.00377116 0.00377116 0.00377116 0.00377116 0.00377117 0.00377117 0.00377124
          0.00376556 0.00376556 0.00376556 0.00376556 0.00376556 0.00376556 0.00376556 0.00376556 0.00376556 0.00376556 0.00375995 0.00375995
          0.00375995 0.00375995 0.00375995 0.00375995 0.00375995 0.00375996 0.00375996 0.00375996 0.00375435 0.00375435 0.00375435 0.00375435
          0.00375435 0.00375435 0.00375435 0.00375435 0.00375435 0.00375435 0.00374875 0.00374875 0.00374875 0.00374875 0.00374875 0.00374875
          0.00374875 0.00374875 0.00374875 0.00374875
        </DataArray>
        <DataArray type="Float32" Name="X_n^H2O" NumberOfComponents="1" format="ascii">
          0.000179636 0.000179603 0.000179572 0.000179542 0.000179512 0.000179482 0.000179453 0.000179423 0.000179395 0.000179374 0.000179903 0.000179872
          0.000179841 0.000179811 0.000179781 0.000179751 0.000179721 0.000179691 0.000179661 0.000179633 0.000180171 0.000180141 0.000180111 0.000180081
          0.000180051 0.000180021 0.000179991 0.00017996 0.000179926 0.000179852 0.00018044 0.00018041 0.000180381 0.000180351 0.000180321 0.000180291
          0.000180261 0.00018023 0.000180197 0.000180122 0.00018071 0.000180681 0.000180652 0.000180622 0.000180593 0.000180563 0.000180533 0.000180503
          0.000180473 0.000180443 0.00018098 0.000180953 0.000180924 0.000180894 0.000180865 0.000180835 0.000180805 0.000180776 0.000180749 0.000180728
          0.000181251 0.000181224 0.000181196 0.000181167 0.000181138 0.000181109 0.00018108 0.000181053 0.000181029 0.000181013 0.000181522 0.000181496
          0.000181469 0.000181441 0.000181412 0.000181385 0.000181358 0.000181333 0.000181313 0.0001813 0.000181795 0.000181769 0.000181743 0.000181715
          0.000181688 0.00018166 0.000181635 0.000181612 0.000181594 0.000181583 0.000182069 0.000182044 0.000182018 0.000181991 0.000181963 0.000181936
          0.000181911 0.000181889 0.000181872 0.000181863
        </DataArray>
        <DataArray type="Float32" Name="X_n^N2" NumberOfComponents="1" format="ascii">
          0.949648 0.949474 0.949311 0.949152 0.948993 0.948835 0.948678 0.948522 0.948373 0.948257 0.949655 0.949486
          0.949325 0.949166 0.949007 0.948849 0.948691 0.948531 0.948373 0.948721 0.94966 0.949496 0.949337 0.949179
          0.949022 0.948864 0.948705 0.948545 0.949275 0.99982 0.949664 0.949505 0.949349 0.949193 0.949036 0.948878
          0.94872 0.948561 0.949294 0.99982 0.949668 0.949515 0.949361 0.949206 0.94905 0.948894 0.948737 0.948581
          0.94844 0.953444 0.949676 0.949526 0.949374 0.94922 0.949065 0.948909 0.948754 0.948603 0.948461 0.948369
          0.949674 0.949533 0.949385 0.949234 0.949081 0.948929 0.94878 0.948638 0.948512 0.948426 0.949673 0.949537
          0.949394 0.949247 0.949099 0.948953 0.948813 0.948685 0.948579 0.948514 0.949676 0.949544 0.949405 0.949261
          0.949116 0.948975 0.948841 0.948721 0.948627 0.948573 0.949683 0.949555 0.949418 0.949275 0.949132 0.948993
          0.948862 0.948747 0.948658 0.948609
        </DataArray>
        <DataArray type="Float32" Name="x_w^H2O" NumberOfComponents="1" format="ascii">
          0.997553 0.997553 0.997553 0.997553 0.997553 0.997553 0.997553 0.997553 0.997553 0.997553 0.997557 0.997557
          0.997557 0.997557 0.997557 0.997557 0.997557 0.997557 0.997557 0.997556 0.997561 0.997561 0.997561 0.997561
          0.997561 0.997561 0.997561 0.997561 0.997558 0.997428 0.997564 0.997564 0.997564 0.997564 0.997564 0.997564
          0.997564 0.997564 0.997562 0.997431 0.997568 0.997568 0.997568 0.997568 0.997568 0.997568 0.997568 0.997568
          0.997568 0.997555 0.997572 0.997572 0.997572 0.997572 0.997572 0.997572 0.997572 0.997572 0.997572 0.997571
          0.997575 0.997575 0.997575 0.997575 0.997575 0.997575 0.997575 0.997575 0.997575 0.997575 0.997579 0.997579
          0.997579 0.997579 0.997579 0.997579 0.997579 0.997579 0.997579 0.997579 0.997582 0.997582 0.997582 0.997582
          0.997582 0.997582 0.997582 0.997582 0.997582 0.997582 0.997586 0.997586 0.997586 0.997586 0.997586 0.997586
          0.997586 0.997586 0.997586 0.997586
        </DataArray>
        <DataArray type="Float32" Name="x_w^N2" NumberOfComponents="1" format="ascii">
          0.00244654 0.00244654 0.00244654 0.00244654 0.00244654 0.00244654 0.00244654 0.00244654 0.00244653 0.00244653 0.00244293 0.00244292
          0.00244292 0.00244292 0.00244292 0.00244292 0.00244292 0.00244292 0.00244292 0.0024442 0.00243932 0.00243931 0.00243931 0.00243931
          0.00243931 0.00243931 0.00243931 0.00243932 0.00244165 0.00257238 0.0024357 0.0024357 0.0024357 0.0024357 0.0024357 0.0024357
          0.0024357 0.00243571 0.00243804 0.00256853 0.00243209 0.00243208 0.00243208 0.00243208 0.00243208 0.00243208 0.00243208 0.00243209
          0.00243213 0.00244534 0.00242848 0.00242847 0.00242847 0.00242847 0.00242847 0.00242847 0.00242847 0.00242847 0.00242848 0.00242852
          0.00242486 0.00242486 0.00242486 0.00242486 0.00242486 0.00242486 0.00242486 0.00242486 0.00242486 0.00242486 0.00242124 0.00242124
          0.00242124 0.00242124 0.00242124 0.00242124 0.00242124 0.00242124 0.00242125 0.00242125 0.00241763 0.00241763 0.00241763 0.00241763
          0.00241763 0.00241763 0.00241763 0.00241763 0.00241763 0.00241763 0.00241402 0.00241402 0.00241402 0.00241402 0.00241402 0.00241402
          0.00241402 0.00241402 0.00241402 0.00241402
        </DataArray>
        <DataArray type="Float32" Name="x_n^H2O" NumberOfComponents="1" format="ascii">
          0.000279302 0.000279252 0.000279204 0.000279157 0.00027911 0.000279064 0.000279017 0.000278972 0.000278928 0.000278895 0.000279718 0.000279669
          0.000279622 0.000279575 0.000279528 0.000279482 0.000279435 0.000279388 0.000279341 0.000279297 0.000280135 0.000280087 0.000280041 0.000279994
          0.000279947 0.000279901 0.000279854 0.000279806 0.000279753 0.00027964 0.000280553 0.000280507 0.000280461 0.000280414 0.000280368 0.000280321
          0.000280275 0.000280227 0.000280174 0.00028006 0.000280972 0.000280927 0.000280882 0.000280836 0.00028079 0.000280743 0.000280697 0.00028065
          0.000280604 0.000280557 0.000281393 0.000281349 0.000281305 0.000281259 0.000281213 0.000281167 0.000281121 0.000281076 0.000281033 0.000281001
          0.000281814 0.000281772 0.000281728 0.000281683 0.000281638 0.000281593 0.000281548 0.000281506 0.000281468 0.000281443 0.000282235 0.000282194
          0.000282152 0.000282108 0.000282064 0.000282021 0.000281979 0.000281941 0.000281909 0.00028189 0.000282658 0.000282619 0.000282578 0.000282535
          0.000282492 0.00028245 0.00028241 0.000282374 0.000282346 0.00028233 0.000283084 0.000283047 0.000283006 0.000282963 0.000282921 0.000282879
          0.00028284 0.000282806 0.000282779 0.000282764
        </DataArray>
        <DataArray type="Float32" Name="x_n^N2" NumberOfComponents="1" format="ascii">
          0.949548 0.949375 0.949212 0.949052 0.948894 0.948736 0.948578 0.948422 0.948273 0.948158 0.949555 0.949386
          0.949225 0.949066 0.948908 0.94875 0.948591 0.948432 0.948273 0.948621 0.94956 0.949396 0.949237 0.949079
          0.948922 0.948764 0.948605 0.948445 0.949175 0.99972 0.949563 0.949405 0.949249 0.949093 0.948936 0.948778
          0.94862 0.948461 0.949194 0.99972 0.949568 0.949414 0.949261 0.949106 0.94895 0.948794 0.948637 0.948481
          0.94834 0.953344 0.949575 0.949426 0.949274 0.94912 0.948964 0.948809 0.948654 0.948502 0.948361 0.948269
          0.949574 0.949433 0.949285 0.949133 0.948981 0.948829 0.94868 0.948537 0.948412 0.948326 0.949573 0.949436
          0.949293 0.949147 0.948999 0.948853 0.948712 0.948584 0.948478 0.948414 0.949575 0.949443 0.949304 0.94916
          0.949016 0.948874 0.94874 0.94862 0.948527 0.948473 0.949582 0.949454 0.949317 0.949174 0.949031 0.948892
          0.948761 0.948646 0.948557 0.948508
        </DataArray>
        <DataArray type="Float32" Name="porosity" NumberOfComponents="1" format="ascii">
          0.3 0.3 0.3 0.3 0.3 0.3 0.3 0.3 0.3 0.3 0.3 0.3
          0.3 0.3 0.3 0.3 0.3 0.3 0.3 0.3 0.3 0.3 0.3 0.3
          0.3 0.3 0.3 0.3 0.3 0.3 0.3 0.3 0.3 0.3 0.3 0.3
          0.3 0.3 0.3 0.3 0.3 0.3 0.3 0.3 0.3 0.3 0.3 0.3
          0.3 0.3 0.3 0.3 0.3 0.3 0.3 0.3 0.3 0.3 0.3 0.3
          0.3 0.3 0.3 0.3 0.3 0.3 0.3 0.3 0.3 0.3 0.3 0.3
          0.3 0.3 0.3 0.3 0.3 0.3 0.3 0.3 0.3 0.3 0.3 0.3
          0.3 0.3 0.3 0.3 0.3 0.3 0.3 0.3 0.3 0.3 0.3 0.3
          0.3 0.3 0.3 0.3
        </DataArray>
        <DataArray type="Float32" Name="temperature" NumberOfComponents="1" format="ascii">
          313.15 313.15 313.15 313.15 313.15 313.15 313.15 313.15 313.15 313.15 313.15 313.15
          313.15 313.15 313.15 313.15 313.15 313.15 313.15 313.15 313.15 313.15 313.15 313.15
          313.15 313.15 313.15 313.15 313.15 313.15 313.15 313.15 313.15 313.15 313.15 313.15
          313.15 313.15 313.15 313.15 313.15 313.15 313.15 313.15 313.15 313.15 313.15 313.15
          313.15 313.15 313.15 313.15 313.15 313.15 313.15 313.15 313.15 313.15 313.15 313.15
          313.15 313.15 313.15 313.15 313.15 313.15 313.15 313.15 313.15 313.15 313.15 313.15
          313.15 313.15 313.15 313.15 313.15 313.15 313.15 313.15 313.15 313.15 313.15 313.15
          313.15 313.15 313.15 313.15 313.15 313.15 313.15 313.15 313.15 313.15 313.15 313.15
          313.15 313.15 313.15 313.15
        </DataArray>
        <DataArray type="Float32" Name="phase presence" NumberOfComponents="1" format="ascii">
          1 1 1 1 1 1 1 1 1 1 1 1
          1 1 1 1 1 1 1 1 1 1 1 1
          1 1 1 1 1 3 1 1 1 1 1 1
          1 1 1 3 1 1 1 1 1 1 1 1
          1 1 1 1 1 1 1 1 1 1 1 1
          1 1 1 1 1 1 1 1 1 1 1 1
          1 1 1 1 1 1 1 1 1 1 1 1
          1 1 1 1 1 1 1 1 1 1 1 1
          1 1 1 1
        </DataArray>
        <DataArray type="Float32" Name="process rank" NumberOfComponents="1" format="ascii">
          0 0 0 0 0 0 0 0 0 0 0 0
          0 0 0 0 0 0 0 0 0 0 0 0
          0 0 0 0 0 0 0 0 0 0 0 0
          0 0 0 0 0 0 0 0 0 0 0 0
          0 0 0 0 0 0 0 0 0 0 0 0
          0 0 0 0 0 0 0 0 0 0 0 0
          0 0 0 0 0 0 0 0 0 0 0 0
          0 0 0 0 0 0 0 0 0 0 0 0
          0 0 0 0
        </DataArray>
      </CellData>
      <Points>
        <DataArray type="Float32" Name="Coordinates" NumberOfComponents="3" format="ascii">
          0 0 0 6 0 0 0 4 0 6 4 0
          12 0 0 12 4 0 18 0 0 18 4 0
          24 0 0 24 4 0 30 0 0 30 4 0
          36 0 0 36 4 0 42 0 0 42 4 0
          48 0 0 48 4 0 54 0 0 54 4 0
          60 0 0 60 4 0 0 8 0 6 8 0
          12 8 0 18 8 0 24 8 0 30 8 0
          36 8 0 42 8 0 48 8 0 54 8 0
          60 8 0 0 12 0 6 12 0 12 12 0
          18 12 0 24 12 0 30 12 0 36 12 0
          42 12 0 48 12 0 54 12 0 60 12 0
          0 16 0 6 16 0 12 16 0 18 16 0
          24 16 0 30 16 0 36 16 0 42 16 0
          48 16 0 54 16 0 60 16 0 0 20 0
          6 20 0 12 20 0 18 20 0 24 20 0
          30 20 0 36 20 0 42 20 0 48 20 0
          54 20 0 60 20 0 0 24 0 6 24 0
          12 24 0 18 24 0 24 24 0 30 24 0
          36 24 0 42 24 0 48 24 0 54 24 0
          60 24 0 0 28 0 6 28 0 12 28 0
          18 28 0 24 28 0 30 28 0 36 28 0
          42 28 0 48 28 0 54 28 0 60 28 0
          0 32 0 6 32 0 12 32 0 18 32 0
          24 32 0 30 32 0 36 32 0 42 32 0
          48 32 0 54 32 0 60 32 0 0 36 0
          6 36 0 12 36 0 18 36 0 24 36 0
          30 36 0 36 36 0 42 36 0 48 36 0
          54 36 0 60 36 0 0 40 0 6 40 0
          12 40 0 18 40 0 24 40 0 30 40 0
          36 40 0 42 40 0 48 40 0 54 40 0
          60 40 0
        </DataArray>
      </Points>
      <Cells>
        <DataArray type="Int32" Name="connectivity" NumberOfComponents="1" format="ascii">
          0 1 3 2 1 4 5 3 4 6 7 5
          6 8 9 7 8 10 11 9 10 12 13 11
          12 14 15 13 14 16 17 15 16 18 19 17
          18 20 21 19 2 3 23 22 3 5 24 23
          5 7 25 24 7 9 26 25 9 11 27 26
          11 13 28 27 13 15 29 28 15 17 30 29
          17 19 31 30 19 21 32 31 22 23 34 33
          23 24 35 34 24 25 36 35 25 26 37 36
          26 27 38 37 27 28 39 38 28 29 40 39
          29 30 41 40 30 31 42 41 31 32 43 42
          33 34 45 44 34 35 46 45 35 36 47 46
          36 37 48 47 37 38 49 48 38 39 50 49
          39 40 51 50 40 41 52 51 41 42 53 52
          42 43 54 53 44 45 56 55 45 46 57 56
          46 47 58 57 47 48 59 58 48 49 60 59
          49 50 61 60 50 51 62 61 51 52 63 62
          52 53 64 63 53 54 65 64 55 56 67 66
          56 57 68 67 57 58 69 68 58 59 70 69
          59 60 71 70 60 61 72 71 61 62 73 72
          62 63 74 73 63 64 75 74 64 65 76 75
          66 67 78 77 67 68 79 78 68 69 80 79
          69 70 81 80 70 71 82 81 71 72 83 82
          72 73 84 83 73 74 85 84 74 75 86 85
          75 76 87 86 77 78 89 88 78 79 90 89
          79 80 91 90 80 81 92 91 81 82 93 92
          82 83 94 93 83 84 95 94 84 85 96 95
          85 86 97 96 86 87 98 97 88 89 100 99
          89 90 101 100 90 91 102 101 91 92 103 102
          92 93 104 103 93 94 105 104 94 95 106 105
          95 96 107 106 96 97 108 107 97 98 109 108
          99 100 111 110 100 101 112 111 101 102 113 112
          102 103 114 113 103 104 115 114 104 105 116 115
          105 106 117 116 106 107 118 117 107 108 119 118
          108 109 120 119
        </DataArray>
        <DataArray type="Int32" Name="offsets" NumberOfComponents="1" format="ascii">
          4 8 12 16 20 24 28 32 36 40 44 48
          52 56 60 64 68 72 76 80 84 88 92 96
          100 104 108 112 116 120 124 128 132 136 140 144
          148 152 156 160 164 168 172 176 180 184 188 192
          196 200 204 208 212 216 220 224 228 232 236 240
          244 248 252 256 260 264 268 272 276 280 284 288
          292 296 300 304 308 312 316 320 324 328 332 336
          340 344 348 352 356 360 364 368 372 376 380 384
          388 392 396 400
        </DataArray>
        <DataArray type="UInt8" Name="types" NumberOfComponents="1" format="ascii">
          9 9 9 9 9 9 9 9 9 9 9 9
          9 9 9 9 9 9 9 9 9 9 9 9
          9 9 9 9 9 9 9 9 9 9 9 9
          9 9 9 9 9 9 9 9 9 9 9 9
          9 9 9 9 9 9 9 9 9 9 9 9
          9 9 9 9 9 9 9 9 9 9 9 9
          9 9 9 9 9 9 9 9 9 9 9 9
          9 9 9 9 9 9 9 9 9 9 9 9
          9 9 9 9
        </DataArray>
      </Cells>
    </Piece>
  </UnstructuredGrid>
</VTKFile>
