<?xml version="1.0"?>
<VTKFile type="UnstructuredGrid" version="0.1" byte_order="LittleEndian">
  <UnstructuredGrid>
    <Piece NumberOfCells="384" NumberOfPoints="425">
      <CellData Scalars="Sn">
        <DataArray type="Float32" Name="Sn" NumberOfComponents="1" format="ascii">
          0 0 0 0 0 0 0 0 0 0 0 0
          0 0 0 0 0 0 0 0 0 0 0 0
          0 0 0 0 0 0 0 0 0 0 0 0
          0 0 0 0 0 0 0 0 0 0 0 0
          0 0 0 0 0 0 0 0 0 0 0 0
          0 0 0 0 0 0 0 0 0 0 0 0
          0 0 0 0 0 0 0 0 0 0 0 0
          0 0 0 0 0 0 0 0 9.7946e-36 2.56998e-12 0.000173501 0.0529742
          0 0 0 0 0 0 0 0 0 0 0 0
          0 0 0 0 0 0 0 0 5.92329e-35 5.01592e-12 0.000209324 0.0539314
          0 0 0 0 0 0 0 0 0 0 0 0
          0 0 0 0 0 0 0 0 1.76013e-35 3.28557e-12 0.000187541 0.0539955
          0 0 0 0 0 0 0 0 0 0 0 0
          0 0 0 0 0 0 0 0 0 2.40599e-28 8.87877e-10 0.00137983
          0 0 0 0 0 0 0 0 0 0 0 0
          0 0 0 0 0 0 0 0 0 0 8.5311e-25 1.70655e-08
          0 0 0 0 0 0 0 0 0 0 0 0
          0 0 0 0 0 0 0 0 0 0 0 2.97653e-23
          0 0 0 0 0 0 0 0 0 0 0 0
          0 0 0 0 0 0 0 0 0 0 0 0
          0 0 0 0 0 0 0 0 0 0 0 0
          0 0 0 0 0 0 0 0 0 0 0 0
          0 0 0 0 0 0 0 0 0 0 0 0
          0 0 0 0 0 0 0 0 0 0 0 0
          0 0 0 0 0 0 0 0 0 0 0 0
          0 0 0 0 0 0 0 0 0 0 0 0
          0 0 0 0 0 0 0 0 0 0 0 0
          0 0 0 0 0 0 0 0 0 0 0 0
          0 0 0 0 0 0 0 0 0 0 0 0
          0 0 0 0 0 0 0 0 0 0 0 0
          0 0 0 0 0 0 0 0 0 0 0 0
          0 0 0 0 0 0 0 0 0 0 0 0
        </DataArray>
        <DataArray type="Float32" Name="Sw" NumberOfComponents="1" format="ascii">
          1 1 1 1 1 1 1 1 1 1 1 1
          1 1 1 1 1 1 1 1 1 1 1 1
          1 1 1 1 1 1 1 1 1 1 1 1
          1 1 1 1 1 1 1 1 1 1 1 1
          1 1 1 1 1 1 1 1 1 1 1 1
          1 1 1 1 1 1 1 1 1 1 1 1
          1 1 1 1 1 1 1 1 1 1 1 1
          1 1 1 1 1 1 1 1 1 1 0.999826 0.947026
          1 1 1 1 1 1 1 1 1 1 1 1
          1 1 1 1 1 1 1 1 1 1 0.999791 0.946069
          1 1 1 1 1 1 1 1 1 1 1 1
          1 1 1 1 1 1 1 1 1 1 0.999812 0.946005
          1 1 1 1 1 1 1 1 1 1 1 1
          1 1 1 1 1 1 1 1 1 1 1 0.99862
          1 1 1 1 1 1 1 1 1 1 1 1
          1 1 1 1 1 1 1 1 1 1 1 1
          1 1 1 1 1 1 1 1 1 1 1 1
          1 1 1 1 1 1 1 1 1 1 1 1
          1 1 1 1 1 1 1 1 1 1 1 1
          1 1 1 1 1 1 1 1 1 1 1 1
          1 1 1 1 1 1 1 1 1 1 1 1
          1 1 1 1 1 1 1 1 1 1 1 1
          1 1 1 1 1 1 1 1 1 1 1 1
          1 1 1 1 1 1 1 1 1 1 1 1
          1 1 1 1 1 1 1 1 1 1 1 1
          1 1 1 1 1 1 1 1 1 1 1 1
          1 1 1 1 1 1 1 1 1 1 1 1
          1 1 1 1 1 1 1 1 1 1 1 1
          1 1 1 1 1 1 1 1 1 1 1 1
          1 1 1 1 1 1 1 1 1 1 1 1
          1 1 1 1 1 1 1 1 1 1 1 1
          1 1 1 1 1 1 1 1 1 1 1 1
        </DataArray>
        <DataArray type="Float32" Name="pn" NumberOfComponents="1" format="ascii">
          2.65847e+07 2.65849e+07 2.65854e+07 2.6586e+07 2.65867e+07 2.65875e+07 2.65883e+07 2.65891e+07 2.65899e+07 2.65907e+07 2.65916e+07 2.65926e+07
          2.65936e+07 2.65946e+07 2.65957e+07 2.65967e+07 2.65978e+07 2.65988e+07 2.65998e+07 2.66008e+07 2.66017e+07 2.66026e+07 2.66032e+07 2.66036e+07
          2.65602e+07 2.65607e+07 2.65613e+07 2.6562e+07 2.65627e+07 2.65635e+07 2.65643e+07 2.65651e+07 2.65659e+07 2.65667e+07 2.65676e+07 2.65686e+07
          2.65696e+07 2.65707e+07 2.65717e+07 2.65728e+07 2.65738e+07 2.65749e+07 2.65759e+07 2.65769e+07 2.65779e+07 2.65788e+07 2.65796e+07 2.65801e+07
          2.65357e+07 2.65364e+07 2.65371e+07 2.65378e+07 2.65387e+07 2.65395e+07 2.65404e+07 2.65412e+07 2.6542e+07 2.65428e+07 2.65437e+07 2.65446e+07
          2.65457e+07 2.65468e+07 2.65478e+07 2.65488e+07 2.65499e+07 2.65509e+07 2.6552e+07 2.6553e+07 2.65541e+07 2.65551e+07 2.65562e+07 2.6557e+07
          2.65112e+07 2.6512e+07 2.65128e+07 2.65137e+07 2.65146e+07 2.65155e+07 2.65164e+07 2.65173e+07 2.65181e+07 2.6519e+07 2.65198e+07 2.65207e+07
          2.65218e+07 2.65228e+07 2.65239e+07 2.65249e+07 2.6526e+07 2.6527e+07 2.65281e+07 2.65291e+07 2.65303e+07 2.65315e+07 2.6533e+07 2.65358e+07
          2.64866e+07 2.64876e+07 2.64886e+07 2.64895e+07 2.64905e+07 2.64915e+07 2.64924e+07 2.64934e+07 2.64942e+07 2.64951e+07 2.6496e+07 2.64968e+07
          2.64979e+07 2.64989e+07 2.64999e+07 2.6501e+07 2.6502e+07 2.6503e+07 2.65041e+07 2.65052e+07 2.65064e+07 2.65077e+07 2.65093e+07 2.65125e+07
          2.64621e+07 2.64632e+07 2.64643e+07 2.64653e+07 2.64664e+07 2.64674e+07 2.64684e+07 2.64695e+07 2.64704e+07 2.64712e+07 2.64721e+07 2.6473e+07
          2.6474e+07 2.6475e+07 2.6476e+07 2.6477e+07 2.6478e+07 2.64791e+07 2.64801e+07 2.64812e+07 2.64824e+07 2.64836e+07 2.64851e+07 2.64879e+07
          2.64376e+07 2.64388e+07 2.644e+07 2.64412e+07 2.64423e+07 2.64434e+07 2.64445e+07 2.64456e+07 2.64465e+07 2.64474e+07 2.64482e+07 2.64491e+07
          2.64501e+07 2.64511e+07 2.64521e+07 2.64531e+07 2.64541e+07 2.64551e+07 2.64561e+07 2.64572e+07 2.64582e+07 2.64593e+07 2.64603e+07 2.64613e+07
          2.64131e+07 2.64145e+07 2.64158e+07 2.6417e+07 2.64182e+07 2.64194e+07 2.64205e+07 2.64216e+07 2.64226e+07 2.64235e+07 2.64244e+07 2.64252e+07
          2.64262e+07 2.64272e+07 2.64281e+07 2.64291e+07 2.64301e+07 2.64311e+07 2.64321e+07 2.64331e+07 2.6434e+07 2.64349e+07 2.64357e+07 2.64363e+07
          2.63885e+07 2.63902e+07 2.63916e+07 2.63929e+07 2.63942e+07 2.63953e+07 2.63965e+07 2.63977e+07 2.63988e+07 2.63997e+07 2.64006e+07 2.64014e+07
          2.64023e+07 2.64032e+07 2.64042e+07 2.64051e+07 2.64061e+07 2.64071e+07 2.64081e+07 2.6409e+07 2.64099e+07 2.64107e+07 2.64114e+07 2.64118e+07
          2.6364e+07 2.63658e+07 2.63673e+07 2.63686e+07 2.63699e+07 2.63712e+07 2.63724e+07 2.63736e+07 2.63747e+07 2.63757e+07 2.63766e+07 2.63774e+07
          2.63783e+07 2.63792e+07 2.63801e+07 2.63811e+07 2.6382e+07 2.6383e+07 2.63839e+07 2.63847e+07 2.63856e+07 2.63863e+07 2.63868e+07 2.63871e+07
          2.63395e+07 2.63411e+07 2.63427e+07 2.63441e+07 2.63455e+07 2.63469e+07 2.63482e+07 2.63494e+07 2.63505e+07 2.63515e+07 2.63524e+07 2.63533e+07
          2.63542e+07 2.63551e+07 2.6356e+07 2.63569e+07 2.63578e+07 2.63587e+07 2.63595e+07 2.63603e+07 2.6361e+07 2.63615e+07 2.6362e+07 2.63622e+07
          2.6315e+07 2.63166e+07 2.63182e+07 2.63197e+07 2.63212e+07 2.63226e+07 2.63239e+07 2.63253e+07 2.63263e+07 2.63273e+07 2.63283e+07 2.63292e+07
          2.63301e+07 2.6331e+07 2.63319e+07 2.63328e+07 2.63336e+07 2.63344e+07 2.63352e+07 2.63359e+07 2.63365e+07 2.6337e+07 2.63373e+07 2.63375e+07
          2.62904e+07 2.62921e+07 2.62938e+07 2.62954e+07 2.62969e+07 2.62984e+07 2.62998e+07 2.63011e+07 2.63022e+07 2.63033e+07 2.63042e+07 2.63051e+07
          2.63061e+07 2.6307e+07 2.63078e+07 2.63087e+07 2.63095e+07 2.63102e+07 2.63109e+07 2.63116e+07 2.63121e+07 2.63125e+07 2.63128e+07 2.6313e+07
          2.62659e+07 2.62677e+07 2.62695e+07 2.62711e+07 2.62727e+07 2.62742e+07 2.62756e+07 2.6277e+07 2.62782e+07 2.62793e+07 2.62803e+07 2.62812e+07
          2.62821e+07 2.62829e+07 2.62838e+07 2.62846e+07 2.62854e+07 2.62861e+07 2.62867e+07 2.62873e+07 2.62878e+07 2.62882e+07 2.62885e+07 2.62886e+07
          2.62414e+07 2.62433e+07 2.62452e+07 2.62469e+07 2.62485e+07 2.625e+07 2.62515e+07 2.62529e+07 2.62542e+07 2.62553e+07 2.62563e+07 2.62572e+07
          2.62581e+07 2.62589e+07 2.62597e+07 2.62605e+07 2.62613e+07 2.6262e+07 2.62626e+07 2.62632e+07 2.62637e+07 2.6264e+07 2.62643e+07 2.62644e+07
          2.62169e+07 2.62191e+07 2.6221e+07 2.62228e+07 2.62245e+07 2.6226e+07 2.62274e+07 2.62288e+07 2.62301e+07 2.62312e+07 2.62323e+07 2.62332e+07
          2.62341e+07 2.62349e+07 2.62358e+07 2.62365e+07 2.62373e+07 2.6238e+07 2.62386e+07 2.62391e+07 2.62396e+07 2.624e+07 2.62402e+07 2.62403e+07
        </DataArray>
        <DataArray type="Float32" Name="pw" NumberOfComponents="1" format="ascii">
          2.65747e+07 2.65749e+07 2.65754e+07 2.6576e+07 2.65767e+07 2.65775e+07 2.65783e+07 2.65791e+07 2.65799e+07 2.65807e+07 2.65816e+07 2.65826e+07
          2.65836e+07 2.65846e+07 2.65857e+07 2.65867e+07 2.65878e+07 2.65888e+07 2.65898e+07 2.65908e+07 2.65917e+07 2.65926e+07 2.65932e+07 2.65936e+07
          2.65502e+07 2.65507e+07 2.65513e+07 2.6552e+07 2.65527e+07 2.65535e+07 2.65543e+07 2.65551e+07 2.65559e+07 2.65567e+07 2.65576e+07 2.65586e+07
          2.65596e+07 2.65607e+07 2.65617e+07 2.65628e+07 2.65638e+07 2.65649e+07 2.65659e+07 2.65669e+07 2.65679e+07 2.65688e+07 2.65696e+07 2.65701e+07
          2.65257e+07 2.65264e+07 2.65271e+07 2.65278e+07 2.65287e+07 2.65295e+07 2.65304e+07 2.65312e+07 2.6532e+07 2.65328e+07 2.65337e+07 2.65346e+07
          2.65357e+07 2.65368e+07 2.65378e+07 2.65388e+07 2.65399e+07 2.65409e+07 2.6542e+07 2.6543e+07 2.65441e+07 2.65451e+07 2.65462e+07 2.6547e+07
          2.65012e+07 2.6502e+07 2.65028e+07 2.65037e+07 2.65046e+07 2.65055e+07 2.65064e+07 2.65073e+07 2.65081e+07 2.6509e+07 2.65098e+07 2.65107e+07
          2.65118e+07 2.65128e+07 2.65139e+07 2.65149e+07 2.6516e+07 2.6517e+07 2.65181e+07 2.65191e+07 2.65203e+07 2.65215e+07 2.6523e+07 2.65254e+07
          2.64766e+07 2.64776e+07 2.64786e+07 2.64795e+07 2.64805e+07 2.64815e+07 2.64824e+07 2.64834e+07 2.64842e+07 2.64851e+07 2.6486e+07 2.64868e+07
          2.64879e+07 2.64889e+07 2.64899e+07 2.6491e+07 2.6492e+07 2.6493e+07 2.64941e+07 2.64952e+07 2.64964e+07 2.64977e+07 2.64993e+07 2.65022e+07
          2.64521e+07 2.64532e+07 2.64543e+07 2.64553e+07 2.64564e+07 2.64574e+07 2.64584e+07 2.64595e+07 2.64604e+07 2.64612e+07 2.64621e+07 2.6463e+07
          2.6464e+07 2.6465e+07 2.6466e+07 2.6467e+07 2.6468e+07 2.64691e+07 2.64701e+07 2.64712e+07 2.64724e+07 2.64736e+07 2.64751e+07 2.64776e+07
          2.64276e+07 2.64288e+07 2.643e+07 2.64312e+07 2.64323e+07 2.64334e+07 2.64345e+07 2.64356e+07 2.64365e+07 2.64374e+07 2.64382e+07 2.64391e+07
          2.64401e+07 2.64411e+07 2.64421e+07 2.64431e+07 2.64441e+07 2.64451e+07 2.64461e+07 2.64472e+07 2.64482e+07 2.64493e+07 2.64503e+07 2.64513e+07
          2.64031e+07 2.64045e+07 2.64058e+07 2.6407e+07 2.64082e+07 2.64094e+07 2.64105e+07 2.64116e+07 2.64126e+07 2.64135e+07 2.64144e+07 2.64152e+07
          2.64162e+07 2.64172e+07 2.64181e+07 2.64191e+07 2.64201e+07 2.64211e+07 2.64221e+07 2.64231e+07 2.6424e+07 2.64249e+07 2.64257e+07 2.64263e+07
          2.63785e+07 2.63802e+07 2.63816e+07 2.63829e+07 2.63842e+07 2.63853e+07 2.63865e+07 2.63877e+07 2.63888e+07 2.63897e+07 2.63906e+07 2.63914e+07
          2.63923e+07 2.63932e+07 2.63942e+07 2.63951e+07 2.63961e+07 2.63971e+07 2.63981e+07 2.6399e+07 2.63999e+07 2.64007e+07 2.64014e+07 2.64018e+07
          2.6354e+07 2.63558e+07 2.63573e+07 2.63586e+07 2.63599e+07 2.63612e+07 2.63624e+07 2.63636e+07 2.63647e+07 2.63657e+07 2.63666e+07 2.63674e+07
          2.63683e+07 2.63692e+07 2.63701e+07 2.63711e+07 2.6372e+07 2.6373e+07 2.63739e+07 2.63747e+07 2.63756e+07 2.63763e+07 2.63768e+07 2.63771e+07
          2.63295e+07 2.63311e+07 2.63327e+07 2.63341e+07 2.63355e+07 2.63369e+07 2.63382e+07 2.63394e+07 2.63405e+07 2.63415e+07 2.63424e+07 2.63433e+07
          2.63442e+07 2.63451e+07 2.6346e+07 2.63469e+07 2.63478e+07 2.63487e+07 2.63495e+07 2.63503e+07 2.6351e+07 2.63515e+07 2.6352e+07 2.63522e+07
          2.6305e+07 2.63066e+07 2.63082e+07 2.63097e+07 2.63112e+07 2.63126e+07 2.63139e+07 2.63153e+07 2.63163e+07 2.63173e+07 2.63183e+07 2.63192e+07
          2.63201e+07 2.6321e+07 2.63219e+07 2.63228e+07 2.63236e+07 2.63244e+07 2.63252e+07 2.63259e+07 2.63265e+07 2.6327e+07 2.63273e+07 2.63275e+07
          2.62804e+07 2.62821e+07 2.62838e+07 2.62854e+07 2.62869e+07 2.62884e+07 2.62898e+07 2.62911e+07 2.62922e+07 2.62933e+07 2.62942e+07 2.62951e+07
          2.62961e+07 2.6297e+07 2.62978e+07 2.62987e+07 2.62995e+07 2.63002e+07 2.63009e+07 2.63016e+07 2.63021e+07 2.63025e+07 2.63028e+07 2.6303e+07
          2.62559e+07 2.62577e+07 2.62595e+07 2.62611e+07 2.62627e+07 2.62642e+07 2.62656e+07 2.6267e+07 2.62682e+07 2.62693e+07 2.62703e+07 2.62712e+07
          2.62721e+07 2.62729e+07 2.62738e+07 2.62746e+07 2.62754e+07 2.62761e+07 2.62767e+07 2.62773e+07 2.62778e+07 2.62782e+07 2.62785e+07 2.62786e+07
          2.62314e+07 2.62333e+07 2.62352e+07 2.62369e+07 2.62385e+07 2.624e+07 2.62415e+07 2.62429e+07 2.62442e+07 2.62453e+07 2.62463e+07 2.62472e+07
          2.62481e+07 2.62489e+07 2.62497e+07 2.62505e+07 2.62513e+07 2.6252e+07 2.62526e+07 2.62532e+07 2.62537e+07 2.6254e+07 2.62543e+07 2.62544e+07
          2.62069e+07 2.62091e+07 2.6211e+07 2.62128e+07 2.62145e+07 2.6216e+07 2.62174e+07 2.62188e+07 2.62201e+07 2.62212e+07 2.62223e+07 2.62232e+07
          2.62241e+07 2.62249e+07 2.62258e+07 2.62265e+07 2.62273e+07 2.6228e+07 2.62286e+07 2.62291e+07 2.62296e+07 2.623e+07 2.62302e+07 2.62303e+07
        </DataArray>
        <DataArray type="Float32" Name="pc" NumberOfComponents="1" format="ascii">
          10000 10000 10000 10000 10000 10000 10000 10000 10000 10000 10000 10000
          10000 10000 10000 10000 10000 10000 10000 10000 10000 10000 10000 10000
          10000 10000 10000 10000 10000 10000 10000 10000 10000 10000 10000 10000
          10000 10000 10000 10000 10000 10000 10000 10000 10000 10000 10000 10000
          10000 10000 10000 10000 10000 10000 10000 10000 10000 10000 10000 10000
          10000 10000 10000 10000 10000 10000 10000 10000 10000 10000 10000 10000
          10000 10000 10000 10000 10000 10000 10000 10000 10000 10000 10000 10000
          10000 10000 10000 10000 10000 10000 10000 10000 10000 10000 10001.1 10348.5
          10000 10000 10000 10000 10000 10000 10000 10000 10000 10000 10000 10000
          10000 10000 10000 10000 10000 10000 10000 10000 10000 10000 10001.3 10355.1
          10000 10000 10000 10000 10000 10000 10000 10000 10000 10000 10000 10000
          10000 10000 10000 10000 10000 10000 10000 10000 10000 10000 10001.2 10355.6
          10000 10000 10000 10000 10000 10000 10000 10000 10000 10000 10000 10000
          10000 10000 10000 10000 10000 10000 10000 10000 10000 10000 10000 10008.6
          10000 10000 10000 10000 10000 10000 10000 10000 10000 10000 10000 10000
          10000 10000 10000 10000 10000 10000 10000 10000 10000 10000 10000 10000
          10000 10000 10000 10000 10000 10000 10000 10000 10000 10000 10000 10000
          10000 10000 10000 10000 10000 10000 10000 10000 10000 10000 10000 10000
          10000 10000 10000 10000 10000 10000 10000 10000 10000 10000 10000 10000
          10000 10000 10000 10000 10000 10000 10000 10000 10000 10000 10000 10000
          10000 10000 10000 10000 10000 10000 10000 10000 10000 10000 10000 10000
          10000 10000 10000 10000 10000 10000 10000 10000 10000 10000 10000 10000
          10000 10000 10000 10000 10000 10000 10000 10000 10000 10000 10000 10000
          10000 10000 10000 10000 10000 10000 10000 10000 10000 10000 10000 10000
          10000 10000 10000 10000 10000 10000 10000 10000 10000 10000 10000 10000
          10000 10000 10000 10000 10000 10000 10000 10000 10000 10000 10000 10000
          10000 10000 10000 10000 10000 10000 10000 10000 10000 10000 10000 10000
          10000 10000 10000 10000 10000 10000 10000 10000 10000 10000 10000 10000
          10000 10000 10000 10000 10000 10000 10000 10000 10000 10000 10000 10000
          10000 10000 10000 10000 10000 10000 10000 10000 10000 10000 10000 10000
          10000 10000 10000 10000 10000 10000 10000 10000 10000 10000 10000 10000
          10000 10000 10000 10000 10000 10000 10000 10000 10000 10000 10000 10000
        </DataArray>
        <DataArray type="Float32" Name="rhoW" NumberOfComponents="1" format="ascii">
          976.48 976.48 976.48 976.481 976.481 976.481 976.482 976.482 976.482 976.483 976.483 976.484
          976.484 976.484 976.485 976.485 976.486 976.486 976.487 976.487 976.487 976.488 976.488 976.488
          976.518 976.518 976.519 976.519 976.519 976.52 976.52 976.52 976.506 976.506 976.507 976.507
          976.522 976.523 976.523 976.523 976.524 976.524 976.525 976.525 976.526 976.526 976.526 976.527
          976.556 976.557 976.557 976.557 976.558 976.558 976.558 976.477 965.54 965.525 965.528 965.642
          976.546 976.561 976.561 976.562 976.562 976.563 976.563 976.564 976.564 976.565 976.565 976.566
          976.595 976.595 976.595 976.596 976.596 976.596 976.596 976.51 965.504 965.489 965.49 965.597
          976.585 976.599 976.6 976.6 976.601 976.601 976.602 976.602 976.603 976.603 976.604 976.605
          976.633 976.633 976.633 976.634 976.634 976.635 976.635 976.544 965.494 965.478 965.479 965.584
          976.623 976.638 976.638 976.639 976.639 976.64 976.64 976.64 976.641 976.641 976.642 976.644
          976.671 976.671 976.672 976.672 976.673 976.673 976.673 976.579 965.483 965.468 965.469 965.572
          976.661 976.676 976.677 976.677 976.678 976.678 976.678 976.679 976.679 976.68 976.68 976.682
          976.709 976.71 976.71 976.711 976.711 976.712 976.711 976.613 965.473 965.457 965.458 965.56
          976.7 976.715 976.715 976.716 976.716 976.716 976.717 976.717 976.718 976.718 976.718 976.719
          976.747 976.748 976.748 976.749 976.749 976.75 976.75 976.647 965.462 965.446 965.447 965.546
          976.738 976.753 976.754 976.754 976.754 976.755 976.755 976.755 976.756 976.756 976.756 976.757
          976.786 976.786 976.787 976.787 976.788 976.788 976.788 976.677 965.452 965.436 965.437 965.529
          976.776 976.792 976.792 976.792 976.793 976.793 976.794 976.794 976.794 976.795 976.795 976.795
          976.824 976.824 976.825 976.826 976.826 976.827 976.827 976.802 965.441 965.425 965.426 965.45
          976.815 976.83 976.83 976.831 976.831 976.831 976.832 976.832 976.833 976.833 976.833 976.834
          976.862 976.863 976.863 976.864 976.864 976.865 976.865 976.841 965.43 965.414 965.415 965.44
          976.853 976.868 976.869 976.869 976.869 976.87 976.87 976.87 976.871 976.871 976.871 976.872
          976.9 976.901 976.901 976.902 976.903 976.903 976.904 976.879 965.42 965.404 965.404 965.429
          976.891 976.907 976.907 976.907 976.908 976.908 976.908 976.909 976.909 976.909 976.909 976.91
          976.938 976.939 976.94 976.94 976.941 976.942 976.942 976.917 965.409 965.393 965.393 965.419
          976.93 976.945 976.945 976.946 976.946 976.946 976.947 976.947 976.947 976.947 976.947 976.948
          976.977 976.977 976.978 976.979 976.979 976.98 976.98 976.954 965.415 965.399 965.4 965.424
          976.968 976.983 976.984 976.984 976.984 976.985 976.985 976.985 976.985 976.986 976.986 976.986
          977.015 977.016 977.016 977.017 977.018 977.018 977.019 977.019 977.002 977.003 977.004 977.005
          977.022 977.022 977.022 977.023 977.023 977.023 977.023 977.024 977.024 977.024 977.024 977.025
          977.053 977.054 977.055 977.055 977.056 977.057 977.057 977.058 977.059 977.059 977.06 977.06
          977.06 977.061 977.061 977.061 977.062 977.062 977.062 977.062 977.063 977.063 977.063 977.063
        </DataArray>
        <DataArray type="Float32" Name="rhoN" NumberOfComponents="1" format="ascii">
          246.097 246.099 246.103 246.109 246.116 246.123 246.13 246.137 246.145 246.153 246.161 246.17
          246.179 246.189 246.199 246.208 246.218 246.227 246.237 246.246 246.255 246.262 246.269 246.272
          245.921 245.925 245.931 245.937 245.944 245.951 245.959 245.966 245.958 245.966 245.974 245.983
          246.008 246.018 246.028 246.037 246.047 246.056 246.066 246.075 246.084 246.093 246.1 246.105
          245.745 245.751 245.757 245.764 245.772 245.78 245.787 245.711 235.367 235.362 235.371 235.478
          245.822 245.847 245.857 245.866 245.876 245.885 245.895 245.905 245.915 245.925 245.934 245.942
          245.568 245.576 245.583 245.591 245.6 245.608 245.616 245.534 235.134 235.128 235.136 235.237
          245.651 245.676 245.686 245.695 245.705 245.714 245.724 245.734 245.745 245.756 245.77 245.796
          245.391 245.4 245.409 245.418 245.427 245.436 245.444 245.359 234.922 234.916 234.924 235.023
          245.48 245.505 245.514 245.524 245.534 245.543 245.553 245.563 245.574 245.586 245.601 245.631
          245.215 245.225 245.235 245.244 245.254 245.264 245.273 245.184 234.711 234.704 234.713 234.81
          245.309 245.334 245.343 245.353 245.362 245.372 245.381 245.391 245.402 245.413 245.427 245.454
          245.038 245.049 245.06 245.071 245.081 245.092 245.101 245.009 234.499 234.493 234.501 234.597
          245.138 245.163 245.172 245.181 245.191 245.2 245.209 245.219 245.229 245.239 245.248 245.258
          244.861 244.874 244.886 244.898 244.909 244.92 244.929 244.833 234.287 234.281 234.29 234.383
          244.967 244.992 245.001 245.01 245.019 245.028 245.037 245.046 245.055 245.064 245.071 245.076
          244.684 244.7 244.713 244.725 244.736 244.747 244.758 244.653 234.076 234.07 234.079 234.165
          244.796 244.82 244.829 244.838 244.847 244.856 244.865 244.874 244.882 244.89 244.896 244.9
          244.508 244.524 244.538 244.55 244.562 244.574 244.585 244.571 233.863 233.857 233.865 233.894
          244.624 244.648 244.657 244.665 244.674 244.683 244.691 244.699 244.707 244.713 244.719 244.722
          244.331 244.346 244.36 244.374 244.386 244.399 244.411 244.397 233.648 233.643 233.651 233.68
          244.451 244.475 244.484 244.492 244.5 244.508 244.516 244.523 244.529 244.535 244.539 244.541
          244.153 244.169 244.183 244.198 244.211 244.224 244.237 244.223 233.434 233.429 233.437 233.466
          244.278 244.302 244.31 244.318 244.326 244.334 244.341 244.347 244.353 244.357 244.36 244.363
          243.976 243.992 244.007 244.022 244.036 244.05 244.063 244.048 233.22 233.215 233.224 233.253
          244.105 244.129 244.137 244.145 244.152 244.159 244.166 244.172 244.177 244.181 244.184 244.186
          243.799 243.816 243.832 243.847 243.862 243.876 243.889 243.874 233.022 233.017 233.026 233.055
          243.933 243.957 243.964 243.972 243.979 243.986 243.992 243.997 244.002 244.006 244.008 244.01
          243.622 243.64 243.657 243.673 243.688 243.702 243.715 243.728 243.722 243.733 243.743 243.752
          243.776 243.784 243.792 243.799 243.806 243.813 243.819 243.824 243.828 243.832 243.834 243.836
          243.444 243.465 243.483 243.5 243.515 243.529 243.543 243.555 243.567 243.578 243.587 243.596
          243.604 243.612 243.62 243.627 243.634 243.64 243.646 243.651 243.655 243.659 243.661 243.662
        </DataArray>
        <DataArray type="Float32" Name="mobW" NumberOfComponents="1" format="ascii">
          3140.03 3140.03 3140.03 3140.03 3140.03 3140.02 3140.02 3140.02 3140.02 3140.02 3140.01 3140.01
          3140.01 3140.01 3140 3140 3140 3140 3139.99 3139.99 3139.99 3139.99 3139.98 3139.98
          3137.46 3137.46 3137.46 3137.46 3137.45 3137.45 3137.45 3137.46 3138.23 3138.23 3138.23 3138.22
          3137.44 3137.44 3137.44 3137.44 3137.43 3137.43 3137.43 3137.43 3137.43 3137.42 3137.41 3137.41
          3134.89 3134.89 3134.89 3134.89 3134.89 3134.88 3134.9 3139.29 3707.11 3707.88 3707.77 3701.91
          3135.65 3134.87 3134.87 3134.87 3134.86 3134.86 3134.86 3134.86 3134.85 3134.85 3134.84 3134.83
          3132.32 3132.33 3132.33 3132.32 3132.32 3132.32 3132.34 3137.04 3708.49 3709.31 3709.28 3703.77
          3133.08 3132.3 3132.3 3132.3 3132.3 3132.3 3132.29 3132.29 3132.29 3132.29 3129.56 2381.44
          3129.76 3129.77 3129.76 3129.76 3129.76 3129.75 3129.78 3134.69 3708.58 3709.4 3709.37 3703.96
          3130.52 3129.74 3129.74 3129.74 3129.73 3129.73 3129.73 3129.73 3129.73 3129.73 3126.45 2367.32
          3127.2 3127.21 3127.21 3127.2 3127.2 3127.2 3127.22 3132.32 3708.66 3709.49 3709.46 3704.12
          3127.97 3127.18 3127.18 3127.18 3127.18 3127.18 3127.17 3127.17 3127.17 3127.17 3124.24 2364.57
          3124.65 3124.66 3124.65 3124.65 3124.65 3124.64 3124.67 3129.97 3708.74 3709.57 3709.54 3704.29
          3125.42 3124.63 3124.63 3124.62 3124.62 3124.62 3124.62 3124.62 3124.62 3124.62 3124.63 3103.09
          3122.1 3122.11 3122.1 3122.1 3122.09 3122.09 3122.12 3127.67 3708.83 3709.66 3709.63 3704.53
          3122.87 3122.08 3122.08 3122.07 3122.07 3122.07 3122.07 3122.07 3122.07 3122.07 3122.08 3122.04
          3119.56 3119.56 3119.55 3119.55 3119.55 3119.55 3119.58 3125.57 3708.91 3709.75 3709.72 3704.98
          3120.33 3119.53 3119.53 3119.53 3119.53 3119.53 3119.52 3119.52 3119.52 3119.52 3119.53 3119.5
          3117.02 3117.01 3117.01 3117.01 3117.01 3117 3117 3118.35 3708.98 3709.83 3709.83 3708.58
          3117.79 3116.99 3116.99 3116.99 3116.99 3116.98 3116.98 3116.98 3116.98 3116.98 3116.98 3116.96
          3114.48 3114.48 3114.47 3114.47 3114.47 3114.47 3114.47 3115.8 3709.07 3709.92 3709.92 3708.63
          3115.26 3114.45 3114.45 3114.45 3114.45 3114.45 3114.45 3114.45 3114.44 3114.44 3114.44 3114.42
          3111.95 3111.94 3111.94 3111.94 3111.94 3111.93 3111.93 3113.28 3709.15 3710.01 3710.01 3708.71
          3112.73 3111.92 3111.92 3111.92 3111.92 3111.91 3111.91 3111.91 3111.91 3111.91 3111.91 3111.89
          3109.42 3109.42 3109.41 3109.41 3109.41 3109.41 3109.4 3110.77 3709.23 3710.1 3710.09 3708.79
          3110.2 3109.39 3109.39 3109.39 3109.39 3109.39 3109.38 3109.38 3109.38 3109.38 3109.38 3109.36
          3106.89 3106.89 3106.89 3106.89 3106.88 3106.88 3106.88 3108.29 3708.45 3709.31 3709.31 3708.03
          3107.68 3106.87 3106.86 3106.86 3106.86 3106.86 3106.86 3106.86 3106.86 3106.86 3106.86 3106.84
          3104.37 3104.37 3104.37 3104.36 3104.36 3104.36 3104.36 3104.36 3105.28 3105.26 3105.24 3105.22
          3104.35 3104.34 3104.34 3104.34 3104.34 3104.34 3104.34 3104.34 3104.34 3104.34 3104.34 3104.31
          3101.86 3101.85 3101.85 3101.84 3101.84 3101.83 3101.83 3101.83 3101.82 3101.82 3101.82 3101.82
          3101.81 3101.81 3101.81 3101.81 3101.81 3101.8 3101.8 3101.8 3101.8 3101.8 3101.8 3101.8
        </DataArray>
        <DataArray type="Float32" Name="mobN" NumberOfComponents="1" format="ascii">
          0 0 0 0 0 0 0 0 0 0 0 0
          0 0 0 0 0 0 0 0 0 0 0 0
          0 0 0 0 0 0 0 0 0 0 0 0
          0 0 0 0 0 0 0 0 0 0 0 0
          0 0 0 0 0 0 0 0 0 0 0 0
          0 0 0 0 0 0 0 0 0 0 0 0
          0 0 0 0 0 0 0 0 0 0 0 0
          0 0 0 0 0 0 0 0 0 3.23999e-30 9.96861e-07 27.4374
          0 0 0 0 0 0 0 0 0 0 0 0
          0 0 0 0 0 0 0 0 0 2.40939e-29 1.7508e-06 28.9384
          0 0 0 0 0 0 0 0 0 0 0 0
          0 0 0 0 0 0 0 0 0 6.77218e-30 1.25935e-06 29.0448
          0 0 0 0 0 0 0 0 0 0 0 0
          0 0 0 0 0 0 0 0 0 0 1.33668e-22 0.000501276
          0 0 0 0 0 0 0 0 0 0 0 0
          0 0 0 0 0 0 0 0 0 0 0 9.49275e-19
          0 0 0 0 0 0 0 0 0 0 0 0
          0 0 0 0 0 0 0 0 0 0 0 0
          0 0 0 0 0 0 0 0 0 0 0 0
          0 0 0 0 0 0 0 0 0 0 0 0
          0 0 0 0 0 0 0 0 0 0 0 0
          0 0 0 0 0 0 0 0 0 0 0 0
          0 0 0 0 0 0 0 0 0 0 0 0
          0 0 0 0 0 0 0 0 0 0 0 0
          0 0 0 0 0 0 0 0 0 0 0 0
          0 0 0 0 0 0 0 0 0 0 0 0
          0 0 0 0 0 0 0 0 0 0 0 0
          0 0 0 0 0 0 0 0 0 0 0 0
          0 0 0 0 0 0 0 0 0 0 0 0
          0 0 0 0 0 0 0 0 0 0 0 0
          0 0 0 0 0 0 0 0 0 0 0 0
          0 0 0 0 0 0 0 0 0 0 0 0
        </DataArray>
        <DataArray type="Float32" Name="porosity" NumberOfComponents="1" format="ascii">
          0.3 0.3 0.3 0.3 0.3 0.3 0.3 0.3 0.3 0.3 0.3 0.3
          0.3 0.3 0.3 0.3 0.3 0.3 0.3 0.3 0.3 0.3 0.3 0.3
          0.3 0.3 0.3 0.3 0.3 0.3 0.3 0.3 0.3 0.3 0.3 0.3
          0.3 0.3 0.3 0.3 0.3 0.3 0.3 0.3 0.3 0.3 0.3 0.3
          0.3 0.3 0.3 0.3 0.3 0.3 0.3 0.3 0.3 0.3 0.3 0.3
          0.3 0.3 0.3 0.3 0.3 0.3 0.3 0.3 0.3 0.3 0.3 0.3
          0.3 0.3 0.3 0.3 0.3 0.3 0.3 0.3 0.3 0.3 0.3 0.3
          0.3 0.3 0.3 0.3 0.3 0.3 0.3 0.3 0.3 0.3 0.3 0.3
          0.3 0.3 0.3 0.3 0.3 0.3 0.3 0.3 0.3 0.3 0.3 0.3
          0.3 0.3 0.3 0.3 0.3 0.3 0.3 0.3 0.3 0.3 0.3 0.3
          0.3 0.3 0.3 0.3 0.3 0.3 0.3 0.3 0.3 0.3 0.3 0.3
          0.3 0.3 0.3 0.3 0.3 0.3 0.3 0.3 0.3 0.3 0.3 0.3
          0.3 0.3 0.3 0.3 0.3 0.3 0.3 0.3 0.3 0.3 0.3 0.3
          0.3 0.3 0.3 0.3 0.3 0.3 0.3 0.3 0.3 0.3 0.3 0.3
          0.3 0.3 0.3 0.3 0.3 0.3 0.3 0.3 0.3 0.3 0.3 0.3
          0.3 0.3 0.3 0.3 0.3 0.3 0.3 0.3 0.3 0.3 0.3 0.3
          0.3 0.3 0.3 0.3 0.3 0.3 0.3 0.3 0.3 0.3 0.3 0.3
          0.3 0.3 0.3 0.3 0.3 0.3 0.3 0.3 0.3 0.3 0.3 0.3
          0.3 0.3 0.3 0.3 0.3 0.3 0.3 0.3 0.3 0.3 0.3 0.3
          0.3 0.3 0.3 0.3 0.3 0.3 0.3 0.3 0.3 0.3 0.3 0.3
          0.3 0.3 0.3 0.3 0.3 0.3 0.3 0.3 0.3 0.3 0.3 0.3
          0.3 0.3 0.3 0.3 0.3 0.3 0.3 0.3 0.3 0.3 0.3 0.3
          0.3 0.3 0.3 0.3 0.3 0.3 0.3 0.3 0.3 0.3 0.3 0.3
          0.3 0.3 0.3 0.3 0.3 0.3 0.3 0.3 0.3 0.3 0.3 0.3
          0.3 0.3 0.3 0.3 0.3 0.3 0.3 0.3 0.3 0.3 0.3 0.3
          0.3 0.3 0.3 0.3 0.3 0.3 0.3 0.3 0.3 0.3 0.3 0.3
          0.3 0.3 0.3 0.3 0.3 0.3 0.3 0.3 0.3 0.3 0.3 0.3
          0.3 0.3 0.3 0.3 0.3 0.3 0.3 0.3 0.3 0.3 0.3 0.3
          0.3 0.3 0.3 0.3 0.3 0.3 0.3 0.3 0.3 0.3 0.3 0.3
          0.3 0.3 0.3 0.3 0.3 0.3 0.3 0.3 0.3 0.3 0.3 0.3
          0.3 0.3 0.3 0.3 0.3 0.3 0.3 0.3 0.3 0.3 0.3 0.3
          0.3 0.3 0.3 0.3 0.3 0.3 0.3 0.3 0.3 0.3 0.3 0.3
        </DataArray>
        <DataArray type="Float32" Name="temperature" NumberOfComponents="1" format="ascii">
          363.962 363.962 363.962 363.962 363.962 363.962 363.962 363.962 363.962 363.962 363.962 363.962
          363.962 363.962 363.962 363.962 363.962 363.962 363.962 363.962 363.962 363.962 363.962 363.962
          363.888 363.888 363.888 363.888 363.888 363.888 363.888 363.888 363.91 363.91 363.91 363.91
          363.888 363.888 363.888 363.888 363.888 363.888 363.888 363.888 363.888 363.888 363.888 363.888
          363.812 363.813 363.813 363.813 363.813 363.813 363.813 363.938 379.943 379.964 379.961 379.801
          363.835 363.813 363.813 363.813 363.813 363.813 363.813 363.813 363.813 363.813 363.813 363.812
          363.737 363.738 363.738 363.738 363.738 363.738 363.738 363.872 379.978 380 379.999 379.849