<?xml version="1.0"?>
<VTKFile type="UnstructuredGrid" version="0.1" byte_order="LittleEndian">
  <UnstructuredGrid>
    <Piece NumberOfCells="384" NumberOfPoints="425">
      <CellData Scalars="Sn">
        <DataArray type="Float32" Name="Sn" NumberOfComponents="1" format="ascii">
          0 0 0 0 0 0 0 0 0 0 0 0
          0 0 0 0 0 0 0 0 0 0 0 0
          0 0 0 0 0 0 0 0 0 0 0 0
          0 0 0 0 0 0 0 0 0 0 0 0
          0 0 0 0 0 0 0 0 0 0 0 0
          0 0 0 0 0 0 0 0 0 0 0 0
          0 0 0 0 0 0 0 0 0 0 0 0
          0 0 0 0 0 0 0 0 0 0 0 0.0453722
          0 0 0 0 0 0 0 0 0 0 0 0
          0 0 0 0 0 0 0 0 0 0 0 0.0459817
          0 0 0 0 0 0 0 0 0 0 0 0
          0 0 0 0 0 0 0 0 0 0 0 0.0460374
          0 0 0 0 0 0 0 0 0 0 0 0
          0 0 0 0 0 0 0 0 0 0 0 0.000300546
          0 0 0 0 0 0 0 0 0 0 0 0
          0 0 0 0 0 0 0 0 0 0 0 0
          0 0 0 0 0 0 0 0 0 0 0 0
          0 0 0 0 0 0 0 0 0 0 0 0
          0 0 0 0 0 0 0 0 0 0 0 0
          0 0 0 0 0 0 0 0 0 0 0 0
          0 0 0 0 0 0 0 0 0 0 0 0
          0 0 0 0 0 0 0 0 0 0 0 0
          0 0 0 0 0 0 0 0 0 0 0 0
          0 0 0 0 0 0 0 0 0 0 0 0
          0 0 0 0 0 0 0 0 0 0 0 0
          0 0 0 0 0 0 0 0 0 0 0 0
          0 0 0 0 0 0 0 0 0 0 0 0
          0 0 0 0 0 0 0 0 0 0 0 0
          0 0 0 0 0 0 0 0 0 0 0 0
          0 0 0 0 0 0 0 0 0 0 0 0
          0 0 0 0 0 0 0 0 0 0 0 0
          0 0 0 0 0 0 0 0 0 0 0 0
        </DataArray>
        <DataArray type="Float32" Name="Sw" NumberOfComponents="1" format="ascii">
          1 1 1 1 1 1 1 1 1 1 1 1
          1 1 1 1 1 1 1 1 1 1 1 1
          1 1 1 1 1 1 1 1 1 1 1 1
          1 1 1 1 1 1 1 1 1 1 1 1
          1 1 1 1 1 1 1 1 1 1 1 1
          1 1 1 1 1 1 1 1 1 1 1 1
          1 1 1 1 1 1 1 1 1 1 1 1
          1 1 1 1 1 1 1 1 1 1 1 0.954628
          1 1 1 1 1 1 1 1 1 1 1 1
          1 1 1 1 1 1 1 1 1 1 1 0.954018
          1 1 1 1 1 1 1 1 1 1 1 1
          1 1 1 1 1 1 1 1 1 1 1 0.953963
          1 1 1 1 1 1 1 1 1 1 1 1
          1 1 1 1 1 1 1 1 1 1 1 0.999699
          1 1 1 1 1 1 1 1 1 1 1 1
          1 1 1 1 1 1 1 1 1 1 1 1
          1 1 1 1 1 1 1 1 1 1 1 1
          1 1 1 1 1 1 1 1 1 1 1 1
          1 1 1 1 1 1 1 1 1 1 1 1
          1 1 1 1 1 1 1 1 1 1 1 1
          1 1 1 1 1 1 1 1 1 1 1 1
          1 1 1 1 1 1 1 1 1 1 1 1
          1 1 1 1 1 1 1 1 1 1 1 1
          1 1 1 1 1 1 1 1 1 1 1 1
          1 1 1 1 1 1 1 1 1 1 1 1
          1 1 1 1 1 1 1 1 1 1 1 1
          1 1 1 1 1 1 1 1 1 1 1 1
          1 1 1 1 1 1 1 1 1 1 1 1
          1 1 1 1 1 1 1 1 1 1 1 1
          1 1 1 1 1 1 1 1 1 1 1 1
          1 1 1 1 1 1 1 1 1 1 1 1
          1 1 1 1 1 1 1 1 1 1 1 1
        </DataArray>
        <DataArray type="Float32" Name="pN" NumberOfComponents="1" format="ascii">
          2.63789e+07 2.6381e+07 2.6383e+07 2.6385e+07 2.63869e+07 2.63887e+07 2.63906e+07 2.63924e+07 2.63942e+07 2.6396e+07 2.63978e+07 2.63996e+07
          2.64014e+07 2.64032e+07 2.64051e+07 2.64069e+07 2.64087e+07 2.64105e+07 2.64122e+07 2.6414e+07 2.64156e+07 2.64171e+07 2.64183e+07 2.6419e+07
          2.63545e+07 2.63565e+07 2.63585e+07 2.63604e+07 2.63623e+07 2.63642e+07 2.6366e+07 2.63678e+07 2.63696e+07 2.63714e+07 2.63732e+07 2.6375e+07
          2.63768e+07 2.63786e+07 2.63804e+07 2.63822e+07 2.63841e+07 2.63859e+07 2.63877e+07 2.63894e+07 2.63912e+07 2.63928e+07 2.63942e+07 2.63951e+07
          2.63302e+07 2.63321e+07 2.6334e+07 2.63359e+07 2.63378e+07 2.63396e+07 2.63414e+07 2.63432e+07 2.6345e+07 2.63468e+07 2.63486e+07 2.63504e+07
          2.63522e+07 2.6354e+07 2.63558e+07 2.63576e+07 2.63595e+07 2.63613e+07 2.63631e+07 2.6365e+07 2.63668e+07 2.63687e+07 2.63705e+07 2.63721e+07
          2.63059e+07 2.63077e+07 2.63096e+07 2.63114e+07 2.63132e+07 2.6315e+07 2.63168e+07 2.63186e+07 2.63204e+07 2.63222e+07 2.6324e+07 2.63258e+07
          2.63276e+07 2.63294e+07 2.63312e+07 2.6333e+07 2.63348e+07 2.63367e+07 2.63386e+07 2.63405e+07 2.63425e+07 2.63447e+07 2.63472e+07 2.63517e+07
          2.62815e+07 2.62833e+07 2.62851e+07 2.62869e+07 2.62887e+07 2.62905e+07 2.62923e+07 2.62941e+07 2.62959e+07 2.62976e+07 2.62994e+07 2.63012e+07
          2.6303e+07 2.63048e+07 2.63066e+07 2.63084e+07 2.63102e+07 2.63121e+07 2.63139e+07 2.63159e+07 2.6318e+07 2.63203e+07 2.63231e+07 2.63283e+07
          2.62572e+07 2.62589e+07 2.62607e+07 2.62624e+07 2.62642e+07 2.6266e+07 2.62677e+07 2.62695e+07 2.62713e+07 2.6273e+07 2.62748e+07 2.62766e+07
          2.62784e+07 2.62802e+07 2.6282e+07 2.62838e+07 2.62856e+07 2.62874e+07 2.62893e+07 2.62912e+07 2.62932e+07 2.62954e+07 2.6298e+07 2.63026e+07
          2.62329e+07 2.62345e+07 2.62362e+07 2.62379e+07 2.62397e+07 2.62414e+07 2.62432e+07 2.62449e+07 2.62467e+07 2.62484e+07 2.62502e+07 2.6252e+07
          2.62538e+07 2.62556e+07 2.62573e+07 2.62591e+07 2.62609e+07 2.62627e+07 2.62645e+07 2.62664e+07 2.62682e+07 2.62701e+07 2.6272e+07 2.62736e+07
          2.62085e+07 2.62101e+07 2.62118e+07 2.62134e+07 2.62151e+07 2.62168e+07 2.62186e+07 2.62203e+07 2.62221e+07 2.62238e+07 2.62256e+07 2.62274e+07
          2.62291e+07 2.62309e+07 2.62327e+07 2.62345e+07 2.62362e+07 2.6238e+07 2.62398e+07 2.62415e+07 2.62432e+07 2.62448e+07 2.62462e+07 2.62471e+07
          2.61842e+07 2.61857e+07 2.61872e+07 2.61889e+07 2.61906e+07 2.61923e+07 2.6194e+07 2.61957e+07 2.61975e+07 2.61992e+07 2.6201e+07 2.62028e+07
          2.62045e+07 2.62063e+07 2.62081e+07 2.62098e+07 2.62116e+07 2.62133e+07 2.6215e+07 2.62167e+07 2.62183e+07 2.62198e+07 2.62209e+07 2.62216e+07
          2.61599e+07 2.61613e+07 2.61628e+07 2.61644e+07 2.61661e+07 2.61678e+07 2.61695e+07 2.61712e+07 2.61729e+07 2.61746e+07 2.61764e+07 2.61781e+07
          2.61798e+07 2.61816e+07 2.61833e+07 2.6185e+07 2.61867e+07 2.61884e+07 2.619e+07 2.61915e+07 2.6193e+07 2.61942e+07 2.61952e+07 2.61958e+07
          2.61355e+07 2.6137e+07 2.61385e+07 2.61401e+07 2.61417e+07 2.61433e+07 2.6145e+07 2.61466e+07 2.61483e+07 2.615e+07 2.61517e+07 2.61534e+07
          2.61551e+07 2.61567e+07 2.61584e+07 2.616e+07 2.61616e+07 2.61631e+07 2.61646e+07 2.6166e+07 2.61672e+07 2.61682e+07 2.6169e+07 2.61694e+07
          2.61112e+07 2.61127e+07 2.61142e+07 2.61157e+07 2.61172e+07 2.61188e+07 2.61205e+07 2.61221e+07 2.61237e+07 2.61254e+07 2.6127e+07 2.61287e+07
          2.61303e+07 2.61319e+07 2.61335e+07 2.61351e+07 2.61366e+07 2.6138e+07 2.61394e+07 2.61406e+07 2.61417e+07 2.61425e+07 2.61432e+07 2.61435e+07
          2.60869e+07 2.60883e+07 2.60898e+07 2.60913e+07 2.60928e+07 2.60943e+07 2.60959e+07 2.60975e+07 2.60991e+07 2.61008e+07 2.61024e+07 2.6104e+07
          2.61056e+07 2.61072e+07 2.61087e+07 2.61102e+07 2.61116e+07 2.6113e+07 2.61142e+07 2.61153e+07 2.61163e+07 2.61171e+07 2.61176e+07 2.61179e+07
          2.60625e+07 2.60639e+07 2.60653e+07 2.60668e+07 2.60683e+07 2.60698e+07 2.60714e+07 2.6073e+07 2.60746e+07 2.60762e+07 2.60777e+07 2.60793e+07
          2.60809e+07 2.60824e+07 2.60839e+07 2.60854e+07 2.60867e+07 2.6088e+07 2.60892e+07 2.60902e+07 2.60911e+07 2.60918e+07 2.60923e+07 2.60926e+07
          2.60382e+07 2.60395e+07 2.60409e+07 2.60423e+07 2.60438e+07 2.60453e+07 2.60468e+07 2.60484e+07 2.605e+07 2.60515e+07 2.60531e+07 2.60547e+07
          2.60562e+07 2.60577e+07 2.60592e+07 2.60606e+07 2.60619e+07 2.60632e+07 2.60643e+07 2.60653e+07 2.60662e+07 2.60668e+07 2.60673e+07 2.60675e+07
          2.60139e+07 2.6015e+07 2.60163e+07 2.60177e+07 2.60192e+07 2.60207e+07 2.60222e+07 2.60238e+07 2.60254e+07 2.60269e+07 2.60285e+07 2.603e+07
          2.60316e+07 2.60331e+07 2.60345e+07 2.60359e+07 2.60372e+07 2.60385e+07 2.60396e+07 2.60406e+07 2.60414e+07 2.6042e+07 2.60425e+07 2.60427e+07
        </DataArray>
        <DataArray type="Float32" Name="pW" NumberOfComponents="1" format="ascii">
          2.63689e+07 2.6371e+07 2.6373e+07 2.6375e+07 2.63769e+07 2.63787e+07 2.63806e+07 2.63824e+07 2.63842e+07 2.6386e+07 2.63878e+07 2.63896e+07
          2.63914e+07 2.63932e+07 2.63951e+07 2.63969e+07 2.63987e+07 2.64005e+07 2.64022e+07 2.6404e+07 2.64056e+07 2.64071e+07 2.64083e+07 2.6409e+07
          2.63445e+07 2.63465e+07 2.63485e+07 2.63504e+07 2.63523e+07 2.63542e+07 2.6356e+07 2.63578e+07 2.63596e+07 2.63614e+07 2.63632e+07 2.6365e+07
          2.63668e+07 2.63686e+07 2.63704e+07 2.63722e+07 2.63741e+07 2.63759e+07 2.63777e+07 2.63794e+07 2.63812e+07 2.63828e+07 2.63842e+07 2.63851e+07
          2.63202e+07 2.63221e+07 2.6324e+07 2.63259e+07 2.63278e+07 2.63296e+07 2.63314e+07 2.63332e+07 2.6335e+07 2.63368e+07 2.63386e+07 2.63404e+07
          2.63422e+07 2.6344e+07 2.63458e+07 2.63476e+07 2.63495e+07 2.63513e+07 2.63531e+07 2.6355e+07 2.63568e+07 2.63587e+07 2.63605e+07 2.63621e+07
          2.62959e+07 2.62977e+07 2.62996e+07 2.63014e+07 2.63032e+07 2.6305e+07 2.63068e+07 2.63086e+07 2.63104e+07 2.63122e+07 2.6314e+07 2.63158e+07
          2.63176e+07 2.63194e+07 2.63212e+07 2.6323e+07 2.63248e+07 2.63267e+07 2.63286e+07 2.63305e+07 2.63325e+07 2.63347e+07 2.63372e+07 2.63414e+07
          2.62715e+07 2.62733e+07 2.62751e+07 2.62769e+07 2.62787e+07 2.62805e+07 2.62823e+07 2.62841e+07 2.62859e+07 2.62876e+07 2.62894e+07 2.62912e+07
          2.6293e+07 2.62948e+07 2.62966e+07 2.62984e+07 2.63002e+07 2.63021e+07 2.63039e+07 2.63059e+07 2.6308e+07 2.63103e+07 2.63131e+07 2.6318e+07
          2.62472e+07 2.62489e+07 2.62507e+07 2.62524e+07 2.62542e+07 2.6256e+07 2.62577e+07 2.62595e+07 2.62613e+07 2.6263e+07 2.62648e+07 2.62666e+07
          2.62684e+07 2.62702e+07 2.6272e+07 2.62738e+07 2.62756e+07 2.62774e+07 2.62793e+07 2.62812e+07 2.62832e+07 2.62854e+07 2.6288e+07 2.62923e+07
          2.62229e+07 2.62245e+07 2.62262e+07 2.62279e+07 2.62297e+07 2.62314e+07 2.62332e+07 2.62349e+07 2.62367e+07 2.62384e+07 2.62402e+07 2.6242e+07
          2.62438e+07 2.62456e+07 2.62473e+07 2.62491e+07 2.62509e+07 2.62527e+07 2.62545e+07 2.62564e+07 2.62582e+07 2.62601e+07 2.6262e+07 2.62636e+07
          2.61985e+07 2.62001e+07 2.62018e+07 2.62034e+07 2.62051e+07 2.62068e+07 2.62086e+07 2.62103e+07 2.62121e+07 2.62138e+07 2.62156e+07 2.62174e+07
          2.62191e+07 2.62209e+07 2.62227e+07 2.62245e+07 2.62262e+07 2.6228e+07 2.62298e+07 2.62315e+07 2.62332e+07 2.62348e+07 2.62362e+07 2.62371e+07
          2.61742e+07 2.61757e+07 2.61772e+07 2.61789e+07 2.61806e+07 2.61823e+07 2.6184e+07 2.61857e+07 2.61875e+07 2.61892e+07 2.6191e+07 2.61928e+07
          2.61945e+07 2.61963e+07 2.61981e+07 2.61998e+07 2.62016e+07 2.62033e+07 2.6205e+07 2.62067e+07 2.62083e+07 2.62098e+07 2.62109e+07 2.62116e+07
          2.61499e+07 2.61513e+07 2.61528e+07 2.61544e+07 2.61561e+07 2.61578e+07 2.61595e+07 2.61612e+07 2.61629e+07 2.61646e+07 2.61664e+07 2.61681e+07
          2.61698e+07 2.61716e+07 2.61733e+07 2.6175e+07 2.61767e+07 2.61784e+07 2.618e+07 2.61815e+07 2.6183e+07 2.61842e+07 2.61852e+07 2.61858e+07
          2.61255e+07 2.6127e+07 2.61285e+07 2.61301e+07 2.61317e+07 2.61333e+07 2.6135e+07 2.61366e+07 2.61383e+07 2.614e+07 2.61417e+07 2.61434e+07
          2.61451e+07 2.61467e+07 2.61484e+07 2.615e+07 2.61516e+07 2.61531e+07 2.61546e+07 2.6156e+07 2.61572e+07 2.61582e+07 2.6159e+07 2.61594e+07
          2.61012e+07 2.61027e+07 2.61042e+07 2.61057e+07 2.61072e+07 2.61088e+07 2.61105e+07 2.61121e+07 2.61137e+07 2.61154e+07 2.6117e+07 2.61187e+07
          2.61203e+07 2.61219e+07 2.61235e+07 2.61251e+07 2.61266e+07 2.6128e+07 2.61294e+07 2.61306e+07 2.61317e+07 2.61325e+07 2.61332e+07 2.61335e+07
          2.60769e+07 2.60783e+07 2.60798e+07 2.60813e+07 2.60828e+07 2.60843e+07 2.60859e+07 2.60875e+07 2.60891e+07 2.60908e+07 2.60924e+07 2.6094e+07
          2.60956e+07 2.60972e+07 2.60987e+07 2.61002e+07 2.61016e+07 2.6103e+07 2.61042e+07 2.61053e+07 2.61063e+07 2.61071e+07 2.61076e+07 2.61079e+07
          2.60525e+07 2.60539e+07 2.60553e+07 2.60568e+07 2.60583e+07 2.60598e+07 2.60614e+07 2.6063e+07 2.60646e+07 2.60662e+07 2.60677e+07 2.60693e+07
          2.60709e+07 2.60724e+07 2.60739e+07 2.60754e+07 2.60767e+07 2.6078e+07 2.60792e+07 2.60802e+07 2.60811e+07 2.60818e+07 2.60823e+07 2.60826e+07
          2.60282e+07 2.60295e+07 2.60309e+07 2.60323e+07 2.60338e+07 2.60353e+07 2.60368e+07 2.60384e+07 2.604e+07 2.60415e+07 2.60431e+07 2.60447e+07
          2.60462e+07 2.60477e+07 2.60492e+07 2.60506e+07 2.60519e+07 2.60532e+07 2.60543e+07 2.60553e+07 2.60562e+07 2.60568e+07 2.60573e+07 2.60575e+07
          2.60039e+07 2.6005e+07 2.60063e+07 2.60077e+07 2.60092e+07 2.60107e+07 2.60122e+07 2.60138e+07 2.60154e+07 2.60169e+07 2.60185e+07 2.602e+07
          2.60216e+07 2.60231e+07 2.60245e+07 2.60259e+07 2.60272e+07 2.60285e+07 2.60296e+07 2.60306e+07 2.60314e+07 2.6032e+07 2.60325e+07 2.60327e+07
        </DataArray>
        <DataArray type="Float32" Name="pC" NumberOfComponents="1" format="ascii">
          10000 10000 10000 10000 10000 10000 10000 10000 10000 10000 10000 10000
          10000 10000 10000 10000 10000 10000 10000 10000 10000 10000 10000 10000
          10000 10000 10000 10000 10000 10000 10000 10000 10000 10000 10000 10000
          10000 10000 10000 10000 10000 10000 10000 10000 10000 10000 10000 10000
          10000 10000 10000 10000 10000 10000 10000 10000 10000 10000 10000 10000
          10000 10000 10000 10000 10000 10000 10000 10000 10000 10000 10000 10000
          10000 10000 10000 10000 10000 10000 10000 10000 10000 10000 10000 10000
          10000 10000 10000 10000 10000 10000 10000 10000 10000 10000 10000 10296.2
          10000 10000 10000 10000 10000 10000 10000 10000 10000 10000 10000 10000
          10000 10000 10000 10000 10000 10000 10000 10000 10000 10000 10000 10300.4
          10000 10000 10000 10000 10000 10000 10000 10000 10000 10000 10000 10000
          10000 10000 10000 10000 10000 10000 10000 10000 10000 10000 10000 10300.8
          10000 10000 10000 10000 10000 10000 10000 10000 10000 10000 10000 10000
          10000 10000 10000 10000 10000 10000 10000 10000 10000 10000 10000 10001.9
          10000 10000 10000 10000 10000 10000 10000 10000 10000 10000 10000 10000
          10000 10000 10000 10000 10000 10000 10000 10000 10000 10000 10000 10000
          10000 10000 10000 10000 10000 10000 10000 10000 10000 10000 10000 10000
          10000 10000 10000 10000 10000 10000 10000 10000 10000 10000 10000 10000
          10000 10000 10000 10000 10000 10000 10000 10000 10000 10000 10000 10000
          10000 10000 10000 10000 10000 10000 10000 10000 10000 10000 10000 10000
          10000 10000 10000 10000 10000 10000 10000 10000 10000 10000 10000 10000
          10000 10000 10000 10000 10000 10000 10000 10000 10000 10000 10000 10000
          10000 10000 10000 10000 10000 10000 10000 10000 10000 10000 10000 10000
          10000 10000 10000 10000 10000 10000 10000 10000 10000 10000 10000 10000
          10000 10000 10000 10000 10000 10000 10000 10000 10000 10000 10000 10000
          10000 10000 10000 10000 10000 10000 10000 10000 10000 10000 10000 10000
          10000 10000 10000 10000 10000 10000 10000 10000 10000 10000 10000 10000
          10000 10000 10000 10000 10000 10000 10000 10000 10000 10000 10000 10000
          10000 10000 10000 10000 10000 10000 10000 10000 10000 10000 10000 10000
          10000 10000 10000 10000 10000 10000 10000 10000 10000 10000 10000 10000
          10000 10000 10000 10000 10000 10000 10000 10000 10000 10000 10000 10000
          10000 10000 10000 10000 10000 10000 10000 10000 10000 10000 10000 10000
        </DataArray>
        <DataArray type="Float32" Name="rhoW" NumberOfComponents="1" format="ascii">
          1003.42 1003.42 1003.42 1003.43 1003.43 1003.43 1003.43 1003.43 1003.43 1003.43 1003.43 1003.43
          1003.43 1003.43 1003.43 1003.43 1003.43 1003.44 1003.44 1003.44 1003.44 1003.44 1003.44 1003.44
          1003.41 1003.41 1003.41 1003.41 1003.42 1003.42 1003.42 1003.42 1003.42 1003.42 1003.42 1003.42
          1003.42 1003.42 1003.42 1003.42 1003.42 1003.43 1003.43 1003.43 1003.43 1003.43 1003.43 1003.43
          1003.4 1003.4 1003.4 1003.4 1003.41 1003.41 1003.41 1003.41 1003.41 1003.41 1003.41 1003.41
          1003.41 1003.41 1003.41 1003.41 1003.41 1003.42 1003.42 1003.42 1003.42 1003.42 1003.42 1003.42
          1003.39 1003.39 1003.39 1003.39 1003.4 1003.4 1003.4 1003.4 1003.4 1003.4 1003.4 1003.4
          1003.4 1003.4 1003.4 1003.4 1003.4 1003.41 1003.41 1003.41 1003.41 1003.41 1003.41 1003.41
          1003.38 1003.38 1003.38 1003.38 1003.39 1003.39 1003.39 1003.39 1003.39 1003.39 1003.39 1003.39
          1003.39 1003.39 1003.39 1003.39 1003.39 1003.39 1003.4 1003.4 1003.4 1003.4 1003.4 1003.4
          1003.37 1003.37 1003.37 1003.37 1003.37 1003.38 1003.38 1003.38 1003.38 1003.38 1003.38 1003.38
          1003.38 1003.38 1003.38 1003.38 1003.38 1003.38 1003.39 1003.39 1003.39 1003.39 1003.39 1003.39
          1003.36 1003.36 1003.36 1003.36 1003.36 1003.37 1003.37 1003.37 1003.37 1003.37 1003.37 1003.37
          1003.37 1003.37 1003.37 1003.37 1003.37 1003.37 1003.38 1003.38 1003.38 1003.38 1003.38 1003.38
          1003.35 1003.35 1003.35 1003.35 1003.35 1003.36 1003.36 1003.36 1003.36 1003.36 1003.36 1003.36
          1003.36 1003.36 1003.36 1003.36 1003.36 1003.36 1003.36 1003.37 1003.37 1003.37 1003.37 1003.37
          1003.34 1003.34 1003.34 1003.34 1003.34 1003.35 1003.35 1003.35 1003.35 1003.35 1003.35 1003.35
          1003.35 1003.35 1003.35 1003.35 1003.35 1003.35 1003.35 1003.36 1003.36 1003.36 1003.36 1003.36
          1003.33 1003.33 1003.33 1003.33 1003.33 1003.33 1003.34 1003.34 1003.34 1003.34 1003.34 1003.34
          1003.34 1003.34 1003.34 1003.34 1003.34 1003.34 1003.34 1003.34 1003.35 1003.35 1003.35 1003.35
          1003.32 1003.32 1003.32 1003.32 1003.32 1003.32 1003.33 1003.33 1003.33 1003.33 1003.33 1003.33
          1003.33 1003.33 1003.33 1003.33 1003.33 1003.33 1003.33 1003.33 1003.33 1003.34 1003.34 1003.34
          1003.31 1003.31 1003.31 1003.31 1003.31 1003.31 1003.32 1003.32 1003.32 1003.32 1003.32 1003.32
          1003.32 1003.32 1003.32 1003.32 1003.32 1003.32 1003.32 1003.32 1003.32 1003.32 1003.32 1003.32
          1003.3 1003.3 1003.3 1003.3 1003.3 1003.3 1003.3 1003.31 1003.31 1003.31 1003.31 1003.31
          1003.31 1003.31 1003.31 1003.31 1003.31 1003.31 1003.31 1003.31 1003.31 1003.31 1003.31 1003.31
          1003.29 1003.29 1003.29 1003.29 1003.29 1003.29 1003.29 1003.3 1003.3 1003.3 1003.3 1003.3
          1003.3 1003.3 1003.3 1003.3 1003.3 1003.3 1003.3 1003.3 1003.3 1003.3 1003.3 1003.3
          1003.28 1003.28 1003.28 1003.28 1003.28 1003.28 1003.28 1003.29 1003.29 1003.29 1003.29 1003.29
          1003.29 1003.29 1003.29 1003.29 1003.29 1003.29 1003.29 1003.29 1003.29 1003.29 1003.29 1003.29
          1003.27 1003.27 1003.27 1003.27 1003.27 1003.27 1003.27 1003.28 1003.28 1003.28 1003.28 1003.28
          1003.28 1003.28 1003.28 1003.28 1003.28 1003.28 1003.28 1003.28 1003.28 1003.28 1003.28 1003.28
        </DataArray>
        <DataArray type="Float32" Name="rhoN" NumberOfComponents="1" format="ascii">
          283.785 283.808 283.83 283.851 283.871 283.891 283.911 283.931 283.95 283.97 283.989 284.008
          284.028 284.047 284.067 284.086 284.105 284.125 284.144 284.162 284.18 284.196 284.209 284.217
          283.523 283.545 283.566 283.587 283.607 283.627 283.646 283.666 283.686 283.705 283.724 283.744
          283.763 283.782 283.802 283.821 283.841 283.86 283.879 283.899 283.917 283.935 283.95 283.959
          283.261 283.282 283.302 283.323 283.343 283.362 283.382 283.401 283.421 283.44 283.46 283.479
          283.498 283.518 283.537 283.557 283.576 283.596 283.615 283.635 283.655 283.676 283.695 283.712
          282.999 283.019 283.039 283.059 283.079 283.098 283.118 283.137 283.156 283.176 283.195 283.214
          283.233 283.253 283.272 283.292 283.311 283.331 283.351 283.372 283.393 283.417 283.445 283.494
          282.738 282.757 282.776 282.796 282.815 282.834 282.853 282.873 282.892 282.911 282.93 282.949
          282.969 282.988 283.007 283.027 283.046 283.066 283.086 283.107 283.129 283.155 283.186 283.242
          282.476 282.495 282.513 282.532 282.551 282.57 282.589 282.608 282.627 282.646 282.665 282.685
          282.704 282.723 282.742 282.762 282.781 282.801 282.821 282.841 282.863 282.887 282.915 282.965
          282.214 282.232 282.25 282.269 282.287 282.306 282.325 282.344 282.363 282.382 282.401 282.42
          282.439 282.458 282.477 282.496 282.516 282.535 282.555 282.574 282.594 282.615 282.635 282.654
          281.952 281.969 281.987 282.005 282.023 282.042 282.06 282.079 282.098 282.117 282.136 282.155
          282.174 282.193 282.212 282.231 282.25 282.269 282.288 282.307 282.325 282.343 282.358 282.368
          281.69 281.706 281.723 281.741 281.759 281.777 281.796 281.815 281.833 281.852 281.871 281.89
          281.909 281.928 281.947 281.966 281.985 282.004 282.022 282.04 282.058 282.073 282.086 282.093
          281.429 281.444 281.461 281.478 281.496 281.514 281.532 281.55 281.569 281.587 281.606 281.625
          281.643 281.662 281.681 281.699 281.717 281.735 281.753 281.769 281.785 281.798 281.809 281.815
          281.167 281.183 281.199 281.216 281.233 281.251 281.268 281.286 281.304 281.323 281.341 281.359
          281.377 281.395 281.413 281.43 281.447 281.464 281.48 281.494 281.508 281.519 281.527 281.531
          280.905 280.921 280.937 280.953 280.97 280.987 281.005 281.022 281.04 281.058 281.075 281.093
          281.111 281.128 281.145 281.162 281.178 281.193 281.208 281.221 281.233 281.242 281.249 281.252
          280.643 280.659 280.674 280.69 280.707 280.724 280.741 280.758 280.775 280.793 280.81 280.828
          280.845 280.862 280.878 280.894 280.909 280.924 280.937 280.949 280.96 280.968 280.974 280.977
          280.381 280.396 280.412 280.427 280.443 280.46 280.477 280.494 280.511 280.528 280.545 280.562
          280.579 280.595 280.611 280.627 280.642 280.656 280.668 280.68 280.689 280.697 280.702 280.705
          280.119 280.134 280.148 280.164 280.18 280.196 280.212 280.229 280.246 280.263 280.28 280.297
          280.313 280.33 280.345 280.361 280.375 280.388 280.401 280.411 280.42 280.428 280.432 280.435
          279.858 279.87 279.884 279.9 279.915 279.931 279.948 279.965 279.981 279.998 280.015 280.032
          280.048 280.064 280.08 280.095 280.109 280.122 280.134 280.145 280.154 280.161 280.165 280.168
        </DataArray>
        <DataArray type="Float32" Name="mobW" NumberOfComponents="1" format="ascii">
          1523.33 1523.33 1523.33 1523.32 1523.32 1523.32 1523.32 1523.32 1523.32 1523.32 1523.32 1523.32
          1523.32 1523.32 1523.32 1523.32 1523.32 1523.32 1523.31 1523.31 1523.31 1523.31 1523.31 1523.31
          1523.34 1523.33 1523.33 1523.33 1523.33 1523.33 1523.33 1523.33 1523.33 1523.33 1523.33 1523.33
          1523.33 1523.33 1523.33 1523.33 1523.32 1523.32 1523.32 1523.32 1523.32 1523.32 1523.32 1523.32
          1523.34 1523.34 1523.34 1523.34 1523.34 1523.34 1523.34 1523.34 1523.34 1523.34 1523.34 1523.34
          1523.34 1523.34 1523.34 1523.33 1523.33 1523.33 1523.33 1523.33 1523.33 1523.33 1523.33 1523.33
          1523.35 1523.35 1523.35 1523.35 1523.35 1523.35 1523.35 1523.35 1523.35 1523.35 1523.35 1523.35
          1523.35 1523.34 1523.34 1523.34 1523.34 1523.34 1523.34 1523.34 1523.34 1523.34 1523.34 1206.06
          1523.36 1523.36 1523.36 1523.36 1523.36 1523.36 1523.36 1523.36 1523.36 1523.36 1523.36 1523.36
          1523.35 1523.35 1523.35 1523.35 1523.35 1523.35 1523.35 1523.35 1523.35 1523.35 1523.35 1202.17
          1523.37 1523.37 1523.37 1523.37 1523.37 1523.37 1523.37 1523.37 1523.37 1523.37 1523.37 1523.36
          1523.36 1523.36 1523.36 1523.36 1523.36 1523.36 1523.36 1523.36 1523.36 1523.36 1523.36 1201.82
          1523.38 1523.38 1523.38 1523.38 1523.38 1523.38 1523.38 1523.38 1523.38 1523.37 1523.37 1523.37
          1523.37 1523.37 1523.37 1523.37 1523.37 1523.37 1523.37 1523.37 1523.37 1523.37 1523.37 1521.08
          1523.39 1523.39 1523.39 1523.39 1523.39 1523.39 1523.39 1523.39 1523.38 1523.38 1523.38 1523.38
          1523.38 1523.38 1523.38 1523.38 1523.38 1523.38 1523.38 1523.38 1523.38 1523.38 1523.38 1523.38
          1523.4 1523.4 1523.4 1523.4 1523.4 1523.4 1523.39 1523.39 1523.39 1523.39 1523.39 1523.39
          1523.39 1523.39 1523.39 1523.39 1523.39 1523.39 1523.39 1523.39 1523.39 1523.39 1523.38 1523.38
          1523.41 1523.41 1523.41 1523.41 1523.41 1523.4 1523.4 1523.4 1523.4 1523.4 1523.4 1523.4
          1523.4 1523.4 1523.4 1523.4 1523.4 1523.4 1523.4 1523.4 1523.4 1523.39 1523.39 1523.39
          1523.42 1523.42 1523.42 1523.41 1523.41 1523.41 1523.41 1523.41 1523.41 1523.41 1523.41 1523.41
          1523.41 1523.41 1523.41 1523.41 1523.41 1523.41 1523.41 1523.41 1523.4 1523.4 1523.4 1523.4
          1523.43 1523.42 1523.42 1523.42 1523.42 1523.42 1523.42 1523.42 1523.42 1523.42 1523.42 1523.42
          1523.42 1523.42 1523.42 1523.42 1523.42 1523.42 1523.41 1523.41 1523.41 1523.41 1523.41 1523.41
          1523.43 1523.43 1523.43 1523.43 1523.43 1523.43 1523.43 1523.43 1523.43 1523.43 1523.43 1523.43
          1523.43 1523.43 1523.43 1523.43 1523.43 1523.42 1523.42 1523.42 1523.42 1523.42 1523.42 1523.42
          1523.44 1523.44 1523.44 1523.44 1523.44 1523.44 1523.44 1523.44 1523.44 1523.44 1523.44 1523.44
          1523.44 1523.44 1523.44 1523.43 1523.43 1523.43 1523.43 1523.43 1523.43 1523.43 1523.43 1523.43
          1523.45 1523.45 1523.45 1523.45 1523.45 1523.45 1523.45 1523.45 1523.45 1523.45 1523.45 1523.45
          1523.45 1523.45 1523.44 1523.44 1523.44 1523.44 1523.44 1523.44 1523.44 1523.44 1523.44 1523.44
          1523.46 1523.46 1523.46 1523.46 1523.46 1523.46 1523.46 1523.46 1523.46 1523.46 1523.46 1523.46
          1523.45 1523.45 1523.45 1523.45 1523.45 1523.45 1523.45 1523.45 1523.45 1523.45 1523.45 1523.45
        </DataArray>
        <DataArray type="Float32" Name="mobN" NumberOfComponents="1" format="ascii">
          0 0 0 0 0 0 0 0 0 0 0 0
          0 0 0 0 0 0 0 0 0 0 0 0
          0 0 0 0 0 0 0 0 0 0 0 0
          0 0 0 0 0 0 0 0 0 0 0 0
          0 0 0 0 0 0 0 0 0 0 0 0
          0 0 0 0 0 0 0 0 0 0 0 0
          0 0 0 0 0 0 0 0 0 0 0 0
          0 0 0 0 0 0 0 0 0 0 0 19.3774
          0 0 0 0 0 0 0 0 0 0 0 0
          0 0 0 0 0 0 0 0 0 0 0 20.1609
          0 0 0 0 0 0 0 0 0 0 0 0
          0 0 0 0 0 0 0 0 0 0 0 20.2335
          0 0 0 0 0 0 0 0 0 0 0 0
          0 0 0 0 0 0 0 0 0 0 0 5.79521e-06
          0 0 0 0 0 0 0 0 0 0 0 0
          0 0 0 0 0 0 0 0 0 0 0 0
          0 0 0 0 0 0 0 0 0 0 0 0
          0 0 0 0 0 0 0 0 0 0 0 0
          0 0 0 0 0 0 0 0 0 0 0 0
          0 0 0 0 0 0 0 0 0 0 0 0
          0 0 0 0 0 0 0 0 0 0 0 0
          0 0 0 0 0 0 0 0 0 0 0 0
          0 0 0 0 0 0 0 0 0 0 0 0
          0 0 0 0 0 0 0 0 0 0 0 0
          0 0 0 0 0 0 0 0 0 0 0 0
          0 0 0 0 0 0 0 0 0 0 0 0
          0 0 0 0 0 0 0 0 0 0 0 0
          0 0 0 0 0 0 0 0 0 0 0 0
          0 0 0 0 0 0 0 0 0 0 0 0
          0 0 0 0 0 0 0 0 0 0 0 0
          0 0 0 0 0 0 0 0 0 0 0 0
          0 0 0 0 0 0 0 0 0 0 0 0
        </DataArray>
        <DataArray type="Float32" Name="X_w^H2O" NumberOfComponents="1" format="ascii">
          0.9962 0.9962 0.9962 0.9962 0.9962 0.9962 0.9962 0.9962 0.9962 0.9962 0.9962 0.9962
          0.9962 0.9962 0.9962 0.9962 0.9962 0.9962 0.9962 0.9962 0.9962 0.9962 0.9962 0.9962
          0.996203 0.996203 0.996203 0.996203 0.996203 0.996203 0.996203 0.996203 0.996203 0.996203 0.996203 0.996203
          0.996203 0.996203 0.996203 0.996203 0.996203 0.996203 0.996203 0.996203 0.996203 0.996203 0.996203 0.996203
          0.996207 0.996207 0.996207 0.996207 0.996207 0.996207 0.996207 0.996207 0.996207 0.996207 0.996207 0.996207
          0.996207 0.996207 0.996207 0.996207 0.996207 0.996207 0.996207 0.996207 0.996207 0.996207 0.996207 0.996202
          0.99621 0.99621 0.99621 0.99621 0.99621 0.99621 0.99621 0.99621 0.99621 0.99621 0.99621 0.99621
          0.99621 0.99621 0.99621 0.99621 0.99621 0.99621 0.99621 0.99621 0.99621 0.99621 0.99615 0.996004
          0.996214 0.996214 0.996214 0.996214 0.996214 0.996214 0.996214 0.996214 0.996214 0.996214 0.996214 0.996214
          0.996214 0.996214 0.996214 0.996214 0.996214 0.996214 0.996214 0.996214 0.996214 0.996213 0.996142 0.996007
          0.996217 0.996217 0.996217 0.996217 0.996217 0.996217 0.996217 0.996217 0.996217 0.996217 0.996217 0.996217
          0.996217 0.996217 0.996217 0.996217 0.996217 0.996217 0.996217 0.996217 0.996217 0.996217 0.996154 0.996011
          0.996221 0.996221 0.996221 0.996221 0.996221 0.996221 0.996221 0.996221 0.996221 0.996221 0.996221 0.996221
          0.996221 0.996221 0.996221 0.996221 0.996221 0.996221 0.996221 0.996221 0.996221 0.996221 0.996219 0.996016
          0.996224 0.996224 0.996224 0.996224 0.996224 0.996224 0.996224 0.996224 0.996224 0.996224 0.996224 0.996224
          0.996224 0.996224 0.996224 0.996224 0.996224 0.996224 0.996224 0.996224 0.996224 0.996224 0.996224 0.996223
          0.996228 0.996228 0.996228 0.996228 0.996228 0.996228 0.996228 0.996228 0.996228 0.996228 0.996228 0.996228
          0.996228 0.996228 0.996228 0.996228 0.996228 0.996228 0.996228 0.996228 0.996228 0.996228 0.996228 0.996228
          0.996231 0.996231 0.996231 0.996231 0.996231 0.996231 0.996231 0.996231 0.996231 0.996231 0.996231 0.996231
          0.996231 0.996231 0.996231 0.996231 0.996231 0.996231 0.996231 0.996231 0.996231 0.996231 0.996231 0.996231
          0.996235 0.996235 0.996235 0.996235 0.996235 0.996235 0.996235 0.996235 0.996235 0.996235 0.996235 0.996235
          0.996235 0.996235 0.996235 0.996235 0.996235 0.996235 0.996235 0.996235 0.996235 0.996235 0.996235 0.996235
          0.996238 0.996238 0.996238 0.996238 0.996238 0.996238 0.996238 0.996238 0.996238 0.996238 0.996238 0.996238
          0.996238 0.996238 0.996238 0.996238 0.996238 0.996238 0.996238 0.996238 0.996238 0.996238 0.996238 0.996238
          0.996242 0.996242 0.996242 0.996242 0.996242 0.996242 0.996242 0.996242 0.996242 0.996242 0.996242 0.996242