<?xml version="1.0"?>
<VTKFile type="UnstructuredGrid" version="0.1" byte_order="LittleEndian">
  <UnstructuredGrid>
    <Piece NumberOfCells="384" NumberOfPoints="425">
      <PointData Scalars="S_gas">
        <DataArray type="Float32" Name="S_gas" NumberOfComponents="1" format="ascii">
          0 0 0 0 0 0 0 0 0 0 0 0
          0 0 0 0 0 0 0 0 0 0 0 0
          0 0 0 0 0 0 0 0 0 0 0 0
          0 0 0 0 0 0 0 0 0 0 0 0
          0 0 0 0 0 0 0 0 0 0 0 0
          0 0 0 0 0 0 0 0 0 0 0 0
          0 0 0 0 0 0 0 0 0 0 0 0
          0 0 0 0 0 0 0 0 0 0 0 0
          0 0 0.000935142 0.0852461 0 0 0 0 0 0 0 0
          0 0 0 0 0 0 0 0 0 0 0 0
          0 0 0 0.00147494 0.0877977 0 0 0 0 0 0 0
          0 0 0 0 0 0 0 0 0 0 0 0
          0 0 0 0 0.00119969 0.088048 0 0 0 0 0 0
          0 0 0 0 0 0 0 0 0 0 0 0
          0 0 0 0 0 0 0.00668387 0 0 0 0 0
          0 0 0 0 0 0 0 0 0 0 0 0
          0 0 0 0 0 0 0 0 0 0 0 0
          0 0 0 0 0 0 0 0 0 0 0 0
          0 0 0 0 0 0 0 0 0 0 0 0
          0 0 0 0 0 0 0 0 0 0 0 0
          0 0 0 0 0 0 0 0 0 0 0 0
          0 0 0 0 0 0 0 0 0 0 0 0
          0 0 0 0 0 0 0 0 0 0 0 0
          0 0 0 0 0 0 0 0 0 0 0 0
          0 0 0 0 0 0 0 0 0 0 0 0
          0 0 0 0 0 0 0 0 0 0 0 0
          0 0 0 0 0 0 0 0 0 0 0 0
          0 0 0 0 0 0 0 0 0 0 0 0
          0 0 0 0 0 0 0 0 0 0 0 0
          0 0 0 0 0 0 0 0 0 0 0 0
          0 0 0 0 0 0 0 0 0 0 0 0
          0 0 0 0 0 0 0 0 0 0 0 0
          0 0 0 0 0 0 0 0 0 0 0 0
          0 0 0 0 0 0 0 0 0 0 0 0
          0 0 0 0 0 0 0 0 0 0 0 0
          0 0 0 0 0
        </DataArray>
        <DataArray type="Float32" Name="S_liq" NumberOfComponents="1" format="ascii">
          1 1 1 1 1 1 1 1 1 1 1 1
          1 1 1 1 1 1 1 1 1 1 1 1
          1 1 1 1 1 1 1 1 1 1 1 1
          1 1 1 1 1 1 1 1 1 1 1 1
          1 1 1 1 1 1 1 1 1 1 1 1
          1 1 1 1 1 1 1 1 1 1 1 1
          1 1 1 1 1 1 1 1 1 1 1 1
          1 1 1 1 1 1 1 1 1 1 1 1
          1 1 0.999065 0.914754 1 1 1 1 1 1 1 1
          1 1 1 1 1 1 1 1 1 1 1 1
          1 1 1 0.998525 0.912202 1 1 1 1 1 1 1
          1 1 1 1 1 1 1 1 1 1 1 1
          1 1 1 1 0.9988 0.911952 1 1 1 1 1 1
          1 1 1 1 1 1 1 1 1 1 1 1
          1 1 1 1 1 1 0.993316 1 1 1 1 1
          1 1 1 1 1 1 1 1 1 1 1 1
          1 1 1 1 1 1 1 1 1 1 1 1
          1 1 1 1 1 1 1 1 1 1 1 1
          1 1 1 1 1 1 1 1 1 1 1 1
          1 1 1 1 1 1 1 1 1 1 1 1
          1 1 1 1 1 1 1 1 1 1 1 1
          1 1 1 1 1 1 1 1 1 1 1 1
          1 1 1 1 1 1 1 1 1 1 1 1
          1 1 1 1 1 1 1 1 1 1 1 1
          1 1 1 1 1 1 1 1 1 1 1 1
          1 1 1 1 1 1 1 1 1 1 1 1
          1 1 1 1 1 1 1 1 1 1 1 1
          1 1 1 1 1 1 1 1 1 1 1 1
          1 1 1 1 1 1 1 1 1 1 1 1
          1 1 1 1 1 1 1 1 1 1 1 1
          1 1 1 1 1 1 1 1 1 1 1 1
          1 1 1 1 1 1 1 1 1 1 1 1
          1 1 1 1 1 1 1 1 1 1 1 1
          1 1 1 1 1 1 1 1 1 1 1 1
          1 1 1 1 1 1 1 1 1 1 1 1
          1 1 1 1 1
        </DataArray>
        <DataArray type="Float32" Name="p_gas" NumberOfComponents="1" format="ascii">
          2.6391e+07 2.63933e+07 2.63667e+07 2.63688e+07 2.63953e+07 2.63708e+07 2.63973e+07 2.63727e+07 2.63992e+07 2.63746e+07 2.64011e+07 2.63765e+07
          2.64029e+07 2.63783e+07 2.64048e+07 2.63802e+07 2.64066e+07 2.6382e+07 2.64084e+07 2.63838e+07 2.64102e+07 2.63856e+07 2.6412e+07 2.63874e+07
          2.64138e+07 2.63892e+07 2.64157e+07 2.6391e+07 2.64175e+07 2.63929e+07 2.64193e+07 2.63947e+07 2.64212e+07 2.63965e+07 2.6423e+07 2.63984e+07
          2.64249e+07 2.64002e+07 2.64267e+07 2.64021e+07 2.64285e+07 2.6404e+07 2.64303e+07 2.64057e+07 2.64318e+07 2.64074e+07 2.64328e+07 2.64086e+07
          2.64332e+07 2.6409e+07 2.63424e+07 2.63443e+07 2.63463e+07 2.63482e+07 2.63501e+07 2.63519e+07 2.63537e+07 2.63556e+07 2.63574e+07 2.63592e+07
          2.6361e+07 2.63628e+07 2.63646e+07 2.63664e+07 2.63682e+07 2.63701e+07 2.63719e+07 2.63738e+07 2.63756e+07 2.63775e+07 2.63794e+07 2.63814e+07
          2.63833e+07 2.63852e+07 2.63856e+07 2.6318e+07 2.63199e+07 2.63218e+07 2.63237e+07 2.63255e+07 2.63273e+07 2.63292e+07 2.6331e+07 2.63328e+07
          2.63346e+07 2.63364e+07 2.63382e+07 2.634e+07 2.63418e+07 2.63436e+07 2.63454e+07 2.63473e+07 2.63491e+07 2.6351e+07 2.63529e+07 2.63549e+07
          2.6357e+07 2.63593e+07 2.6362e+07 2.63684e+07 2.62937e+07 2.62955e+07 2.62974e+07 2.62992e+07 2.6301e+07 2.63028e+07 2.63046e+07 2.63064e+07
          2.63082e+07 2.631e+07 2.63118e+07 2.63136e+07 2.63154e+07 2.63172e+07 2.6319e+07 2.63208e+07 2.63226e+07 2.63245e+07 2.63263e+07 2.63282e+07
          2.63302e+07 2.63324e+07 2.63349e+07 2.63382e+07 2.63456e+07 2.62694e+07 2.62711e+07 2.62729e+07 2.62747e+07 2.62765e+07 2.62782e+07 2.628e+07
          2.62818e+07 2.62836e+07 2.62854e+07 2.62872e+07 2.6289e+07 2.62908e+07 2.62926e+07 2.62943e+07 2.62961e+07 2.6298e+07 2.62998e+07 2.63016e+07
          2.63035e+07 2.63055e+07 2.63075e+07 2.63099e+07 2.63128e+07 2.63197e+07 2.6245e+07 2.62467e+07 2.62485e+07 2.62502e+07 2.62519e+07 2.62537e+07
          2.62555e+07 2.62572e+07 2.6259e+07 2.62608e+07 2.62626e+07 2.62643e+07 2.62661e+07 2.62679e+07 2.62697e+07 2.62715e+07 2.62733e+07 2.62751e+07
          2.62769e+07 2.62787e+07 2.62805e+07 2.62824e+07 2.62844e+07 2.62865e+07 2.62877e+07 2.62207e+07 2.62223e+07 2.6224e+07 2.62257e+07 2.62274e+07
          2.62292e+07 2.62309e+07 2.62327e+07 2.62344e+07 2.62362e+07 2.6238e+07 2.62397e+07 2.62415e+07 2.62433e+07 2.62451e+07 2.62468e+07 2.62486e+07
          2.62504e+07 2.62521e+07 2.62539e+07 2.62556e+07 2.62573e+07 2.62588e+07 2.626e+07 2.62605e+07 2.61964e+07 2.61979e+07 2.61995e+07 2.62012e+07
          2.62029e+07 2.62046e+07 2.62063e+07 2.62081e+07 2.62098e+07 2.62116e+07 2.62133e+07 2.62151e+07 2.62169e+07 2.62186e+07 2.62204e+07 2.62222e+07
          2.62239e+07 2.62257e+07 2.62274e+07 2.62291e+07 2.62307e+07 2.62322e+07 2.62335e+07 2.62344e+07 2.62347e+07 2.6172e+07 2.61734e+07 2.6175e+07
          2.61766e+07 2.61783e+07 2.618e+07 2.61817e+07 2.61835e+07 2.61852e+07 2.6187e+07 2.61887e+07 2.61905e+07 2.61923e+07 2.6194e+07 2.61958e+07
          2.61975e+07 2.61993e+07 2.6201e+07 2.62027e+07 2.62043e+07 2.62059e+07 2.62073e+07 2.62085e+07 2.62093e+07 2.62096e+07 2.61477e+07 2.61492e+07
          2.61507e+07 2.61523e+07 2.61539e+07 2.61556e+07 2.61572e+07 2.61589e+07 2.61606e+07 2.61624e+07 2.61641e+07 2.61658e+07 2.61675e+07 2.61692e+07
          2.61709e+07 2.61725e+07 2.61742e+07 2.61758e+07 2.61773e+07 2.61788e+07 2.61801e+07 2.61813e+07 2.61822e+07 2.61828e+07 2.6183e+07 2.61234e+07
          2.61248e+07 2.61264e+07 2.61279e+07 2.61295e+07 2.61311e+07 2.61327e+07 2.61344e+07 2.61361e+07 2.61377e+07 2.61394e+07 2.61411e+07 2.61427e+07
          2.61444e+07 2.6146e+07 2.61476e+07 2.61491e+07 2.61506e+07 2.6152e+07 2.61534e+07 2.61545e+07 2.61555e+07 2.61563e+07 2.61568e+07 2.6157e+07
          2.6099e+07 2.61005e+07 2.6102e+07 2.61035e+07 2.6105e+07 2.61066e+07 2.61082e+07 2.61098e+07 2.61115e+07 2.61131e+07 2.61147e+07 2.61164e+07
          2.6118e+07 2.61196e+07 2.61212e+07 2.61227e+07 2.61242e+07 2.61256e+07 2.61269e+07 2.61281e+07 2.61291e+07 2.613e+07 2.61307e+07 2.61311e+07
          2.61312e+07 2.60747e+07 2.60761e+07 2.60776e+07 2.6079e+07 2.60806e+07 2.60821e+07 2.60837e+07 2.60853e+07 2.60869e+07 2.60885e+07 2.60901e+07
          2.60917e+07 2.60933e+07 2.60948e+07 2.60964e+07 2.60978e+07 2.60993e+07 2.61006e+07 2.61018e+07 2.6103e+07 2.61039e+07 2.61047e+07 2.61053e+07
          2.61057e+07 2.61058e+07 2.60504e+07 2.60517e+07 2.60531e+07 2.60546e+07 2.6056e+07 2.60576e+07 2.60591e+07 2.60607e+07 2.60623e+07 2.60639e+07
          2.60655e+07 2.6067e+07 2.60686e+07 2.60701e+07 2.60716e+07 2.60731e+07 2.60744e+07 2.60757e+07 2.60769e+07 2.6078e+07 2.60789e+07 2.60796e+07
          2.60802e+07 2.60805e+07 2.60806e+07 2.6026e+07 2.60273e+07 2.60286e+07 2.603e+07 2.60315e+07 2.6033e+07 2.60345e+07 2.60361e+07 2.60377e+07
          2.60393e+07 2.60408e+07 2.60424e+07 2.60439e+07 2.60454e+07 2.60469e+07 2.60483e+07 2.60497e+07 2.60509e+07 2.60521e+07 2.60531e+07 2.6054e+07
          2.60547e+07 2.60553e+07 2.60556e+07 2.60557e+07 2.60017e+07 2.60028e+07 2.60041e+07 2.60055e+07 2.60069e+07 2.60084e+07 2.601e+07 2.60115e+07
          2.60131e+07 2.60146e+07 2.60162e+07 2.60178e+07 2.60193e+07 2.60208e+07 2.60223e+07 2.60237e+07 2.6025e+07 2.60263e+07 2.60274e+07 2.60285e+07
          2.60293e+07 2.603e+07 2.60306e+07 2.60309e+07 2.6031e+07
        </DataArray>
        <DataArray type="Float32" Name="p_liq" NumberOfComponents="1" format="ascii">
          2.6381e+07 2.63833e+07 2.63567e+07 2.63588e+07 2.63853e+07 2.63608e+07 2.63873e+07 2.63627e+07 2.63892e+07 2.63646e+07 2.63911e+07 2.63665e+07
          2.63929e+07 2.63683e+07 2.63948e+07 2.63702e+07 2.63966e+07 2.6372e+07 2.63984e+07 2.63738e+07 2.64002e+07 2.63756e+07 2.6402e+07 2.63774e+07
          2.64038e+07 2.63792e+07 2.64057e+07 2.6381e+07 2.64075e+07 2.63829e+07 2.64093e+07 2.63847e+07 2.64112e+07 2.63865e+07 2.6413e+07 2.63884e+07
          2.64149e+07 2.63902e+07 2.64167e+07 2.63921e+07 2.64185e+07 2.6394e+07 2.64203e+07 2.63957e+07 2.64218e+07 2.63974e+07 2.64228e+07 2.63986e+07
          2.64232e+07 2.6399e+07 2.63324e+07 2.63343e+07 2.63363e+07 2.63382e+07 2.63401e+07 2.63419e+07 2.63437e+07 2.63456e+07 2.63474e+07 2.63492e+07
          2.6351e+07 2.63528e+07 2.63546e+07 2.63564e+07 2.63582e+07 2.63601e+07 2.63619e+07 2.63638e+07 2.63656e+07 2.63675e+07 2.63694e+07 2.63714e+07
          2.63733e+07 2.63752e+07 2.63756e+07 2.6308e+07 2.63099e+07 2.63118e+07 2.63137e+07 2.63155e+07 2.63173e+07 2.63192e+07 2.6321e+07 2.63228e+07
          2.63246e+07 2.63264e+07 2.63282e+07 2.633e+07 2.63318e+07 2.63336e+07 2.63354e+07 2.63373e+07 2.63391e+07 2.6341e+07 2.63429e+07 2.63449e+07
          2.6347e+07 2.63493e+07 2.6352e+07 2.63579e+07 2.62837e+07 2.62855e+07 2.62874e+07 2.62892e+07 2.6291e+07 2.62928e+07 2.62946e+07 2.62964e+07
          2.62982e+07 2.63e+07 2.63018e+07 2.63036e+07 2.63054e+07 2.63072e+07 2.6309e+07 2.63108e+07 2.63126e+07 2.63145e+07 2.63163e+07 2.63182e+07
          2.63202e+07 2.63224e+07 2.63249e+07 2.63282e+07 2.6335e+07 2.62594e+07 2.62611e+07 2.62629e+07 2.62647e+07 2.62665e+07 2.62682e+07 2.627e+07
          2.62718e+07 2.62736e+07 2.62754e+07 2.62772e+07 2.6279e+07 2.62808e+07 2.62826e+07 2.62843e+07 2.62861e+07 2.6288e+07 2.62898e+07 2.62916e+07
          2.62935e+07 2.62955e+07 2.62975e+07 2.62999e+07 2.63027e+07 2.63091e+07 2.6235e+07 2.62367e+07 2.62385e+07 2.62402e+07 2.62419e+07 2.62437e+07
          2.62455e+07 2.62472e+07 2.6249e+07 2.62508e+07 2.62526e+07 2.62543e+07 2.62561e+07 2.62579e+07 2.62597e+07 2.62615e+07 2.62633e+07 2.62651e+07
          2.62669e+07 2.62687e+07 2.62705e+07 2.62724e+07 2.62744e+07 2.62765e+07 2.62776e+07 2.62107e+07 2.62123e+07 2.6214e+07 2.62157e+07 2.62174e+07
          2.62192e+07 2.62209e+07 2.62227e+07 2.62244e+07 2.62262e+07 2.6228e+07 2.62297e+07 2.62315e+07 2.62333e+07 2.62351e+07 2.62368e+07 2.62386e+07
          2.62404e+07 2.62421e+07 2.62439e+07 2.62456e+07 2.62473e+07 2.62488e+07 2.625e+07 2.62505e+07 2.61864e+07 2.61879e+07 2.61895e+07 2.61912e+07
          2.61929e+07 2.61946e+07 2.61963e+07 2.61981e+07 2.61998e+07 2.62016e+07 2.62033e+07 2.62051e+07 2.62069e+07 2.62086e+07 2.62104e+07 2.62122e+07
          2.62139e+07 2.62157e+07 2.62174e+07 2.62191e+07 2.62207e+07 2.62222e+07 2.62235e+07 2.62244e+07 2.62247e+07 2.6162e+07 2.61634e+07 2.6165e+07
          2.61666e+07 2.61683e+07 2.617e+07 2.61717e+07 2.61735e+07 2.61752e+07 2.6177e+07 2.61787e+07 2.61805e+07 2.61823e+07 2.6184e+07 2.61858e+07
          2.61875e+07 2.61893e+07 2.6191e+07 2.61927e+07 2.61943e+07 2.61959e+07 2.61973e+07 2.61985e+07 2.61993e+07 2.61996e+07 2.61377e+07 2.61392e+07
          2.61407e+07 2.61423e+07 2.61439e+07 2.61456e+07 2.61472e+07 2.61489e+07 2.61506e+07 2.61524e+07 2.61541e+07 2.61558e+07 2.61575e+07 2.61592e+07
          2.61609e+07 2.61625e+07 2.61642e+07 2.61658e+07 2.61673e+07 2.61688e+07 2.61701e+07 2.61713e+07 2.61722e+07 2.61728e+07 2.6173e+07 2.61134e+07
          2.61148e+07 2.61164e+07 2.61179e+07 2.61195e+07 2.61211e+07 2.61227e+07 2.61244e+07 2.61261e+07 2.61277e+07 2.61294e+07 2.61311e+07 2.61327e+07
          2.61344e+07 2.6136e+07 2.61376e+07 2.61391e+07 2.61406e+07 2.6142e+07 2.61434e+07 2.61445e+07 2.61455e+07 2.61463e+07 2.61468e+07 2.6147e+07
          2.6089e+07 2.60905e+07 2.6092e+07 2.60935e+07 2.6095e+07 2.60966e+07 2.60982e+07 2.60998e+07 2.61015e+07 2.61031e+07 2.61047e+07 2.61064e+07
          2.6108e+07 2.61096e+07 2.61112e+07 2.61127e+07 2.61142e+07 2.61156e+07 2.61169e+07 2.61181e+07 2.61191e+07 2.612e+07 2.61207e+07 2.61211e+07
          2.61212e+07 2.60647e+07 2.60661e+07 2.60676e+07 2.6069e+07 2.60706e+07 2.60721e+07 2.60737e+07 2.60753e+07 2.60769e+07 2.60785e+07 2.60801e+07
          2.60817e+07 2.60833e+07 2.60848e+07 2.60864e+07 2.60878e+07 2.60893e+07 2.60906e+07 2.60918e+07 2.6093e+07 2.60939e+07 2.60947e+07 2.60953e+07
          2.60957e+07 2.60958e+07 2.60404e+07 2.60417e+07 2.60431e+07 2.60446e+07 2.6046e+07 2.60476e+07 2.60491e+07 2.60507e+07 2.60523e+07 2.60539e+07
          2.60555e+07 2.6057e+07 2.60586e+07 2.60601e+07 2.60616e+07 2.60631e+07 2.60644e+07 2.60657e+07 2.60669e+07 2.6068e+07 2.60689e+07 2.60696e+07
          2.60702e+07 2.60705e+07 2.60706e+07 2.6016e+07 2.60173e+07 2.60186e+07 2.602e+07 2.60215e+07 2.6023e+07 2.60245e+07 2.60261e+07 2.60277e+07
          2.60293e+07 2.60308e+07 2.60324e+07 2.60339e+07 2.60354e+07 2.60369e+07 2.60383e+07 2.60397e+07 2.60409e+07 2.60421e+07 2.60431e+07 2.6044e+07
          2.60447e+07 2.60453e+07 2.60456e+07 2.60457e+07 2.59917e+07 2.59928e+07 2.59941e+07 2.59955e+07 2.59969e+07 2.59984e+07 2.6e+07 2.60015e+07
          2.60031e+07 2.60046e+07 2.60062e+07 2.60078e+07 2.60093e+07 2.60108e+07 2.60123e+07 2.60137e+07 2.6015e+07 2.60163e+07 2.60174e+07 2.60185e+07
          2.60193e+07 2.602e+07 2.60206e+07 2.60209e+07 2.6021e+07
        </DataArray>
        <DataArray type="Float32" Name="pc" NumberOfComponents="1" format="ascii">
          10000 10000 10000 10000 10000 10000 10000 10000 10000 10000 10000 10000
          10000 10000 10000 10000 10000 10000 10000 10000 10000 10000 10000 10000
          10000 10000 10000 10000 10000 10000 10000 10000 10000 10000 10000 10000
          10000 10000 10000 10000 10000 10000 10000 10000 10000 10000 10000 10000
          10000 10000 10000 10000 10000 10000 10000 10000 10000 10000 10000 10000
          10000 10000 10000 10000 10000 10000 10000 10000 10000 10000 10000 10000
          10000 10000 10000 10000 10000 10000 10000 10000 10000 10000 10000 10000
          10000 10000 10000 10000 10000 10000 10000 10000 10000 10000 10000 10000
          10000 10000 10005.8 10579.5 10000 10000 10000 10000 10000 10000 10000 10000
          10000 10000 10000 10000 10000 10000 10000 10000 10000 10000 10000 10000
          10000 10000 10000 10009.2 10598.5 10000 10000 10000 10000 10000 10000 10000
          10000 10000 10000 10000 10000 10000 10000 10000 10000 10000 10000 10000
          10000 10000 10000 10000 10007.5 10600.3 10000 10000 10000 10000 10000 10000
          10000 10000 10000 10000 10000 10000 10000 10000 10000 10000 10000 10000
          10000 10000 10000 10000 10000 10000 10042 10000 10000 10000 10000 10000
          10000 10000 10000 10000 10000 10000 10000 10000 10000 10000 10000 10000
          10000 10000 10000 10000 10000 10000 10000 10000 10000 10000 10000 10000
          10000 10000 10000 10000 10000 10000 10000 10000 10000 10000 10000 10000
          10000 10000 10000 10000 10000 10000 10000 10000 10000 10000 10000 10000
          10000 10000 10000 10000 10000 10000 10000 10000 10000 10000 10000 10000
          10000 10000 10000 10000 10000 10000 10000 10000 10000 10000 10000 10000
          10000 10000 10000 10000 10000 10000 10000 10000 10000 10000 10000 10000
          10000 10000 10000 10000 10000 10000 10000 10000 10000 10000 10000 10000
          10000 10000 10000 10000 10000 10000 10000 10000 10000 10000 10000 10000
          10000 10000 10000 10000 10000 10000 10000 10000 10000 10000 10000 10000
          10000 10000 10000 10000 10000 10000 10000 10000 10000 10000 10000 10000
          10000 10000 10000 10000 10000 10000 10000 10000 10000 10000 10000 10000
          10000 10000 10000 10000 10000 10000 10000 10000 10000 10000 10000 10000
          10000 10000 10000 10000 10000 10000 10000 10000 10000 10000 10000 10000
          10000 10000 10000 10000 10000 10000 10000 10000 10000 10000 10000 10000
          10000 10000 10000 10000 10000 10000 10000 10000 10000 10000 10000 10000
          10000 10000 10000 10000 10000 10000 10000 10000 10000 10000 10000 10000
          10000 10000 10000 10000 10000 10000 10000 10000 10000 10000 10000 10000
          10000 10000 10000 10000 10000 10000 10000 10000 10000 10000 10000 10000
          10000 10000 10000 10000 10000 10000 10000 10000 10000 10000 10000 10000
          10000 10000 10000 10000 10000
        </DataArray>
        <DataArray type="Float32" Name="rho_liq" NumberOfComponents="1" format="ascii">
          1003.43 1003.43 1003.42 1003.42 1003.43 1003.42 1003.43 1003.42 1003.43 1003.42 1003.43 1003.42
          1003.43 1003.42 1003.43 1003.42 1003.43 1003.42 1003.43 1003.42 1003.44 1003.43 1003.44 1003.43
          1003.44 1003.43 1003.44 1003.43 1003.44 1003.43 1003.44 1003.43 1003.44 1003.43 1003.44 1003.43
          1003.44 1003.43 1003.44 1003.43 1003.44 1003.43 1003.44 1003.43 1003.44 1003.43 1003.44 1003.43
          1003.45 1003.44 1003.41 1003.41 1003.41 1003.41 1003.41 1003.41 1003.41 1003.41 1003.41 1003.41
          1003.42 1003.42 1003.42 1003.42 1003.42 1003.42 1003.42 1003.42 1003.42 1003.42 1003.42 1003.42
          1003.42 1003.43 1003.43 1003.4 1003.4 1003.4 1003.4 1003.4 1003.4 1003.4 1003.4 1003.4
          1003.4 1003.4 1003.41 1003.41 1003.41 1003.41 1003.41 1003.41 1003.41 1003.41 1003.41 1003.41
          1003.41 1003.41 1003.42 1003.42 1003.39 1003.39 1003.39 1003.39 1003.39 1003.39 1003.39 1003.39
          1003.39 1003.39 1003.39 1003.4 1003.4 1003.4 1003.4 1003.4 1003.4 1003.4 1003.4 1003.4
          1003.4 1003.4 1003.4 1003.41 1003.41 1003.38 1003.38 1003.38 1003.38 1003.38 1003.38 1003.38
          1003.38 1003.38 1003.38 1003.38 1003.39 1003.39 1003.39 1003.39 1003.39 1003.39 1003.39 1003.39
          1003.39 1003.39 1003.39 1003.39 1003.4 1003.4 1003.37 1003.37 1003.37 1003.37 1003.37 1003.37
          1003.37 1003.37 1003.37 1003.37 1003.37 1003.38 1003.38 1003.38 1003.38 1003.38 1003.38 1003.38
          1003.38 1003.38 1003.38 1003.38 1003.38 1003.38 1003.38 1003.36 1003.36 1003.36 1003.36 1003.36
          1003.36 1003.36 1003.36 1003.36 1003.36 1003.36 1003.36 1003.37 1003.37 1003.37 1003.37 1003.37
          1003.37 1003.37 1003.37 1003.37 1003.37 1003.37 1003.37 1003.37 1003.35 1003.35 1003.35 1003.35
          1003.35 1003.35 1003.35 1003.35 1003.35 1003.35 1003.35 1003.35 1003.36 1003.36 1003.36 1003.36
          1003.36 1003.36 1003.36 1003.36 1003.36 1003.36 1003.36 1003.36 1003.36 1003.34 1003.34 1003.34
          1003.34 1003.34 1003.34 1003.34 1003.34 1003.34 1003.34 1003.34 1003.34 1003.35 1003.35 1003.35
          1003.35 1003.35 1003.35 1003.35 1003.35 1003.35 1003.35 1003.35 1003.35 1003.35 1003.33 1003.33
          1003.33 1003.33 1003.33 1003.33 1003.33 1003.33 1003.33 1003.33 1003.33 1003.33 1003.33 1003.34
          1003.34 1003.34 1003.34 1003.34 1003.34 1003.34 1003.34 1003.34 1003.34 1003.34 1003.34 1003.32
          1003.32 1003.32 1003.32 1003.32 1003.32 1003.32 1003.32 1003.32 1003.32 1003.32 1003.32 1003.32
          1003.33 1003.33 1003.33 1003.33 1003.33 1003.33 1003.33 1003.33 1003.33 1003.33 1003.33 1003.33
          1003.31 1003.31 1003.31 1003.31 1003.31 1003.31 1003.31 1003.31 1003.31 1003.31 1003.31 1003.31
          1003.31 1003.31 1003.32 1003.32 1003.32 1003.32 1003.32 1003.32 1003.32 1003.32 1003.32 1003.32
          1003.32 1003.3 1003.3 1003.3 1003.3 1003.3 1003.3 1003.3 1003.3 1003.3 1003.3 1003.3
          1003.3 1003.3 1003.3 1003.31 1003.31 1003.31 1003.31 1003.31 1003.31 1003.31 1003.31 1003.31
          1003.31 1003.31 1003.29 1003.29 1003.29 1003.29 1003.29 1003.29 1003.29 1003.29 1003.29 1003.29
          1003.29 1003.29 1003.29 1003.29 1003.29 1003.3 1003.3 1003.3 1003.3 1003.3 1003.3 1003.3
          1003.3 1003.3 1003.3 1003.28 1003.28 1003.28 1003.28 1003.28 1003.28 1003.28 1003.28 1003.28
          1003.28 1003.28 1003.28 1003.28 1003.28 1003.28 1003.29 1003.29 1003.29 1003.29 1003.29 1003.29
          1003.29 1003.29 1003.29 1003.29 1003.27 1003.27 1003.27 1003.27 1003.27 1003.27 1003.27 1003.27
          1003.27 1003.27 1003.27 1003.27 1003.27 1003.27 1003.27 1003.27 1003.28 1003.28 1003.28 1003.28
          1003.28 1003.28 1003.28 1003.28 1003.28
        </DataArray>
        <DataArray type="Float32" Name="rho_gas" NumberOfComponents="1" format="ascii">
          269.697 269.697 269.448 269.448 269.697 269.448 269.697 269.448 269.697 269.448 269.697 269.448
          269.697 269.448 269.697 269.448 269.697 269.448 269.697 269.448 269.697 269.448 269.697 269.448
          269.697 269.448 269.697 269.448 269.697 269.448 269.697 269.448 269.697 269.448 269.697 269.448
          269.697 269.448 269.697 269.448 269.697 269.448 269.697 269.448 269.696 269.447 269.696 269.446
          269.695 269.449 269.2 269.199 269.199 269.199 269.199 269.2 269.2 269.2 269.2 269.2
          269.2 269.2 269.2 269.2 269.2 269.2 269.2 269.2 269.2 269.2 269.2 269.199
          269.199 269.311 269.638 268.951 268.95 268.951 268.951 268.951 268.951 268.951 268.951 268.951
          268.951 268.951 268.951 268.951 268.951 268.951 268.951 268.951 268.951 268.951 268.951 268.951
          268.952 269.106 283.605 283.674 268.702 268.702 268.702 268.702 268.702 268.702 268.702 268.702
          268.702 268.702 268.702 268.702 268.702 268.702 268.702 268.702 268.702 268.702 268.702 268.702
          268.702 268.704 268.892 283.349 283.428 268.453 268.453 268.453 268.453 268.453 268.453 268.453
          268.453 268.453 268.453 268.453 268.453 268.453 268.453 268.454 268.454 268.454 268.454 268.454
          268.454 268.454 268.455 268.616 283.075 283.15 268.205 268.204 268.204 268.204 268.205 268.205
          268.205 268.205 268.205 268.205 268.205 268.205 268.205 268.205 268.205 268.205 268.205 268.205
          268.205 268.205 268.205 268.206 268.209 268.46 282.805 267.956 267.956 267.956 267.956 267.956
          267.956 267.956 267.956 267.956 267.956 267.956 267.956 267.956 267.956 267.956 267.956 267.956
          267.956 267.956 267.956 267.957 267.957 267.958 267.961 268.167 267.707 267.707 267.707 267.707
          267.707 267.707 267.707 267.707 267.707 267.707 267.707 267.707 267.707 267.707 267.707 267.707
          267.707 267.707 267.708 267.708 267.708 267.708 267.709 267.709 267.71 267.459 267.458 267.458
          267.458 267.458 267.459 267.459 267.459 267.459 267.459 267.459 267.459 267.459 267.459 267.459
          267.459 267.459 267.459 267.459 267.459 267.459 267.459 267.459 267.459 267.46 267.21 267.21
          267.21 267.21 267.21 267.21 267.21 267.21 267.21 267.21 267.21 267.21 267.21 267.21
          267.21 267.21 267.21 267.21 267.21 267.21 267.21 267.21 267.21 267.21 267.21 266.961
          266.961 266.961 266.961 266.961 266.961 266.961 266.961 266.961 266.961 266.961 266.961 266.961
          266.961 266.961 266.961 266.961 266.961 266.961 266.961 266.961 266.961 266.961 266.961 266.961
          266.712 266.712 266.712 266.712 266.712 266.712 266.712 266.712 266.712 266.712 266.712 266.712
          266.712 266.712 266.712 266.712 266.712 266.712 266.712 266.713 266.713 266.713 266.713 266.713
          266.713 266.464 266.464 266.464 266.464 266.464 266.464 266.464 266.464 266.464 266.464 266.464
          266.464 266.464 266.464 266.464 266.464 266.464 266.464 266.464 266.464 266.464 266.464 266.464
          266.464 266.464 266.215 266.215 266.215 266.215 266.215 266.215 266.215 266.215 266.215 266.215
          266.215 266.215 266.215 266.215 266.215 266.215 266.215 266.215 266.215 266.215 266.215 266.215
          266.215 266.215 266.215 265.966 265.966 265.966 265.966 265.966 265.966 265.966 265.966 265.966
          265.966 265.966 265.966 265.966 265.966 265.966 265.966 265.966 265.966 265.966 265.966 265.966
          265.966 265.966 265.966 265.966 265.717 265.717 265.717 265.717 265.717 265.717 265.717 265.717
          265.717 265.717 265.717 265.717 265.717 265.717 265.717 265.717 265.717 265.717 265.717 265.717
          265.717 265.717 265.717 265.717 265.717
        </DataArray>
        <DataArray type="Float32" Name="mob_liq" NumberOfComponents="1" format="ascii">
          1523.32 1523.32 1523.33 1523.33 1523.32 1523.33 1523.32 1523.33 1523.32 1523.33 1523.32 1523.33
          1523.32 1523.33 1523.32 1523.33 1523.32 1523.33 1523.32 1523.32 1523.32 1523.32 1523.31 1523.32
          1523.31 1523.32 1523.31 1523.32 1523.31 1523.32 1523.31 1523.32 1523.31 1523.32 1523.31 1523.32
          1523.31 1523.32 1523.31 1523.32 1523.31 1523.32 1523.31 1523.32 1523.31 1523.32 1523.31 1523.32
          1523.31 1523.32 1523.34 1523.34 1523.34 1523.34 1523.34 1523.34 1523.34 1523.34 1523.33 1523.33
          1523.33 1523.33 1523.33 1523.33 1523.33 1523.33 1523.33 1523.33 1523.33 1523.33 1523.33 1523.33
          1523.33 1523.32 1523.32 1523.35 1523.35 1523.35 1523.35 1523.35 1523.35 1523.34 1523.34 1523.34
          1523.34 1523.34 1523.34 1523.34 1523.34 1523.34 1523.34 1523.34 1523.34 1523.34 1523.34 1523.34
          1523.33 1523.33 1516.22 970.645 1523.36 1523.36 1523.36 1523.36 1523.36 1523.35 1523.35 1523.35
          1523.35 1523.35 1523.35 1523.35 1523.35 1523.35 1523.35 1523.35 1523.35 1523.35 1523.35 1523.35
          1523.34 1523.34 1523.34 1512.14 956.864 1523.37 1523.37 1523.37 1523.37 1523.36 1523.36 1523.36
          1523.36 1523.36 1523.36 1523.36 1523.36 1523.36 1523.36 1523.36 1523.36 1523.36 1523.36 1523.36
          1523.35 1523.35 1523.35 1523.35 1514.23 955.525 1523.38 1523.38 1523.37 1523.37 1523.37 1523.37
          1523.37 1523.37 1523.37 1523.37 1523.37 1523.37 1523.37 1523.37 1523.37 1523.37 1523.37 1523.36
          1523.36 1523.36 1523.36 1523.36 1523.36 1523.36 1473.09 1523.39 1523.38 1523.38 1523.38 1523.38
          1523.38 1523.38 1523.38 1523.38 1523.38 1523.38 1523.38 1523.38 1523.38 1523.38 1523.38 1523.37
          1523.37 1523.37 1523.37 1523.37 1523.37 1523.37 1523.37 1523.37 1523.39 1523.39 1523.39 1523.39
          1523.39 1523.39 1523.39 1523.39 1523.39 1523.39 1523.39 1523.39 1523.39 1523.39 1523.39 1523.38
          1523.38 1523.38 1523.38 1523.38 1523.38 1523.38 1523.38 1523.38 1523.38 1523.4 1523.4 1523.4
          1523.4 1523.4 1523.4 1523.4 1523.4 1523.4 1523.4 1523.4 1523.4 1523.4 1523.39 1523.39
          1523.39 1523.39 1523.39 1523.39 1523.39 1523.39 1523.39 1523.39 1523.39 1523.39 1523.41 1523.41
          1523.41 1523.41 1523.41 1523.41 1523.41 1523.41 1523.41 1523.41 1523.41 1523.41 1523.4 1523.4
          1523.4 1523.4 1523.4 1523.4 1523.4 1523.4 1523.4 1523.4 1523.4 1523.4 1523.4 1523.42
          1523.42 1523.42 1523.42 1523.42 1523.42 1523.42 1523.42 1523.42 1523.42 1523.41 1523.41 1523.41
          1523.41 1523.41 1523.41 1523.41 1523.41 1523.41 1523.41 1523.41 1523.41 1523.41 1523.41 1523.41
          1523.43 1523.43 1523.43 1523.43 1523.43 1523.43 1523.43 1523.43 1523.43 1523.42 1523.42 1523.42
          1523.42 1523.42 1523.42 1523.42 1523.42 1523.42 1523.42 1523.42 1523.42 1523.42 1523.42 1523.42
          1523.42 1523.44 1523.44 1523.44 1523.44 1523.44 1523.44 1523.44 1523.43 1523.43 1523.43 1523.43
          1523.43 1523.43 1523.43 1523.43 1523.43 1523.43 1523.43 1523.43 1523.43 1523.43 1523.43 1523.43
          1523.43 1523.43 1523.45 1523.45 1523.45 1523.45 1523.45 1523.45 1523.44 1523.44 1523.44 1523.44
          1523.44 1523.44 1523.44 1523.44 1523.44 1523.44 1523.44 1523.44 1523.44 1523.44 1523.44 1523.44
          1523.44 1523.44 1523.44 1523.46 1523.46 1523.46 1523.46 1523.45 1523.45 1523.45 1523.45 1523.45
          1523.45 1523.45 1523.45 1523.45 1523.45 1523.45 1523.45 1523.45 1523.45 1523.45 1523.45 1523.45
          1523.45 1523.45 1523.45 1523.45 1523.47 1523.47 1523.46 1523.46 1523.46 1523.46 1523.46 1523.46
          1523.46 1523.46 1523.46 1523.46 1523.46 1523.46 1523.46 1523.46 1523.46 1523.46 1523.46 1523.46
          1523.46 1523.46 1523.45 1523.45 1523.45
        </DataArray>
        <DataArray type="Float32" Name="mob_gas" NumberOfComponents="1" format="ascii">
          0 0 0 0 0 0 0 0 0 0 0 0
          0 0 0 0 0 0 0 0 0 0 0 0
          0 0 0 0 0 0 0 0 0 0 0 0
          0 0 0 0 0 0 0 0 0 0 0 0
          0 0 0 0 0 0 0 0 0 0 0 0
          0 0 0 0 0 0 0 0 0 0 0 0
          0 0 0 0 0 0 0 0 0 0 0 0
          0 0 0 0 0 0 0 0 0 0 0 0
          0 0 0.000174501 125.218 0 0 0 0 0 0 0 0
          0 0 0 0 0 0 0 0 0 0 0 0
          0 0 0 0.000684445 136.571 0 0 0 0 0 0 0
          0 0 0 0 0 0 0 0 0 0 0 0
          0 0 0 0 0.000368382 137.72 0 0 0 0 0 0
          0 0 0 0 0 0 0 0 0 0 0 0
          0 0 0 0 0 0 0.0634869 0 0 0 0 0
          0 0 0 0 0 0 0 0 0 0 0 0
          0 0 0 0 0 0 0 0 0 0 0 0
          0 0 0 0 0 0 0 0 0 0 0 0
          0 0 0 0 0 0 0 0 0 0 0 0
          0 0 0 0 0 0 0 0 0 0 0 0
          0 0 0 0 0 0 0 0 0 0 0 0
          0 0 0 0 0 0 0 0 0 0 0 0
          0 0 0 0 0 0 0 0 0 0 0 0
          0 0 0 0 0 0 0 0 0 0 0 0
          0 0 0 0 0 0 0 0 0 0 0 0
          0 0 0 0 0 0 0 0 0 0 0 0
          0 0 0 0 0 0 0 0 0 0 0 0
          0 0 0 0 0 0 0 0 0 0 0 0
          0 0 0 0 0 0 0 0 0 0 0 0
          0 0 0 0 0 0 0 0 0 0 0 0
          0 0 0 0 0 0 0 0 0 0 0 0
          0 0 0 0 0 0 0 0 0 0 0 0
          0 0 0 0 0 0 0 0 0 0 0 0
          0 0 0 0 0 0 0 0 0 0 0 0
          0 0 0 0 0 0 0 0 0 0 0 0
          0 0 0 0 0
        </DataArray>
        <DataArray type="Float32" Name="rhoMolar_liq" NumberOfComponents="1" format="ascii">