<?xml version="1.0"?>
<VTKFile type="UnstructuredGrid" version="0.1" byte_order="LittleEndian">
  <UnstructuredGrid>
    <Piece NumberOfCells="384" NumberOfPoints="425">
      <PointData Scalars="S_liq">
        <DataArray type="Float32" Name="S_liq" NumberOfComponents="1" format="ascii">
          1 1 1 1 1 1 1 1 1 1 1 1
          1 1 1 1 1 1 1 1 1 1 1 1
          1 1 1 1 1 1 1 1 1 1 1 1
          1 1 1 1 1 1 1 1 1 1 1 1
          1 1 1 1 1 1 1 1 1 1 1 1
          1 1 1 1 1 1 1 1 1 1 1 1
          1 1 1 1 1 1 1 1 1 1 1 1
          1 1 1 1 1 1 1 1 1 1 1 1
          1 1 0.998519 0.90131 1 1 1 1 1 1 1 1
          1 1 1 1 1 1 1 1 1 1 1 1
          1 1 1 0.997934 0.897062 1 1 1 1 1 1 1
          1 1 1 1 1 1 1 1 1 1 1 1
          1 1 1 1 0.998171 0.896575 1 1 1 1 1 1
          1 1 1 1 1 1 1 1 1 1 1 1
          1 1 1 1 1 1 0.990245 1 1 1 1 1
          1 1 1 1 1 1 1 1 1 1 1 1
          1 1 1 1 1 1 1 0.999995 1 1 1 1
          1 1 1 1 1 1 1 1 1 1 1 1
          1 1 1 1 1 1 1 1 1 1 1 1
          1 1 1 1 1 1 1 1 1 1 1 1
          1 1 1 1 1 1 1 1 1 1 1 1
          1 1 1 1 1 1 1 1 1 1 1 1
          1 1 1 1 1 1 1 1 1 1 1 1
          1 1 1 1 1 1 1 1 1 1 1 1
          1 1 1 1 1 1 1 1 1 1 1 1
          1 1 1 1 1 1 1 1 1 1 1 1
          1 1 1 1 1 1 1 1 1 1 1 1
          1 1 1 1 1 1 1 1 1 1 1 1
          1 1 1 1 1 1 1 1 1 1 1 1
          1 1 1 1 1 1 1 1 1 1 1 1
          1 1 1 1 1 1 1 1 1 1 1 1
          1 1 1 1 1 1 1 1 1 1 1 1
          1 1 1 1 1 1 1 1 1 1 1 1
          1 1 1 1 1 1 1 1 1 1 1 1
          1 1 1 1 1 1 1 1 1 1 1 1
          1 1 1 1 1
        </DataArray>
        <DataArray type="Float32" Name="S_gas" NumberOfComponents="1" format="ascii">
          0 0 0 0 0 0 0 0 0 0 0 0
          0 0 0 0 0 0 0 0 0 0 0 0
          0 0 0 0 0 0 0 0 0 0 0 0
          0 0 0 0 0 0 0 0 0 0 0 0
          0 0 0 0 0 0 0 0 0 0 0 0
          0 0 0 0 0 0 0 0 0 0 0 0
          0 0 0 0 0 0 0 0 0 0 -0 -0
          -0 -0 -0 -0 -0 -0 -0 -0 -0 -0 -0 0
          1.10694e-27 1.48344e-09 0.00148142 0.09869 0 0 0 0 0 0 0 -0
          -0 -0 -0 -0 -0 -0 -0 -0 -0 -0 -0 -0
          0 3.74007e-26 4.69765e-09 0.00206561 0.102938 0 0 0 0 0 0 0
          -0 -0 -0 -0 -0 -0 -0 -0 -0 -0 -0 -0
          -0 0 8.32288e-27 2.90028e-09 0.00182893 0.103425 0 0 0 0 0 0
          0 0 -0 -0 -0 -0 -0 -0 -0 -0 -0 -0
          -0 -0 -0 2.71432e-42 1.38593e-20 3.55632e-07 0.00975493 0 0 0 0 0
          0 0 0 0 -0 -0 -0 -0 -0 -0 -0 -0
          -0 -0 -0 -0 -0 1.1012e-39 1.31738e-17 5.40691e-06 0 0 0 0
          0 0 0 0 0 -0 -0 -0 -0 -0 -0 -0
          -0 -0 -0 -0 -0 -0 -0 4.28217e-38 7.77856e-16 0 0 0
          0 0 0 0 0 0 0 -0 -0 -0 -0 -0
          -0 -0 -0 -0 -0 -0 -0 -0 -0 1.54164e-36 0 0
          0 0 0 0 0 0 0 0 0 -0 -0 -0
          -0 -0 -0 -0 -0 -0 -0 -0 -0 -0 -0 0
          0 0 0 0 0 0 0 0 0 0 0 -0
          -0 -0 -0 -0 -0 -0 -0 -0 -0 -0 -0 -0
          0 0 0 0 0 0 0 0 0 0 0 0
          0 -0 -0 -0 -0 -0 -0 -0 -0 -0 -0 -0
          -0 0 0 0 0 0 0 0 0 0 0 0
          0 0 0 -0 -0 -0 -0 -0 -0 -0 -0 -0
          -0 -0 0 0 0 0 0 0 0 0 0 0
          0 0 0 0 0 -0 -0 -0 -0 -0 -0 -0
          -0 -0 -0 0 0 0 0 0 0 0 0 0
          0 0 0 0 0 0 0 -0 -0 -0 -0 -0
          -0 -0 -0 -0 0 0 0 0 0 0 0 0
          0 0 0 0 0 0 0 0 0 -0 -0 -0
          -0 -0 -0 -0 -0
        </DataArray>
        <DataArray type="Float32" Name="p_liq" NumberOfComponents="1" format="ascii">
          2.6587e+07 2.6587e+07 2.65625e+07 2.65629e+07 2.65874e+07 2.65634e+07 2.6588e+07 2.6564e+07 2.65887e+07 2.65648e+07 2.65895e+07 2.65656e+07
          2.65904e+07 2.65664e+07 2.65912e+07 2.65673e+07 2.65921e+07 2.65681e+07 2.6593e+07 2.6569e+07 2.65939e+07 2.65699e+07 2.65948e+07 2.65708e+07
          2.65958e+07 2.65718e+07 2.65968e+07 2.65729e+07 2.65979e+07 2.65739e+07 2.65989e+07 2.6575e+07 2.66e+07 2.6576e+07 2.6601e+07 2.65771e+07
          2.6602e+07 2.65781e+07 2.66031e+07 2.65792e+07 2.66041e+07 2.65802e+07 2.66051e+07 2.65812e+07 2.66059e+07 2.65821e+07 2.66065e+07 2.65828e+07
          2.66067e+07 2.6583e+07 2.6538e+07 2.65386e+07 2.65392e+07 2.65399e+07 2.65407e+07 2.65416e+07 2.65424e+07 2.65433e+07 2.65442e+07 2.6545e+07
          2.65459e+07 2.65468e+07 2.65479e+07 2.65489e+07 2.655e+07 2.6551e+07 2.6552e+07 2.65531e+07 2.65542e+07 2.65552e+07 2.65563e+07 2.65574e+07
          2.65585e+07 2.65595e+07 2.65597e+07 2.65134e+07 2.65142e+07 2.6515e+07 2.65158e+07 2.65167e+07 2.65175e+07 2.65184e+07 2.65194e+07 2.65203e+07
          2.6521e+07 2.65219e+07 2.65228e+07 2.65239e+07 2.6525e+07 2.6526e+07 2.6527e+07 2.65281e+07 2.65291e+07 2.65302e+07 2.65313e+07 2.65324e+07
          2.65336e+07 2.65348e+07 2.65364e+07 2.65399e+07 2.64889e+07 2.64898e+07 2.64907e+07 2.64916e+07 2.64925e+07 2.64935e+07 2.64944e+07 2.64954e+07
          2.64964e+07 2.64972e+07 2.6498e+07 2.64989e+07 2.65e+07 2.6501e+07 2.65021e+07 2.65031e+07 2.65041e+07 2.65052e+07 2.65062e+07 2.65073e+07
          2.65084e+07 2.65096e+07 2.6511e+07 2.65129e+07 2.65171e+07 2.64644e+07 2.64654e+07 2.64664e+07 2.64674e+07 2.64684e+07 2.64694e+07 2.64704e+07
          2.64714e+07 2.64724e+07 2.64733e+07 2.64742e+07 2.6475e+07 2.64761e+07 2.64771e+07 2.64781e+07 2.64791e+07 2.64802e+07 2.64812e+07 2.64822e+07
          2.64833e+07 2.64844e+07 2.64855e+07 2.64869e+07 2.64885e+07 2.64925e+07 2.64398e+07 2.6441e+07 2.64421e+07 2.64432e+07 2.64443e+07 2.64454e+07
          2.64464e+07 2.64475e+07 2.64485e+07 2.64494e+07 2.64503e+07 2.64511e+07 2.64521e+07 2.64532e+07 2.64542e+07 2.64552e+07 2.64562e+07 2.64572e+07
          2.64582e+07 2.64592e+07 2.64603e+07 2.64613e+07 2.64624e+07 2.64637e+07 2.64644e+07 2.64153e+07 2.64166e+07 2.64179e+07 2.64191e+07 2.64202e+07
          2.64213e+07 2.64224e+07 2.64235e+07 2.64246e+07 2.64255e+07 2.64264e+07 2.64272e+07 2.64282e+07 2.64292e+07 2.64302e+07 2.64312e+07 2.64322e+07
          2.64332e+07 2.64342e+07 2.64352e+07 2.64361e+07 2.64371e+07 2.6438e+07 2.64387e+07 2.64389e+07 2.63908e+07 2.63923e+07 2.63937e+07 2.63949e+07
          2.63961e+07 2.63973e+07 2.63984e+07 2.63996e+07 2.64007e+07 2.64016e+07 2.64025e+07 2.64034e+07 2.64043e+07 2.64053e+07 2.64063e+07 2.64072e+07
          2.64082e+07 2.64092e+07 2.64101e+07 2.64111e+07 2.6412e+07 2.64129e+07 2.64136e+07 2.64141e+07 2.64143e+07 2.63663e+07 2.63681e+07 2.63696e+07
          2.63709e+07 2.63721e+07 2.63733e+07 2.63744e+07 2.63756e+07 2.63768e+07 2.63778e+07 2.63788e+07 2.63796e+07 2.63804e+07 2.63813e+07 2.63823e+07
          2.63833e+07 2.63842e+07 2.63852e+07 2.63861e+07 2.63871e+07 2.6388e+07 2.63888e+07 2.63894e+07 2.63899e+07 2.639e+07 2.63418e+07 2.63434e+07
          2.63449e+07 2.63463e+07 2.63477e+07 2.63489e+07 2.63502e+07 2.63514e+07 2.63526e+07 2.63536e+07 2.63545e+07 2.63554e+07 2.63563e+07 2.63572e+07
          2.63582e+07 2.63591e+07 2.636e+07 2.63609e+07 2.63618e+07 2.63626e+07 2.63634e+07 2.6364e+07 2.63646e+07 2.63649e+07 2.6365e+07 2.63172e+07
          2.63188e+07 2.63204e+07 2.63219e+07 2.63233e+07 2.63246e+07 2.63259e+07 2.63272e+07 2.63284e+07 2.63294e+07 2.63304e+07 2.63312e+07 2.63322e+07
          2.63331e+07 2.63341e+07 2.63349e+07 2.63358e+07 2.63367e+07 2.63375e+07 2.63382e+07 2.63389e+07 2.63394e+07 2.63399e+07 2.63401e+07 2.63402e+07
          2.62927e+07 2.62943e+07 2.62959e+07 2.62975e+07 2.62989e+07 2.63003e+07 2.63017e+07 2.6303e+07 2.63043e+07 2.63053e+07 2.63063e+07 2.63072e+07
          2.63081e+07 2.63091e+07 2.631e+07 2.63108e+07 2.63116e+07 2.63124e+07 2.63132e+07 2.63139e+07 2.63145e+07 2.6315e+07 2.63153e+07 2.63156e+07
          2.63157e+07 2.62682e+07 2.62699e+07 2.62716e+07 2.62731e+07 2.62747e+07 2.62761e+07 2.62775e+07 2.62788e+07 2.62801e+07 2.62812e+07 2.62823e+07
          2.62832e+07 2.62841e+07 2.6285e+07 2.62859e+07 2.62867e+07 2.62875e+07 2.62883e+07 2.6289e+07 2.62896e+07 2.62902e+07 2.62906e+07 2.6291e+07
          2.62912e+07 2.62912e+07 2.62436e+07 2.62455e+07 2.62472e+07 2.62489e+07 2.62505e+07 2.6252e+07 2.62534e+07 2.62547e+07 2.6256e+07 2.62572e+07
          2.62583e+07 2.62592e+07 2.62601e+07 2.6261e+07 2.62618e+07 2.62627e+07 2.62634e+07 2.62642e+07 2.62648e+07 2.62654e+07 2.6266e+07 2.62664e+07
          2.62667e+07 2.62669e+07 2.6267e+07 2.62191e+07 2.62212e+07 2.6223e+07 2.62248e+07 2.62264e+07 2.62279e+07 2.62293e+07 2.62306e+07 2.62319e+07
          2.62331e+07 2.62342e+07 2.62352e+07 2.62361e+07 2.6237e+07 2.62378e+07 2.62386e+07 2.62394e+07 2.62401e+07 2.62408e+07 2.62414e+07 2.62419e+07
          2.62423e+07 2.62426e+07 2.62428e+07 2.62428e+07 2.61946e+07 2.6197e+07 2.6199e+07 2.62007e+07 2.62023e+07 2.62039e+07 2.62053e+07 2.62066e+07
          2.62079e+07 2.62091e+07 2.62102e+07 2.62112e+07 2.62121e+07 2.6213e+07 2.62138e+07 2.62146e+07 2.62154e+07 2.62161e+07 2.62168e+07 2.62174e+07
          2.62178e+07 2.62182e+07 2.62185e+07 2.62187e+07 2.62188e+07
        </DataArray>
        <DataArray type="Float32" Name="p_gas" NumberOfComponents="1" format="ascii">
          2.6597e+07 2.6597e+07 2.65725e+07 2.65729e+07 2.65974e+07 2.65734e+07 2.6598e+07 2.6574e+07 2.65987e+07 2.65748e+07 2.65995e+07 2.65756e+07
          2.66004e+07 2.65764e+07 2.66012e+07 2.65773e+07 2.66021e+07 2.65781e+07 2.6603e+07 2.6579e+07 2.66039e+07 2.65799e+07 2.66048e+07 2.65808e+07
          2.66058e+07 2.65818e+07 2.66068e+07 2.65829e+07 2.66079e+07 2.65839e+07 2.66089e+07 2.6585e+07 2.661e+07 2.6586e+07 2.6611e+07 2.65871e+07
          2.6612e+07 2.65881e+07 2.66131e+07 2.65892e+07 2.66141e+07 2.65902e+07 2.66151e+07 2.65912e+07 2.66159e+07 2.65921e+07 2.66165e+07 2.65928e+07
          2.66167e+07 2.6593e+07 2.6548e+07 2.65486e+07 2.65492e+07 2.65499e+07 2.65507e+07 2.65516e+07 2.65524e+07 2.65533e+07 2.65542e+07 2.6555e+07
          2.65559e+07 2.65568e+07 2.65579e+07 2.65589e+07 2.656e+07 2.6561e+07 2.6562e+07 2.65631e+07 2.65642e+07 2.65652e+07 2.65663e+07 2.65674e+07
          2.65685e+07 2.65695e+07 2.65697e+07 2.65234e+07 2.65242e+07 2.6525e+07 2.65258e+07 2.65267e+07 2.65275e+07 2.65284e+07 2.65294e+07 2.65303e+07
          2.6531e+07 2.65319e+07 2.65328e+07 2.65339e+07 2.6535e+07 2.6536e+07 2.6537e+07 2.65381e+07 2.65391e+07 2.65402e+07 2.65413e+07 2.65424e+07
          2.65436e+07 2.65448e+07 2.65464e+07 2.65506e+07 2.64989e+07 2.64998e+07 2.65007e+07 2.65016e+07 2.65025e+07 2.65035e+07 2.65044e+07 2.65054e+07
          2.65064e+07 2.65072e+07 2.6508e+07 2.65089e+07 2.651e+07 2.6511e+07 2.65121e+07 2.65131e+07 2.65141e+07 2.65152e+07 2.65162e+07 2.65173e+07
          2.65184e+07 2.65196e+07 2.6521e+07 2.65229e+07 2.65278e+07 2.64744e+07 2.64754e+07 2.64764e+07 2.64774e+07 2.64784e+07 2.64794e+07 2.64804e+07
          2.64814e+07 2.64824e+07 2.64833e+07 2.64842e+07 2.6485e+07 2.64861e+07 2.64871e+07 2.64881e+07 2.64891e+07 2.64902e+07 2.64912e+07 2.64922e+07
          2.64933e+07 2.64944e+07 2.64955e+07 2.64969e+07 2.64985e+07 2.65032e+07 2.64498e+07 2.6451e+07 2.64521e+07 2.64532e+07 2.64543e+07 2.64554e+07
          2.64564e+07 2.64575e+07 2.64585e+07 2.64594e+07 2.64603e+07 2.64611e+07 2.64621e+07 2.64632e+07 2.64642e+07 2.64652e+07 2.64662e+07 2.64672e+07
          2.64682e+07 2.64692e+07 2.64703e+07 2.64713e+07 2.64724e+07 2.64737e+07 2.64744e+07 2.64253e+07 2.64266e+07 2.64279e+07 2.64291e+07 2.64302e+07
          2.64313e+07 2.64324e+07 2.64335e+07 2.64346e+07 2.64355e+07 2.64364e+07 2.64372e+07 2.64382e+07 2.64392e+07 2.64402e+07 2.64412e+07 2.64422e+07
          2.64432e+07 2.64442e+07 2.64452e+07 2.64461e+07 2.64471e+07 2.6448e+07 2.64487e+07 2.64489e+07 2.64008e+07 2.64023e+07 2.64037e+07 2.64049e+07
          2.64061e+07 2.64073e+07 2.64084e+07 2.64096e+07 2.64107e+07 2.64116e+07 2.64125e+07 2.64134e+07 2.64143e+07 2.64153e+07 2.64163e+07 2.64172e+07
          2.64182e+07 2.64192e+07 2.64201e+07 2.64211e+07 2.6422e+07 2.64229e+07 2.64236e+07 2.64241e+07 2.64243e+07 2.63763e+07 2.63781e+07 2.63796e+07
          2.63809e+07 2.63821e+07 2.63833e+07 2.63844e+07 2.63856e+07 2.63868e+07 2.63878e+07 2.63888e+07 2.63896e+07 2.63904e+07 2.63913e+07 2.63923e+07
          2.63933e+07 2.63942e+07 2.63952e+07 2.63961e+07 2.63971e+07 2.6398e+07 2.63988e+07 2.63994e+07 2.63999e+07 2.64e+07 2.63518e+07 2.63534e+07
          2.63549e+07 2.63563e+07 2.63577e+07 2.63589e+07 2.63602e+07 2.63614e+07 2.63626e+07 2.63636e+07 2.63645e+07 2.63654e+07 2.63663e+07 2.63672e+07
          2.63682e+07 2.63691e+07 2.637e+07 2.63709e+07 2.63718e+07 2.63726e+07 2.63734e+07 2.6374e+07 2.63746e+07 2.63749e+07 2.6375e+07 2.63272e+07
          2.63288e+07 2.63304e+07 2.63319e+07 2.63333e+07 2.63346e+07 2.63359e+07 2.63372e+07 2.63384e+07 2.63394e+07 2.63404e+07 2.63412e+07 2.63422e+07
          2.63431e+07 2.63441e+07 2.63449e+07 2.63458e+07 2.63467e+07 2.63475e+07 2.63482e+07 2.63489e+07 2.63494e+07 2.63499e+07 2.63501e+07 2.63502e+07
          2.63027e+07 2.63043e+07 2.63059e+07 2.63075e+07 2.63089e+07 2.63103e+07 2.63117e+07 2.6313e+07 2.63143e+07 2.63153e+07 2.63163e+07 2.63172e+07
          2.63181e+07 2.63191e+07 2.632e+07 2.63208e+07 2.63216e+07 2.63224e+07 2.63232e+07 2.63239e+07 2.63245e+07 2.6325e+07 2.63253e+07 2.63256e+07
          2.63257e+07 2.62782e+07 2.62799e+07 2.62816e+07 2.62831e+07 2.62847e+07 2.62861e+07 2.62875e+07 2.62888e+07 2.62901e+07 2.62912e+07 2.62923e+07
          2.62932e+07 2.62941e+07 2.6295e+07 2.62959e+07 2.62967e+07 2.62975e+07 2.62983e+07 2.6299e+07 2.62996e+07 2.63002e+07 2.63006e+07 2.6301e+07
          2.63012e+07 2.63012e+07 2.62536e+07 2.62555e+07 2.62572e+07 2.62589e+07 2.62605e+07 2.6262e+07 2.62634e+07 2.62647e+07 2.6266e+07 2.62672e+07
          2.62683e+07 2.62692e+07 2.62701e+07 2.6271e+07 2.62718e+07 2.62727e+07 2.62734e+07 2.62742e+07 2.62748e+07 2.62754e+07 2.6276e+07 2.62764e+07
          2.62767e+07 2.62769e+07 2.6277e+07 2.62291e+07 2.62312e+07 2.6233e+07 2.62348e+07 2.62364e+07 2.62379e+07 2.62393e+07 2.62406e+07 2.62419e+07
          2.62431e+07 2.62442e+07 2.62452e+07 2.62461e+07 2.6247e+07 2.62478e+07 2.62486e+07 2.62494e+07 2.62501e+07 2.62508e+07 2.62514e+07 2.62519e+07
          2.62523e+07 2.62526e+07 2.62528e+07 2.62528e+07 2.62046e+07 2.6207e+07 2.6209e+07 2.62107e+07 2.62123e+07 2.62139e+07 2.62153e+07 2.62166e+07
          2.62179e+07 2.62191e+07 2.62202e+07 2.62212e+07 2.62221e+07 2.6223e+07 2.62238e+07 2.62246e+07 2.62254e+07 2.62261e+07 2.62268e+07 2.62274e+07
          2.62278e+07 2.62282e+07 2.62285e+07 2.62287e+07 2.62288e+07
        </DataArray>
        <DataArray type="Float32" Name="pc" NumberOfComponents="1" format="ascii">
          10000 10000 10000 10000 10000 10000 10000 10000 10000 10000 10000 10000
          10000 10000 10000 10000 10000 10000 10000 10000 10000 10000 10000 10000
          10000 10000 10000 10000 10000 10000 10000 10000 10000 10000 10000 10000
          10000 10000 10000 10000 10000 10000 10000 10000 10000 10000 10000 10000
          10000 10000 10000 10000 10000 10000 10000 10000 10000 10000 10000 10000
          10000 10000 10000 10000 10000 10000 10000 10000 10000 10000 10000 10000
          10000 10000 10000 10000 10000 10000 10000 10000 10000 10000 10000 10000
          10000 10000 10000 10000 10000 10000 10000 10000 10000 10000 10000 10000
          10000 10000 10009.3 10680.5 10000 10000 10000 10000 10000 10000 10000 10000
          10000 10000 10000 10000 10000 10000 10000 10000 10000 10000 10000 10000
          10000 10000 10000 10012.9 10713 10000 10000 10000 10000 10000 10000 10000
          10000 10000 10000 10000 10000 10000 10000 10000 10000 10000 10000 10000
          10000 10000 10000 10000 10011.5 10716.7 10000 10000 10000 10000 10000 10000
          10000 10000 10000 10000 10000 10000 10000 10000 10000 10000 10000 10000
          10000 10000 10000 10000 10000 10000 10061.5 10000 10000 10000 10000 10000
          10000 10000 10000 10000 10000 10000 10000 10000 10000 10000 10000 10000
          10000 10000 10000 10000 10000 10000 10000 10000 10000 10000 10000 10000
          10000 10000 10000 10000 10000 10000 10000 10000 10000 10000 10000 10000
          10000 10000 10000 10000 10000 10000 10000 10000 10000 10000 10000 10000
          10000 10000 10000 10000 10000 10000 10000 10000 10000 10000 10000 10000
          10000 10000 10000 10000 10000 10000 10000 10000 10000 10000 10000 10000
          10000 10000 10000 10000 10000 10000 10000 10000 10000 10000 10000 10000
          10000 10000 10000 10000 10000 10000 10000 10000 10000 10000 10000 10000
          10000 10000 10000 10000 10000 10000 10000 10000 10000 10000 10000 10000
          10000 10000 10000 10000 10000 10000 10000 10000 10000 10000 10000 10000
          10000 10000 10000 10000 10000 10000 10000 10000 10000 10000 10000 10000
          10000 10000 10000 10000 10000 10000 10000 10000 10000 10000 10000 10000
          10000 10000 10000 10000 10000 10000 10000 10000 10000 10000 10000 10000
          10000 10000 10000 10000 10000 10000 10000 10000 10000 10000 10000 10000
          10000 10000 10000 10000 10000 10000 10000 10000 10000 10000 10000 10000
          10000 10000 10000 10000 10000 10000 10000 10000 10000 10000 10000 10000
          10000 10000 10000 10000 10000 10000 10000 10000 10000 10000 10000 10000
          10000 10000 10000 10000 10000 10000 10000 10000 10000 10000 10000 10000
          10000 10000 10000 10000 10000 10000 10000 10000 10000 10000 10000 10000
          10000 10000 10000 10000 10000 10000 10000 10000 10000 10000 10000 10000
          10000 10000 10000 10000 10000
        </DataArray>
        <DataArray type="Float32" Name="rho_liq" NumberOfComponents="1" format="ascii">
          976.461 976.461 976.499 976.499 976.461 976.5 976.462 976.5 976.462 976.5 976.462 976.5
          976.463 976.501 976.463 976.501 976.463 976.502 976.464 976.502 976.464 976.502 976.464 976.503
          976.465 976.503 976.465 976.503 976.466 976.504 976.466 976.504 976.466 976.505 976.467 976.505
          976.467 976.506 976.468 976.506 976.468 976.507 976.469 976.507 976.469 976.507 976.469 976.508
          976.469 976.508 976.537 976.537 976.538 976.538 976.539 976.539 976.539 976.54 976.537 976.532
          976.529 976.533 976.539 976.542 976.542 976.543 976.543 976.544 976.544 976.544 976.545 976.545
          976.546 976.547 976.547 976.576 976.576 976.576 976.576 976.577 976.577 976.578 976.578 976.498
          965.525 965.521 965.625 976.571 976.58 976.581 976.581 976.582 976.582 976.582 976.583 976.583
          976.584 976.584 976.585 976.587 976.614 976.614 976.614 976.615 976.615 976.616 976.616 976.616
          976.53 965.496 965.485 965.588 976.607 976.619 976.619 976.62 976.62 976.62 976.621 976.621
          976.622 976.622 976.623 976.624 976.625 976.652 976.652 976.653 976.653 976.654 976.654 976.654
          976.654 976.565 965.486 965.474 965.575 976.645 976.657 976.658 976.658 976.658 976.659 976.659
          976.66 976.66 976.661 976.661 976.662 976.663 976.69 976.69 976.691 976.691 976.692 976.692
          976.693 976.693 976.601 965.475 965.463 965.563 976.684 976.696 976.696 976.696 976.697 976.697
          976.698 976.698 976.698 976.699 976.699 976.699 976.699 976.728 976.729 976.729 976.73 976.73
          976.731 976.731 976.731 976.636 965.464 965.453 965.551 976.722 976.734 976.734 976.735 976.735
          976.736 976.736 976.736 976.737 976.737 976.737 976.737 976.737 976.766 976.767 976.768 976.768
          976.769 976.769 976.77 976.769 976.67 965.454 965.442 965.537 976.76 976.772 976.773 976.773
          976.774 976.774 976.774 976.775 976.775 976.775 976.776 976.776 976.776 976.805 976.805 976.806
          976.806 976.807 976.807 976.808 976.808 976.744 965.443 965.431 965.486 976.799 976.811 976.811
          976.812 976.812 976.812 976.813 976.813 976.813 976.814 976.814 976.814 976.814 976.843 976.843
          976.844 976.845 976.845 976.846 976.846 976.847 976.826 965.433 965.42 965.442 976.837 976.849
          976.85 976.85 976.85 976.851 976.851 976.851 976.852 976.852 976.852 976.852 976.852 976.881
          976.882 976.882 976.883 976.883 976.884 976.885 976.885 976.864 965.422 965.409 965.431 976.875
          976.888 976.888 976.888 976.889 976.889 976.889 976.89 976.89 976.89 976.89 976.89 976.89
          976.919 976.92 976.921 976.921 976.922 976.922 976.923 976.923 976.902 965.411 965.399 965.421
          976.914 976.926 976.926 976.927 976.927 976.927 976.928 976.928 976.928 976.928 976.928 976.929
          976.929 976.957 976.958 976.959 976.959 976.96 976.961 976.961 976.962 976.943 965.411 965.401
          965.42 976.955 976.964 976.965 976.965 976.965 976.966 976.966 976.966 976.966 976.967 976.967
          976.967 976.967 976.996 976.996 976.997 976.998 976.998 976.999 977 977 976.998 976.99
          976.988 976.992 976.999 977.003 977.003 977.003 977.004 977.004 977.004 977.005 977.005 977.005
          977.005 977.005 977.005 977.034 977.035 977.035 977.036 977.037 977.037 977.038 977.039 977.039
          977.039 977.04 977.04 977.041 977.041 977.041 977.042 977.042 977.042 977.043 977.043 977.043
          977.043 977.043 977.043 977.044 977.072 977.073 977.074 977.074 977.075 977.076 977.076 977.077
          977.077 977.078 977.078 977.079 977.079 977.079 977.08 977.08 977.08 977.081 977.081 977.081
          977.081 977.082 977.082 977.082 977.082
        </DataArray>
        <DataArray type="Float32" Name="rho_gas" NumberOfComponents="1" format="ascii">
          246.185 246.185 246.009 246.013 246.189 246.017 246.195 246.023 246.202 246.03 246.209 246.038
          246.217 246.045 246.224 246.053 246.232 246.061 246.241 246.069 246.249 246.078 246.258 246.086
          246.267 246.096 246.276 246.105 246.286 246.115 246.296 246.125 246.305 246.134 246.315 246.144
          246.325 246.154 246.334 246.163 246.344 246.173 246.353 246.182 246.361 246.191 246.366 246.197
          246.368 246.199 245.833 245.838 245.844 245.851 245.858 245.866 245.874 245.882 245.887 245.889
          245.894 245.906 245.921 245.934 245.944 245.953 245.963 245.973 245.983 245.992 246.002 246.012
          246.023 246.033 246.035 245.656 245.663 245.671 245.678 245.686 245.694 245.703 245.711 245.636
          235.262 235.265 235.364 245.744 245.763 245.773 245.782 245.792 245.802 245.811 245.821 245.832
          245.842 245.854 245.868 245.907 245.48 245.488 245.496 245.505 245.513 245.522 245.531 245.539
          245.458 235.034 235.031 235.129 245.57 245.592 245.601 245.611 245.621 245.63 245.64 245.65
          245.66 245.671 245.684 245.701 245.747 245.303 245.312 245.322 245.331 245.341 245.35 245.359
          245.368 245.284 234.822 234.82 234.915 245.399 245.421 245.43 245.44 245.449 245.459 245.468
          245.478 245.488 245.499 245.511 245.526 245.569 245.126 245.137 245.147 245.158 245.168 245.178
          245.187 245.196 245.11 234.61 234.608 234.702 245.228 245.25 245.259 245.268 245.277 245.287
          245.296 245.306 245.315 245.325 245.335 245.346 245.353 244.95 244.961 244.973 244.984 244.995
          245.005 245.015 245.025 244.936 234.399 234.396 234.489 245.057 245.078 245.087 245.097 245.106
          245.115 245.124 245.133 245.142 245.151 245.159 245.165 245.168 244.773 244.786 244.799 244.811
          244.822 244.833 244.843 244.853 244.76 234.187 234.184 234.274 244.886 244.907 244.916 244.925
          244.934 244.943 244.952 244.961 244.969 244.977 244.984 244.988 244.99 244.596 244.613 244.626
          244.639 244.65 244.661 244.671 244.682 244.625 233.976 233.973 234.028 244.715 244.735 244.744
          244.753 244.762 244.771 244.78 244.788 244.797 244.804 244.81 244.814 244.816 244.419 244.434
          244.448 244.461 244.474 244.485 244.497 244.508 244.497 233.761 233.758 233.784 244.542 244.562
          244.571 244.58 244.588 244.596 244.604 244.612 244.619 244.625 244.63 244.633 244.634 244.242
          244.257 244.271 244.285 244.298 244.31 244.322 244.334 244.323 233.547 233.544 233.57 244.368
          244.389 244.398 244.406 244.414 244.422 244.429 244.436 244.442 244.448 244.452 244.454 244.455
          244.065 244.08 244.095 244.109 244.123 244.136 244.148 244.16 244.149 233.333 233.33 233.357
          244.196 244.216 244.225 244.233 244.24 244.248 244.255 244.261 244.266 244.271 244.275 244.277
          244.277 243.888 243.903 243.919 243.934 243.948 243.961 243.974 243.986 243.978 233.128 233.129
          233.153 244.026 244.044 244.052 244.059 244.067 244.074 244.08 244.086 244.091 244.096 244.099
          244.101 244.101 243.71 243.727 243.744 243.759 243.774 243.787 243.8 243.813 243.821 243.824
          243.831 243.844 243.86 243.871 243.879 243.886 243.894 243.9 243.907 243.912 243.917 243.921
          243.924 243.926 243.926 243.533 243.552 243.569 243.585 243.6 243.614 243.627 243.64 243.651
          243.662 243.672 243.682 243.69 243.698 243.706 243.714 243.721 243.728 243.734 243.739 243.744
          243.747 243.75 243.752 243.753 243.356 243.378 243.396 243.412 243.427 243.441 243.455 243.467
          243.479 243.49 243.5 243.509 243.518 243.526 243.534 243.541 243.548 243.555 243.561 243.566
          243.571 243.575 243.577 243.579 243.58
        </DataArray>
        <DataArray type="Float32" Name="mob_liq" NumberOfComponents="1" format="ascii">
          3141.32 3141.32 3138.74 3138.75 3141.31 3138.74 3141.31 3138.74 3141.31 3138.74 3141.31 3138.74
          3141.31 3138.74 3141.31 3138.74 3141.31 3138.74 3141.31 3138.73 3141.3 3138.73 3141.3 3138.73
          3141.3 3138.73 3141.3 3138.73 3141.3 3138.73 3141.3 3138.72 3141.29 3138.72 3141.29 3138.72
          3141.29 3138.72 3141.29 3138.72 3141.29 3138.71 3141.28 3138.71 3141.28 3138.7 3141.27 3138.7
          3141.27 3138.69 3136.17 3136.18 3136.17 3136.17 3136.17 3136.17 3136.17 3136.17 3136.32 3136.63
          3136.78 3136.62 3136.31 3136.15 3136.15 3136.15 3136.15 3136.15 3136.15 3136.14 3136.14 3136.14
          3136.13 3136.11 3136.09 3133.6 3133.61 3133.61 3133.6 3133.6 3133.6 3133.6 3133.61 3137.95
          3707.67 3707.91 3702.55 3134.05 3133.59 3133.58 3133.58 3133.58 3133.58 3133.58 3133.57 3133.57
          3133.57 3133.57 3110.41 1850.62 3131.04 3131.05 3131.04 3131.04 3131.04 3131.04 3131.03 3131.05
          3135.73 3708.71 3709.32 3704.01 3131.64 3131.02 3131.02 3131.02 3131.02 3131.01 3131.01 3131.01
          3131.01 3131.01 3131 3098.79 1804.71 3128.48 3128.49 3128.49 3128.48 3128.48 3128.48 3128.47
          3128.49 3133.33 3708.79 3709.41 3704.2 3129.08 3128.46 3128.46 3128.46 3128.46 3128.45 3128.45
          3128.45 3128.45 3128.45 3128.45 3099.94 1798.21 3125.93 3125.93 3125.93 3125.93 3125.92 3125.92
          3125.92 3125.94 3130.91 3708.88 3709.5 3704.35 3126.52 3125.9 3125.9 3125.9 3125.9 3125.9
          3125.9 3125.9 3125.9 3125.9 3125.9 3125.91 2976.23 3123.37 3123.38 3123.38 3123.37 3123.37
          3123.37 3123.36 3123.39 3128.52 3708.96 3709.59 3704.52 3123.97 3123.35 3123.35 3123.35 3123.35
          3123.35 3123.35 3123.34 3123.34 3123.35 3123.35 3123.36 3123.28 3120.83 3120.83 3120.83 3120.82
          3120.82 3120.82 3120.82 3120.84 3126.23 3709.05 3709.68 3704.8 3121.43 3120.8 3120.8 3120.8
          3120.8 3120.8 3120.8 3120.8 3120.8 3120.8 3120.8 3120.8 3120.8 3118.29 3118.29 3118.28
          3118.28 3118.28 3118.27 3118.27 3118.28 3121.75 3709.13 3709.78 3706.96 3118.89 3118.26 3118.26
          3118.26 3118.26 3118.25 3118.25 3118.25 3118.25 3118.25 3118.25 3118.25 3118.25 3115.75 3115.75
          3115.74 3115.74 3115.74 3115.74 3115.73 3115.73 3116.87 3709.21 3709.87 3708.78 3116.35 3115.72
          3115.72 3115.72 3115.72 3115.72 3115.71 3115.71 3115.71 3115.71 3115.71 3115.71 3115.71 3113.21
          3113.21 3113.21 3113.21 3113.2 3113.2 3113.2 3113.2 3114.33 3709.29 3709.96 3708.84 3113.82
          3113.19 3113.18 3113.18 3113.18 3113.18 3113.18 3113.18 3113.18 3113.18 3113.18 3113.18 3113.18
          3110.68 3110.68 3110.68 3110.67 3110.67 3110.67 3110.67 3110.67 3111.82 3709.38 3710.05 3708.93
          3111.29 3110.66 3110.65 3110.65 3110.65 3110.65 3110.65 3110.65 3110.65 3110.65 3110.65 3110.64
          3110.64 3108.16 3108.15 3108.15 3108.15 3108.15 3108.14 3108.14 3108.14 3109.18 3708.95 3709.45
          3708.52 3108.6 3108.13 3108.13 3108.12 3108.12 3108.12 3108.12 3108.12 3108.12 3108.12 3108.12
          3108.12 3108.12 3105.63 3105.63 3105.63 3105.62 3105.62 3105.62 3105.62 3105.62 3105.77 3106.21
          3106.35 3106.16 3105.76 3105.6 3105.6 3105.6 3105.6 3105.6 3105.6 3105.6 3105.6 3105.6
          3105.6 3105.6 3105.6 3103.11 3103.11 3103.11 3103.11 3103.1 3103.1 3103.1 3103.1 3103.09
          3103.09 3103.09 3103.09 3103.09 3103.09 3103.08 3103.08 3103.08 3103.08 3103.08 3103.08 3103.08
          3103.08 3103.08 3103.08 3103.08 3100.6 3100.6 3100.6 3100.6 3100.59 3100.59 3100.59 3100.59
          3100.58 3100.58 3100.58 3100.58 3100.58 3100.58 3100.57 3100.57 3100.57 3100.57 3100.57 3100.57
          3100.57 3100.57 3100.57 3100.57 3100.57
        </DataArray>
        <DataArray type="Float32" Name="mob_gas" NumberOfComponents="1" format="ascii">
          0 0 0 0 0 0 0 0 0 0 0 0
          0 0 0 0 0 0 0 0 0 0 0 0
          0 0 0 0 0 0 0 0 0 0 0 0
          0 0 0 0 0 0 0 0 0 0 0 0
          0 0 0 0 0 0 0 0 0 0 0 0
          0 0 0 0 0 0 0 0 0 0 0 0
          0 0 0 0 0 0 0 0 0 0 0 0
          0 0 0 0 0 0 0 0 0 0 0 0
          0 6.23091e-22 0.000619978 172.151 0 0 0 0 0 0 0 0
          0 0 0 0 0 0 0 0 0 0 0 0
          0 0 1.97901e-20 0.00168031 194.83 0 0 0 0 0 0 0
          0 0 0 0 0 0 0 0 0 0 0 0
          0 0 0 4.65791e-21 0.00116671 197.575 0 0 0 0 0 0
          0 0 0 0 0 0 0 0 0 0 0 0
          0 0 0 0 0 8.58897e-15 0.176179 0 0 0 0 0
          0 0 0 0 0 0 0 0 0 0 0 0
          0 0 0 0 0 0 0 3.0189e-11 0 0 0 0
          0 0 0 0 0 0 0 0 0 0 0 0
          0 0 0 0 0 0 0 0 1.33835e-40 0 0 0
          0 0 0 0 0 0 0 0 0 0 0 0
          0 0 0 0 0 0 0 0 0 0 0 0
          0 0 0 0 0 0 0 0 0 0 0 0
          0 0 0 0 0 0 0 0 0 0 0 0
          0 0 0 0 0 0 0 0 0 0 0 0
          0 0 0 0 0 0 0 0 0 0 0 0
          0 0 0 0 0 0 0 0 0 0 0 0
          0 0 0 0 0 0 0 0 0 0 0 0
          0 0 0 0 0 0 0 0 0 0 0 0
          0 0 0 0 0 0 0 0 0 0 0 0
          0 0 0 0 0 0 0 0 0 0 0 0