<?xml version="1.0"?>
<VTKFile type="UnstructuredGrid" version="0.1" byte_order="LittleEndian">
  <UnstructuredGrid>
    <Piece NumberOfCells="768" NumberOfPoints="425">
      <PointData Scalars="Sn">
        <DataArray type="Float32" Name="Sn" NumberOfComponents="1" format="ascii">
          0 0 0 0 0 0 0 0 0 0 0 0
          0 0 0 0 0 0 0 0 0 0 0 0
          0 0 0 0 0 0 0 0 0 0 0 0
          0 0 0 0 0 0 0 0 0 0 0 0
          0 0 0 0 0 0 0 0 0 0 0 0
          0 0 0 0 0 0 0 0 0 0 0 0
          0 0 0 0 0 0 0 0 0 0 0 0
          0 0 0 0 0 0 0 0 0 0 0 0
          1.70657e-21 8.75839e-08 0.00323459 0.0969508 0 0 0 0 0 0 0 0
          0 0 0 0 0 0 0 0 0 0 0 0
          0 9.56823e-21 1.54221e-07 0.00383613 0.0998268 0 0 0 0 0 0 0
          0 0 0 0 0 0 0 0 0 0 0 0
          0 0 1.47066e-20 1.77619e-07 0.00399954 0.0997179 0 0 0 0 0 0
          0 0 0 0 0 0 0 0 0 0 0 0
          0 0 0 0 4.35528e-18 1.18488e-06 0.00691031 0 0 0 0 0
          0 0 0 0 0 0 0 0 0 0 0 0
          0 0 0 0 0 1.4768e-38 1.85274e-17 1.63419e-06 0 0 0 0
          0 0 0 0 0 0 0 0 0 0 0 0
          0 0 0 0 0 0 0 2.95819e-38 2.04542e-17 0 0 0
          0 0 0 0 0 0 0 0 0 0 0 0
          0 0 0 0 0 0 0 0 0 0 0 0
          0 0 0 0 0 0 0 0 0 0 0 0
          0 0 0 0 0 0 0 0 0 0 0 0
          0 0 0 0 0 0 0 0 0 0 0 0
          0 0 0 0 0 0 0 0 0 0 0 0
          0 0 0 0 0 0 0 0 0 0 0 0
          0 0 0 0 0 0 0 0 0 0 0 0
          0 0 0 0 0 0 0 0 0 0 0 0
          0 0 0 0 0 0 0 0 0 0 0 0
          0 0 0 0 0 0 0 0 0 0 0 0
          0 0 0 0 0 0 0 0 0 0 0 0
          0 0 0 0 0 0 0 0 0 0 0 0
          0 0 0 0 0 0 0 0 0 0 0 0
          0 0 0 0 0 0 0 0 0 0 0 0
          0 0 0 0 0 0 0 0 0 0 0 0
          0 0 0 0 0
        </DataArray>
        <DataArray type="Float32" Name="Sw" NumberOfComponents="1" format="ascii">
          1 1 1 1 1 1 1 1 1 1 1 1
          1 1 1 1 1 1 1 1 1 1 1 1
          1 1 1 1 1 1 1 1 1 1 1 1
          1 1 1 1 1 1 1 1 1 1 1 1
          1 1 1 1 1 1 1 1 1 1 1 1
          1 1 1 1 1 1 1 1 1 1 1 1
          1 1 1 1 1 1 1 1 1 1 1 1
          1 1 1 1 1 1 1 1 1 1 1 1
          1 1 0.996765 0.903049 1 1 1 1 1 1 1 1
          1 1 1 1 1 1 1 1 1 1 1 1
          1 1 1 0.996164 0.900173 1 1 1 1 1 1 1
          1 1 1 1 1 1 1 1 1 1 1 1
          1 1 1 1 0.996 0.900282 1 1 1 1 1 1
          1 1 1 1 1 1 1 1 1 1 1 1
          1 1 1 1 1 0.999999 0.99309 1 1 1 1 1
          1 1 1 1 1 1 1 1 1 1 1 1
          1 1 1 1 1 1 1 0.999998 1 1 1 1
          1 1 1 1 1 1 1 1 1 1 1 1
          1 1 1 1 1 1 1 1 1 1 1 1
          1 1 1 1 1 1 1 1 1 1 1 1
          1 1 1 1 1 1 1 1 1 1 1 1
          1 1 1 1 1 1 1 1 1 1 1 1
          1 1 1 1 1 1 1 1 1 1 1 1
          1 1 1 1 1 1 1 1 1 1 1 1
          1 1 1 1 1 1 1 1 1 1 1 1
          1 1 1 1 1 1 1 1 1 1 1 1
          1 1 1 1 1 1 1 1 1 1 1 1
          1 1 1 1 1 1 1 1 1 1 1 1
          1 1 1 1 1 1 1 1 1 1 1 1
          1 1 1 1 1 1 1 1 1 1 1 1
          1 1 1 1 1 1 1 1 1 1 1 1
          1 1 1 1 1 1 1 1 1 1 1 1
          1 1 1 1 1 1 1 1 1 1 1 1
          1 1 1 1 1 1 1 1 1 1 1 1
          1 1 1 1 1 1 1 1 1 1 1 1
          1 1 1 1 1
        </DataArray>
        <DataArray type="Float32" Name="pn" NumberOfComponents="1" format="ascii">
          2.6597e+07 2.65971e+07 2.65729e+07 2.65725e+07 2.65976e+07 2.65736e+07 2.65983e+07 2.65743e+07 2.65991e+07 2.65751e+07 2.65999e+07 2.6576e+07
          2.66008e+07 2.65769e+07 2.66018e+07 2.65778e+07 2.66027e+07 2.65787e+07 2.66036e+07 2.65797e+07 2.66046e+07 2.65806e+07 2.66056e+07 2.65816e+07
          2.66067e+07 2.65827e+07 2.66077e+07 2.65838e+07 2.66088e+07 2.65849e+07 2.66099e+07 2.6586e+07 2.6611e+07 2.65871e+07 2.66121e+07 2.65881e+07
          2.66132e+07 2.65892e+07 2.66143e+07 2.65903e+07 2.66153e+07 2.65914e+07 2.66163e+07 2.65924e+07 2.66171e+07 2.65933e+07 2.66178e+07 2.6594e+07
          2.6618e+07 2.65944e+07 2.65486e+07 2.6548e+07 2.65494e+07 2.65502e+07 2.65511e+07 2.6552e+07 2.65529e+07 2.65539e+07 2.65548e+07 2.65557e+07
          2.65566e+07 2.65576e+07 2.65587e+07 2.65598e+07 2.65609e+07 2.6562e+07 2.65631e+07 2.65642e+07 2.65653e+07 2.65664e+07 2.65675e+07 2.65686e+07
          2.65697e+07 2.65706e+07 2.65714e+07 2.65243e+07 2.65234e+07 2.65251e+07 2.65261e+07 2.6527e+07 2.65279e+07 2.65289e+07 2.65299e+07 2.65309e+07
          2.65317e+07 2.65326e+07 2.65336e+07 2.65347e+07 2.65359e+07 2.6537e+07 2.65381e+07 2.65392e+07 2.65403e+07 2.65414e+07 2.65425e+07 2.65437e+07
          2.65449e+07 2.65462e+07 2.65478e+07 2.65515e+07 2.64999e+07 2.64989e+07 2.65009e+07 2.65019e+07 2.65029e+07 2.65039e+07 2.65049e+07 2.6506e+07
          2.6507e+07 2.65079e+07 2.65088e+07 2.65097e+07 2.65108e+07 2.65119e+07 2.6513e+07 2.65141e+07 2.65152e+07 2.65163e+07 2.65174e+07 2.65186e+07
          2.65197e+07 2.6521e+07 2.65225e+07 2.65244e+07 2.65287e+07 2.64755e+07 2.64744e+07 2.64766e+07 2.64777e+07 2.64788e+07 2.64798e+07 2.64809e+07
          2.6482e+07 2.64831e+07 2.6484e+07 2.64849e+07 2.64858e+07 2.64869e+07 2.6488e+07 2.64891e+07 2.64902e+07 2.64912e+07 2.64923e+07 2.64934e+07
          2.64946e+07 2.64957e+07 2.6497e+07 2.64984e+07 2.65001e+07 2.6504e+07 2.64511e+07 2.64498e+07 2.64523e+07 2.64535e+07 2.64547e+07 2.64558e+07
          2.64569e+07 2.6458e+07 2.64592e+07 2.64601e+07 2.6461e+07 2.64619e+07 2.6463e+07 2.64641e+07 2.64651e+07 2.64662e+07 2.64673e+07 2.64683e+07
          2.64694e+07 2.64705e+07 2.64716e+07 2.64727e+07 2.64739e+07 2.6475e+07 2.64759e+07 2.64268e+07 2.64253e+07 2.64281e+07 2.64294e+07 2.64306e+07
          2.64318e+07 2.64329e+07 2.64341e+07 2.64352e+07 2.64362e+07 2.64372e+07 2.64381e+07 2.64391e+07 2.64401e+07 2.64412e+07 2.64422e+07 2.64433e+07
          2.64444e+07 2.64454e+07 2.64465e+07 2.64475e+07 2.64485e+07 2.64494e+07 2.64502e+07 2.64505e+07 2.64025e+07 2.64008e+07 2.6404e+07 2.64053e+07
          2.64065e+07 2.64077e+07 2.64089e+07 2.64101e+07 2.64113e+07 2.64124e+07 2.64134e+07 2.64142e+07 2.64152e+07 2.64162e+07 2.64172e+07 2.64183e+07
          2.64193e+07 2.64204e+07 2.64214e+07 2.64224e+07 2.64234e+07 2.64244e+07 2.64252e+07 2.64257e+07 2.64259e+07 2.6378e+07 2.63763e+07 2.63796e+07
          2.6381e+07 2.63823e+07 2.63836e+07 2.63848e+07 2.6386e+07 2.63872e+07 2.63883e+07 2.63893e+07 2.63902e+07 2.63912e+07 2.63922e+07 2.63932e+07
          2.63942e+07 2.63952e+07 2.63962e+07 2.63972e+07 2.63982e+07 2.63991e+07 2.63999e+07 2.64006e+07 2.6401e+07 2.64012e+07 2.63534e+07 2.63518e+07
          2.6355e+07 2.63564e+07 2.63578e+07 2.63592e+07 2.63605e+07 2.63618e+07 2.6363e+07 2.63641e+07 2.63651e+07 2.6366e+07 2.6367e+07 2.6368e+07
          2.6369e+07 2.637e+07 2.6371e+07 2.63719e+07 2.63728e+07 2.63737e+07 2.63744e+07 2.63751e+07 2.63757e+07 2.6376e+07 2.63762e+07 2.63289e+07
          2.63272e+07 2.63305e+07 2.6332e+07 2.63335e+07 2.63349e+07 2.63362e+07 2.63376e+07 2.63389e+07 2.63399e+07 2.63409e+07 2.63419e+07 2.63429e+07
          2.63439e+07 2.63449e+07 2.63458e+07 2.63467e+07 2.63476e+07 2.63485e+07 2.63492e+07 2.63499e+07 2.63505e+07 2.6351e+07 2.63513e+07 2.63514e+07
          2.63044e+07 2.63027e+07 2.6306e+07 2.63076e+07 2.63091e+07 2.63106e+07 2.6312e+07 2.63134e+07 2.63147e+07 2.63158e+07 2.63168e+07 2.63178e+07
          2.63188e+07 2.63198e+07 2.63208e+07 2.63217e+07 2.63226e+07 2.63234e+07 2.63242e+07 2.63249e+07 2.63255e+07 2.6326e+07 2.63264e+07 2.63267e+07
          2.63267e+07 2.62799e+07 2.62782e+07 2.62817e+07 2.62833e+07 2.62849e+07 2.62864e+07 2.62878e+07 2.62892e+07 2.62906e+07 2.62918e+07 2.62928e+07
          2.62938e+07 2.62948e+07 2.62958e+07 2.62967e+07 2.62976e+07 2.62984e+07 2.62992e+07 2.62999e+07 2.63006e+07 2.63012e+07 2.63017e+07 2.6302e+07
          2.63022e+07 2.63023e+07 2.62555e+07 2.62536e+07 2.62574e+07 2.62591e+07 2.62607e+07 2.62622e+07 2.62637e+07 2.62651e+07 2.62664e+07 2.62677e+07
          2.62688e+07 2.62699e+07 2.62708e+07 2.62717e+07 2.62726e+07 2.62735e+07 2.62743e+07 2.62751e+07 2.62758e+07 2.62764e+07 2.6277e+07 2.62774e+07
          2.62777e+07 2.62779e+07 2.6278e+07 2.62312e+07 2.62291e+07 2.62331e+07 2.62349e+07 2.62366e+07 2.62381e+07 2.62396e+07 2.6241e+07 2.62423e+07
          2.62436e+07 2.62447e+07 2.62458e+07 2.62468e+07 2.62477e+07 2.62486e+07 2.62495e+07 2.62503e+07 2.6251e+07 2.62517e+07 2.62523e+07 2.62529e+07
          2.62533e+07 2.62536e+07 2.62538e+07 2.62539e+07 2.6207e+07 2.62046e+07 2.62091e+07 2.62109e+07 2.62126e+07 2.62141e+07 2.62156e+07 2.6217e+07
          2.62183e+07 2.62196e+07 2.62207e+07 2.62218e+07 2.62228e+07 2.62237e+07 2.62246e+07 2.62255e+07 2.62263e+07 2.6227e+07 2.62277e+07 2.62283e+07
          2.62288e+07 2.62293e+07 2.62296e+07 2.62298e+07 2.62298e+07
        </DataArray>
        <DataArray type="Float32" Name="pw" NumberOfComponents="1" format="ascii">
          2.6587e+07 2.65871e+07 2.65629e+07 2.65625e+07 2.65876e+07 2.65636e+07 2.65883e+07 2.65643e+07 2.65891e+07 2.65651e+07 2.65899e+07 2.6566e+07
          2.65908e+07 2.65669e+07 2.65918e+07 2.65678e+07 2.65927e+07 2.65687e+07 2.65936e+07 2.65697e+07 2.65946e+07 2.65706e+07 2.65956e+07 2.65716e+07
          2.65967e+07 2.65727e+07 2.65977e+07 2.65738e+07 2.65988e+07 2.65749e+07 2.65999e+07 2.6576e+07 2.6601e+07 2.65771e+07 2.66021e+07 2.65781e+07
          2.66032e+07 2.65792e+07 2.66043e+07 2.65803e+07 2.66053e+07 2.65814e+07 2.66063e+07 2.65824e+07 2.66071e+07 2.65833e+07 2.66078e+07 2.6584e+07
          2.6608e+07 2.65844e+07 2.65386e+07 2.6538e+07 2.65394e+07 2.65402e+07 2.65411e+07 2.6542e+07 2.65429e+07 2.65439e+07 2.65448e+07 2.65457e+07
          2.65466e+07 2.65476e+07 2.65487e+07 2.65498e+07 2.65509e+07 2.6552e+07 2.65531e+07 2.65542e+07 2.65553e+07 2.65564e+07 2.65575e+07 2.65586e+07
          2.65597e+07 2.65606e+07 2.65614e+07 2.65143e+07 2.65134e+07 2.65151e+07 2.65161e+07 2.6517e+07 2.65179e+07 2.65189e+07 2.65199e+07 2.65209e+07
          2.65217e+07 2.65226e+07 2.65236e+07 2.65247e+07 2.65259e+07 2.6527e+07 2.65281e+07 2.65292e+07 2.65303e+07 2.65314e+07 2.65325e+07 2.65337e+07
          2.65349e+07 2.65362e+07 2.65378e+07 2.65409e+07 2.64899e+07 2.64889e+07 2.64909e+07 2.64919e+07 2.64929e+07 2.64939e+07 2.64949e+07 2.6496e+07
          2.6497e+07 2.64979e+07 2.64988e+07 2.64997e+07 2.65008e+07 2.65019e+07 2.6503e+07 2.65041e+07 2.65052e+07 2.65063e+07 2.65074e+07 2.65086e+07
          2.65097e+07 2.6511e+07 2.65125e+07 2.65144e+07 2.6518e+07 2.64655e+07 2.64644e+07 2.64666e+07 2.64677e+07 2.64688e+07 2.64698e+07 2.64709e+07
          2.6472e+07 2.64731e+07 2.6474e+07 2.64749e+07 2.64758e+07 2.64769e+07 2.6478e+07 2.64791e+07 2.64802e+07 2.64812e+07 2.64823e+07 2.64834e+07
          2.64846e+07 2.64857e+07 2.6487e+07 2.64884e+07 2.64901e+07 2.64933e+07 2.64411e+07 2.64398e+07 2.64423e+07 2.64435e+07 2.64447e+07 2.64458e+07
          2.64469e+07 2.6448e+07 2.64492e+07 2.64501e+07 2.6451e+07 2.64519e+07 2.6453e+07 2.64541e+07 2.64551e+07 2.64562e+07 2.64573e+07 2.64583e+07
          2.64594e+07 2.64605e+07 2.64616e+07 2.64627e+07 2.64639e+07 2.6465e+07 2.64659e+07 2.64168e+07 2.64153e+07 2.64181e+07 2.64194e+07 2.64206e+07
          2.64218e+07 2.64229e+07 2.64241e+07 2.64252e+07 2.64262e+07 2.64272e+07 2.64281e+07 2.64291e+07 2.64301e+07 2.64312e+07 2.64322e+07 2.64333e+07
          2.64344e+07 2.64354e+07 2.64365e+07 2.64375e+07 2.64385e+07 2.64394e+07 2.64402e+07 2.64405e+07 2.63925e+07 2.63908e+07 2.6394e+07 2.63953e+07
          2.63965e+07 2.63977e+07 2.63989e+07 2.64001e+07 2.64013e+07 2.64024e+07 2.64034e+07 2.64042e+07 2.64052e+07 2.64062e+07 2.64072e+07 2.64083e+07
          2.64093e+07 2.64104e+07 2.64114e+07 2.64124e+07 2.64134e+07 2.64144e+07 2.64152e+07 2.64157e+07 2.64159e+07 2.6368e+07 2.63663e+07 2.63696e+07
          2.6371e+07 2.63723e+07 2.63736e+07 2.63748e+07 2.6376e+07 2.63772e+07 2.63783e+07 2.63793e+07 2.63802e+07 2.63812e+07 2.63822e+07 2.63832e+07
          2.63842e+07 2.63852e+07 2.63862e+07 2.63872e+07 2.63882e+07 2.63891e+07 2.63899e+07 2.63906e+07 2.6391e+07 2.63912e+07 2.63434e+07 2.63418e+07
          2.6345e+07 2.63464e+07 2.63478e+07 2.63492e+07 2.63505e+07 2.63518e+07 2.6353e+07 2.63541e+07 2.63551e+07 2.6356e+07 2.6357e+07 2.6358e+07
          2.6359e+07 2.636e+07 2.6361e+07 2.63619e+07 2.63628e+07 2.63637e+07 2.63644e+07 2.63651e+07 2.63657e+07 2.6366e+07 2.63662e+07 2.63189e+07
          2.63172e+07 2.63205e+07 2.6322e+07 2.63235e+07 2.63249e+07 2.63262e+07 2.63276e+07 2.63289e+07 2.63299e+07 2.63309e+07 2.63319e+07 2.63329e+07
          2.63339e+07 2.63349e+07 2.63358e+07 2.63367e+07 2.63376e+07 2.63385e+07 2.63392e+07 2.63399e+07 2.63405e+07 2.6341e+07 2.63413e+07 2.63414e+07
          2.62944e+07 2.62927e+07 2.6296e+07 2.62976e+07 2.62991e+07 2.63006e+07 2.6302e+07 2.63034e+07 2.63047e+07 2.63058e+07 2.63068e+07 2.63078e+07
          2.63088e+07 2.63098e+07 2.63108e+07 2.63117e+07 2.63126e+07 2.63134e+07 2.63142e+07 2.63149e+07 2.63155e+07 2.6316e+07 2.63164e+07 2.63167e+07
          2.63167e+07 2.62699e+07 2.62682e+07 2.62717e+07 2.62733e+07 2.62749e+07 2.62764e+07 2.62778e+07 2.62792e+07 2.62806e+07 2.62818e+07 2.62828e+07
          2.62838e+07 2.62848e+07 2.62858e+07 2.62867e+07 2.62876e+07 2.62884e+07 2.62892e+07 2.62899e+07 2.62906e+07 2.62912e+07 2.62917e+07 2.6292e+07
          2.62922e+07 2.62923e+07 2.62455e+07 2.62436e+07 2.62474e+07 2.62491e+07 2.62507e+07 2.62522e+07 2.62537e+07 2.62551e+07 2.62564e+07 2.62577e+07
          2.62588e+07 2.62599e+07 2.62608e+07 2.62617e+07 2.62626e+07 2.62635e+07 2.62643e+07 2.62651e+07 2.62658e+07 2.62664e+07 2.6267e+07 2.62674e+07
          2.62677e+07 2.62679e+07 2.6268e+07 2.62212e+07 2.62191e+07 2.62231e+07 2.62249e+07 2.62266e+07 2.62281e+07 2.62296e+07 2.6231e+07 2.62323e+07
          2.62336e+07 2.62347e+07 2.62358e+07 2.62368e+07 2.62377e+07 2.62386e+07 2.62395e+07 2.62403e+07 2.6241e+07 2.62417e+07 2.62423e+07 2.62429e+07
          2.62433e+07 2.62436e+07 2.62438e+07 2.62439e+07 2.6197e+07 2.61946e+07 2.61991e+07 2.62009e+07 2.62026e+07 2.62041e+07 2.62056e+07 2.6207e+07
          2.62083e+07 2.62096e+07 2.62107e+07 2.62118e+07 2.62128e+07 2.62137e+07 2.62146e+07 2.62155e+07 2.62163e+07 2.6217e+07 2.62177e+07 2.62183e+07
          2.62188e+07 2.62193e+07 2.62196e+07 2.62198e+07 2.62198e+07
        </DataArray>
        <DataArray type="Float32" Name="pc" NumberOfComponents="1" format="ascii">
          10000 10000 10000 10000 10000 10000 10000 10000 10000 10000 10000 10000
          10000 10000 10000 10000 10000 10000 10000 10000 10000 10000 10000 10000
          10000 10000 10000 10000 10000 10000 10000 10000 10000 10000 10000 10000
          10000 10000 10000 10000 10000 10000 10000 10000 10000 10000 10000 10000
          10000 10000 10000 10000 10000 10000 10000 10000 10000 10000 10000 10000
          10000 10000 10000 10000 10000 10000 10000 10000 10000 10000 10000 10000
          10000 10000 10000 10000 10000 10000 10000 10000 10000 10000 10000 10000
          10000 10000 10000 10000 10000 10000 10000 10000 10000 10000 10000 10000
          10000 10000 10020.3 10667.2 10000 10000 10000 10000 10000 10000 10000 10000
          10000 10000 10000 10000 10000 10000 10000 10000 10000 10000 10000 10000
          10000 10000 10000 10024.1 10689.1 10000 10000 10000 10000 10000 10000 10000
          10000 10000 10000 10000 10000 10000 10000 10000 10000 10000 10000 10000
          10000 10000 10000 10000 10025.1 10688.3 10000 10000 10000 10000 10000 10000
          10000 10000 10000 10000 10000 10000 10000 10000 10000 10000 10000 10000
          10000 10000 10000 10000 10000 10000 10043.5 10000 10000 10000 10000 10000
          10000 10000 10000 10000 10000 10000 10000 10000 10000 10000 10000 10000
          10000 10000 10000 10000 10000 10000 10000 10000 10000 10000 10000 10000
          10000 10000 10000 10000 10000 10000 10000 10000 10000 10000 10000 10000
          10000 10000 10000 10000 10000 10000 10000 10000 10000 10000 10000 10000
          10000 10000 10000 10000 10000 10000 10000 10000 10000 10000 10000 10000
          10000 10000 10000 10000 10000 10000 10000 10000 10000 10000 10000 10000
          10000 10000 10000 10000 10000 10000 10000 10000 10000 10000 10000 10000
          10000 10000 10000 10000 10000 10000 10000 10000 10000 10000 10000 10000
          10000 10000 10000 10000 10000 10000 10000 10000 10000 10000 10000 10000
          10000 10000 10000 10000 10000 10000 10000 10000 10000 10000 10000 10000
          10000 10000 10000 10000 10000 10000 10000 10000 10000 10000 10000 10000
          10000 10000 10000 10000 10000 10000 10000 10000 10000 10000 10000 10000
          10000 10000 10000 10000 10000 10000 10000 10000 10000 10000 10000 10000
          10000 10000 10000 10000 10000 10000 10000 10000 10000 10000 10000 10000
          10000 10000 10000 10000 10000 10000 10000 10000 10000 10000 10000 10000
          10000 10000 10000 10000 10000 10000 10000 10000 10000 10000 10000 10000
          10000 10000 10000 10000 10000 10000 10000 10000 10000 10000 10000 10000
          10000 10000 10000 10000 10000 10000 10000 10000 10000 10000 10000 10000
          10000 10000 10000 10000 10000 10000 10000 10000 10000 10000 10000 10000
          10000 10000 10000 10000 10000 10000 10000 10000 10000 10000 10000 10000
          10000 10000 10000 10000 10000
        </DataArray>
        <DataArray type="Float32" Name="rhoW" NumberOfComponents="1" format="ascii">
          976.461 976.461 976.499 976.499 976.461 976.5 976.462 976.5 976.462 976.5 976.462 976.501
          976.463 976.501 976.463 976.501 976.464 976.502 976.464 976.502 976.464 976.503 976.465 976.503
          976.465 976.503 976.466 976.504 976.466 976.504 976.467 976.505 976.467 976.505 976.468 976.506
          976.468 976.506 976.468 976.507 976.469 976.507 976.469 976.507 976.47 976.508 976.47 976.508
          976.47 976.509 976.538 976.537 976.538 976.538 976.539 976.539 976.539 976.54 976.518 976.507
          976.507 976.531 976.542 976.542 976.543 976.543 976.544 976.544 976.545 976.545 976.545 976.546
          976.547 976.547 976.547 976.576 976.576 976.576 976.577 976.577 976.577 976.578 976.578 976.491
          965.551 965.544 965.663 976.57 976.581 976.581 976.582 976.582 976.582 976.583 976.583 976.584
          976.584 976.585 976.586 976.587 976.614 976.614 976.614 976.615 976.615 976.616 976.616 976.616
          976.525 965.496 965.485 965.592 976.608 976.619 976.62 976.62 976.62 976.621 976.621 976.622
          976.622 976.623 976.623 976.624 976.626 976.652 976.652 976.653 976.653 976.654 976.654 976.655
          976.654 976.56 965.485 965.474 965.579 976.646 976.657 976.658 976.658 976.659 976.659 976.66
          976.66 976.661 976.661 976.662 976.662 976.664 976.69 976.69 976.691 976.692 976.692 976.693
          976.693 976.693 976.595 965.475 965.464 965.567 976.685 976.696 976.696 976.697 976.697 976.698
          976.698 976.699 976.699 976.699 976.7 976.7 976.701 976.729 976.728 976.729 976.73 976.73
          976.731 976.731 976.731 976.629 965.464 965.453 965.553 976.723 976.734 976.735 976.735 976.736
          976.736 976.737 976.737 976.737 976.738 976.738 976.738 976.739 976.767 976.766 976.768 976.768
          976.769 976.769 976.77 976.77 976.683 965.453 965.442 965.517 976.761 976.773 976.773 976.773
          976.774 976.774 976.775 976.775 976.776 976.776 976.776 976.776 976.777 976.805 976.805 976.806
          976.807 976.807 976.808 976.808 976.809 976.788 965.443 965.431 965.452 976.8 976.811 976.812
          976.812 976.812 976.813 976.813 976.814 976.814 976.814 976.815 976.815 976.815 976.844 976.843
          976.844 976.845 976.845 976.846 976.846 976.847 976.826 965.432 965.42 965.442 976.838 976.849
          976.85 976.85 976.851 976.851 976.851 976.852 976.852 976.852 976.853 976.853 976.853 976.882
          976.881 976.882 976.883 976.884 976.884 976.885 976.885 976.864 965.422 965.41 965.432 976.876
          976.888 976.888 976.889 976.889 976.889 976.89 976.89 976.89 976.891 976.891 976.891 976.891
          976.92 976.919 976.921 976.921 976.922 976.922 976.923 976.924 976.902 965.411 965.399 965.421
          976.915 976.926 976.927 976.927 976.927 976.928 976.928 976.928 976.929 976.929 976.929 976.929
          976.93 976.958 976.957 976.959 976.959 976.96 976.961 976.961 976.962 976.943 965.415 965.403
          965.422 976.953 976.965 976.965 976.965 976.966 976.966 976.966 976.967 976.967 976.967 976.967
          976.967 976.968 976.996 976.996 976.997 976.998 976.998 976.999 977 977 977.001 976.985
          976.986 976.987 977.003 977.003 977.003 977.004 977.004 977.004 977.005 977.005 977.005 977.005
          977.005 977.006 977.006 977.035 977.034 977.035 977.036 977.037 977.037 977.038 977.039 977.039
          977.04 977.04 977.041 977.041 977.041 977.042 977.042 977.042 977.043 977.043 977.043 977.044
          977.044 977.044 977.044 977.044 977.073 977.072 977.074 977.075 977.075 977.076 977.077 977.077
          977.078 977.078 977.079 977.079 977.08 977.08 977.081 977.081 977.081 977.082 977.082 977.082
          977.082 977.083 977.083 977.083 977.083
        </DataArray>
        <DataArray type="Float32" Name="rhoN" NumberOfComponents="1" format="ascii">
          246.185 246.186 246.013 246.009 246.191 246.019 246.197 246.026 246.205 246.033 246.213 246.042
          246.221 246.05 246.23 246.058 246.238 246.067 246.247 246.076 246.256 246.084 246.265 246.094
          246.275 246.104 246.285 246.114 246.295 246.124 246.305 246.134 246.315 246.144 246.325 246.154
          246.335 246.164 246.345 246.174 246.355 246.184 246.364 246.193 246.372 246.202 246.378 246.208
          246.38 246.212 245.839 245.833 245.846 245.853 245.862 245.87 245.879 245.887 245.872 245.869
          245.878 245.911 245.932 245.942 245.953 245.963 245.973 245.983 245.993 246.003 246.014 246.024
          246.034 246.042 246.05 245.664 245.656 245.672 245.681 245.689 245.698 245.707 245.716 245.634
          235.29 235.292 235.404 245.75 245.771 245.781 245.792 245.802 245.812 245.822 245.833 245.843
          245.855 245.867 245.882 245.916 245.489 245.48 245.498 245.507 245.517 245.526 245.535 245.544
          245.459 235.04 235.038 235.139 245.579 245.6 245.61 245.62 245.63 245.641 245.651 245.661
          245.672 245.684 245.698 245.716 245.756 245.313 245.303 245.324 245.334 245.344 245.354 245.364
          245.373 245.285 234.828 234.826 234.925 245.408 245.429 245.439 245.449 245.459 245.469 245.479
          245.49 245.5 245.512 245.525 245.541 245.578 245.138 245.126 245.149 245.16 245.171 245.181
          245.192 245.202 245.11 234.616 234.614 234.712 245.237 245.258 245.268 245.278 245.288 245.298
          245.308 245.318 245.328 245.338 245.349 245.359 245.368 244.963 244.95 244.975 244.987 244.998
          245.009 245.02 245.03 244.934 234.404 234.403 234.498 245.066 245.087 245.096 245.106 245.116
          245.126 245.136 245.145 245.155 245.164 245.173 245.179 245.183 244.788 244.773 244.802 244.814
          244.826 244.837 244.848 244.859 244.78 234.193 234.191 234.264 244.894 244.915 244.925 244.934
          244.944 244.954 244.964 244.973 244.982 244.991 244.998 245.004 245.006 244.612 244.596 244.626
          244.639 244.652 244.663 244.675 244.686 244.676 233.98 233.978 234.004 244.722 244.743 244.752
          244.762 244.771 244.78 244.79 244.798 244.807 244.814 244.821 244.825 244.827 244.434 244.419
          244.449 244.463 244.475 244.488 244.5 244.512 244.502 233.765 233.763 233.79 244.549 244.57
          244.579 244.588 244.597 244.605 244.614 244.622 244.629 244.635 244.64 244.644 244.645 244.257
          244.242 244.272 244.286 244.3 244.313 244.325 244.338 244.328 233.551 233.549 233.576 244.376
          244.396 244.405 244.414 244.423 244.431 244.438 244.446 244.452 244.458 244.462 244.464 244.466
          244.08 244.065 244.096 244.11 244.125 244.138 244.151 244.164 244.153 233.337 233.336 233.363
          244.203 244.223 244.232 244.241 244.249 244.256 244.264 244.27 244.276 244.281 244.284 244.287
          244.288 243.904 243.888 243.92 243.935 243.95 243.964 243.977 243.99 243.982 233.137 233.136
          233.16 244.03 244.05 244.059 244.067 244.075 244.082 244.089 244.095 244.101 244.105 244.108
          244.11 244.112 243.728 243.71 243.745 243.761 243.776 243.79 243.803 243.816 243.829 243.824
          243.835 243.845 243.869 243.878 243.886 243.894 243.902 243.909 243.916 243.921 243.926 243.931
          243.934 243.935 243.937 243.552 243.533 243.57 243.587 243.602 243.617 243.63 243.643 243.656
          243.667 243.678 243.688 243.697 243.705 243.714 243.721 243.729 243.736 243.742 243.748 243.753
          243.757 243.76 243.762 243.763 243.378 243.356 243.397 243.414 243.43 243.444 243.458 243.471
          243.483 243.495 243.506 243.515 243.525 243.533 243.542 243.549 243.557 243.564 243.57 243.576
          243.581 243.585 243.588 243.589 243.59
        </DataArray>
        <DataArray type="Float32" Name="mobW" NumberOfComponents="1" format="ascii">
          3141.32 3141.32 3138.75 3138.74 3141.32 3138.74 3141.32 3138.74 3141.32 3138.74 3141.31 3138.74
          3141.31 3138.74 3141.31 3138.74 3141.31 3138.74 3141.3 3138.74 3141.3 3138.73 3141.3 3138.73
          3141.3 3138.73 3141.29 3138.73 3141.29 3138.72 3141.29 3138.72 3141.28 3138.72 3141.28 3138.72
          3141.28 3138.72 3141.28 3138.71 3141.27 3138.71 3141.27 3138.71 3141.27 3138.7 3141.27 3138.7
          3141.27 3138.69 3136.18 3136.17 3136.17 3136.17 3136.17 3136.17 3136.16 3136.17 3137.39 3137.98
          3137.99 3136.74 3136.16 3136.15 3136.15 3136.15 3136.15 3136.15 3136.14 3136.14 3136.14 3136.13
          3136.12 3136.11 3136.11 3133.61 3133.6 3133.61 3133.6 3133.6 3133.6 3133.6 3133.62 3138.31
          3706.34 3706.71 3700.59 3134.16 3133.58 3133.58 3133.58 3133.58 3133.58 3133.57 3133.57 3133.57
          3133.56 3133.55 3083.18 1869.03 3131.05 3131.04 3131.04 3131.04 3131.04 3131.03 3131.03 3131.06
          3135.99 3708.74 3709.31 3703.81 3131.6 3131.02 3131.02 3131.02 3131.01 3131.01 3131.01 3131.01
          3131.01 3131 3131 3071.37 1837.13 3128.49 3128.48 3128.48 3128.48 3128.48 3128.47 3128.47
          3128.5 3133.6 3708.83 3709.41 3704 3129.04 3128.46 3128.46 3128.46 3128.45 3128.45 3128.45
          3128.45 3128.45 3128.45 3128.45 3066.37 1836.77 3125.93 3125.93 3125.93 3125.92 3125.92 3125.92
          3125.92 3125.94 3131.22 3708.91 3709.5 3704.17 3126.49 3125.9 3125.9 3125.9 3125.9 3125.9
          3125.9 3125.89 3125.89 3125.9 3125.9 3125.89 3019.25 3123.38 3123.37 3123.38 3123.37 3123.37
          3123.37 3123.36 3123.39 3128.91 3709 3709.59 3704.41 3123.94 3123.35 3123.35 3123.35 3123.35
          3123.34 3123.34 3123.34 3123.34 3123.34 3123.35 3123.35 3123.28 3120.84 3120.83 3120.83 3120.83
          3120.83 3120.82 3120.82 3120.84 3125.5 3709.08 3709.68 3705.85 3121.4 3120.81 3120.81 3120.81
          3120.8 3120.8 3120.8 3120.8 3120.8 3120.8 3120.8 3120.8 3120.76 3118.28 3118.29 3118.28
          3118.28 3118.28 3118.27 3118.27 3118.27 3119.4 3709.16 3709.79 3708.73 3118.86 3118.26 3118.26
          3118.26 3118.25 3118.25 3118.25 3118.25 3118.25 3118.25 3118.25 3118.25 3118.22 3115.75 3115.75
          3115.74 3115.74 3115.74 3115.73 3115.73 3115.73 3116.85 3709.24 3709.87 3708.77 3116.32 3115.72
          3115.72 3115.72 3115.72 3115.71 3115.71 3115.71 3115.71 3115.71 3115.71 3115.71 3115.68 3113.21
          3113.21 3113.21 3113.2 3113.2 3113.2 3113.2 3113.2 3114.33 3709.33 3709.96 3708.84 3113.78
          3113.19 3113.18 3113.18 3113.18 3113.18 3113.18 3113.18 3113.18 3113.17 3113.17 3113.17 3113.15
          3110.68 3110.68 3110.68 3110.67 3110.67 3110.67 3110.67 3110.67 3111.82 3709.41 3710.05 3708.93
          3111.25 3110.65 3110.65 3110.65 3110.65 3110.65 3110.65 3110.65 3110.64 3110.64 3110.64 3110.64
          3110.62 3108.15 3108.16 3108.15 3108.15 3108.14 3108.14 3108.14 3108.14 3109.18 3708.71 3709.36
          3708.39 3108.73 3108.13 3108.12 3108.12 3108.12 3108.12 3108.12 3108.12 3108.12 3108.12 3108.12
          3108.12 3108.09 3105.63 3105.63 3105.63 3105.62 3105.62 3105.62 3105.62 3105.61 3105.61 3106.48
          3106.45 3106.41 3105.61 3105.6 3105.6 3105.6 3105.6 3105.6 3105.6 3105.6 3105.59 3105.59
          3105.59 3105.59 3105.57 3103.11 3103.11 3103.11 3103.11 3103.1 3103.1 3103.1 3103.1 3103.09
          3103.09 3103.09 3103.09 3103.09 3103.08 3103.08 3103.08 3103.08 3103.08 3103.08 3103.08 3103.08
          3103.08 3103.07 3103.07 3103.05 3100.59 3100.6 3100.59 3100.58 3100.58 3100.58 3100.57 3100.57
          3100.57 3100.56 3100.56 3100.56 3100.55 3100.55 3100.55 3100.55 3100.55 3100.54 3100.54 3100.54
          3100.54 3100.54 3100.54 3100.54 3100.54
        </DataArray>
        <DataArray type="Float32" Name="mobN" NumberOfComponents="1" format="ascii">
          0 0 0 0 0 0 0 0 0 0 0 0
          0 0 0 0 0 0 0 0 0 0 0 0
          0 0 0 0 0 0 0 0 0 0 0 0
          0 0 0 0 0 0 0 0 0 0 0 0
          0 0 0 0 0 0 0 0 0 0 0 0
          0 0 0 0 0 0 0 0 0 0 0 0
          0 0 0 0 0 0 0 0 0 0 0 0
          0 0 0 0 0 0 0 0 0 0 0 0
          0 1.28237e-16 0.0064464 163.398 0 0 0 0 0 0 0 0
          0 0 0 0 0 0 0 0 0 0 0 0
          0 0 7.00229e-16 0.0107508 178.061 0 0 0 0 0 0 0
          0 0 0 0 0 0 0 0 0 0 0 0
          0 0 0 1.06989e-15 0.0121846 177.519 0 0 0 0 0 0
          0 0 0 0 0 0 0 0 0 0 0 0
          0 0 0 0 0 3.17656e-13 0.062741 0 0 0 0 0
          0 0 0 0 0 0 0 0 0 0 0 0
          0 0 0 0 0 0 0 8.33515e-13 0 0 0 0
          0 0 0 0 0 0 0 0 0 0 0 0
          0 0 0 0 0 0 0 0 0 0 0 0
          0 0 0 0 0 0 0 0 0 0 0 0
          0 0 0 0 0 0 0 0 0 0 0 0
          0 0 0 0 0 0 0 0 0 0 0 0
          0 0 0 0 0 0 0 0 0 0 0 0
          0 0 0 0 0 0 0 0 0 0 0 0
          0 0 0 0 0 0 0 0 0 0 0 0
          0 0 0 0 0 0 0 0 0 0 0 0
          0 0 0 0 0 0 0 0 0 0 0 0
          0 0 0 0 0 0 0 0 0 0 0 0
          0 0 0 0 0 0 0 0 0 0 0 0
          0 0 0 0 0 0 0 0 0 0 0 0
          0 0 0 0 0 0 0 0 0 0 0 0
          0 0 0 0 0 0 0 0 0 0 0 0
          0 0 0 0 0 0 0 0 0 0 0 0
          0 0 0 0 0 0 0 0 0 0 0 0
          0 0 0 0 0 0 0 0 0 0 0 0
          0 0 0 0 0
        </DataArray>