<?xml version="1.0"?>
<VTKFile type="UnstructuredGrid" version="0.1" byte_order="LittleEndian">
  <UnstructuredGrid>
    <Piece NumberOfCells="768" NumberOfPoints="425">
      <PointData Scalars="Sn">
        <DataArray type="Float32" Name="Sn" NumberOfComponents="1" format="ascii">
          0 0 0 0 0 0 0 0 0 0 0 0
          0 0 0 0 0 0 0 0 0 0 0 0
          0 0 0 0 0 0 0 0 0 0 0 0
          0 0 0 0 0 0 0 0 0 0 0 0
          0 0 0 0 0 0 0 0 0 0 0 0
          0 0 0 0 0 0 0 0 0 0 0 0
          0 0 0 0 0 0 0 0 0 0 0 0
          0 0 0 0 0 0 0 0 0 0 0 0
          1.70298e-21 8.70834e-08 0.0032241 0.0970517 0 0 0 0 0 0 0 0
          0 0 0 0 0 0 0 0 0 0 0 0
          0 9.70513e-21 1.53918e-07 0.00382379 0.0999482 0 0 0 0 0 0 0
          0 0 0 0 0 0 0 0 0 0 0 0
          0 0 1.62416e-20 1.81662e-07 0.004 0.100133 0 0 0 0 0 0
          0 0 0 0 0 0 0 0 0 0 0 0
          0 0 0 1.87587e-20 1.90672e-07 0.00406218 0.0997722 0 0 0 0 0
          0 0 0 0 0 0 0 0 0 0 0 0
          0 0 0 0 0 4.90311e-18 1.22501e-06 0.00696035 0 0 0 0
          0 0 0 0 0 0 0 0 0 0 0 0
          0 0 0 0 0 0 1.69225e-38 2.00841e-17 1.66365e-06 0 0 0
          0 0 0 0 0 0 0 0 0 0 0 0
          0 0 0 0 0 0 0 0 0 4.04161e-18 0 0
          0 0 0 0 0 0 0 0 0 0 0 0
          0 0 0 0 0 0 0 0 0 0 0 0
          0 0 0 0 0 0 0 0 0 0 0 0
          0 0 0 0 0 0 0 0 0 0 0 0
          0 0 0 0 0 0 0 0 0 0 0 0
          0 0 0 0 0 0 0 0 0 0 0 0
          0 0 0 0 0 0 0 0 0 0 0 0
          0 0 0 0 0 0 0 0 0 0 0 0
          0 0 0 0 0 0 0 0 0 0 0 0
          0 0 0 0 0 0 0 0 0 0 0 0
          0 0 0 0 0 0 0 0 0 0 0 0
          0 0 0 0 0 0 0 0 0 0 0 0
          0 0 0 0 0 0 0 0 0 0 0 0
          0 0 0 0 0 0 0 0 0 0 0 0
          0 0 0 0 0
        </DataArray>
        <DataArray type="Float32" Name="Sw" NumberOfComponents="1" format="ascii">
          1 1 1 1 1 1 1 1 1 1 1 1
          1 1 1 1 1 1 1 1 1 1 1 1
          1 1 1 1 1 1 1 1 1 1 1 1
          1 1 1 1 1 1 1 1 1 1 1 1
          1 1 1 1 1 1 1 1 1 1 1 1
          1 1 1 1 1 1 1 1 1 1 1 1
          1 1 1 1 1 1 1 1 1 1 1 1
          1 1 1 1 1 1 1 1 1 1 1 1
          1 1 0.996776 0.902948 1 1 1 1 1 1 1 1
          1 1 1 1 1 1 1 1 1 1 1 1
          1 1 1 0.996176 0.900052 1 1 1 1 1 1 1
          1 1 1 1 1 1 1 1 1 1 1 1
          1 1 1 1 0.996 0.899867 1 1 1 1 1 1
          1 1 1 1 1 1 1 1 1 1 1 1
          1 1 1 1 1 0.995938 0.900228 1 1 1 1 1
          1 1 1 1 1 1 1 1 1 1 1 1
          1 1 1 1 1 1 0.999999 0.99304 1 1 1 1
          1 1 1 1 1 1 1 1 1 1 1 1
          1 1 1 1 1 1 1 1 0.999998 1 1 1
          1 1 1 1 1 1 1 1 1 1 1 1
          1 1 1 1 1 1 1 1 1 1 1 1
          1 1 1 1 1 1 1 1 1 1 1 1
          1 1 1 1 1 1 1 1 1 1 1 1
          1 1 1 1 1 1 1 1 1 1 1 1
          1 1 1 1 1 1 1 1 1 1 1 1
          1 1 1 1 1 1 1 1 1 1 1 1
          1 1 1 1 1 1 1 1 1 1 1 1
          1 1 1 1 1 1 1 1 1 1 1 1
          1 1 1 1 1 1 1 1 1 1 1 1
          1 1 1 1 1 1 1 1 1 1 1 1
          1 1 1 1 1 1 1 1 1 1 1 1
          1 1 1 1 1 1 1 1 1 1 1 1
          1 1 1 1 1 1 1 1 1 1 1 1
          1 1 1 1 1 1 1 1 1 1 1 1
          1 1 1 1 1 1 1 1 1 1 1 1
          1 1 1 1 1
        </DataArray>
        <DataArray type="Float32" Name="pn" NumberOfComponents="1" format="ascii">
          2.6597e+07 2.65974e+07 2.65733e+07 2.65725e+07 2.65983e+07 2.65742e+07 2.65993e+07 2.65753e+07 2.66004e+07 2.65765e+07 2.66016e+07 2.65777e+07
          2.66028e+07 2.65789e+07 2.6604e+07 2.65801e+07 2.66052e+07 2.65812e+07 2.66063e+07 2.65824e+07 2.66076e+07 2.65836e+07 2.66088e+07 2.65849e+07
          2.66102e+07 2.65862e+07 2.66116e+07 2.65877e+07 2.66131e+07 2.65892e+07 2.66146e+07 2.65906e+07 2.6616e+07 2.65921e+07 2.66175e+07 2.65935e+07
          2.66189e+07 2.65949e+07 2.66202e+07 2.65963e+07 2.66216e+07 2.65977e+07 2.66228e+07 2.65989e+07 2.66238e+07 2.66e+07 2.66246e+07 2.66008e+07
          2.66249e+07 2.66012e+07 2.6549e+07 2.6548e+07 2.65501e+07 2.65512e+07 2.65524e+07 2.65537e+07 2.65549e+07 2.65562e+07 2.65573e+07 2.65584e+07
          2.65596e+07 2.65609e+07 2.65622e+07 2.65637e+07 2.65652e+07 2.65667e+07 2.65682e+07 2.65696e+07 2.6571e+07 2.65725e+07 2.65739e+07 2.65752e+07
          2.65765e+07 2.65775e+07 2.65784e+07 2.65246e+07 2.65234e+07 2.65258e+07 2.65271e+07 2.65284e+07 2.65297e+07 2.6531e+07 2.65323e+07 2.65335e+07
          2.65346e+07 2.65358e+07 2.65371e+07 2.65383e+07 2.65398e+07 2.65413e+07 2.65428e+07 2.65442e+07 2.65457e+07 2.65472e+07 2.65486e+07 2.65501e+07
          2.65516e+07 2.65532e+07 2.6555e+07 2.65588e+07 2.65002e+07 2.64989e+07 2.65016e+07 2.65029e+07 2.65043e+07 2.65057e+07 2.6507e+07 2.65084e+07
          2.65096e+07 2.65108e+07 2.6512e+07 2.65132e+07 2.65145e+07 2.65159e+07 2.65174e+07 2.65189e+07 2.65203e+07 2.65218e+07 2.65233e+07 2.65248e+07
          2.65263e+07 2.65279e+07 2.65297e+07 2.6532e+07 2.65365e+07 2.64758e+07 2.64744e+07 2.64773e+07 2.64788e+07 2.64802e+07 2.64816e+07 2.64831e+07
          2.64845e+07 2.64857e+07 2.6487e+07 2.64882e+07 2.64894e+07 2.64906e+07 2.64921e+07 2.64935e+07 2.6495e+07 2.64964e+07 2.64979e+07 2.64993e+07
          2.65008e+07 2.65024e+07 2.65041e+07 2.65059e+07 2.65082e+07 2.65128e+07 2.64515e+07 2.64498e+07 2.64531e+07 2.64546e+07 2.64561e+07 2.64576e+07
          2.64591e+07 2.64606e+07 2.64619e+07 2.64631e+07 2.64644e+07 2.64656e+07 2.64668e+07 2.64682e+07 2.64696e+07 2.6471e+07 2.64725e+07 2.64739e+07
          2.64754e+07 2.64769e+07 2.64784e+07 2.648e+07 2.64817e+07 2.64838e+07 2.64878e+07 2.64271e+07 2.64253e+07 2.64288e+07 2.64305e+07 2.6432e+07
          2.64336e+07 2.64352e+07 2.64367e+07 2.6438e+07 2.64393e+07 2.64405e+07 2.64418e+07 2.64429e+07 2.64443e+07 2.64457e+07 2.64471e+07 2.64485e+07
          2.645e+07 2.64514e+07 2.64529e+07 2.64544e+07 2.64558e+07 2.64573e+07 2.64586e+07 2.64596e+07 2.64029e+07 2.64008e+07 2.64047e+07 2.64064e+07
          2.6408e+07 2.64096e+07 2.64112e+07 2.64128e+07 2.64142e+07 2.64155e+07 2.64168e+07 2.6418e+07 2.64191e+07 2.64204e+07 2.64218e+07 2.64232e+07
          2.64246e+07 2.6426e+07 2.64274e+07 2.64289e+07 2.64303e+07 2.64317e+07 2.6433e+07 2.6434e+07 2.64344e+07 2.63784e+07 2.63763e+07 2.63803e+07
          2.63821e+07 2.63838e+07 2.63854e+07 2.63871e+07 2.63887e+07 2.63901e+07 2.63915e+07 2.63928e+07 2.6394e+07 2.63951e+07 2.63964e+07 2.63977e+07
          2.63991e+07 2.64004e+07 2.64018e+07 2.64032e+07 2.64045e+07 2.64058e+07 2.6407e+07 2.64081e+07 2.64089e+07 2.64092e+07 2.63538e+07 2.63518e+07
          2.63557e+07 2.63576e+07 2.63594e+07 2.63611e+07 2.63628e+07 2.63645e+07 2.63659e+07 2.63672e+07 2.63685e+07 2.63698e+07 2.63709e+07 2.63723e+07
          2.63736e+07 2.63749e+07 2.63762e+07 2.63774e+07 2.63787e+07 2.63799e+07 2.6381e+07 2.6382e+07 2.63828e+07 2.63834e+07 2.63836e+07 2.63293e+07
          2.63272e+07 2.63312e+07 2.63332e+07 2.6335e+07 2.63368e+07 2.63386e+07 2.63403e+07 2.63417e+07 2.63431e+07 2.63444e+07 2.63456e+07 2.63468e+07
          2.63481e+07 2.63494e+07 2.63507e+07 2.63519e+07 2.63531e+07 2.63543e+07 2.63553e+07 2.63563e+07 2.63572e+07 2.63578e+07 2.63583e+07 2.63584e+07
          2.63048e+07 2.63027e+07 2.63068e+07 2.63088e+07 2.63107e+07 2.63126e+07 2.63144e+07 2.63161e+07 2.63176e+07 2.6319e+07 2.63203e+07 2.63216e+07
          2.63227e+07 2.63241e+07 2.63253e+07 2.63265e+07 2.63277e+07 2.63288e+07 2.63299e+07 2.63309e+07 2.63318e+07 2.63325e+07 2.63331e+07 2.63334e+07
          2.63335e+07 2.62803e+07 2.62782e+07 2.62824e+07 2.62845e+07 2.62865e+07 2.62884e+07 2.62902e+07 2.6292e+07 2.62935e+07 2.62949e+07 2.62963e+07
          2.62976e+07 2.62987e+07 2.63e+07 2.63012e+07 2.63024e+07 2.63035e+07 2.63046e+07 2.63056e+07 2.63065e+07 2.63073e+07 2.6308e+07 2.63085e+07
          2.63088e+07 2.63089e+07 2.62559e+07 2.62536e+07 2.62581e+07 2.62602e+07 2.62623e+07 2.62642e+07 2.62661e+07 2.62679e+07 2.62695e+07 2.6271e+07
          2.62724e+07 2.62737e+07 2.62748e+07 2.6276e+07 2.62772e+07 2.62784e+07 2.62794e+07 2.62805e+07 2.62814e+07 2.62823e+07 2.6283e+07 2.62836e+07
          2.62841e+07 2.62844e+07 2.62845e+07 2.62316e+07 2.62291e+07 2.62339e+07 2.62361e+07 2.62382e+07 2.62401e+07 2.6242e+07 2.62438e+07 2.62455e+07
          2.62471e+07 2.62485e+07 2.62498e+07 2.6251e+07 2.62521e+07 2.62532e+07 2.62543e+07 2.62554e+07 2.62564e+07 2.62573e+07 2.62582e+07 2.62589e+07
          2.62595e+07 2.62599e+07 2.62602e+07 2.62602e+07 2.62074e+07 2.62046e+07 2.62099e+07 2.62121e+07 2.62141e+07 2.62161e+07 2.6218e+07 2.62198e+07
          2.62215e+07 2.6223e+07 2.62245e+07 2.62258e+07 2.6227e+07 2.62281e+07 2.62293e+07 2.62303e+07 2.62314e+07 2.62324e+07 2.62333e+07 2.62341e+07
          2.62348e+07 2.62354e+07 2.62358e+07 2.62361e+07 2.62362e+07
        </DataArray>
        <DataArray type="Float32" Name="pw" NumberOfComponents="1" format="ascii">
          2.6587e+07 2.65874e+07 2.65633e+07 2.65625e+07 2.65883e+07 2.65642e+07 2.65893e+07 2.65653e+07 2.65904e+07 2.65665e+07 2.65916e+07 2.65677e+07
          2.65928e+07 2.65689e+07 2.6594e+07 2.65701e+07 2.65952e+07 2.65712e+07 2.65963e+07 2.65724e+07 2.65976e+07 2.65736e+07 2.65988e+07 2.65749e+07
          2.66002e+07 2.65762e+07 2.66016e+07 2.65777e+07 2.66031e+07 2.65792e+07 2.66046e+07 2.65806e+07 2.6606e+07 2.65821e+07 2.66075e+07 2.65835e+07
          2.66089e+07 2.65849e+07 2.66102e+07 2.65863e+07 2.66116e+07 2.65877e+07 2.66128e+07 2.65889e+07 2.66138e+07 2.659e+07 2.66146e+07 2.65908e+07
          2.66149e+07 2.65912e+07 2.6539e+07 2.6538e+07 2.65401e+07 2.65412e+07 2.65424e+07 2.65437e+07 2.65449e+07 2.65462e+07 2.65473e+07 2.65484e+07
          2.65496e+07 2.65509e+07 2.65522e+07 2.65537e+07 2.65552e+07 2.65567e+07 2.65582e+07 2.65596e+07 2.6561e+07 2.65625e+07 2.65639e+07 2.65652e+07
          2.65665e+07 2.65675e+07 2.65684e+07 2.65146e+07 2.65134e+07 2.65158e+07 2.65171e+07 2.65184e+07 2.65197e+07 2.6521e+07 2.65223e+07 2.65235e+07
          2.65246e+07 2.65258e+07 2.65271e+07 2.65283e+07 2.65298e+07 2.65313e+07 2.65328e+07 2.65342e+07 2.65357e+07 2.65372e+07 2.65386e+07 2.65401e+07
          2.65416e+07 2.65432e+07 2.6545e+07 2.65481e+07 2.64902e+07 2.64889e+07 2.64916e+07 2.64929e+07 2.64943e+07 2.64957e+07 2.6497e+07 2.64984e+07
          2.64996e+07 2.65008e+07 2.6502e+07 2.65032e+07 2.65045e+07 2.65059e+07 2.65074e+07 2.65089e+07 2.65103e+07 2.65118e+07 2.65133e+07 2.65148e+07
          2.65163e+07 2.65179e+07 2.65197e+07 2.65219e+07 2.65258e+07 2.64658e+07 2.64644e+07 2.64673e+07 2.64688e+07 2.64702e+07 2.64716e+07 2.64731e+07
          2.64745e+07 2.64757e+07 2.6477e+07 2.64782e+07 2.64794e+07 2.64806e+07 2.64821e+07 2.64835e+07 2.6485e+07 2.64864e+07 2.64879e+07 2.64893e+07
          2.64908e+07 2.64924e+07 2.64941e+07 2.64959e+07 2.64982e+07 2.65021e+07 2.64415e+07 2.64398e+07 2.64431e+07 2.64446e+07 2.64461e+07 2.64476e+07
          2.64491e+07 2.64506e+07 2.64519e+07 2.64531e+07 2.64544e+07 2.64556e+07 2.64568e+07 2.64582e+07 2.64596e+07 2.6461e+07 2.64625e+07 2.64639e+07
          2.64654e+07 2.64669e+07 2.64684e+07 2.647e+07 2.64717e+07 2.64738e+07 2.64771e+07 2.64171e+07 2.64153e+07 2.64188e+07 2.64205e+07 2.6422e+07
          2.64236e+07 2.64252e+07 2.64267e+07 2.6428e+07 2.64293e+07 2.64305e+07 2.64318e+07 2.64329e+07 2.64343e+07 2.64357e+07 2.64371e+07 2.64385e+07
          2.644e+07 2.64414e+07 2.64429e+07 2.64444e+07 2.64458e+07 2.64473e+07 2.64486e+07 2.64496e+07 2.63929e+07 2.63908e+07 2.63947e+07 2.63964e+07
          2.6398e+07 2.63996e+07 2.64012e+07 2.64028e+07 2.64042e+07 2.64055e+07 2.64068e+07 2.6408e+07 2.64091e+07 2.64104e+07 2.64118e+07 2.64132e+07
          2.64146e+07 2.6416e+07 2.64174e+07 2.64189e+07 2.64203e+07 2.64217e+07 2.6423e+07 2.6424e+07 2.64244e+07 2.63684e+07 2.63663e+07 2.63703e+07
          2.63721e+07 2.63738e+07 2.63754e+07 2.63771e+07 2.63787e+07 2.63801e+07 2.63815e+07 2.63828e+07 2.6384e+07 2.63851e+07 2.63864e+07 2.63877e+07
          2.63891e+07 2.63904e+07 2.63918e+07 2.63932e+07 2.63945e+07 2.63958e+07 2.6397e+07 2.63981e+07 2.63989e+07 2.63992e+07 2.63438e+07 2.63418e+07
          2.63457e+07 2.63476e+07 2.63494e+07 2.63511e+07 2.63528e+07 2.63545e+07 2.63559e+07 2.63572e+07 2.63585e+07 2.63598e+07 2.63609e+07 2.63623e+07
          2.63636e+07 2.63649e+07 2.63662e+07 2.63674e+07 2.63687e+07 2.63699e+07 2.6371e+07 2.6372e+07 2.63728e+07 2.63734e+07 2.63736e+07 2.63193e+07
          2.63172e+07 2.63212e+07 2.63232e+07 2.6325e+07 2.63268e+07 2.63286e+07 2.63303e+07 2.63317e+07 2.63331e+07 2.63344e+07 2.63356e+07 2.63368e+07
          2.63381e+07 2.63394e+07 2.63407e+07 2.63419e+07 2.63431e+07 2.63443e+07 2.63453e+07 2.63463e+07 2.63472e+07 2.63478e+07 2.63483e+07 2.63484e+07
          2.62948e+07 2.62927e+07 2.62968e+07 2.62988e+07 2.63007e+07 2.63026e+07 2.63044e+07 2.63061e+07 2.63076e+07 2.6309e+07 2.63103e+07 2.63116e+07
          2.63127e+07 2.63141e+07 2.63153e+07 2.63165e+07 2.63177e+07 2.63188e+07 2.63199e+07 2.63209e+07 2.63218e+07 2.63225e+07 2.63231e+07 2.63234e+07
          2.63235e+07 2.62703e+07 2.62682e+07 2.62724e+07 2.62745e+07 2.62765e+07 2.62784e+07 2.62802e+07 2.6282e+07 2.62835e+07 2.62849e+07 2.62863e+07
          2.62876e+07 2.62887e+07 2.629e+07 2.62912e+07 2.62924e+07 2.62935e+07 2.62946e+07 2.62956e+07 2.62965e+07 2.62973e+07 2.6298e+07 2.62985e+07
          2.62988e+07 2.62989e+07 2.62459e+07 2.62436e+07 2.62481e+07 2.62502e+07 2.62523e+07 2.62542e+07 2.62561e+07 2.62579e+07 2.62595e+07 2.6261e+07
          2.62624e+07 2.62637e+07 2.62648e+07 2.6266e+07 2.62672e+07 2.62684e+07 2.62694e+07 2.62705e+07 2.62714e+07 2.62723e+07 2.6273e+07 2.62736e+07
          2.62741e+07 2.62744e+07 2.62745e+07 2.62216e+07 2.62191e+07 2.62239e+07 2.62261e+07 2.62282e+07 2.62301e+07 2.6232e+07 2.62338e+07 2.62355e+07
          2.62371e+07 2.62385e+07 2.62398e+07 2.6241e+07 2.62421e+07 2.62432e+07 2.62443e+07 2.62454e+07 2.62464e+07 2.62473e+07 2.62482e+07 2.62489e+07
          2.62495e+07 2.62499e+07 2.62502e+07 2.62502e+07 2.61974e+07 2.61946e+07 2.61999e+07 2.62021e+07 2.62041e+07 2.62061e+07 2.6208e+07 2.62098e+07
          2.62115e+07 2.6213e+07 2.62145e+07 2.62158e+07 2.6217e+07 2.62181e+07 2.62193e+07 2.62203e+07 2.62214e+07 2.62224e+07 2.62233e+07 2.62241e+07
          2.62248e+07 2.62254e+07 2.62258e+07 2.62261e+07 2.62262e+07
        </DataArray>
        <DataArray type="Float32" Name="pc" NumberOfComponents="1" format="ascii">
          10000 10000 10000 10000 10000 10000 10000 10000 10000 10000 10000 10000
          10000 10000 10000 10000 10000 10000 10000 10000 10000 10000 10000 10000
          10000 10000 10000 10000 10000 10000 10000 10000 10000 10000 10000 10000
          10000 10000 10000 10000 10000 10000 10000 10000 10000 10000 10000 10000
          10000 10000 10000 10000 10000 10000 10000 10000 10000 10000 10000 10000
          10000 10000 10000 10000 10000 10000 10000 10000 10000 10000 10000 10000
          10000 10000 10000 10000 10000 10000 10000 10000 10000 10000 10000 10000
          10000 10000 10000 10000 10000 10000 10000 10000 10000 10000 10000 10000
          10000 10000 10020.2 10668 10000 10000 10000 10000 10000 10000 10000 10000
          10000 10000 10000 10000 10000 10000 10000 10000 10000 10000 10000 10000
          10000 10000 10000 10024 10690.1 10000 10000 10000 10000 10000 10000 10000
          10000 10000 10000 10000 10000 10000 10000 10000 10000 10000 10000 10000
          10000 10000 10000 10000 10025.1 10691.5 10000 10000 10000 10000 10000 10000
          10000 10000 10000 10000 10000 10000 10000 10000 10000 10000 10000 10000
          10000 10000 10000 10000 10000 10025.5 10688.7 10000 10000 10000 10000 10000
          10000 10000 10000 10000 10000 10000 10000 10000 10000 10000 10000 10000
          10000 10000 10000 10000 10000 10000 10000 10043.8 10000 10000 10000 10000
          10000 10000 10000 10000 10000 10000 10000 10000 10000 10000 10000 10000
          10000 10000 10000 10000 10000 10000 10000 10000 10000 10000 10000 10000
          10000 10000 10000 10000 10000 10000 10000 10000 10000 10000 10000 10000
          10000 10000 10000 10000 10000 10000 10000 10000 10000 10000 10000 10000
          10000 10000 10000 10000 10000 10000 10000 10000 10000 10000 10000 10000
          10000 10000 10000 10000 10000 10000 10000 10000 10000 10000 10000 10000
          10000 10000 10000 10000 10000 10000 10000 10000 10000 10000 10000 10000
          10000 10000 10000 10000 10000 10000 10000 10000 10000 10000 10000 10000
          10000 10000 10000 10000 10000 10000 10000 10000 10000 10000 10000 10000
          10000 10000 10000 10000 10000 10000 10000 10000 10000 10000 10000 10000
          10000 10000 10000 10000 10000 10000 10000 10000 10000 10000 10000 10000
          10000 10000 10000 10000 10000 10000 10000 10000 10000 10000 10000 10000
          10000 10000 10000 10000 10000 10000 10000 10000 10000 10000 10000 10000
          10000 10000 10000 10000 10000 10000 10000 10000 10000 10000 10000 10000
          10000 10000 10000 10000 10000 10000 10000 10000 10000 10000 10000 10000
          10000 10000 10000 10000 10000 10000 10000 10000 10000 10000 10000 10000
          10000 10000 10000 10000 10000 10000 10000 10000 10000 10000 10000 10000
          10000 10000 10000 10000 10000 10000 10000 10000 10000 10000 10000 10000
          10000 10000 10000 10000 10000
        </DataArray>
        <DataArray type="Float32" Name="rhoW" NumberOfComponents="1" format="ascii">
          976.461 976.461 976.5 976.499 976.462 976.5 976.462 976.5 976.463 976.501 976.463 976.501
          976.464 976.502 976.464 976.471 976.465 976.46 976.465 976.46 976.466 976.459 976.466 976.46
          976.467 976.494 976.467 976.505 976.468 976.506 976.469 976.507 976.469 976.507 976.47 976.508
          976.47 976.508 976.471 976.509 976.472 976.51 976.472 976.51 976.473 976.511 976.473 976.511
          976.473 976.512 976.538 976.537 976.538 976.539 976.539 976.54 976.54 976.431 965.569 965.56
          965.562 965.567 965.719 976.533 976.544 976.545 976.546 976.546 976.547 976.547 976.548 976.549
          976.549 976.55 976.55 976.576 976.576 976.576 976.577 976.578 976.578 976.578 976.464 965.508
          965.496 965.496 965.498 965.637 976.571 976.583 976.583 976.584 976.585 976.585 976.586 976.587
          976.587 976.588 976.589 976.59 976.614 976.614 976.615 976.615 976.616 976.617 976.616 976.498
          965.497 965.485 965.486 965.487 965.624 976.609 976.621 976.622 976.623 976.623 976.624 976.624
          976.625 976.626 976.627 976.628 976.63 976.652 976.652 976.653 976.654 976.654 976.655 976.655
          976.532 965.487 965.475 965.475 965.477 965.612 976.648 976.66 976.66 976.661 976.662 976.662
          976.663 976.663 976.664 976.665 976.666 976.668 976.691 976.69 976.691 976.692 976.693 976.693
          976.693 976.566 965.476 965.464 965.464 965.466 965.6 976.686 976.698 976.699 976.699 976.7
          976.701 976.701 976.702 976.702 976.703 976.704 976.706 976.729 976.728 976.73 976.73 976.731
          976.732 976.731 976.598 965.465 965.453 965.454 965.455 965.585 976.725 976.737 976.737 976.738
          976.738 976.739 976.74 976.74 976.741 976.741 976.741 976.743 976.767 976.766 976.768 976.769
          976.769 976.77 976.77 976.66 965.455 965.443 965.443 965.444 965.54 976.763 976.775 976.775
          976.776 976.777 976.777 976.778 976.778 976.779 976.779 976.78 976.781 976.805 976.805 976.806
          976.807 976.808 976.808 976.809 976.785 965.444 965.432 965.433 965.433 965.458 976.801 976.813
          976.814 976.815 976.815 976.816 976.816 976.817 976.817 976.818 976.818 976.819 976.844 976.843
          976.844 976.845 976.846 976.847 976.847 976.823 965.434 965.421 965.422 965.422 965.448 976.839
          976.852 976.852 976.853 976.853 976.854 976.854 976.855 976.855 976.856 976.856 976.856 976.882
          976.881 976.883 976.883 976.884 976.885 976.886 976.861 965.423 965.411 965.411 965.412 965.437
          976.878 976.89 976.891 976.891 976.892 976.892 976.893 976.893 976.893 976.894 976.894 976.894
          976.92 976.919 976.921 976.922 976.922 976.923 976.924 976.899 965.412 965.4 965.4 965.401
          965.426 976.916 976.928 976.929 976.929 976.93 976.93 976.931 976.931 976.931 976.932 976.932
          976.932 976.958 976.957 976.959 976.96 976.961 976.962 976.962 976.937 965.402 965.389 965.39
          965.39 965.415 976.954 976.967 976.967 976.968 976.968 976.969 976.969 976.969 976.97 976.97
          976.97 976.971 976.997 976.996 976.997 976.998 976.999 977 977.001 976.979 965.408 965.396
          965.396 965.396 965.417 976.993 977.005 977.006 977.006 977.007 977.007 977.007 977.008 977.008
          977.008 977.008 977.009 977.035 977.034 977.036 977.037 977.037 977.038 977.039 977.04 977.023
          977.024 977.025 977.026 977.027 977.043 977.044 977.044 977.045 977.045 977.045 977.046 977.046
          977.046 977.046 977.047 977.047 977.073 977.072 977.074 977.075 977.076 977.077 977.078 977.078
          977.079 977.08 977.081 977.081 977.082 977.082 977.083 977.083 977.083 977.084 977.084 977.085
          977.085 977.085 977.085 977.085 977.086
        </DataArray>
        <DataArray type="Float32" Name="rhoN" NumberOfComponents="1" format="ascii">
          246.185 246.189 246.017 246.009 246.197 246.025 246.207 246.035 246.217 246.046 246.228 246.057
          246.239 246.068 246.25 246.047 246.261 246.046 246.272 246.055 246.283 246.066 246.295 246.077
          246.308 246.124 246.321 246.15 246.335 246.163 246.348 246.177 246.361 246.19 246.375 246.204
          246.388 246.217 246.401 246.23 246.413 246.242 246.424 246.254 246.434 246.264 246.44 246.271
          246.443 246.275 245.842 245.833 245.852 245.863 245.874 245.886 245.897 245.795 235.522 235.524
          235.537 235.551 235.695 245.967 245.992 246.006 246.019 246.033 246.046 246.059 246.072 246.085
          246.097 246.106 246.114 245.667 245.656 245.679 245.69 245.702 245.714 245.725 245.618 235.267
          235.267 235.277 235.289 235.421 245.796 245.822 245.835 245.849 245.862 245.876 245.889 245.903
          245.917 245.932 245.949 245.984 245.492 245.48 245.504 245.517 245.53 245.542 245.554 245.443
          235.056 235.055 235.066 235.078 235.208 245.626 245.651 245.664 245.678 245.691 245.705 245.719
          245.733 245.748 245.765 245.786 245.828 245.317 245.303 245.33 245.344 245.357 245.37 245.383
          245.268 234.844 234.844 234.855 234.866 234.995 245.455 245.48 245.493 245.507 245.52 245.534
          245.548 245.562 245.578 245.595 245.616 245.659 245.141 245.126 245.156 245.17 245.184 245.198
          245.211 245.092 234.632 234.632 234.643 234.655 234.781 245.284 245.309 245.322 245.336 245.349
          245.363 245.376 245.391 245.405 245.421 245.44 245.478 244.966 244.95 244.982 244.997 245.012
          245.026 245.04 244.915 234.421 234.421 234.432 234.444 234.567 245.113 245.138 245.151 245.164
          245.178 245.191 245.205 245.218 245.232 245.245 245.257 245.268 244.792 244.773 244.809 244.824
          244.839 244.854 244.868 244.768 234.21 234.21 234.221 234.233 234.326 244.942 244.967 244.98
          244.993 245.006 245.019 245.032 245.046 245.058 245.07 245.079 245.084 244.616 244.596 244.633
          244.65 244.665 244.681 244.696 244.685 233.996 233.997 234.009 234.019 234.05 244.77 244.794
          244.807 244.82 244.832 244.845 244.857 244.869 244.881 244.89 244.898 244.902 244.438 244.419
          244.456 244.473 244.49 244.506 244.521 244.511 233.782 233.782 233.794 233.805 233.836 244.597
          244.621 244.633 244.645 244.657 244.668 244.679 244.69 244.699 244.707 244.712 244.715 244.261
          244.242 244.279 244.297 244.314 244.331 244.347 244.337 233.567 233.568 233.58 233.591 233.623
          244.423 244.448 244.459 244.471 244.482 244.492 244.502 244.511 244.519 244.525 244.529 244.531
          244.084 244.065 244.103 244.121 244.139 244.156 244.173 244.163 233.353 233.354 233.366 233.377
          233.409 244.25 244.274 244.286 244.296 244.307 244.317 244.326 244.334 244.341 244.346 244.349
          244.351 243.908 243.888 243.927 243.946 243.964 243.982 243.999 243.989 233.14 233.141 233.153
          233.164 233.196 244.078 244.101 244.112 244.123 244.133 244.142 244.15 244.158 244.164 244.168
          244.171 244.173 243.732 243.71 243.752 243.771 243.79 243.808 243.826 243.819 232.942 232.944
          232.956 232.967 232.995 243.906 243.929 243.939 243.949 243.959 243.968 243.976 243.983 243.988
          243.993 243.995 243.997 243.556 243.533 243.578 243.598 243.617 243.635 243.652 243.669 243.666
          243.682 243.695 243.708 243.719 243.746 243.756 243.767 243.776 243.786 243.794 243.802 243.809
          243.814 243.818 243.821 243.822 243.382 243.356 243.404 243.425 243.444 243.463 243.48 243.497
          243.513 243.527 243.54 243.552 243.564 243.574 243.585 243.595 243.605 243.614 243.622 243.63
          243.636 243.642 243.646 243.648 243.649
        </DataArray>
        <DataArray type="Float32" Name="mobW" NumberOfComponents="1" format="ascii">
          3141.32 3141.32 3138.75 3138.74 3141.32 3138.74 3141.31 3138.74 3141.31 3138.74 3141.31 3138.74
          3141.31 3138.75 3141.3 3140.41 3141.3 3141.04 3141.3 3141.09 3141.29 3141.14 3141.29 3141.14
          3141.29 3139.33 3141.28 3138.72 3141.28 3138.72 3141.27 3138.71 3141.27 3138.71 3141.27 3138.71
          3141.26 3138.71 3141.26 3138.7 3141.26 3138.7 3141.25 3138.7 3141.25 3138.69 3141.25 3138.68
          3141.25 3138.67 3136.18 3136.17 3136.17 3136.17 3136.17 3136.16 3136.2 3142.11 3705.93 3706.42
          3706.3 3706.1 3698.28 3136.75 3136.14 3136.14 3136.14 3136.14 3136.13 3136.13 3136.12 3136.12
          3136.11 3136.1 3136.09 3133.61 3133.6 3133.61 3133.6 3133.6 3133.59 3133.63 3139.84 3708.62
          3709.25 3709.25 3709.19 3702.03 3134.19 3133.57 3133.57 3133.57 3133.57 3133.56 3133.56 3133.56
          3133.55 3133.54 3083.32 1867.95 3131.05 3131.04 3131.04 3131.04 3131.03 3131.03 3131.07 3137.51
          3708.71 3709.35 3709.35 3709.29 3702.23 3131.62 3131.01 3131.01 3131 3131 3131 3131
          3130.99 3130.99 3130.98 3071.54 1835.85 3128.49 3128.48 3128.48 3128.48 3128.47 3128.47 3128.52
          3135.17 3708.79 3709.43 3709.43 3709.38 3702.4 3129.06 3128.45 3128.45 3128.44 3128.44 3128.44
          3128.44 3128.43 3128.43 3128.43 3066.33 1832.41 3125.93 3125.93 3125.93 3125.92 3125.92 3125.91
          3125.96 3132.85 3708.88 3709.52 3709.52 3709.47 3702.59 3126.51 3125.89 3125.89 3125.89 3125.89
          3125.88 3125.88 3125.88 3125.88 3125.88 3062.89 1834.69 3123.38 3123.37 3123.37 3123.37 3123.37
          3123.36 3123.41 3130.6 3708.96 3709.61 3709.6 3709.56 3702.86 3123.96 3123.34 3123.34 3123.34
          3123.33 3123.33 3123.33 3123.33 3123.33 3123.33 3123.33 3016 3120.84 3120.83 3120.83 3120.83
          3120.83 3120.82 3120.85 3126.77 3709.04 3709.69 3709.69 3709.66 3704.73 3121.42 3120.8 3120.8
          3120.8 3120.79 3120.79 3120.79 3120.79 3120.79 3120.79 3120.79 3120.71 3118.28 3118.29 3118.28
          3118.28 3118.27 3118.27 3118.27 3119.6 3709.12 3709.78 3709.78 3709.77 3708.53 3118.88 3118.25
          3118.25 3118.25 3118.24 3118.24 3118.24 3118.24 3118.24 3118.24 3118.23 3118.2 3115.74 3115.75
          3115.74 3115.74 3115.73 3115.73 3115.73 3117.06 3709.2 3709.87 3709.87 3709.86 3708.58 3116.34
          3115.71 3115.71 3115.71 3115.7 3115.7 3115.7 3115.7 3115.7 3115.7 3115.7 3115.66 3113.21
          3113.21 3113.21 3113.2 3113.2 3113.2 3113.2 3114.54 3709.29 3709.96 3709.95 3709.95 3708.66
          3113.81 3113.18 3113.17 3113.17 3113.17 3113.17 3113.17 3113.17 3113.16 3113.16 3113.16 3113.13
          3110.68 3110.68 3110.68 3110.67 3110.67 3110.67 3110.66 3112.03 3709.37 3710.04 3710.04 3710.04
          3708.75 3111.28 3110.64 3110.64 3110.64 3110.64 3110.64 3110.64 3110.63 3110.63 3110.63 3110.63
          3110.6 3108.15 3108.16 3108.15 3108.15 3108.14 3108.14 3108.14 3109.53 3709.46 3710.13 3710.13
          3710.12 3708.85 3108.75 3108.12 3108.12 3108.11 3108.11 3108.11 3108.11 3108.11 3108.11 3108.11
          3108.11 3108.08 3105.63 3105.63 3105.63 3105.62 3105.62 3105.62 3105.61 3106.82 3708.64 3709.33
          3709.34 3709.35 3708.29 3106.23 3105.59 3105.59 3105.59 3105.59 3105.59 3105.59 3105.59 3105.58
          3105.58 3105.58 3105.55 3103.11 3103.11 3103.11 3103.1 3103.1 3103.1 3103.09 3103.09 3104.04
          3104 3103.97 3103.95 3103.92 3103.08 3103.08 3103.07 3103.07 3103.07 3103.07 3103.07 3103.07
          3103.07 3103.06 3103.06 3103.03 3100.59 3100.6 3100.59 3100.58 3100.58 3100.57 3100.57 3100.56
          3100.56 3100.55 3100.55 3100.55 3100.54 3100.54 3100.54 3100.53 3100.53 3100.53 3100.53 3100.53
          3100.52 3100.52 3100.52 3100.52 3100.52
        </DataArray>
        <DataArray type="Float32" Name="mobN" NumberOfComponents="1" format="ascii">
          0 0 0 0 0 0 0 0 0 0 0 0
          0 0 0 0 0 0 0 0 0 0 0 0
          0 0 0 0 0 0 0 0 0 0 0 0
          0 0 0 0 0 0 0 0 0 0 0 0
          0 0 0 0 0 0 0 0 0 0 0 0
          0 0 0 0 0 0 0 0 0 0 0 0
          0 0 0 0 0 0 0 0 0 0 0 0
          0 0 0 0 0 0 0 0 0 0 0 0
          0 1.26051e-16 0.00638395 163.898 0 0 0 0 0 0 0 0
          0 0 0 0 0 0 0 0 0 0 0 0
          0 0 6.96109e-16 0.0106475 178.697 0 0 0 0 0 0 0
          0 0 0 0 0 0 0 0 0 0 0 0
          0 0 0 1.14462e-15 0.0121889 179.693 0 0 0 0 0 0
          0 0 0 0 0 0 0 0 0 0 0 0
          0 0 0 0 1.32373e-15 0.0127676 177.829 0 0 0 0 0
          0 0 0 0 0 0 0 0 0 0 0 0
          0 0 0 0 0 0 3.51091e-13 0.0641215 0 0 0 0
          0 0 0 0 0 0 0 0 0 0 0 0
          0 0 0 0 0 0 0 0 8.79545e-13 0 0 0
          0 0 0 0 0 0 0 0 0 0 0 0
          0 0 0 0 0 0 0 0 0 0 0 0
          0 0 0 0 0 0 0 0 0 0 0 0
          0 0 0 0 0 0 0 0 0 0 0 0
          0 0 0 0 0 0 0 0 0 0 0 0
          0 0 0 0 0 0 0 0 0 0 0 0
          0 0 0 0 0 0 0 0 0 0 0 0
          0 0 0 0 0 0 0 0 0 0 0 0
          0 0 0 0 0 0 0 0 0 0 0 0
          0 0 0 0 0 0 0 0 0 0 0 0
          0 0 0 0 0 0 0 0 0 0 0 0
          0 0 0 0 0 0 0 0 0 0 0 0
          0 0 0 0 0 0 0 0 0 0 0 0
          0 0 0 0 0 0 0 0 0 0 0 0
          0 0 0 0 0 0 0 0 0 0 0 0