<?xml version="1.0"?>
<VTKFile type="UnstructuredGrid" version="0.1" byte_order="LittleEndian">
  <UnstructuredGrid>
    <Piece NumberOfCells="200" NumberOfPoints="231">
      <PointData Scalars="Sg" Vectors="velocityW">
        <DataArray type="Float32" Name="Sg" NumberOfComponents="1" format="ascii">
          0.05 0.63648 0.05 0.636631 0.6365 0.636652 0.636686 0.636726 0.636549 0.636589 0.636482 0.636522
          0.63645 0.636491 0.636442 0.636483 0.636449 0.636489 0.636465 0.636505 0.636362 0.636512 0.636363 0.636514
          0.636381 0.636531 0.636406 0.636557 0.636442 0.636593 0.636492 0.636643 0.636561 0.636712 0.636662 0.636813
          0.63682 0.636971 0.637129 0.63728 0.8 0.8 0.05 0.636631 0.636652 0.636726 0.636589 0.636522
          0.636491 0.636483 0.636489 0.636505 0.636513 0.636514 0.636531 0.636557 0.636593 0.636643 0.636712 0.636813
          0.636971 0.63728 0.8 0.05 0.636631 0.636652 0.636726 0.636589 0.636522 0.636491 0.636483 0.636489
          0.636506 0.636513 0.636514 0.636532 0.636557 0.636593 0.636643 0.636712 0.636813 0.636971 0.637279 0.8
          0.05 0.636631 0.636652 0.636726 0.636589 0.636522 0.636491 0.636483 0.636489 0.636506 0.636513 0.636514
          0.636532 0.636557 0.636593 0.636643 0.636712 0.636813 0.636971 0.637279 0.8 0.05 0.636631 0.636652
          0.636726 0.636589 0.636522 0.636491 0.636483 0.636489 0.636506 0.636513 0.636514 0.636532 0.636558 0.636594
          0.636643 0.636712 0.636813 0.636971 0.637278 0.8 0.05 0.636631 0.636652 0.636726 0.636589 0.636522
          0.636491 0.636483 0.636489 0.636506 0.636513 0.636514 0.636532 0.636558 0.636594 0.636643 0.636712 0.636813
          0.63697 0.637278 0.8 0.05 0.636631 0.636652 0.636726 0.636589 0.636523 0.636491 0.636483 0.636489
          0.636506 0.636513 0.636514 0.636532 0.636558 0.636594 0.636643 0.636712 0.636813 0.63697 0.637277 0.8
          0.05 0.636631 0.636652 0.636726 0.636589 0.636523 0.636491 0.636483 0.636489 0.636506 0.636513 0.636514
          0.636532 0.636558 0.636594 0.636643 0.636712 0.636813 0.63697 0.637277 0.8 0.05 0.636631 0.636652
          0.636726 0.636589 0.636523 0.636491 0.636483 0.636489 0.636506 0.636513 0.636514 0.636532 0.636558 0.636594
          0.636643 0.636713 0.636813 0.63697 0.637277 0.8 0.05 0.636782 0.636803 0.636767 0.63663 0.636563
          0.636531 0.636523 0.63653 0.636546 0.636663 0.636665 0.636682 0.636708 0.636744 0.636794 0.636863 0.636964
          0.637121 0.637427 0.8
        </DataArray>
        <DataArray type="Float32" Name="Sl" NumberOfComponents="1" format="ascii">
          0.95 0.36352 0.95 0.363369 0.3635 0.363348 0.363314 0.363274 0.363451 0.363411 0.363518 0.363478
          0.36355 0.363509 0.363558 0.363517 0.363551 0.363511 0.363535 0.363495 0.363638 0.363488 0.363637 0.363486
          0.363619 0.363469 0.363594 0.363443 0.363558 0.363407 0.363508 0.363357 0.363439 0.363288 0.363338 0.363187
          0.36318 0.363029 0.362871 0.36272 0.2 0.2 0.95 0.363369 0.363348 0.363274 0.363411 0.363478
          0.363509 0.363517 0.363511 0.363495 0.363487 0.363486 0.363468 0.363443 0.363407 0.363357 0.363288 0.363187
          0.363029 0.362721 0.2 0.95 0.363369 0.363348 0.363274 0.363411 0.363478 0.363509 0.363517 0.363511
          0.363494 0.363487 0.363486 0.363468 0.363443 0.363407 0.363357 0.363288 0.363187 0.363029 0.362721 0.2
          0.95 0.363369 0.363348 0.363274 0.363411 0.363478 0.363509 0.363517 0.363511 0.363494 0.363487 0.363486
          0.363468 0.363443 0.363407 0.363357 0.363288 0.363187 0.363029 0.362721 0.2 0.95 0.363369 0.363348
          0.363274 0.363411 0.363478 0.363509 0.363517 0.363511 0.363494 0.363487 0.363486 0.363468 0.363443 0.363406
          0.363357 0.363288 0.363187 0.363029 0.362722 0.2 0.95 0.363369 0.363348 0.363274 0.363411 0.363478
          0.363509 0.363517 0.363511 0.363494 0.363487 0.363486 0.363468 0.363442 0.363406 0.363357 0.363288 0.363187
          0.36303 0.362722 0.2 0.95 0.363369 0.363348 0.363274 0.363411 0.363477 0.363509 0.363517 0.363511
          0.363494 0.363487 0.363486 0.363468 0.363442 0.363406 0.363357 0.363288 0.363187 0.36303 0.362723 0.2
          0.95 0.363369 0.363348 0.363274 0.363411 0.363477 0.363509 0.363517 0.363511 0.363494 0.363487 0.363486
          0.363468 0.363442 0.363406 0.363357 0.363288 0.363187 0.36303 0.362723 0.2 0.95 0.363369 0.363348
          0.363274 0.363411 0.363477 0.363509 0.363517 0.363511 0.363494 0.363487 0.363486 0.363468 0.363442 0.363406
          0.363357 0.363287 0.363187 0.36303 0.362723 0.2 0.95 0.363218 0.363197 0.363233 0.36337 0.363437
          0.363469 0.363477 0.36347 0.363454 0.363337 0.363335 0.363318 0.363292 0.363256 0.363206 0.363137 0.363036
          0.362879 0.362573 0.2
        </DataArray>
        <DataArray type="Float32" Name="pg" NumberOfComponents="1" format="ascii">
          1.2e+07 1.20125e+07 1.2e+07 1.20116e+07 1.20235e+07 1.20226e+07 1.20601e+07 1.20592e+07 1.21125e+07 1.21115e+07 1.21428e+07 1.21419e+07
          1.2142e+07 1.2141e+07 1.21029e+07 1.21019e+07 1.20206e+07 1.20197e+07 1.18924e+07 1.18915e+07 1.17924e+07 1.17915e+07 1.17551e+07 1.17542e+07
          1.17064e+07 1.17055e+07 1.16468e+07 1.16459e+07 1.15768e+07 1.15759e+07 1.14973e+07 1.14963e+07 1.14091e+07 1.14082e+07 1.13133e+07 1.13124e+07
          1.12113e+07 1.12105e+07 1.11043e+07 1.11035e+07 1.1e+07 1.1e+07 1.2e+07 1.20111e+07 1.20219e+07 1.20583e+07 1.21106e+07 1.21409e+07
          1.21401e+07 1.2101e+07 1.20187e+07 1.18905e+07 1.17905e+07 1.17532e+07 1.17045e+07 1.16449e+07 1.1575e+07 1.14954e+07 1.14073e+07 1.13116e+07
          1.12097e+07 1.11029e+07 1.1e+07 1.2e+07 1.20107e+07 1.20213e+07 1.20576e+07 1.21098e+07 1.214e+07 1.21391e+07 1.21e+07 1.20177e+07
          1.18896e+07 1.17896e+07 1.17523e+07 1.17036e+07 1.1644e+07 1.1574e+07 1.14945e+07 1.14064e+07 1.13108e+07 1.1209e+07 1.11025e+07 1.1e+07
          1.2e+07 1.20103e+07 1.20207e+07 1.20569e+07 1.2109e+07 1.21391e+07 1.21382e+07 1.20991e+07 1.20168e+07 1.18886e+07 1.17886e+07 1.17513e+07
          1.17027e+07 1.16431e+07 1.15731e+07 1.14936e+07 1.14056e+07 1.13101e+07 1.12084e+07 1.11022e+07 1.1e+07 1.2e+07 1.201e+07 1.20202e+07
          1.20563e+07 1.21081e+07 1.21382e+07 1.21373e+07 1.20981e+07 1.20158e+07 1.18877e+07 1.17877e+07 1.17504e+07 1.17017e+07 1.16421e+07 1.15722e+07
          1.14928e+07 1.14047e+07 1.13093e+07 1.12078e+07 1.11018e+07 1.1e+07 1.2e+07 1.20097e+07 1.20198e+07 1.20556e+07 1.21073e+07 1.21373e+07
          1.21363e+07 1.20972e+07 1.20149e+07 1.18867e+07 1.17867e+07 1.17494e+07 1.17008e+07 1.16412e+07 1.15713e+07 1.14919e+07 1.14039e+07 1.13086e+07
          1.12072e+07 1.11015e+07 1.1e+07 1.2e+07 1.20094e+07 1.20192e+07 1.20549e+07 1.21065e+07 1.21364e+07 1.21354e+07 1.20962e+07 1.20139e+07
          1.18858e+07 1.17858e+07 1.17485e+07 1.16998e+07 1.16403e+07 1.15704e+07 1.1491e+07 1.14031e+07 1.13078e+07 1.12066e+07 1.11011e+07 1.1e+07
          1.2e+07 1.2009e+07 1.20186e+07 1.20542e+07 1.21057e+07 1.21355e+07 1.21345e+07 1.20953e+07 1.2013e+07 1.18848e+07 1.17848e+07 1.17475e+07
          1.16989e+07 1.16394e+07 1.15695e+07 1.14901e+07 1.14022e+07 1.1307e+07 1.12059e+07 1.11007e+07 1.1e+07 1.2e+07 1.20084e+07 1.20179e+07
          1.20534e+07 1.21048e+07 1.21346e+07 1.21335e+07 1.20943e+07 1.2012e+07 1.18839e+07 1.17839e+07 1.17466e+07 1.1698e+07 1.16384e+07 1.15686e+07
          1.14892e+07 1.14013e+07 1.13062e+07 1.12052e+07 1.11002e+07 1.1e+07 1.2e+07 1.20075e+07 1.2017e+07 1.20524e+07 1.21038e+07 1.21336e+07
          1.21325e+07 1.20933e+07 1.2011e+07 1.18829e+07 1.17829e+07 1.17456e+07 1.1697e+07 1.16375e+07 1.15676e+07 1.14883e+07 1.14004e+07 1.13053e+07
          1.12043e+07 1.10993e+07 1.1e+07
        </DataArray>
        <DataArray type="Float32" Name="pl" NumberOfComponents="1" format="ascii">
          1.19995e+07 1.20114e+07 1.19995e+07 1.20105e+07 1.20224e+07 1.20215e+07 1.2059e+07 1.2058e+07 1.21114e+07 1.21104e+07 1.21417e+07 1.21407e+07
          1.21409e+07 1.21399e+07 1.21018e+07 1.21008e+07 1.20195e+07 1.20185e+07 1.18913e+07 1.18904e+07 1.17913e+07 1.17904e+07 1.1754e+07 1.17531e+07
          1.17053e+07 1.17044e+07 1.16457e+07 1.16448e+07 1.15757e+07 1.15748e+07 1.14962e+07 1.14952e+07 1.1408e+07 1.1407e+07 1.13122e+07 1.13113e+07
          1.12102e+07 1.12093e+07 1.11032e+07 1.11024e+07 1.09925e+07 1.09925e+07 1.19995e+07 1.201e+07 1.20208e+07 1.20572e+07 1.21095e+07 1.21398e+07
          1.2139e+07 1.20999e+07 1.20176e+07 1.18894e+07 1.17894e+07 1.17521e+07 1.17034e+07 1.16438e+07 1.15739e+07 1.14943e+07 1.14062e+07 1.13105e+07
          1.12086e+07 1.11018e+07 1.09925e+07 1.19995e+07 1.20096e+07 1.20202e+07 1.20565e+07 1.21087e+07 1.21389e+07 1.2138e+07 1.20989e+07 1.20166e+07
          1.18885e+07 1.17885e+07 1.17512e+07 1.17025e+07 1.16429e+07 1.15729e+07 1.14934e+07 1.14053e+07 1.13097e+07 1.12079e+07 1.11014e+07 1.09925e+07
          1.19995e+07 1.20092e+07 1.20196e+07 1.20558e+07 1.21078e+07 1.2138e+07 1.21371e+07 1.2098e+07 1.20157e+07 1.18875e+07 1.17875e+07 1.17502e+07
          1.17016e+07 1.1642e+07 1.1572e+07 1.14925e+07 1.14045e+07 1.13089e+07 1.12073e+07 1.1101e+07 1.09925e+07 1.19995e+07 1.20089e+07 1.20191e+07
          1.20551e+07 1.2107e+07 1.21371e+07 1.21362e+07 1.2097e+07 1.20147e+07 1.18866e+07 1.17866e+07 1.17493e+07 1.17006e+07 1.1641e+07 1.15711e+07
          1.14917e+07 1.14036e+07 1.13082e+07 1.12067e+07 1.11007e+07 1.09925e+07 1.19995e+07 1.20086e+07 1.20186e+07 1.20545e+07 1.21062e+07 1.21362e+07
          1.21352e+07 1.20961e+07 1.20138e+07 1.18856e+07 1.17856e+07 1.17483e+07 1.16997e+07 1.16401e+07 1.15702e+07 1.14908e+07 1.14028e+07 1.13075e+07
          1.12061e+07 1.11004e+07 1.09925e+07 1.19995e+07 1.20083e+07 1.20181e+07 1.20538e+07 1.21054e+07 1.21353e+07 1.21343e+07 1.20951e+07 1.20128e+07
          1.18847e+07 1.17847e+07 1.17474e+07 1.16987e+07 1.16392e+07 1.15693e+07 1.14899e+07 1.1402e+07 1.13067e+07 1.12055e+07 1.11e+07 1.09925e+07
          1.19995e+07 1.20079e+07 1.20175e+07 1.20531e+07 1.21046e+07 1.21344e+07 1.21334e+07 1.20942e+07 1.20119e+07 1.18837e+07 1.17837e+07 1.17464e+07
          1.16978e+07 1.16382e+07 1.15684e+07 1.1489e+07 1.14011e+07 1.13059e+07 1.12048e+07 1.10996e+07 1.09925e+07 1.19995e+07 1.20073e+07 1.20167e+07
          1.20522e+07 1.21037e+07 1.21335e+07 1.21324e+07 1.20932e+07 1.20109e+07 1.18828e+07 1.17828e+07 1.17455e+07 1.16969e+07 1.16373e+07 1.15675e+07
          1.14881e+07 1.14002e+07 1.13051e+07 1.12041e+07 1.10991e+07 1.09925e+07 1.19995e+07 1.20064e+07 1.20159e+07 1.20513e+07 1.21027e+07 1.21325e+07
          1.21314e+07 1.20922e+07 1.20099e+07 1.18818e+07 1.17818e+07 1.17445e+07 1.16959e+07 1.16364e+07 1.15665e+07 1.14872e+07 1.13993e+07 1.13042e+07
          1.12032e+07 1.10982e+07 1.09925e+07
        </DataArray>
        <DataArray type="Float32" Name="pc" NumberOfComponents="1" format="ascii">
          516.075 1105.24 516.075 1105.76 1105.31 1105.82 1105.94 1106.08 1105.48 1105.61 1105.25 1105.39
          1105.14 1105.28 1105.12 1105.25 1105.14 1105.27 1105.19 1105.33 1104.84 1105.35 1104.85 1105.36
          1104.91 1105.42 1104.99 1105.5 1105.12 1105.63 1105.28 1105.79 1105.52 1106.03 1105.86 1106.37
          1106.39 1106.91 1107.44 1107.96 7500 7500 516.075 1105.76 1105.82 1106.08 1105.61 1105.39
          1105.28 1105.25 1105.27 1105.33 1105.35 1105.36 1105.42 1105.51 1105.63 1105.79 1106.03 1106.37
          1106.91 1107.96 7500 516.075 1105.76 1105.82 1106.08 1105.61 1105.39 1105.28 1105.25 1105.27
          1105.33 1105.35 1105.36 1105.42 1105.51 1105.63 1105.8 1106.03 1106.37 1106.91 1107.95 7500
          516.075 1105.76 1105.82 1106.08 1105.61 1105.39 1105.28 1105.25 1105.27 1105.33 1105.35 1105.36
          1105.42 1105.51 1105.63 1105.8 1106.03 1106.37 1106.91 1107.95 7500 516.075 1105.75 1105.82
          1106.08 1105.61 1105.39 1105.28 1105.25 1105.27 1105.33 1105.35 1105.36 1105.42 1105.51 1105.63
          1105.8 1106.03 1106.37 1106.91 1107.95 7500 516.075 1105.75 1105.82 1106.08 1105.61 1105.39
          1105.28 1105.25 1105.27 1105.33 1105.35 1105.36 1105.42 1105.51 1105.63 1105.8 1106.03 1106.37
          1106.9 1107.95 7500 516.075 1105.75 1105.82 1106.08 1105.61 1105.39 1105.28 1105.25 1105.27
          1105.33 1105.35 1105.36 1105.42 1105.51 1105.63 1105.8 1106.03 1106.37 1106.9 1107.95 7500
          516.075 1105.75 1105.82 1106.08 1105.61 1105.39 1105.28 1105.25 1105.28 1105.33 1105.35 1105.36
          1105.42 1105.51 1105.63 1105.8 1106.03 1106.37 1106.9 1107.95 7500 516.075 1105.75 1105.82
          1106.08 1105.61 1105.39 1105.28 1105.25 1105.28 1105.33 1105.36 1105.36 1105.42 1105.51 1105.63
          1105.8 1106.03 1106.37 1106.9 1107.95 7500 516.075 1106.27 1106.34 1106.21 1105.75 1105.52
          1105.42 1105.39 1105.41 1105.47 1105.86 1105.87 1105.93 1106.02 1106.14 1106.31 1106.54 1106.88
          1107.42 1108.46 7500
        </DataArray>
        <DataArray type="Float32" Name="rhoL" NumberOfComponents="1" format="ascii">
          927.972 1084.17 927.972 1084.17 1084.18 1084.17 1084.19 1084.19 1084.21 1084.21 1084.22 1084.22
          1084.22 1084.22 1084.21 1084.21 1084.17 1084.17 1084.12 1084.12 1084.08 1084.08 1084.06 1084.06
          1084.04 1084.04 1084.02 1084.02 1083.99 1083.99 1083.96 1083.96 1083.92 1083.92 1083.88 1083.88
          1083.84 1083.84 1083.8 1083.8 1168.53 1168.53 927.972 1084.17 1084.17 1084.19 1084.21 1084.22
          1084.22 1084.21 1084.17 1084.12 1084.08 1084.06 1084.04 1084.02 1083.99 1083.96 1083.92 1083.88
          1083.84 1083.8 1168.53 927.972 1084.17 1084.17 1084.19 1084.21 1084.22 1084.22 1084.21 1084.17
          1084.12 1084.08 1084.06 1084.04 1084.02 1083.99 1083.96 1083.92 1083.88 1083.84 1083.8 1168.53
          927.972 1084.17 1084.17 1084.19 1084.21 1084.22 1084.22 1084.21 1084.17 1084.12 1084.08 1084.06
          1084.04 1084.02 1083.99 1083.96 1083.92 1083.88 1083.84 1083.8 1168.53 927.972 1084.17 1084.17
          1084.19 1084.21 1084.22 1084.22 1084.21 1084.17 1084.12 1084.08 1084.06 1084.04 1084.02 1083.99
          1083.96 1083.92 1083.88 1083.84 1083.8 1168.53 927.972 1084.17 1084.17 1084.19 1084.21 1084.22
          1084.22 1084.21 1084.17 1084.12 1084.08 1084.06 1084.04 1084.02 1083.99 1083.96 1083.92 1083.88
          1083.84 1083.8 1168.53 927.972 1084.17 1084.17 1084.19 1084.21 1084.22 1084.22 1084.2 1084.17
          1084.12 1084.08 1084.06 1084.04 1084.02 1083.99 1083.96 1083.92 1083.88 1083.84 1083.8 1168.53
          927.972 1084.17 1084.17 1084.19 1084.21 1084.22 1084.22 1084.2 1084.17 1084.12 1084.08 1084.06
          1084.04 1084.02 1083.99 1083.96 1083.92 1083.88 1083.84 1083.8 1168.53 927.972 1084.17 1084.17
          1084.19 1084.21 1084.22 1084.22 1084.2 1084.17 1084.12 1084.08 1084.06 1084.04 1084.02 1083.99
          1083.96 1083.92 1083.88 1083.84 1083.8 1168.53 927.972 1084.17 1084.17 1084.19 1084.21 1084.22
          1084.22 1084.2 1084.17 1084.12 1084.08 1084.06 1084.04 1084.02 1083.99 1083.96 1083.92 1083.88
          1083.84 1083.8 1168.53
        </DataArray>
        <DataArray type="Float32" Name="rhoG" NumberOfComponents="1" format="ascii">
          98.7381 98.9527 98.7381 98.9454 99.0444 99.037 99.3488 99.3411 99.7853 99.7774 100.038 100.03
          100.031 100.023 99.7055 99.6974 99.0202 99.0121 97.9524 97.9444 97.1193 97.1113 96.8085 96.8006
          96.403 96.3951 95.9063 95.8984 95.3233 95.3156 94.6606 94.6529 93.926 93.9184 93.1285 93.1211
          92.2787 92.2716 91.3874 91.3806 90.6021 90.6021 98.7381 98.9407 99.0308 99.3343 99.7699 100.022
          100.015 99.6894 99.004 97.9365 97.1034 96.7927 96.3872 95.8906 95.3079 94.6454 93.911 93.1142
          92.2653 91.376 90.6021 98.7381 98.9372 99.0256 99.3281 99.7628 100.015 100.007 99.6814 98.9961
          97.9285 97.0955 96.7848 96.3794 95.8829 95.3002 94.6379 93.9039 93.1076 92.2597 91.3725 90.6021
          98.7381 98.9344 99.0212 99.3224 99.7559 100.007 99.9995 99.6735 98.9881 97.9206 97.0876 96.7769
          96.3716 95.8751 95.2926 94.6305 93.8969 93.1012 92.2545 91.3695 90.6021 98.7381 98.932 99.0171
          99.3169 99.7492 99.9997 99.9917 99.6656 98.9802 97.9127 97.0797 96.7691 96.3638 95.8674 95.285
          94.6232 93.89 93.095 92.2496 91.3667 90.6021 98.7381 98.9295 99.0129 99.3115 99.7425 99.9923
          99.984 99.6577 98.9723 97.9047 97.0718 96.7612 96.356 95.8597 95.2775 94.6158 93.883 93.0888
          92.2447 91.3639 90.6021 98.7381 98.9267 99.0085 99.3058 99.7357 99.9849 99.9762 99.6498 98.9643
          97.8968 97.0639 96.7533 96.3481 95.852 95.2699 94.6085 93.876 93.0825 92.2396 91.361 90.6021
          98.7381 98.9233 99.0033 99.2996 99.7285 99.9773 99.9684 99.6419 98.9563 97.8889 97.056 96.7454
          96.3403 95.8442 95.2622 94.601 93.8689 93.0759 92.234 91.3574 90.6021 98.7381 98.9185 98.9971
          99.2928 99.7211 99.9694 99.9604 99.6339 98.9483 97.8809 97.048 96.7375 96.3325 95.8364 95.2545
          94.5934 93.8615 93.0689 92.2277 91.3528 90.6021 98.7381 98.9112 98.9897 99.2851 99.7131 99.9614
          99.9523 99.6257 98.9402 97.8729 97.0401 96.7296 96.3246 95.8286 95.2468 94.5858 93.854 93.0615
          92.2206 91.346 90.6021
        </DataArray>
        <DataArray type="Float32" Name="mobL" NumberOfComponents="1" format="ascii">
          4371.14 5.17635 4371.14 5.15716 5.17375 5.15461 5.1503 5.1452 5.16764 5.16252 5.17608 5.17096
          5.18008 5.17496 5.18111 5.17599 5.18029 5.17518 5.17821 5.1731 5.1913 5.17221 5.19116 5.17204
          5.18892 5.16981 5.18566 5.16653 5.1811 5.16198 5.17482 5.15571 5.16606 5.14696 5.15335 5.13429
          5.13339 5.11441 5.09458 5.07578 0 0 4371.14 5.15717 5.15461 5.1452 5.16252 5.17096
          5.17496 5.17599 5.17517 5.17309 5.1722 5.17203 5.1698 5.16653 5.16197 5.1557 5.14696 5.13429
          5.11442 5.07582 0 4371.14 5.15718 5.15461 5.1452 5.16252 5.17095 5.17495 5.17598 5.17517
          5.17308 5.17219 5.17203 5.16979 5.16652 5.16197 5.1557 5.14696 5.13429 5.11443 5.07588 0
          4371.14 5.15719 5.15461 5.1452 5.16251 5.17095 5.17494 5.17597 5.17516 5.17308 5.17218 5.17202
          5.16979 5.16652 5.16196 5.15569 5.14696 5.1343 5.11446 5.07594 0 4371.14 5.1572 5.15461
          5.14521 5.16251 5.17094 5.17494 5.17597 5.17515 5.17307 5.17218 5.17201 5.16978 5.16651 5.16196
          5.15569 5.14696 5.13431 5.11448 5.07599 0 4371.14 5.15721 5.15462 5.14521 5.16251 5.17094
          5.17493 5.17596 5.17515 5.17306 5.17217 5.17201 5.16977 5.1665 5.16195 5.15569 5.14696 5.13431
          5.11451 5.07605 0 4371.14 5.15722 5.15462 5.14522 5.16251 5.17093 5.17493 5.17596 5.17514
          5.17306 5.17216 5.172 5.16977 5.1665 5.16195 5.15568 5.14696 5.13432 5.11453 5.07611 0
          4371.14 5.15723 5.15462 5.14522 5.1625 5.17093 5.17492 5.17595 5.17513 5.17305 5.17216 5.17199
          5.16976 5.16649 5.16194 5.15568 5.14696 5.13433 5.11455 5.07616 0 4371.14 5.15721 5.1546
          5.14522 5.1625 5.17092 5.17491 5.17594 5.17513 5.17304 5.17213 5.17197 5.16973 5.16646 5.16191
          5.15565 5.14693 5.1343 5.11453 5.07618 0 4371.14 5.13814 5.13557 5.14012 5.15739 5.16581
          5.16981 5.17084 5.17002 5.16793 5.15315 5.15297 5.15073 5.14746 5.14291 5.13665 5.12795 5.11536
          5.09566 5.0575 0
        </DataArray>
        <DataArray type="Float32" Name="mobG" NumberOfComponents="1" format="ascii">
          19.0304 25794.2 19.0304 25808.6 25796.2 25810.6 25813.8 25817.6 25800.8 25804.6 25794.4 25798.3
          25791.4 25795.3 25790.7 25794.5 25791.3 25795.1 25792.8 25796.7 25783 25797.3 25783.1 25797.5
          25784.8 25799.1 25787.2 25801.6 25790.7 25805 25795.4 25809.7 25801.9 25816.3 25811.5 25825.9
          25826.5 25840.9 25855.9 25870.2 42559.3 42559.3 19.0304 25808.6 25810.6 25817.6 25804.6 25798.3
          25795.3 25794.5 25795.1 25796.7 25797.3 25797.5 25799.1 25801.6 25805 25809.7 25816.3 25825.9
          25840.9 25870.2 42559.3 19.0304 25808.6 25810.6 25817.6 25804.6 25798.3 25795.3 25794.5 25795.1
          25796.7 25797.3 25797.5 25799.1 25801.6 25805 25809.7 25816.3 25825.9 25840.9 25870.2 42559.3
          19.0304 25808.6 25810.6 25817.6 25804.6 25798.3 25795.3 25794.5 25795.1 25796.7 25797.3 25797.5
          25799.1 25801.6 25805 25809.7 25816.3 25825.9 25840.9 25870.1 42559.3 19.0304 25808.6 25810.5
          25817.6 25804.6 25798.3 25795.3 25794.5 25795.1 25796.7 25797.3 25797.5 25799.2 25801.6 25805
          25809.7 25816.3 25825.9 25840.8 25870.1 42559.3 19.0304 25808.6 25810.5 25817.6 25804.6 25798.3
          25795.3 25794.5 25795.1 25796.7 25797.4 25797.5 25799.2 25801.6 25805 25809.7 25816.3 25825.9
          25840.8 25870 42559.3 19.0304 25808.6 25810.5 25817.6 25804.6 25798.3 25795.3 25794.5 25795.1
          25796.7 25797.4 25797.5 25799.2 25801.6 25805 25809.7 25816.3 25825.8 25840.8 25870 42559.3
          19.0304 25808.6 25810.5 25817.6 25804.6 25798.3 25795.3 25794.5 25795.1 25796.7 25797.4 25797.5
          25799.2 25801.6 25805 25809.7 25816.3 25825.8 25840.8 25870 42559.3 19.0304 25808.6 25810.6
          25817.6 25804.6 25798.3 25795.3 25794.5 25795.1 25796.7 25797.4 25797.5 25799.2 25801.6 25805.1
          25809.8 25816.3 25825.9 25840.8 25869.9 42559.3 19.0304 25823 25824.9 25821.5 25808.5 25802.1
          25799.1 25798.4 25799 25800.5 25811.6 25811.8 25813.5 25815.9 25819.4 25824.1 25830.7 25840.2
          25855.1 25884.2 42559.3
        </DataArray>
        <DataArray type="Float32" Name="porosity" NumberOfComponents="1" format="ascii">
          0.11 0.105494 0.11 0.105494 0.105494 0.105494 0.0575415 0.0575415 0.0575426 0.0575426 0.0575431 0.0575431
          0.0575433 0.0575433 0.0575434 0.0575433 0.0575432 0.0575432 0.057543 0.057543 0.105495 0.105495 0.105495 0.105495
          0.105495 0.105495 0.105494 0.105494 0.105494 0.105494 0.105493 0.105493 0.105492 0.105492 0.10549 0.10549
          0.105488 0.105488 0.105484 0.105484 0.11 0.11 0.11 0.105494 0.105494 0.0575415 0.0575426 0.0575431
          0.0575433 0.0575433 0.0575432 0.057543 0.105495 0.105495 0.105495 0.105494 0.105494 0.105493 0.105492 0.10549
          0.105488 0.105484 0.11 0.11 0.105494 0.105494 0.0575415 0.0575426 0.0575431 0.0575433 0.0575433 0.0575432
          0.057543 0.105495 0.105495 0.105495 0.105494 0.105494 0.105493 0.105492 0.10549 0.105488 0.105484 0.11
          0.11 0.105494 0.105494 0.0575415 0.0575426 0.0575431 0.0575433 0.0575433 0.0575432 0.057543 0.105495 0.105495
          0.105495 0.105494 0.105494 0.105493 0.105492 0.10549 0.105488 0.105484 0.11 0.11 0.105494 0.105494
          0.0575415 0.0575426 0.0575431 0.0575433 0.0575433 0.0575432 0.057543 0.105495 0.105495 0.105495 0.105494 0.105494
          0.105493 0.105492 0.10549 0.105488 0.105484 0.11 0.11 0.105494 0.105494 0.0575415 0.0575426 0.0575431
          0.0575433 0.0575433 0.0575432 0.057543 0.105495 0.105495 0.105495 0.105494 0.105494 0.105493 0.105492 0.10549
          0.105488 0.105484 0.11 0.11 0.105494 0.105494 0.0575415 0.0575426 0.0575431 0.0575433 0.0575433 0.0575432
          0.057543 0.105495 0.105495 0.105495 0.105494 0.105494 0.105493 0.105492 0.10549 0.105488 0.105484 0.11
          0.11 0.105494 0.105494 0.0575415 0.0575426 0.0575431 0.0575433 0.0575433 0.0575432 0.057543 0.105495 0.105495
          0.105495 0.105494 0.105494 0.105493 0.105492 0.10549 0.105488 0.105484 0.11 0.11 0.105494 0.105494
          0.0575415 0.0575426 0.0575431 0.0575433 0.0575433 0.0575432 0.057543 0.105495 0.105495 0.105495 0.105494 0.105494
          0.105493 0.105492 0.10549 0.105488 0.105484 0.11 0.11 0.105494 0.105494 0.0575415 0.0575426 0.0575431
          0.0575433 0.0575433 0.0575432 0.057543 0.105495 0.105495 0.105495 0.105494 0.105494 0.105493 0.105492 0.10549
          0.105488 0.105484 0.11
        </DataArray>
        <DataArray type="Float32" Name="permeabilityFactor" NumberOfComponents="1" format="ascii">
          1 0.873211 1 0.873211 0.873204 0.873204 0.12765 0.12765 0.127658 0.127658 0.127661 0.127661
          0.127663 0.127663 0.127663 0.127663 0.127662 0.127662 0.12766 0.12766 0.873243 0.873243 0.873241 0.873241
          0.873233 0.873232 0.873221 0.873221 0.873205 0.873205 0.873183 0.873183 0.873155 0.873155 0.873115 0.873114
          0.873053 0.873053 0.872943 0.872943 1 1 1 0.873211 0.873204 0.12765 0.127658 0.127661
          0.127663 0.127663 0.127662 0.12766 0.873243 0.873241 0.873232 0.873221 0.873205 0.873183 0.873155 0.873114
          0.873053 0.872943 1 1 0.873211 0.873204 0.12765 0.127658 0.127661 0.127663 0.127663 0.127662
          0.12766 0.873243 0.873241 0.873232 0.873221 0.873205 0.873183 0.873155 0.873114 0.873053 0.872943 1
          1 0.873211 0.873204 0.12765 0.127658 0.127661 0.127663 0.127663 0.127662 0.12766 0.873243 0.873241
          0.873232 0.87322 0.873204 0.873183 0.873155 0.873114 0.873053 0.872943 1 1 0.873211 0.873204
          0.12765 0.127658 0.127661 0.127663 0.127663 0.127662 0.12766 0.873243 0.873241 0.873232 0.87322 0.873204
          0.873183 0.873155 0.873114 0.873053 0.872944 1 1 0.873211 0.873204 0.12765 0.127658 0.127661
          0.127663 0.127663 0.127662 0.12766 0.873243 0.873241 0.873232 0.87322 0.873204 0.873183 0.873155 0.873114
          0.873053 0.872944 1 1 0.873211 0.873204 0.12765 0.127658 0.127661 0.127663 0.127663 0.127662
          0.12766 0.873243 0.873241 0.873232 0.87322 0.873204 0.873183 0.873154 0.873114 0.873054 0.872944 1
          1 0.873211 0.873204 0.12765 0.127658 0.127661 0.127663 0.127663 0.127662 0.12766 0.873243 0.87324
          0.873232 0.87322 0.873204 0.873183 0.873154 0.873114 0.873054 0.872944 1 1 0.873211 0.873204
          0.12765 0.127658 0.127661 0.127663 0.127663 0.127662 0.12766 0.873243 0.87324 0.873232 0.87322 0.873204
          0.873183 0.873154 0.873114 0.873054 0.872944 1 1 0.873211 0.873204 0.12765 0.127658 0.127661
          0.127663 0.127663 0.127662 0.12766 0.873242 0.87324 0.873232 0.87322 0.873204 0.873183 0.873154 0.873114
          0.873054 0.872944 1
        </DataArray>
        <DataArray type="Float32" Name="temperature" NumberOfComponents="1" format="ascii">
          418.15 418.15 418.15 418.15 418.15 418.15 418.15 418.15 418.15 418.15 418.15 418.15
          418.15 418.15 418.15 418.15 418.15 418.15 418.15 418.15 418.15 418.15 418.15 418.15
          418.15 418.15 418.15 418.15 418.15 418.15 418.15 418.15 418.15 418.15 418.15 418.15
          418.15 418.15 418.15 418.15 418.15 418.15 418.15 418.15 418.15 418.15 418.15 418.15
          418.15 418.15 418.15 418.15 418.15 418.15 418.15 418.15 418.15 418.15 418.15 418.15
          418.15 418.15 418.15 418.15 418.15 418.15 418.15 418.15 418.15 418.15 418.15 418.15
          418.15 418.15 418.15 418.15 418.15 418.15 418.15 418.15 418.15 418.15 418.15 418.15
          418.15 418.15 418.15 418.15 418.15 418.15 418.15 418.15 418.15 418.15 418.15 418.15
          418.15 418.15 418.15 418.15 418.15 418.15 418.15 418.15 418.15 418.15 418.15 418.15
          418.15 418.15 418.15 418.15 418.15 418.15 418.15 418.15 418.15 418.15 418.15 418.15
          418.15 418.15 418.15 418.15 418.15 418.15 418.15 418.15 418.15 418.15 418.15 418.15
          418.15 418.15 418.15 418.15 418.15 418.15 418.15 418.15 418.15 418.15 418.15 418.15
          418.15 418.15 418.15 418.15 418.15 418.15 418.15 418.15 418.15 418.15 418.15 418.15
          418.15 418.15 418.15 418.15 418.15 418.15 418.15 418.15 418.15 418.15 418.15 418.15
          418.15 418.15 418.15 418.15 418.15 418.15 418.15 418.15 418.15 418.15 418.15 418.15
          418.15 418.15 418.15 418.15 418.15 418.15 418.15 418.15 418.15 418.15 418.15 418.15
          418.15 418.15 418.15 418.15 418.15 418.15 418.15 418.15 418.15 418.15 418.15 418.15
          418.15 418.15 418.15 418.15 418.15 418.15 418.15 418.15 418.15 418.15 418.15 418.15
          418.15 418.15 418.15 418.15 418.15 418.15 418.15 418.15 418.15 418.15 418.15 418.15
          418.15 418.15 418.15
        </DataArray>
        <DataArray type="Float32" Name="phase presence" NumberOfComponents="1" format="ascii">
          3 3 3 3 3 3 3 3 3 3 3 3
          3 3 3 3 3 3 3 3 3 3 3 3
          3 3 3 3 3 3 3 3 3 3 3 3
          3 3 3 3 3 3 3 3 3 3 3 3
          3 3 3 3 3 3 3 3 3 3 3 3
          3 3 3 3 3 3 3 3 3 3 3 3
          3 3 3 3 3 3 3 3 3 3 3 3
          3 3 3 3 3 3 3 3 3 3 3 3
          3 3 3 3 3 3 3 3 3 3 3 3
          3 3 3 3 3 3 3 3 3 3 3 3
          3 3 3 3 3 3 3 3 3 3 3 3
          3 3 3 3 3 3 3 3 3 3 3 3
          3 3 3 3 3 3 3 3 3 3 3 3
          3 3 3 3 3 3 3 3 3 3 3 3
          3 3 3 3 3 3 3 3 3 3 3 3
          3 3 3 3 3 3 3 3 3 3 3 3
          3 3 3 3 3 3 3 3 3 3 3 3
          3 3 3 3 3 3 3 3 3 3 3 3
          3 3 3 3 3 3 3 3 3 3 3 3
          3 3 3
        </DataArray>
        <DataArray type="Float32" Name="boxVolume" NumberOfComponents="1" format="ascii">
          0.5 1 1 2 1 2 1 2 1 2 1 2
          1 2 1 2 1 2 1 2 1 2 1 2
          1 2 1 2 1 2 1 2 1 2 1 2
          1 2 1 2 0.5 1 1 2 2 2 2 2
          2 2 2 2 2 2 2 2 2 2 2 2
          2 2 1 1 2 2 2 2 2 2 2 2
          2 2 2 2 2 2 2 2 2 2 2 1
          1 2 2 2 2 2 2 2 2 2 2 2
          2 2 2 2 2 2 2 2 1 1 2 2
          2 2 2 2 2 2 2 2 2 2 2 2
          2 2 2 2 2 1 1 2 2 2 2 2
          2 2 2 2 2 2 2 2 2 2 2 2
          2 2 1 1 2 2 2 2 2 2 2 2
          2 2 2 2 2 2 2 2 2 2 2 1
          1 2 2 2 2 2 2 2 2 2 2 2
          2 2 2 2 2 2 2 2 1 1 2 2
          2 2 2 2 2 2 2 2 2 2 2 2
          2 2 2 2 2 1 0.5 1 1 1 1 1
          1 1 1 1 1 1 1 1 1 1 1 1
          1 1 0.5
        </DataArray>
        <DataArray type="Float32" Name="precipitateVolumeFraction_NaCl" NumberOfComponents="1" format="ascii">
          0 0.00450597 0 0.00450597 0.00450623 0.00450623 0.0524585 0.0524585 0.0524574 0.0524574 0.0524569 0.0524569
          0.0524567 0.0524567 0.0524566 0.0524567 0.0524568 0.0524568 0.052457 0.052457 0.00450477 0.00450477 0.00450484 0.00450485
          0.00450516 0.00450516 0.0045056 0.00450561 0.0045062 0.0045062 0.00450699 0.004507 0.00450806 0.00450807 0.00450957 0.00450957