<?xml version="1.0"?>
<VTKFile type="UnstructuredGrid" version="0.1" byte_order="LittleEndian">
  <UnstructuredGrid>
    <Piece NumberOfCells="384" NumberOfPoints="425">
      <CellData Scalars="S_liq">
        <DataArray type="Float32" Name="S_liq" NumberOfComponents="1" format="ascii">
          1 1 1 1 1 1 1 1 1 1 1 1
          1 1 1 1 1 1 1 1 1 1 1 1
          1 1 1 1 1 1 1 1 1 1 1 1
          1 1 1 1 1 1 1 1 1 1 1 1
          1 1 1 1 1 1 1 1 1 1 1 1
          1 1 1 1 1 1 1 1 1 1 1 1
          1 1 1 1 1 1 1 1 1 1 1 1
          1 1 1 1 1 1 1 1 1 1 0.999826 0.947027
          1 1 1 1 1 1 1 1 1 1 1 1
          1 1 1 1 1 1 1 1 1 1 0.999791 0.946069
          1 1 1 1 1 1 1 1 1 1 1 1
          1 1 1 1 1 1 1 1 1 1 0.999812 0.946005
          1 1 1 1 1 1 1 1 1 1 1 1
          1 1 1 1 1 1 1 1 1 1 1 0.99862
          1 1 1 1 1 1 1 1 1 1 1 1
          1 1 1 1 1 1 1 1 1 1 1 1
          1 1 1 1 1 1 1 1 1 1 1 1
          1 1 1 1 1 1 1 1 1 1 1 1
          1 1 1 1 1 1 1 1 1 1 1 1
          1 1 1 1 1 1 1 1 1 1 1 1
          1 1 1 1 1 1 1 1 1 1 1 1
          1 1 1 1 1 1 1 1 1 1 1 1
          1 1 1 1 1 1 1 1 1 1 1 1
          1 1 1 1 1 1 1 1 1 1 1 1
          1 1 1 1 1 1 1 1 1 1 1 1
          1 1 1 1 1 1 1 1 1 1 1 1
          1 1 1 1 1 1 1 1 1 1 1 1
          1 1 1 1 1 1 1 1 1 1 1 1
          1 1 1 1 1 1 1 1 1 1 1 1
          1 1 1 1 1 1 1 1 1 1 1 1
          1 1 1 1 1 1 1 1 1 1 1 1
          1 1 1 1 1 1 1 1 1 1 1 1
        </DataArray>
        <DataArray type="Float32" Name="S_gas" NumberOfComponents="1" format="ascii">
          0 0 0 0 0 0 0 0 0 0 0 0
          0 0 0 0 0 0 0 0 0 0 0 0
          0 0 0 0 0 0 0 0 0 0 0 0
          0 0 0 0 0 0 0 0 0 0 0 0
          0 0 0 0 0 0 0 0 0 0 0 0
          0 0 0 0 0 0 0 0 0 0 0 0
          0 0 0 0 0 0 0 0 0 0 0 0
          0 0 0 0 0 0 0 -0 9.79139e-36 2.56954e-12 0.00017349 0.0529733
          0 0 0 0 0 0 0 0 0 0 0 0
          0 0 0 0 0 0 0 -0 5.92027e-35 5.01492e-12 0.000209309 0.0539305
          0 0 0 0 0 0 0 0 0 0 0 0
          0 0 0 0 0 0 0 -0 1.75915e-35 3.28489e-12 0.000187528 0.0539946
          0 0 0 0 0 0 0 -0 -0 -0 -0 -0
          -0 -0 -0 -0 -0 -0 -0 -0 0 2.40449e-28 8.87694e-10 0.00137974
          0 0 0 0 0 0 0 0 -0 -0 -0 -0
          -0 -0 -0 -0 -0 -0 -0 -0 -0 0 8.52798e-25 1.70634e-08
          0 0 0 0 0 0 0 0 0 -0 -0 -0
          -0 -0 -0 -0 -0 -0 -0 -0 -0 -0 8.40779e-45 2.97575e-23
          0 0 0 0 0 0 0 0 0 0 -0 -0
          -0 -0 -0 -0 -0 -0 -0 -0 -0 -0 -0 3.08286e-44
          0 0 0 0 0 0 0 0 0 0 0 -0
          -0 -0 -0 -0 -0 -0 -0 -0 -0 -0 -0 -0
          0 0 0 0 0 0 0 0 0 0 0 0
          -0 -0 -0 -0 -0 -0 -0 -0 -0 -0 -0 -0
          0 0 0 0 0 0 0 0 0 0 0 0
          0 -0 -0 -0 -0 -0 -0 -0 -0 -0 -0 -0
          0 0 0 0 0 0 0 0 0 0 0 0
          0 0 -0 -0 -0 -0 -0 -0 -0 -0 -0 -0
          0 0 0 0 0 0 0 0 0 0 0 0
          0 0 0 -0 -0 -0 -0 -0 -0 -0 -0 -0
          0 0 0 0 0 0 0 0 0 0 0 0
          0 0 0 0 -0 -0 -0 -0 -0 -0 -0 -0
        </DataArray>
        <DataArray type="Float32" Name="p_liq" NumberOfComponents="1" format="ascii">
          2.65747e+07 2.65751e+07 2.65757e+07 2.65764e+07 2.65771e+07 2.65779e+07 2.65787e+07 2.65795e+07 2.65804e+07 2.65812e+07 2.65821e+07 2.65831e+07
          2.65841e+07 2.65851e+07 2.65862e+07 2.65872e+07 2.65883e+07 2.65893e+07 2.65903e+07 2.65913e+07 2.65922e+07 2.65931e+07 2.65938e+07 2.65941e+07
          2.65504e+07 2.6551e+07 2.65516e+07 2.65523e+07 2.65531e+07 2.65539e+07 2.65548e+07 2.65556e+07 2.65564e+07 2.65572e+07 2.65581e+07 2.65591e+07
          2.65601e+07 2.65612e+07 2.65622e+07 2.65633e+07 2.65643e+07 2.65654e+07 2.65664e+07 2.65674e+07 2.65684e+07 2.65693e+07 2.65701e+07 2.65706e+07
          2.6526e+07 2.65267e+07 2.65275e+07 2.65283e+07 2.65291e+07 2.653e+07 2.65308e+07 2.65317e+07 2.65325e+07 2.65333e+07 2.65342e+07 2.65351e+07
          2.65362e+07 2.65373e+07 2.65383e+07 2.65393e+07 2.65404e+07 2.65414e+07 2.65425e+07 2.65435e+07 2.65446e+07 2.65456e+07 2.65467e+07 2.65475e+07
          2.65016e+07 2.65024e+07 2.65033e+07 2.65041e+07 2.6505e+07 2.6506e+07 2.65069e+07 2.65078e+07 2.65086e+07 2.65095e+07 2.65103e+07 2.65112e+07
          2.65123e+07 2.65133e+07 2.65144e+07 2.65154e+07 2.65164e+07 2.65175e+07 2.65186e+07 2.65196e+07 2.65208e+07 2.6522e+07 2.65235e+07 2.65259e+07
          2.64771e+07 2.64781e+07 2.6479e+07 2.648e+07 2.6481e+07 2.64819e+07 2.64829e+07 2.64839e+07 2.64847e+07 2.64856e+07 2.64865e+07 2.64873e+07
          2.64884e+07 2.64894e+07 2.64904e+07 2.64915e+07 2.64925e+07 2.64936e+07 2.64946e+07 2.64957e+07 2.64969e+07 2.64982e+07 2.64998e+07 2.65027e+07
          2.64527e+07 2.64537e+07 2.64548e+07 2.64559e+07 2.64569e+07 2.64579e+07 2.6459e+07 2.646e+07 2.64609e+07 2.64617e+07 2.64626e+07 2.64635e+07
          2.64645e+07 2.64655e+07 2.64665e+07 2.64675e+07 2.64685e+07 2.64696e+07 2.64706e+07 2.64717e+07 2.64729e+07 2.64741e+07 2.64756e+07 2.64781e+07
          2.64282e+07 2.64294e+07 2.64306e+07 2.64317e+07 2.64328e+07 2.64339e+07 2.6435e+07 2.64361e+07 2.6437e+07 2.64379e+07 2.64387e+07 2.64396e+07
          2.64406e+07 2.64416e+07 2.64426e+07 2.64436e+07 2.64446e+07 2.64456e+07 2.64466e+07 2.64477e+07 2.64487e+07 2.64498e+07 2.64508e+07 2.64518e+07
          2.64038e+07 2.64051e+07 2.64064e+07 2.64076e+07 2.64088e+07 2.64099e+07 2.6411e+07 2.64122e+07 2.64131e+07 2.6414e+07 2.64149e+07 2.64157e+07
          2.64167e+07 2.64177e+07 2.64186e+07 2.64196e+07 2.64206e+07 2.64216e+07 2.64226e+07 2.64236e+07 2.64245e+07 2.64254e+07 2.64262e+07 2.64268e+07
          2.63794e+07 2.63809e+07 2.63823e+07 2.63835e+07 2.63847e+07 2.63859e+07 2.63871e+07 2.63882e+07 2.63893e+07 2.63902e+07 2.63911e+07 2.63919e+07
          2.63928e+07 2.63937e+07 2.63947e+07 2.63956e+07 2.63966e+07 2.63976e+07 2.63986e+07 2.63995e+07 2.64004e+07 2.64012e+07 2.64019e+07 2.64023e+07
          2.6355e+07 2.63565e+07 2.6358e+07 2.63593e+07 2.63605e+07 2.63618e+07 2.6363e+07 2.63642e+07 2.63653e+07 2.63662e+07 2.63671e+07 2.63679e+07
          2.63688e+07 2.63697e+07 2.63706e+07 2.63716e+07 2.63725e+07 2.63735e+07 2.63744e+07 2.63752e+07 2.63761e+07 2.63768e+07 2.63773e+07 2.63776e+07
          2.63303e+07 2.63319e+07 2.63334e+07 2.63348e+07 2.63362e+07 2.63375e+07 2.63388e+07 2.634e+07 2.63411e+07 2.6342e+07 2.63429e+07 2.63438e+07
          2.63447e+07 2.63456e+07 2.63465e+07 2.63474e+07 2.63483e+07 2.63492e+07 2.635e+07 2.63508e+07 2.63515e+07 2.6352e+07 2.63525e+07 2.63527e+07
          2.63058e+07 2.63074e+07 2.6309e+07 2.63105e+07 2.63119e+07 2.63132e+07 2.63146e+07 2.63159e+07 2.63169e+07 2.63179e+07 2.63188e+07 2.63197e+07
          2.63206e+07 2.63216e+07 2.63224e+07 2.63233e+07 2.63241e+07 2.63249e+07 2.63257e+07 2.63264e+07 2.6327e+07 2.63275e+07 2.63278e+07 2.6328e+07
          2.62813e+07 2.6283e+07 2.62846e+07 2.62861e+07 2.62876e+07 2.6289e+07 2.62904e+07 2.62917e+07 2.62928e+07 2.62939e+07 2.62948e+07 2.62957e+07
          2.62966e+07 2.62975e+07 2.62984e+07 2.62992e+07 2.63e+07 2.63007e+07 2.63014e+07 2.63021e+07 2.63026e+07 2.6303e+07 2.63033e+07 2.63035e+07
          2.62568e+07 2.62586e+07 2.62603e+07 2.62619e+07 2.62634e+07 2.62649e+07 2.62663e+07 2.62676e+07 2.62688e+07 2.62699e+07 2.62709e+07 2.62717e+07
          2.62726e+07 2.62735e+07 2.62743e+07 2.62751e+07 2.62759e+07 2.62766e+07 2.62773e+07 2.62778e+07 2.62783e+07 2.62787e+07 2.6279e+07 2.62791e+07
          2.62324e+07 2.62343e+07 2.62361e+07 2.62377e+07 2.62393e+07 2.62408e+07 2.62422e+07 2.62435e+07 2.62448e+07 2.62459e+07 2.62469e+07 2.62478e+07
          2.62486e+07 2.62495e+07 2.62503e+07 2.62511e+07 2.62518e+07 2.62525e+07 2.62531e+07 2.62537e+07 2.62542e+07 2.62545e+07 2.62548e+07 2.62549e+07
          2.62081e+07 2.62101e+07 2.6212e+07 2.62136e+07 2.62152e+07 2.62167e+07 2.62181e+07 2.62195e+07 2.62207e+07 2.62218e+07 2.62229e+07 2.62238e+07
          2.62246e+07 2.62255e+07 2.62263e+07 2.62271e+07 2.62278e+07 2.62285e+07 2.62291e+07 2.62297e+07 2.62301e+07 2.62305e+07 2.62307e+07 2.62308e+07
        </DataArray>
        <DataArray type="Float32" Name="p_gas" NumberOfComponents="1" format="ascii">
          2.65847e+07 2.65851e+07 2.65857e+07 2.65864e+07 2.65871e+07 2.65879e+07 2.65887e+07 2.65895e+07 2.65904e+07 2.65912e+07 2.65921e+07 2.65931e+07
          2.65941e+07 2.65951e+07 2.65962e+07 2.65972e+07 2.65983e+07 2.65993e+07 2.66003e+07 2.66013e+07 2.66022e+07 2.66031e+07 2.66038e+07 2.66041e+07
          2.65604e+07 2.6561e+07 2.65616e+07 2.65623e+07 2.65631e+07 2.65639e+07 2.65648e+07 2.65656e+07 2.65664e+07 2.65672e+07 2.65681e+07 2.65691e+07
          2.65701e+07 2.65712e+07 2.65722e+07 2.65733e+07 2.65743e+07 2.65754e+07 2.65764e+07 2.65774e+07 2.65784e+07 2.65793e+07 2.65801e+07 2.65806e+07
          2.6536e+07 2.65367e+07 2.65375e+07 2.65383e+07 2.65391e+07 2.654e+07 2.65408e+07 2.65417e+07 2.65425e+07 2.65433e+07 2.65442e+07 2.65451e+07
          2.65462e+07 2.65473e+07 2.65483e+07 2.65493e+07 2.65504e+07 2.65514e+07 2.65525e+07 2.65535e+07 2.65546e+07 2.65556e+07 2.65567e+07 2.65575e+07
          2.65116e+07 2.65124e+07 2.65133e+07 2.65141e+07 2.6515e+07 2.6516e+07 2.65169e+07 2.65178e+07 2.65186e+07 2.65195e+07 2.65203e+07 2.65212e+07
          2.65223e+07 2.65233e+07 2.65244e+07 2.65254e+07 2.65264e+07 2.65275e+07 2.65286e+07 2.65296e+07 2.65308e+07 2.6532e+07 2.65335e+07 2.65363e+07
          2.64871e+07 2.64881e+07 2.6489e+07 2.649e+07 2.6491e+07 2.64919e+07 2.64929e+07 2.64939e+07 2.64947e+07 2.64956e+07 2.64965e+07 2.64973e+07
          2.64984e+07 2.64994e+07 2.65004e+07 2.65015e+07 2.65025e+07 2.65036e+07 2.65046e+07 2.65057e+07 2.65069e+07 2.65082e+07 2.65098e+07 2.6513e+07
          2.64627e+07 2.64637e+07 2.64648e+07 2.64659e+07 2.64669e+07 2.64679e+07 2.6469e+07 2.647e+07 2.64709e+07 2.64717e+07 2.64726e+07 2.64735e+07
          2.64745e+07 2.64755e+07 2.64765e+07 2.64775e+07 2.64785e+07 2.64796e+07 2.64806e+07 2.64817e+07 2.64829e+07 2.64841e+07 2.64856e+07 2.64884e+07
          2.64382e+07 2.64394e+07 2.64406e+07 2.64417e+07 2.64428e+07 2.64439e+07 2.6445e+07 2.64461e+07 2.6447e+07 2.64479e+07 2.64487e+07 2.64496e+07
          2.64506e+07 2.64516e+07 2.64526e+07 2.64536e+07 2.64546e+07 2.64556e+07 2.64566e+07 2.64577e+07 2.64587e+07 2.64598e+07 2.64608e+07 2.64618e+07
          2.64138e+07 2.64151e+07 2.64164e+07 2.64176e+07 2.64188e+07 2.64199e+07 2.6421e+07 2.64222e+07 2.64231e+07 2.6424e+07 2.64249e+07 2.64257e+07
          2.64267e+07 2.64277e+07 2.64286e+07 2.64296e+07 2.64306e+07 2.64316e+07 2.64326e+07 2.64336e+07 2.64345e+07 2.64354e+07 2.64362e+07 2.64368e+07
          2.63894e+07 2.63909e+07 2.63923e+07 2.63935e+07 2.63947e+07 2.63959e+07 2.63971e+07 2.63982e+07 2.63993e+07 2.64002e+07 2.64011e+07 2.64019e+07
          2.64028e+07 2.64037e+07 2.64047e+07 2.64056e+07 2.64066e+07 2.64076e+07 2.64086e+07 2.64095e+07 2.64104e+07 2.64112e+07 2.64119e+07 2.64123e+07
          2.6365e+07 2.63665e+07 2.6368e+07 2.63693e+07 2.63705e+07 2.63718e+07 2.6373e+07 2.63742e+07 2.63753e+07 2.63762e+07 2.63771e+07 2.63779e+07
          2.63788e+07 2.63797e+07 2.63806e+07 2.63816e+07 2.63825e+07 2.63835e+07 2.63844e+07 2.63852e+07 2.63861e+07 2.63868e+07 2.63873e+07 2.63876e+07
          2.63403e+07 2.63419e+07 2.63434e+07 2.63448e+07 2.63462e+07 2.63475e+07 2.63488e+07 2.635e+07 2.63511e+07 2.6352e+07 2.63529e+07 2.63538e+07
          2.63547e+07 2.63556e+07 2.63565e+07 2.63574e+07 2.63583e+07 2.63592e+07 2.636e+07 2.63608e+07 2.63615e+07 2.6362e+07 2.63625e+07 2.63627e+07
          2.63158e+07 2.63174e+07 2.6319e+07 2.63205e+07 2.63219e+07 2.63232e+07 2.63246e+07 2.63259e+07 2.63269e+07 2.63279e+07 2.63288e+07 2.63297e+07
          2.63306e+07 2.63316e+07 2.63324e+07 2.63333e+07 2.63341e+07 2.63349e+07 2.63357e+07 2.63364e+07 2.6337e+07 2.63375e+07 2.63378e+07 2.6338e+07
          2.62913e+07 2.6293e+07 2.62946e+07 2.62961e+07 2.62976e+07 2.6299e+07 2.63004e+07 2.63017e+07 2.63028e+07 2.63039e+07 2.63048e+07 2.63057e+07
          2.63066e+07 2.63075e+07 2.63084e+07 2.63092e+07 2.631e+07 2.63107e+07 2.63114e+07 2.63121e+07 2.63126e+07 2.6313e+07 2.63133e+07 2.63135e+07
          2.62668e+07 2.62686e+07 2.62703e+07 2.62719e+07 2.62734e+07 2.62749e+07 2.62763e+07 2.62776e+07 2.62788e+07 2.62799e+07 2.62809e+07 2.62817e+07
          2.62826e+07 2.62835e+07 2.62843e+07 2.62851e+07 2.62859e+07 2.62866e+07 2.62873e+07 2.62878e+07 2.62883e+07 2.62887e+07 2.6289e+07 2.62891e+07
          2.62424e+07 2.62443e+07 2.62461e+07 2.62477e+07 2.62493e+07 2.62508e+07 2.62522e+07 2.62535e+07 2.62548e+07 2.62559e+07 2.62569e+07 2.62578e+07
          2.62586e+07 2.62595e+07 2.62603e+07 2.62611e+07 2.62618e+07 2.62625e+07 2.62631e+07 2.62637e+07 2.62642e+07 2.62645e+07 2.62648e+07 2.62649e+07
          2.62181e+07 2.62201e+07 2.6222e+07 2.62236e+07 2.62252e+07 2.62267e+07 2.62281e+07 2.62295e+07 2.62307e+07 2.62318e+07 2.62329e+07 2.62338e+07
          2.62346e+07 2.62355e+07 2.62363e+07 2.62371e+07 2.62378e+07 2.62385e+07 2.62391e+07 2.62397e+07 2.62401e+07 2.62405e+07 2.62407e+07 2.62408e+07
        </DataArray>
        <DataArray type="Float32" Name="pc" NumberOfComponents="1" format="ascii">
          10000 10000 10000 10000 10000 10000 10000 10000 10000 10000 10000 10000
          10000 10000 10000 10000 10000 10000 10000 10000 10000 10000 10000 10000
          10000 10000 10000 10000 10000 10000 10000 10000 10000 10000 10000 10000
          10000 10000 10000 10000 10000 10000 10000 10000 10000 10000 10000 10000
          10000 10000 10000 10000 10000 10000 10000 10000 10000 10000 10000 10000
          10000 10000 10000 10000 10000 10000 10000 10000 10000 10000 10000 10000
          10000 10000 10000 10000 10000 10000 10000 10000 10000 10000 10000 10000
          10000 10000 10000 10000 10000 10000 10000 10000 10000 10000 10001.1 10348.5
          10000 10000 10000 10000 10000 10000 10000 10000 10000 10000 10000 10000
          10000 10000 10000 10000 10000 10000 10000 10000 10000 10000 10001.3 10355.1
          10000 10000 10000 10000 10000 10000 10000 10000 10000 10000 10000 10000
          10000 10000 10000 10000 10000 10000 10000 10000 10000 10000 10001.2 10355.6
          10000 10000 10000 10000 10000 10000 10000 10000 10000 10000 10000 10000
          10000 10000 10000 10000 10000 10000 10000 10000 10000 10000 10000 10008.6
          10000 10000 10000 10000 10000 10000 10000 10000 10000 10000 10000 10000
          10000 10000 10000 10000 10000 10000 10000 10000 10000 10000 10000 10000
          10000 10000 10000 10000 10000 10000 10000 10000 10000 10000 10000 10000
          10000 10000 10000 10000 10000 10000 10000 10000 10000 10000 10000 10000
          10000 10000 10000 10000 10000 10000 10000 10000 10000 10000 10000 10000
          10000 10000 10000 10000 10000 10000 10000 10000 10000 10000 10000 10000
          10000 10000 10000 10000 10000 10000 10000 10000 10000 10000 10000 10000
          10000 10000 10000 10000 10000 10000 10000 10000 10000 10000 10000 10000
          10000 10000 10000 10000 10000 10000 10000 10000 10000 10000 10000 10000
          10000 10000 10000 10000 10000 10000 10000 10000 10000 10000 10000 10000
          10000 10000 10000 10000 10000 10000 10000 10000 10000 10000 10000 10000
          10000 10000 10000 10000 10000 10000 10000 10000 10000 10000 10000 10000
          10000 10000 10000 10000 10000 10000 10000 10000 10000 10000 10000 10000
          10000 10000 10000 10000 10000 10000 10000 10000 10000 10000 10000 10000
          10000 10000 10000 10000 10000 10000 10000 10000 10000 10000 10000 10000
          10000 10000 10000 10000 10000 10000 10000 10000 10000 10000 10000 10000
          10000 10000 10000 10000 10000 10000 10000 10000 10000 10000 10000 10000
          10000 10000 10000 10000 10000 10000 10000 10000 10000 10000 10000 10000
        </DataArray>
        <DataArray type="Float32" Name="rho_liq" NumberOfComponents="1" format="ascii">
          976.48 976.48 976.481 976.481 976.481 976.482 976.482 976.482 976.482 976.483 976.483 976.484
          976.484 976.484 976.485 976.485 976.486 976.486 976.487 976.487 976.487 976.488 976.488 976.488
          976.518 976.519 976.519 976.519 976.519 976.52 976.52 976.52 976.509 976.51 976.51 976.511
          976.522 976.523 976.523 976.524 976.524 976.525 976.525 976.525 976.526 976.526 976.527 976.527
          976.556 976.557 976.557 976.557 976.558 976.558 976.558 976.48 965.533 965.522 965.524 965.635
          976.55 976.561 976.562 976.562 976.562 976.563 976.563 976.564 976.564 976.565 976.565 976.566
          976.595 976.595 976.595 976.596 976.596 976.597 976.597 976.513 965.501 965.489 965.49 965.594
          976.588 976.6 976.6 976.601 976.601 976.601 976.602 976.602 976.603 976.603 976.604 976.605
          976.633 976.633 976.634 976.634 976.635 976.635 976.635 976.547 965.491 965.478 965.479 965.581
          976.626 976.638 976.638 976.639 976.639 976.64 976.64 976.641 976.641 976.642 976.642 976.643
          976.671 976.672 976.672 976.672 976.673 976.673 976.673 976.582 965.48 965.468 965.469 965.569
          976.665 976.677 976.677 976.677 976.678 976.678 976.679 976.679 976.68 976.68 976.68 976.681
          976.709 976.71 976.71 976.711 976.711 976.712 976.712 976.617 965.469 965.457 965.458 965.557
          976.703 976.715 976.715 976.716 976.716 976.717 976.717 976.717 976.718 976.718 976.718 976.718
          976.747 976.748 976.749 976.749 976.75 976.75 976.75 976.651 965.459 965.447 965.447 965.543
          976.741 976.753 976.754 976.754 976.755 976.755 976.755 976.756 976.756 976.756 976.757 976.757
          976.786 976.786 976.787 976.788 976.788 976.789 976.788 976.681 965.448 965.436 965.437 965.525
          976.78 976.792 976.792 976.793 976.793 976.793 976.794 976.794 976.794 976.795 976.795 976.795
          976.824 976.825 976.825 976.826 976.826 976.827 976.827 976.806 965.438 965.425 965.426 965.447
          976.818 976.83 976.831 976.831 976.831 976.832 976.832 976.832 976.833 976.833 976.833 976.833
          976.862 976.863 976.864 976.864 976.865 976.865 976.866 976.845 965.427 965.415 965.415 965.436
          976.856 976.869 976.869 976.869 976.87 976.87 976.87 976.871 976.871 976.871 976.871 976.871
          976.9 976.901 976.902 976.902 976.903 976.904 976.904 976.883 965.416 965.404 965.404 965.426
          976.895 976.907 976.907 976.908 976.908 976.908 976.909 976.909 976.909 976.909 976.909 976.91
          976.939 976.939 976.94 976.941 976.941 976.942 976.942 976.921 965.406 965.393 965.394 965.415
          976.933 976.945 976.946 976.946 976.946 976.947 976.947 976.947 976.947 976.948 976.948 976.948
          976.977 976.978 976.978 976.979 976.98 976.98 976.981 976.958 965.408 965.396 965.396 965.417
          976.971 976.984 976.984 976.984 976.985 976.985 976.985 976.985 976.986 976.986 976.986 976.986
          977.015 977.016 977.017 977.017 977.018 977.019 977.019 977.02 977.006 977.007 977.008 977.008
          977.022 977.022 977.022 977.023 977.023 977.023 977.024 977.024 977.024 977.024 977.024 977.024
          977.053 977.054 977.055 977.056 977.056 977.057 977.057 977.058 977.059 977.059 977.059 977.06
          977.06 977.06 977.061 977.061 977.061 977.062 977.062 977.062 977.062 977.062 977.063 977.063
        </DataArray>
        <DataArray type="Float32" Name="rho_gas" NumberOfComponents="1" format="ascii">
          246.097 246.101 246.106 246.112 246.119 246.127 246.134 246.142 246.149 246.157 246.165 246.174
          246.184 246.194 246.203 246.213 246.222 246.232 246.241 246.25 246.259 246.267 246.273 246.277
          245.923 245.928 245.934 245.941 245.948 245.955 245.963 245.971 245.966 245.974 245.982 245.991
          246.013 246.022 246.032 246.042 246.051 246.061 246.07 246.08 246.089 246.097 246.105 246.11
          245.747 245.754 245.761 245.768 245.776 245.784 245.792 245.718 235.365 235.363 235.372 235.477
          245.83 245.851 245.861 245.871 245.88 245.89 245.9 245.909 245.919 245.929 245.939 245.947
          245.572 245.579 245.587 245.595 245.604 245.612 245.62 245.541 235.135 235.132 235.14 235.238
          245.659 245.681 245.69 245.7 245.709 245.719 245.729 245.739 245.75 245.761 245.774 245.8
          245.396 245.405 245.414 245.422 245.431 245.44 245.449 245.367 234.924 234.921 234.929 235.025
          245.488 245.51 245.519 245.529 245.538 245.548 245.558 245.568 245.579 245.591 245.606 245.636
          245.22 245.23 245.24 245.249 245.259 245.269 245.278 245.192 234.712 234.709 234.717 234.812
          245.317 245.339 245.348 245.357 245.367 245.376 245.386 245.396 245.407 245.418 245.432 245.458
          245.044 245.055 245.066 245.076 245.087 245.097 245.106 245.017 234.5 234.497 234.505 234.598
          245.146 245.168 245.177 245.186 245.195 245.205 245.214 245.224 245.233 245.243 245.253 245.261
          244.868 244.88 244.892 244.903 244.914 244.925 244.934 244.841 234.289 234.286 234.294 234.384
          244.975 244.996 245.005 245.014 245.024 245.033 245.042 245.051 245.06 245.068 245.075 245.08
          244.693 244.707 244.719 244.731 244.742 244.753 244.763 244.662 234.077 234.075 234.083 234.167
          244.804 244.825 244.834 244.843 244.852 244.861 244.87 244.879 244.887 244.894 244.901 244.904
          244.516 244.531 244.544 244.556 244.568 244.579 244.59 244.579 233.865 233.862 233.87 233.895
          244.632 244.653 244.661 244.67 244.679 244.687 244.696 244.704 244.712 244.718 244.723 244.726
          244.338 244.353 244.367 244.38 244.393 244.405 244.416 244.406 233.65 233.648 233.656 233.681
          244.459 244.48 244.488 244.497 244.505 244.513 244.52 244.528 244.534 244.539 244.543 244.545
          244.161 244.176 244.191 244.204 244.217 244.23 244.242 244.232 233.436 233.434 233.442 233.468
          244.286 244.307 244.315 244.323 244.331 244.338 244.345 244.352 244.357 244.362 244.365 244.367
          243.984 244 244.015 244.029 244.043 244.056 244.069 244.058 233.223 233.22 233.229 233.255
          244.114 244.134 244.142 244.15 244.157 244.164 244.171 244.177 244.182 244.186 244.188 244.19
          243.807 243.824 243.84 243.854 243.869 243.882 243.895 243.884 233.021 233.019 233.028 233.054
          243.941 243.962 243.969 243.977 243.984 243.991 243.997 244.002 244.007 244.01 244.013 244.014
          243.631 243.649 243.665 243.68 243.695 243.709 243.722 243.734 243.731 243.742 243.752 243.76
          243.782 243.789 243.797 243.804 243.811 243.817 243.823 243.829 243.833 243.836 243.839 243.84
          243.455 243.474 243.492 243.507 243.522 243.536 243.549 243.561 243.573 243.583 243.592 243.601
          243.609 243.617 243.624 243.632 243.638 243.645 243.65 243.656 243.66 243.663 243.665 243.667
        </DataArray>
        <DataArray type="Float32" Name="mob_liq" NumberOfComponents="1" format="ascii">
          3140.03 3140.03 3140.03 3140.03 3140.03 3140.02 3140.02 3140.02 3140.02 3140.02 3140.02 3140.02
          3140.01 3140.01 3140.01 3140.01 3140.01 3140 3140 3140 3140 3139.99 3139.99 3139.99
          3137.47 3137.46 3137.46 3137.46 3137.45 3137.45 3137.45 3137.45 3138.06 3138.06 3138.06 3138.05
          3137.44 3137.44 3137.44 3137.44 3137.43 3137.43 3137.43 3137.43 3137.42 3137.42 3137.41 3137.4
          3134.9 3134.89 3134.89 3134.89 3134.88 3134.88 3134.9 3139.16 3707.49 3708.08 3707.96 3702.25
          3135.48 3134.87 3134.87 3134.86 3134.86 3134.86 3134.86 3134.86 3134.85 3134.85 3134.84 3134.81
          3132.33 3132.33 3132.32 3132.32 3132.32 3132.32 3132.34 3136.89 3708.67 3709.31 3709.28 3703.94
          3132.91 3132.3 3132.3 3132.3 3132.3 3132.29 3132.29 3132.29 3132.29 3132.28 3129.56 2381.46
          3129.77 3129.77 3129.76 3129.76 3129.76 3129.75 3129.77 3134.53 3708.75 3709.4 3709.37 3704.13
          3130.35 3129.74 3129.74 3129.74 3129.73 3129.73 3129.73 3129.73 3129.73 3129.72 3126.45 2367.35
          3127.21 3127.21 3127.2 3127.2 3127.2 3127.19 3127.22 3132.14 3708.84 3709.49 3709.46 3704.29
          3127.8 3127.18 3127.18 3127.18 3127.18 3127.17 3127.17 3127.17 3127.17 3127.17 3124.24 2364.61
          3124.66 3124.65 3124.65 3124.65 3124.64 3124.64 3124.67 3129.78 3708.92 3709.57 3709.54 3704.47
          3125.24 3124.63 3124.62 3124.62 3124.62 3124.62 3124.62 3124.62 3124.62 3124.62 3124.63 3103.15
          3122.11 3122.1 3122.1 3122.1 3122.09 3122.09 3122.12 3127.47 3709.01 3709.66 3709.63 3704.72
          3122.7 3122.08 3122.07 3122.07 3122.07 3122.07 3122.07 3122.07 3122.07 3122.07 3122.08 3122.08
          3119.56 3119.56 3119.55 3119.55 3119.55 3119.54 3119.58 3125.36 3709.09 3709.75 3709.72 3705.17
          3120.15 3119.53 3119.53 3119.53 3119.53 3119.53 3119.52 3119.52 3119.52 3119.52 3119.52 3119.53
          3117.02 3117.01 3117.01 3117.01 3117.01 3117 3117 3118.17 3709.17 3709.83 3709.83 3708.76
          3117.62 3116.99 3116.99 3116.99 3116.99 3116.98 3116.98 3116.98 3116.98 3116.98 3116.98 3116.98
          3114.48 3114.48 3114.47 3114.47 3114.47 3114.47 3114.47 3115.62 3709.25 3709.92 3709.92 3708.82
          3115.08 3114.45 3114.45 3114.45 3114.45 3114.45 3114.45 3114.44 3114.44 3114.44 3114.44 3114.44
          3111.95 3111.94 3111.94 3111.94 3111.94 3111.93 3111.93 3113.09 3709.34 3710.01 3710 3708.9
          3112.55 3111.92 3111.92 3111.92 3111.91 3111.91 3111.91 3111.91 3111.91 3111.91 3111.91 3111.91
          3109.42 3109.41 3109.41 3109.41 3109.41 3109.4 3109.4 3110.59 3709.42 3710.09 3710.09 3708.99
          3110.02 3109.39 3109.39 3109.39 3109.39 3109.38 3109.38 3109.38 3109.38 3109.38 3109.38 3109.38
          3106.89 3106.89 3106.89 3106.88 3106.88 3106.88 3106.88 3108.11 3708.82 3709.5 3709.49 3708.41
          3107.5 3106.86 3106.86 3106.86 3106.86 3106.86 3106.86 3106.86 3106.86 3106.86 3106.86 3106.86
          3104.37 3104.37 3104.37 3104.36 3104.36 3104.36 3104.36 3104.36 3105.1 3105.08 3105.06 3105.04
          3104.35 3104.34 3104.34 3104.34 3104.34 3104.34 3104.34 3104.34 3104.34 3104.34 3104.34 3104.33
          3101.86 3101.86 3101.85 3101.85 3101.85 3101.84 3101.84 3101.84 3101.84 3101.84 3101.83 3101.83
          3101.83 3101.83 3101.83 3101.83 3101.83 3101.82 3101.82 3101.82 3101.82 3101.82 3101.82 3101.82
        </DataArray>
        <DataArray type="Float32" Name="mob_gas" NumberOfComponents="1" format="ascii">
          0 0 0 0 0 0 0 0 0 0 0 0
          0 0 0 0 0 0 0 0 0 0 0 0
          0 0 0 0 0 0 0 0 0 0 0 0
          0 0 0 0 0 0 0 0 0 0 0 0
          0 0 0 0 0 0 0 0 0 0 0 0
          0 0 0 0 0 0 0 0 0 0 0 0
          0 0 0 0 0 0 0 0 0 0 0 0
          0 0 0 0 0 0 0 0 0 3.23831e-30 9.96661e-07 27.436
          0 0 0 0 0 0 0 0 0 0 0 0
          0 0 0 0 0 0 0 0 0 2.40773e-29 1.75042e-06 28.9369
          0 0 0 0 0 0 0 0 0 0 0 0
          0 0 0 0 0 0 0 0 0 6.76834e-30 1.25908e-06 29.0434
          0 0 0 0 0 0 0 0 0 0 0 0
          0 0 0 0 0 0 0 0 0 0 1.33586e-22 0.000501168
          0 0 0 0 0 0 0 0 0 0 0 0
          0 0 0 0 0 0 0 0 0 0 0 9.48932e-19
          0 0 0 0 0 0 0 0 0 0 0 0
          0 0 0 0 0 0 0 0 0 0 0 0
          0 0 0 0 0 0 0 0 0 0 0 0
          0 0 0 0 0 0 0 0 0 0 0 0
          0 0 0 0 0 0 0 0 0 0 0 0
          0 0 0 0 0 0 0 0 0 0 0 0
          0 0 0 0 0 0 0 0 0 0 0 0
          0 0 0 0 0 0 0 0 0 0 0 0
          0 0 0 0 0 0 0 0 0 0 0 0
          0 0 0 0 0 0 0 0 0 0 0 0
          0 0 0 0 0 0 0 0 0 0 0 0
          0 0 0 0 0 0 0 0 0 0 0 0
          0 0 0 0 0 0 0 0 0 0 0 0
          0 0 0 0 0 0 0 0 0 0 0 0
          0 0 0 0 0 0 0 0 0 0 0 0
          0 0 0 0 0 0 0 0 0 0 0 0
        </DataArray>
        <DataArray type="Float32" Name="porosity" NumberOfComponents="1" format="ascii">
          0.3 0.3 0.3 0.3 0.3 0.3 0.3 0.3 0.3 0.3 0.3 0.3
          0.3 0.3 0.3 0.3 0.3 0.3 0.3 0.3 0.3 0.3 0.3 0.3
          0.3 0.3 0.3 0.3 0.3 0.3 0.3 0.3 0.3 0.3 0.3 0.3
          0.3 0.3 0.3 0.3 0.3 0.3 0.3 0.3 0.3 0.3 0.3 0.3
          0.3 0.3 0.3 0.3 0.3 0.3 0.3 0.3 0.3 0.3 0.3 0.3
          0.3 0.3 0.3 0.3 0.3 0.3 0.3 0.3 0.3 0.3 0.3 0.3
          0.3 0.3 0.3 0.3 0.3 0.3 0.3 0.3 0.3 0.3 0.3 0.3
          0.3 0.3 0.3 0.3 0.3 0.3 0.3 0.3 0.3 0.3 0.3 0.3
          0.3 0.3 0.3 0.3 0.3 0.3 0.3 0.3 0.3 0.3 0.3 0.3
          0.3 0.3 0.3 0.3 0.3 0.3 0.3 0.3 0.3 0.3 0.3 0.3
          0.3 0.3 0.3 0.3 0.3 0.3 0.3 0.3 0.3 0.3 0.3 0.3
          0.3 0.3 0.3 0.3 0.3 0.3 0.3 0.3 0.3 0.3 0.3 0.3
          0.3 0.3 0.3 0.3 0.3 0.3 0.3 0.3 0.3 0.3 0.3 0.3
          0.3 0.3 0.3 0.3 0.3 0.3 0.3 0.3 0.3 0.3 0.3 0.3
          0.3 0.3 0.3 0.3 0.3 0.3 0.3 0.3 0.3 0.3 0.3 0.3
          0.3 0.3 0.3 0.3 0.3 0.3 0.3 0.3 0.3 0.3 0.3 0.3
          0.3 0.3 0.3 0.3 0.3 0.3 0.3 0.3 0.3 0.3 0.3 0.3
          0.3 0.3 0.3 0.3 0.3 0.3 0.3 0.3 0.3 0.3 0.3 0.3
          0.3 0.3 0.3 0.3 0.3 0.3 0.3 0.3 0.3 0.3 0.3 0.3
          0.3 0.3 0.3 0.3 0.3 0.3 0.3 0.3 0.3 0.3 0.3 0.3
          0.3 0.3 0.3 0.3 0.3 0.3 0.3 0.3 0.3 0.3 0.3 0.3
          0.3 0.3 0.3 0.3 0.3 0.3 0.3 0.3 0.3 0.3 0.3 0.3
          0.3 0.3 0.3 0.3 0.3 0.3 0.3 0.3 0.3 0.3 0.3 0.3
          0.3 0.3 0.3 0.3 0.3 0.3 0.3 0.3 0.3 0.3 0.3 0.3
          0.3 0.3 0.3 0.3 0.3 0.3 0.3 0.3 0.3 0.3 0.3 0.3
          0.3 0.3 0.3 0.3 0.3 0.3 0.3 0.3 0.3 0.3 0.3 0.3
          0.3 0.3 0.3 0.3 0.3 0.3 0.3 0.3 0.3 0.3 0.3 0.3
          0.3 0.3 0.3 0.3 0.3 0.3 0.3 0.3 0.3 0.3 0.3 0.3
          0.3 0.3 0.3 0.3 0.3 0.3 0.3 0.3 0.3 0.3 0.3 0.3
          0.3 0.3 0.3 0.3 0.3 0.3 0.3 0.3 0.3 0.3 0.3 0.3
          0.3 0.3 0.3 0.3 0.3 0.3 0.3 0.3 0.3 0.3 0.3 0.3
          0.3 0.3 0.3 0.3 0.3 0.3 0.3 0.3 0.3 0.3 0.3 0.3
        </DataArray>
        <DataArray type="Float32" Name="T" NumberOfComponents="1" format="ascii">
          363.962 363.962 363.962 363.962 363.962 363.962 363.963 363.963 363.963 363.963 363.963 363.963
          363.963 363.963 363.963 363.963 363.963 363.963 363.963 363.963 363.963 363.963 363.963 363.963
          363.888 363.888 363.888 363.888 363.888 363.888 363.888 363.888 363.905 363.905 363.905 363.905
          363.888 363.888 363.888 363.888 363.888 363.888 363.888 363.888 363.888 363.888 363.888 363.888
          363.813 363.813 363.813 363.813 363.813 363.813 363.813 363.935 379.953 379.969 379.966 379.81