<?xml version="1.0"?>
<VTKFile type="UnstructuredGrid" version="0.1" byte_order="LittleEndian">
  <UnstructuredGrid>
    <Piece NumberOfCells="384" NumberOfPoints="425">
      <PointData Scalars="Sn">
        <DataArray type="Float32" Name="Sn" NumberOfComponents="1" format="ascii">
          0 0 0 0 0 0 0 0 0 0 0 0
          0 0 0 0 0 0 0 0 0 0 0 0
          0 0 0 0 0 0 0 0 0 0 0 0
          0 0 0 0 0 0 0 0 0 0 0 0
          0 0 0 0 0 0 0 0 0 0 0 0
          0 0 0 0 0 0 0 0 0 0 0 0
          0 0 0 0 0 0 0 0 0 0 0 0
          0 0 0 0 0 0 0 0 0 0 0 0
          2.49613e-27 1.81723e-09 0.00151892 0.0987579 0 0 0 0 0 0 0 0
          0 0 0 0 0 0 0 0 0 0 0 0
          0 1.1767e-25 6.34053e-09 0.00215227 0.102935 0 0 0 0 0 0 0
          0 0 0 0 0 0 0 0 0 0 0 0
          0 0 1.79572e-25 7.25783e-09 0.00223286 0.103496 0 0 0 0 0 0
          0 0 0 0 0 0 0 0 0 0 0 0
          0 0 0 2.42415e-26 3.81296e-09 0.00189766 0.103525 0 0 0 0 0
          0 0 0 0 0 0 0 0 0 0 0 0
          0 0 0 0 0 2.26094e-20 3.9129e-07 0.00976878 0 0 0 0
          0 0 0 0 0 0 0 0 0 0 0 0
          0 0 0 0 0 0 0 1.76657e-17 5.36607e-06 0 0 0
          0 0 0 0 0 0 0 0 0 0 0 0
          0 0 0 0 0 0 0 0 0 1.42189e-16 0 0
          0 0 0 0 0 0 0 0 0 0 0 0
          0 0 0 0 0 0 0 0 0 0 3.0697e-38 0
          0 0 0 0 0 0 0 0 0 0 0 0
          0 0 0 0 0 0 0 0 0 0 0 0
          0 0 0 0 0 0 0 0 0 0 0 0
          0 0 0 0 0 0 0 0 0 0 0 0
          0 0 0 0 0 0 0 0 0 0 0 0
          0 0 0 0 0 0 0 0 0 0 0 0
          0 0 0 0 0 0 0 0 0 0 0 0
          0 0 0 0 0 0 0 0 0 0 0 0
          0 0 0 0 0 0 0 0 0 0 0 0
          0 0 0 0 0 0 0 0 0 0 0 0
          0 0 0 0 0 0 0 0 0 0 0 0
          0 0 0 0 0 0 0 0 0 0 0 0
          0 0 0 0 0
        </DataArray>
        <DataArray type="Float32" Name="Sw" NumberOfComponents="1" format="ascii">
          1 1 1 1 1 1 1 1 1 1 1 1
          1 1 1 1 1 1 1 1 1 1 1 1
          1 1 1 1 1 1 1 1 1 1 1 1
          1 1 1 1 1 1 1 1 1 1 1 1
          1 1 1 1 1 1 1 1 1 1 1 1
          1 1 1 1 1 1 1 1 1 1 1 1
          1 1 1 1 1 1 1 1 1 1 1 1
          1 1 1 1 1 1 1 1 1 1 1 1
          1 1 0.998481 0.901242 1 1 1 1 1 1 1 1
          1 1 1 1 1 1 1 1 1 1 1 1
          1 1 1 0.997848 0.897065 1 1 1 1 1 1 1
          1 1 1 1 1 1 1 1 1 1 1 1
          1 1 1 1 0.997767 0.896504 1 1 1 1 1 1
          1 1 1 1 1 1 1 1 1 1 1 1
          1 1 1 1 1 0.998102 0.896475 1 1 1 1 1
          1 1 1 1 1 1 1 1 1 1 1 1
          1 1 1 1 1 1 1 0.990231 1 1 1 1
          1 1 1 1 1 1 1 1 1 1 1 1
          1 1 1 1 1 1 1 1 0.999995 1 1 1
          1 1 1 1 1 1 1 1 1 1 1 1
          1 1 1 1 1 1 1 1 1 1 1 1
          1 1 1 1 1 1 1 1 1 1 1 1
          1 1 1 1 1 1 1 1 1 1 1 1
          1 1 1 1 1 1 1 1 1 1 1 1
          1 1 1 1 1 1 1 1 1 1 1 1
          1 1 1 1 1 1 1 1 1 1 1 1
          1 1 1 1 1 1 1 1 1 1 1 1
          1 1 1 1 1 1 1 1 1 1 1 1
          1 1 1 1 1 1 1 1 1 1 1 1
          1 1 1 1 1 1 1 1 1 1 1 1
          1 1 1 1 1 1 1 1 1 1 1 1
          1 1 1 1 1 1 1 1 1 1 1 1
          1 1 1 1 1 1 1 1 1 1 1 1
          1 1 1 1 1 1 1 1 1 1 1 1
          1 1 1 1 1 1 1 1 1 1 1 1
          1 1 1 1 1
        </DataArray>
        <DataArray type="Float32" Name="pn" NumberOfComponents="1" format="ascii">
          2.6597e+07 2.65974e+07 2.65725e+07 2.65733e+07 2.65982e+07 2.65742e+07 2.65992e+07 2.65752e+07 2.66003e+07 2.65764e+07 2.66015e+07 2.65775e+07
          2.66027e+07 2.65787e+07 2.66038e+07 2.65799e+07 2.6605e+07 2.6581e+07 2.66061e+07 2.65822e+07 2.66074e+07 2.65834e+07 2.66086e+07 2.65846e+07
          2.661e+07 2.6586e+07 2.66114e+07 2.65875e+07 2.66129e+07 2.65889e+07 2.66143e+07 2.65904e+07 2.66158e+07 2.65918e+07 2.66172e+07 2.65933e+07
          2.66186e+07 2.65947e+07 2.662e+07 2.65961e+07 2.66213e+07 2.65974e+07 2.66226e+07 2.65987e+07 2.66236e+07 2.65998e+07 2.66243e+07 2.66006e+07
          2.66246e+07 2.66009e+07 2.6548e+07 2.6549e+07 2.655e+07 2.65512e+07 2.65523e+07 2.65536e+07 2.65548e+07 2.65561e+07 2.65571e+07 2.65583e+07
          2.65595e+07 2.65607e+07 2.6562e+07 2.65635e+07 2.6565e+07 2.65665e+07 2.65679e+07 2.65694e+07 2.65708e+07 2.65722e+07 2.65736e+07 2.6575e+07
          2.65763e+07 2.65775e+07 2.65777e+07 2.65234e+07 2.65246e+07 2.65258e+07 2.6527e+07 2.65283e+07 2.65296e+07 2.65309e+07 2.65322e+07 2.65333e+07
          2.65345e+07 2.65357e+07 2.65369e+07 2.65382e+07 2.65396e+07 2.65411e+07 2.65426e+07 2.6544e+07 2.65454e+07 2.65469e+07 2.65483e+07 2.65498e+07
          2.65513e+07 2.65529e+07 2.65546e+07 2.65589e+07 2.64989e+07 2.65002e+07 2.65015e+07 2.65029e+07 2.65042e+07 2.65056e+07 2.65069e+07 2.65083e+07
          2.65095e+07 2.65107e+07 2.65119e+07 2.65131e+07 2.65143e+07 2.65157e+07 2.65172e+07 2.65186e+07 2.65201e+07 2.65215e+07 2.6523e+07 2.65244e+07
          2.6526e+07 2.65276e+07 2.65293e+07 2.65315e+07 2.65366e+07 2.64744e+07 2.64758e+07 2.64773e+07 2.64787e+07 2.64801e+07 2.64815e+07 2.6483e+07
          2.64844e+07 2.64856e+07 2.64868e+07 2.6488e+07 2.64892e+07 2.64904e+07 2.64919e+07 2.64933e+07 2.64947e+07 2.64961e+07 2.64976e+07 2.6499e+07
          2.65005e+07 2.65021e+07 2.65037e+07 2.65055e+07 2.65077e+07 2.6513e+07 2.64498e+07 2.64514e+07 2.6453e+07 2.64545e+07 2.6456e+07 2.64575e+07
          2.6459e+07 2.64605e+07 2.64617e+07 2.6463e+07 2.64642e+07 2.64654e+07 2.64666e+07 2.6468e+07 2.64694e+07 2.64708e+07 2.64722e+07 2.64736e+07
          2.64751e+07 2.64766e+07 2.64781e+07 2.64796e+07 2.64813e+07 2.64832e+07 2.64881e+07 2.64253e+07 2.64271e+07 2.64288e+07 2.64304e+07 2.6432e+07
          2.64335e+07 2.6435e+07 2.64366e+07 2.64379e+07 2.64391e+07 2.64404e+07 2.64416e+07 2.64427e+07 2.64441e+07 2.64455e+07 2.64468e+07 2.64482e+07
          2.64497e+07 2.64511e+07 2.64525e+07 2.6454e+07 2.64555e+07 2.6457e+07 2.64584e+07 2.64593e+07 2.64008e+07 2.64028e+07 2.64046e+07 2.64063e+07
          2.64079e+07 2.64095e+07 2.64111e+07 2.64126e+07 2.6414e+07 2.64153e+07 2.64166e+07 2.64178e+07 2.64189e+07 2.64202e+07 2.64215e+07 2.64229e+07
          2.64243e+07 2.64257e+07 2.64271e+07 2.64285e+07 2.64299e+07 2.64313e+07 2.64326e+07 2.64337e+07 2.6434e+07 2.63763e+07 2.63784e+07 2.63803e+07
          2.6382e+07 2.63837e+07 2.63853e+07 2.6387e+07 2.63886e+07 2.639e+07 2.63913e+07 2.63926e+07 2.63938e+07 2.63949e+07 2.63962e+07 2.63975e+07
          2.63988e+07 2.64002e+07 2.64015e+07 2.64029e+07 2.64042e+07 2.64055e+07 2.64067e+07 2.64078e+07 2.64086e+07 2.64089e+07 2.63518e+07 2.63538e+07
          2.63557e+07 2.63575e+07 2.63593e+07 2.6361e+07 2.63627e+07 2.63644e+07 2.63658e+07 2.63671e+07 2.63684e+07 2.63696e+07 2.63707e+07 2.63721e+07
          2.63733e+07 2.63746e+07 2.63759e+07 2.63772e+07 2.63784e+07 2.63796e+07 2.63807e+07 2.63817e+07 2.63825e+07 2.63831e+07 2.63833e+07 2.63272e+07
          2.63292e+07 2.63312e+07 2.63331e+07 2.63349e+07 2.63367e+07 2.63385e+07 2.63402e+07 2.63416e+07 2.63429e+07 2.63442e+07 2.63455e+07 2.63466e+07
          2.63479e+07 2.63492e+07 2.63504e+07 2.63517e+07 2.63528e+07 2.6354e+07 2.6355e+07 2.6356e+07 2.63569e+07 2.63575e+07 2.63579e+07 2.63581e+07
          2.63027e+07 2.63048e+07 2.63068e+07 2.63087e+07 2.63106e+07 2.63125e+07 2.63143e+07 2.6316e+07 2.63175e+07 2.63188e+07 2.63202e+07 2.63214e+07
          2.63225e+07 2.63238e+07 2.63251e+07 2.63263e+07 2.63275e+07 2.63286e+07 2.63296e+07 2.63306e+07 2.63315e+07 2.63322e+07 2.63327e+07 2.63331e+07
          2.63332e+07 2.62782e+07 2.62803e+07 2.62824e+07 2.62844e+07 2.62864e+07 2.62883e+07 2.62901e+07 2.62919e+07 2.62934e+07 2.62948e+07 2.62962e+07
          2.62974e+07 2.62985e+07 2.62998e+07 2.6301e+07 2.63022e+07 2.63033e+07 2.63044e+07 2.63053e+07 2.63062e+07 2.6307e+07 2.63077e+07 2.63082e+07
          2.63085e+07 2.63086e+07 2.62536e+07 2.62559e+07 2.62581e+07 2.62602e+07 2.62622e+07 2.62641e+07 2.6266e+07 2.62678e+07 2.62694e+07 2.62709e+07
          2.62722e+07 2.62735e+07 2.62746e+07 2.62758e+07 2.6277e+07 2.62781e+07 2.62792e+07 2.62802e+07 2.62811e+07 2.6282e+07 2.62827e+07 2.62833e+07
          2.62838e+07 2.62841e+07 2.62842e+07 2.62291e+07 2.62316e+07 2.62339e+07 2.62361e+07 2.62381e+07 2.62401e+07 2.62419e+07 2.62437e+07 2.62454e+07
          2.62469e+07 2.62483e+07 2.62496e+07 2.62508e+07 2.62519e+07 2.6253e+07 2.62541e+07 2.62551e+07 2.62561e+07 2.6257e+07 2.62579e+07 2.62586e+07
          2.62592e+07 2.62596e+07 2.62598e+07 2.62599e+07 2.62046e+07 2.62075e+07 2.62099e+07 2.6212e+07 2.62141e+07 2.62161e+07 2.62179e+07 2.62197e+07
          2.62214e+07 2.62229e+07 2.62243e+07 2.62256e+07 2.62268e+07 2.62279e+07 2.6229e+07 2.62301e+07 2.62311e+07 2.62321e+07 2.6233e+07 2.62338e+07
          2.62345e+07 2.62351e+07 2.62355e+07 2.62358e+07 2.62359e+07
        </DataArray>
        <DataArray type="Float32" Name="pw" NumberOfComponents="1" format="ascii">
          2.6587e+07 2.65874e+07 2.65625e+07 2.65633e+07 2.65882e+07 2.65642e+07 2.65892e+07 2.65652e+07 2.65903e+07 2.65664e+07 2.65915e+07 2.65675e+07
          2.65927e+07 2.65687e+07 2.65938e+07 2.65699e+07 2.6595e+07 2.6571e+07 2.65961e+07 2.65722e+07 2.65974e+07 2.65734e+07 2.65986e+07 2.65746e+07
          2.66e+07 2.6576e+07 2.66014e+07 2.65775e+07 2.66029e+07 2.65789e+07 2.66043e+07 2.65804e+07 2.66058e+07 2.65818e+07 2.66072e+07 2.65833e+07
          2.66086e+07 2.65847e+07 2.661e+07 2.65861e+07 2.66113e+07 2.65874e+07 2.66126e+07 2.65887e+07 2.66136e+07 2.65898e+07 2.66143e+07 2.65906e+07
          2.66146e+07 2.65909e+07 2.6538e+07 2.6539e+07 2.654e+07 2.65412e+07 2.65423e+07 2.65436e+07 2.65448e+07 2.65461e+07 2.65471e+07 2.65483e+07
          2.65495e+07 2.65507e+07 2.6552e+07 2.65535e+07 2.6555e+07 2.65565e+07 2.65579e+07 2.65594e+07 2.65608e+07 2.65622e+07 2.65636e+07 2.6565e+07
          2.65663e+07 2.65675e+07 2.65677e+07 2.65134e+07 2.65146e+07 2.65158e+07 2.6517e+07 2.65183e+07 2.65196e+07 2.65209e+07 2.65222e+07 2.65233e+07
          2.65245e+07 2.65257e+07 2.65269e+07 2.65282e+07 2.65296e+07 2.65311e+07 2.65326e+07 2.6534e+07 2.65354e+07 2.65369e+07 2.65383e+07 2.65398e+07
          2.65413e+07 2.65429e+07 2.65446e+07 2.65482e+07 2.64889e+07 2.64902e+07 2.64915e+07 2.64929e+07 2.64942e+07 2.64956e+07 2.64969e+07 2.64983e+07
          2.64995e+07 2.65007e+07 2.65019e+07 2.65031e+07 2.65043e+07 2.65057e+07 2.65072e+07 2.65086e+07 2.65101e+07 2.65115e+07 2.6513e+07 2.65144e+07
          2.6516e+07 2.65176e+07 2.65193e+07 2.65215e+07 2.65259e+07 2.64644e+07 2.64658e+07 2.64673e+07 2.64687e+07 2.64701e+07 2.64715e+07 2.6473e+07
          2.64744e+07 2.64756e+07 2.64768e+07 2.6478e+07 2.64792e+07 2.64804e+07 2.64819e+07 2.64833e+07 2.64847e+07 2.64861e+07 2.64876e+07 2.6489e+07
          2.64905e+07 2.64921e+07 2.64937e+07 2.64955e+07 2.64977e+07 2.65022e+07 2.64398e+07 2.64414e+07 2.6443e+07 2.64445e+07 2.6446e+07 2.64475e+07
          2.6449e+07 2.64505e+07 2.64517e+07 2.6453e+07 2.64542e+07 2.64554e+07 2.64566e+07 2.6458e+07 2.64594e+07 2.64608e+07 2.64622e+07 2.64636e+07
          2.64651e+07 2.64666e+07 2.64681e+07 2.64696e+07 2.64713e+07 2.64732e+07 2.64774e+07 2.64153e+07 2.64171e+07 2.64188e+07 2.64204e+07 2.6422e+07
          2.64235e+07 2.6425e+07 2.64266e+07 2.64279e+07 2.64291e+07 2.64304e+07 2.64316e+07 2.64327e+07 2.64341e+07 2.64355e+07 2.64368e+07 2.64382e+07
          2.64397e+07 2.64411e+07 2.64425e+07 2.6444e+07 2.64455e+07 2.6447e+07 2.64484e+07 2.64492e+07 2.63908e+07 2.63928e+07 2.63946e+07 2.63963e+07
          2.63979e+07 2.63995e+07 2.64011e+07 2.64026e+07 2.6404e+07 2.64053e+07 2.64066e+07 2.64078e+07 2.64089e+07 2.64102e+07 2.64115e+07 2.64129e+07
          2.64143e+07 2.64157e+07 2.64171e+07 2.64185e+07 2.64199e+07 2.64213e+07 2.64226e+07 2.64237e+07 2.6424e+07 2.63663e+07 2.63684e+07 2.63703e+07
          2.6372e+07 2.63737e+07 2.63753e+07 2.6377e+07 2.63786e+07 2.638e+07 2.63813e+07 2.63826e+07 2.63838e+07 2.63849e+07 2.63862e+07 2.63875e+07
          2.63888e+07 2.63902e+07 2.63915e+07 2.63929e+07 2.63942e+07 2.63955e+07 2.63967e+07 2.63978e+07 2.63986e+07 2.63989e+07 2.63418e+07 2.63438e+07
          2.63457e+07 2.63475e+07 2.63493e+07 2.6351e+07 2.63527e+07 2.63544e+07 2.63558e+07 2.63571e+07 2.63584e+07 2.63596e+07 2.63607e+07 2.63621e+07
          2.63633e+07 2.63646e+07 2.63659e+07 2.63672e+07 2.63684e+07 2.63696e+07 2.63707e+07 2.63717e+07 2.63725e+07 2.63731e+07 2.63733e+07 2.63172e+07
          2.63192e+07 2.63212e+07 2.63231e+07 2.63249e+07 2.63267e+07 2.63285e+07 2.63302e+07 2.63316e+07 2.63329e+07 2.63342e+07 2.63355e+07 2.63366e+07
          2.63379e+07 2.63392e+07 2.63404e+07 2.63417e+07 2.63428e+07 2.6344e+07 2.6345e+07 2.6346e+07 2.63469e+07 2.63475e+07 2.63479e+07 2.63481e+07
          2.62927e+07 2.62948e+07 2.62968e+07 2.62987e+07 2.63006e+07 2.63025e+07 2.63043e+07 2.6306e+07 2.63075e+07 2.63088e+07 2.63102e+07 2.63114e+07
          2.63125e+07 2.63138e+07 2.63151e+07 2.63163e+07 2.63175e+07 2.63186e+07 2.63196e+07 2.63206e+07 2.63215e+07 2.63222e+07 2.63227e+07 2.63231e+07
          2.63232e+07 2.62682e+07 2.62703e+07 2.62724e+07 2.62744e+07 2.62764e+07 2.62783e+07 2.62801e+07 2.62819e+07 2.62834e+07 2.62848e+07 2.62862e+07
          2.62874e+07 2.62885e+07 2.62898e+07 2.6291e+07 2.62922e+07 2.62933e+07 2.62944e+07 2.62953e+07 2.62962e+07 2.6297e+07 2.62977e+07 2.62982e+07
          2.62985e+07 2.62986e+07 2.62436e+07 2.62459e+07 2.62481e+07 2.62502e+07 2.62522e+07 2.62541e+07 2.6256e+07 2.62578e+07 2.62594e+07 2.62609e+07
          2.62622e+07 2.62635e+07 2.62646e+07 2.62658e+07 2.6267e+07 2.62681e+07 2.62692e+07 2.62702e+07 2.62711e+07 2.6272e+07 2.62727e+07 2.62733e+07
          2.62738e+07 2.62741e+07 2.62742e+07 2.62191e+07 2.62216e+07 2.62239e+07 2.62261e+07 2.62281e+07 2.62301e+07 2.62319e+07 2.62337e+07 2.62354e+07
          2.62369e+07 2.62383e+07 2.62396e+07 2.62408e+07 2.62419e+07 2.6243e+07 2.62441e+07 2.62451e+07 2.62461e+07 2.6247e+07 2.62479e+07 2.62486e+07
          2.62492e+07 2.62496e+07 2.62498e+07 2.62499e+07 2.61946e+07 2.61975e+07 2.61999e+07 2.6202e+07 2.62041e+07 2.62061e+07 2.62079e+07 2.62097e+07
          2.62114e+07 2.62129e+07 2.62143e+07 2.62156e+07 2.62168e+07 2.62179e+07 2.6219e+07 2.62201e+07 2.62211e+07 2.62221e+07 2.6223e+07 2.62238e+07
          2.62245e+07 2.62251e+07 2.62255e+07 2.62258e+07 2.62259e+07
        </DataArray>
        <DataArray type="Float32" Name="pc" NumberOfComponents="1" format="ascii">
          10000 10000 10000 10000 10000 10000 10000 10000 10000 10000 10000 10000
          10000 10000 10000 10000 10000 10000 10000 10000 10000 10000 10000 10000
          10000 10000 10000 10000 10000 10000 10000 10000 10000 10000 10000 10000
          10000 10000 10000 10000 10000 10000 10000 10000 10000 10000 10000 10000
          10000 10000 10000 10000 10000 10000 10000 10000 10000 10000 10000 10000
          10000 10000 10000 10000 10000 10000 10000 10000 10000 10000 10000 10000
          10000 10000 10000 10000 10000 10000 10000 10000 10000 10000 10000 10000
          10000 10000 10000 10000 10000 10000 10000 10000 10000 10000 10000 10000
          10000 10000 10009.5 10681 10000 10000 10000 10000 10000 10000 10000 10000
          10000 10000 10000 10000 10000 10000 10000 10000 10000 10000 10000 10000
          10000 10000 10000 10013.5 10712.9 10000 10000 10000 10000 10000 10000 10000
          10000 10000 10000 10000 10000 10000 10000 10000 10000 10000 10000 10000
          10000 10000 10000 10000 10014 10717.2 10000 10000 10000 10000 10000 10000
          10000 10000 10000 10000 10000 10000 10000 10000 10000 10000 10000 10000
          10000 10000 10000 10000 10000 10011.9 10717.5 10000 10000 10000 10000 10000
          10000 10000 10000 10000 10000 10000 10000 10000 10000 10000 10000 10000
          10000 10000 10000 10000 10000 10000 10000 10061.6 10000 10000 10000 10000
          10000 10000 10000 10000 10000 10000 10000 10000 10000 10000 10000 10000
          10000 10000 10000 10000 10000 10000 10000 10000 10000 10000 10000 10000
          10000 10000 10000 10000 10000 10000 10000 10000 10000 10000 10000 10000
          10000 10000 10000 10000 10000 10000 10000 10000 10000 10000 10000 10000
          10000 10000 10000 10000 10000 10000 10000 10000 10000 10000 10000 10000
          10000 10000 10000 10000 10000 10000 10000 10000 10000 10000 10000 10000
          10000 10000 10000 10000 10000 10000 10000 10000 10000 10000 10000 10000
          10000 10000 10000 10000 10000 10000 10000 10000 10000 10000 10000 10000
          10000 10000 10000 10000 10000 10000 10000 10000 10000 10000 10000 10000
          10000 10000 10000 10000 10000 10000 10000 10000 10000 10000 10000 10000
          10000 10000 10000 10000 10000 10000 10000 10000 10000 10000 10000 10000
          10000 10000 10000 10000 10000 10000 10000 10000 10000 10000 10000 10000
          10000 10000 10000 10000 10000 10000 10000 10000 10000 10000 10000 10000
          10000 10000 10000 10000 10000 10000 10000 10000 10000 10000 10000 10000
          10000 10000 10000 10000 10000 10000 10000 10000 10000 10000 10000 10000
          10000 10000 10000 10000 10000 10000 10000 10000 10000 10000 10000 10000
          10000 10000 10000 10000 10000 10000 10000 10000 10000 10000 10000 10000
          10000 10000 10000 10000 10000 10000 10000 10000 10000 10000 10000 10000
          10000 10000 10000 10000 10000
        </DataArray>
        <DataArray type="Float32" Name="rhoW" NumberOfComponents="1" format="ascii">
          976.461 976.461 976.499 976.499 976.462 976.5 976.462 976.5 976.462 976.501 976.463 976.501
          976.464 976.502 976.464 976.499 976.464 976.494 976.465 976.492 976.466 976.492 976.466 976.493
          976.467 976.496 976.467 976.503 976.468 976.506 976.469 976.507 976.469 976.507 976.47 976.508
          976.47 976.508 976.471 976.509 976.471 976.51 976.472 976.51 976.472 976.511 976.473 976.511
          976.473 976.511 976.537 976.538 976.538 976.539 976.539 976.54 976.54 976.435 965.534 965.526
          965.527 965.531 965.674 976.535 976.544 976.545 976.546 976.546 976.547 976.547 976.548 976.549
          976.549 976.55 976.55 976.576 976.576 976.576 976.577 976.578 976.578 976.578 976.465 965.508
          965.496 965.496 965.498 965.637 976.571 976.583 976.583 976.584 976.585 976.585 976.586 976.586
          976.587 976.588 976.589 976.59 976.614 976.614 976.615 976.615 976.616 976.616 976.616 976.499
          965.497 965.485 965.486 965.487 965.623 976.609 976.621 976.622 976.622 976.623 976.624 976.624
          976.625 976.625 976.626 976.627 976.63 976.652 976.652 976.653 976.654 976.654 976.655 976.655
          976.534 965.486 965.474 965.475 965.476 965.611 976.648 976.66 976.66 976.661 976.661 976.662
          976.663 976.663 976.664 976.665 976.666 976.668 976.69 976.691 976.691 976.692 976.693 976.693
          976.693 976.568 965.476 965.464 965.464 965.466 965.599 976.686 976.698 976.699 976.699 976.7
          976.7 976.701 976.702 976.702 976.703 976.704 976.706 976.728 976.729 976.73 976.73 976.731
          976.732 976.731 976.601 965.465 965.453 965.454 965.455 965.584 976.724 976.737 976.737 976.738
          976.738 976.739 976.739 976.74 976.741 976.741 976.741 976.743 976.766 976.767 976.768 976.769
          976.769 976.77 976.77 976.631 965.455 965.443 965.443 965.445 965.567 976.763 976.775 976.776
          976.776 976.777 976.777 976.778 976.778 976.779 976.779 976.78 976.781 976.805 976.805 976.806
          976.807 976.808 976.808 976.809 976.785 965.444 965.432 965.432 965.433 965.457 976.801 976.813
          976.814 976.814 976.815 976.816 976.816 976.817 976.817 976.818 976.818 976.819 976.843 976.844
          976.844 976.845 976.846 976.847 976.847 976.823 965.434 965.421 965.422 965.422 965.447 976.839
          976.852 976.852 976.853 976.853 976.854 976.854 976.855 976.855 976.855 976.856 976.856 976.881
          976.882 976.883 976.883 976.884 976.885 976.886 976.861 965.423 965.41 965.411 965.412 965.437
          976.878 976.89 976.891 976.891 976.891 976.892 976.892 976.893 976.893 976.893 976.894 976.894
          976.919 976.92 976.921 976.922 976.922 976.923 976.924 976.899 965.412 965.4 965.4 965.401
          965.426 976.916 976.928 976.929 976.929 976.93 976.93 976.931 976.931 976.931 976.932 976.932
          976.932 976.957 976.958 976.959 976.96 976.961 976.962 976.962 976.937 965.402 965.389 965.39
          965.39 965.415 976.954 976.967 976.967 976.968 976.968 976.969 976.969 976.969 976.969 976.97
          976.97 976.97 976.996 976.997 976.997 976.998 976.999 977 977.001 976.977 965.401 965.392
          965.392 965.393 965.414 976.996 977.005 977.006 977.006 977.006 977.007 977.007 977.008 977.008
          977.008 977.008 977.009 977.034 977.035 977.036 977.037 977.037 977.038 977.039 977.037 977.029
          977.028 977.028 977.029 977.033 977.04 977.044 977.044 977.044 977.045 977.045 977.046 977.046
          977.046 977.046 977.046 977.047 977.072 977.073 977.074 977.075 977.076 977.077 977.078 977.078
          977.079 977.08 977.08 977.081 977.081 977.082 977.082 977.083 977.083 977.084 977.084 977.084
          977.085 977.085 977.085 977.085 977.085
        </DataArray>
        <DataArray type="Float32" Name="rhoN" NumberOfComponents="1" format="ascii">
          246.185 246.189 246.009 246.016 246.197 246.025 246.206 246.035 246.216 246.045 246.227 246.056
          246.238 246.067 246.249 246.075 246.259 246.079 246.27 246.087 246.281 246.098 246.293 246.11
          246.306 246.125 246.319 246.145 246.333 246.161 246.346 246.175 246.359 246.188 246.373 246.201
          246.386 246.215 246.399 246.227 246.411 246.24 246.422 246.252 246.432 246.262 246.438 246.269
          246.441 246.272 245.833 245.842 245.852 245.862 245.873 245.885 245.895 245.798 235.49 235.493
          235.505 235.519 235.654 245.968 245.99 246.004 246.017 246.031 246.044 246.057 246.07 246.083
          246.095 246.107 246.109 245.656 245.667 245.678 245.69 245.701 245.713 245.724 245.619 235.266
          235.265 235.276 235.288 235.419 245.794 245.82 245.833 245.846 245.86 245.873 245.887 245.9
          245.914 245.929 245.945 245.985 245.48 245.492 245.504 245.516 245.529 245.541 245.553 245.444
          235.054 235.054 235.065 235.076 235.205 245.624 245.649 245.662 245.676 245.689 245.702 245.716
          245.73 245.745 245.761 245.781 245.829 245.303 245.316 245.33 245.343 245.356 245.369 245.382
          245.269 234.843 234.843 234.853 234.865 234.992 245.453 245.478 245.491 245.504 245.518 245.531
          245.545 245.559 245.574 245.591 245.612 245.661 245.126 245.141 245.156 245.17 245.184 245.197
          245.21 245.093 234.631 234.631 234.642 234.653 234.779 245.282 245.307 245.32 245.333 245.346
          245.36 245.373 245.387 245.402 245.417 245.435 245.481 244.95 244.966 244.982 244.997 245.011
          245.025 245.039 244.917 234.42 234.42 234.431 234.442 234.564 245.112 245.136 245.149 245.162
          245.175 245.188 245.202 245.215 245.229 245.242 245.256 245.265 244.773 244.792 244.808 244.824
          244.839 244.853 244.867 244.737 234.208 234.209 234.22 234.231 234.347 244.94 244.965 244.977
          244.99 245.003 245.016 245.029 245.042 245.055 245.067 245.077 245.081 244.596 244.616 244.633
          244.649 244.665 244.68 244.695 244.684 233.995 233.996 234.007 234.018 234.049 244.768 244.792
          244.805 244.817 244.83 244.842 244.854 244.866 244.878 244.888 244.895 244.898 244.419 244.438
          244.456 244.473 244.489 244.505 244.52 244.51 233.78 233.781 233.792 233.803 233.834 244.595
          244.619 244.631 244.643 244.654 244.666 244.677 244.687 244.696 244.704 244.709 244.711 244.242
          244.261 244.279 244.296 244.313 244.33 244.346 244.336 233.566 233.567 233.578 233.589 233.621
          244.421 244.445 244.457 244.468 244.479 244.49 244.499 244.508 244.516 244.522 244.526 244.528
          244.065 244.084 244.103 244.121 244.138 244.155 244.172 244.162 233.352 233.353 233.365 233.376
          233.407 244.248 244.272 244.283 244.294 244.304 244.314 244.323 244.331 244.338 244.343 244.346
          244.348 243.888 243.907 243.927 243.946 243.964 243.981 243.998 243.988 233.139 233.14 233.152
          233.163 233.194 244.076 244.099 244.11 244.12 244.13 244.139 244.148 244.155 244.161 244.165
          244.168 244.17 243.71 243.731 243.752 243.771 243.79 243.808 243.825 243.817 232.935 232.939
          232.951 232.963 232.99 243.907 243.927 243.937 243.947 243.956 243.965 243.973 243.98 243.985
          243.99 243.992 243.994 243.533 243.556 243.577 243.597 243.616 243.634 243.652 243.665 243.672
          243.684 243.697 243.709 243.723 243.741 243.754 243.764 243.774 243.783 243.792 243.799 243.806
          243.811 243.815 243.818 243.819 243.356 243.382 243.404 243.425 243.444 243.462 243.479 243.496
          243.511 243.525 243.538 243.55 243.561 243.572 243.582 243.592 243.602 243.611 243.62 243.627
          243.634 243.639 243.643 243.645 243.646
        </DataArray>
        <DataArray type="Float32" Name="mobW" NumberOfComponents="1" format="ascii">
          3141.32 3141.32 3138.74 3138.75 3141.32 3138.74 3141.31 3138.74 3141.31 3138.74 3141.31 3138.74
          3141.31 3138.74 3141.3 3138.89 3141.3 3139.19 3141.3 3139.34 3141.29 3139.34 3141.29 3139.34
          3141.29 3139.18 3141.28 3138.87 3141.28 3138.72 3141.28 3138.71 3141.27 3138.71 3141.27 3138.71
          3141.26 3138.71 3141.26 3138.7 3141.26 3138.7 3141.25 3138.7 3141.25 3138.69 3141.25 3138.68
          3141.25 3138.67 3136.17 3136.18 3136.17 3136.17 3136.17 3136.16 3136.2 3141.89 3707.75 3708.17
          3708.12 3707.94 3700.57 3136.6 3136.14 3136.14 3136.14 3136.14 3136.13 3136.13 3136.13 3136.12
          3136.11 3136.09 3136.09 3133.6 3133.61 3133.61 3133.6 3133.6 3133.6 3133.63 3139.75 3708.62
          3709.26 3709.26 3709.2 3702.06 3134.18 3133.57 3133.57 3133.57 3133.57 3133.56 3133.56 3133.56
          3133.55 3133.55 3109.81 1849.88 3131.04 3131.05 3131.04 3131.04 3131.03 3131.03 3131.07 3137.42
          3708.71 3709.35 3709.35 3709.29 3702.28 3131.62 3131.01 3131.01 3131.01 3131 3131 3131
          3131 3130.99 3130.99 3097.43 1804.71 3128.48 3128.49 3128.48 3128.48 3128.47 3128.47 3128.51
          3135.07 3708.79 3709.44 3709.43 3709.38 3702.45 3129.06 3128.45 3128.45 3128.44 3128.44 3128.44
          3128.44 3128.44 3128.43 3128.43 3093.64 1797.44 3125.93 3125.93 3125.93 3125.92 3125.92 3125.92
          3125.96 3132.72 3708.88 3709.52 3709.52 3709.47 3702.64 3126.51 3125.89 3125.89 3125.89 3125.89
          3125.88 3125.88 3125.88 3125.88 3125.88 3096.33 1795.67 3123.37 3123.38 3123.37 3123.37 3123.37
          3123.36 3123.41 3130.46 3708.96 3709.61 3709.61 3709.56 3702.91 3123.96 3123.34 3123.34 3123.34
          3123.33 3123.33 3123.33 3123.33 3123.33 3123.33 3123.34 2973.5 3120.83 3120.83 3120.83 3120.82
          3120.82 3120.81 3120.87 3128.35 3709.04 3709.69 3709.69 3709.65 3703.35 3121.42 3120.79 3120.79
          3120.79 3120.79 3120.79 3120.78 3120.78 3120.78 3120.78 3120.79 3120.66 3118.29 3118.28 3118.28
          3118.28 3118.27 3118.27 3118.27 3119.61 3709.12 3709.78 3709.78 3709.77 3708.54 3118.88 3118.25
          3118.25 3118.25 3118.24 3118.24 3118.24 3118.24 3118.24 3118.24 3118.24 3118.2 3115.75 3115.74
          3115.74 3115.74 3115.73 3115.73 3115.73 3117.06 3709.2 3709.87 3709.87 3709.86 3708.6 3116.34
          3115.71 3115.71 3115.71 3115.71 3115.7 3115.7 3115.7 3115.7 3115.7 3115.7 3115.66 3113.21
          3113.21 3113.21 3113.2 3113.2 3113.2 3113.2 3114.53 3709.29 3709.96 3709.95 3709.95 3708.68
          3113.81 3113.18 3113.17 3113.17 3113.17 3113.17 3113.17 3113.17 3113.16 3113.16 3113.16 3113.13
          3110.68 3110.68 3110.68 3110.67 3110.67 3110.67 3110.66 3112.02 3709.37 3710.04 3710.04 3710.04
          3708.77 3111.28 3110.65 3110.64 3110.64 3110.64 3110.64 3110.64 3110.64 3110.63 3110.63 3110.63
          3110.6 3108.16 3108.15 3108.15 3108.15 3108.14 3108.14 3108.14 3109.52 3709.46 3710.13 3710.13
          3710.12 3708.87 3108.75 3108.12 3108.12 3108.11 3108.11 3108.11 3108.11 3108.11 3108.11 3108.11
          3108.11 3108.08 3105.63 3105.63 3105.63 3105.62 3105.62 3105.62 3105.61 3106.88 3709.03 3709.53
          3709.53 3709.53 3708.47 3106.07 3105.59 3105.59 3105.59 3105.59 3105.59 3105.59 3105.59 3105.58
          3105.58 3105.58 3105.55 3103.11 3103.11 3103.11 3103.1 3103.1 3103.1 3103.09 3103.25 3103.67
          3103.8 3103.79 3103.78 3103.6 3103.24 3103.08 3103.07 3103.07 3103.07 3103.07 3103.07 3103.07
          3103.07 3103.07 3103.06 3103.04 3100.6 3100.59 3100.59 3100.58 3100.58 3100.57 3100.57 3100.56
          3100.56 3100.55 3100.55 3100.55 3100.54 3100.54 3100.54 3100.54 3100.53 3100.53 3100.53 3100.53
          3100.52 3100.52 3100.52 3100.52 3100.52
        </DataArray>
        <DataArray type="Float32" Name="mobN" NumberOfComponents="1" format="ascii">
          0 0 0 0 0 0 0 0 0 0 0 0
          0 0 0 0 0 0 0 0 0 0 0 0
          0 0 0 0 0 0 0 0 0 0 0 0
          0 0 0 0 0 0 0 0 0 0 0 0
          0 0 0 0 0 0 0 0 0 0 0 0
          0 0 0 0 0 0 0 0 0 0 0 0
          0 0 0 0 0 0 0 0 0 0 0 0
          0 0 0 0 0 0 0 0 0 0 0 0
          0 1.14543e-21 0.000668238 172.499 0 0 0 0 0 0 0 0
          0 0 0 0 0 0 0 0 0 0 0 0
          0 0 4.86611e-20 0.00190068 194.815 0 0 0 0 0 0 0
          0 0 0 0 0 0 0 0 0 0 0 0
          0 0 0 7.29949e-20 0.0021225 197.97 0 0 0 0 0 0
          0 0 0 0 0 0 0 0 0 0 0 0
          0 0 0 0 1.05858e-20 0.0013034 198.164 0 0 0 0 0
          0 0 0 0 0 0 0 0 0 0 0 0
          0 0 0 0 0 0 1.14419e-14 0.176956 0 0 0 0
          0 0 0 0 0 0 0 0 0 0 0 0
          0 0 0 0 0 0 0 0 2.95147e-11 0 0 0
          0 0 0 0 0 0 0 0 0 0 0 0
          0 0 0 0 0 0 0 0 0 0 0 0
          0 0 0 0 0 0 0 0 0 0 0 0
          0 0 0 0 0 0 0 0 0 0 0 0
          0 0 0 0 0 0 0 0 0 0 0 0
          0 0 0 0 0 0 0 0 0 0 0 0
          0 0 0 0 0 0 0 0 0 0 0 0
          0 0 0 0 0 0 0 0 0 0 0 0
          0 0 0 0 0 0 0 0 0 0 0 0
          0 0 0 0 0 0 0 0 0 0 0 0
          0 0 0 0 0 0 0 0 0 0 0 0
          0 0 0 0 0 0 0 0 0 0 0 0
          0 0 0 0 0 0 0 0 0 0 0 0
          0 0 0 0 0 0 0 0 0 0 0 0
          0 0 0 0 0 0 0 0 0 0 0 0