<?xml version="1.0"?>
<VTKFile type="UnstructuredGrid" version="0.1" byte_order="LittleEndian">
  <UnstructuredGrid>
    <Piece NumberOfCells="384" NumberOfPoints="425">
      <CellData Scalars="Sn">
        <DataArray type="Float32" Name="Sn" NumberOfComponents="1" format="ascii">
          0 0 0 0 0 0 0 0 0 0 0 0
          0 0 0 0 0 0 0 0 0 0 0 0
          0 0 0 0 0 0 0 0 0 0 0 0
          0 0 0 0 0 0 0 0 0 0 0 0
          0 0 0 0 0 0 0 0 0 0 0 0
          0 0 0 0 0 0 0 0 0 0 0 0
          0 0 0 0 0 0 0 0 0 0 0 0
          0 0 0 0 0 0 0 0 0 0 0 0.0453579
          0 0 0 0 0 0 0 0 0 0 0 0
          0 0 0 0 0 0 0 0 0 0 0 0.0459669
          0 0 0 0 0 0 0 0 0 0 0 0
          0 0 0 0 0 0 0 0 0 0 0 0.0460225
          0 0 0 0 0 0 0 0 0 0 0 0
          0 0 0 0 0 0 0 0 0 0 0 0.000299062
          0 0 0 0 0 0 0 0 0 0 0 0
          0 0 0 0 0 0 0 0 0 0 0 0
          0 0 0 0 0 0 0 0 0 0 0 0
          0 0 0 0 0 0 0 0 0 0 0 0
          0 0 0 0 0 0 0 0 0 0 0 0
          0 0 0 0 0 0 0 0 0 0 0 0
          0 0 0 0 0 0 0 0 0 0 0 0
          0 0 0 0 0 0 0 0 0 0 0 0
          0 0 0 0 0 0 0 0 0 0 0 0
          0 0 0 0 0 0 0 0 0 0 0 0
          0 0 0 0 0 0 0 0 0 0 0 0
          0 0 0 0 0 0 0 0 0 0 0 0
          0 0 0 0 0 0 0 0 0 0 0 0
          0 0 0 0 0 0 0 0 0 0 0 0
          0 0 0 0 0 0 0 0 0 0 0 0
          0 0 0 0 0 0 0 0 0 0 0 0
          0 0 0 0 0 0 0 0 0 0 0 0
          0 0 0 0 0 0 0 0 0 0 0 0
        </DataArray>
        <DataArray type="Float32" Name="Sw" NumberOfComponents="1" format="ascii">
          1 1 1 1 1 1 1 1 1 1 1 1
          1 1 1 1 1 1 1 1 1 1 1 1
          1 1 1 1 1 1 1 1 1 1 1 1
          1 1 1 1 1 1 1 1 1 1 1 1
          1 1 1 1 1 1 1 1 1 1 1 1
          1 1 1 1 1 1 1 1 1 1 1 1
          1 1 1 1 1 1 1 1 1 1 1 1
          1 1 1 1 1 1 1 1 1 1 1 0.954642
          1 1 1 1 1 1 1 1 1 1 1 1
          1 1 1 1 1 1 1 1 1 1 1 0.954033
          1 1 1 1 1 1 1 1 1 1 1 1
          1 1 1 1 1 1 1 1 1 1 1 0.953977
          1 1 1 1 1 1 1 1 1 1 1 1
          1 1 1 1 1 1 1 1 1 1 1 0.999701
          1 1 1 1 1 1 1 1 1 1 1 1
          1 1 1 1 1 1 1 1 1 1 1 1
          1 1 1 1 1 1 1 1 1 1 1 1
          1 1 1 1 1 1 1 1 1 1 1 1
          1 1 1 1 1 1 1 1 1 1 1 1
          1 1 1 1 1 1 1 1 1 1 1 1
          1 1 1 1 1 1 1 1 1 1 1 1
          1 1 1 1 1 1 1 1 1 1 1 1
          1 1 1 1 1 1 1 1 1 1 1 1
          1 1 1 1 1 1 1 1 1 1 1 1
          1 1 1 1 1 1 1 1 1 1 1 1
          1 1 1 1 1 1 1 1 1 1 1 1
          1 1 1 1 1 1 1 1 1 1 1 1
          1 1 1 1 1 1 1 1 1 1 1 1
          1 1 1 1 1 1 1 1 1 1 1 1
          1 1 1 1 1 1 1 1 1 1 1 1
          1 1 1 1 1 1 1 1 1 1 1 1
          1 1 1 1 1 1 1 1 1 1 1 1
        </DataArray>
        <DataArray type="Float32" Name="pn" NumberOfComponents="1" format="ascii">
          2.638e+07 2.63821e+07 2.6384e+07 2.63859e+07 2.63878e+07 2.63897e+07 2.63915e+07 2.63933e+07 2.63951e+07 2.63969e+07 2.63987e+07 2.64005e+07
          2.64023e+07 2.64041e+07 2.64059e+07 2.64077e+07 2.64095e+07 2.64113e+07 2.64131e+07 2.64148e+07 2.64165e+07 2.6418e+07 2.64192e+07 2.64199e+07
          2.63556e+07 2.63575e+07 2.63595e+07 2.63614e+07 2.63632e+07 2.63651e+07 2.63669e+07 2.63687e+07 2.63705e+07 2.63723e+07 2.63741e+07 2.63759e+07
          2.63777e+07 2.63795e+07 2.63813e+07 2.63831e+07 2.63849e+07 2.63867e+07 2.63885e+07 2.63903e+07 2.6392e+07 2.63937e+07 2.63951e+07 2.6396e+07
          2.63312e+07 2.63331e+07 2.6335e+07 2.63368e+07 2.63387e+07 2.63405e+07 2.63423e+07 2.63441e+07 2.63459e+07 2.63477e+07 2.63495e+07 2.63513e+07
          2.63531e+07 2.63549e+07 2.63567e+07 2.63585e+07 2.63603e+07 2.63622e+07 2.6364e+07 2.63658e+07 2.63677e+07 2.63696e+07 2.63714e+07 2.6373e+07
          2.63068e+07 2.63086e+07 2.63105e+07 2.63123e+07 2.63141e+07 2.63159e+07 2.63177e+07 2.63195e+07 2.63213e+07 2.63231e+07 2.63249e+07 2.63267e+07
          2.63285e+07 2.63303e+07 2.63321e+07 2.63339e+07 2.63357e+07 2.63376e+07 2.63394e+07 2.63413e+07 2.63434e+07 2.63455e+07 2.63481e+07 2.63526e+07
          2.62824e+07 2.62842e+07 2.6286e+07 2.62878e+07 2.62896e+07 2.62914e+07 2.62932e+07 2.6295e+07 2.62967e+07 2.62985e+07 2.63003e+07 2.63021e+07
          2.63039e+07 2.63057e+07 2.63075e+07 2.63093e+07 2.63111e+07 2.63129e+07 2.63148e+07 2.63168e+07 2.63188e+07 2.63212e+07 2.6324e+07 2.63292e+07
          2.62581e+07 2.62598e+07 2.62616e+07 2.62633e+07 2.62651e+07 2.62668e+07 2.62686e+07 2.62704e+07 2.62722e+07 2.62739e+07 2.62757e+07 2.62775e+07
          2.62793e+07 2.62811e+07 2.62828e+07 2.62846e+07 2.62865e+07 2.62883e+07 2.62901e+07 2.6292e+07 2.62941e+07 2.62963e+07 2.62988e+07 2.63034e+07
          2.62337e+07 2.62354e+07 2.62371e+07 2.62388e+07 2.62405e+07 2.62423e+07 2.6244e+07 2.62458e+07 2.62476e+07 2.62493e+07 2.62511e+07 2.62529e+07
          2.62546e+07 2.62564e+07 2.62582e+07 2.626e+07 2.62618e+07 2.62636e+07 2.62654e+07 2.62672e+07 2.62691e+07 2.6271e+07 2.62728e+07 2.62745e+07
          2.62093e+07 2.62109e+07 2.62126e+07 2.62143e+07 2.6216e+07 2.62177e+07 2.62195e+07 2.62212e+07 2.6223e+07 2.62247e+07 2.62265e+07 2.62283e+07
          2.623e+07 2.62318e+07 2.62336e+07 2.62353e+07 2.62371e+07 2.62389e+07 2.62406e+07 2.62424e+07 2.62441e+07 2.62457e+07 2.62471e+07 2.6248e+07
          2.61849e+07 2.61864e+07 2.61881e+07 2.61897e+07 2.61914e+07 2.61931e+07 2.61949e+07 2.61966e+07 2.61984e+07 2.62001e+07 2.62019e+07 2.62036e+07
          2.62054e+07 2.62072e+07 2.62089e+07 2.62107e+07 2.62124e+07 2.62142e+07 2.62159e+07 2.62176e+07 2.62192e+07 2.62206e+07 2.62218e+07 2.62225e+07
          2.61605e+07 2.6162e+07 2.61636e+07 2.61653e+07 2.61669e+07 2.61686e+07 2.61703e+07 2.6172e+07 2.61738e+07 2.61755e+07 2.61772e+07 2.6179e+07
          2.61807e+07 2.61824e+07 2.61842e+07 2.61859e+07 2.61876e+07 2.61892e+07 2.61909e+07 2.61924e+07 2.61939e+07 2.61951e+07 2.61961e+07 2.61966e+07
          2.61363e+07 2.61377e+07 2.61393e+07 2.61409e+07 2.61425e+07 2.61441e+07 2.61458e+07 2.61475e+07 2.61492e+07 2.61509e+07 2.61526e+07 2.61543e+07
          2.61559e+07 2.61576e+07 2.61593e+07 2.61609e+07 2.61625e+07 2.6164e+07 2.61655e+07 2.61669e+07 2.61681e+07 2.61691e+07 2.61699e+07 2.61703e+07
          2.61119e+07 2.61134e+07 2.61149e+07 2.61165e+07 2.6118e+07 2.61197e+07 2.61213e+07 2.61229e+07 2.61246e+07 2.61262e+07 2.61279e+07 2.61295e+07
          2.61312e+07 2.61328e+07 2.61344e+07 2.61359e+07 2.61374e+07 2.61389e+07 2.61402e+07 2.61415e+07 2.61425e+07 2.61434e+07 2.6144e+07 2.61444e+07
          2.60876e+07 2.6089e+07 2.60905e+07 2.6092e+07 2.60936e+07 2.60951e+07 2.60967e+07 2.60984e+07 2.61e+07 2.61016e+07 2.61032e+07 2.61049e+07
          2.61065e+07 2.6108e+07 2.61096e+07 2.61111e+07 2.61125e+07 2.61138e+07 2.61151e+07 2.61162e+07 2.61172e+07 2.61179e+07 2.61185e+07 2.61188e+07
          2.60632e+07 2.60646e+07 2.60661e+07 2.60675e+07 2.60691e+07 2.60706e+07 2.60722e+07 2.60738e+07 2.60754e+07 2.6077e+07 2.60786e+07 2.60802e+07
          2.60817e+07 2.60833e+07 2.60848e+07 2.60862e+07 2.60876e+07 2.60889e+07 2.60901e+07 2.60911e+07 2.6092e+07 2.60927e+07 2.60932e+07 2.60934e+07
          2.60388e+07 2.60402e+07 2.60416e+07 2.6043e+07 2.60445e+07 2.60461e+07 2.60476e+07 2.60492e+07 2.60508e+07 2.60524e+07 2.6054e+07 2.60555e+07
          2.60571e+07 2.60586e+07 2.60601e+07 2.60615e+07 2.60628e+07 2.60641e+07 2.60652e+07 2.60662e+07 2.6067e+07 2.60677e+07 2.60681e+07 2.60684e+07
          2.60144e+07 2.60157e+07 2.6017e+07 2.60185e+07 2.602e+07 2.60215e+07 2.6023e+07 2.60246e+07 2.60262e+07 2.60278e+07 2.60293e+07 2.60309e+07
          2.60324e+07 2.60339e+07 2.60354e+07 2.60368e+07 2.60381e+07 2.60393e+07 2.60404e+07 2.60414e+07 2.60422e+07 2.60429e+07 2.60433e+07 2.60435e+07
        </DataArray>
        <DataArray type="Float32" Name="pw" NumberOfComponents="1" format="ascii">
          2.637e+07 2.63721e+07 2.6374e+07 2.63759e+07 2.63778e+07 2.63797e+07 2.63815e+07 2.63833e+07 2.63851e+07 2.63869e+07 2.63887e+07 2.63905e+07
          2.63923e+07 2.63941e+07 2.63959e+07 2.63977e+07 2.63995e+07 2.64013e+07 2.64031e+07 2.64048e+07 2.64065e+07 2.6408e+07 2.64092e+07 2.64099e+07
          2.63456e+07 2.63475e+07 2.63495e+07 2.63514e+07 2.63532e+07 2.63551e+07 2.63569e+07 2.63587e+07 2.63605e+07 2.63623e+07 2.63641e+07 2.63659e+07
          2.63677e+07 2.63695e+07 2.63713e+07 2.63731e+07 2.63749e+07 2.63767e+07 2.63785e+07 2.63803e+07 2.6382e+07 2.63837e+07 2.63851e+07 2.6386e+07
          2.63212e+07 2.63231e+07 2.6325e+07 2.63268e+07 2.63287e+07 2.63305e+07 2.63323e+07 2.63341e+07 2.63359e+07 2.63377e+07 2.63395e+07 2.63413e+07
          2.63431e+07 2.63449e+07 2.63467e+07 2.63485e+07 2.63503e+07 2.63522e+07 2.6354e+07 2.63558e+07 2.63577e+07 2.63596e+07 2.63614e+07 2.6363e+07
          2.62968e+07 2.62986e+07 2.63005e+07 2.63023e+07 2.63041e+07 2.63059e+07 2.63077e+07 2.63095e+07 2.63113e+07 2.63131e+07 2.63149e+07 2.63167e+07
          2.63185e+07 2.63203e+07 2.63221e+07 2.63239e+07 2.63257e+07 2.63276e+07 2.63294e+07 2.63313e+07 2.63334e+07 2.63355e+07 2.63381e+07 2.63423e+07
          2.62724e+07 2.62742e+07 2.6276e+07 2.62778e+07 2.62796e+07 2.62814e+07 2.62832e+07 2.6285e+07 2.62867e+07 2.62885e+07 2.62903e+07 2.62921e+07
          2.62939e+07 2.62957e+07 2.62975e+07 2.62993e+07 2.63011e+07 2.63029e+07 2.63048e+07 2.63068e+07 2.63088e+07 2.63112e+07 2.6314e+07 2.63189e+07
          2.62481e+07 2.62498e+07 2.62516e+07 2.62533e+07 2.62551e+07 2.62568e+07 2.62586e+07 2.62604e+07 2.62622e+07 2.62639e+07 2.62657e+07 2.62675e+07
          2.62693e+07 2.62711e+07 2.62728e+07 2.62746e+07 2.62765e+07 2.62783e+07 2.62801e+07 2.6282e+07 2.62841e+07 2.62863e+07 2.62888e+07 2.62931e+07
          2.62237e+07 2.62254e+07 2.62271e+07 2.62288e+07 2.62305e+07 2.62323e+07 2.6234e+07 2.62358e+07 2.62376e+07 2.62393e+07 2.62411e+07 2.62429e+07
          2.62446e+07 2.62464e+07 2.62482e+07 2.625e+07 2.62518e+07 2.62536e+07 2.62554e+07 2.62572e+07 2.62591e+07 2.6261e+07 2.62628e+07 2.62645e+07
          2.61993e+07 2.62009e+07 2.62026e+07 2.62043e+07 2.6206e+07 2.62077e+07 2.62095e+07 2.62112e+07 2.6213e+07 2.62147e+07 2.62165e+07 2.62183e+07
          2.622e+07 2.62218e+07 2.62236e+07 2.62253e+07 2.62271e+07 2.62289e+07 2.62306e+07 2.62324e+07 2.62341e+07 2.62357e+07 2.62371e+07 2.6238e+07
          2.61749e+07 2.61764e+07 2.61781e+07 2.61797e+07 2.61814e+07 2.61831e+07 2.61849e+07 2.61866e+07 2.61884e+07 2.61901e+07 2.61919e+07 2.61936e+07
          2.61954e+07 2.61972e+07 2.61989e+07 2.62007e+07 2.62024e+07 2.62042e+07 2.62059e+07 2.62076e+07 2.62092e+07 2.62106e+07 2.62118e+07 2.62125e+07
          2.61505e+07 2.6152e+07 2.61536e+07 2.61553e+07 2.61569e+07 2.61586e+07 2.61603e+07 2.6162e+07 2.61638e+07 2.61655e+07 2.61672e+07 2.6169e+07
          2.61707e+07 2.61724e+07 2.61742e+07 2.61759e+07 2.61776e+07 2.61792e+07 2.61809e+07 2.61824e+07 2.61839e+07 2.61851e+07 2.61861e+07 2.61866e+07
          2.61263e+07 2.61277e+07 2.61293e+07 2.61309e+07 2.61325e+07 2.61341e+07 2.61358e+07 2.61375e+07 2.61392e+07 2.61409e+07 2.61426e+07 2.61443e+07
          2.61459e+07 2.61476e+07 2.61493e+07 2.61509e+07 2.61525e+07 2.6154e+07 2.61555e+07 2.61569e+07 2.61581e+07 2.61591e+07 2.61599e+07 2.61603e+07
          2.61019e+07 2.61034e+07 2.61049e+07 2.61065e+07 2.6108e+07 2.61097e+07 2.61113e+07 2.61129e+07 2.61146e+07 2.61162e+07 2.61179e+07 2.61195e+07
          2.61212e+07 2.61228e+07 2.61244e+07 2.61259e+07 2.61274e+07 2.61289e+07 2.61302e+07 2.61315e+07 2.61325e+07 2.61334e+07 2.6134e+07 2.61344e+07
          2.60776e+07 2.6079e+07 2.60805e+07 2.6082e+07 2.60836e+07 2.60851e+07 2.60867e+07 2.60884e+07 2.609e+07 2.60916e+07 2.60932e+07 2.60949e+07
          2.60965e+07 2.6098e+07 2.60996e+07 2.61011e+07 2.61025e+07 2.61038e+07 2.61051e+07 2.61062e+07 2.61072e+07 2.61079e+07 2.61085e+07 2.61088e+07
          2.60532e+07 2.60546e+07 2.60561e+07 2.60575e+07 2.60591e+07 2.60606e+07 2.60622e+07 2.60638e+07 2.60654e+07 2.6067e+07 2.60686e+07 2.60702e+07
          2.60717e+07 2.60733e+07 2.60748e+07 2.60762e+07 2.60776e+07 2.60789e+07 2.60801e+07 2.60811e+07 2.6082e+07 2.60827e+07 2.60832e+07 2.60834e+07
          2.60288e+07 2.60302e+07 2.60316e+07 2.6033e+07 2.60345e+07 2.60361e+07 2.60376e+07 2.60392e+07 2.60408e+07 2.60424e+07 2.6044e+07 2.60455e+07
          2.60471e+07 2.60486e+07 2.60501e+07 2.60515e+07 2.60528e+07 2.60541e+07 2.60552e+07 2.60562e+07 2.6057e+07 2.60577e+07 2.60581e+07 2.60584e+07
          2.60044e+07 2.60057e+07 2.6007e+07 2.60085e+07 2.601e+07 2.60115e+07 2.6013e+07 2.60146e+07 2.60162e+07 2.60178e+07 2.60193e+07 2.60209e+07
          2.60224e+07 2.60239e+07 2.60254e+07 2.60268e+07 2.60281e+07 2.60293e+07 2.60304e+07 2.60314e+07 2.60322e+07 2.60329e+07 2.60333e+07 2.60335e+07
        </DataArray>
        <DataArray type="Float32" Name="pc" NumberOfComponents="1" format="ascii">
          10000 10000 10000 10000 10000 10000 10000 10000 10000 10000 10000 10000
          10000 10000 10000 10000 10000 10000 10000 10000 10000 10000 10000 10000
          10000 10000 10000 10000 10000 10000 10000 10000 10000 10000 10000 10000
          10000 10000 10000 10000 10000 10000 10000 10000 10000 10000 10000 10000
          10000 10000 10000 10000 10000 10000 10000 10000 10000 10000 10000 10000
          10000 10000 10000 10000 10000 10000 10000 10000 10000 10000 10000 10000
          10000 10000 10000 10000 10000 10000 10000 10000 10000 10000 10000 10000
          10000 10000 10000 10000 10000 10000 10000 10000 10000 10000 10000 10296.1
          10000 10000 10000 10000 10000 10000 10000 10000 10000 10000 10000 10000
          10000 10000 10000 10000 10000 10000 10000 10000 10000 10000 10000 10300.3
          10000 10000 10000 10000 10000 10000 10000 10000 10000 10000 10000 10000
          10000 10000 10000 10000 10000 10000 10000 10000 10000 10000 10000 10300.7
          10000 10000 10000 10000 10000 10000 10000 10000 10000 10000 10000 10000
          10000 10000 10000 10000 10000 10000 10000 10000 10000 10000 10000 10001.9
          10000 10000 10000 10000 10000 10000 10000 10000 10000 10000 10000 10000
          10000 10000 10000 10000 10000 10000 10000 10000 10000 10000 10000 10000
          10000 10000 10000 10000 10000 10000 10000 10000 10000 10000 10000 10000
          10000 10000 10000 10000 10000 10000 10000 10000 10000 10000 10000 10000
          10000 10000 10000 10000 10000 10000 10000 10000 10000 10000 10000 10000
          10000 10000 10000 10000 10000 10000 10000 10000 10000 10000 10000 10000
          10000 10000 10000 10000 10000 10000 10000 10000 10000 10000 10000 10000
          10000 10000 10000 10000 10000 10000 10000 10000 10000 10000 10000 10000
          10000 10000 10000 10000 10000 10000 10000 10000 10000 10000 10000 10000
          10000 10000 10000 10000 10000 10000 10000 10000 10000 10000 10000 10000
          10000 10000 10000 10000 10000 10000 10000 10000 10000 10000 10000 10000
          10000 10000 10000 10000 10000 10000 10000 10000 10000 10000 10000 10000
          10000 10000 10000 10000 10000 10000 10000 10000 10000 10000 10000 10000
          10000 10000 10000 10000 10000 10000 10000 10000 10000 10000 10000 10000
          10000 10000 10000 10000 10000 10000 10000 10000 10000 10000 10000 10000
          10000 10000 10000 10000 10000 10000 10000 10000 10000 10000 10000 10000
          10000 10000 10000 10000 10000 10000 10000 10000 10000 10000 10000 10000
          10000 10000 10000 10000 10000 10000 10000 10000 10000 10000 10000 10000
        </DataArray>
        <DataArray type="Float32" Name="rhoW" NumberOfComponents="1" format="ascii">
          1003.42 1003.42 1003.42 1003.43 1003.43 1003.43 1003.43 1003.43 1003.43 1003.43 1003.43 1003.43
          1003.43 1003.43 1003.43 1003.43 1003.44 1003.44 1003.44 1003.44 1003.44 1003.44 1003.44 1003.44
          1003.41 1003.41 1003.41 1003.42 1003.42 1003.42 1003.42 1003.42 1003.42 1003.42 1003.42 1003.42
          1003.42 1003.42 1003.42 1003.42 1003.43 1003.43 1003.43 1003.43 1003.43 1003.43 1003.43 1003.43
          1003.4 1003.4 1003.4 1003.41 1003.41 1003.41 1003.41 1003.41 1003.41 1003.41 1003.41 1003.41
          1003.41 1003.41 1003.41 1003.41 1003.41 1003.42 1003.42 1003.42 1003.42 1003.42 1003.42 1003.42
          1003.39 1003.39 1003.39 1003.39 1003.4 1003.4 1003.4 1003.4 1003.4 1003.4 1003.4 1003.4
          1003.4 1003.4 1003.4 1003.4 1003.4 1003.41 1003.41 1003.41 1003.41 1003.41 1003.41 1003.41
          1003.38 1003.38 1003.38 1003.38 1003.39 1003.39 1003.39 1003.39 1003.39 1003.39 1003.39 1003.39
          1003.39 1003.39 1003.39 1003.39 1003.39 1003.4 1003.4 1003.4 1003.4 1003.4 1003.4 1003.4
          1003.37 1003.37 1003.37 1003.37 1003.38 1003.38 1003.38 1003.38 1003.38 1003.38 1003.38 1003.38
          1003.38 1003.38 1003.38 1003.38 1003.38 1003.38 1003.39 1003.39 1003.39 1003.39 1003.39 1003.39
          1003.36 1003.36 1003.36 1003.36 1003.37 1003.37 1003.37 1003.37 1003.37 1003.37 1003.37 1003.37
          1003.37 1003.37 1003.37 1003.37 1003.37 1003.37 1003.38 1003.38 1003.38 1003.38 1003.38 1003.38
          1003.35 1003.35 1003.35 1003.35 1003.35 1003.36 1003.36 1003.36 1003.36 1003.36 1003.36 1003.36
          1003.36 1003.36 1003.36 1003.36 1003.36 1003.36 1003.37 1003.37 1003.37 1003.37 1003.37 1003.37
          1003.34 1003.34 1003.34 1003.34 1003.34 1003.35 1003.35 1003.35 1003.35 1003.35 1003.35 1003.35
          1003.35 1003.35 1003.35 1003.35 1003.35 1003.35 1003.35 1003.36 1003.36 1003.36 1003.36 1003.36
          1003.33 1003.33 1003.33 1003.33 1003.33 1003.34 1003.34 1003.34 1003.34 1003.34 1003.34 1003.34
          1003.34 1003.34 1003.34 1003.34 1003.34 1003.34 1003.34 1003.35 1003.35 1003.35 1003.35 1003.35
          1003.32 1003.32 1003.32 1003.32 1003.32 1003.33 1003.33 1003.33 1003.33 1003.33 1003.33 1003.33
          1003.33 1003.33 1003.33 1003.33 1003.33 1003.33 1003.33 1003.33 1003.33 1003.34 1003.34 1003.34
          1003.31 1003.31 1003.31 1003.31 1003.31 1003.31 1003.32 1003.32 1003.32 1003.32 1003.32 1003.32
          1003.32 1003.32 1003.32 1003.32 1003.32 1003.32 1003.32 1003.32 1003.32 1003.32 1003.33 1003.33
          1003.3 1003.3 1003.3 1003.3 1003.3 1003.3 1003.31 1003.31 1003.31 1003.31 1003.31 1003.31
          1003.31 1003.31 1003.31 1003.31 1003.31 1003.31 1003.31 1003.31 1003.31 1003.31 1003.31 1003.31
          1003.29 1003.29 1003.29 1003.29 1003.29 1003.29 1003.3 1003.3 1003.3 1003.3 1003.3 1003.3
          1003.3 1003.3 1003.3 1003.3 1003.3 1003.3 1003.3 1003.3 1003.3 1003.3 1003.3 1003.3
          1003.28 1003.28 1003.28 1003.28 1003.28 1003.28 1003.28 1003.29 1003.29 1003.29 1003.29 1003.29
          1003.29 1003.29 1003.29 1003.29 1003.29 1003.29 1003.29 1003.29 1003.29 1003.29 1003.29 1003.29
          1003.27 1003.27 1003.27 1003.27 1003.27 1003.27 1003.27 1003.28 1003.28 1003.28 1003.28 1003.28
          1003.28 1003.28 1003.28 1003.28 1003.28 1003.28 1003.28 1003.28 1003.28 1003.28 1003.28 1003.28
        </DataArray>
        <DataArray type="Float32" Name="rhoN" NumberOfComponents="1" format="ascii">
          283.797 283.819 283.84 283.861 283.881 283.901 283.921 283.94 283.96 283.979 283.999 284.018
          284.037 284.057 284.076 284.095 284.115 284.134 284.153 284.172 284.19 284.206 284.218 284.226
          283.534 283.555 283.576 283.597 283.617 283.637 283.656 283.676 283.695 283.715 283.734 283.753
          283.773 283.792 283.811 283.831 283.85 283.87 283.889 283.908 283.927 283.944 283.959 283.969
          283.272 283.292 283.313 283.333 283.352 283.372 283.392 283.411 283.431 283.45 283.469 283.488
          283.508 283.527 283.547 283.566 283.585 283.605 283.625 283.645 283.665 283.685 283.705 283.721
          283.009 283.029 283.049 283.069 283.088 283.108 283.127 283.147 283.166 283.185 283.204 283.224
          283.243 283.262 283.282 283.301 283.321 283.34 283.361 283.381 283.403 283.426 283.454 283.504
          282.747 282.767 282.786 282.805 282.824 282.844 282.863 282.882 282.901 282.921 282.94 282.959
          282.978 282.997 283.017 283.036 283.056 283.076 283.096 283.117 283.139 283.164 283.195 283.252
          282.485 282.504 282.523 282.542 282.561 282.579 282.599 282.618 282.637 282.656 282.675 282.694
          282.713 282.733 282.752 282.771 282.791 282.81 282.83 282.851 282.872 282.896 282.924 282.975
          282.223 282.241 282.259 282.278 282.297 282.315 282.334 282.353 282.372 282.391 282.41 282.429
          282.448 282.468 282.487 282.506 282.525 282.545 282.564 282.584 282.604 282.624 282.644 282.663
          281.961 281.978 281.996 282.014 282.032 282.051 282.07 282.089 282.107 282.126 282.145 282.164
          282.184 282.203 282.222 282.241 282.26 282.279 282.298 282.317 282.335 282.352 282.367 282.377
          281.698 281.715 281.732 281.75 281.768 281.787 281.805 281.824 281.843 281.862 281.881 281.9
          281.919 281.938 281.957 281.975 281.994 282.013 282.032 282.05 282.067 282.083 282.095 282.102
          281.436 281.452 281.469 281.487 281.505 281.523 281.541 281.56 281.578 281.597 281.616 281.634
          281.653 281.671 281.69 281.708 281.727 281.745 281.762 281.779 281.794 281.808 281.818 281.824
          281.175 281.191 281.207 281.224 281.242 281.259 281.277 281.295 281.314 281.332 281.35 281.368
          281.386 281.404 281.422 281.44 281.457 281.473 281.489 281.504 281.517 281.528 281.536 281.541
          280.913 280.929 280.945 280.962 280.979 280.996 281.014 281.031 281.049 281.067 281.085 281.102
          281.12 281.137 281.155 281.171 281.187 281.203 281.217 281.231 281.242 281.251 281.258 281.262
          280.651 280.666 280.682 280.699 280.715 280.732 280.749 280.767 280.784 280.802 280.819 280.837
          280.854 280.871 280.887 280.903 280.919 280.933 280.947 280.959 280.969 280.978 280.983 280.986
          280.389 280.404 280.419 280.435 280.452 280.468 280.485 280.502 280.52 280.537 280.554 280.571
          280.588 280.605 280.621 280.636 280.651 280.665 280.678 280.689 280.699 280.706 280.711 280.714
          280.126 280.141 280.156 280.172 280.188 280.204 280.221 280.238 280.255 280.272 280.289 280.306
          280.323 280.339 280.355 280.37 280.384 280.398 280.41 280.421 280.43 280.437 280.442 280.444
          279.864 279.877 279.892 279.907 279.923 279.94 279.956 279.973 279.99 280.007 280.024 280.041
          280.058 280.074 280.089 280.104 280.119 280.132 280.144 280.154 280.163 280.17 280.175 280.177
        </DataArray>
        <DataArray type="Float32" Name="mobW" NumberOfComponents="1" format="ascii">
          1523.33 1523.33 1523.32 1523.32 1523.32 1523.32 1523.32 1523.32 1523.32 1523.32 1523.32 1523.32
          1523.32 1523.32 1523.32 1523.32 1523.32 1523.31 1523.31 1523.31 1523.31 1523.31 1523.31 1523.31
          1523.34 1523.33 1523.33 1523.33 1523.33 1523.33 1523.33 1523.33 1523.33 1523.33 1523.33 1523.33
          1523.33 1523.33 1523.33 1523.33 1523.32 1523.32 1523.32 1523.32 1523.32 1523.32 1523.32 1523.32
          1523.34 1523.34 1523.34 1523.34 1523.34 1523.34 1523.34 1523.34 1523.34 1523.34 1523.34 1523.34
          1523.34 1523.34 1523.33 1523.33 1523.33 1523.33 1523.33 1523.33 1523.33 1523.33 1523.33 1523.33
          1523.35 1523.35 1523.35 1523.35 1523.35 1523.35 1523.35 1523.35 1523.35 1523.35 1523.35 1523.35
          1523.35 1523.34 1523.34 1523.34 1523.34 1523.34 1523.34 1523.34 1523.34 1523.34 1523.34 1206.15
          1523.36 1523.36 1523.36 1523.36 1523.36 1523.36 1523.36 1523.36 1523.36 1523.36 1523.36 1523.35
          1523.35 1523.35 1523.35 1523.35 1523.35 1523.35 1523.35 1523.35 1523.35 1523.35 1523.35 1202.26
          1523.37 1523.37 1523.37 1523.37 1523.37 1523.37 1523.37 1523.37 1523.37 1523.37 1523.36 1523.36
          1523.36 1523.36 1523.36 1523.36 1523.36 1523.36 1523.36 1523.36 1523.36 1523.36 1523.36 1201.92
          1523.38 1523.38 1523.38 1523.38 1523.38 1523.38 1523.38 1523.38 1523.38 1523.37 1523.37 1523.37
          1523.37 1523.37 1523.37 1523.37 1523.37 1523.37 1523.37 1523.37 1523.37 1523.37 1523.37 1521.09
          1523.39 1523.39 1523.39 1523.39 1523.39 1523.39 1523.39 1523.38 1523.38 1523.38 1523.38 1523.38
          1523.38 1523.38 1523.38 1523.38 1523.38 1523.38 1523.38 1523.38 1523.38 1523.38 1523.38 1523.38
          1523.4 1523.4 1523.4 1523.4 1523.4 1523.4 1523.39 1523.39 1523.39 1523.39 1523.39 1523.39
          1523.39 1523.39 1523.39 1523.39 1523.39 1523.39 1523.39 1523.39 1523.39 1523.39 1523.38 1523.38
          1523.41 1523.41 1523.41 1523.41 1523.4 1523.4 1523.4 1523.4 1523.4 1523.4 1523.4 1523.4
          1523.4 1523.4 1523.4 1523.4 1523.4 1523.4 1523.4 1523.4 1523.39 1523.39 1523.39 1523.39
          1523.42 1523.42 1523.42 1523.41 1523.41 1523.41 1523.41 1523.41 1523.41 1523.41 1523.41 1523.41
          1523.41 1523.41 1523.41 1523.41 1523.41 1523.41 1523.41 1523.4 1523.4 1523.4 1523.4 1523.4
          1523.43 1523.42 1523.42 1523.42 1523.42 1523.42 1523.42 1523.42 1523.42 1523.42 1523.42 1523.42
          1523.42 1523.42 1523.42 1523.42 1523.42 1523.42 1523.41 1523.41 1523.41 1523.41 1523.41 1523.41
          1523.43 1523.43 1523.43 1523.43 1523.43 1523.43 1523.43 1523.43 1523.43 1523.43 1523.43 1523.43
          1523.43 1523.43 1523.43 1523.43 1523.42 1523.42 1523.42 1523.42 1523.42 1523.42 1523.42 1523.42
          1523.44 1523.44 1523.44 1523.44 1523.44 1523.44 1523.44 1523.44 1523.44 1523.44 1523.44 1523.44
          1523.44 1523.44 1523.44 1523.43 1523.43 1523.43 1523.43 1523.43 1523.43 1523.43 1523.43 1523.43
          1523.45 1523.45 1523.45 1523.45 1523.45 1523.45 1523.45 1523.45 1523.45 1523.45 1523.45 1523.45
          1523.45 1523.44 1523.44 1523.44 1523.44 1523.44 1523.44 1523.44 1523.44 1523.44 1523.44 1523.44
          1523.46 1523.46 1523.46 1523.46 1523.46 1523.46 1523.46 1523.46 1523.46 1523.46 1523.46 1523.45
          1523.45 1523.45 1523.45 1523.45 1523.45 1523.45 1523.45 1523.45 1523.45 1523.45 1523.45 1523.45
        </DataArray>
        <DataArray type="Float32" Name="mobN" NumberOfComponents="1" format="ascii">
          0 0 0 0 0 0 0 0 0 0 0 0
          0 0 0 0 0 0 0 0 0 0 0 0
          0 0 0 0 0 0 0 0 0 0 0 0
          0 0 0 0 0 0 0 0 0 0 0 0
          0 0 0 0 0 0 0 0 0 0 0 0
          0 0 0 0 0 0 0 0 0 0 0 0
          0 0 0 0 0 0 0 0 0 0 0 0
          0 0 0 0 0 0 0 0 0 0 0 19.3593
          0 0 0 0 0 0 0 0 0 0 0 0
          0 0 0 0 0 0 0 0 0 0 0 20.1417
          0 0 0 0 0 0 0 0 0 0 0 0
          0 0 0 0 0 0 0 0 0 0 0 20.2142
          0 0 0 0 0 0 0 0 0 0 0 0
          0 0 0 0 0 0 0 0 0 0 0 5.70979e-06
          0 0 0 0 0 0 0 0 0 0 0 0
          0 0 0 0 0 0 0 0 0 0 0 0
          0 0 0 0 0 0 0 0 0 0 0 0
          0 0 0 0 0 0 0 0 0 0 0 0
          0 0 0 0 0 0 0 0 0 0 0 0
          0 0 0 0 0 0 0 0 0 0 0 0
          0 0 0 0 0 0 0 0 0 0 0 0
          0 0 0 0 0 0 0 0 0 0 0 0
          0 0 0 0 0 0 0 0 0 0 0 0
          0 0 0 0 0 0 0 0 0 0 0 0
          0 0 0 0 0 0 0 0 0 0 0 0
          0 0 0 0 0 0 0 0 0 0 0 0
          0 0 0 0 0 0 0 0 0 0 0 0
          0 0 0 0 0 0 0 0 0 0 0 0
          0 0 0 0 0 0 0 0 0 0 0 0
          0 0 0 0 0 0 0 0 0 0 0 0
          0 0 0 0 0 0 0 0 0 0 0 0
          0 0 0 0 0 0 0 0 0 0 0 0
        </DataArray>
        <DataArray type="Float32" Name="X_w^H2O" NumberOfComponents="1" format="ascii">
          0.9962 0.9962 0.9962 0.9962 0.9962 0.9962 0.9962 0.9962 0.9962 0.9962 0.9962 0.9962
          0.9962 0.9962 0.9962 0.9962 0.9962 0.9962 0.9962 0.9962 0.9962 0.9962 0.9962 0.9962
          0.996203 0.996203 0.996203 0.996203 0.996203 0.996203 0.996203 0.996203 0.996203 0.996203 0.996203 0.996203
          0.996203 0.996203 0.996203 0.996203 0.996203 0.996203 0.996203 0.996203 0.996203 0.996203 0.996203 0.996203
          0.996207 0.996207 0.996207 0.996207 0.996207 0.996207 0.996207 0.996207 0.996207 0.996207 0.996207 0.996207
          0.996207 0.996207 0.996207 0.996207 0.996207 0.996207 0.996207 0.996207 0.996207 0.996207 0.996207 0.996202
          0.99621 0.99621 0.99621 0.99621 0.99621 0.99621 0.99621 0.99621 0.99621 0.99621 0.99621 0.99621
          0.99621 0.99621 0.99621 0.99621 0.99621 0.99621 0.99621 0.99621 0.99621 0.99621 0.99615 0.996004
          0.996214 0.996214 0.996214 0.996214 0.996214 0.996214 0.996214 0.996214 0.996214 0.996214 0.996214 0.996214
          0.996214 0.996214 0.996214 0.996214 0.996214 0.996214 0.996214 0.996214 0.996214 0.996213 0.996142 0.996007
          0.996217 0.996217 0.996217 0.996217 0.996217 0.996217 0.996217 0.996217 0.996217 0.996217 0.996217 0.996217
          0.996217 0.996217 0.996217 0.996217 0.996217 0.996217 0.996217 0.996217 0.996217 0.996217 0.996154 0.996011
          0.996221 0.996221 0.996221 0.996221 0.996221 0.996221 0.996221 0.996221 0.996221 0.996221 0.996221 0.996221
          0.996221 0.996221 0.996221 0.996221 0.996221 0.996221 0.996221 0.996221 0.996221 0.996221 0.996219 0.996015
          0.996224 0.996224 0.996224 0.996224 0.996224 0.996224 0.996224 0.996224 0.996224 0.996224 0.996224 0.996224
          0.996224 0.996224 0.996224 0.996224 0.996224 0.996224 0.996224 0.996224 0.996224 0.996224 0.996224 0.996223
          0.996228 0.996228 0.996228 0.996228 0.996228 0.996228 0.996228 0.996228 0.996228 0.996228 0.996228 0.996228
          0.996228 0.996228 0.996228 0.996228 0.996228 0.996228 0.996228 0.996228 0.996228 0.996228 0.996228 0.996228
          0.996231 0.996231 0.996231 0.996231 0.996231 0.996231 0.996231 0.996231 0.996231 0.996231 0.996231 0.996231
          0.996231 0.996231 0.996231 0.996231 0.996231 0.996231 0.996231 0.996231 0.996231 0.996231 0.996231 0.996231
          0.996235 0.996235 0.996235 0.996235 0.996235 0.996235 0.996235 0.996235 0.996235 0.996235 0.996235 0.996235
          0.996235 0.996235 0.996235 0.996235 0.996235 0.996235 0.996235 0.996235 0.996235 0.996235 0.996235 0.996235
          0.996238 0.996238 0.996238 0.996238 0.996238 0.996238 0.996238 0.996238 0.996238 0.996238 0.996238 0.996238
          0.996238 0.996238 0.996238 0.996238 0.996238 0.996238 0.996238 0.996238 0.996238 0.996238 0.996238 0.996238
          0.996242 0.996242 0.996242 0.996242 0.996242 0.996242 0.996242 0.996242 0.996242 0.996242 0.996242 0.996242