<?xml version="1.0"?>
<VTKFile type="UnstructuredGrid" version="0.1" byte_order="LittleEndian">
  <UnstructuredGrid>
    <Piece NumberOfCells="384" NumberOfPoints="425">
      <PointData Scalars="Sn">
        <DataArray type="Float32" Name="Sn" NumberOfComponents="1" format="ascii">
          0 0 0 0 0 0 0 0 0 0 0 0
          0 0 0 0 0 0 0 0 0 0 0 0
          0 0 0 0 0 0 0 0 0 0 0 0
          0 0 0 0 0 0 0 0 0 0 0 0
          0 0 0 0 0 0 0 0 0 0 0 0
          0 0 0 0 0 0 0 0 0 0 0 0
          0 0 0 0 0 0 0 0 0 0 0 0
          0 0 0 0 0 0 0 0 0 0 0 0
          9.62349e-28 1.27065e-09 0.00132264 0.0947335 0 0 0 0 0 0 0 0
          0 0 0 0 0 0 0 0 0 0 0 0
          0 3.25391e-26 4.01438e-09 0.00183708 0.0985704 0 0 0 0 0 0 0
          0 0 0 0 0 0 0 0 0 0 0 0
          0 0 7.42063e-27 2.49144e-09 0.00162582 0.099002 0 0 0 0 0 0
          0 0 0 0 0 0 0 0 0 0 0 0
          0 0 0 0 1.17565e-20 2.99744e-07 0.00867153 0 0 0 0 0
          0 0 0 0 0 0 0 0 0 0 0 0
          0 0 0 0 0 0 1.09271e-17 4.51066e-06 0 0 0 0
          0 0 0 0 0 0 0 0 0 0 0 0
          0 0 0 0 0 0 0 4.39516e-38 6.11966e-16 0 0 0
          0 0 0 0 0 0 0 0 0 0 0 0
          0 0 0 0 0 0 0 0 0 2.75065e-37 0 0
          0 0 0 0 0 0 0 0 0 0 0 0
          0 0 0 0 0 0 0 0 0 0 0 0
          0 0 0 0 0 0 0 0 0 0 0 0
          0 0 0 0 0 0 0 0 0 0 0 0
          0 0 0 0 0 0 0 0 0 0 0 0
          0 0 0 0 0 0 0 0 0 0 0 0
          0 0 0 0 0 0 0 0 0 0 0 0
          0 0 0 0 0 0 0 0 0 0 0 0
          0 0 0 0 0 0 0 0 0 0 0 0
          0 0 0 0 0 0 0 0 0 0 0 0
          0 0 0 0 0 0 0 0 0 0 0 0
          0 0 0 0 0 0 0 0 0 0 0 0
          0 0 0 0 0 0 0 0 0 0 0 0
          0 0 0 0 0 0 0 0 0 0 0 0
          0 0 0 0 0
        </DataArray>
        <DataArray type="Float32" Name="Sw" NumberOfComponents="1" format="ascii">
          1 1 1 1 1 1 1 1 1 1 1 1
          1 1 1 1 1 1 1 1 1 1 1 1
          1 1 1 1 1 1 1 1 1 1 1 1
          1 1 1 1 1 1 1 1 1 1 1 1
          1 1 1 1 1 1 1 1 1 1 1 1
          1 1 1 1 1 1 1 1 1 1 1 1
          1 1 1 1 1 1 1 1 1 1 1 1
          1 1 1 1 1 1 1 1 1 1 1 1
          1 1 0.998677 0.905266 1 1 1 1 1 1 1 1
          1 1 1 1 1 1 1 1 1 1 1 1
          1 1 1 0.998163 0.90143 1 1 1 1 1 1 1
          1 1 1 1 1 1 1 1 1 1 1 1
          1 1 1 1 0.998374 0.900998 1 1 1 1 1 1
          1 1 1 1 1 1 1 1 1 1 1 1
          1 1 1 1 1 1 0.991328 1 1 1 1 1
          1 1 1 1 1 1 1 1 1 1 1 1
          1 1 1 1 1 1 1 0.999995 1 1 1 1
          1 1 1 1 1 1 1 1 1 1 1 1
          1 1 1 1 1 1 1 1 1 1 1 1
          1 1 1 1 1 1 1 1 1 1 1 1
          1 1 1 1 1 1 1 1 1 1 1 1
          1 1 1 1 1 1 1 1 1 1 1 1
          1 1 1 1 1 1 1 1 1 1 1 1
          1 1 1 1 1 1 1 1 1 1 1 1
          1 1 1 1 1 1 1 1 1 1 1 1
          1 1 1 1 1 1 1 1 1 1 1 1
          1 1 1 1 1 1 1 1 1 1 1 1
          1 1 1 1 1 1 1 1 1 1 1 1
          1 1 1 1 1 1 1 1 1 1 1 1
          1 1 1 1 1 1 1 1 1 1 1 1
          1 1 1 1 1 1 1 1 1 1 1 1
          1 1 1 1 1 1 1 1 1 1 1 1
          1 1 1 1 1 1 1 1 1 1 1 1
          1 1 1 1 1 1 1 1 1 1 1 1
          1 1 1 1 1 1 1 1 1 1 1 1
          1 1 1 1 1
        </DataArray>
        <DataArray type="Float32" Name="pn" NumberOfComponents="1" format="ascii">
          2.6597e+07 2.6597e+07 2.65725e+07 2.65729e+07 2.65975e+07 2.65735e+07 2.65982e+07 2.65742e+07 2.6599e+07 2.6575e+07 2.65999e+07 2.65759e+07
          2.66007e+07 2.65768e+07 2.66016e+07 2.65777e+07 2.66026e+07 2.65786e+07 2.66035e+07 2.65795e+07 2.66044e+07 2.65805e+07 2.66055e+07 2.65815e+07
          2.66065e+07 2.65825e+07 2.66076e+07 2.65836e+07 2.66087e+07 2.65847e+07 2.66097e+07 2.65858e+07 2.66108e+07 2.65869e+07 2.66119e+07 2.6588e+07
          2.6613e+07 2.65891e+07 2.66141e+07 2.65901e+07 2.66151e+07 2.65912e+07 2.66161e+07 2.65922e+07 2.6617e+07 2.65932e+07 2.66176e+07 2.65939e+07
          2.66178e+07 2.65941e+07 2.6548e+07 2.65486e+07 2.65494e+07 2.65501e+07 2.6551e+07 2.65519e+07 2.65528e+07 2.65537e+07 2.65547e+07 2.65555e+07
          2.65564e+07 2.65575e+07 2.65586e+07 2.65597e+07 2.65607e+07 2.65618e+07 2.65629e+07 2.6564e+07 2.65651e+07 2.65662e+07 2.65673e+07 2.65684e+07
          2.65696e+07 2.65706e+07 2.65709e+07 2.65234e+07 2.65243e+07 2.65251e+07 2.6526e+07 2.65269e+07 2.65279e+07 2.65288e+07 2.65298e+07 2.65308e+07
          2.65316e+07 2.65325e+07 2.65334e+07 2.65346e+07 2.65357e+07 2.65368e+07 2.65379e+07 2.6539e+07 2.65401e+07 2.65412e+07 2.65423e+07 2.65434e+07
          2.65446e+07 2.65459e+07 2.65475e+07 2.65517e+07 2.64989e+07 2.64999e+07 2.65008e+07 2.65018e+07 2.65028e+07 2.65038e+07 2.65048e+07 2.65058e+07
          2.65069e+07 2.65077e+07 2.65086e+07 2.65096e+07 2.65107e+07 2.65118e+07 2.65128e+07 2.65139e+07 2.6515e+07 2.65161e+07 2.65172e+07 2.65183e+07
          2.65195e+07 2.65207e+07 2.65221e+07 2.6524e+07 2.65289e+07 2.64744e+07 2.64755e+07 2.64766e+07 2.64776e+07 2.64787e+07 2.64798e+07 2.64808e+07
          2.64819e+07 2.6483e+07 2.64839e+07 2.64848e+07 2.64857e+07 2.64868e+07 2.64878e+07 2.64889e+07 2.649e+07 2.6491e+07 2.64921e+07 2.64932e+07
          2.64943e+07 2.64955e+07 2.64967e+07 2.6498e+07 2.64996e+07 2.65043e+07 2.64498e+07 2.64511e+07 2.64523e+07 2.64535e+07 2.64546e+07 2.64557e+07
          2.64568e+07 2.64579e+07 2.6459e+07 2.646e+07 2.64609e+07 2.64618e+07 2.64629e+07 2.64639e+07 2.6465e+07 2.6466e+07 2.64671e+07 2.64681e+07
          2.64692e+07 2.64703e+07 2.64714e+07 2.64725e+07 2.64736e+07 2.64749e+07 2.64756e+07 2.64253e+07 2.64267e+07 2.64281e+07 2.64293e+07 2.64305e+07
          2.64317e+07 2.64328e+07 2.6434e+07 2.64351e+07 2.64361e+07 2.6437e+07 2.64379e+07 2.6439e+07 2.644e+07 2.6441e+07 2.6442e+07 2.64431e+07
          2.64441e+07 2.64452e+07 2.64462e+07 2.64473e+07 2.64483e+07 2.64492e+07 2.64499e+07 2.64502e+07 2.64008e+07 2.64025e+07 2.64039e+07 2.64052e+07
          2.64065e+07 2.64077e+07 2.64088e+07 2.641e+07 2.64112e+07 2.64123e+07 2.64132e+07 2.64141e+07 2.6415e+07 2.6416e+07 2.6417e+07 2.64181e+07
          2.64191e+07 2.64201e+07 2.64212e+07 2.64222e+07 2.64232e+07 2.64241e+07 2.64249e+07 2.64255e+07 2.64257e+07 2.63763e+07 2.6378e+07 2.63796e+07
          2.63809e+07 2.63822e+07 2.63835e+07 2.63847e+07 2.63859e+07 2.63871e+07 2.63882e+07 2.63892e+07 2.63901e+07 2.6391e+07 2.6392e+07 2.6393e+07
          2.6394e+07 2.6395e+07 2.6396e+07 2.6397e+07 2.63979e+07 2.63988e+07 2.63996e+07 2.64003e+07 2.64008e+07 2.64009e+07 2.63518e+07 2.63534e+07
          2.6355e+07 2.63564e+07 2.63578e+07 2.63591e+07 2.63604e+07 2.63617e+07 2.6363e+07 2.6364e+07 2.6365e+07 2.63659e+07 2.63669e+07 2.63679e+07
          2.63688e+07 2.63698e+07 2.63708e+07 2.63717e+07 2.63726e+07 2.63734e+07 2.63742e+07 2.63749e+07 2.63754e+07 2.63758e+07 2.63759e+07 2.63272e+07
          2.63289e+07 2.63304e+07 2.6332e+07 2.63334e+07 2.63348e+07 2.63362e+07 2.63375e+07 2.63388e+07 2.63398e+07 2.63408e+07 2.63417e+07 2.63428e+07
          2.63437e+07 2.63447e+07 2.63456e+07 2.63465e+07 2.63474e+07 2.63482e+07 2.6349e+07 2.63497e+07 2.63503e+07 2.63507e+07 2.6351e+07 2.63511e+07
          2.63027e+07 2.63044e+07 2.6306e+07 2.63076e+07 2.63091e+07 2.63105e+07 2.63119e+07 2.63133e+07 2.63146e+07 2.63157e+07 2.63167e+07 2.63177e+07
          2.63187e+07 2.63197e+07 2.63206e+07 2.63215e+07 2.63224e+07 2.63232e+07 2.6324e+07 2.63247e+07 2.63253e+07 2.63258e+07 2.63262e+07 2.63264e+07
          2.63265e+07 2.62782e+07 2.62799e+07 2.62816e+07 2.62833e+07 2.62848e+07 2.62863e+07 2.62878e+07 2.62891e+07 2.62905e+07 2.62917e+07 2.62927e+07
          2.62937e+07 2.62946e+07 2.62956e+07 2.62965e+07 2.62974e+07 2.62982e+07 2.6299e+07 2.62997e+07 2.63004e+07 2.6301e+07 2.63014e+07 2.63018e+07
          2.6302e+07 2.63021e+07 2.62536e+07 2.62555e+07 2.62573e+07 2.6259e+07 2.62606e+07 2.62622e+07 2.62636e+07 2.6265e+07 2.62663e+07 2.62676e+07
          2.62687e+07 2.62697e+07 2.62706e+07 2.62716e+07 2.62724e+07 2.62733e+07 2.62741e+07 2.62749e+07 2.62756e+07 2.62762e+07 2.62767e+07 2.62772e+07
          2.62775e+07 2.62777e+07 2.62778e+07 2.62291e+07 2.62312e+07 2.62331e+07 2.62349e+07 2.62365e+07 2.62381e+07 2.62395e+07 2.62409e+07 2.62423e+07
          2.62435e+07 2.62446e+07 2.62456e+07 2.62466e+07 2.62475e+07 2.62484e+07 2.62493e+07 2.62501e+07 2.62508e+07 2.62515e+07 2.62521e+07 2.62526e+07
          2.62531e+07 2.62534e+07 2.62536e+07 2.62536e+07 2.62046e+07 2.62071e+07 2.62091e+07 2.62109e+07 2.62125e+07 2.62141e+07 2.62155e+07 2.62169e+07
          2.62182e+07 2.62195e+07 2.62206e+07 2.62217e+07 2.62226e+07 2.62236e+07 2.62244e+07 2.62253e+07 2.62261e+07 2.62268e+07 2.62275e+07 2.62281e+07
          2.62286e+07 2.6229e+07 2.62293e+07 2.62295e+07 2.62296e+07
        </DataArray>
        <DataArray type="Float32" Name="pw" NumberOfComponents="1" format="ascii">
          2.6587e+07 2.6587e+07 2.65625e+07 2.65629e+07 2.65875e+07 2.65635e+07 2.65882e+07 2.65642e+07 2.6589e+07 2.6565e+07 2.65899e+07 2.65659e+07
          2.65907e+07 2.65668e+07 2.65916e+07 2.65677e+07 2.65926e+07 2.65686e+07 2.65935e+07 2.65695e+07 2.65944e+07 2.65705e+07 2.65955e+07 2.65715e+07
          2.65965e+07 2.65725e+07 2.65976e+07 2.65736e+07 2.65987e+07 2.65747e+07 2.65997e+07 2.65758e+07 2.66008e+07 2.65769e+07 2.66019e+07 2.6578e+07
          2.6603e+07 2.65791e+07 2.66041e+07 2.65801e+07 2.66051e+07 2.65812e+07 2.66061e+07 2.65822e+07 2.6607e+07 2.65832e+07 2.66076e+07 2.65839e+07
          2.66078e+07 2.65841e+07 2.6538e+07 2.65386e+07 2.65394e+07 2.65401e+07 2.6541e+07 2.65419e+07 2.65428e+07 2.65437e+07 2.65447e+07 2.65455e+07
          2.65464e+07 2.65475e+07 2.65486e+07 2.65497e+07 2.65507e+07 2.65518e+07 2.65529e+07 2.6554e+07 2.65551e+07 2.65562e+07 2.65573e+07 2.65584e+07
          2.65596e+07 2.65606e+07 2.65609e+07 2.65134e+07 2.65143e+07 2.65151e+07 2.6516e+07 2.65169e+07 2.65179e+07 2.65188e+07 2.65198e+07 2.65208e+07
          2.65216e+07 2.65225e+07 2.65234e+07 2.65246e+07 2.65257e+07 2.65268e+07 2.65279e+07 2.6529e+07 2.65301e+07 2.65312e+07 2.65323e+07 2.65334e+07
          2.65346e+07 2.65359e+07 2.65375e+07 2.6541e+07 2.64889e+07 2.64899e+07 2.64908e+07 2.64918e+07 2.64928e+07 2.64938e+07 2.64948e+07 2.64958e+07
          2.64969e+07 2.64977e+07 2.64986e+07 2.64996e+07 2.65007e+07 2.65018e+07 2.65028e+07 2.65039e+07 2.6505e+07 2.65061e+07 2.65072e+07 2.65083e+07
          2.65095e+07 2.65107e+07 2.65121e+07 2.6514e+07 2.65182e+07 2.64644e+07 2.64655e+07 2.64666e+07 2.64676e+07 2.64687e+07 2.64698e+07 2.64708e+07
          2.64719e+07 2.6473e+07 2.64739e+07 2.64748e+07 2.64757e+07 2.64768e+07 2.64778e+07 2.64789e+07 2.648e+07 2.6481e+07 2.64821e+07 2.64832e+07
          2.64843e+07 2.64855e+07 2.64867e+07 2.6488e+07 2.64896e+07 2.64936e+07 2.64398e+07 2.64411e+07 2.64423e+07 2.64435e+07 2.64446e+07 2.64457e+07
          2.64468e+07 2.64479e+07 2.6449e+07 2.645e+07 2.64509e+07 2.64518e+07 2.64529e+07 2.64539e+07 2.6455e+07 2.6456e+07 2.64571e+07 2.64581e+07
          2.64592e+07 2.64603e+07 2.64614e+07 2.64625e+07 2.64636e+07 2.64649e+07 2.64655e+07 2.64153e+07 2.64167e+07 2.64181e+07 2.64193e+07 2.64205e+07
          2.64217e+07 2.64228e+07 2.6424e+07 2.64251e+07 2.64261e+07 2.6427e+07 2.64279e+07 2.6429e+07 2.643e+07 2.6431e+07 2.6432e+07 2.64331e+07
          2.64341e+07 2.64352e+07 2.64362e+07 2.64373e+07 2.64383e+07 2.64392e+07 2.64399e+07 2.64402e+07 2.63908e+07 2.63925e+07 2.63939e+07 2.63952e+07
          2.63965e+07 2.63977e+07 2.63988e+07 2.64e+07 2.64012e+07 2.64023e+07 2.64032e+07 2.64041e+07 2.6405e+07 2.6406e+07 2.6407e+07 2.64081e+07
          2.64091e+07 2.64101e+07 2.64112e+07 2.64122e+07 2.64132e+07 2.64141e+07 2.64149e+07 2.64155e+07 2.64157e+07 2.63663e+07 2.6368e+07 2.63696e+07
          2.63709e+07 2.63722e+07 2.63735e+07 2.63747e+07 2.63759e+07 2.63771e+07 2.63782e+07 2.63792e+07 2.63801e+07 2.6381e+07 2.6382e+07 2.6383e+07
          2.6384e+07 2.6385e+07 2.6386e+07 2.6387e+07 2.63879e+07 2.63888e+07 2.63896e+07 2.63903e+07 2.63908e+07 2.63909e+07 2.63418e+07 2.63434e+07
          2.6345e+07 2.63464e+07 2.63478e+07 2.63491e+07 2.63504e+07 2.63517e+07 2.6353e+07 2.6354e+07 2.6355e+07 2.63559e+07 2.63569e+07 2.63579e+07
          2.63588e+07 2.63598e+07 2.63608e+07 2.63617e+07 2.63626e+07 2.63634e+07 2.63642e+07 2.63649e+07 2.63654e+07 2.63658e+07 2.63659e+07 2.63172e+07
          2.63189e+07 2.63204e+07 2.6322e+07 2.63234e+07 2.63248e+07 2.63262e+07 2.63275e+07 2.63288e+07 2.63298e+07 2.63308e+07 2.63317e+07 2.63328e+07
          2.63337e+07 2.63347e+07 2.63356e+07 2.63365e+07 2.63374e+07 2.63382e+07 2.6339e+07 2.63397e+07 2.63403e+07 2.63407e+07 2.6341e+07 2.63411e+07
          2.62927e+07 2.62944e+07 2.6296e+07 2.62976e+07 2.62991e+07 2.63005e+07 2.63019e+07 2.63033e+07 2.63046e+07 2.63057e+07 2.63067e+07 2.63077e+07
          2.63087e+07 2.63097e+07 2.63106e+07 2.63115e+07 2.63124e+07 2.63132e+07 2.6314e+07 2.63147e+07 2.63153e+07 2.63158e+07 2.63162e+07 2.63164e+07
          2.63165e+07 2.62682e+07 2.62699e+07 2.62716e+07 2.62733e+07 2.62748e+07 2.62763e+07 2.62778e+07 2.62791e+07 2.62805e+07 2.62817e+07 2.62827e+07
          2.62837e+07 2.62846e+07 2.62856e+07 2.62865e+07 2.62874e+07 2.62882e+07 2.6289e+07 2.62897e+07 2.62904e+07 2.6291e+07 2.62914e+07 2.62918e+07
          2.6292e+07 2.62921e+07 2.62436e+07 2.62455e+07 2.62473e+07 2.6249e+07 2.62506e+07 2.62522e+07 2.62536e+07 2.6255e+07 2.62563e+07 2.62576e+07
          2.62587e+07 2.62597e+07 2.62606e+07 2.62616e+07 2.62624e+07 2.62633e+07 2.62641e+07 2.62649e+07 2.62656e+07 2.62662e+07 2.62667e+07 2.62672e+07
          2.62675e+07 2.62677e+07 2.62678e+07 2.62191e+07 2.62212e+07 2.62231e+07 2.62249e+07 2.62265e+07 2.62281e+07 2.62295e+07 2.62309e+07 2.62323e+07
          2.62335e+07 2.62346e+07 2.62356e+07 2.62366e+07 2.62375e+07 2.62384e+07 2.62393e+07 2.62401e+07 2.62408e+07 2.62415e+07 2.62421e+07 2.62426e+07
          2.62431e+07 2.62434e+07 2.62436e+07 2.62436e+07 2.61946e+07 2.61971e+07 2.61991e+07 2.62009e+07 2.62025e+07 2.62041e+07 2.62055e+07 2.62069e+07
          2.62082e+07 2.62095e+07 2.62106e+07 2.62117e+07 2.62126e+07 2.62136e+07 2.62144e+07 2.62153e+07 2.62161e+07 2.62168e+07 2.62175e+07 2.62181e+07
          2.62186e+07 2.6219e+07 2.62193e+07 2.62195e+07 2.62196e+07
        </DataArray>
        <DataArray type="Float32" Name="pc" NumberOfComponents="1" format="ascii">
          10000 10000 10000 10000 10000 10000 10000 10000 10000 10000 10000 10000
          10000 10000 10000 10000 10000 10000 10000 10000 10000 10000 10000 10000
          10000 10000 10000 10000 10000 10000 10000 10000 10000 10000 10000 10000
          10000 10000 10000 10000 10000 10000 10000 10000 10000 10000 10000 10000
          10000 10000 10000 10000 10000 10000 10000 10000 10000 10000 10000 10000
          10000 10000 10000 10000 10000 10000 10000 10000 10000 10000 10000 10000
          10000 10000 10000 10000 10000 10000 10000 10000 10000 10000 10000 10000
          10000 10000 10000 10000 10000 10000 10000 10000 10000 10000 10000 10000
          10000 10000 10008.3 10650.5 10000 10000 10000 10000 10000 10000 10000 10000
          10000 10000 10000 10000 10000 10000 10000 10000 10000 10000 10000 10000
          10000 10000 10000 10011.5 10679.5 10000 10000 10000 10000 10000 10000 10000
          10000 10000 10000 10000 10000 10000 10000 10000 10000 10000 10000 10000
          10000 10000 10000 10000 10010.2 10682.8 10000 10000 10000 10000 10000 10000
          10000 10000 10000 10000 10000 10000 10000 10000 10000 10000 10000 10000
          10000 10000 10000 10000 10000 10000 10054.6 10000 10000 10000 10000 10000
          10000 10000 10000 10000 10000 10000 10000 10000 10000 10000 10000 10000
          10000 10000 10000 10000 10000 10000 10000 10000 10000 10000 10000 10000
          10000 10000 10000 10000 10000 10000 10000 10000 10000 10000 10000 10000
          10000 10000 10000 10000 10000 10000 10000 10000 10000 10000 10000 10000
          10000 10000 10000 10000 10000 10000 10000 10000 10000 10000 10000 10000
          10000 10000 10000 10000 10000 10000 10000 10000 10000 10000 10000 10000
          10000 10000 10000 10000 10000 10000 10000 10000 10000 10000 10000 10000
          10000 10000 10000 10000 10000 10000 10000 10000 10000 10000 10000 10000
          10000 10000 10000 10000 10000 10000 10000 10000 10000 10000 10000 10000
          10000 10000 10000 10000 10000 10000 10000 10000 10000 10000 10000 10000
          10000 10000 10000 10000 10000 10000 10000 10000 10000 10000 10000 10000
          10000 10000 10000 10000 10000 10000 10000 10000 10000 10000 10000 10000
          10000 10000 10000 10000 10000 10000 10000 10000 10000 10000 10000 10000
          10000 10000 10000 10000 10000 10000 10000 10000 10000 10000 10000 10000
          10000 10000 10000 10000 10000 10000 10000 10000 10000 10000 10000 10000
          10000 10000 10000 10000 10000 10000 10000 10000 10000 10000 10000 10000
          10000 10000 10000 10000 10000 10000 10000 10000 10000 10000 10000 10000
          10000 10000 10000 10000 10000 10000 10000 10000 10000 10000 10000 10000
          10000 10000 10000 10000 10000 10000 10000 10000 10000 10000 10000 10000
          10000 10000 10000 10000 10000 10000 10000 10000 10000 10000 10000 10000
          10000 10000 10000 10000 10000
        </DataArray>
        <DataArray type="Float32" Name="rhoW" NumberOfComponents="1" format="ascii">
          976.461 976.461 976.499 976.499 976.461 976.5 976.462 976.5 976.462 976.5 976.462 976.501
          976.463 976.501 976.463 976.501 976.463 976.502 976.464 976.502 976.464 976.503 976.465 976.503
          976.465 976.503 976.466 976.504 976.466 976.504 976.466 976.505 976.467 976.505 976.467 976.506
          976.468 976.506 976.468 976.506 976.469 976.507 976.469 976.507 976.47 976.508 976.47 976.508
          976.47 976.508 976.537 976.538 976.538 976.538 976.539 976.539 976.539 976.54 976.538 976.533
          976.531 976.534 976.539 976.542 976.543 976.543 976.544 976.544 976.544 976.545 976.545 976.546
          976.546 976.547 976.547 976.576 976.576 976.576 976.577 976.577 976.577 976.578 976.578 976.499
          965.524 965.519 965.625 976.572 976.581 976.581 976.581 976.582 976.582 976.583 976.583 976.584
          976.584 976.585 976.586 976.587 976.614 976.614 976.614 976.615 976.615 976.616 976.616 976.616
          976.531 965.495 965.485 965.587 976.608 976.619 976.619 976.62 976.62 976.621 976.621 976.622
          976.622 976.623 976.623 976.624 976.626 976.652 976.652 976.653 976.653 976.654 976.654 976.655
          976.655 976.566 965.485 965.474 965.574 976.647 976.657 976.658 976.658 976.659 976.659 976.66
          976.66 976.661 976.661 976.661 976.662 976.664 976.69 976.69 976.691 976.691 976.692 976.692
          976.693 976.693 976.602 965.474 965.464 965.562 976.685 976.696 976.696 976.697 976.697 976.698
          976.698 976.698 976.699 976.699 976.7 976.7 976.701 976.728 976.729 976.729 976.73 976.73
          976.731 976.731 976.731 976.636 965.463 965.453 965.548 976.723 976.734 976.735 976.735 976.736
          976.736 976.736 976.737 976.737 976.738 976.738 976.738 976.739 976.766 976.767 976.768 976.768
          976.769 976.769 976.77 976.77 976.667 965.453 965.442 965.531 976.762 976.773 976.773 976.774
          976.774 976.774 976.775 976.775 976.776 976.776 976.776 976.776 976.777 976.805 976.805 976.806
          976.807 976.807 976.808 976.808 976.809 976.789 965.442 965.431 965.451 976.8 976.811 976.811
          976.812 976.812 976.813 976.813 976.813 976.814 976.814 976.814 976.815 976.815 976.843 976.843
          976.844 976.845 976.845 976.846 976.846 976.847 976.827 965.432 965.42 965.441 976.838 976.849
          976.85 976.85 976.851 976.851 976.851 976.852 976.852 976.852 976.852 976.853 976.853 976.881
          976.882 976.882 976.883 976.884 976.884 976.885 976.885 976.866 965.421 965.41 965.43 976.877
          976.888 976.888 976.889 976.889 976.889 976.89 976.89 976.89 976.89 976.891 976.891 976.891
          976.919 976.92 976.921 976.921 976.922 976.922 976.923 976.924 976.904 965.41 965.399 965.42
          976.915 976.926 976.927 976.927 976.927 976.928 976.928 976.928 976.928 976.929 976.929 976.929
          976.929 976.957 976.958 976.959 976.959 976.96 976.961 976.961 976.962 976.944 965.409 965.4
          965.417 976.956 976.965 976.965 976.965 976.966 976.966 976.966 976.966 976.967 976.967 976.967
          976.967 976.968 976.996 976.996 976.997 976.998 976.998 976.999 977 977 976.998 976.991
          976.989 976.993 977 977.003 977.003 977.004 977.004 977.004 977.005 977.005 977.005 977.005
          977.005 977.005 977.006 977.034 977.035 977.035 977.036 977.037 977.037 977.038 977.039 977.039
          977.04 977.04 977.041 977.041 977.041 977.042 977.042 977.042 977.043 977.043 977.043 977.043
          977.044 977.044 977.044 977.044 977.072 977.073 977.074 977.075 977.075 977.076 977.077 977.077
          977.078 977.078 977.079 977.079 977.08 977.08 977.081 977.081 977.081 977.081 977.082 977.082
          977.082 977.082 977.083 977.083 977.083
        </DataArray>
        <DataArray type="Float32" Name="rhoN" NumberOfComponents="1" format="ascii">
          246.185 246.186 246.009 246.013 246.19 246.019 246.197 246.025 246.204 246.033 246.212 246.041
          246.22 246.049 246.228 246.057 246.237 246.066 246.246 246.074 246.254 246.083 246.264 246.092
          246.273 246.102 246.283 246.112 246.293 246.122 246.303 246.132 246.313 246.142 246.324 246.152
          246.334 246.162 246.344 246.172 246.353 246.182 246.363 246.192 246.371 246.201 246.376 246.207
          246.378 246.209 245.833 245.839 245.846 245.853 245.861 245.869 245.878 245.886 245.892 245.895
          245.901 245.913 245.928 245.941 245.951 245.961 245.971 245.981 245.991 246.002 246.012 246.022
          246.033 246.043 246.045 245.656 245.664 245.672 245.68 245.689 245.697 245.706 245.715 245.642
          235.265 235.269 235.369 245.752 245.77 245.78 245.79 245.8 245.81 245.82 245.831 245.841
          245.852 245.865 245.879 245.918 245.48 245.489 245.498 245.507 245.516 245.525 245.535 245.544
          245.464 235.038 235.037 235.133 245.578 245.599 245.609 245.619 245.629 245.639 245.649 245.659
          245.67 245.682 245.695 245.712 245.758 245.303 245.313 245.323 245.333 245.343 245.353 245.363
          245.372 245.29 234.826 234.825 234.92 245.407 245.428 245.437 245.447 245.457 245.467 245.477
          245.488 245.498 245.509 245.522 245.537 245.58 245.126 245.138 245.149 245.16 245.17 245.181
          245.191 245.201 245.116 234.615 234.613 234.706 245.236 245.256 245.266 245.276 245.286 245.296
          245.305 245.315 245.325 245.336 245.346 245.357 245.365 244.95 244.963 244.975 244.987 244.998
          245.009 245.019 245.029 244.94 234.403 234.402 234.492 245.065 245.085 245.095 245.104 245.114
          245.124 245.133 245.143 245.153 245.162 245.17 245.177 245.18 244.773 244.788 244.802 244.814
          244.825 244.837 244.847 244.858 244.761 234.192 234.191 234.275 244.894 244.914 244.923 244.933
          244.942 244.952 244.961 244.971 244.98 244.988 244.996 245.001 245.004 244.596 244.612 244.626
          244.639 244.651 244.663 244.674 244.685 244.676 233.979 233.977 234.002 244.721 244.741 244.751
          244.76 244.769 244.778 244.787 244.796 244.805 244.812 244.818 244.823 244.825 244.419 244.434
          244.449 244.462 244.475 244.487 244.499 244.511 244.502 233.764 233.762 233.788 244.548 244.568
          244.577 244.586 244.595 244.604 244.612 244.62 244.627 244.633 244.638 244.641 244.643 244.242
          244.257 244.272 244.286 244.299 244.312 244.325 244.337 244.328 233.549 233.548 233.574 244.375
          244.395 244.404 244.412 244.421 244.429 244.436 244.444 244.45 244.455 244.459 244.462 244.463
          244.065 244.08 244.095 244.11 244.124 244.137 244.15 244.163 244.154 233.336 233.335 233.36
          244.202 244.222 244.23 244.239 244.247 244.255 244.262 244.268 244.274 244.279 244.282 244.284
          244.286 243.888 243.904 243.92 243.935 243.949 243.963 243.976 243.989 243.983 233.13 233.132
          233.155 244.032 244.049 244.057 244.066 244.073 244.081 244.087 244.093 244.099 244.103 244.106
          244.108 244.109 243.71 243.728 243.744 243.76 243.775 243.789 243.803 243.816 243.825 243.829
          243.837 243.849 243.865 243.876 243.885 243.892 243.9 243.907 243.914 243.919 243.924 243.928
          243.931 243.933 243.934 243.533 243.552 243.57 243.586 243.602 243.616 243.63 243.643 243.655
          243.666 243.677 243.686 243.695 243.704 243.712 243.72 243.727 243.734 243.74 243.746 243.751
          243.755 243.758 243.759 243.76 243.356 243.379 243.397 243.414 243.429 243.444 243.457 243.47
          243.482 243.494 243.504 243.514 243.523 243.532 243.54 243.548 243.555 243.562 243.568 243.574
          243.579 243.583 243.585 243.587 243.588
        </DataArray>
        <DataArray type="Float32" Name="mobW" NumberOfComponents="1" format="ascii">
          3141.32 3141.32 3138.74 3138.75 3141.32 3138.74 3141.32 3138.74 3141.32 3138.74 3141.31 3138.74
          3141.31 3138.74 3141.31 3138.74 3141.31 3138.73 3141.3 3138.73 3141.3 3138.73 3141.3 3138.73
          3141.3 3138.73 3141.29 3138.73 3141.29 3138.72 3141.29 3138.72 3141.28 3138.72 3141.28 3138.72
          3141.28 3138.72 3141.28 3138.71 3141.27 3138.71 3141.27 3138.71 3141.27 3138.7 3141.27 3138.7
          3141.27 3138.69 3136.17 3136.18 3136.17 3136.17 3136.17 3136.17 3136.16 3136.16 3136.3 3136.58
          3136.72 3136.57 3136.29 3136.15 3136.15 3136.15 3136.15 3136.15 3136.14 3136.14 3136.14 3136.14
          3136.13 3136.11 3136.11 3133.6 3133.61 3133.61 3133.6 3133.6 3133.6 3133.6 3133.61 3137.89
          3707.75 3708.01 3702.59 3134 3133.58 3133.58 3133.58 3133.58 3133.58 3133.57 3133.57 3133.57
          3133.57 3133.56 3112.88 1892.72 3131.04 3131.05 3131.04 3131.04 3131.04 3131.03 3131.03 3131.05
          3135.68 3708.77 3709.32 3704.07 3131.57 3131.02 3131.02 3131.02 3131.01 3131.01 3131.01 3131.01
          3131.01 3131 3131 3102.34 1850.35 3128.48 3128.49 3128.48 3128.48 3128.48 3128.47 3128.47
          3128.49 3133.29 3708.86 3709.41 3704.27 3129.02 3128.46 3128.46 3128.46 3128.45 3128.45 3128.45
          3128.45 3128.45 3128.45 3128.45 3103.09 1844.29 3125.93 3125.93 3125.93 3125.92 3125.92 3125.92
          3125.92 3125.94 3130.89 3708.94 3709.5 3704.45 3126.46 3125.9 3125.9 3125.9 3125.9 3125.9
          3125.9 3125.89 3125.89 3125.89 3125.9 3125.9 2992.52 3123.37 3123.38 3123.38 3123.37 3123.37
          3123.37 3123.36 3123.39 3128.55 3709.02 3709.59 3704.69 3123.91 3123.35 3123.35 3123.35 3123.35
          3123.34 3123.34 3123.34 3123.34 3123.34 3123.35 3123.35 3123.24 3120.83 3120.83 3120.83 3120.82
          3120.82 3120.82 3120.82 3120.84 3126.39 3709.11 3709.68 3705.09 3121.37 3120.8 3120.8 3120.8
          3120.8 3120.8 3120.8 3120.79 3120.79 3120.79 3120.79 3120.8 3120.76 3118.29 3118.28 3118.28
          3118.28 3118.28 3118.27 3118.27 3118.27 3119.35 3709.19 3709.79 3708.78 3118.83 3118.26 3118.26
          3118.26 3118.25 3118.25 3118.25 3118.25 3118.25 3118.25 3118.25 3118.25 3118.22 3115.75 3115.75
          3115.74 3115.74 3115.74 3115.73 3115.73 3115.73 3116.8 3709.27 3709.87 3708.83 3116.29 3115.72
          3115.72 3115.72 3115.72 3115.71 3115.71 3115.71 3115.71 3115.71 3115.71 3115.71 3115.68 3113.21
          3113.21 3113.21 3113.21 3113.2 3113.2 3113.2 3113.2 3114.27 3709.36 3709.96 3708.91 3113.76
          3113.19 3113.18 3113.18 3113.18 3113.18 3113.18 3113.18 3113.18 3113.18 3113.17 3113.17 3113.15
          3110.68 3110.68 3110.68 3110.67 3110.67 3110.67 3110.67 3110.67 3111.76 3709.44 3710.05 3708.99
          3111.23 3110.65 3110.65 3110.65 3110.65 3110.65 3110.65 3110.65 3110.65 3110.64 3110.64 3110.64
          3110.62 3108.16 3108.15 3108.15 3108.15 3108.14 3108.14 3108.14 3108.14 3109.13 3709.06 3709.52
          3708.64 3108.56 3108.13 3108.13 3108.12 3108.12 3108.12 3108.12 3108.12 3108.12 3108.12 3108.12
          3108.12 3108.09 3105.63 3105.63 3105.63 3105.62 3105.62 3105.62 3105.62 3105.61 3105.76 3106.17
          3106.28 3106.12 3105.75 3105.6 3105.6 3105.6 3105.6 3105.6 3105.6 3105.6 3105.6 3105.59
          3105.59 3105.59 3105.57 3103.11 3103.11 3103.11 3103.11 3103.1 3103.1 3103.1 3103.1 3103.09
          3103.09 3103.09 3103.09 3103.09 3103.08 3103.08 3103.08 3103.08 3103.08 3103.08 3103.08 3103.08
          3103.08 3103.08 3103.07 3103.05 3100.6 3100.59 3100.59 3100.58 3100.58 3100.58 3100.57 3100.57
          3100.57 3100.56 3100.56 3100.56 3100.55 3100.55 3100.55 3100.55 3100.55 3100.54 3100.54 3100.54
          3100.54 3100.54 3100.54 3100.54 3100.54
        </DataArray>
        <DataArray type="Float32" Name="mobN" NumberOfComponents="1" format="ascii">
          0 0 0 0 0 0 0 0 0 0 0 0
          0 0 0 0 0 0 0 0 0 0 0 0
          0 0 0 0 0 0 0 0 0 0 0 0
          0 0 0 0 0 0 0 0 0 0 0 0
          0 0 0 0 0 0 0 0 0 0 0 0
          0 0 0 0 0 0 0 0 0 0 0 0
          0 0 0 0 0 0 0 0 0 0 0 0
          0 0 0 0 0 0 0 0 0 0 0 0
          0 3.91574e-22 0.000441274 152.667 0 0 0 0 0 0 0 0
          0 0 0 0 0 0 0 0 0 0 0 0
          0 0 1.23499e-20 0.00118221 171.566 0 0 0 0 0 0 0
          0 0 0 0 0 0 0 0 0 0 0 0
          0 0 0 2.95271e-21 0.000819687 173.806 0 0 0 0 0 0
          0 0 0 0 0 0 0 0 0 0 0 0
          0 0 0 0 0 5.14269e-15 0.123841 0 0 0 0 0
          0 0 0 0 0 0 0 0 0 0 0 0
          0 0 0 0 0 0 0 1.75276e-11 0 0 0 0
          0 0 0 0 0 0 0 0 0 0 0 0
          0 0 0 0 0 0 0 0 0 0 0 0
          0 0 0 0 0 0 0 0 0 0 0 0
          0 0 0 0 0 0 0 0 0 0 0 0
          0 0 0 0 0 0 0 0 0 0 0 0
          0 0 0 0 0 0 0 0 0 0 0 0
          0 0 0 0 0 0 0 0 0 0 0 0
          0 0 0 0 0 0 0 0 0 0 0 0
          0 0 0 0 0 0 0 0 0 0 0 0
          0 0 0 0 0 0 0 0 0 0 0 0
          0 0 0 0 0 0 0 0 0 0 0 0
          0 0 0 0 0 0 0 0 0 0 0 0
          0 0 0 0 0 0 0 0 0 0 0 0
          0 0 0 0 0 0 0 0 0 0 0 0
          0 0 0 0 0 0 0 0 0 0 0 0
          0 0 0 0 0 0 0 0 0 0 0 0
          0 0 0 0 0 0 0 0 0 0 0 0
          0 0 0 0 0 0 0 0 0 0 0 0
          0 0 0 0 0
        </DataArray>