<?xml version="1.0"?>
<VTKFile type="UnstructuredGrid" version="0.1" byte_order="LittleEndian">
  <UnstructuredGrid>
    <Piece NumberOfCells="120" NumberOfPoints="144">
      <PointData Scalars="Sw">
        <DataArray type="Float32" Name="Sw" NumberOfComponents="1" format="ascii">
          0.143876 0.120459 0.143607 0.120463 0.120006 0.120007 0.12 0.12 0.12 0.12 0.12 0.12
          0.12 0.12 0.12 0.12 0.12 0.12 0.12 0.12 0.12 0.12 0.12 0.12
          0.12 0.12 0.12 0.12 0.12 0.12 0.12 0.12 0.143607 0.120478 0.120008 0.12
          0.12 0.12 0.12 0.12 0.12 0.12 0.12 0.12 0.12 0.12 0.12 0.12
          0.143607 0.120467 0.120009 0.12 0.12 0.12 0.12 0.12 0.12 0.12 0.12 0.12
          0.12 0.12 0.12 0.12 0.143607 0.120354 0.12 0.12 0.12 0.12 0.12 0.12
          0.12 0.12 0.12 0.12 0.12 0.12 0.12 0.12 0.143606 0.120334 0.12 0.12
          0.12 0.12 0.12 0.12 0.12 0.12 0.12 0.12 0.12 0.12 0.12 0.12
          0.143607 0.120357 0.12 0.12 0.12 0.12 0.12 0.12 0.12 0.12 0.12 0.12
          0.12 0.120001 0.120001 0.12 0.143603 0.120472 0.120008 0.119999 0.12 0.12 0.12 0.12
          0.12 0.120001 0.120001 0.120001 0.120001 0.120001 0.120001 0.12 0.143346 0.120498 0.120009 0.12
          0.12 0.12 0.12 0.12 0.12 0.12 0.12 0.12 0.12 0.12 0.12 0.12
        </DataArray>
        <DataArray type="Float32" Name="Sn" NumberOfComponents="1" format="ascii">
          0 0 0 0 0 0 0 0 0 0 0 0
          0 0 0 0 0 0 0 0 0 0 0 0
          0 0 0 0 0 0 0 0 0 0 0 0
          0 0 0 0 0 0 0 0 0 0 0 0
          0 0 0 0 0 0 0 0 0 0 0 0
          0 0 0 0 0 0 0 0 0 0 0 0
          0 0 0 0 0 0 0 0 0 0 0.069993 0.07
          0.07 0.0699998 0.0699994 0.0699991 0.0699987 0 0 0 0 0 0 0
          0 0 0.0699926 0.07 0.07 0.07 0.07 0.07 0.07 0 0 0
          0 0 0 0 0 0 0.0694432 0.0699989 0.0699999 0.07 0.07 0.0699999
          0.0699972 0 0 0 0 0 0 0 0 0 0 0
          0 0 0 0 0 0 0 0 0 0 0 0
        </DataArray>
        <DataArray type="Float32" Name="Sg" NumberOfComponents="1" format="ascii">
          0.856124 0.879541 0.856393 0.879537 0.879994 0.879993 0.88 0.88 0.88 0.88 0.88 0.88
          0.88 0.88 0.88 0.88 0.88 0.88 0.88 0.88 0.88 0.88 0.88 0.88
          0.88 0.88 0.88 0.88 0.88 0.88 0.88 0.88 0.856393 0.879522 0.879992 0.88
          0.88 0.88 0.88 0.88 0.88 0.88 0.88 0.88 0.88 0.88 0.88 0.88
          0.856393 0.879533 0.879991 0.88 0.88 0.88 0.88 0.88 0.88 0.88 0.88 0.88
          0.88 0.88 0.88 0.88 0.856393 0.879646 0.88 0.88 0.88 0.88 0.88 0.88
          0.88 0.88 0.88 0.88 0.88 0.88 0.88 0.88 0.856394 0.879666 0.810007 0.81
          0.81 0.81 0.810001 0.810001 0.810001 0.88 0.88 0.88 0.88 0.88 0.88 0.88
          0.856393 0.879643 0.810007 0.81 0.81 0.81 0.81 0.81 0.81 0.88 0.88 0.88
          0.88 0.879999 0.879999 0.88 0.856397 0.879528 0.810549 0.810002 0.81 0.81 0.81 0.81
          0.810003 0.879999 0.879999 0.879999 0.879999 0.879999 0.879999 0.88 0.856654 0.879502 0.879991 0.88
          0.88 0.88 0.88 0.88 0.88 0.88 0.88 0.88 0.88 0.88 0.88 0.88
        </DataArray>
        <DataArray type="Float32" Name="pw" NumberOfComponents="1" format="ascii">
          99406.3 98825 99403 98824.4 98804 98803.1 98798.6 98797.6 98793.2 98792.2 98787.7 98786.7
          98782.2 98781.1 98776.7 98775.6 98771.3 98770.1 98766.1 98764.8 98761.6 98759.9 98758.6 98756.4
          87193.2 87189.7 87179.8 87177.5 87169.4 87168.2 87159.3 87159.3 99403.2 98824.8 98802.6 98796.8
          98791.2 98785.6 98780.1 98774.5 98768.9 98763.2 98757.4 98750.5 98740.3 98731.5 98723.5 98715.9
          99404.4 98825.6 98802.1 98796 98790.2 98784.6 98779 98773.4 98767.7 98761.8 98755.3 98747.8
          98739 98729 98722 98715.9 99406.1 98825.1 87248.2 87239.6 87232.9 87226.8 87220.9 87214.9
          87208.9 87202.5 87195.7 87187.5 87176.3 98723.5 98720.4 98715.9 99406.7 98825 82376.6 82366
          82358.3 82351.5 82345 82338.5 82331.9 87198.8 87191.8 87183.4 87172.2 98721.6 98719.3 98715.9
          99405.3 98824.4 82374.6 82364.7 82357.1 82349.9 82342.9 82336 82328.9 87195.7 87188.9 87181.4
          87172.1 98721.4 98719.1 98715.9 99403 98824.3 98316.1 98306.1 98299 98291.8 98284.6 98277.4
          98270.2 98750.4 98743.8 98737.1 98730.7 98723.7 98719.3 98715.9 99398.6 98823.3 98799.6 98792.4
          98785.3 98778.1 98771 98763.8 98756.6 98749.5 98742.7 98736.1 98729.5 98723.5 98718.8 98715.9
        </DataArray>
        <DataArray type="Float32" Name="pn" NumberOfComponents="1" format="ascii">
          99406.3 98825 99403 98824.4 98804 98803.1 98798.6 98797.6 98793.2 98792.2 98787.7 98786.7
          98782.2 98781.1 98776.7 98775.6 98771.3 98770.1 98766.1 98764.8 98761.6 98759.9 98758.6 98756.4
          87193.2 87189.7 87179.8 87177.5 87169.4 87168.2 87159.3 87159.3 99403.2 98824.8 98802.6 98796.8
          98791.2 98785.6 98780.1 98774.5 98768.9 98763.2 98757.4 98750.5 98740.3 98731.5 98723.5 98715.9
          99404.4 98825.6 98802.1 98796 98790.2 98784.6 98779 98773.4 98767.7 98761.8 98755.3 98747.8
          98739 98729 98722 98715.9 99406.1 98825.1 87248.2 87239.6 87232.9 87226.8 87220.9 87214.9
          87208.9 87202.5 87195.7 87187.5 87176.3 98723.5 98720.4 98715.9 99406.7 98825 95479.9 95470.6
          95462.9 95456.1 95449.5 95443 95436.3 87198.8 87191.8 87183.4 87172.2 98721.6 98719.3 98715.9
          99405.3 98824.4 95477.7 95469.2 95461.7 95454.5 95447.5 95440.6 95433.5 87195.7 87188.9 87181.4
          87172.1 98721.4 98719.1 98715.9 99403 98824.3 99615.8 99616.6 99609.4 99602.3 99595.1 99587.9
          99580.7 98750.4 98743.8 98737.1 98730.7 98723.7 98719.3 98715.9 99398.6 98823.3 98799.6 98792.4
          98785.3 98778.1 98771 98763.8 98756.6 98749.5 98742.7 98736.1 98729.5 98723.5 98718.8 98715.9
        </DataArray>
        <DataArray type="Float32" Name="pg" NumberOfComponents="1" format="ascii">
          100097 100093 100097 100092 100088 100087 100083 100082 100077 100076 100072 100071
          100066 100065 100061 100060 100055 100054 100050 100049 100046 100044 100043 100040
          100034 100030 100021 100018 100010 100009 100000 100000 100097 100092 100086 100081
          100075 100070 100064 100059 100053 100047 100042 100035 100024 100016 100008 100000
          100098 100093 100086 100080 100074 100069 100063 100057 100052 100046 100039 100032
          100023 100013 100006 100000 100100 100096 100089 100080 100074 100068 100062 100056
          100050 100043 100036 100028 100017 100008 100004 100000 100100 100097 100091 100081
          100073 100066 100060 100053 100047 100039 100032 100024 100013 100006 100003 100000
          100099 100096 100089 100079 100072 100065 100058 100051 100044 100036 100030 100022
          100013 100005 100003 100000 100097 100091 100085 100078 100070 100063 100056 100049
          100042 100034 100028 100021 100015 100008 100003 100000 100095 100089 100083 100076
          100069 100062 100055 100048 100041 100034 100027 100020 100014 100008 100003 100000
        </DataArray>
        <DataArray type="Float32" Name="rhow" NumberOfComponents="1" format="ascii">
          993.885 998.144 993.885 998.143 998.228 998.228 998.229 998.229 998.229 998.229 998.229 998.229
          998.229 998.229 998.229 998.229 998.229 998.229 998.229 998.229 998.229 998.229 998.229 998.229
          998.224 998.224 998.224 998.224 998.224 998.224 998.224 998.224 993.885 998.14 998.227 998.229
          998.229 998.229 998.229 998.229 998.229 998.229 998.229 998.229 998.229 998.229 998.229 998.229
          993.885 998.142 998.227 998.229 998.229 998.229 998.229 998.229 998.229 998.229 998.229 998.229
          998.229 998.229 998.229 998.229 993.885 998.161 998.226 998.226 998.225 998.224 998.224 998.224
          998.224 998.224 998.224 998.224 998.224 998.229 998.23 998.229 993.885 998.165 998.26 998.261
          998.261 998.261 998.261 998.261 998.261 998.231 998.225 998.224 998.224 998.243 998.247 998.229
          993.885 998.161 998.261 998.261 998.261 998.261 998.261 998.261 998.261 998.231 998.225 998.225
          998.229 998.261 998.26 998.229 993.885 998.141 998.276 998.268 998.268 998.268 998.268 998.268
          998.268 998.267 998.267 998.266 998.266 998.262 998.258 998.229 993.884 998.136 998.231 998.234
          998.234 998.234 998.234 998.234 998.234 998.234 998.234 998.234 998.234 998.234 998.234 998.229
        </DataArray>
        <DataArray type="Float32" Name="rhon" NumberOfComponents="1" format="ascii">
          857.653 870.32 857.653 870.315 870.666 870.666 870.673 870.673 870.673 870.673 870.673 870.673
          870.673 870.673 870.673 870.673 870.673 870.673 870.673 870.673 870.673 870.673 870.673 870.673
          870.673 870.673 870.673 870.673 870.673 870.673 870.673 870.673 857.653 870.305 870.665 870.673
          870.673 870.673 870.673 870.673 870.673 870.673 870.673 870.673 870.673 870.673 870.673 870.673
          857.653 870.313 870.664 870.673 870.673 870.673 870.673 870.673 870.673 870.673 870.673 870.673
          870.673 870.673 870.673 870.673 857.654 870.393 870.671 870.673 870.673 870.673 870.673 870.673
          870.673 870.673 870.673 870.673 870.673 870.673 870.673 870.673 857.654 870.407 870.672 870.673
          870.673 870.673 870.673 870.673 870.673 870.673 870.673 870.673 870.673 870.673 870.673 870.673
          857.653 870.391 870.672 870.673 870.673 870.673 870.673 870.673 870.673 870.673 870.673 870.673
          870.673 870.672 870.672 870.673 857.653 870.31 870.706 870.674 870.673 870.673 870.673 870.673
          870.673 870.672 870.672 870.672 870.672 870.672 870.673 870.673 857.652 870.289 870.664 870.673
          870.673 870.673 870.673 870.673 870.673 870.673 870.673 870.673 870.673 870.673 870.673 870.673
        </DataArray>
        <DataArray type="Float32" Name="rhog" NumberOfComponents="1" format="ascii">
          1.1052 1.17744 1.10519 1.17741 1.17933 1.17932 1.17931 1.1793 1.17924 1.17923 1.17918 1.17917
          1.17911 1.1791 1.17905 1.17904 1.17898 1.17897 1.17892 1.17891 1.17887 1.17885 1.17883 1.17881
          1.17873 1.17869 1.17857 1.17855 1.17845 1.17844 1.17833 1.17833 1.10519 1.17735 1.17931 1.17929
          1.17922 1.17916 1.17909 1.17902 1.17896 1.17889 1.17882 1.17874 1.17862 1.17851 1.17842 1.17833
          1.1052 1.17741 1.1793 1.17928 1.17922 1.17915 1.17908 1.17901 1.17895 1.17888 1.1788 1.17871
          1.1786 1.17848 1.1784 1.17833 1.10522 1.1779 1.17995 1.17974 1.17937 1.17915 1.17906 1.17899
          1.17892 1.17884 1.17876 1.17867 1.17853 1.17842 1.1785 1.17833 1.10523 1.17798 1.18794 1.18782
          1.18773 1.18764 1.18757 1.18749 1.18741 1.18024 1.17889 1.17863 1.1785 1.18144 1.1823 1.17833
          1.10521 1.17787 1.18791 1.1878 1.18771 1.18763 1.18754 1.18746 1.18738 1.18032 1.17887 1.1788
          1.17958 1.18544 1.18502 1.17833 1.10519 1.17737 1.18803 1.18779 1.1877 1.18761 1.18752 1.18744
          1.18735 1.18705 1.18689 1.18674 1.18654 1.18567 1.18457 1.17833 1.10516 1.17723 1.18002 1.18021
          1.18019 1.18012 1.18004 1.17996 1.17987 1.17978 1.1797 1.17961 1.17953 1.17944 1.17937 1.17833
        </DataArray>
        <DataArray type="Float32" Name="x^H2O_w" NumberOfComponents="1" format="ascii">
          0.999989 0.999985 0.999989 0.999985 0.999985 0.999985 0.999985 0.999985 0.999985 0.999985 0.999985 0.999985
          0.999985 0.999985 0.999985 0.999985 0.999985 0.999985 0.999985 0.999985 0.999985 0.999985 0.999985 0.999985
          0.999985 0.999985 0.999985 0.999985 0.999985 0.999985 0.999985 0.999985 0.999989 0.999985 0.999985 0.999985
          0.999985 0.999985 0.999985 0.999985 0.999985 0.999985 0.999985 0.999985 0.999985 0.999985 0.999985 0.999985
          0.999989 0.999985 0.999985 0.999985 0.999985 0.999985 0.999985 0.999985 0.999985 0.999985 0.999985 0.999985
          0.999985 0.999985 0.999985 0.999985 0.999989 0.999985 0.999985 0.999985 0.999985 0.999985 0.999985 0.999985
          0.999985 0.999985 0.999985 0.999985 0.999985 0.999985 0.999985 0.999985 0.999989 0.999985 0.999978 0.999978
          0.999978 0.999978 0.999978 0.999978 0.999978 0.999984 0.999985 0.999985 0.999985 0.999983 0.999982 0.999985
          0.999989 0.999985 0.999978 0.999978 0.999978 0.999978 0.999978 0.999978 0.999978 0.999984 0.999985 0.999985
          0.999984 0.99998 0.99998 0.999985 0.999989 0.999985 0.999978 0.999978 0.999978 0.999978 0.999978 0.999978
          0.999978 0.999979 0.999979 0.999979 0.999979 0.999979 0.99998 0.999985 0.999989 0.999985 0.999985 0.999984
          0.999984 0.999984 0.999984 0.999984 0.999984 0.999984 0.999984 0.999984 0.999984 0.999984 0.999984 0.999985
        </DataArray>
        <DataArray type="Float32" Name="x^mesitylene_w" NumberOfComponents="1" format="ascii">
          1.07951e-14 9.13845e-13 1.07914e-14 1.18881e-12 8.02904e-12 5.96789e-11 1.58856e-11 9.52669e-11 2.53158e-11 1.14187e-10 3.8548e-11 1.27173e-10
          5.76447e-11 1.41494e-10 8.45531e-11 1.63042e-10 1.20875e-10 1.92811e-10 1.69277e-10 2.31569e-10 2.37965e-10 2.82678e-10 3.70967e-10 3.78656e-10
          2.32135e-09 2.2651e-09 2.90922e-09 2.90846e-09 3.01039e-09 3.00712e-09 3.02334e-09 3.02334e-09 1.0792e-14 2.00685e-12 4.9458e-10 7.29031e-10
          8.07761e-10 8.1593e-10 7.98464e-10 7.80966e-10 7.57945e-10 7.1484e-10 6.26772e-10 5.42045e-10 5.8529e-10 6.28556e-10 6.76517e-10 3.02334e-09
          1.07929e-14 3.19532e-12 4.02213e-09 5.30357e-09 5.27317e-09 5.08445e-09 4.88899e-09 4.66031e-09 4.37027e-09 3.9492e-09 3.34408e-09 2.78784e-09
          2.60206e-09 2.33497e-09 2.20839e-09 3.02334e-09 1.07935e-14 4.06413e-12 4.68167e-07 3.74776e-07 1.37028e-07 1.63662e-08 4.09655e-09 3.11628e-09
          3.04722e-09 3.03115e-09 2.99802e-09 2.94716e-09 2.8866e-09 2.31617e-09 1.00345e-07 3.02334e-09 1.07938e-14 4.42706e-12 6.90303e-06 6.90259e-06
          6.90258e-06 6.90257e-06 6.90256e-06 6.90254e-06 6.90252e-06 1.1682e-06 1.41556e-07 1.82701e-08 1.59174e-08 2.46957e-06 3.18235e-06 3.02334e-09
          1.07928e-14 3.48901e-12 6.903e-06 6.90255e-06 6.90258e-06 6.90258e-06 6.90258e-06 6.90258e-06 6.90258e-06 1.26203e-06 1.5487e-07 1.70048e-07
          8.89035e-07 5.70387e-06 5.38912e-06 3.02334e-09 1.07917e-14 2.52628e-12 6.88342e-06 6.90196e-06 6.90255e-06 6.90257e-06 6.90256e-06 6.90256e-06
          6.90244e-06 6.72773e-06 6.6603e-06 6.6043e-06 6.50352e-06 5.8724e-06 5.02474e-06 3.02334e-09 1.07872e-14 1.42463e-12 6.04351e-07 7.88128e-07
          8.40362e-07 8.55673e-07 8.60764e-07 8.60347e-07 8.58461e-07 8.55852e-07 8.5209e-07 8.46946e-07 8.41498e-07 8.32482e-07 8.16265e-07 3.02334e-09
        </DataArray>
        <DataArray type="Float32" Name="x^Air_w" NumberOfComponents="1" format="ascii">
          1.13533e-05 1.4629e-05 1.13532e-05 1.46273e-05 1.47466e-05 1.47464e-05 1.47481e-05 1.47479e-05 1.47473e-05 1.47471e-05 1.47465e-05 1.47463e-05
          1.47456e-05 1.47455e-05 1.47448e-05 1.47446e-05 1.4744e-05 1.47438e-05 1.47432e-05 1.4743e-05 1.47425e-05 1.47423e-05 1.47421e-05 1.47417e-05
          1.47407e-05 1.47402e-05 1.47387e-05 1.47384e-05 1.47371e-05 1.4737e-05 1.47356e-05 1.47356e-05 1.13532e-05 1.46237e-05 1.4746e-05 1.47478e-05
          1.4747e-05 1.47461e-05 1.47453e-05 1.47445e-05 1.47436e-05 1.47428e-05 1.47419e-05 1.47409e-05 1.47393e-05 1.4738e-05 1.47368e-05 1.47356e-05
          1.13534e-05 1.46267e-05 1.47455e-05 1.47476e-05 1.47468e-05 1.4746e-05 1.47451e-05 1.47443e-05 1.47434e-05 1.47425e-05 1.47416e-05 1.47404e-05
          1.47391e-05 1.47376e-05 1.47365e-05 1.47356e-05 1.13536e-05 1.46543e-05 1.47462e-05 1.47458e-05 1.4746e-05 1.47457e-05 1.47449e-05 1.4744e-05
          1.47431e-05 1.47421e-05 1.47411e-05 1.47399e-05 1.47382e-05 1.47368e-05 1.47358e-05 1.47356e-05 1.13538e-05 1.46593e-05 1.47146e-05 1.47134e-05
          1.47122e-05 1.47112e-05 1.47102e-05 1.47092e-05 1.47082e-05 1.47357e-05 1.47398e-05 1.47392e-05 1.47375e-05 1.47241e-05 1.47202e-05 1.47356e-05
          1.13535e-05 1.46534e-05 1.47143e-05 1.47132e-05 1.4712e-05 1.47109e-05 1.47099e-05 1.47088e-05 1.47078e-05 1.47348e-05 1.47393e-05 1.47381e-05
          1.47331e-05 1.47079e-05 1.47091e-05 1.47356e-05 1.13532e-05 1.46253e-05 1.47256e-05 1.47133e-05 1.47118e-05 1.47107e-05 1.47096e-05 1.47086e-05
          1.47076e-05 1.47071e-05 1.47064e-05 1.47057e-05 1.47053e-05 1.47074e-05 1.47109e-05 1.47356e-05 1.13528e-05 1.4618e-05 1.47423e-05 1.47432e-05
          1.47419e-05 1.47407e-05 1.47396e-05 1.47385e-05 1.47375e-05 1.47364e-05 1.47354e-05 1.47344e-05 1.47335e-05 1.47326e-05 1.4732e-05 1.47356e-05
        </DataArray>
        <DataArray type="Float32" Name="x^H2O_n" NumberOfComponents="1" format="ascii">
          1e-10 1e-10 1e-10 1e-10 1e-10 1e-10 1e-10 1e-10 1e-10 1e-10 1e-10 1e-10
          1e-10 1e-10 1e-10 1e-10 1e-10 1e-10 1e-10 1e-10 1e-10 1e-10 1e-10 1e-10
          1e-10 1e-10 1e-10 1e-10 1e-10 1e-10 1e-10 1e-10 1e-10 1e-10 1e-10 1e-10
          1e-10 1e-10 1e-10 1e-10 1e-10 1e-10 1e-10 1e-10 1e-10 1e-10 1e-10 1e-10
          1e-10 1e-10 1e-10 1e-10 1e-10 1e-10 1e-10 1e-10 1e-10 1e-10 1e-10 1e-10
          1e-10 1e-10 1e-10 1e-10 1e-10 1e-10 1e-10 1e-10 1e-10 1e-10 1e-10 1e-10
          1e-10 1e-10 1e-10 1e-10 1e-10 1e-10 1e-10 1e-10 1e-10 1e-10 1e-10 1e-10
          1e-10 1e-10 1e-10 1e-10 1e-10 1e-10 1e-10 1e-10 1e-10 1e-10 1e-10 1e-10
          1e-10 1e-10 1e-10 1e-10 1e-10 1e-10 1e-10 1e-10 1e-10 1e-10 1e-10 1e-10
          1e-10 1e-10 1e-10 1e-10 1e-10 1e-10 1e-10 1e-10 1e-10 1e-10 1e-10 1e-10
          1e-10 1e-10 1e-10 1e-10 1e-10 1e-10 1e-10 1e-10 1e-10 1e-10 1e-10 1e-10
          1e-10 1e-10 1e-10 1e-10 1e-10 1e-10 1e-10 1e-10 1e-10 1e-10 1e-10 1e-10
        </DataArray>
        <DataArray type="Float32" Name="x^mesitylene_n" NumberOfComponents="1" format="ascii">
          5.73541e-10 1.28577e-07 5.73322e-10 1.67199e-07 1.16256e-06 8.64101e-06 2.30138e-06 1.38015e-05 3.66758e-06 1.65427e-05 5.58459e-06 1.8424e-05
          8.3512e-06 2.04987e-05 1.22495e-05 2.36205e-05 1.75117e-05 2.79332e-05 2.45238e-05 3.35482e-05 3.44748e-05 4.09525e-05 5.37432e-05 5.48572e-05
          0.000336302 0.000328153 0.000421469 0.000421359 0.000436126 0.000435652 0.000438002 0.000438002 5.73354e-10 2.82004e-07 7.16065e-05 0.000105616
          0.000117023 0.000118207 0.000115676 0.000113141 0.000109806 0.000103561 9.08028e-05 7.85282e-05 8.47935e-05 9.10615e-05 9.80098e-05 0.000438002
          5.73409e-10 4.49322e-07 0.000582277 0.000768337 0.000763943 0.000736602 0.000708286 0.000675156 0.000633137 0.000572135 0.000484469 0.000403886
          0.000376972 0.000338277 0.000319938 0.000438002 5.73457e-10 5.75287e-07 0.0678167 0.0542949 0.0198517 0.00237102 0.00059348 0.000451466
          0.000441461 0.000439133 0.000434334 0.000426965 0.000418192 0.000335552 0.0145373 0.000438002 5.73479e-10 6.27397e-07 1 1
          1 1 1 1 1 0.169239 0.0205076 0.00264686 0.00230601 0.357771 0.46103 0.000438002
          5.73421e-10 4.93777e-07 1 1 1 1 1 1 1 0.182833 0.0224365 0.0246354
          0.128797 0.826314 0.780718 0.000438002 5.73343e-10 3.55143e-07 1 1 1 1 1 1
          1 0.974638 0.964868 0.956756 0.942157 0.85073 0.727933 0.000438002 5.73081e-10 1.99931e-07 0.0874934 0.114178
          0.121746 0.123964 0.124701 0.124641 0.124368 0.12399 0.123445 0.1227 0.12191 0.120604 0.118255 0.000438002
        </DataArray>
        <DataArray type="Float32" Name="x^Air_n" NumberOfComponents="1" format="ascii">
          1e-10 1e-10 1e-10 1e-10 1e-10 1e-10 1e-10 1e-10 1e-10 1e-10 1e-10 1e-10
          1e-10 1e-10 1e-10 1e-10 1e-10 1e-10 1e-10 1e-10 1e-10 1e-10 1e-10 1e-10
          1e-10 1e-10 1e-10 1e-10 1e-10 1e-10 1e-10 1e-10 1e-10 1e-10 1e-10 1e-10
          1e-10 1e-10 1e-10 1e-10 1e-10 1e-10 1e-10 1e-10 1e-10 1e-10 1e-10 1e-10
          1e-10 1e-10 1e-10 1e-10 1e-10 1e-10 1e-10 1e-10 1e-10 1e-10 1e-10 1e-10
          1e-10 1e-10 1e-10 1e-10 1e-10 1e-10 1e-10 1e-10 1e-10 1e-10 1e-10 1e-10
          1e-10 1e-10 1e-10 1e-10 1e-10 1e-10 1e-10 1e-10 1e-10 1e-10 1e-10 1e-10
          1e-10 1e-10 1e-10 1e-10 1e-10 1e-10 1e-10 1e-10 1e-10 1e-10 1e-10 1e-10
          1e-10 1e-10 1e-10 1e-10 1e-10 1e-10 1e-10 1e-10 1e-10 1e-10 1e-10 1e-10
          1e-10 1e-10 1e-10 1e-10 1e-10 1e-10 1e-10 1e-10 1e-10 1e-10 1e-10 1e-10
          1e-10 1e-10 1e-10 1e-10 1e-10 1e-10 1e-10 1e-10 1e-10 1e-10 1e-10 1e-10
          1e-10 1e-10 1e-10 1e-10 1e-10 1e-10 1e-10 1e-10 1e-10 1e-10 1e-10 1e-10
        </DataArray>
        <DataArray type="Float32" Name="x^H2O_g" NumberOfComponents="1" format="ascii">
          0.0577053 0.0238685 0.0577076 0.0238767 0.0232805 0.0232811 0.0232707 0.023271 0.0232718 0.023272 0.0232731 0.0232733
          0.0232743 0.0232746 0.0232756 0.0232759 0.0232769 0.0232772 0.0232781 0.0232784 0.0232791 0.0232795 0.0232798 0.0232803
          0.0232819 0.0232827 0.023285 0.0232855 0.0232874 0.0232877 0.0232898 0.0232898 0.0577077 0.0238948 0.0232826 0.0232712
          0.0232723 0.0232735 0.0232748 0.0232761 0.0232774 0.0232788 0.0232801 0.0232817 0.023284 0.0232861 0.0232879 0.0232898
          0.0577061 0.0238802 0.0232847 0.0232714 0.0232725 0.0232738 0.0232751 0.0232764 0.0232777 0.0232791 0.0232806 0.0232823
          0.0232843 0.0232866 0.0232883 0.0232898 0.0577038 0.0237433 0.0232716 0.0232712 0.0232727 0.0232741 0.0232755 0.0232769
          0.0232783 0.0232797 0.0232813 0.0232832 0.0232858 0.023288 0.0232887 0.0232898 0.0577026 0.023719 0.02327 0.023271
          0.0232728 0.0232744 0.0232758 0.0232773 0.0232788 0.0232807 0.0232822 0.0232842 0.0232868 0.0232887 0.0232893 0.0232898
          0.0577043 0.0237476 0.0232704 0.0232712 0.0232731 0.0232748 0.0232764 0.023278 0.0232796 0.0232815 0.0232829 0.0232847
          0.0232869 0.0232891 0.0232896 0.0232898 0.0577072 0.0238863 0.0232132 0.0232699 0.0232733 0.023275 0.0232767 0.0232784
          0.0232797 0.0232824 0.023284 0.0232855 0.023287 0.0232886 0.0232895 0.0232898 0.0577108 0.0239219 0.0232847 0.0232721
          0.0232737 0.0232754 0.023277 0.0232787 0.0232804 0.023282 0.0232836 0.0232852 0.0232867 0.0232881 0.0232892 0.0232898
        </DataArray>
        <DataArray type="Float32" Name="x^mesitylene_g" NumberOfComponents="1" format="ascii">
          3.56712e-12 3.01984e-10 3.5659e-12 3.92849e-10 2.65336e-09 1.97222e-08 5.24998e-09 3.14847e-08 8.36697e-09 3.77399e-08 1.2741e-08 4.2034e-08
          1.90539e-08 4.67699e-08 2.79498e-08 5.38957e-08 3.99586e-08 6.37396e-08 5.59621e-08 7.65562e-08 7.86734e-08 9.34574e-08 1.22649e-07 1.25193e-07
          7.67549e-07 7.48978e-07 9.62057e-07 9.61828e-07 9.95617e-07 9.94546e-07 1e-06 1e-06 3.5661e-12 6.63179e-10 1.63446e-07 2.40939e-07
          2.66974e-07 2.69689e-07 2.63931e-07 2.58161e-07 2.50565e-07 2.36329e-07 2.07225e-07 1.79225e-07 1.93543e-07 2.07869e-07 2.23748e-07 1e-06
          3.56635e-12 1.0559e-09 1.32922e-06 1.75281e-06 1.74286e-06 1.68058e-06 1.61606e-06 1.54056e-06 1.44476e-06 1.30564e-06 1.10565e-06 9.21814e-07
          8.6046e-07 7.72215e-07 7.30403e-07 1e-06 3.5665e-12 1.34296e-09 0.000154714 0.000123862 4.529e-05 5.40963e-06 1.35414e-06 1.03017e-06
          1.0074e-06 1.00215e-06 9.91265e-07 9.74527e-07 9.5461e-07 7.66038e-07 3.31886e-05 1e-06 3.56657e-12 1.46288e-09 0.00228117 0.00228126
          0.00228143 0.00228158 0.00228173 0.00228187 0.00228201 0.00038624 4.68057e-05 6.04158e-06 5.26416e-06 0.000816789 0.00105256 1e-06
          3.56631e-12 1.15292e-09 0.00228121 0.00228128 0.00228146 0.00228162 0.00228178 0.00228194 0.0022821 0.000417276 5.12096e-05 5.62327e-05
          0.000294019 0.00188651 0.00178245 1e-06 3.566e-12 8.3483e-10 0.00227484 0.00228112 0.00228148 0.00228165 0.00228181 0.00228197
          0.0022821 0.0022245 0.00220235 0.00218398 0.00215079 0.0019422 0.00166193 1e-06 3.5646e-12 4.70788e-10 0.000199729 0.000260482
          0.000277765 0.000282847 0.00028455 0.000284432 0.000283829 0.000282987 0.000281762 0.000280079 0.000278296 0.000275331 0.00026998 1e-06
        </DataArray>
        <DataArray type="Float32" Name="x^Air_g" NumberOfComponents="1" format="ascii">
          0.942295 0.976131 0.942292 0.976123 0.976719 0.976719 0.976729 0.976729 0.976728 0.976728 0.976727 0.976727
          0.976726 0.976725 0.976724 0.976724 0.976723 0.976723 0.976722 0.976722 0.976721 0.97672 0.97672 0.976719
          0.976717 0.976717 0.976714 0.976713 0.976712 0.976711 0.976709 0.976709 0.942292 0.976105 0.976717 0.976729
          0.976727 0.976726 0.976725 0.976724 0.976722 0.976721 0.97672 0.976718 0.976716 0.976714 0.976712 0.976709
          0.942294 0.97612 0.976714 0.976727 0.976726 0.976725 0.976723 0.976722 0.976721 0.97672 0.976718 0.976717
          0.976715 0.976713 0.976711 0.976709 0.942296 0.976257 0.976574 0.976605 0.976682 0.976721 0.976723 0.976722
          0.976721 0.976719 0.976718 0.976716 0.976713 0.976711 0.976678 0.976709 0.942297 0.976281 0.974449 0.974448
          0.974446 0.974444 0.974442 0.974441 0.974439 0.976333 0.976671 0.97671 0.976708 0.975894 0.975658 0.976709
          0.942296 0.976252 0.974448 0.974447 0.974445 0.974444 0.974442 0.97444 0.974438 0.976301 0.976666 0.976659
          0.976419 0.974824 0.974928 0.976709 0.942293 0.976114 0.974512 0.974449 0.974445 0.974443 0.974441 0.97444
          0.974438 0.974493 0.974514 0.97453 0.974562 0.974769 0.975049 0.976709 0.942289 0.976078 0.976516 0.976467
          0.976449 0.976442 0.976438 0.976437 0.976436 0.976435 0.976435 0.976435 0.976435 0.976437 0.976441 0.976709
        </DataArray>
        <DataArray type="Float32" Name="porosity" NumberOfComponents="1" format="ascii">
          0.42 0.42 0.42 0.42 0.42 0.42 0.42 0.42 0.42 0.42 0.42 0.42
          0.42 0.42 0.42 0.42 0.42 0.42 0.42 0.42 0.42 0.42 0.42 0.42
          0.42 0.42 0.42 0.42 0.42 0.42 0.42 0.42 0.42 0.42 0.42 0.42
          0.42 0.42 0.42 0.42 0.42 0.42 0.42 0.42 0.42 0.42 0.42 0.42
          0.42 0.42 0.42 0.42 0.42 0.42 0.42 0.42 0.42 0.42 0.42 0.42
          0.42 0.42 0.42 0.42 0.42 0.42 0.42 0.42 0.42 0.42 0.42 0.42
          0.42 0.42 0.42 0.42 0.42 0.42 0.42 0.42 0.42 0.42 0.42 0.42
          0.42 0.42 0.42 0.42 0.42 0.42 0.42 0.42 0.42 0.42 0.42 0.42
          0.42 0.42 0.42 0.42 0.42 0.42 0.42 0.42 0.42 0.42 0.42 0.42
          0.42 0.42 0.42 0.42 0.42 0.42 0.42 0.42 0.42 0.42 0.42 0.42
          0.42 0.42 0.42 0.42 0.42 0.42 0.42 0.42 0.42 0.42 0.42 0.42
          0.42 0.42 0.42 0.42 0.42 0.42 0.42 0.42 0.42 0.42 0.42 0.42
        </DataArray>
        <DataArray type="Float32" Name="temperature" NumberOfComponents="1" format="ascii">
          308.61 293.427 308.61 293.432 293.008 293.008 293 293 293 293 293 293
          293 293 293 293 293 293 293 293 293 293 293 293
          293 293 293 293 293 293 293 293 308.61 293.445 293.009 293
          293 293 293 293 293 293 293 293 293 293 293 293
          308.61 293.435 293.011 293 293 293 293 293 293 293 293 293
          293 293 293 293 308.61 293.338 293.002 293 293 293 293 293
          293 293 293 293 293 293 293 293 308.609 293.321 293.001 293
          293 293 293 293 293 293 293 293 293 293 293 293
          308.61 293.341 293.001 293 293 293 293 293 293 293 293 293
          293 293 293 293 308.61 293.439 292.96 292.999 293 293 293 293
          293 293 293 293 293 293 293 293 308.611 293.464 293.01 293
          293 293 293 293 293 293 293 293 293 293 293 293
        </DataArray>
        <DataArray type="Float32" Name="phase presence" NumberOfComponents="1" format="ascii">
          6 6 6 6 6 6 6 6 6 6 6 6
          6 6 6 6 6 6 6 6 6 6 6 6
          6 6 6 6 6 6 6 6 6 6 6 6
          6 6 6 6 6 6 6 6 6 6 6 6
          6 6 6 6 6 6 6 6 6 6 6 6
          6 6 6 6 6 6 6 6 6 6 6 6
          6 6 6 6 6 6 6 6 6 6 1 1
          1 1 1 1 1 6 6 6 6 6 6 6
          6 6 1 1 1 1 1 1 1 6 6 6
          6 6 6 6 6 6 1 1 1 1 1 1
          1 6 6 6 6 6 6 6 6 6 6 6
          6 6 6 6 6 6 6 6 6 6 6 6
        </DataArray>
        <DataArray type="Float32" Name="permeability" NumberOfComponents="1" format="ascii">
          9.14e-10 9.14e-10 9.14e-10 9.14e-10 9.14e-10 9.14e-10 9.14e-10 9.14e-10 9.14e-10 9.14e-10 9.14e-10 9.14e-10
          9.14e-10 9.14e-10 9.14e-10 9.14e-10 9.14e-10 9.14e-10 9.14e-10 9.14e-10 9.14e-10 9.14e-10 9.14e-10 9.14e-10
          6.28e-12 6.28e-12 6.28e-12 6.28e-12 6.28e-12 6.28e-12 6.28e-12 6.28e-12 9.14e-10 9.14e-10 9.14e-10 9.14e-10
          9.14e-10 9.14e-10 9.14e-10 9.14e-10 9.14e-10 9.14e-10 9.14e-10 9.14e-10 9.14e-10 9.14e-10 9.14e-10 9.14e-10
          9.14e-10 9.14e-10 9.14e-10 9.14e-10 9.14e-10 9.14e-10 9.14e-10 9.14e-10 9.14e-10 9.14e-10 9.14e-10 9.14e-10
          9.14e-10 9.14e-10 9.14e-10 9.14e-10 9.14e-10 9.14e-10 6.28e-12 6.28e-12 6.28e-12 6.28e-12 6.28e-12 6.28e-12
          6.28e-12 6.28e-12 6.28e-12 6.28e-12 6.28e-12 9.14e-10 9.14e-10 9.14e-10 9.14e-10 9.14e-10 6.28e-12 6.28e-12
          6.28e-12 6.28e-12 6.28e-12 6.28e-12 6.28e-12 6.28e-12 6.28e-12 6.28e-12 6.28e-12 9.14e-10 9.14e-10 9.14e-10
          9.14e-10 9.14e-10 6.28e-12 6.28e-12 6.28e-12 6.28e-12 6.28e-12 6.28e-12 6.28e-12 6.28e-12 6.28e-12 6.28e-12
          6.28e-12 9.14e-10 9.14e-10 9.14e-10 9.14e-10 9.14e-10 9.14e-10 9.14e-10 9.14e-10 9.14e-10 9.14e-10 9.14e-10
          9.14e-10 9.14e-10 9.14e-10 9.14e-10 9.14e-10 9.14e-10 9.14e-10 9.14e-10 9.14e-10 9.14e-10 9.14e-10 9.14e-10
          9.14e-10 9.14e-10 9.14e-10 9.14e-10 9.14e-10 9.14e-10 9.14e-10 9.14e-10 9.14e-10 9.14e-10 9.14e-10 9.14e-10
        </DataArray>
      </PointData>
      <CellData Scalars="process rank">
        <DataArray type="Float32" Name="process rank" NumberOfComponents="1" format="ascii">
          0 0 0 0 0 0 0 0 0 0 0 0
          0 0 0 0 0 0 0 0 0 0 0 0
          0 0 0 0 0 0 0 0 0 0 0 0
          0 0 0 0 0 0 0 0 0 0 0 0
          0 0 0 0 0 0 0 0 0 0 0 0
          0 0 0 0 0 0 0 0 0 0 0 0
          0 0 0 0 0 0 0 0 0 0 0 0
          0 0 0 0 0 0 0 0 0 0 0 0
          0 0 0 0 0 0 0 0 0 0 0 0
          0 0 0 0 0 0 0 0 0 0 0 0
        </DataArray>
      </CellData>
      <Points>
        <DataArray type="Float32" Name="Coordinates" NumberOfComponents="3" format="ascii">
          0 0 0 0.1 0 0 0 0.0925 0 0.1 0.0925 0
          0.2 0 0 0.2 0.0925 0 0.3 0 0 0.3 0.0925 0