<?xml version="1.0"?>
<VTKFile type="UnstructuredGrid" version="0.1" byte_order="LittleEndian">
  <UnstructuredGrid>
    <Piece NumberOfCells="120" NumberOfPoints="144">
      <CellData Scalars="Sw">
        <DataArray type="Float32" Name="Sw" NumberOfComponents="1" format="ascii">
          0.132034 0.120195 0.120004 0.12 0.12 0.12 0.12 0.12 0.12 0.12 0.12 0.12
          0.12 0.12 0.12 0.13202 0.120212 0.120004 0.12 0.12 0.12 0.12 0.12 0.12
          0.12 0.12 0.12 0.12 0.12 0.12 0.13202 0.120267 0.120005 0.12 0.12 0.12
          0.12 0.12 0.12 0.12 0.12 0.12 0.12 0.12 0.12 0.132023 0.120007 0.12
          0.12 0.12 0.12 0.12 0.12 0.12 0.12 0.12 0.12 0.12 0.12 0.12
          0.132023 0.120007 0.12 0.12 0.12 0.12 0.12 0.12 0.12 0.12 0.12 0.12
          0.12 0.12 0.12 0.132023 0.120008 0.12 0.12 0.12 0.12 0.12 0.12 0.12
          0.12 0.12 0.12 0.120001 0.120001 0.120001 0.13202 0.1203 0.120005 0.119999 0.12 0.12
          0.12 0.12 0.120001 0.120001 0.120001 0.120001 0.120001 0.120001 0.12 0.132006 0.120246 0.120005
          0.12 0.12 0.12 0.12 0.12 0.12 0.12 0.12 0.12 0.12 0.12 0.12
        </DataArray>
        <DataArray type="Float32" Name="Sn" NumberOfComponents="1" format="ascii">
          0 0 0 0 0 0 0 0 0 0 0 0
          0 0 0 0 0 0 0 0 0 0 0 0
          0 0 0 0 0 0 0 0 0 0 0 0
          0 0 0 0 0 0 0 0 0 0 0 0
          0 0 0 0 0 0 0 0 0 0 0 0
          0 0 0.0699945 0.0699993 0.0699988 0.0699984 0.069998 0.0699975 0 0 0 0
          0 0 0 0 0 0.0699948 0.07 0.07 0.07 0.07 0.07 0
          0 0 0 0 0 0 0 0 0.0694391 0.0699989 0.0699999 0.07
          0.07 0.0699978 0 0 0 0 0 0 0 0 0 0
          0 0 0 0 0 0 0 0 0 0 0 0
        </DataArray>
        <DataArray type="Float32" Name="Sg" NumberOfComponents="1" format="ascii">
          0.867966 0.879805 0.879996 0.88 0.88 0.88 0.88 0.88 0.88 0.88 0.88 0.88
          0.88 0.88 0.88 0.86798 0.879788 0.879996 0.88 0.88 0.88 0.88 0.88 0.88
          0.88 0.88 0.88 0.88 0.88 0.88 0.86798 0.879733 0.879995 0.88 0.88 0.88
          0.88 0.88 0.88 0.88 0.88 0.88 0.88 0.88 0.88 0.867977 0.879993 0.88
          0.88 0.88 0.88 0.88 0.88 0.88 0.88 0.88 0.88 0.88 0.88 0.88
          0.867977 0.879993 0.810005 0.810001 0.810001 0.810002 0.810002 0.810002 0.88 0.88 0.88 0.88
          0.88 0.88 0.88 0.867977 0.879992 0.810005 0.81 0.81 0.81 0.81 0.81 0.88
          0.88 0.88 0.88 0.879999 0.879999 0.879999 0.86798 0.8797 0.810556 0.810002 0.81 0.81
          0.81 0.810002 0.879999 0.879999 0.879999 0.879999 0.879999 0.879999 0.88 0.867994 0.879754 0.879995
          0.88 0.88 0.88 0.88 0.88 0.88 0.88 0.88 0.88 0.88 0.88 0.88
        </DataArray>
        <DataArray type="Float32" Name="pw" NumberOfComponents="1" format="ascii">
          99253.6 98853.9 98842.7 98837.9 98833.2 98828.4 98823.7 98819 98814.3 98809.9 98806 98803.3
          87653.7 87639.5 87628.1 99253 98853.8 98841.8 98836.9 98832.1 98827.3 98822.6 98817.8 98813.1
          98808.4 98803.8 98800 87648.3 87636 87626.9 99253.8 98855.3 98840.9 98835.9 98831 98826.3
          98821.5 98816.7 98811.8 98806.8 98801.1 98793.6 98779.9 98772.1 98765.6 99257 87710.7 87700.6
          87694.8 87689.4 87684.3 87679.2 87674.1 87668.8 87663 87656 87645.2 98773.8 98769.8 98764.9
          99257.1 87710.9 83089.9 83082.7 83076.7 83071 83065.5 83059.8 87663.7 87657.4 87649.8 87639.1
          98770.9 98768.2 98764.3 99254.3 87707.6 83086.9 83079.8 83073.5 83067.5 83061.4 83055.3 87659.2
          87653.1 87646.2 87637.6 98770.4 98767.6 98764.1 99248.4 98850.2 98375.3 98366.5 98360.2 98354.1
          98347.9 98341.7 98796.4 98790.5 98784.5 98778.4 98772 98767.7 98764 99245.3 98846.8 98832.6
          98826.3 98820.2 98814 98807.8 98801.6 98795.4 98789.4 98783.4 98777.5 98771.9 98767.4 98763.7
        </DataArray>
        <DataArray type="Float32" Name="pn" NumberOfComponents="1" format="ascii">
          99253.6 98853.9 98842.7 98837.9 98833.2 98828.4 98823.7 98819 98814.3 98809.9 98806 98803.3
          87653.7 87639.5 87628.1 99253 98853.8 98841.8 98836.9 98832.1 98827.3 98822.6 98817.8 98813.1
          98808.4 98803.8 98800 87648.3 87636 87626.9 99253.8 98855.3 98840.9 98835.9 98831 98826.3
          98821.5 98816.7 98811.8 98806.8 98801.1 98793.6 98779.9 98772.1 98765.6 99257 87710.7 87700.6
          87694.8 87689.4 87684.3 87679.2 87674.1 87668.8 87663 87656 87645.2 98773.8 98769.8 98764.9
          99257.1 87710.9 95466.5 95460.2 95454.1 95448.3 95442.7 95436.9 87663.7 87657.4 87649.8 87639.1
          98770.9 98768.2 98764.3 99254.3 87707.6 95463.6 95457.4 95451.1 95445 95439 95432.9 87659.2
          87653.1 87646.2 87637.6 98770.4 98767.6 98764.1 99248.4 98850.2 99603 99604.2 99598 99591.8
          99585.6 99579.4 98796.4 98790.5 98784.5 98778.4 98772 98767.7 98764 99245.3 98846.8 98832.6
          98826.3 98820.2 98814 98807.8 98801.6 98795.4 98789.4 98783.4 98777.5 98771.9 98767.4 98763.7
        </DataArray>
        <DataArray type="Float32" Name="pg" NumberOfComponents="1" format="ascii">
          100089 100085 100080 100076 100071 100066 100061 100057 100052 100048 100044 100041
          100031 100017 100006 100089 100084 100079 100075 100070 100065 100060 100056 100051
          100046 100042 100038 100026 100014 100005 100090 100084 100078 100074 100069 100064
          100059 100054 100050 100045 100039 100031 100018 100010 100003 100093 100086 100078
          100072 100067 100062 100057 100052 100046 100041 100034 100023 100012 100008 100003
          100093 100086 100077 100070 100064 100059 100053 100047 100041 100035 100027 100017
          100009 100006 100002 100090 100082 100074 100067 100061 100055 100049 100043 100037
          100031 100024 100015 100008 100005 100002 100084 100077 100071 100065 100059 100053
          100047 100040 100034 100028 100022 100016 100010 100005 100002 100082 100076 100070
          100064 100058 100052 100046 100039 100033 100027 100021 100015 100010 100005 100001
        </DataArray>
        <DataArray type="Float32" Name="rhow" NumberOfComponents="1" format="ascii">
          996.248 998.185 998.228 998.229 998.229 998.229 998.229 998.229 998.229 998.229 998.229 998.229
          998.224 998.224 998.224 996.248 998.182 998.228 998.229 998.229 998.229 998.229 998.229 998.229
          998.229 998.229 998.229 998.224 998.224 998.224 996.248 998.173 998.228 998.229 998.229 998.229
          998.229 998.229 998.229 998.229 998.229 998.229 998.229 998.229 998.229 996.248 998.213 998.224
          998.224 998.224 998.224 998.224 998.224 998.224 998.224 998.224 998.224 998.229 998.229 998.231
          996.248 998.214 998.261 998.261 998.261 998.261 998.261 998.261 998.231 998.225 998.224 998.224
          998.235 998.237 998.241 996.248 998.213 998.261 998.261 998.261 998.261 998.261 998.261 998.231
          998.225 998.224 998.228 998.259 998.257 998.255 996.248 998.167 998.277 998.268 998.268 998.268
          998.268 998.268 998.267 998.267 998.266 998.265 998.26 998.255 998.25 996.248 998.176 998.23
          998.232 998.232 998.232 998.232 998.232 998.232 998.232 998.232 998.232 998.232 998.232 998.232
        </DataArray>
        <DataArray type="Float32" Name="rhon" NumberOfComponents="1" format="ascii">
          863.928 870.492 870.669 870.673 870.673 870.673 870.673 870.673 870.673 870.673 870.673 870.673
          870.673 870.673 870.673 863.928 870.479 870.669 870.673 870.673 870.673 870.673 870.673 870.673
          870.673 870.673 870.673 870.673 870.673 870.673 863.928 870.439 870.668 870.673 870.673 870.673
          870.673 870.673 870.673 870.673 870.673 870.673 870.673 870.673 870.673 863.929 870.628 870.673
          870.673 870.673 870.673 870.673 870.673 870.673 870.673 870.673 870.673 870.673 870.673 870.673
          863.929 870.629 870.673 870.673 870.673 870.673 870.673 870.673 870.673 870.673 870.673 870.673
          870.673 870.673 870.673 863.929 870.628 870.673 870.673 870.673 870.673 870.673 870.673 870.673
          870.673 870.673 870.673 870.672 870.673 870.673 863.928 870.416 870.709 870.674 870.673 870.673
          870.673 870.673 870.672 870.672 870.672 870.672 870.673 870.673 870.673 863.928 870.454 870.668
          870.673 870.673 870.673 870.673 870.673 870.673 870.673 870.673 870.673 870.673 870.673 870.673
        </DataArray>
        <DataArray type="Float32" Name="rhog" NumberOfComponents="1" format="ascii">
          1.14125 1.17832 1.17926 1.17922 1.17917 1.17911 1.17906 1.179 1.17895 1.17889 1.17885 1.17881
          1.1787 1.17853 1.1784 1.14125 1.17823 1.17925 1.17921 1.17916 1.1791 1.17904 1.17899 1.17893
          1.17887 1.17882 1.17878 1.17864 1.17849 1.17838 1.14126 1.17801 1.17923 1.1792 1.17914 1.17909
          1.17903 1.17897 1.17892 1.17886 1.17879 1.1787 1.17854 1.17844 1.17838 1.1413 1.1791 1.17931
          1.1792 1.17913 1.17906 1.179 1.17894 1.17888 1.17881 1.17873 1.1786 1.17846 1.17842 1.17865
          1.1413 1.17911 1.18778 1.18769 1.18762 1.18756 1.18749 1.18742 1.18022 1.17891 1.17867 1.17853
          1.17972 1.18018 1.18089 1.14127 1.17906 1.18774 1.18766 1.18759 1.18751 1.18744 1.18737 1.18033
          1.17888 1.17863 1.17941 1.1849 1.18455 1.1841 1.1412 1.1778 1.18789 1.18764 1.18756 1.18749
          1.18741 1.18734 1.18704 1.18689 1.18671 1.18629 1.18512 1.18405 1.18301 1.14116 1.178 1.17955
          1.17962 1.17958 1.17952 1.17945 1.17938 1.1793 1.17923 1.17916 1.17908 1.17901 1.17895 1.17889
        </DataArray>
        <DataArray type="Float32" Name="x^H2O_w" NumberOfComponents="1" format="ascii">
          0.999987 0.999985 0.999985 0.999985 0.999985 0.999985 0.999985 0.999985 0.999985 0.999985 0.999985 0.999985
          0.999985 0.999985 0.999985 0.999987 0.999985 0.999985 0.999985 0.999985 0.999985 0.999985 0.999985 0.999985
          0.999985 0.999985 0.999985 0.999985 0.999985 0.999985 0.999987 0.999985 0.999985 0.999985 0.999985 0.999985
          0.999985 0.999985 0.999985 0.999985 0.999985 0.999985 0.999985 0.999985 0.999985 0.999987 0.999985 0.999985
          0.999985 0.999985 0.999985 0.999985 0.999985 0.999985 0.999985 0.999985 0.999985 0.999985 0.999985 0.999985
          0.999987 0.999985 0.999978 0.999978 0.999978 0.999978 0.999978 0.999978 0.999984 0.999985 0.999985 0.999985
          0.999984 0.999984 0.999983 0.999987 0.999985 0.999978 0.999978 0.999978 0.999978 0.999978 0.999978 0.999984
          0.999985 0.999985 0.999985 0.99998 0.99998 0.999981 0.999987 0.999985 0.999978 0.999978 0.999978 0.999978
          0.999978 0.999978 0.999979 0.999979 0.999979 0.999979 0.99998 0.999981 0.999982 0.999987 0.999985 0.999985
          0.999985 0.999985 0.999985 0.999985 0.999985 0.999985 0.999985 0.999985 0.999985 0.999985 0.999985 0.999985
        </DataArray>
        <DataArray type="Float32" Name="x^mesitylene_w" NumberOfComponents="1" format="ascii">
          6.03132e-13 2.45074e-12 6.20311e-12 1.28445e-11 2.39171e-11 4.10477e-11 6.58085e-11 9.96859e-11 1.44328e-10 2.02627e-10 2.83183e-10 4.28363e-10
          2.24767e-09 2.87433e-09 3.00231e-09 6.03154e-13 4.10557e-12 1.25209e-11 1.95585e-11 2.94121e-11 4.46912e-11 6.72862e-11 9.86016e-11 1.39927e-10
          1.9309e-10 2.64137e-10 3.8759e-10 2.10502e-09 2.86498e-09 3.00499e-09 6.03191e-13 1.87989e-11 1.37632e-10 1.37537e-10 1.41119e-10 1.49732e-10
          1.64686e-10 1.86915e-10 2.1611e-10 2.50105e-10 2.88235e-10 3.57018e-10 3.96192e-10 4.55904e-10 1.21144e-08 6.03227e-13 1.96937e-09 4.93353e-08
          8.20944e-09 3.32091e-09 2.86778e-09 2.79917e-09 2.75756e-09 2.70743e-09 2.64329e-09 2.52041e-09 2.28845e-09 5.05103e-10 5.66076e-10 2.36279e-07
          6.03229e-13 1.98451e-09 6.90246e-06 6.90255e-06 6.90253e-06 6.90251e-06 6.90249e-06 6.90247e-06 1.13286e-06 1.35172e-07 1.77339e-08 4.91136e-09
          1.04068e-06 1.44378e-06 2.05672e-06 6.03185e-13 1.90911e-09 6.90231e-06 6.90258e-06 6.90258e-06 6.90258e-06 6.90258e-06 6.90258e-06 1.26481e-06
          1.57006e-07 1.9558e-08 7.287e-07 5.2408e-06 4.98936e-06 4.65688e-06 6.03114e-13 1.98184e-11 6.88207e-06 6.90186e-06 6.90255e-06 6.90257e-06
          6.90256e-06 6.90247e-06 6.72591e-06 6.65554e-06 6.56955e-06 6.2915e-06 5.40414e-06 4.58195e-06 3.77317e-06 6.02994e-13 3.29283e-12 3.39535e-07
          4.28572e-07 4.56805e-07 4.69299e-07 4.72607e-07 4.72133e-07 4.71334e-07 4.70053e-07 4.68157e-07 4.65482e-07 4.61703e-07 4.55297e-07 4.44735e-07
        </DataArray>
        <DataArray type="Float32" Name="x^Air_w" NumberOfComponents="1" format="ascii">
          1.27537e-05 1.46864e-05 1.47465e-05 1.4747e-05 1.47463e-05 1.47456e-05 1.47449e-05 1.47442e-05 1.47435e-05 1.47428e-05 1.47422e-05 1.47418e-05
          1.47403e-05 1.47382e-05 1.47365e-05 1.27537e-05 1.46818e-05 1.47462e-05 1.47469e-05 1.47462e-05 1.47454e-05 1.47447e-05 1.4744e-05 1.47433e-05
          1.47426e-05 1.47419e-05 1.47413e-05 1.47395e-05 1.47377e-05 1.47363e-05 1.27537e-05 1.46682e-05 1.47457e-05 1.47467e-05 1.4746e-05 1.47453e-05
          1.47446e-05 1.47438e-05 1.47431e-05 1.47423e-05 1.47415e-05 1.47404e-05 1.47383e-05 1.47371e-05 1.47361e-05 1.27543e-05 1.47332e-05 1.47471e-05
          1.47465e-05 1.47457e-05 1.47449e-05 1.47442e-05 1.47434e-05 1.47426e-05 1.47417e-05 1.47407e-05 1.47391e-05 1.47374e-05 1.47368e-05 1.47348e-05
          1.27544e-05 1.47336e-05 1.47129e-05 1.47118e-05 1.47109e-05 1.47101e-05 1.47092e-05 1.47084e-05 1.47362e-05 1.47402e-05 1.47397e-05 1.47381e-05
          1.47317e-05 1.47293e-05 1.47256e-05 1.2754e-05 1.47326e-05 1.47126e-05 1.47114e-05 1.47104e-05 1.47095e-05 1.47086e-05 1.47077e-05 1.47348e-05
          1.47395e-05 1.47391e-05 1.47342e-05 1.47106e-05 1.47114e-05 1.47126e-05 1.2753e-05 1.46592e-05 1.47244e-05 1.47115e-05 1.47101e-05 1.47092e-05
          1.47082e-05 1.47073e-05 1.47071e-05 1.47065e-05 1.47061e-05 1.47065e-05 1.471e-05 1.47135e-05 1.4717e-05 1.27527e-05 1.4672e-05 1.47428e-05
          1.47431e-05 1.47421e-05 1.47411e-05 1.47401e-05 1.47392e-05 1.47383e-05 1.47374e-05 1.47365e-05 1.47356e-05 1.47348e-05 1.47341e-05 1.47336e-05
        </DataArray>
        <DataArray type="Float32" Name="x^H2O_n" NumberOfComponents="1" format="ascii">
          1e-10 1e-10 1e-10 1e-10 1e-10 1e-10 1e-10 1e-10 1e-10 1e-10 1e-10 1e-10
          1e-10 1e-10 1e-10 1e-10 1e-10 1e-10 1e-10 1e-10 1e-10 1e-10 1e-10 1e-10
          1e-10 1e-10 1e-10 1e-10 1e-10 1e-10 1e-10 1e-10 1e-10 1e-10 1e-10 1e-10
          1e-10 1e-10 1e-10 1e-10 1e-10 1e-10 1e-10 1e-10 1e-10 1e-10 1e-10 1e-10
          1e-10 1e-10 1e-10 1e-10 1e-10 1e-10 1e-10 1e-10 1e-10 1e-10 1e-10 1e-10
          1e-10 1e-10 1e-10 1e-10 1e-10 1e-10 1e-10 1e-10 1e-10 1e-10 1e-10 1e-10
          1e-10 1e-10 1e-10 1e-10 1e-10 1e-10 1e-10 1e-10 1e-10 1e-10 1e-10 1e-10
          1e-10 1e-10 1e-10 1e-10 1e-10 1e-10 1e-10 1e-10 1e-10 1e-10 1e-10 1e-10
          1e-10 1e-10 1e-10 1e-10 1e-10 1e-10 1e-10 1e-10 1e-10 1e-10 1e-10 1e-10
          1e-10 1e-10 1e-10 1e-10 1e-10 1e-10 1e-10 1e-10 1e-10 1e-10 1e-10 1e-10
        </DataArray>
        <DataArray type="Float32" Name="x^mesitylene_n" NumberOfComponents="1" format="ascii">
          5.10031e-08 3.4977e-07 8.98399e-07 1.86082e-06 3.46495e-06 5.94672e-06 9.53391e-06 1.44419e-05 2.09094e-05 2.93554e-05 4.10258e-05 6.20584e-05
          0.000325628 0.000416414 0.000434956 5.10047e-08 5.85304e-07 1.81335e-06 2.8335e-06 4.26103e-06 6.47456e-06 9.74799e-06 1.42848e-05 2.02717e-05
          2.79737e-05 3.82665e-05 5.61515e-05 0.000304962 0.000415059 0.000435343 5.10073e-08 2.67126e-06 1.99309e-05 1.99253e-05 2.04444e-05 2.16922e-05
          2.38587e-05 2.7079e-05 3.13086e-05 3.62335e-05 4.17577e-05 5.17226e-05 5.73984e-05 6.60487e-05 0.00175507 5.10134e-08 0.000284258 0.00714722
          0.00118933 0.000481112 0.000415464 0.000405526 0.000399498 0.000392235 0.000382943 0.000365141 0.000331536 7.31761e-05 8.20095e-05 0.0342305
          5.10136e-08 0.000286468 1 1 1 1 1 1 0.164121 0.0195828 0.00256918 0.000711526
          0.150766 0.209164 0.297962 5.10099e-08 0.000275552 1 1 1 1 1 1 0.183236
          0.022746 0.00283343 0.105569 0.759232 0.722807 0.674642 5.10004e-08 2.81058e-06 1 1 1 1
          1 1 0.974375 0.964178 0.951722 0.911443 0.782896 0.663788 0.546622 5.09908e-08 4.68462e-07 0.0491695
          0.0620881 0.0661788 0.0679889 0.0684681 0.0683994 0.0682837 0.0680982 0.0678235 0.0674359 0.0668884 0.0659603 0.0644302
        </DataArray>
        <DataArray type="Float32" Name="x^Air_n" NumberOfComponents="1" format="ascii">
          1e-10 1e-10 1e-10 1e-10 1e-10 1e-10 1e-10 1e-10 1e-10 1e-10 1e-10 1e-10
          1e-10 1e-10 1e-10 1e-10 1e-10 1e-10 1e-10 1e-10 1e-10 1e-10 1e-10 1e-10
          1e-10 1e-10 1e-10 1e-10 1e-10 1e-10 1e-10 1e-10 1e-10 1e-10 1e-10 1e-10
          1e-10 1e-10 1e-10 1e-10 1e-10 1e-10 1e-10 1e-10 1e-10 1e-10 1e-10 1e-10
          1e-10 1e-10 1e-10 1e-10 1e-10 1e-10 1e-10 1e-10 1e-10 1e-10 1e-10 1e-10
          1e-10 1e-10 1e-10 1e-10 1e-10 1e-10 1e-10 1e-10 1e-10 1e-10 1e-10 1e-10
          1e-10 1e-10 1e-10 1e-10 1e-10 1e-10 1e-10 1e-10 1e-10 1e-10 1e-10 1e-10
          1e-10 1e-10 1e-10 1e-10 1e-10 1e-10 1e-10 1e-10 1e-10 1e-10 1e-10 1e-10
          1e-10 1e-10 1e-10 1e-10 1e-10 1e-10 1e-10 1e-10 1e-10 1e-10 1e-10 1e-10
          1e-10 1e-10 1e-10 1e-10 1e-10 1e-10 1e-10 1e-10 1e-10 1e-10 1e-10 1e-10
        </DataArray>
        <DataArray type="Float32" Name="x^H2O_g" NumberOfComponents="1" format="ascii">
          0.0377853 0.0235773 0.0232772 0.0232723 0.0232733 0.0232744 0.0232755 0.0232766 0.0232776 0.0232787 0.0232796 0.0232802
          0.0232825 0.0232858 0.0232885 0.0377856 0.0235999 0.0232781 0.0232725 0.0232735 0.0232746 0.0232757 0.0232768 0.0232779
          0.023279 0.0232801 0.023281 0.0232838 0.0232866 0.0232887 0.0377857 0.0236674 0.0232801 0.0232728 0.0232738 0.0232749
          0.023276 0.0232771 0.0232782 0.0232794 0.0232807 0.0232824 0.0232854 0.0232874 0.0232889 0.0377825 0.0233456 0.023272
          0.023273 0.0232742 0.0232754 0.0232766 0.0232778 0.023279 0.0232803 0.023282 0.0232845 0.023287 0.023288 0.0232892
          0.0377825 0.0233437 0.0232714 0.0232733 0.0232747 0.0232759 0.0232772 0.0232784 0.0232803 0.0232817 0.0232834 0.0232859
          0.0232879 0.0232885 0.0232895 0.0377835 0.0233469 0.0232717 0.0232741 0.0232756 0.023277 0.0232784 0.0232798 0.0232814
          0.0232827 0.0232843 0.0232864 0.0232885 0.0232891 0.0232898 0.0377879 0.0237094 0.0232122 0.0232725 0.023276 0.0232775
          0.0232789 0.0232801 0.0232825 0.0232839 0.0232853 0.0232867 0.0232881 0.023289 0.0232898 0.0377886 0.0236446 0.0232818
          0.0232751 0.0232763 0.0232778 0.0232792 0.0232806 0.0232821 0.0232835 0.0232849 0.0232862 0.0232876 0.0232886 0.0232895
        </DataArray>
        <DataArray type="Float32" Name="x^mesitylene_g" NumberOfComponents="1" format="ascii">
          1.99314e-10 8.09921e-10 2.05009e-09 4.24524e-09 7.9052e-09 1.35679e-08 2.17535e-08 3.29534e-08 4.77132e-08 6.69891e-08 9.36248e-08 1.41627e-07
          7.43207e-07 9.50551e-07 9.92989e-07 1.99322e-10 1.35682e-09 4.13813e-09 6.46436e-09 9.72155e-09 1.47724e-08 2.22422e-08 3.25953e-08 4.62586e-08
          6.38371e-08 8.73296e-08 1.28151e-07 6.96076e-07 9.47491e-07 9.93885e-07 1.99333e-10 6.21273e-09 4.54876e-08 4.54583e-08 4.66443e-08 4.94937e-08
          5.44393e-08 6.17903e-08 7.1445e-08 8.26877e-08 9.52995e-08 1.1805e-07 1.31021e-07 1.5078e-07 4.00684e-06 1.99338e-10 6.50832e-07 1.63054e-05
          2.71339e-06 1.09769e-06 9.47959e-07 9.25329e-07 9.11621e-07 8.95095e-07 8.73941e-07 8.33372e-07 7.56756e-07 1.67048e-07 1.87221e-07 7.81494e-05
          1.99338e-10 6.55833e-07 0.00228129 0.00228148 0.00228161 0.00228173 0.00228186 0.00228198 0.000374551 4.46938e-05 5.86407e-06 1.62421e-06
          0.000344185 0.000477517 0.000680268 1.99329e-10 6.30939e-07 0.00228131 0.00228156 0.0022817 0.00228184 0.00228198 0.00228211 0.000418196
          5.19155e-05 6.46746e-06 0.000240988 0.00173331 0.00165019 0.00154028 1.99318e-10 6.55006e-09 0.00227469 0.00228137 0.00228174 0.00228189
          0.00228203 0.00228214 0.0022239 0.00220076 0.00217246 0.00208064 0.0017873 0.00151544 0.00124799 1.99284e-10 1.08831e-09 0.000112226
          0.000141664 0.000151005 0.000155145 0.000156248 0.000156101 0.000155847 0.000155433 0.000154815 0.000153939 0.000152698 0.000150586 0.000147099
        </DataArray>
        <DataArray type="Float32" Name="x^Air_g" NumberOfComponents="1" format="ascii">
          0.962215 0.976423 0.976723 0.976728 0.976727 0.976726 0.976725 0.976723 0.976722 0.976721 0.97672 0.97672
          0.976717 0.976713 0.976711 0.962214 0.9764 0.976722 0.976727 0.976726 0.976725 0.976724 0.976723 0.976722
          0.976721 0.97672 0.976719 0.976716 0.976712 0.97671 0.962214 0.976333 0.97672 0.976727 0.976726 0.976725
          0.976724 0.976723 0.976722 0.976721 0.976719 0.976717 0.976714 0.976712 0.976707 0.962217 0.976654 0.976712
          0.976724 0.976725 0.976724 0.976722 0.976721 0.97672 0.976719 0.976717 0.976715 0.976713 0.976712 0.976633
          0.962218 0.976656 0.974447 0.974445 0.974444 0.974442 0.974441 0.97444 0.976345 0.976674 0.976711 0.976712
          0.976368 0.976234 0.97603 0.962216 0.976652 0.974447 0.974444 0.974443 0.974441 0.97444 0.974438 0.9763
          0.976665 0.976709 0.976473 0.974978 0.975061 0.97517 0.962212 0.976291 0.974513 0.974446 0.974442 0.974441
          0.974439 0.974438 0.974494 0.974515 0.974542 0.974633 0.974925 0.975196 0.975462 0.962211 0.976355 0.976606
          0.976583 0.976573 0.976567 0.976565 0.976563 0.976562 0.976561 0.97656 0.97656 0.97656 0.976561 0.976563
        </DataArray>
        <DataArray type="Float32" Name="porosity" NumberOfComponents="1" format="ascii">
          0.42 0.42 0.42 0.42 0.42 0.42 0.42 0.42 0.42 0.42 0.42 0.42
          0.42 0.42 0.42 0.42 0.42 0.42 0.42 0.42 0.42 0.42 0.42 0.42
          0.42 0.42 0.42 0.42 0.42 0.42 0.42 0.42 0.42 0.42 0.42 0.42
          0.42 0.42 0.42 0.42 0.42 0.42 0.42 0.42 0.42 0.42 0.42 0.42
          0.42 0.42 0.42 0.42 0.42 0.42 0.42 0.42 0.42 0.42 0.42 0.42
          0.42 0.42 0.42 0.42 0.42 0.42 0.42 0.42 0.42 0.42 0.42 0.42
          0.42 0.42 0.42 0.42 0.42 0.42 0.42 0.42 0.42 0.42 0.42 0.42
          0.42 0.42 0.42 0.42 0.42 0.42 0.42 0.42 0.42 0.42 0.42 0.42
          0.42 0.42 0.42 0.42 0.42 0.42 0.42 0.42 0.42 0.42 0.42 0.42
          0.42 0.42 0.42 0.42 0.42 0.42 0.42 0.42 0.42 0.42 0.42 0.42
        </DataArray>
        <DataArray type="Float32" Name="temperature" NumberOfComponents="1" format="ascii">
          301.121 293.218 293.004 293 293 293 293 293 293 293 293 293
          293 293 293 301.122 293.234 293.005 293 293 293 293 293 293
          293 293 293 293 293 293 301.122 293.282 293.006 293 293 293
          293 293 293 293 293 293 293 293 293 301.121 293.054 293
          293 293 293 293 293 293 293 293 293 293 293 293
          301.121 293.053 293 293 293 293 293 293 293 293 293 293
          293 293 293 301.121 293.054 292.999 293 293 293 293 293 293
          293 293 293 293 293 293 301.122 293.311 292.957 292.999 293 293
          293 293 293 293 293 293 293 293 293 301.122 293.265 293.006
          293 293 293 293 293 293 293 293 293 293 293 293
        </DataArray>
        <DataArray type="Float32" Name="phase presence" NumberOfComponents="1" format="ascii">
          6 6 6 6 6 6 6 6 6 6 6 6
          6 6 6 6 6 6 6 6 6 6 6 6
          6 6 6 6 6 6 6 6 6 6 6 6
          6 6 6 6 6 6 6 6 6 6 6 6
          6 6 6 6 6 6 6 6 6 6 6 6
          6 6 1 1 1 1 1 1 6 6 6 6
          6 6 6 6 6 1 1 1 1 1 1 6
          6 6 6 6 6 6 6 6 1 1 1 1
          1 1 6 6 6 6 6 6 6 6 6 6
          6 6 6 6 6 6 6 6 6 6 6 6
        </DataArray>
        <DataArray type="Float32" Name="process rank" NumberOfComponents="1" format="ascii">
          0 0 0 0 0 0 0 0 0 0 0 0
          0 0 0 0 0 0 0 0 0 0 0 0
          0 0 0 0 0 0 0 0 0 0 0 0
          0 0 0 0 0 0 0 0 0 0 0 0
          0 0 0 0 0 0 0 0 0 0 0 0
          0 0 0 0 0 0 0 0 0 0 0 0
          0 0 0 0 0 0 0 0 0 0 0 0
          0 0 0 0 0 0 0 0 0 0 0 0
          0 0 0 0 0 0 0 0 0 0 0 0
          0 0 0 0 0 0 0 0 0 0 0 0
        </DataArray>
        <DataArray type="Float32" Name="permeability" NumberOfComponents="1" format="ascii">
          9.14e-10 9.14e-10 9.14e-10 9.14e-10 9.14e-10 9.14e-10 9.14e-10 9.14e-10 9.14e-10 9.14e-10 9.14e-10 9.14e-10
          6.28e-12 6.28e-12 6.28e-12 9.14e-10 9.14e-10 9.14e-10 9.14e-10 9.14e-10 9.14e-10 9.14e-10 9.14e-10 9.14e-10
          9.14e-10 9.14e-10 9.14e-10 6.28e-12 6.28e-12 6.28e-12 9.14e-10 9.14e-10 9.14e-10 9.14e-10 9.14e-10 9.14e-10
          9.14e-10 9.14e-10 9.14e-10 9.14e-10 9.14e-10 9.14e-10 9.14e-10 9.14e-10 9.14e-10 9.14e-10 6.28e-12 6.28e-12
          6.28e-12 6.28e-12 6.28e-12 6.28e-12 6.28e-12 6.28e-12 6.28e-12 6.28e-12 6.28e-12 9.14e-10 9.14e-10 9.14e-10
          9.14e-10 6.28e-12 6.28e-12 6.28e-12 6.28e-12 6.28e-12 6.28e-12 6.28e-12 6.28e-12 6.28e-12 6.28e-12 6.28e-12
          9.14e-10 9.14e-10 9.14e-10 9.14e-10 6.28e-12 6.28e-12 6.28e-12 6.28e-12 6.28e-12 6.28e-12 6.28e-12 6.28e-12
          6.28e-12 6.28e-12 6.28e-12 9.14e-10 9.14e-10 9.14e-10 9.14e-10 9.14e-10 9.14e-10 9.14e-10 9.14e-10 9.14e-10
          9.14e-10 9.14e-10 9.14e-10 9.14e-10 9.14e-10 9.14e-10 9.14e-10 9.14e-10 9.14e-10 9.14e-10 9.14e-10 9.14e-10
          9.14e-10 9.14e-10 9.14e-10 9.14e-10 9.14e-10 9.14e-10 9.14e-10 9.14e-10 9.14e-10 9.14e-10 9.14e-10 9.14e-10
        </DataArray>
      </CellData>
      <Points>
        <DataArray type="Float32" Name="Coordinates" NumberOfComponents="3" format="ascii">
          0 0 0 0.1 0 0 0 0.0925 0 0.1 0.0925 0
          0.2 0 0 0.2 0.0925 0 0.3 0 0 0.3 0.0925 0
          0.4 0 0 0.4 0.0925 0 0.5 0 0 0.5 0.0925 0
          0.6 0 0 0.6 0.0925 0 0.7 0 0 0.7 0.0925 0
          0.8 0 0 0.8 0.0925 0 0.9 0 0 0.9 0.0925 0
          1 0 0 1 0.0925 0 1.1 0 0 1.1 0.0925 0
          1.2 0 0 1.2 0.0925 0 1.3 0 0 1.3 0.0925 0
          1.4 0 0 1.4 0.0925 0 1.5 0 0 1.5 0.0925 0
          0 0.185 0 0.1 0.185 0 0.2 0.185 0 0.3 0.185 0
          0.4 0.185 0 0.5 0.185 0 0.6 0.185 0 0.7 0.185 0
          0.8 0.185 0 0.9 0.185 0 1 0.185 0 1.1 0.185 0
          1.2 0.185 0 1.3 0.185 0 1.4 0.185 0 1.5 0.185 0
          0 0.2775 0 0.1 0.2775 0 0.2 0.2775 0 0.3 0.2775 0
          0.4 0.2775 0 0.5 0.2775 0 0.6 0.2775 0 0.7 0.2775 0
          0.8 0.2775 0 0.9 0.2775 0 1 0.2775 0 1.1 0.2775 0
          1.2 0.2775 0 1.3 0.2775 0 1.4 0.2775 0 1.5 0.2775 0
          0 0.37 0 0.1 0.37 0 0.2 0.37 0 0.3 0.37 0
          0.4 0.37 0 0.5 0.37 0 0.6 0.37 0 0.7 0.37 0
          0.8 0.37 0 0.9 0.37 0 1 0.37 0 1.1 0.37 0
          1.2 0.37 0 1.3 0.37 0 1.4 0.37 0 1.5 0.37 0
          0 0.4625 0 0.1 0.4625 0 0.2 0.4625 0 0.3 0.4625 0
          0.4 0.4625 0 0.5 0.4625 0 0.6 0.4625 0 0.7 0.4625 0
          0.8 0.4625 0 0.9 0.4625 0 1 0.4625 0 1.1 0.4625 0
          1.2 0.4625 0 1.3 0.4625 0 1.4 0.4625 0 1.5 0.4625 0
          0 0.555 0 0.1 0.555 0 0.2 0.555 0 0.3 0.555 0
          0.4 0.555 0 0.5 0.555 0 0.6 0.555 0 0.7 0.555 0
          0.8 0.555 0 0.9 0.555 0 1 0.555 0 1.1 0.555 0
          1.2 0.555 0 1.3 0.555 0 1.4 0.555 0 1.5 0.555 0
          0 0.6475 0 0.1 0.6475 0 0.2 0.6475 0 0.3 0.6475 0
          0.4 0.6475 0 0.5 0.6475 0 0.6 0.6475 0 0.7 0.6475 0
          0.8 0.6475 0 0.9 0.6475 0 1 0.6475 0 1.1 0.6475 0
          1.2 0.6475 0 1.3 0.6475 0 1.4 0.6475 0 1.5 0.6475 0
          0 0.74 0 0.1 0.74 0 0.2 0.74 0 0.3 0.74 0
          0.4 0.74 0 0.5 0.74 0 0.6 0.74 0 0.7 0.74 0
          0.8 0.74 0 0.9 0.74 0 1 0.74 0 1.1 0.74 0
          1.2 0.74 0 1.3 0.74 0 1.4 0.74 0 1.5 0.74 0
        </DataArray>
      </Points>
      <Cells>
        <DataArray type="Int32" Name="connectivity" NumberOfComponents="1" format="ascii">
          0 1 3 2 1 4 5 3 4 6 7 5
          6 8 9 7 8 10 11 9 10 12 13 11
          12 14 15 13 14 16 17 15 16 18 19 17
          18 20 21 19 20 22 23 21 22 24 25 23
          24 26 27 25 26 28 29 27 28 30 31 29
          2 3 33 32 3 5 34 33 5 7 35 34
          7 9 36 35 9 11 37 36 11 13 38 37
          13 15 39 38 15 17 40 39 17 19 41 40
          19 21 42 41 21 23 43 42 23 25 44 43
          25 27 45 44 27 29 46 45 29 31 47 46
          32 33 49 48 33 34 50 49 34 35 51 50
          35 36 52 51 36 37 53 52 37 38 54 53
          38 39 55 54 39 40 56 55 40 41 57 56
          41 42 58 57 42 43 59 58 43 44 60 59
          44 45 61 60 45 46 62 61 46 47 63 62
          48 49 65 64 49 50 66 65 50 51 67 66
          51 52 68 67 52 53 69 68 53 54 70 69
          54 55 71 70 55 56 72 71 56 57 73 72
          57 58 74 73 58 59 75 74 59 60 76 75
          60 61 77 76 61 62 78 77 62 63 79 78
          64 65 81 80 65 66 82 81 66 67 83 82
          67 68 84 83 68 69 85 84 69 70 86 85
          70 71 87 86 71 72 88 87 72 73 89 88
          73 74 90 89 74 75 91 90 75 76 92 91
          76 77 93 92 77 78 94 93 78 79 95 94
          80 81 97 96 81 82 98 97 82 83 99 98
          83 84 100 99 84 85 101 100 85 86 102 101
          86 87 103 102 87 88 104 103 88 89 105 104
          89 90 106 105 90 91 107 106 91 92 108 107
          92 93 109 108 93 94 110 109 94 95 111 110
          96 97 113 112 97 98 114 113 98 99 115 114
          99 100 116 115 100 101 117 116 101 102 118 117
          102 103 119 118 103 104 120 119 104 105 121 120
          105 106 122 121 106 107 123 122 107 108 124 123
          108 109 125 124 109 110 126 125 110 111 127 126
          112 113 129 128 113 114 130 129 114 115 131 130
          115 116 132 131 116 117 133 132 117 118 134 133
          118 119 135 134 119 120 136 135 120 121 137 136
          121 122 138 137 122 123 139 138 123 124 140 139
          124 125 141 140 125 126 142 141 126 127 143 142
        </DataArray>
        <DataArray type="Int32" Name="offsets" NumberOfComponents="1" format="ascii">
          4 8 12 16 20 24 28 32 36 40 44 48
          52 56 60 64 68 72 76 80 84 88 92 96
          100 104 108 112 116 120 124 128 132 136 140 144
          148 152 156 160 164 168 172 176 180 184 188 192
          196 200 204 208 212 216 220 224 228 232 236 240
          244 248 252 256 260 264 268 272 276 280 284 288