<?xml version="1.0"?>
<VTKFile type="UnstructuredGrid" version="0.1" byte_order="LittleEndian">
  <UnstructuredGrid>
    <Piece NumberOfCells="120" NumberOfPoints="242">
      <PointData Scalars="Sw">
        <DataArray type="Float32" Name="Sw" NumberOfComponents="1" format="ascii">
          0.215192 0.144596 0.192151 0.129134 0.168814 0.121553 0.147058 0.120198 0.145163 0.120145 0.145006 0.120139
          0.144988 0.120138 0.144988 0.120138 0.144989 0.120139 0.14499 0.120141 0.14499 0.120143 0.14499 0.120144
          0.14499 0.120145 0.14499 0.120146 0.14499 0.120146 0.14499 0.120147 0.14499 0.120147 0.14499 0.120147
          0.14499 0.120148 0.14499 0.120148 0.14499 0.120148 0.14499 0.120148 0.14499 0.120148 0.14499 0.120148
          0.14499 0.120148 0.14499 0.120148 0.14499 0.120148 0.14499 0.120148 0.14499 0.120148 0.14499 0.120148
          0.14499 0.120148 0.14499 0.120148 0.14499 0.120148 0.14499 0.120148 0.14499 0.120148 0.14499 0.120148
          0.14499 0.120148 0.14499 0.120148 0.14499 0.120148 0.14499 0.120148 0.14499 0.120148 0.14499 0.120148
          0.14499 0.120148 0.14499 0.120148 0.14499 0.120148 0.14499 0.120148 0.14499 0.120148 0.14499 0.120148
          0.14499 0.120148 0.14499 0.120148 0.14499 0.120148 0.14499 0.120148 0.14499 0.120148 0.14499 0.120148
          0.14499 0.120148 0.14499 0.120148 0.14499 0.120148 0.14499 0.120148 0.14499 0.120148 0.14499 0.120148
          0.14499 0.120148 0.14499 0.120148 0.14499 0.120148 0.14499 0.120148 0.14499 0.120148 0.14499 0.120148
          0.14499 0.120148 0.14499 0.120148 0.14499 0.120148 0.14499 0.120148 0.14499 0.120148 0.14499 0.120148
          0.14499 0.120148 0.14499 0.120148 0.14499 0.120148 0.14499 0.120148 0.14499 0.120148 0.14499 0.120148
          0.14499 0.120148 0.14499 0.120148 0.14499 0.120148 0.14499 0.120148 0.14499 0.120148 0.14499 0.120148
          0.14499 0.120148 0.14499 0.120148 0.14499 0.120148 0.14499 0.120148 0.14499 0.120148 0.14499 0.120148
          0.14499 0.120148 0.14499 0.120148 0.14499 0.120148 0.14499 0.120148 0.14499 0.120148 0.14499 0.120148
          0.14499 0.120148 0.14499 0.120149 0.14499 0.120149 0.14499 0.120149 0.14499 0.120149 0.14499 0.120149
          0.14499 0.12015 0.14499 0.12015 0.14499 0.120151 0.14499 0.120152 0.14499 0.120153 0.14499 0.120154
          0.14499 0.120156 0.14499 0.120159 0.14499 0.120162 0.144991 0.120166 0.144997 0.120172 0.145036 0.12018
          0.145308 0.120195 0.146988 0.120241 0.153652 0.120446 0.166123 0.12125 0.177088 0.12325 0.178948 0.126559
          0.169922 0.133438
        </DataArray>
        <DataArray type="Float32" Name="Sn" NumberOfComponents="1" format="ascii">
          0 0 0 0 0 0 0 0 0 0 0 0
          0 0 0 0 0 0 0 0 0 0 0 0
          0 0 0 0 0 0 0 0 0 0 0 0
          0 0 0 0 0 0 0 0 0 0 0 0
          0 0 0 0 0 0 0 0 0 0 0 0
          0 0 0 0 0 0 0 0 0 0 0 0
          0 0 0 0 0 0 0 0 0 0 0 0
          0 0 0 0 0 0 0 0 0 0 0 0
          0 0 0 0 0 0 0 0 0 0 0 0
          0 0 0 0 0 0 0 0 0 0 0 0
          0 0 0 0 0 0 0 0 0 0 0 0
          0 0 0 0 0 0 0 0 0 0 0 0
          0 0 0 0 0 0 0 0 0 0 0 0
          0 0 0 0 0 0 0 0 0 0 0 0
          0 0 0 0 0 0 0 0 0 0 0 0
          0 0 0 0 0 0 0 0 0 0 0 0
          0 0 0 0 0 0 0 0 0 0 0 0
          0 0 0 0 0 0 0 0 0 0 0 0
          0 0 0 0 0 0 0 0 0 0 0 0
          0 0 0 0 0 0 0 0 0 0 0 0
          0 0
        </DataArray>
        <DataArray type="Float32" Name="Sg" NumberOfComponents="1" format="ascii">
          0.784808 0.855404 0.807849 0.870866 0.831186 0.878447 0.852942 0.879802 0.854837 0.879855 0.854994 0.879861
          0.855012 0.879862 0.855012 0.879862 0.855011 0.879861 0.85501 0.879859 0.85501 0.879857 0.85501 0.879856
          0.85501 0.879855 0.85501 0.879854 0.85501 0.879854 0.85501 0.879853 0.85501 0.879853 0.85501 0.879853
          0.85501 0.879852 0.85501 0.879852 0.85501 0.879852 0.85501 0.879852 0.85501 0.879852 0.85501 0.879852
          0.85501 0.879852 0.85501 0.879852 0.85501 0.879852 0.85501 0.879852 0.85501 0.879852 0.85501 0.879852
          0.85501 0.879852 0.85501 0.879852 0.85501 0.879852 0.85501 0.879852 0.85501 0.879852 0.85501 0.879852
          0.85501 0.879852 0.85501 0.879852 0.85501 0.879852 0.85501 0.879852 0.85501 0.879852 0.85501 0.879852
          0.85501 0.879852 0.85501 0.879852 0.85501 0.879852 0.85501 0.879852 0.85501 0.879852 0.85501 0.879852
          0.85501 0.879852 0.85501 0.879852 0.85501 0.879852 0.85501 0.879852 0.85501 0.879852 0.85501 0.879852
          0.85501 0.879852 0.85501 0.879852 0.85501 0.879852 0.85501 0.879852 0.85501 0.879852 0.85501 0.879852
          0.85501 0.879852 0.85501 0.879852 0.85501 0.879852 0.85501 0.879852 0.85501 0.879852 0.85501 0.879852
          0.85501 0.879852 0.85501 0.879852 0.85501 0.879852 0.85501 0.879852 0.85501 0.879852 0.85501 0.879852
          0.85501 0.879852 0.85501 0.879852 0.85501 0.879852 0.85501 0.879852 0.85501 0.879852 0.85501 0.879852
          0.85501 0.879852 0.85501 0.879852 0.85501 0.879852 0.85501 0.879852 0.85501 0.879852 0.85501 0.879852
          0.85501 0.879852 0.85501 0.879852 0.85501 0.879852 0.85501 0.879852 0.85501 0.879852 0.85501 0.879852
          0.85501 0.879852 0.85501 0.879852 0.85501 0.879852 0.85501 0.879852 0.85501 0.879852 0.85501 0.879852
          0.85501 0.879852 0.85501 0.879851 0.85501 0.879851 0.85501 0.879851 0.85501 0.879851 0.85501 0.879851
          0.85501 0.87985 0.85501 0.87985 0.85501 0.879849 0.85501 0.879848 0.85501 0.879847 0.85501 0.879846
          0.85501 0.879844 0.85501 0.879841 0.85501 0.879838 0.855009 0.879834 0.855003 0.879828 0.854964 0.87982
          0.854692 0.879805 0.853012 0.879759 0.846348 0.879554 0.833877 0.878749 0.822912 0.87675 0.821052 0.873441
          0.830078 0.866562
        </DataArray>
        <DataArray type="Float32" Name="pw" NumberOfComponents="1" format="ascii">
          3.09195e+06 3.0917e+06 3.0919e+06 3.09142e+06 3.09183e+06 3.09114e+06 3.09171e+06 3.09109e+06 3.09169e+06 3.09109e+06 3.09168e+06 3.09108e+06
          3.09168e+06 3.09108e+06 3.09167e+06 3.09108e+06 3.09167e+06 3.09107e+06 3.09167e+06 3.09107e+06 3.09166e+06 3.09106e+06 3.09166e+06 3.09106e+06
          3.09166e+06 3.09106e+06 3.09165e+06 3.09105e+06 3.09165e+06 3.09105e+06 3.09165e+06 3.09105e+06 3.09164e+06 3.09104e+06 3.09164e+06 3.09104e+06
          3.09164e+06 3.09104e+06 3.09163e+06 3.09103e+06 3.09163e+06 3.09103e+06 3.09162e+06 3.09103e+06 3.09162e+06 3.09102e+06 3.09162e+06 3.09102e+06
          3.09161e+06 3.09102e+06 3.09161e+06 3.09101e+06 3.09161e+06 3.09101e+06 3.0916e+06 3.09101e+06 3.0916e+06 3.091e+06 3.0916e+06 3.091e+06
          3.09159e+06 3.091e+06 3.09159e+06 3.09099e+06 3.09159e+06 3.09099e+06 3.09158e+06 3.09098e+06 3.09158e+06 3.09098e+06 3.09158e+06 3.09098e+06
          3.09157e+06 3.09097e+06 3.09157e+06 3.09097e+06 3.09157e+06 3.09097e+06 3.09156e+06 3.09096e+06 3.09156e+06 3.09096e+06 3.09155e+06 3.09096e+06
          3.09155e+06 3.09095e+06 3.09155e+06 3.09095e+06 3.09154e+06 3.09095e+06 3.09154e+06 3.09094e+06 3.09154e+06 3.09094e+06 3.09153e+06 3.09094e+06
          3.09153e+06 3.09093e+06 3.09153e+06 3.09093e+06 3.09152e+06 3.09092e+06 3.09152e+06 3.09092e+06 3.09152e+06 3.09092e+06 3.09151e+06 3.09091e+06
          3.09151e+06 3.09091e+06 3.09151e+06 3.09091e+06 3.0915e+06 3.0909e+06 3.0915e+06 3.0909e+06 3.0915e+06 3.0909e+06 3.09149e+06 3.09089e+06
          3.09149e+06 3.09089e+06 3.09148e+06 3.09089e+06 3.09148e+06 3.09088e+06 3.09148e+06 3.09088e+06 3.09147e+06 3.09088e+06 3.09147e+06 3.09087e+06
          3.09147e+06 3.09087e+06 3.09146e+06 3.09087e+06 3.09146e+06 3.09086e+06 3.09146e+06 3.09086e+06 3.09145e+06 3.09085e+06 3.09145e+06 3.09085e+06
          3.09145e+06 3.09085e+06 3.09144e+06 3.09084e+06 3.09144e+06 3.09084e+06 3.09144e+06 3.09084e+06 3.09143e+06 3.09083e+06 3.09143e+06 3.09083e+06
          3.09142e+06 3.09083e+06 3.09142e+06 3.09082e+06 3.09142e+06 3.09082e+06 3.09141e+06 3.09082e+06 3.09141e+06 3.09081e+06 3.09141e+06 3.09081e+06
          3.0914e+06 3.09081e+06 3.0914e+06 3.0908e+06 3.0914e+06 3.0908e+06 3.09139e+06 3.0908e+06 3.09139e+06 3.09079e+06 3.09139e+06 3.09079e+06
          3.09138e+06 3.09078e+06 3.09138e+06 3.09078e+06 3.09138e+06 3.09078e+06 3.09137e+06 3.09077e+06 3.09137e+06 3.09077e+06 3.09137e+06 3.09077e+06
          3.09136e+06 3.09076e+06 3.09136e+06 3.09076e+06 3.09136e+06 3.09076e+06 3.09135e+06 3.09075e+06 3.09135e+06 3.09075e+06 3.09134e+06 3.09075e+06
          3.09134e+06 3.09074e+06 3.09134e+06 3.09074e+06 3.09133e+06 3.09074e+06 3.09133e+06 3.09073e+06 3.09133e+06 3.09073e+06 3.09132e+06 3.09073e+06
          3.09132e+06 3.09072e+06 3.09132e+06 3.09072e+06 3.09131e+06 3.09072e+06 3.09131e+06 3.09071e+06 3.09131e+06 3.09071e+06 3.0913e+06 3.09071e+06
          3.0913e+06 3.0907e+06 3.09131e+06 3.0907e+06 3.09136e+06 3.0907e+06 3.09142e+06 3.09073e+06 3.09145e+06 3.0908e+06 3.09145e+06 3.09091e+06
          3.09142e+06 3.09112e+06
        </DataArray>
        <DataArray type="Float32" Name="pn" NumberOfComponents="1" format="ascii">
          3.09195e+06 3.0917e+06 3.0919e+06 3.09142e+06 3.09183e+06 3.09114e+06 3.09171e+06 3.09109e+06 3.09169e+06 3.09109e+06 3.09168e+06 3.09108e+06
          3.09168e+06 3.09108e+06 3.09167e+06 3.09108e+06 3.09167e+06 3.09107e+06 3.09167e+06 3.09107e+06 3.09166e+06 3.09106e+06 3.09166e+06 3.09106e+06
          3.09166e+06 3.09106e+06 3.09165e+06 3.09105e+06 3.09165e+06 3.09105e+06 3.09165e+06 3.09105e+06 3.09164e+06 3.09104e+06 3.09164e+06 3.09104e+06
          3.09164e+06 3.09104e+06 3.09163e+06 3.09103e+06 3.09163e+06 3.09103e+06 3.09162e+06 3.09103e+06 3.09162e+06 3.09102e+06 3.09162e+06 3.09102e+06
          3.09161e+06 3.09102e+06 3.09161e+06 3.09101e+06 3.09161e+06 3.09101e+06 3.0916e+06 3.09101e+06 3.0916e+06 3.091e+06 3.0916e+06 3.091e+06
          3.09159e+06 3.091e+06 3.09159e+06 3.09099e+06 3.09159e+06 3.09099e+06 3.09158e+06 3.09098e+06 3.09158e+06 3.09098e+06 3.09158e+06 3.09098e+06
          3.09157e+06 3.09097e+06 3.09157e+06 3.09097e+06 3.09157e+06 3.09097e+06 3.09156e+06 3.09096e+06 3.09156e+06 3.09096e+06 3.09155e+06 3.09096e+06
          3.09155e+06 3.09095e+06 3.09155e+06 3.09095e+06 3.09154e+06 3.09095e+06 3.09154e+06 3.09094e+06 3.09154e+06 3.09094e+06 3.09153e+06 3.09094e+06
          3.09153e+06 3.09093e+06 3.09153e+06 3.09093e+06 3.09152e+06 3.09092e+06 3.09152e+06 3.09092e+06 3.09152e+06 3.09092e+06 3.09151e+06 3.09091e+06
          3.09151e+06 3.09091e+06 3.09151e+06 3.09091e+06 3.0915e+06 3.0909e+06 3.0915e+06 3.0909e+06 3.0915e+06 3.0909e+06 3.09149e+06 3.09089e+06
          3.09149e+06 3.09089e+06 3.09148e+06 3.09089e+06 3.09148e+06 3.09088e+06 3.09148e+06 3.09088e+06 3.09147e+06 3.09088e+06 3.09147e+06 3.09087e+06
          3.09147e+06 3.09087e+06 3.09146e+06 3.09087e+06 3.09146e+06 3.09086e+06 3.09146e+06 3.09086e+06 3.09145e+06 3.09085e+06 3.09145e+06 3.09085e+06
          3.09145e+06 3.09085e+06 3.09144e+06 3.09084e+06 3.09144e+06 3.09084e+06 3.09144e+06 3.09084e+06 3.09143e+06 3.09083e+06 3.09143e+06 3.09083e+06
          3.09142e+06 3.09083e+06 3.09142e+06 3.09082e+06 3.09142e+06 3.09082e+06 3.09141e+06 3.09082e+06 3.09141e+06 3.09081e+06 3.09141e+06 3.09081e+06
          3.0914e+06 3.09081e+06 3.0914e+06 3.0908e+06 3.0914e+06 3.0908e+06 3.09139e+06 3.0908e+06 3.09139e+06 3.09079e+06 3.09139e+06 3.09079e+06
          3.09138e+06 3.09078e+06 3.09138e+06 3.09078e+06 3.09138e+06 3.09078e+06 3.09137e+06 3.09077e+06 3.09137e+06 3.09077e+06 3.09137e+06 3.09077e+06
          3.09136e+06 3.09076e+06 3.09136e+06 3.09076e+06 3.09136e+06 3.09076e+06 3.09135e+06 3.09075e+06 3.09135e+06 3.09075e+06 3.09134e+06 3.09075e+06
          3.09134e+06 3.09074e+06 3.09134e+06 3.09074e+06 3.09133e+06 3.09074e+06 3.09133e+06 3.09073e+06 3.09133e+06 3.09073e+06 3.09132e+06 3.09073e+06
          3.09132e+06 3.09072e+06 3.09132e+06 3.09072e+06 3.09131e+06 3.09072e+06 3.09131e+06 3.09071e+06 3.09131e+06 3.09071e+06 3.0913e+06 3.09071e+06
          3.0913e+06 3.0907e+06 3.09131e+06 3.0907e+06 3.09136e+06 3.0907e+06 3.09142e+06 3.09073e+06 3.09145e+06 3.0908e+06 3.09145e+06 3.09091e+06
          3.09142e+06 3.09112e+06
        </DataArray>
        <DataArray type="Float32" Name="pg" NumberOfComponents="1" format="ascii">
          3.09238e+06 3.09238e+06 3.09237e+06 3.09238e+06 3.09237e+06 3.09237e+06 3.09237e+06 3.09237e+06 3.09236e+06 3.09236e+06 3.09236e+06 3.09236e+06
          3.09236e+06 3.09236e+06 3.09235e+06 3.09235e+06 3.09235e+06 3.09235e+06 3.09235e+06 3.09235e+06 3.09234e+06 3.09234e+06 3.09234e+06 3.09234e+06
          3.09234e+06 3.09234e+06 3.09233e+06 3.09233e+06 3.09233e+06 3.09233e+06 3.09233e+06 3.09233e+06 3.09232e+06 3.09232e+06 3.09232e+06 3.09232e+06
          3.09232e+06 3.09232e+06 3.09231e+06 3.09231e+06 3.09231e+06 3.09231e+06 3.09231e+06 3.09231e+06 3.0923e+06 3.0923e+06 3.0923e+06 3.0923e+06
          3.09229e+06 3.09229e+06 3.09229e+06 3.09229e+06 3.09229e+06 3.09229e+06 3.09228e+06 3.09228e+06 3.09228e+06 3.09228e+06 3.09228e+06 3.09228e+06
          3.09227e+06 3.09227e+06 3.09227e+06 3.09227e+06 3.09227e+06 3.09227e+06 3.09226e+06 3.09226e+06 3.09226e+06 3.09226e+06 3.09226e+06 3.09226e+06
          3.09225e+06 3.09225e+06 3.09225e+06 3.09225e+06 3.09225e+06 3.09225e+06 3.09224e+06 3.09224e+06 3.09224e+06 3.09224e+06 3.09224e+06 3.09224e+06
          3.09223e+06 3.09223e+06 3.09223e+06 3.09223e+06 3.09222e+06 3.09222e+06 3.09222e+06 3.09222e+06 3.09222e+06 3.09222e+06 3.09221e+06 3.09221e+06
          3.09221e+06 3.09221e+06 3.09221e+06 3.09221e+06 3.0922e+06 3.0922e+06 3.0922e+06 3.0922e+06 3.0922e+06 3.0922e+06 3.09219e+06 3.09219e+06
          3.09219e+06 3.09219e+06 3.09219e+06 3.09219e+06 3.09218e+06 3.09218e+06 3.09218e+06 3.09218e+06 3.09218e+06 3.09218e+06 3.09217e+06 3.09217e+06
          3.09217e+06 3.09217e+06 3.09216e+06 3.09216e+06 3.09216e+06 3.09216e+06 3.09216e+06 3.09216e+06 3.09215e+06 3.09215e+06 3.09215e+06 3.09215e+06
          3.09215e+06 3.09215e+06 3.09214e+06 3.09214e+06 3.09214e+06 3.09214e+06 3.09214e+06 3.09214e+06 3.09213e+06 3.09213e+06 3.09213e+06 3.09213e+06
          3.09213e+06 3.09213e+06 3.09212e+06 3.09212e+06 3.09212e+06 3.09212e+06 3.09212e+06 3.09212e+06 3.09211e+06 3.09211e+06 3.09211e+06 3.09211e+06
          3.09211e+06 3.09211e+06 3.0921e+06 3.0921e+06 3.0921e+06 3.0921e+06 3.0921e+06 3.0921e+06 3.09209e+06 3.09209e+06 3.09209e+06 3.09209e+06
          3.09208e+06 3.09208e+06 3.09208e+06 3.09208e+06 3.09208e+06 3.09208e+06 3.09207e+06 3.09207e+06 3.09207e+06 3.09207e+06 3.09207e+06 3.09207e+06
          3.09206e+06 3.09206e+06 3.09206e+06 3.09206e+06 3.09206e+06 3.09206e+06 3.09205e+06 3.09205e+06 3.09205e+06 3.09205e+06 3.09205e+06 3.09205e+06
          3.09204e+06 3.09204e+06 3.09204e+06 3.09204e+06 3.09204e+06 3.09204e+06 3.09203e+06 3.09203e+06 3.09203e+06 3.09203e+06 3.09202e+06 3.09202e+06
          3.09202e+06 3.09202e+06 3.09202e+06 3.09202e+06 3.09201e+06 3.09201e+06 3.09201e+06 3.09201e+06 3.09201e+06 3.09201e+06 3.092e+06 3.092e+06
          3.092e+06 3.092e+06 3.092e+06 3.092e+06 3.09199e+06 3.09199e+06 3.09199e+06 3.09199e+06 3.09199e+06 3.09199e+06 3.09198e+06 3.09198e+06
          3.09198e+06 3.09198e+06 3.09198e+06 3.09198e+06 3.09197e+06 3.09197e+06 3.09197e+06 3.09197e+06 3.09197e+06 3.09196e+06 3.09196e+06 3.09196e+06
          3.09196e+06 3.09196e+06
        </DataArray>
        <DataArray type="Float32" Name="rhow" NumberOfComponents="1" format="ascii">
          956.81 1000.72 982.764 999.111 991.358 999.209 993.912 999.484 994.616 999.611 994.799 999.648
          994.84 999.658 994.845 999.66 994.843 999.659 994.842 999.658 994.841 999.656 994.841 999.654
          994.841 999.653 994.841 999.652 994.841 999.652 994.841 999.651 994.841 999.651 994.841 999.65
          994.841 999.65 994.841 999.65 994.841 999.65 994.841 999.65 994.841 999.65 994.841 999.65
          994.841 999.65 994.841 999.65 994.841 999.65 994.841 999.65 994.841 999.65 994.841 999.65
          994.841 999.65 994.841 999.65 994.841 999.65 994.841 999.649 994.841 999.649 994.841 999.649
          994.841 999.649 994.841 999.649 994.841 999.649 994.841 999.649 994.841 999.649 994.841 999.649
          994.841 999.649 994.841 999.649 994.841 999.649 994.841 999.649 994.841 999.649 994.841 999.649
          994.841 999.649 994.841 999.649 994.841 999.649 994.841 999.649 994.841 999.649 994.841 999.649
          994.841 999.649 994.841 999.649 994.841 999.649 994.841 999.649 994.841 999.649 994.841 999.649
          994.841 999.649 994.841 999.649 994.841 999.649 994.841 999.649 994.841 999.649 994.841 999.649
          994.841 999.649 994.841 999.649 994.841 999.649 994.841 999.649 994.841 999.649 994.841 999.649
          994.841 999.649 994.841 999.649 994.841 999.649 994.841 999.649 994.841 999.649 994.841 999.649
          994.841 999.649 994.841 999.649 994.841 999.649 994.841 999.649 994.841 999.649 994.841 999.649
          994.841 999.649 994.841 999.649 994.841 999.649 994.841 999.649 994.841 999.649 994.841 999.649
          994.841 999.649 994.841 999.649 994.841 999.649 994.841 999.649 994.841 999.649 994.841 999.649
          994.841 999.649 994.841 999.649 994.841 999.649 994.841 999.649 994.841 999.648 994.841 999.648
          994.841 999.648 994.841 999.647 994.841 999.646 994.841 999.645 994.841 999.644 994.841 999.643
          994.841 999.641 994.841 999.638 994.841 999.634 994.841 999.63 994.84 999.624 994.839 999.615
          994.834 999.601 994.812 999.571 994.705 999.491 994.215 999.291 992.067 998.874 983.513 998.4
          952.154 999.805
        </DataArray>
        <DataArray type="Float32" Name="rhon" NumberOfComponents="1" format="ascii">
          797.057 874.336 833.486 867.952 848.837 868.283 854.209 869.213 855.804 869.656 856.227 869.802
          856.322 869.842 856.333 869.85 856.329 869.848 856.326 869.841 856.326 869.833 856.325 869.827
          856.325 869.823 856.325 869.819 856.325 869.817 856.325 869.815 856.325 869.813 856.325 869.812
          856.325 869.811 856.325 869.811 856.325 869.81 856.325 869.81 856.325 869.81 856.325 869.809
          856.325 869.809 856.325 869.809 856.325 869.809 856.325 869.809 856.325 869.809 856.325 869.809
          856.325 869.809 856.325 869.809 856.325 869.809 856.325 869.809 856.325 869.809 856.325 869.809
          856.325 869.809 856.325 869.809 856.325 869.809 856.325 869.809 856.325 869.809 856.325 869.809
          856.325 869.809 856.325 869.809 856.325 869.809 856.325 869.809 856.325 869.809 856.325 869.809
          856.325 869.809 856.325 869.809 856.325 869.809 856.325 869.809 856.325 869.809 856.325 869.809
          856.325 869.809 856.325 869.809 856.325 869.809 856.325 869.809 856.325 869.809 856.325 869.809
          856.325 869.809 856.325 869.809 856.325 869.809 856.325 869.809 856.325 869.809 856.325 869.809
          856.325 869.809 856.325 869.809 856.325 869.809 856.325 869.809 856.325 869.809 856.325 869.809
          856.325 869.809 856.325 869.809 856.325 869.809 856.325 869.809 856.325 869.809 856.325 869.809
          856.325 869.809 856.325 869.809 856.325 869.809 856.325 869.809 856.325 869.809 856.325 869.809
          856.325 869.809 856.325 869.809 856.325 869.809 856.325 869.809 856.325 869.809 856.325 869.809
          856.325 869.809 856.325 869.808 856.325 869.808 856.325 869.808 856.325 869.808 856.325 869.808
          856.325 869.807 856.325 869.807 856.325 869.806 856.325 869.806 856.325 869.805 856.325 869.804
          856.325 869.802 856.325 869.8 856.325 869.797 856.325 869.793 856.325 869.789 856.325 869.782
          856.325 869.774 856.325 869.764 856.324 869.75 856.324 869.732 856.323 869.707 856.321 869.673
          856.31 869.617 856.258 869.505 856.01 869.235 854.874 868.56 850.293 867.149 834.726 865.668
          791.276 870.421
        </DataArray>
        <DataArray type="Float32" Name="rhog" NumberOfComponents="1" format="ascii">
          28.1394 37.3191 31.8868 36.3409 33.7217 36.3901 34.4158 36.5295 34.6276 36.5962 34.6843 36.6182
          34.697 36.6242 34.6985 36.6254 34.6979 36.625 34.6974 36.624 34.6973 36.6228 34.6973 36.6218
          34.6972 36.6211 34.6972 36.6206 34.6971 36.6201 34.6971 36.6198 34.697 36.6195 34.697 36.6193
          34.6969 36.6191 34.6969 36.619 34.6969 36.6189 34.6968 36.6188 34.6968 36.6187 34.6967 36.6186
          34.6967 36.6186 34.6967 36.6185 34.6966 36.6184 34.6966 36.6184 34.6965 36.6183 34.6965 36.6183
          34.6965 36.6183 34.6964 36.6182 34.6964 36.6182 34.6964 36.6181 34.6963 36.6181 34.6963 36.618
          34.6962 36.618 34.6962 36.618 34.6962 36.6179 34.6961 36.6179 34.6961 36.6178 34.696 36.6178
          34.696 36.6177 34.696 36.6177 34.6959 36.6177 34.6959 36.6176 34.6958 36.6176 34.6958 36.6175
          34.6958 36.6175 34.6957 36.6175 34.6957 36.6174 34.6956 36.6174 34.6956 36.6173 34.6956 36.6173
          34.6955 36.6172 34.6955 36.6172 34.6954 36.6172 34.6954 36.6171 34.6954 36.6171 34.6953 36.617
          34.6953 36.617 34.6953 36.617 34.6952 36.6169 34.6952 36.6169 34.6951 36.6168 34.6951 36.6168
          34.6951 36.6167 34.695 36.6167 34.695 36.6167 34.6949 36.6166 34.6949 36.6166 34.6949 36.6165
          34.6948 36.6165 34.6948 36.6165 34.6947 36.6164 34.6947 36.6164 34.6947 36.6163 34.6946 36.6163
          34.6946 36.6162 34.6945 36.6162 34.6945 36.6162 34.6945 36.6161 34.6944 36.6161 34.6944 36.616
          34.6944 36.616 34.6943 36.6159 34.6943 36.6159 34.6942 36.6159 34.6942 36.6158 34.6942 36.6158
          34.6941 36.6157 34.6941 36.6157 34.694 36.6156 34.694 36.6155 34.694 36.6155 34.6939 36.6154
          34.6939 36.6153 34.6938 36.6152 34.6938 36.6151 34.6938 36.6149 34.6937 36.6147 34.6937 36.6145
          34.6936 36.6142 34.6936 36.6138 34.6935 36.6134 34.6935 36.6128 34.6935 36.612 34.6934 36.611
          34.6934 36.6098 34.6933 36.6081 34.6932 36.606 34.6931 36.6032 34.693 36.5995 34.6926 36.5942
          34.6911 36.5857 34.6841 36.5689 34.6508 36.5281 34.4993 36.4267 33.9024 36.217 32.0233 35.9997
          27.589 36.7073
        </DataArray>
        <DataArray type="Float32" Name="x^H2O_w" NumberOfComponents="1" format="ascii">
          0.99973 0.999493 0.999698 0.999559 0.999664 0.999556 0.999644 0.999548 0.999637 0.999544 0.999635 0.999542
          0.999635 0.999542 0.999635 0.999542 0.999635 0.999542 0.999635 0.999542 0.999635 0.999542 0.999635 0.999542
          0.999635 0.999542 0.999635 0.999542 0.999635 0.999542 0.999635 0.999542 0.999635 0.999542 0.999635 0.999542
          0.999635 0.999542 0.999635 0.999542 0.999635 0.999542 0.999635 0.999542 0.999635 0.999542 0.999635 0.999542
          0.999635 0.999542 0.999635 0.999542 0.999635 0.999542 0.999635 0.999542 0.999635 0.999542 0.999635 0.999542
          0.999635 0.999542 0.999635 0.999542 0.999635 0.999542 0.999635 0.999542 0.999635 0.999542 0.999635 0.999542
          0.999635 0.999542 0.999635 0.999542 0.999635 0.999542 0.999635 0.999542 0.999635 0.999542 0.999635 0.999542
          0.999635 0.999542 0.999635 0.999542 0.999635 0.999542 0.999635 0.999542 0.999635 0.999542 0.999635 0.999542
          0.999635 0.999542 0.999635 0.999542 0.999635 0.999542 0.999635 0.999542 0.999635 0.999542 0.999635 0.999542
          0.999635 0.999542 0.999635 0.999542 0.999635 0.999542 0.999635 0.999542 0.999635 0.999542 0.999635 0.999542
          0.999635 0.999542 0.999635 0.999542 0.999635 0.999542 0.999635 0.999542 0.999635 0.999542 0.999635 0.999542
          0.999635 0.999542 0.999635 0.999542 0.999635 0.999542 0.999635 0.999542 0.999635 0.999542 0.999635 0.999542
          0.999635 0.999542 0.999635 0.999542 0.999635 0.999542 0.999635 0.999542 0.999635 0.999542 0.999635 0.999542
          0.999635 0.999542 0.999635 0.999542 0.999635 0.999542 0.999635 0.999542 0.999635 0.999542 0.999635 0.999542
          0.999635 0.999542 0.999635 0.999542 0.999635 0.999542 0.999635 0.999542 0.999635 0.999542 0.999635 0.999542
          0.999635 0.999542 0.999635 0.999542 0.999635 0.999542 0.999635 0.999542 0.999635 0.999542 0.999635 0.999542
          0.999635 0.999542 0.999635 0.999542 0.999635 0.999542 0.999635 0.999542 0.999635 0.999542 0.999635 0.999542
          0.999635 0.999542 0.999635 0.999542 0.999635 0.999543 0.999635 0.999543 0.999635 0.999543 0.999635 0.999543
          0.999635 0.999543 0.999635 0.999543 0.999635 0.999543 0.999635 0.999543 0.999635 0.999543 0.999635 0.999544
          0.999635 0.999544 0.999635 0.999545 0.999636 0.999548 0.999642 0.999554 0.999659 0.999566 0.999696 0.999578
          0.999733 0.999536
        </DataArray>
        <DataArray type="Float32" Name="x^mesitylene_w" NumberOfComponents="1" format="ascii">
          3.13274e-09 6.03486e-09 3.92892e-09 6.36282e-09 3.96712e-09 6.58947e-09 3.85039e-09 6.70161e-09 3.67089e-09 6.75528e-09 3.45926e-09 6.77187e-09
          3.22864e-09 6.76193e-09 2.98683e-09 6.73295e-09 2.74188e-09 6.69104e-09 2.50543e-09 6.64158e-09 2.29065e-09 6.59099e-09 2.0964e-09 6.54929e-09
          1.92156e-09 6.51503e-09 1.76495e-09 6.48695e-09 1.62534e-09 6.464e-09 1.50147e-09 6.44526e-09 1.39202e-09 6.42995e-09 1.2957e-09 6.41745e-09
          1.21123e-09 6.40722e-09 1.13739e-09 6.39882e-09 1.07302e-09 6.3919e-09 1.01704e-09 6.38617e-09 9.68457e-10 6.3814e-09 9.26373e-10 6.3774e-09
          8.89969e-10 6.37402e-09 8.58516e-10 6.37114e-09 8.31368e-10 6.36864e-09 8.07953e-10 6.36646e-09 7.87768e-10 6.36453e-09 7.70374e-10 6.36278e-09
          7.55389e-10 6.36117e-09 7.4248e-10 6.35966e-09 7.31358e-10 6.35821e-09 7.21775e-10 6.3568e-09 7.13515e-10 6.3554e-09 7.06393e-10 6.35399e-09
          7.0025e-10 6.35253e-09 6.94948e-10 6.35101e-09 6.9037e-10 6.34941e-09 6.86415e-10 6.3477e-09 6.82995e-10 6.34587e-09 6.80036e-10 6.34388e-09
          6.77475e-10 6.34173e-09 6.75256e-10 6.33937e-09 6.73332e-10 6.33679e-09 6.71662e-10 6.33395e-09 6.70213e-10 6.33083e-09 6.68954e-10 6.32739e-09
          6.67858e-10 6.32359e-09 6.66905e-10 6.3194e-09 6.66076e-10 6.31477e-09 6.65352e-10 6.30965e-09 6.64722e-10 6.30398e-09 6.64171e-10 6.29773e-09
          6.63691e-10 6.2908e-09 6.63271e-10 6.28315e-09 6.62904e-10 6.2747e-09 6.62583e-10 6.26535e-09 6.62302e-10 6.25503e-09 6.62055e-10 6.24364e-09
          6.6184e-10 6.23106e-09 6.6165e-10 6.21718e-09 6.61484e-10 6.20188e-09 6.61338e-10 6.18502e-09 6.61209e-10 6.16644e-09 6.61097e-10 6.146e-09
          6.60997e-10 6.12351e-09 6.6091e-10 6.09878e-09 6.60833e-10 6.07162e-09 6.60765e-10 6.04182e-09 6.60706e-10 6.00913e-09 6.60653e-10 5.97331e-09
          6.60606e-10 5.93411e-09 6.60565e-10 5.89124e-09 6.60528e-10 5.84442e-09 6.60496e-10 5.79334e-09 6.60467e-10 5.73769e-09 6.60442e-10 5.67713e-09
          6.60419e-10 5.61132e-09 6.60398e-10 5.53994e-09 6.6038e-10 5.46262e-09 6.60363e-10 5.37902e-09 6.60349e-10 5.28882e-09 6.60336e-10 5.19168e-09
          6.60324e-10 5.0873e-09 6.60313e-10 4.97541e-09 6.60303e-10 4.85578e-09 6.60294e-10 4.72822e-09 6.60286e-10 4.59262e-09 6.60278e-10 4.44892e-09
          6.60272e-10 4.29719e-09 6.60265e-10 4.13757e-09 6.60259e-10 3.97034e-09 6.60254e-10 3.79591e-09 6.60249e-10 3.61485e-09 6.60244e-10 3.42788e-09
          6.60239e-10 3.2359e-09 6.60235e-10 3.04e-09 6.60231e-10 2.84142e-09 6.60227e-10 2.64159e-09 6.60223e-10 2.4421e-09 6.60219e-10 2.24463e-09
          6.60214e-10 2.051e-09 6.60208e-10 1.86302e-09 6.60197e-10 1.68251e-09 6.60173e-10 1.51119e-09 6.60123e-10 1.35059e-09 6.60013e-10 1.20201e-09
          6.59772e-10 1.0664e-09 6.59264e-10 9.44324e-10 6.58223e-10 8.35856e-10 6.56173e-10 7.40576e-10 6.52291e-10 6.57525e-10 6.4524e-10 5.85194e-10
          6.32834e-10 5.21501e-10 6.1189e-10 4.63747e-10 5.77879e-10 4.08515e-10 5.23721e-10 3.5153e-10 4.3682e-10 2.86863e-10 2.83011e-10 2.0171e-10
          1.78054e-16 3.83952e-11
        </DataArray>
        <DataArray type="Float32" Name="x^Air_w" NumberOfComponents="1" format="ascii">
          0.000270445 0.000507218 0.000301902 0.000440599 0.000336003 0.000443513 0.000355679 0.000451996 0.000362661 0.000456183 0.000364612 0.000457585
          0.000365057 0.000457969 0.000365109 0.00045805 0.000365089 0.000458027 0.000365073 0.000457963 0.000365071 0.000457888 0.00036507 0.000457829
          0.000365069 0.000457784 0.000365068 0.000457751 0.000365068 0.000457725 0.000365067 0.000457705 0.000365067 0.000457691 0.000365066 0.000457679
          0.000365066 0.000457671 0.000365065 0.000457664 0.000365065 0.000457659 0.000365065 0.000457655 0.000365064 0.000457651 0.000365064 0.000457649
          0.000365063 0.000457647 0.000365063 0.000457645 0.000365063 0.000457644 0.000365062 0.000457643 0.000365062 0.000457642 0.000365061 0.000457641
          0.000365061 0.00045764 0.00036506 0.000457639 0.00036506 0.000457639 0.00036506 0.000457638 0.000365059 0.000457637 0.000365059 0.000457637
          0.000365058 0.000457636 0.000365058 0.000457636 0.000365058 0.000457635 0.000365057 0.000457635 0.000365057 0.000457634 0.000365056 0.000457634
          0.000365056 0.000457633 0.000365055 0.000457633 0.000365055 0.000457632 0.000365055 0.000457631 0.000365054 0.000457631 0.000365054 0.00045763
          0.000365053 0.00045763 0.000365053 0.000457629 0.000365053 0.000457629 0.000365052 0.000457628 0.000365052 0.000457628 0.000365051 0.000457627
          0.000365051 0.000457627 0.000365051 0.000457626 0.00036505 0.000457626 0.00036505 0.000457625 0.000365049 0.000457625 0.000365049 0.000457624
          0.000365049 0.000457624 0.000365048 0.000457623 0.000365048 0.000457623 0.000365047 0.000457622 0.000365047 0.000457622 0.000365046 0.000457621
          0.000365046 0.000457621 0.000365046 0.00045762 0.000365045 0.00045762 0.000365045 0.000457619 0.000365044 0.000457619 0.000365044 0.000457618
          0.000365044 0.000457618 0.000365043 0.000457617 0.000365043 0.000457617 0.000365042 0.000457616 0.000365042 0.000457616 0.000365042 0.000457615
          0.000365041 0.000457614 0.000365041 0.000457614 0.00036504 0.000457613 0.00036504 0.000457613 0.000365039 0.000457612 0.000365039 0.000457612