<?xml version="1.0"?>
<VTKFile type="UnstructuredGrid" version="0.1" byte_order="LittleEndian">
  <UnstructuredGrid>
    <Piece NumberOfCells="120" NumberOfPoints="242">
      <CellData Scalars="Sw">
        <DataArray type="Float32" Name="Sw" NumberOfComponents="1" format="ascii">
          0.132647 0.132514 0.132511 0.132511 0.132511 0.132511 0.132511 0.132511 0.132511 0.132511 0.132511 0.132511
          0.132511 0.132511 0.132511 0.132511 0.132511 0.132511 0.132511 0.132511 0.132511 0.132511 0.132511 0.132511
          0.132511 0.132511 0.132511 0.132511 0.132511 0.132511 0.132511 0.132511 0.132511 0.132511 0.132511 0.132511
          0.132511 0.132511 0.132511 0.132511 0.132511 0.132511 0.132511 0.132511 0.132511 0.132511 0.132511 0.132511
          0.132511 0.132511 0.132511 0.132511 0.132511 0.132511 0.132511 0.132511 0.132511 0.132511 0.132511 0.132511
          0.132511 0.132511 0.132511 0.132511 0.132511 0.132511 0.132511 0.132511 0.132511 0.132511 0.132511 0.132511
          0.132511 0.132511 0.132511 0.132511 0.132511 0.132511 0.132511 0.132511 0.132511 0.132511 0.132511 0.132511
          0.132511 0.132511 0.132511 0.132511 0.132511 0.132511 0.132511 0.132511 0.132511 0.132511 0.132511 0.132511
          0.132511 0.132511 0.132511 0.132511 0.132511 0.132511 0.132511 0.132511 0.132511 0.132511 0.132511 0.132511
          0.132511 0.132511 0.132511 0.132511 0.132511 0.132511 0.132511 0.132511 0.132511 0.13251 0.132504 0.132378
        </DataArray>
        <DataArray type="Float32" Name="Sn" NumberOfComponents="1" format="ascii">
          0 0 0 0 0 0 0 0 0 0 0 0
          0 0 0 0 0 0 0 0 0 0 0 0
          0 0 0 0 0 0 0 0 0 0 0 0
          0 0 0 0 0 0 0 0 0 0 0 0
          0 0 0 0 0 0 0 0 0 0 0 0
          0 0 0 0 0 0 0 0 0 0 0 0
          0 0 0 0 0 0 0 0 0 0 0 0
          0 0 0 0 0 0 0 0 0 0 0 0
          0 0 0 0 0 0 0 0 0 0 0 0
          0 0 0 0 0 0 0 0 0 0 0 0
        </DataArray>
        <DataArray type="Float32" Name="Sg" NumberOfComponents="1" format="ascii">
          0.867353 0.867486 0.867489 0.867489 0.867489 0.867489 0.867489 0.867489 0.867489 0.867489 0.867489 0.867489
          0.867489 0.867489 0.867489 0.867489 0.867489 0.867489 0.867489 0.867489 0.867489 0.867489 0.867489 0.867489
          0.867489 0.867489 0.867489 0.867489 0.867489 0.867489 0.867489 0.867489 0.867489 0.867489 0.867489 0.867489
          0.867489 0.867489 0.867489 0.867489 0.867489 0.867489 0.867489 0.867489 0.867489 0.867489 0.867489 0.867489
          0.867489 0.867489 0.867489 0.867489 0.867489 0.867489 0.867489 0.867489 0.867489 0.867489 0.867489 0.867489
          0.867489 0.867489 0.867489 0.867489 0.867489 0.867489 0.867489 0.867489 0.867489 0.867489 0.867489 0.867489
          0.867489 0.867489 0.867489 0.867489 0.867489 0.867489 0.867489 0.867489 0.867489 0.867489 0.867489 0.867489
          0.867489 0.867489 0.867489 0.867489 0.867489 0.867489 0.867489 0.867489 0.867489 0.867489 0.867489 0.867489
          0.867489 0.867489 0.867489 0.867489 0.867489 0.867489 0.867489 0.867489 0.867489 0.867489 0.867489 0.867489
          0.867489 0.867489 0.867489 0.867489 0.867489 0.867489 0.867489 0.867489 0.867489 0.86749 0.867496 0.867622
        </DataArray>
        <DataArray type="Float32" Name="pw" NumberOfComponents="1" format="ascii">
          2.85613e+06 2.85613e+06 2.85613e+06 2.85612e+06 2.85612e+06 2.85612e+06 2.85611e+06 2.85611e+06 2.85611e+06 2.8561e+06 2.8561e+06 2.8561e+06
          2.85609e+06 2.85609e+06 2.85609e+06 2.85608e+06 2.85608e+06 2.85608e+06 2.85607e+06 2.85607e+06 2.85607e+06 2.85606e+06 2.85606e+06 2.85606e+06
          2.85605e+06 2.85605e+06 2.85605e+06 2.85604e+06 2.85604e+06 2.85604e+06 2.85604e+06 2.85603e+06 2.85603e+06 2.85603e+06 2.85602e+06 2.85602e+06
          2.85602e+06 2.85601e+06 2.85601e+06 2.85601e+06 2.856e+06 2.856e+06 2.856e+06 2.85599e+06 2.85599e+06 2.85599e+06 2.85598e+06 2.85598e+06
          2.85598e+06 2.85597e+06 2.85597e+06 2.85597e+06 2.85596e+06 2.85596e+06 2.85596e+06 2.85595e+06 2.85595e+06 2.85595e+06 2.85594e+06 2.85594e+06
          2.85594e+06 2.85593e+06 2.85593e+06 2.85593e+06 2.85592e+06 2.85592e+06 2.85592e+06 2.85592e+06 2.85591e+06 2.85591e+06 2.85591e+06 2.8559e+06
          2.8559e+06 2.8559e+06 2.85589e+06 2.85589e+06 2.85589e+06 2.85588e+06 2.85588e+06 2.85588e+06 2.85587e+06 2.85587e+06 2.85587e+06 2.85586e+06
          2.85586e+06 2.85586e+06 2.85585e+06 2.85585e+06 2.85585e+06 2.85584e+06 2.85584e+06 2.85584e+06 2.85583e+06 2.85583e+06 2.85583e+06 2.85582e+06
          2.85582e+06 2.85582e+06 2.85582e+06 2.85581e+06 2.85581e+06 2.85581e+06 2.8558e+06 2.8558e+06 2.8558e+06 2.85579e+06 2.85579e+06 2.85579e+06
          2.85578e+06 2.85578e+06 2.85578e+06 2.85577e+06 2.85577e+06 2.85577e+06 2.85576e+06 2.85576e+06 2.85576e+06 2.85575e+06 2.85575e+06 2.85574e+06
        </DataArray>
        <DataArray type="Float32" Name="pn" NumberOfComponents="1" format="ascii">
          2.85613e+06 2.85613e+06 2.85613e+06 2.85612e+06 2.85612e+06 2.85612e+06 2.85611e+06 2.85611e+06 2.85611e+06 2.8561e+06 2.8561e+06 2.8561e+06
          2.85609e+06 2.85609e+06 2.85609e+06 2.85608e+06 2.85608e+06 2.85608e+06 2.85607e+06 2.85607e+06 2.85607e+06 2.85606e+06 2.85606e+06 2.85606e+06
          2.85605e+06 2.85605e+06 2.85605e+06 2.85604e+06 2.85604e+06 2.85604e+06 2.85604e+06 2.85603e+06 2.85603e+06 2.85603e+06 2.85602e+06 2.85602e+06
          2.85602e+06 2.85601e+06 2.85601e+06 2.85601e+06 2.856e+06 2.856e+06 2.856e+06 2.85599e+06 2.85599e+06 2.85599e+06 2.85598e+06 2.85598e+06
          2.85598e+06 2.85597e+06 2.85597e+06 2.85597e+06 2.85596e+06 2.85596e+06 2.85596e+06 2.85595e+06 2.85595e+06 2.85595e+06 2.85594e+06 2.85594e+06
          2.85594e+06 2.85593e+06 2.85593e+06 2.85593e+06 2.85592e+06 2.85592e+06 2.85592e+06 2.85592e+06 2.85591e+06 2.85591e+06 2.85591e+06 2.8559e+06
          2.8559e+06 2.8559e+06 2.85589e+06 2.85589e+06 2.85589e+06 2.85588e+06 2.85588e+06 2.85588e+06 2.85587e+06 2.85587e+06 2.85587e+06 2.85586e+06
          2.85586e+06 2.85586e+06 2.85585e+06 2.85585e+06 2.85585e+06 2.85584e+06 2.85584e+06 2.85584e+06 2.85583e+06 2.85583e+06 2.85583e+06 2.85582e+06
          2.85582e+06 2.85582e+06 2.85582e+06 2.85581e+06 2.85581e+06 2.85581e+06 2.8558e+06 2.8558e+06 2.8558e+06 2.85579e+06 2.85579e+06 2.85579e+06
          2.85578e+06 2.85578e+06 2.85578e+06 2.85577e+06 2.85577e+06 2.85577e+06 2.85576e+06 2.85576e+06 2.85576e+06 2.85575e+06 2.85575e+06 2.85574e+06
        </DataArray>
        <DataArray type="Float32" Name="pg" NumberOfComponents="1" format="ascii">
          2.85699e+06 2.85699e+06 2.85698e+06 2.85698e+06 2.85698e+06 2.85697e+06 2.85697e+06 2.85697e+06 2.85696e+06 2.85696e+06 2.85696e+06 2.85695e+06
          2.85695e+06 2.85695e+06 2.85694e+06 2.85694e+06 2.85694e+06 2.85693e+06 2.85693e+06 2.85693e+06 2.85693e+06 2.85692e+06 2.85692e+06 2.85692e+06
          2.85691e+06 2.85691e+06 2.85691e+06 2.8569e+06 2.8569e+06 2.8569e+06 2.85689e+06 2.85689e+06 2.85689e+06 2.85688e+06 2.85688e+06 2.85688e+06
          2.85687e+06 2.85687e+06 2.85687e+06 2.85686e+06 2.85686e+06 2.85686e+06 2.85685e+06 2.85685e+06 2.85685e+06 2.85684e+06 2.85684e+06 2.85684e+06
          2.85683e+06 2.85683e+06 2.85683e+06 2.85682e+06 2.85682e+06 2.85682e+06 2.85682e+06 2.85681e+06 2.85681e+06 2.85681e+06 2.8568e+06 2.8568e+06
          2.8568e+06 2.85679e+06 2.85679e+06 2.85679e+06 2.85678e+06 2.85678e+06 2.85678e+06 2.85677e+06 2.85677e+06 2.85677e+06 2.85676e+06 2.85676e+06
          2.85676e+06 2.85675e+06 2.85675e+06 2.85675e+06 2.85674e+06 2.85674e+06 2.85674e+06 2.85673e+06 2.85673e+06 2.85673e+06 2.85672e+06 2.85672e+06
          2.85672e+06 2.85672e+06 2.85671e+06 2.85671e+06 2.85671e+06 2.8567e+06 2.8567e+06 2.8567e+06 2.85669e+06 2.85669e+06 2.85669e+06 2.85668e+06
          2.85668e+06 2.85668e+06 2.85667e+06 2.85667e+06 2.85667e+06 2.85666e+06 2.85666e+06 2.85666e+06 2.85665e+06 2.85665e+06 2.85665e+06 2.85664e+06
          2.85664e+06 2.85664e+06 2.85663e+06 2.85663e+06 2.85663e+06 2.85662e+06 2.85662e+06 2.85662e+06 2.85662e+06 2.85661e+06 2.85661e+06 2.85661e+06
        </DataArray>
        <DataArray type="Float32" Name="rhow" NumberOfComponents="1" format="ascii">
          997.385 997.385 997.385 997.385 997.385 997.385 997.385 997.385 997.385 997.385 997.385 997.385
          997.385 997.385 997.385 997.385 997.385 997.385 997.385 997.385 997.385 997.385 997.385 997.385
          997.385 997.385 997.385 997.385 997.385 997.385 997.385 997.385 997.385 997.385 997.385 997.385
          997.385 997.385 997.385 997.385 997.385 997.385 997.385 997.385 997.385 997.385 997.385 997.385
          997.385 997.385 997.385 997.385 997.385 997.385 997.385 997.385 997.385 997.385 997.385 997.385
          997.385 997.385 997.385 997.385 997.385 997.385 997.385 997.385 997.385 997.385 997.385 997.385
          997.385 997.385 997.385 997.385 997.385 997.385 997.385 997.385 997.385 997.385 997.385 997.385
          997.385 997.385 997.385 997.385 997.385 997.385 997.385 997.385 997.385 997.385 997.385 997.385
          997.385 997.385 997.385 997.385 997.385 997.385 997.385 997.385 997.385 997.385 997.385 997.385
          997.385 997.385 997.385 997.385 997.385 997.385 997.385 997.385 997.385 997.385 997.385 997.385
        </DataArray>
        <DataArray type="Float32" Name="rhon" NumberOfComponents="1" format="ascii">
          863.055 863.055 863.055 863.055 863.055 863.055 863.055 863.055 863.055 863.055 863.055 863.055
          863.055 863.055 863.055 863.055 863.055 863.055 863.055 863.055 863.055 863.055 863.055 863.055
          863.055 863.055 863.055 863.055 863.055 863.055 863.055 863.055 863.055 863.055 863.055 863.055
          863.055 863.055 863.055 863.055 863.055 863.055 863.055 863.055 863.055 863.055 863.055 863.055
          863.055 863.055 863.055 863.055 863.055 863.055 863.055 863.055 863.055 863.055 863.055 863.055
          863.055 863.055 863.055 863.055 863.055 863.055 863.055 863.055 863.055 863.055 863.055 863.055
          863.055 863.055 863.055 863.055 863.055 863.055 863.055 863.055 863.055 863.055 863.055 863.055
          863.055 863.055 863.055 863.055 863.055 863.055 863.055 863.055 863.055 863.055 863.055 863.055
          863.055 863.055 863.055 863.055 863.055 863.055 863.055 863.055 863.055 863.055 863.055 863.055
          863.055 863.055 863.055 863.055 863.055 863.055 863.055 863.055 863.055 863.055 863.055 863.055
        </DataArray>
        <DataArray type="Float32" Name="rhog" NumberOfComponents="1" format="ascii">
          32.9151 32.915 32.915 32.9149 32.9149 32.9149 32.9148 32.9148 32.9147 32.9147 32.9147 32.9146
          32.9146 32.9146 32.9145 32.9145 32.9144 32.9144 32.9144 32.9143 32.9143 32.9143 32.9142 32.9142
          32.9142 32.9141 32.9141 32.914 32.914 32.914 32.9139 32.9139 32.9139 32.9138 32.9138 32.9137
          32.9137 32.9137 32.9136 32.9136 32.9136 32.9135 32.9135 32.9134 32.9134 32.9134 32.9133 32.9133
          32.9133 32.9132 32.9132 32.9131 32.9131 32.9131 32.913 32.913 32.913 32.9129 32.9129 32.9128
          32.9128 32.9128 32.9127 32.9127 32.9127 32.9126 32.9126 32.9126 32.9125 32.9125 32.9124 32.9124
          32.9124 32.9123 32.9123 32.9123 32.9122 32.9122 32.9121 32.9121 32.9121 32.912 32.912 32.912
          32.9119 32.9119 32.9118 32.9118 32.9118 32.9117 32.9117 32.9117 32.9116 32.9116 32.9116 32.9115
          32.9115 32.9114 32.9114 32.9114 32.9113 32.9113 32.9113 32.9112 32.9112 32.9111 32.9111 32.9111
          32.911 32.911 32.911 32.9109 32.9109 32.9108 32.9108 32.9108 32.9107 32.9107 32.9107 32.9106
        </DataArray>
        <DataArray type="Float32" Name="x^H2O_w" NumberOfComponents="1" format="ascii">
          0.999628 0.999628 0.999628 0.999628 0.999628 0.999628 0.999628 0.999628 0.999628 0.999628 0.999628 0.999628
          0.999628 0.999628 0.999628 0.999628 0.999628 0.999628 0.999628 0.999628 0.999628 0.999628 0.999628 0.999628
          0.999628 0.999628 0.999628 0.999628 0.999628 0.999628 0.999628 0.999628 0.999628 0.999628 0.999628 0.999628
          0.999628 0.999628 0.999628 0.999628 0.999628 0.999628 0.999628 0.999628 0.999628 0.999628 0.999628 0.999628
          0.999628 0.999628 0.999628 0.999628 0.999628 0.999628 0.999628 0.999628 0.999628 0.999628 0.999628 0.999628
          0.999628 0.999628 0.999628 0.999628 0.999628 0.999628 0.999628 0.999628 0.999628 0.999628 0.999628 0.999628
          0.999628 0.999628 0.999628 0.999628 0.999628 0.999628 0.999628 0.999628 0.999628 0.999628 0.999628 0.999628
          0.999628 0.999628 0.999628 0.999628 0.999628 0.999628 0.999628 0.999628 0.999628 0.999628 0.999628 0.999628
          0.999628 0.999628 0.999628 0.999628 0.999628 0.999628 0.999628 0.999628 0.999628 0.999628 0.999628 0.999628
          0.999628 0.999628 0.999628 0.999628 0.999628 0.999628 0.999628 0.999628 0.999628 0.999628 0.999628 0.999628
        </DataArray>
        <DataArray type="Float32" Name="x^mesitylene_w" NumberOfComponents="1" format="ascii">
          2.99801e-09 2.99026e-09 3.00772e-09 2.99701e-09 2.9986e-09 2.99802e-09 3.00203e-09 2.99329e-09 3.00294e-09 2.99343e-09 3.00009e-09 2.99871e-09
          2.99528e-09 3.00085e-09 2.99668e-09 2.99873e-09 3.0049e-09 2.99385e-09 2.99593e-09 2.9999e-09 2.99816e-09 2.99808e-09 2.9993e-09 2.99196e-09
          3.00053e-09 3.00123e-09 2.99681e-09 3.00143e-09 2.99588e-09 2.99834e-09 2.99874e-09 2.99288e-09 3.00241e-09 2.99674e-09 2.99957e-09 2.9965e-09
          3.00213e-09 2.9956e-09 2.99722e-09 2.99648e-09 3.00119e-09 2.99744e-09 2.99439e-09 3.00144e-09 2.99467e-09 3.00057e-09 2.99858e-09 2.99611e-09
          2.99944e-09 2.99758e-09 2.99072e-09 3.01044e-09 2.99358e-09 2.99685e-09 3.00043e-09 2.99574e-09 2.99896e-09 2.99723e-09 2.99729e-09 2.99679e-09
          2.99692e-09 3.00328e-09 2.98738e-09 3.00954e-09 2.99385e-09 2.99991e-09 2.99579e-09 2.99848e-09 2.99652e-09 2.99526e-09 2.9997e-09 2.99834e-09
          2.99854e-09 2.99609e-09 2.99886e-09 2.99961e-09 2.99604e-09 2.99781e-09 3.00018e-09 2.9936e-09 3.00166e-09 2.9954e-09 2.9993e-09 2.99585e-09
          2.9968e-09 2.99913e-09 2.99408e-09 3.00092e-09 2.997e-09 2.9997e-09 2.99583e-09 2.99759e-09 2.99819e-09 2.99703e-09 2.9981e-09 2.99737e-09
          2.99703e-09 2.99759e-09 2.99748e-09 2.99841e-09 2.99686e-09 2.99835e-09 2.99705e-09 2.99702e-09 2.99733e-09 3.00256e-09 2.99049e-09 2.99848e-09
          2.99954e-09 2.99621e-09 2.99768e-09 2.99788e-09 2.99774e-09 2.99622e-09 2.99838e-09 2.9974e-09 2.99679e-09 2.99819e-09 2.997e-09 2.99748e-09
        </DataArray>
        <DataArray type="Float32" Name="x^Air_w" NumberOfComponents="1" format="ascii">
          0.000372299 0.000372298 0.000372298 0.000372297 0.000372297 0.000372296 0.000372296 0.000372296 0.000372295 0.000372295 0.000372294 0.000372294
          0.000372294 0.000372293 0.000372293 0.000372292 0.000372292 0.000372291 0.000372291 0.000372291 0.00037229 0.00037229 0.000372289 0.000372289
          0.000372289 0.000372288 0.000372288 0.000372287 0.000372287 0.000372286 0.000372286 0.000372286 0.000372285 0.000372285 0.000372284 0.000372284
          0.000372284 0.000372283 0.000372283 0.000372282 0.000372282 0.000372281 0.000372281 0.000372281 0.00037228 0.00037228 0.000372279 0.000372279
          0.000372279 0.000372278 0.000372278 0.000372277 0.000372277 0.000372276 0.000372276 0.000372276 0.000372275 0.000372275 0.000372274 0.000372274
          0.000372273 0.000372273 0.000372273 0.000372272 0.000372272 0.000372271 0.000372271 0.000372271 0.00037227 0.00037227 0.000372269 0.000372269
          0.000372268 0.000372268 0.000372268 0.000372267 0.000372267 0.000372266 0.000372266 0.000372266 0.000372265 0.000372265 0.000372264 0.000372264
          0.000372263 0.000372263 0.000372263 0.000372262 0.000372262 0.000372261 0.000372261 0.000372261 0.00037226 0.00037226 0.000372259 0.000372259
          0.000372258 0.000372258 0.000372258 0.000372257 0.000372257 0.000372256 0.000372256 0.000372256 0.000372255 0.000372255 0.000372254 0.000372254
          0.000372253 0.000372253 0.000372253 0.000372252 0.000372252 0.000372251 0.000372251 0.000372251 0.00037225 0.00037225 0.000372249 0.000372248
        </DataArray>
        <DataArray type="Float32" Name="x^H2O_n" NumberOfComponents="1" format="ascii">
          1e-10 1e-10 1e-10 1e-10 1e-10 1e-10 1e-10 1e-10 1e-10 1e-10 1e-10 1e-10
          1e-10 1e-10 1e-10 1e-10 1e-10 1e-10 1e-10 1e-10 1e-10 1e-10 1e-10 1e-10
          1e-10 1e-10 1e-10 1e-10 1e-10 1e-10 1e-10 1e-10 1e-10 1e-10 1e-10 1e-10
          1e-10 1e-10 1e-10 1e-10 1e-10 1e-10 1e-10 1e-10 1e-10 1e-10 1e-10 1e-10
          1e-10 1e-10 1e-10 1e-10 1e-10 1e-10 1e-10 1e-10 1e-10 1e-10 1e-10 1e-10
          1e-10 1e-10 1e-10 1e-10 1e-10 1e-10 1e-10 1e-10 1e-10 1e-10 1e-10 1e-10
          1e-10 1e-10 1e-10 1e-10 1e-10 1e-10 1e-10 1e-10 1e-10 1e-10 1e-10 1e-10
          1e-10 1e-10 1e-10 1e-10 1e-10 1e-10 1e-10 1e-10 1e-10 1e-10 1e-10 1e-10
          1e-10 1e-10 1e-10 1e-10 1e-10 1e-10 1e-10 1e-10 1e-10 1e-10 1e-10 1e-10
          1e-10 1e-10 1e-10 1e-10 1e-10 1e-10 1e-10 1e-10 1e-10 1e-10 1e-10 1e-10
        </DataArray>
        <DataArray type="Float32" Name="x^mesitylene_n" NumberOfComponents="1" format="ascii">
          0.000237173 0.000236559 0.00023794 0.000237092 0.000237218 0.000237172 0.00023749 0.000236798 0.000237561 0.000236809 0.000237336 0.000237227
          0.000236956 0.000237396 0.000237066 0.000237229 0.000237717 0.000236842 0.000237007 0.000237322 0.000237183 0.000237177 0.000237274 0.000236693
          0.000237371 0.000237426 0.000237077 0.000237442 0.000237003 0.000237198 0.000237229 0.000236766 0.00023752 0.000237071 0.000237295 0.000237052
          0.000237498 0.000236981 0.00023711 0.000237051 0.000237423 0.000237127 0.000236886 0.000237444 0.000236908 0.000237375 0.000237217 0.000237022
          0.000237285 0.000237138 0.000236595 0.000238155 0.000236822 0.000237081 0.000237364 0.000236992 0.000237247 0.000237111 0.000237115 0.000237076
          0.000237086 0.000237589 0.000236332 0.000238084 0.000236843 0.000237322 0.000236997 0.000237209 0.000237055 0.000236955 0.000237306 0.000237198
          0.000237215 0.000237021 0.00023724 0.000237299 0.000237016 0.000237157 0.000237344 0.000236824 0.000237461 0.000236966 0.000237274 0.000237001
          0.000237076 0.000237261 0.000236861 0.000237403 0.000237092 0.000237306 0.000237 0.000237139 0.000237187 0.000237095 0.00023718 0.000237122
          0.000237095 0.000237139 0.000237131 0.000237204 0.000237082 0.000237199 0.000237097 0.000237094 0.000237119 0.000237533 0.000236578 0.00023721
          0.000237294 0.00023703 0.000237147 0.000237162 0.000237152 0.000237031 0.000237202 0.000237125 0.000237076 0.000237187 0.000237092 0.000237129
        </DataArray>
        <DataArray type="Float32" Name="x^Air_n" NumberOfComponents="1" format="ascii">
          1e-10 1e-10 1e-10 1e-10 1e-10 1e-10 1e-10 1e-10 1e-10 1e-10 1e-10 1e-10
          1e-10 1e-10 1e-10 1e-10 1e-10 1e-10 1e-10 1e-10 1e-10 1e-10 1e-10 1e-10
          1e-10 1e-10 1e-10 1e-10 1e-10 1e-10 1e-10 1e-10 1e-10 1e-10 1e-10 1e-10
          1e-10 1e-10 1e-10 1e-10 1e-10 1e-10 1e-10 1e-10 1e-10 1e-10 1e-10 1e-10
          1e-10 1e-10 1e-10 1e-10 1e-10 1e-10 1e-10 1e-10 1e-10 1e-10 1e-10 1e-10
          1e-10 1e-10 1e-10 1e-10 1e-10 1e-10 1e-10 1e-10 1e-10 1e-10 1e-10 1e-10
          1e-10 1e-10 1e-10 1e-10 1e-10 1e-10 1e-10 1e-10 1e-10 1e-10 1e-10 1e-10
          1e-10 1e-10 1e-10 1e-10 1e-10 1e-10 1e-10 1e-10 1e-10 1e-10 1e-10 1e-10
          1e-10 1e-10 1e-10 1e-10 1e-10 1e-10 1e-10 1e-10 1e-10 1e-10 1e-10 1e-10
          1e-10 1e-10 1e-10 1e-10 1e-10 1e-10 1e-10 1e-10 1e-10 1e-10 1e-10 1e-10
        </DataArray>
        <DataArray type="Float32" Name="x^H2O_g" NumberOfComponents="1" format="ascii">
          0.00140893 0.00140894 0.00140894 0.00140894 0.00140894 0.00140895 0.00140895 0.00140895 0.00140895 0.00140895 0.00140895 0.00140895
          0.00140896 0.00140896 0.00140896 0.00140896 0.00140896 0.00140896 0.00140897 0.00140897 0.00140897 0.00140897 0.00140897 0.00140897
          0.00140897 0.00140898 0.00140898 0.00140898 0.00140898 0.00140898 0.00140898 0.00140899 0.00140899 0.00140899 0.00140899 0.00140899
          0.00140899 0.00140899 0.001409 0.001409 0.001409 0.001409 0.001409 0.001409 0.00140901 0.00140901 0.00140901 0.00140901
          0.00140901 0.00140901 0.00140901 0.00140902 0.00140902 0.00140902 0.00140902 0.00140902 0.00140902 0.00140902 0.00140903 0.00140903
          0.00140903 0.00140903 0.00140903 0.00140903 0.00140904 0.00140904 0.00140904 0.00140904 0.00140904 0.00140904 0.00140904 0.00140905
          0.00140905 0.00140905 0.00140905 0.00140905 0.00140905 0.00140906 0.00140906 0.00140906 0.00140906 0.00140906 0.00140906 0.00140906
          0.00140907 0.00140907 0.00140907 0.00140907 0.00140907 0.00140907 0.00140908 0.00140908 0.00140908 0.00140908 0.00140908 0.00140908
          0.00140908 0.00140909 0.00140909 0.00140909 0.00140909 0.00140909 0.00140909 0.0014091 0.0014091 0.0014091 0.0014091 0.0014091
          0.0014091 0.0014091 0.00140911 0.00140911 0.00140911 0.00140911 0.00140911 0.00140911 0.00140911 0.00140912 0.00140912 0.00140913
        </DataArray>
        <DataArray type="Float32" Name="x^mesitylene_g" NumberOfComponents="1" format="ascii">
          3.47086e-08 3.46189e-08 3.48211e-08 3.46972e-08 3.47156e-08 3.47089e-08 3.47554e-08 3.46542e-08 3.4766e-08 3.4656e-08 3.47331e-08 3.47172e-08
          3.46775e-08 3.4742e-08 3.46938e-08 3.47175e-08 3.47891e-08 3.46611e-08 3.46853e-08 3.47313e-08 3.47111e-08 3.47102e-08 3.47244e-08 3.46395e-08
          3.47387e-08 3.47469e-08 3.46957e-08 3.47492e-08 3.46851e-08 3.47135e-08 3.47182e-08 3.46504e-08 3.47608e-08 3.46952e-08 3.4728e-08 3.46925e-08
          3.47577e-08 3.46822e-08 3.4701e-08 3.46925e-08 3.47469e-08 3.47036e-08 3.46684e-08 3.47501e-08 3.46717e-08 3.474e-08 3.4717e-08 3.46885e-08
          3.47271e-08 3.47055e-08 3.46262e-08 3.48545e-08 3.46594e-08 3.46973e-08 3.47388e-08 3.46844e-08 3.47218e-08 3.47019e-08 3.47026e-08 3.46968e-08
          3.46983e-08 3.47721e-08 3.4588e-08 3.48445e-08 3.46629e-08 3.47331e-08 3.46855e-08 3.47167e-08 3.46941e-08 3.46795e-08 3.47309e-08 3.47152e-08
          3.47176e-08 3.46893e-08 3.47214e-08 3.47301e-08 3.46888e-08 3.47093e-08 3.47368e-08 3.46607e-08 3.4754e-08 3.46816e-08 3.47267e-08 3.46868e-08
          3.46979e-08 3.47249e-08 3.46665e-08 3.47458e-08 3.47003e-08 3.47317e-08 3.4687e-08 3.47073e-08 3.47143e-08 3.47009e-08 3.47134e-08 3.4705e-08
          3.47011e-08 3.47075e-08 3.47063e-08 3.47171e-08 3.46992e-08 3.47165e-08 3.47015e-08 3.47012e-08 3.47048e-08 3.47654e-08 3.46257e-08 3.47182e-08
          3.47306e-08 3.4692e-08 3.47091e-08 3.47115e-08 3.47099e-08 3.46923e-08 3.47174e-08 3.47061e-08 3.4699e-08 3.47153e-08 3.47015e-08 3.47072e-08
        </DataArray>
        <DataArray type="Float32" Name="x^Air_g" NumberOfComponents="1" format="ascii">
          0.998591 0.998591 0.998591 0.998591 0.998591 0.998591 0.998591 0.998591 0.998591 0.998591 0.998591 0.998591
          0.998591 0.998591 0.998591 0.998591 0.998591 0.998591 0.998591 0.998591 0.998591 0.998591 0.998591 0.998591
          0.998591 0.998591 0.998591 0.998591 0.998591 0.998591 0.998591 0.998591 0.998591 0.998591 0.998591 0.998591
          0.998591 0.998591 0.998591 0.998591 0.998591 0.998591 0.998591 0.998591 0.998591 0.998591 0.998591 0.998591
          0.998591 0.998591 0.998591 0.998591 0.998591 0.998591 0.998591 0.998591 0.998591 0.998591 0.998591 0.998591
          0.998591 0.998591 0.998591 0.998591 0.998591 0.998591 0.998591 0.998591 0.998591 0.998591 0.998591 0.998591
          0.998591 0.998591 0.998591 0.998591 0.998591 0.998591 0.998591 0.998591 0.998591 0.998591 0.998591 0.998591
          0.998591 0.998591 0.998591 0.998591 0.998591 0.998591 0.998591 0.998591 0.998591 0.998591 0.998591 0.998591
          0.998591 0.998591 0.998591 0.998591 0.998591 0.998591 0.998591 0.998591 0.998591 0.998591 0.998591 0.998591
          0.998591 0.998591 0.998591 0.998591 0.998591 0.998591 0.998591 0.998591 0.998591 0.998591 0.998591 0.998591
        </DataArray>
        <DataArray type="Float32" Name="porosity" NumberOfComponents="1" format="ascii">
          0.42 0.42 0.42 0.42 0.42 0.42 0.42 0.42 0.42 0.42 0.42 0.42
          0.42 0.42 0.42 0.42 0.42 0.42 0.42 0.42 0.42 0.42 0.42 0.42
          0.42 0.42 0.42 0.42 0.42 0.42 0.42 0.42 0.42 0.42 0.42 0.42
          0.42 0.42 0.42 0.42 0.42 0.42 0.42 0.42 0.42 0.42 0.42 0.42
          0.42 0.42 0.42 0.42 0.42 0.42 0.42 0.42 0.42 0.42 0.42 0.42
          0.42 0.42 0.42 0.42 0.42 0.42 0.42 0.42 0.42 0.42 0.42 0.42
          0.42 0.42 0.42 0.42 0.42 0.42 0.42 0.42 0.42 0.42 0.42 0.42
          0.42 0.42 0.42 0.42 0.42 0.42 0.42 0.42 0.42 0.42 0.42 0.42
          0.42 0.42 0.42 0.42 0.42 0.42 0.42 0.42 0.42 0.42 0.42 0.42
          0.42 0.42 0.42 0.42 0.42 0.42 0.42 0.42 0.42 0.42 0.42 0.42
        </DataArray>
        <DataArray type="Float32" Name="temperature" NumberOfComponents="1" format="ascii">
          302.167 302.167 302.167 302.167 302.167 302.167 302.167 302.167 302.167 302.167 302.167 302.167
          302.167 302.167 302.167 302.167 302.167 302.167 302.167 302.167 302.167 302.167 302.167 302.167
          302.167 302.167 302.167 302.167 302.167 302.167 302.167 302.167 302.167 302.167 302.167 302.167
          302.167 302.167 302.167 302.167 302.167 302.167 302.167 302.167 302.167 302.167 302.167 302.167
          302.167 302.167 302.167 302.167 302.167 302.167 302.167 302.167 302.167 302.167 302.167 302.167
          302.167 302.167 302.167 302.167 302.167 302.167 302.167 302.167 302.167 302.167 302.167 302.167
          302.167 302.167 302.167 302.167 302.167 302.167 302.167 302.167 302.167 302.167 302.167 302.167
          302.167 302.167 302.167 302.167 302.167 302.167 302.167 302.167 302.167 302.167 302.167 302.167
          302.167 302.167 302.167 302.167 302.167 302.167 302.167 302.167 302.167 302.167 302.167 302.167
          302.167 302.167 302.167 302.167 302.167 302.167 302.167 302.167 302.167 302.167 302.167 302.167
        </DataArray>
        <DataArray type="Float32" Name="phase presence" NumberOfComponents="1" format="ascii">
          6 6 6 6 6 6 6 6 6 6 6 6
          6 6 6 6 6 6 6 6 6 6 6 6
          6 6 6 6 6 6 6 6 6 6 6 6
          6 6 6 6 6 6 6 6 6 6 6 6
          6 6 6 6 6 6 6 6 6 6 6 6
          6 6 6 6 6 6 6 6 6 6 6 6
          6 6 6 6 6 6 6 6 6 6 6 6
          6 6 6 6 6 6 6 6 6 6 6 6
          6 6 6 6 6 6 6 6 6 6 6 6
          6 6 6 6 6 6 6 6 6 6 6 6
        </DataArray>
        <DataArray type="Float32" Name="process rank" NumberOfComponents="1" format="ascii">
          0 0 0 0 0 0 0 0 0 0 0 0
          0 0 0 0 0 0 0 0 0 0 0 0
          0 0 0 0 0 0 0 0 0 0 0 0
          0 0 0 0 0 0 0 0 0 0 0 0
          0 0 0 0 0 0 0 0 0 0 0 0
          0 0 0 0 0 0 0 0 0 0 0 0
          0 0 0 0 0 0 0 0 0 0 0 0
          0 0 0 0 0 0 0 0 0 0 0 0
          0 0 0 0 0 0 0 0 0 0 0 0
          0 0 0 0 0 0 0 0 0 0 0 0
        </DataArray>
        <DataArray type="Float32" Name="permeability" NumberOfComponents="1" format="ascii">
          9.14e-10 9.14e-10 9.14e-10 9.14e-10 9.14e-10 9.14e-10 9.14e-10 9.14e-10 9.14e-10 9.14e-10 9.14e-10 9.14e-10
          9.14e-10 9.14e-10 9.14e-10 9.14e-10 9.14e-10 9.14e-10 9.14e-10 9.14e-10 9.14e-10 9.14e-10 9.14e-10 9.14e-10
          9.14e-10 9.14e-10 9.14e-10 9.14e-10 9.14e-10 9.14e-10 9.14e-10 9.14e-10 9.14e-10 9.14e-10 9.14e-10 9.14e-10
          9.14e-10 9.14e-10 9.14e-10 9.14e-10 9.14e-10 9.14e-10 9.14e-10 9.14e-10 9.14e-10 9.14e-10 9.14e-10 9.14e-10
          9.14e-10 9.14e-10 9.14e-10 9.14e-10 9.14e-10 9.14e-10 9.14e-10 9.14e-10 9.14e-10 9.14e-10 9.14e-10 9.14e-10
          9.14e-10 9.14e-10 9.14e-10 9.14e-10 9.14e-10 9.14e-10 9.14e-10 9.14e-10 9.14e-10 9.14e-10 9.14e-10 9.14e-10
          9.14e-10 9.14e-10 9.14e-10 9.14e-10 9.14e-10 9.14e-10 9.14e-10 9.14e-10 9.14e-10 9.14e-10 9.14e-10 9.14e-10
          9.14e-10 9.14e-10 9.14e-10 9.14e-10 9.14e-10 9.14e-10 9.14e-10 9.14e-10 9.14e-10 9.14e-10 9.14e-10 9.14e-10
          9.14e-10 9.14e-10 9.14e-10 9.14e-10 9.14e-10 9.14e-10 9.14e-10 9.14e-10 9.14e-10 9.14e-10 9.14e-10 9.14e-10
          9.14e-10 9.14e-10 9.14e-10 9.14e-10 9.14e-10 9.14e-10 9.14e-10 9.14e-10 9.14e-10 9.14e-10 9.14e-10 9.14e-10
        </DataArray>
      </CellData>
      <Points>
        <DataArray type="Float32" Name="Coordinates" NumberOfComponents="3" format="ascii">
          0 0 0 0.1 0 0 0 0.01 0 0.1 0.01 0
          0 0.02 0 0.1 0.02 0 0 0.03 0 0.1 0.03 0
          0 0.04 0 0.1 0.04 0 0 0.05 0 0.1 0.05 0
          0 0.06 0 0.1 0.06 0 0 0.07 0 0.1 0.07 0
          0 0.08 0 0.1 0.08 0 0 0.09 0 0.1 0.09 0
          0 0.1 0 0.1 0.1 0 0 0.11 0 0.1 0.11 0
          0 0.12 0 0.1 0.12 0 0 0.13 0 0.1 0.13 0
          0 0.14 0 0.1 0.14 0 0 0.15 0 0.1 0.15 0
          0 0.16 0 0.1 0.16 0 0 0.17 0 0.1 0.17 0
          0 0.18 0 0.1 0.18 0 0 0.19 0 0.1 0.19 0
          0 0.2 0 0.1 0.2 0 0 0.21 0 0.1 0.21 0
          0 0.22 0 0.1 0.22 0 0 0.23 0 0.1 0.23 0
          0 0.24 0 0.1 0.24 0 0 0.25 0 0.1 0.25 0
          0 0.26 0 0.1 0.26 0 0 0.27 0 0.1 0.27 0
          0 0.28 0 0.1 0.28 0 0 0.29 0 0.1 0.29 0
          0 0.3 0 0.1 0.3 0 0 0.31 0 0.1 0.31 0
          0 0.32 0 0.1 0.32 0 0 0.33 0 0.1 0.33 0
          0 0.34 0 0.1 0.34 0 0 0.35 0 0.1 0.35 0
          0 0.36 0 0.1 0.36 0 0 0.37 0 0.1 0.37 0
          0 0.38 0 0.1 0.38 0 0 0.39 0 0.1 0.39 0
          0 0.4 0 0.1 0.4 0 0 0.41 0 0.1 0.41 0
          0 0.42 0 0.1 0.42 0 0 0.43 0 0.1 0.43 0
          0 0.44 0 0.1 0.44 0 0 0.45 0 0.1 0.45 0
          0 0.46 0 0.1 0.46 0 0 0.47 0 0.1 0.47 0
          0 0.48 0 0.1 0.48 0 0 0.49 0 0.1 0.49 0
          0 0.5 0 0.1 0.5 0 0 0.51 0 0.1 0.51 0
          0 0.52 0 0.1 0.52 0 0 0.53 0 0.1 0.53 0
          0 0.54 0 0.1 0.54 0 0 0.55 0 0.1 0.55 0
          0 0.56 0 0.1 0.56 0 0 0.57 0 0.1 0.57 0
          0 0.58 0 0.1 0.58 0 0 0.59 0 0.1 0.59 0
          0 0.6 0 0.1 0.6 0 0 0.61 0 0.1 0.61 0
          0 0.62 0 0.1 0.62 0 0 0.63 0 0.1 0.63 0