<?xml version="1.0"?>
<VTKFile type="UnstructuredGrid" version="0.1" byte_order="LittleEndian">
  <UnstructuredGrid>
    <Piece NumberOfCells="120" NumberOfPoints="144">
      <PointData Scalars="Sw">
        <DataArray type="Float32" Name="Sw" NumberOfComponents="1" format="ascii">
          0.342652 0.335848 0.190229 0.187528 0.277858 0.177536 0.198571 0.131626 0.126888 0.120625 0.120051 0.120052
          0.120004 0.120004 0.12 0.12 0.12 0.12 0.12 0.12 0.12 0.12 0.12 0.12
          0.12 0.12 0.12 0.12 0.12 0.12 0.12 0.12 0.185042 0.178993 0.177913 0.134201
          0.120787 0.120064 0.120005 0.12 0.12 0.12 0.119999 0.119999 0.119999 0.119999 0.119999 0.12
          0.183519 0.173122 0.176079 0.145991 0.121163 0.120078 0.120006 0.12 0.12 0.119999 0.119999 0.119999
          0.119999 0.119999 0.119999 0.12 0.181573 0.199985 0.137633 0.120092 0.120003 0.120001 0.12 0.12
          0.12 0.12 0.12 0.12 0.12 0.12 0.12 0.12 0.176716 0.195352 0.140068 0.120023
          0.120001 0.12 0.12 0.12 0.12 0.120001 0.12 0.12 0.12 0.12 0.12 0.12
          0.168864 0.177221 0.136943 0.120213 0.120003 0.12 0.12 0.12 0.12 0.120001 0.120001 0.120001
          0.120001 0.120001 0.120001 0.12 0.160479 0.152179 0.184707 0.152886 0.121556 0.120109 0.120009 0.12
          0.12 0.119999 0.12 0.12 0.12 0.12 0.12 0.12 0.148386 0.154496 0.160039 0.135339
          0.121546 0.120142 0.120014 0.120001 0.12 0.12 0.12 0.12 0.12 0.12 0.12 0.12
        </DataArray>
        <DataArray type="Float32" Name="Sn" NumberOfComponents="1" format="ascii">
          0 0 0 0 0 0 0 0 0 0 0 0
          0 0 0 0 0 0 0 0 0 0 0 0
          0 0 0 0 0 0 0 0 0 0 0 0
          0 0 0 0 0 0 0 0 0 0 0 0
          0 0 0 0 0 0 0 0 0 0 0 0
          0 0 0 0 0 0 0 0 0 0 0 0
          0 0 0 0 0 0 0 0 0 0 0.0700843 0.069996
          0.0699762 0.0699745 0.0699715 0.0699671 0.0699516 0 0 0 0 0 0 0
          0 0 0.0701759 0.0700854 0.0700082 0.0700008 0.0700001 0.07 0.0699914 0 0 0
          0 0 0 0 0 0 0.0526985 0.0798494 0.0710726 0.0700738 0.0699819 0.0699729
          0.0699504 0 0 0 0 0 0 0 0 0 0 0
          9.69295e-05 5.29638e-05 4.43659e-06 2.85215e-07 5.99169e-10 0 0 0 0 0 0 0
        </DataArray>
        <DataArray type="Float32" Name="Sg" NumberOfComponents="1" format="ascii">
          0.657348 0.664152 0.809771 0.812472 0.722142 0.822464 0.801429 0.868374 0.873112 0.879375 0.879949 0.879948
          0.879996 0.879996 0.88 0.88 0.88 0.88 0.88 0.88 0.88 0.88 0.88 0.88
          0.88 0.88 0.88 0.88 0.88 0.88 0.88 0.88 0.814958 0.821007 0.822087 0.865799
          0.879213 0.879936 0.879995 0.88 0.88 0.88 0.88 0.880001 0.880001 0.880001 0.880001 0.88
          0.816481 0.826878 0.823921 0.854009 0.878837 0.879922 0.879994 0.88 0.88 0.880001 0.880001 0.880001
          0.880001 0.880001 0.880001 0.88 0.818427 0.800015 0.862367 0.879908 0.879997 0.879999 0.88 0.88
          0.88 0.88 0.88 0.88 0.88 0.88 0.88 0.88 0.823284 0.804648 0.789847 0.809981
          0.810023 0.810026 0.810029 0.810033 0.810049 0.879999 0.88 0.88 0.88 0.88 0.88 0.88
          0.831136 0.822779 0.792881 0.809702 0.809988 0.809999 0.81 0.81 0.810009 0.879999 0.879999 0.879999
          0.879999 0.879999 0.879999 0.88 0.839521 0.847821 0.762594 0.767265 0.807371 0.809817 0.810009 0.810027
          0.81005 0.880001 0.88 0.88 0.88 0.88 0.88 0.88 0.851614 0.845504 0.839961 0.864661
          0.878357 0.879805 0.879982 0.879998 0.88 0.88 0.88 0.88 0.88 0.88 0.88 0.88
        </DataArray>
        <DataArray type="Float32" Name="pw" NumberOfComponents="1" format="ascii">
          99801.3 99784.7 99641.6 99624.2 99735 99586.6 99630.6 99227.3 99073.2 98851.7 98827.6 98826.6
          98821.1 98820.1 98816.2 98815.1 98811.4 98810.3 98806.8 98805.6 98802.9 98801.2 98800.3 98798.2
          87652.7 87649.5 87640.9 87638.7 87631.6 87630.5 87622.4 87622.4 99630.3 99602.8 99587.8 99281.3
          98856.5 98826.1 98819.1 98814 98809 98804.1 98799 98792.9 98783.9 98776.1 98769 98762.2
          99629.9 99587.9 99582.5 99425.6 98868.7 98825.5 98818 98812.9 98807.8 98802.6 98797 98790.3
          98782.6 98773.8 98767.6 98762.2 99629.2 99663.4 92730.2 87727.5 87689.2 87682.5 87677 87671.7
          87666.3 87660.7 87654.6 87647.4 87637.5 98769 98766.2 98762.2 99617.8 99656.5 88824.5 83095.5
          83079.4 83072.5 83066.6 83061 83055.8 87657.9 87651.5 87644 87634 98767.3 98765.2 98762.2
          99590.2 99610 88360.5 83167.1 83078.5 83070.4 83063.9 83057.7 83051.8 87655.4 87649.2 87642.5
          87634.1 98767.1 98765.1 98762.2 99552 99495.6 99319.1 99084 98425 98362.2 98352 98345.3
          98338.9 98793.2 98787.3 98781.2 98775.4 98769.1 98765.2 98762.2 99478.7 99507.2 99522.4 99299.1
          98878.8 98822.9 98812 98805.1 98798.7 98792.4 98786.2 98780.2 98774.3 98768.8 98764.7 98762.2
        </DataArray>
        <DataArray type="Float32" Name="pn" NumberOfComponents="1" format="ascii">
          99801.3 99784.7 99641.6 99624.2 99735 99586.6 99630.6 99227.3 99073.2 98851.7 98827.6 98826.6
          98821.1 98820.1 98816.2 98815.1 98811.4 98810.3 98806.8 98805.6 98802.9 98801.2 98800.3 98798.2
          87652.7 87649.5 87640.9 87638.7 87631.6 87630.5 87622.4 87622.4 99630.3 99602.8 99587.8 99281.3
          98856.5 98826.1 98819.1 98814 98809 98804.1 98799 98792.9 98783.9 98776.1 98769 98762.2
          99629.9 99587.9 99582.5 99425.6 98868.7 98825.5 98818 98812.9 98807.8 98802.6 98797 98790.3
          98782.6 98773.8 98767.6 98762.2 99629.2 99663.4 92730.2 87727.5 87689.2 87682.5 87677 87671.7
          87666.3 87660.7 87654.6 87647.4 87637.5 98769 98766.2 98762.2 99617.8 99656.5 95865.8 95464.3
          95452.6 95445.6 95439.2 95432.8 95424.8 87657.9 87651.5 87644 87634 98767.3 98765.2 98762.2
          99590.2 99610 95812.9 95469.8 95454.9 95447.9 95441.5 95435.3 95427.9 87655.4 87649.2 87642.5
          87634.1 98767.1 98765.1 98762.2 99552 99495.6 99675.7 99680.4 99608 99596.1 99589.1 99582.5
          99575.8 98793.2 98787.3 98781.2 98775.4 98769.1 98765.2 98762.2 99478.7 99507.2 99522.4 99299.1
          98878.8 98822.9 98812 98805.1 98798.7 98792.4 98786.2 98780.2 98774.3 98768.8 98764.7 98762.2
        </DataArray>
        <DataArray type="Float32" Name="pg" NumberOfComponents="1" format="ascii">
          100104 100091 100102 100091 100080 100080 100074 100073 100068 100067 100064 100063
          100059 100058 100054 100053 100049 100048 100045 100043 100041 100039 100038 100036
          100030 100027 100018 100016 100009 100008 100000 100000 100103 100092 100080 100072
          100067 100062 100057 100052 100047 100042 100037 100031 100022 100014 100007 100000
          100107 100095 100080 100071 100066 100061 100056 100051 100046 100040 100035 100028
          100020 100012 100005 100000 100111 100104 100084 100073 100066 100060 100054 100049
          100044 100038 100032 100025 100015 100007 100004 100000 100113 100106 100088 100074
          100066 100059 100053 100047 100041 100035 100029 100021 100012 100005 100003 100000
          100112 100104 100086 100073 100065 100058 100052 100045 100039 100033 100027 100020
          100011 100005 100003 100000 100108 100096 100082 100071 100063 100057 100050 100044
          100038 100031 100025 100019 100013 100007 100003 100000 100105 100094 100080 100070
          100062 100056 100049 100043 100036 100030 100024 100018 100012 100007 100002 100000
        </DataArray>
        <DataArray type="Float32" Name="rhow" NumberOfComponents="1" format="ascii">
          974.29 977.601 974.267 976.634 989.143 987.947 996.674 996.707 998.086 998.088 998.217 998.217
          998.228 998.228 998.229 998.229 998.229 998.229 998.229 998.229 998.229 998.229 998.229 998.229
          998.224 998.224 998.224 998.224 998.224 998.224 998.224 998.224 974.275 976.878 986.935 996.374
          998.058 998.214 998.228 998.229 998.229 998.229 998.229 998.229 998.229 998.229 998.229 998.229
          974.303 978.113 985.935 995.925 998.026 998.213 998.229 998.231 998.231 998.231 998.231 998.23
          998.23 998.23 998.23 998.229 974.334 979.574 997.111 998.123 998.228 998.242 998.243 998.242
          998.24 998.237 998.234 998.232 998.23 998.231 998.232 998.229 974.344 980.12 997.323 998.221
          998.258 998.261 998.261 998.261 998.261 998.251 998.245 998.242 998.242 998.25 998.254 998.229
          974.316 979.265 997.155 998.133 998.242 998.259 998.261 998.261 998.261 998.259 998.255 998.254
          998.255 998.267 998.266 998.229 974.284 977.626 986.715 995.789 998.014 998.243 998.266 998.268
          998.268 998.268 998.268 998.267 998.267 998.268 998.267 998.229 974.263 976.391 984.933 995.356
          997.955 998.237 998.266 998.269 998.269 998.269 998.269 998.269 998.269 998.269 998.268 998.229
        </DataArray>
        <DataArray type="Float32" Name="rhon" NumberOfComponents="1" format="ascii">
          822.703 827.672 822.67 826.202 847.428 845.12 865.241 865.341 870.082 870.09 870.622 870.621
          870.669 870.669 870.673 870.673 870.673 870.673 870.673 870.673 870.673 870.673 870.673 870.673
          870.673 870.673 870.673 870.673 870.673 870.673 870.673 870.673 822.681 826.571 843.231 864.317
          869.964 870.61 870.668 870.673 870.673 870.673 870.673 870.673 870.674 870.674 870.673 870.673
          822.723 828.467 841.424 863.007 869.831 870.603 870.669 870.674 870.674 870.674 870.674 870.674
          870.674 870.674 870.673 870.673 822.768 830.746 866.557 870.18 870.608 870.667 870.673 870.673
          870.673 870.673 870.673 870.673 870.673 870.674 870.674 870.673 822.784 831.622 867.162 870.505
          870.661 870.672 870.673 870.673 870.673 870.672 870.673 870.673 870.673 870.672 870.67 870.673
          822.742 830.255 866.568 870.136 870.595 870.665 870.672 870.673 870.673 870.673 870.673 870.673
          870.672 870.671 870.669 870.673 822.696 827.71 842.302 862.426 869.61 870.568 870.664 870.673
          870.674 870.672 870.67 870.67 870.67 870.671 870.67 870.673 822.665 825.835 839.556 861.283
          869.39 870.542 870.664 870.675 870.676 870.677 870.676 870.676 870.676 870.676 870.674 870.673
        </DataArray>
        <DataArray type="Float32" Name="rhog" NumberOfComponents="1" format="ascii">
          0.849259 0.895169 0.848923 0.881902 1.0424 1.02739 1.14848 1.14905 1.17582 1.17587 1.1788 1.17878
          1.179 1.179 1.17897 1.17896 1.17891 1.17891 1.17886 1.17885 1.17881 1.1788 1.17878 1.17876
          1.17869 1.17866 1.17855 1.17853 1.17844 1.17843 1.17833 1.17833 0.849037 0.885301 1.01476 1.14326
          1.17518 1.17874 1.17901 1.17898 1.17893 1.17886 1.1788 1.17872 1.17861 1.17852 1.17843 1.17833
          0.849476 0.902021 1.00232 1.13589 1.17456 1.17887 1.1792 1.1792 1.17915 1.17908 1.17899 1.17887
          1.17877 1.17865 1.17856 1.17833 0.849956 0.921617 1.15881 1.1805 1.18306 1.18323 1.18301 1.18271
          1.18225 1.18162 1.18089 1.18031 1.17981 1.17867 1.1789 1.17833 0.850134 0.928723 1.17074 1.18691
          1.18758 1.18755 1.18749 1.18742 1.18735 1.18469 1.18334 1.18255 1.1823 1.18291 1.18397 1.17833
          0.849714 0.91767 1.16791 1.18508 1.18724 1.18751 1.18747 1.1874 1.18732 1.18628 1.18541 1.18504
          1.18528 1.18676 1.18665 1.17833 0.849224 0.895677 1.0658 1.14826 1.18239 1.18701 1.18741 1.18738
          1.18731 1.18721 1.18712 1.18703 1.18696 1.18688 1.18676 1.17833 0.8489 0.87874 0.998259 1.13724
          1.18129 1.18687 1.1874 1.18738 1.18731 1.18723 1.18716 1.18708 1.18701 1.18694 1.1868 1.17833
        </DataArray>
        <DataArray type="Float32" Name="x^H2O_w" NumberOfComponents="1" format="ascii">
          0.999994 0.999993 0.999994 0.999994 0.99999 0.999991 0.999987 0.999987 0.999985 0.999985 0.999985 0.999985
          0.999985 0.999985 0.999985 0.999985 0.999985 0.999985 0.999985 0.999985 0.999985 0.999985 0.999985 0.999985
          0.999985 0.999985 0.999985 0.999985 0.999985 0.999985 0.999985 0.999985 0.999994 0.999994 0.999991 0.999987
          0.999985 0.999985 0.999985 0.999985 0.999985 0.999985 0.999985 0.999985 0.999985 0.999985 0.999985 0.999985
          0.999994 0.999993 0.999991 0.999987 0.999985 0.999985 0.999985 0.999985 0.999985 0.999985 0.999985 0.999985
          0.999985 0.999985 0.999985 0.999985 0.999994 0.999993 0.999984 0.999982 0.999982 0.999982 0.999982 0.999982
          0.999983 0.999983 0.999983 0.999984 0.999984 0.999985 0.999985 0.999985 0.999994 0.999993 0.999977 0.999978
          0.999978 0.999978 0.999978 0.999978 0.999978 0.99998 0.999982 0.999982 0.999982 0.999982 0.999981 0.999985
          0.999994 0.999993 0.999977 0.999978 0.999978 0.999978 0.999978 0.999978 0.999978 0.999979 0.99998 0.99998
          0.99998 0.999978 0.999979 0.999985 0.999994 0.999993 0.99994 0.999974 0.999978 0.999978 0.999978 0.999978
          0.999978 0.999978 0.999978 0.999978 0.999978 0.999978 0.999978 0.999985 0.999994 0.999994 0.999983 0.999978
          0.999978 0.999978 0.999978 0.999978 0.999978 0.999978 0.999978 0.999978 0.999978 0.999978 0.999978 0.999985
        </DataArray>
        <DataArray type="Float32" Name="x^mesitylene_w" NumberOfComponents="1" format="ascii">
          2.07809e-12 1.21542e-10 1.75739e-11 1.1076e-09 7.65098e-10 3.81799e-09 1.40483e-09 5.97195e-09 1.86518e-09 6.87723e-09 2.05254e-09 7.32932e-09
          2.14195e-09 7.51328e-09 2.22154e-09 7.62961e-09 2.30103e-09 7.67448e-09 2.37895e-09 7.52064e-09 2.45437e-09 6.93512e-09 2.56438e-09 5.81131e-09
          4.39667e-09 7.48905e-09 6.12354e-09 9.20855e-09 6.34874e-09 8.99823e-09 3.02334e-09 3.02334e-09 6.98051e-11 6.63115e-09 1.69854e-08 2.54543e-08
          2.92606e-08 3.16787e-08 3.29264e-08 3.36889e-08 3.3764e-08 3.20619e-08 2.64812e-08 1.7931e-08 1.84031e-08 1.89035e-08 1.94628e-08 3.02334e-09
          1.52019e-10 2.14969e-08 5.70835e-08 1.08303e-07 1.45671e-07 1.72713e-07 1.94462e-07 2.12349e-07 2.22983e-07 2.19961e-07 1.9746e-07 1.6973e-07
          1.6218e-07 1.45498e-07 1.38459e-07 3.02334e-09 2.33337e-10 3.85235e-08 2.22239e-06 3.3029e-06 3.49711e-06 3.41655e-06 3.26409e-06 3.07355e-06
          2.74715e-06 2.2977e-06 1.76687e-06 1.36674e-06 1.05721e-06 2.06224e-07 4.23328e-07 3.02334e-09 3.9631e-10 5.50164e-08 9.1838e-06 6.9992e-06
          6.90945e-06 6.90325e-06 6.90256e-06 6.90238e-06 6.90226e-06 4.81342e-06 3.77677e-06 3.20804e-06 3.10278e-06 3.66663e-06 4.54601e-06 3.02334e-09
          6.14901e-10 1.37369e-07 9.62718e-06 7.21645e-06 6.94754e-06 6.90733e-06 6.90298e-06 6.90256e-06 6.90255e-06 6.11868e-06 5.47756e-06 5.23819e-06
          5.52077e-06 6.78972e-06 6.72132e-06 3.02334e-09 7.87426e-10 1.26286e-07 5.17324e-05 1.32574e-05 7.53541e-06 6.96294e-06 6.90781e-06 6.90267e-06
          6.9018e-06 6.89529e-06 6.88522e-06 6.87542e-06 6.86842e-06 6.86777e-06 6.80895e-06 3.02334e-09 8.51874e-10 1.58326e-07 8.22559e-06 9.54654e-06
          7.67234e-06 6.9779e-06 6.90781e-06 6.90107e-06 6.90051e-06 6.89973e-06 6.89852e-06 6.89676e-06 6.89431e-06 6.89068e-06 6.83012e-06 3.02334e-09
        </DataArray>
        <DataArray type="Float32" Name="x^Air_w" NumberOfComponents="1" format="ascii">
          5.66757e-06 6.5777e-06 5.66103e-06 6.31642e-06 9.59423e-06 9.24722e-06 1.30919e-05 1.31188e-05 1.45453e-05 1.4548e-05 1.47278e-05 1.4727e-05
          1.47431e-05 1.47429e-05 1.47437e-05 1.47435e-05 1.47431e-05 1.47429e-05 1.47424e-05 1.47422e-05 1.47418e-05 1.47415e-05 1.47414e-05 1.47411e-05
          1.47402e-05 1.47397e-05 1.47384e-05 1.47381e-05 1.4737e-05 1.47368e-05 1.47356e-05 1.47356e-05 5.6632e-06 6.38334e-06 8.96832e-06 1.28496e-05
          1.45057e-05 1.4723e-05 1.47423e-05 1.47432e-05 1.47426e-05 1.47419e-05 1.47412e-05 1.47403e-05 1.4739e-05 1.47379e-05 1.47367e-05 1.47356e-05
          5.67162e-06 6.7098e-06 8.70139e-06 1.25212e-05 1.44609e-05 1.472e-05 1.47416e-05 1.47425e-05 1.47418e-05 1.4741e-05 1.47402e-05 1.47393e-05
          1.47382e-05 1.47369e-05 1.47359e-05 1.47356e-05 5.68078e-06 7.09151e-06 1.34484e-05 1.45625e-05 1.47056e-05 1.47256e-05 1.47276e-05 1.47279e-05
          1.47287e-05 1.47301e-05 1.47318e-05 1.47327e-05 1.47328e-05 1.47362e-05 1.47345e-05 1.47356e-05 5.68409e-06 7.22832e-06 1.35901e-05 1.46545e-05
          1.4707e-05 1.47097e-05 1.47092e-05 1.47084e-05 1.47076e-05 1.47168e-05 1.47212e-05 1.4723e-05 1.47221e-05 1.47179e-05 1.47125e-05 1.47356e-05
          5.67585e-06 7.01242e-06 1.3418e-05 1.45284e-05 1.46839e-05 1.4707e-05 1.47087e-05 1.4708e-05 1.47071e-05 1.471e-05 1.47123e-05 1.47125e-05
          1.47097e-05 1.47017e-05 1.47013e-05 1.47356e-05 5.66645e-06 6.58405e-06 8.65572e-06 1.23246e-05 1.43519e-05 1.46734e-05 1.47056e-05 1.47077e-05
          1.47073e-05 1.47055e-05 1.47042e-05 1.47032e-05 1.47024e-05 1.47017e-05 1.47011e-05 1.47356e-05 5.6602e-06 6.25001e-06 8.40481e-06 1.20767e-05
          1.42792e-05 1.46643e-05 1.47054e-05 1.47085e-05 1.47079e-05 1.4707e-05 1.4706e-05 1.4705e-05 1.47041e-05 1.47032e-05 1.47022e-05 1.47356e-05
        </DataArray>
        <DataArray type="Float32" Name="x^H2O_n" NumberOfComponents="1" format="ascii">
          1e-10 1e-10 1e-10 1e-10 1e-10 1e-10 1e-10 1e-10 1e-10 1e-10 1e-10 1e-10
          1e-10 1e-10 1e-10 1e-10 1e-10 1e-10 1e-10 1e-10 1e-10 1e-10 1e-10 1e-10
          1e-10 1e-10 1e-10 1e-10 1e-10 1e-10 1e-10 1e-10 1e-10 1e-10 1e-10 1e-10
          1e-10 1e-10 1e-10 1e-10 1e-10 1e-10 1e-10 1e-10 1e-10 1e-10 1e-10 1e-10
          1e-10 1e-10 1e-10 1e-10 1e-10 1e-10 1e-10 1e-10 1e-10 1e-10 1e-10 1e-10
          1e-10 1e-10 1e-10 1e-10 1e-10 1e-10 1e-10 1e-10 1e-10 1e-10 1e-10 1e-10
          1e-10 1e-10 1e-10 1e-10 1e-10 1e-10 1e-10 1e-10 1e-10 1e-10 1e-10 1e-10
          1e-10 1e-10 1e-10 1e-10 1e-10 1e-10 1e-10 1e-10 1e-10 1e-10 1e-10 1e-10
          1e-10 1e-10 1e-10 1e-10 1e-10 1e-10 1e-10 1e-10 1e-10 1e-10 1e-10 1e-10
          1e-10 1e-10 1e-10 1e-10 1e-10 1e-10 1e-10 1e-10 1e-10 1e-10 1e-10 1e-10
          1e-10 1e-10 1e-10 1e-10 1e-10 1e-10 1e-10 1e-10 1e-10 1e-10 1e-10 1e-10
          1e-10 1e-10 1e-10 1e-10 1e-10 1e-10 1e-10 1e-10 1e-10 1e-10 1e-10 1e-10
        </DataArray>
        <DataArray type="Float32" Name="x^mesitylene_n" NumberOfComponents="1" format="ascii">
          1.365e-08 1.02955e-06 1.15245e-07 8.69118e-06 2.03547e-05 8.77818e-05 0.000131485 0.000563344 0.000257323 0.000949455 0.000296117 0.00105723
          0.00031021 0.0010881 0.00032184 0.00110532 0.000333363 0.00111185 0.000344653 0.00108956 0.000355578 0.00100473 0.000371514 0.000841916
          0.000636962 0.00108497 0.00088714 0.00133408 0.000919765 0.00130361 0.000438002 0.000438002 4.5801e-07 5.30383e-05 0.000347463 0.00221775
          0.00399788 0.00456544 0.00476823 0.00488061 0.00489163 0.00464505 0.00383653 0.00259783 0.00266627 0.00273876 0.00281977 0.000438002
          9.99518e-07 0.00018988 0.00104649 0.00853647 0.0196863 0.0248776 0.0281629 0.0307663 0.0323076 0.0318693 0.0286087 0.0245909
          0.0234971 0.0210802 0.0200599 0.000438002 1.53764e-06 0.000384319 0.230638 0.459376 0.503904 0.494735 0.472882 0.445298
          0.398009 0.332889 0.255979 0.198011 0.153169 0.0298803 0.0613341 0.000438002 2.61366e-06 0.000575545 1 1
          1 1 1 1 1 0.697315 0.54716 0.464776 0.449529 0.531175 0.658459 0.000438002
          4.04686e-06 0.00133464 1 1 1 1 1 1 1 0.886428 0.793558 0.758877
          0.799787 0.98346 0.973456 0.000438002 5.17024e-06 0.00107186 1 1 1 1 1 1
          1 0.998853 0.997286 0.995836 0.99483 0.994791 0.98619 0.000438002 5.58476e-06 0.00121904 0.134918 0.660968
          1 1 1 1 1 0.999897 0.999702 0.999429 0.999058 0.9985 0.989562 0.000438002
        </DataArray>
        <DataArray type="Float32" Name="x^Air_n" NumberOfComponents="1" format="ascii">
          1e-10 1e-10 1e-10 1e-10 1e-10 1e-10 1e-10 1e-10 1e-10 1e-10 1e-10 1e-10
          1e-10 1e-10 1e-10 1e-10 1e-10 1e-10 1e-10 1e-10 1e-10 1e-10 1e-10 1e-10
          1e-10 1e-10 1e-10 1e-10 1e-10 1e-10 1e-10 1e-10 1e-10 1e-10 1e-10 1e-10
          1e-10 1e-10 1e-10 1e-10 1e-10 1e-10 1e-10 1e-10 1e-10 1e-10 1e-10 1e-10
          1e-10 1e-10 1e-10 1e-10 1e-10 1e-10 1e-10 1e-10 1e-10 1e-10 1e-10 1e-10
          1e-10 1e-10 1e-10 1e-10 1e-10 1e-10 1e-10 1e-10 1e-10 1e-10 1e-10 1e-10
          1e-10 1e-10 1e-10 1e-10 1e-10 1e-10 1e-10 1e-10 1e-10 1e-10 1e-10 1e-10
          1e-10 1e-10 1e-10 1e-10 1e-10 1e-10 1e-10 1e-10 1e-10 1e-10 1e-10 1e-10
          1e-10 1e-10 1e-10 1e-10 1e-10 1e-10 1e-10 1e-10 1e-10 1e-10 1e-10 1e-10
          1e-10 1e-10 1e-10 1e-10 1e-10 1e-10 1e-10 1e-10 1e-10 1e-10 1e-10 1e-10
          1e-10 1e-10 1e-10 1e-10 1e-10 1e-10 1e-10 1e-10 1e-10 1e-10 1e-10 1e-10
          1e-10 1e-10 1e-10 1e-10 1e-10 1e-10 1e-10 1e-10 1e-10 1e-10 1e-10 1e-10
        </DataArray>
        <DataArray type="Float32" Name="x^H2O_g" NumberOfComponents="1" format="ascii">
          0.40181 0.316246 0.402436 0.340157 0.109373 0.125026 0.0345727 0.0343261 0.0242791 0.0242648 0.0233608 0.0233642
          0.0232828 0.0232834 0.0232774 0.0232777 0.023278 0.0232782 0.0232791 0.0232793 0.02328 0.0232804 0.0232808 0.0232811
          0.0232827 0.0232834 0.0232855 0.0232859 0.0232876 0.0232878 0.0232898 0.0232898 0.40223 0.333975 0.139255 0.0368403
          0.0244796 0.0233828 0.0232849 0.0232778 0.0232783 0.0232795 0.0232806 0.0232818 0.0232836 0.0232854 0.0232873 0.0232898
          0.40143 0.304496 0.154349 0.0403657 0.0247061 0.0233939 0.0232838 0.0232763 0.0232771 0.0232786 0.0232803 0.0232819
          0.0232837 0.0232857 0.0232877 0.0232898 0.400564 0.271355 0.0313368 0.0241111 0.0233855 0.0232855 0.023277 0.0232773
          0.0232785 0.0232801 0.0232817 0.0232833 0.0232853 0.0232856 0.0232872 0.0232898 0.400255 0.259978 0.0300736 0.0235576
          0.0232949 0.023278 0.0232774 0.0232782 0.0232792 0.0232822 0.0232828 0.0232841 0.0232862 0.0232895 0.0232933 0.0232898
          0.401045 0.278042 0.0313082 0.0241868 0.0234079 0.0232904 0.023279 0.0232792 0.0232806 0.0232823 0.0232835 0.0232851
          0.0232878 0.0232926 0.0232951 0.0232898 0.401939 0.31567 0.146716 0.0420657 0.0250832 0.0234552 0.0232936 0.0232798
          0.0232787 0.0232844 0.023288 0.0232901 0.0232913 0.0232916 0.0232942 0.0232898 0.402533 0.346292 0.1707 0.0454062
          0.0255126 0.0234995 0.0232939 0.0232754 0.0232752 0.0232764 0.0232783 0.02328 0.0232817 0.0232836 0.023288 0.0232898
        </DataArray>
        <DataArray type="Float32" Name="x^mesitylene_g" NumberOfComponents="1" format="ascii">
          6.86635e-10 4.01647e-08 5.8068e-09 3.66016e-07 2.52861e-07 1.26183e-06 4.64322e-07 1.97385e-06 6.16506e-07 2.27318e-06 6.78467e-07 2.42273e-06
          7.08054e-07 2.48366e-06 7.344e-07 2.52224e-06 7.60714e-07 2.53719e-06 7.86511e-07 2.48645e-06 8.11478e-07 2.29296e-06 8.47873e-07 1.92146e-06
          1.4538e-06 2.47641e-06 2.02505e-06 3.04532e-06 2.09972e-06 2.97602e-06 1e-06 1e-06 2.30649e-08 2.19131e-06 5.6136e-06 8.41321e-06
          9.67181e-06 1.04716e-05 1.08846e-05 1.11372e-05 1.11625e-05 1.06004e-05 8.7557e-06 5.92903e-06 6.08568e-06 6.25165e-06 6.43708e-06 1e-06
          5.02282e-08 7.10358e-06 1.88658e-05 3.57967e-05 4.81506e-05 5.70919e-05 6.42845e-05 7.02011e-05 7.37202e-05 7.2725e-05 6.5289e-05 5.6124e-05
          5.36316e-05 4.81193e-05 4.57944e-05 1e-06 7.7093e-08 1.27289e-05 0.000734464 0.00109167 0.00115595 0.00112938 0.00107904 0.00101611
          0.000908249 0.000759696 0.000584221 0.000451949 0.00034963 6.82061e-05 0.000140014 1e-06 1.30935e-07 1.8178e-05 0.00303497 0.00231333
          0.00228386 0.00228197 0.00228188 0.00228195 0.00228205 0.00159152 0.00124884 0.00106086 0.00102616 0.00121272 0.00150359 1e-06
          2.03158e-07 4.5389e-05 0.00318156 0.00238517 0.00229648 0.00228334 0.00228205 0.00228205 0.00228219 0.00202315 0.00181128 0.00173224
          0.00182584 0.00224566 0.00222308 1e-06 2.60168e-07 4.17301e-05 0.017097 0.00438193 0.00249084 0.00230176 0.00228368 0.00228212
          0.00228198 0.00227998 0.00227678 0.00227368 0.0022715 0.00227143 0.00225206 1e-06 2.81469e-07 5.23189e-05 0.00271851 0.00315542
          0.00253613 0.00230673 0.0022837 0.00228162 0.00228158 0.00228147 0.00228121 0.00228076 0.00228009 0.00227901 0.00225907 1e-06
        </DataArray>
        <DataArray type="Float32" Name="x^Air_g" NumberOfComponents="1" format="ascii">
          0.59819 0.683753 0.597564 0.659842 0.890627 0.874972 0.965427 0.965672 0.97572 0.975733 0.976639 0.976633
          0.976716 0.976714 0.976722 0.97672 0.976721 0.976719 0.97672 0.976718 0.976719 0.976717 0.976718 0.976717
          0.976716 0.976714 0.976713 0.976711 0.97671 0.976709 0.976709 0.976709 0.59777 0.666023 0.860739 0.963151
          0.975511 0.976607 0.976704 0.976711 0.97671 0.97671 0.976711 0.976712 0.97671 0.976708 0.976706 0.976709
          0.59857 0.695497 0.845632 0.959599 0.975246 0.976549 0.976652 0.976654 0.976649 0.976649 0.976654 0.976662
          0.976663 0.976666 0.976667 0.976709 0.599435 0.728632 0.967929 0.974797 0.975459 0.975585 0.975644 0.975707
          0.975813 0.97596 0.976134 0.976265 0.976365 0.976646 0.976573 0.976709 0.599745 0.740004 0.966891 0.974129
          0.974421 0.97444 0.974441 0.97444 0.974439 0.975126 0.975468 0.975655 0.975688 0.975498 0.975203 0.976709
          0.598954 0.721912 0.96551 0.973428 0.974296 0.974426 0.974439 0.974439 0.974437 0.974695 0.974905 0.974983
          0.974886 0.974462 0.974482 0.976709 0.598061 0.684288 0.836187 0.953552 0.972426 0.974243 0.974423 0.974438
          0.974439 0.974436 0.974435 0.974436 0.974437 0.974437 0.974454 0.976709 0.597467 0.653656 0.826582 0.951438
          0.971951 0.974194 0.974422 0.974443 0.974443 0.974442 0.974441 0.974439 0.974438 0.974437 0.974453 0.976709
        </DataArray>
        <DataArray type="Float32" Name="porosity" NumberOfComponents="1" format="ascii">
          0.42 0.42 0.42 0.42 0.42 0.42 0.42 0.42 0.42 0.42 0.42 0.42
          0.42 0.42 0.42 0.42 0.42 0.42 0.42 0.42 0.42 0.42 0.42 0.42
          0.42 0.42 0.42 0.42 0.42 0.42 0.42 0.42 0.42 0.42 0.42 0.42
          0.42 0.42 0.42 0.42 0.42 0.42 0.42 0.42 0.42 0.42 0.42 0.42
          0.42 0.42 0.42 0.42 0.42 0.42 0.42 0.42 0.42 0.42 0.42 0.42
          0.42 0.42 0.42 0.42 0.42 0.42 0.42 0.42 0.42 0.42 0.42 0.42
          0.42 0.42 0.42 0.42 0.42 0.42 0.42 0.42 0.42 0.42 0.42 0.42
          0.42 0.42 0.42 0.42 0.42 0.42 0.42 0.42 0.42 0.42 0.42 0.42
          0.42 0.42 0.42 0.42 0.42 0.42 0.42 0.42 0.42 0.42 0.42 0.42
          0.42 0.42 0.42 0.42 0.42 0.42 0.42 0.42 0.42 0.42 0.42 0.42
          0.42 0.42 0.42 0.42 0.42 0.42 0.42 0.42 0.42 0.42 0.42 0.42
          0.42 0.42 0.42 0.42 0.42 0.42 0.42 0.42 0.42 0.42 0.42 0.42
        </DataArray>
        <DataArray type="Float32" Name="temperature" NumberOfComponents="1" format="ascii">
          349.086 343.461 349.123 345.13 320.67 323.368 299.547 299.426 293.715 293.704 293.061 293.063
          293.005 293.005 293 293 293 293 293 293 293 293 293 293
          293 293 293 293 293 293 293 293 349.111 344.711 325.568 300.656
          293.857 293.076 293.006 293 293 293 293 292.999 292.999 292.999 292.999 293
          349.064 342.557 327.667 302.225 294.018 293.084 293.005 292.999 292.999 292.999 292.999 292.999
          292.999 292.999 292.999 293 349.013 339.959 297.966 293.596 293.079 293.007 293 292.999
          292.999 292.999 293 293 292.999 292.998 292.999 293 348.995 338.959 297.237 293.203
          293.014 293.001 293 293 292.999 293 293 293 292.999 293.001 293.003 293
          349.042 340.52 297.952 293.65 293.095 293.01 293.001 293 293 293 293 293
          293 293.003 293.004 293 349.094 343.418 326.649 302.92 294.285 293.127 293.011 293
          292.998 293.001 293.003 293.003 293.003 293.002 293.004 293 349.129 345.546 329.833 304.287
          294.551 293.158 293.011 292.997 292.996 292.995 292.996 292.996 292.996 292.997 292.999 293
        </DataArray>
        <DataArray type="Float32" Name="phase presence" NumberOfComponents="1" format="ascii">
          6 6 6 6 6 6 6 6 6 6 6 6
          6 6 6 6 6 6 6 6 6 6 6 6
          6 6 6 6 6 6 6 6 6 6 6 6
          6 6 6 6 6 6 6 6 6 6 6 6
          6 6 6 6 6 6 6 6 6 6 6 6
          6 6 6 6 6 6 6 6 6 6 6 6
          6 6 6 6 6 6 6 6 6 6 1 1
          1 1 1 1 1 6 6 6 6 6 6 6
          6 6 1 1 1 1 1 1 1 6 6 6
          6 6 6 6 6 6 1 1 1 1 1 1
          1 6 6 6 6 6 6 6 6 6 6 6
          1 1 1 1 1 6 6 6 6 6 6 6
        </DataArray>
        <DataArray type="Float32" Name="permeability" NumberOfComponents="1" format="ascii">
          9.14e-10 9.14e-10 9.14e-10 9.14e-10 9.14e-10 9.14e-10 9.14e-10 9.14e-10 9.14e-10 9.14e-10 9.14e-10 9.14e-10
          9.14e-10 9.14e-10 9.14e-10 9.14e-10 9.14e-10 9.14e-10 9.14e-10 9.14e-10 9.14e-10 9.14e-10 9.14e-10 9.14e-10
          6.28e-12 6.28e-12 6.28e-12 6.28e-12 6.28e-12 6.28e-12 6.28e-12 6.28e-12 9.14e-10 9.14e-10 9.14e-10 9.14e-10
          9.14e-10 9.14e-10 9.14e-10 9.14e-10 9.14e-10 9.14e-10 9.14e-10 9.14e-10 9.14e-10 9.14e-10 9.14e-10 9.14e-10
          9.14e-10 9.14e-10 9.14e-10 9.14e-10 9.14e-10 9.14e-10 9.14e-10 9.14e-10 9.14e-10 9.14e-10 9.14e-10 9.14e-10
          9.14e-10 9.14e-10 9.14e-10 9.14e-10 9.14e-10 9.14e-10 6.28e-12 6.28e-12 6.28e-12 6.28e-12 6.28e-12 6.28e-12
          6.28e-12 6.28e-12 6.28e-12 6.28e-12 6.28e-12 9.14e-10 9.14e-10 9.14e-10 9.14e-10 9.14e-10 6.28e-12 6.28e-12
          6.28e-12 6.28e-12 6.28e-12 6.28e-12 6.28e-12 6.28e-12 6.28e-12 6.28e-12 6.28e-12 9.14e-10 9.14e-10 9.14e-10
          9.14e-10 9.14e-10 6.28e-12 6.28e-12 6.28e-12 6.28e-12 6.28e-12 6.28e-12 6.28e-12 6.28e-12 6.28e-12 6.28e-12
          6.28e-12 9.14e-10 9.14e-10 9.14e-10 9.14e-10 9.14e-10 9.14e-10 9.14e-10 9.14e-10 9.14e-10 9.14e-10 9.14e-10
          9.14e-10 9.14e-10 9.14e-10 9.14e-10 9.14e-10 9.14e-10 9.14e-10 9.14e-10 9.14e-10 9.14e-10 9.14e-10 9.14e-10
          9.14e-10 9.14e-10 9.14e-10 9.14e-10 9.14e-10 9.14e-10 9.14e-10 9.14e-10 9.14e-10 9.14e-10 9.14e-10 9.14e-10
        </DataArray>
      </PointData>
      <CellData Scalars="process rank">
        <DataArray type="Float32" Name="process rank" NumberOfComponents="1" format="ascii">
          0 0 0 0 0 0 0 0 0 0 0 0