<?xml version="1.0"?>
<VTKFile type="UnstructuredGrid" version="0.1" byte_order="LittleEndian">
  <UnstructuredGrid>
    <Piece NumberOfCells="120" NumberOfPoints="144">
      <PointData Scalars="S_w">
        <DataArray type="Float32" Name="S_w" NumberOfComponents="1" format="ascii">
          0.342731 0.335966 0.190201 0.187499 0.278052 0.177556 0.198895 0.131652 0.126982 0.120626 0.120051 0.120052
          0.120004 0.120004 0.12 0.12 0.12 0.12 0.12 0.12 0.12 0.12 0.12 0.12
          0.12 0.12 0.12 0.12 0.12 0.12 0.12 0.12 0.185017 0.178971 0.17791 0.134204
          0.120788 0.120064 0.120005 0.12 0.12 0.12 0.119999 0.119999 0.119999 0.119999 0.119999 0.12
          0.183491 0.173113 0.176073 0.145981 0.121164 0.120078 0.120006 0.12 0.12 0.119999 0.119999 0.119999
          0.119999 0.119999 0.119999 0.12 0.181541 0.199998 0.137633 0.120092 0.120003 0.120001 0.12 0.12
          0.12 0.12 0.12 0.12 0.12 0.12 0.12 0.12 0.176676 0.195319 0.140049 0.120023
          0.120001 0.12 0.12 0.12 0.12 0.120001 0.12 0.12 0.12 0.12 0.12 0.12
          0.168829 0.177213 0.136917 0.120211 0.120003 0.12 0.12 0.12 0.12 0.120001 0.120001 0.120001
          0.120001 0.120001 0.120001 0.12 0.160454 0.152188 0.184675 0.152789 0.121548 0.120109 0.120009 0.12
          0.12 0.119999 0.12 0.12 0.12 0.12 0.12 0.12 0.148373 0.154518 0.160019 0.135266
          0.121538 0.120142 0.120014 0.120001 0.12 0.12 0.12 0.12 0.12 0.12 0.12 0.12
        </DataArray>
        <DataArray type="Float32" Name="S_n" NumberOfComponents="1" format="ascii">
          0 0 0 0 0 0 0 0 0 0 0 0
          0 0 0 0 0 0 0 0 0 0 0 0
          0 0 0 0 0 0 0 0 0 0 0 0
          0 0 0 0 0 0 0 0 0 0 0 0
          0 0 0 0 0 0 0 0 0 0 0 0
          0 0 0 0 0 0 0 0 0 0 0 0
          0 0 0 0 0 0 0 0 0 0 0.0700843 0.069996
          0.0699762 0.0699745 0.0699715 0.0699671 0.0699516 0 0 0 0 0 0 0
          0 0 0.0701756 0.0700845 0.0700082 0.0700008 0.0700001 0.07 0.0699914 0 0 0
          0 0 0 0 0 0 0.0527221 0.0798267 0.0710682 0.0700735 0.0699819 0.0699729
          0.0699505 0 0 0 0 0 0 0 0 0 0 0
          9.85531e-05 5.33018e-05 4.46501e-06 2.88161e-07 6.31619e-10 0 0 0 0 0 0 0
        </DataArray>
        <DataArray type="Float32" Name="S_g" NumberOfComponents="1" format="ascii">
          0.657269 0.664034 0.809799 0.812501 0.721948 0.822444 0.801105 0.868348 0.873018 0.879374 0.879949 0.879948
          0.879996 0.879996 0.88 0.88 0.88 0.88 0.88 0.88 0.88 0.88 0.88 0.88
          0.88 0.88 0.88 0.88 0.88 0.88 0.88 0.88 0.814983 0.821029 0.82209 0.865796
          0.879212 0.879936 0.879995 0.88 0.88 0.88 0.88 0.880001 0.880001 0.880001 0.880001 0.88
          0.816509 0.826887 0.823927 0.854019 0.878836 0.879922 0.879994 0.88 0.88 0.880001 0.880001 0.880001
          0.880001 0.880001 0.880001 0.88 0.818459 0.800002 0.862367 0.879908 0.879997 0.879999 0.88 0.88
          0.88 0.88 0.88 0.88 0.88 0.88 0.88 0.88 0.823324 0.804681 0.789867 0.809981
          0.810023 0.810026 0.810029 0.810033 0.810049 0.879999 0.88 0.88 0.88 0.88 0.88 0.88
          0.831171 0.822787 0.792907 0.809705 0.809988 0.809999 0.81 0.81 0.810009 0.879999 0.879999 0.879999
          0.879999 0.879999 0.879999 0.88 0.839546 0.847812 0.762603 0.767385 0.807383 0.809818 0.810009 0.810027
          0.81005 0.880001 0.88 0.88 0.88 0.88 0.88 0.88 0.851627 0.845482 0.839981 0.864734
          0.878363 0.879805 0.879982 0.879998 0.88 0.88 0.88 0.88 0.88 0.88 0.88 0.88
        </DataArray>
        <DataArray type="Float32" Name="p_w" NumberOfComponents="1" format="ascii">
          99801.4 99784.8 99641.6 99624.1 99735.2 99586.7 99631.2 99227.9 99076.5 98851.8 98827.7 98826.7
          98821.2 98820.1 98816.2 98815.1 98811.4 98810.3 98806.8 98805.6 98802.9 98801.2 98800.3 98798.2
          87652.7 87649.5 87640.9 87638.7 87631.6 87630.5 87622.4 87622.4 99630.2 99602.8 99587.8 99281.3
          98856.5 98826.1 98819.1 98814 98809 98804.1 98799 98792.9 98783.9 98776.1 98769 98762.2
          99629.8 99587.9 99582.5 99425.5 98868.8 98825.5 98818 98812.9 98807.8 98802.6 98797 98790.3
          98782.6 98773.8 98767.6 98762.2 99629.1 99663.4 92730.2 87727.5 87689.2 87682.5 87677 87671.7
          87666.3 87660.7 87654.6 87647.4 87637.5 98769 98766.2 98762.2 99617.6 99656.4 88821.9 83095.5
          83079.4 83072.5 83066.6 83061 83055.8 87657.8 87651.5 87644 87634 98767.3 98765.2 98762.2
          99590 99610 88356.1 83166.4 83078.5 83070.4 83063.9 83057.7 83051.8 87655.4 87649.2 87642.5
          87634.1 98767.1 98765.1 98762.2 99551.8 99495.6 99318.8 99083.3 98424.7 98362.2 98352 98345.2
          98338.9 98793.2 98787.3 98781.2 98775.4 98769.1 98765.2 98762.2 99478.6 99507.3 99522.3 99297.9
          98878.5 98822.8 98811.9 98805.1 98798.7 98792.4 98786.2 98780.2 98774.3 98768.8 98764.7 98762.2
        </DataArray>
        <DataArray type="Float32" Name="p_n" NumberOfComponents="1" format="ascii">
          99801.4 99784.8 99641.6 99624.1 99735.2 99586.7 99631.2 99227.9 99076.5 98851.8 98827.7 98826.7
          98821.2 98820.1 98816.2 98815.1 98811.4 98810.3 98806.8 98805.6 98802.9 98801.2 98800.3 98798.2
          87652.7 87649.5 87640.9 87638.7 87631.6 87630.5 87622.4 87622.4 99630.2 99602.8 99587.8 99281.3
          98856.5 98826.1 98819.1 98814 98809 98804.1 98799 98792.9 98783.9 98776.1 98769 98762.2
          99629.8 99587.9 99582.5 99425.5 98868.8 98825.5 98818 98812.9 98807.8 98802.6 98797 98790.3
          98782.6 98773.8 98767.6 98762.2 99629.1 99663.4 92730.2 87727.5 87689.2 87682.5 87677 87671.7
          87666.3 87660.7 87654.6 87647.4 87637.5 98769 98766.2 98762.2 99617.6 99656.4 95865.4 95464.3
          95452.6 95445.6 95439.2 95432.8 95424.8 87657.8 87651.5 87644 87634 98767.3 98765.2 98762.2
          99590 99610 95812.4 95469.8 95454.9 95447.9 95441.5 95435.3 95427.9 87655.4 87649.2 87642.5
          87634.1 98767.1 98765.1 98762.2 99551.8 99495.6 99675.6 99680.2 99607.9 99596.1 99589.1 99582.5
          99575.8 98793.2 98787.3 98781.2 98775.4 98769.1 98765.2 98762.2 99478.6 99507.3 99522.3 99297.9
          98878.5 98822.8 98811.9 98805.1 98798.7 98792.4 98786.2 98780.2 98774.3 98768.8 98764.7 98762.2
        </DataArray>
        <DataArray type="Float32" Name="p_g" NumberOfComponents="1" format="ascii">
          100104 100091 100102 100091 100080 100080 100074 100073 100068 100067 100064 100063
          100059 100058 100054 100053 100049 100048 100045 100043 100041 100039 100038 100036
          100030 100027 100018 100016 100009 100008 100000 100000 100103 100092 100080 100072
          100067 100062 100057 100052 100047 100042 100037 100031 100022 100014 100007 100000
          100107 100095 100080 100071 100066 100061 100056 100051 100046 100040 100035 100028
          100020 100012 100005 100000 100111 100104 100084 100073 100066 100060 100054 100049
          100044 100038 100032 100025 100015 100007 100004 100000 100113 100106 100088 100074
          100066 100059 100053 100047 100041 100035 100029 100021 100012 100005 100003 100000
          100112 100104 100086 100073 100065 100058 100052 100045 100039 100033 100027 100020
          100011 100005 100003 100000 100108 100096 100082 100071 100063 100057 100050 100044
          100037 100031 100025 100019 100013 100007 100003 100000 100105 100094 100080 100070
          100062 100056 100049 100043 100036 100030 100024 100018 100012 100007 100002 100000
        </DataArray>
        <DataArray type="Float32" Name="rho_w" NumberOfComponents="1" format="ascii">
          974.289 977.587 974.267 976.628 989.112 987.93 996.666 996.702 998.086 998.088 998.217 998.217
          998.228 998.228 998.229 998.229 998.229 998.229 998.229 998.229 998.229 998.229 998.229 998.229
          998.224 998.224 998.224 998.224 998.224 998.224 998.224 998.224 974.275 976.877 986.932 996.373
          998.058 998.214 998.228 998.229 998.229 998.229 998.229 998.229 998.229 998.229 998.229 998.229
          974.303 978.112 985.936 995.926 998.026 998.213 998.229 998.231 998.231 998.231 998.231 998.23
          998.23 998.23 998.23 998.229 974.334 979.574 997.111 998.123 998.228 998.242 998.243 998.242
          998.24 998.237 998.234 998.232 998.23 998.231 998.232 998.229 974.344 980.121 997.323 998.221
          998.258 998.261 998.261 998.261 998.261 998.251 998.245 998.242 998.242 998.25 998.254 998.229
          974.316 979.268 997.155 998.133 998.242 998.259 998.261 998.261 998.261 998.259 998.255 998.254
          998.255 998.267 998.266 998.229 974.285 977.63 986.728 995.796 998.015 998.243 998.266 998.268
          998.268 998.268 998.268 998.267 998.267 998.268 998.267 998.229 974.264 976.398 984.969 995.37
          997.957 998.237 998.266 998.269 998.269 998.269 998.269 998.269 998.269 998.269 998.268 998.229
        </DataArray>
        <DataArray type="Float32" Name="rho_n" NumberOfComponents="1" format="ascii">
          822.703 827.649 822.67 826.194 847.368 845.087 865.217 865.328 870.08 870.089 870.622 870.62
          870.669 870.669 870.673 870.673 870.673 870.673 870.673 870.673 870.673 870.673 870.673 870.673
          870.673 870.673 870.673 870.673 870.673 870.673 870.673 870.673 822.681 826.57 843.225 864.312
          869.964 870.61 870.668 870.673 870.673 870.673 870.673 870.673 870.674 870.674 870.673 870.673
          822.723 828.467 841.426 863.008 869.831 870.603 870.669 870.674 870.674 870.674 870.674 870.674
          870.674 870.674 870.673 870.673 822.768 830.746 866.557 870.18 870.608 870.667 870.673 870.673
          870.673 870.673 870.673 870.673 870.673 870.674 870.674 870.673 822.784 831.623 867.163 870.505
          870.661 870.672 870.673 870.673 870.673 870.672 870.673 870.673 870.673 870.672 870.67 870.673
          822.742 830.26 866.57 870.136 870.595 870.665 870.672 870.673 870.673 870.673 870.673 870.673
          870.672 870.671 870.669 870.673 822.696 827.716 842.325 862.444 869.613 870.568 870.664 870.673
          870.674 870.672 870.67 870.67 870.67 870.671 870.67 870.673 822.665 825.846 839.616 861.323
          869.395 870.543 870.664 870.675 870.676 870.677 870.676 870.676 870.676 870.676 870.674 870.673
        </DataArray>
        <DataArray type="Float32" Name="rho_g" NumberOfComponents="1" format="ascii">
          0.849255 0.894979 0.84892 0.881832 1.04201 1.02717 1.14835 1.14897 1.17581 1.17586 1.1788 1.17878
          1.179 1.179 1.17897 1.17896 1.17891 1.17891 1.17886 1.17885 1.17881 1.1788 1.17878 1.17876
          1.17869 1.17866 1.17855 1.17853 1.17844 1.17843 1.17833 1.17833 0.849036 0.885285 1.01473 1.14324
          1.17517 1.17874 1.17901 1.17898 1.17893 1.17886 1.1788 1.17871 1.17861 1.17852 1.17843 1.17833
          0.849476 0.902015 1.00233 1.1359 1.17456 1.17887 1.1792 1.17919 1.17915 1.17908 1.17899 1.17887
          1.17877 1.17865 1.17856 1.17833 0.849957 0.921616 1.15881 1.18049 1.18305 1.18322 1.18301 1.18271
          1.18224 1.18162 1.18089 1.18031 1.17981 1.17867 1.1789 1.17833 0.850134 0.928735 1.17075 1.18691
          1.18758 1.18755 1.18749 1.18742 1.18735 1.18469 1.18334 1.18255 1.1823 1.18291 1.18396 1.17833
          0.849714 0.917714 1.16792 1.18508 1.18724 1.18751 1.18747 1.1874 1.18732 1.18628 1.18541 1.18504
          1.18528 1.18676 1.18665 1.17833 0.849226 0.895727 1.06589 1.14835 1.18241 1.18701 1.18741 1.18738
          1.18731 1.18721 1.18712 1.18703 1.18696 1.18688 1.18676 1.17833 0.848902 0.878842 0.998729 1.1375
          1.18132 1.18687 1.1874 1.18738 1.18731 1.18723 1.18716 1.18708 1.18701 1.18694 1.1868 1.17833
        </DataArray>
        <DataArray type="Float32" Name="x^H2O_w" NumberOfComponents="1" format="ascii">
          0.999994 0.999993 0.999994 0.999994 0.99999 0.999991 0.999987 0.999987 0.999985 0.999985 0.999985 0.999985
          0.999985 0.999985 0.999985 0.999985 0.999985 0.999985 0.999985 0.999985 0.999985 0.999985 0.999985 0.999985
          0.999985 0.999985 0.999985 0.999985 0.999985 0.999985 0.999985 0.999985 0.999994 0.999994 0.999991 0.999987
          0.999985 0.999985 0.999985 0.999985 0.999985 0.999985 0.999985 0.999985 0.999985 0.999985 0.999985 0.999985
          0.999994 0.999993 0.999991 0.999987 0.999985 0.999985 0.999985 0.999985 0.999985 0.999985 0.999985 0.999985
          0.999985 0.999985 0.999985 0.999985 0.999994 0.999993 0.999984 0.999982 0.999982 0.999982 0.999982 0.999982
          0.999983 0.999983 0.999983 0.999984 0.999984 0.999985 0.999985 0.999985 0.999994 0.999993 0.999977 0.999978
          0.999978 0.999978 0.999978 0.999978 0.999978 0.99998 0.999982 0.999982 0.999982 0.999982 0.999981 0.999985
          0.999994 0.999993 0.999977 0.999978 0.999978 0.999978 0.999978 0.999978 0.999978 0.999979 0.99998 0.99998
          0.99998 0.999978 0.999979 0.999985 0.999994 0.999993 0.99994 0.999974 0.999978 0.999978 0.999978 0.999978
          0.999978 0.999978 0.999978 0.999978 0.999978 0.999978 0.999978 0.999985 0.999994 0.999994 0.999983 0.999978
          0.999978 0.999978 0.999978 0.999978 0.999978 0.999978 0.999978 0.999978 0.999978 0.999978 0.999978 0.999985
        </DataArray>
        <DataArray type="Float32" Name="x^mesitylene_w" NumberOfComponents="1" format="ascii">
          2.08448e-12 1.22675e-10 1.75938e-11 1.1111e-09 7.63694e-10 3.81439e-09 1.39276e-09 5.93258e-09 1.85415e-09 6.8391e-09 2.04346e-09 7.29939e-09
          2.13314e-09 7.48588e-09 2.21242e-09 7.60206e-09 2.29158e-09 7.64691e-09 2.36919e-09 7.49368e-09 2.44429e-09 6.91015e-09 2.55385e-09 5.79007e-09
          4.37969e-09 7.46323e-09 6.10234e-09 9.17925e-09 6.33041e-09 8.97294e-09 3.02334e-09 3.02334e-09 6.98242e-11 6.63323e-09 1.69605e-08 2.53094e-08
          2.91155e-08 3.15694e-08 3.28294e-08 3.35918e-08 3.36676e-08 3.19708e-08 2.64053e-08 1.7878e-08 1.83492e-08 1.88486e-08 1.94054e-08 3.02334e-09
          1.52008e-10 2.14878e-08 5.69019e-08 1.07934e-07 1.45177e-07 1.72157e-07 1.93892e-07 2.1179e-07 2.22441e-07 2.19458e-07 1.97024e-07 1.69365e-07
          1.61836e-07 1.45189e-07 1.38163e-07 3.02334e-09 2.33316e-10 3.85109e-08 2.2147e-06 3.29724e-06 3.49326e-06 3.41399e-06 3.26278e-06 3.07238e-06
          2.74615e-06 2.29688e-06 1.76625e-06 1.3663e-06 1.05685e-06 2.05896e-07 4.22397e-07 3.02334e-09 3.96245e-10 5.50049e-08 9.18313e-06 6.99916e-06
          6.90944e-06 6.90325e-06 6.90256e-06 6.90238e-06 6.90226e-06 4.81276e-06 3.77618e-06 3.20765e-06 3.1025e-06 3.66523e-06 4.54422e-06 3.02334e-09
          6.14714e-10 1.37318e-07 9.62532e-06 7.21601e-06 6.94744e-06 6.90732e-06 6.90298e-06 6.90256e-06 6.90255e-06 6.11837e-06 5.47723e-06 5.23791e-06
          5.52096e-06 6.78979e-06 6.72145e-06 3.02334e-09 7.87031e-10 1.26204e-07 5.16598e-05 1.32394e-05 7.53345e-06 6.96275e-06 6.90779e-06 6.90267e-06
          6.9018e-06 6.89529e-06 6.88521e-06 6.87541e-06 6.86842e-06 6.86781e-06 6.80909e-06 3.02334e-09 8.51315e-10 1.58222e-07 8.2412e-06 9.5667e-06
          7.66875e-06 6.9776e-06 6.90778e-06 6.90107e-06 6.90051e-06 6.89974e-06 6.89856e-06 6.89683e-06 6.89444e-06 6.89089e-06 6.83048e-06 3.02334e-09
        </DataArray>
        <DataArray type="Float32" Name="x^Air_w" NumberOfComponents="1" format="ascii">
          5.66748e-06 6.57401e-06 5.66097e-06 6.31502e-06 9.58505e-06 9.2423e-06 1.30856e-05 1.31153e-05 1.45445e-05 1.45475e-05 1.47278e-05 1.4727e-05
          1.47431e-05 1.47429e-05 1.47437e-05 1.47435e-05 1.47431e-05 1.47429e-05 1.47424e-05 1.47422e-05 1.47418e-05 1.47415e-05 1.47414e-05 1.47411e-05
          1.47402e-05 1.47397e-05 1.47384e-05 1.47381e-05 1.4737e-05 1.47368e-05 1.47356e-05 1.47356e-05 5.66319e-06 6.38302e-06 8.96753e-06 1.28485e-05
          1.45055e-05 1.4723e-05 1.47423e-05 1.47432e-05 1.47426e-05 1.47419e-05 1.47412e-05 1.47403e-05 1.4739e-05 1.47379e-05 1.47367e-05 1.47356e-05
          5.67162e-06 6.70967e-06 8.70169e-06 1.25215e-05 1.44608e-05 1.47199e-05 1.47416e-05 1.47425e-05 1.47418e-05 1.4741e-05 1.47402e-05 1.47393e-05
          1.47382e-05 1.47369e-05 1.47359e-05 1.47356e-05 5.68078e-06 7.09149e-06 1.34485e-05 1.45626e-05 1.47057e-05 1.47257e-05 1.47276e-05 1.47279e-05
          1.47287e-05 1.47301e-05 1.47318e-05 1.47327e-05 1.47328e-05 1.47362e-05 1.47345e-05 1.47356e-05 5.68409e-06 7.22857e-06 1.35903e-05 1.46545e-05
          1.4707e-05 1.47097e-05 1.47092e-05 1.47084e-05 1.47076e-05 1.47168e-05 1.47212e-05 1.4723e-05 1.47221e-05 1.47179e-05 1.47125e-05 1.47356e-05
          5.67587e-06 7.01329e-06 1.34187e-05 1.45286e-05 1.46839e-05 1.47071e-05 1.47087e-05 1.4708e-05 1.47071e-05 1.471e-05 1.47123e-05 1.47125e-05
          1.47097e-05 1.47017e-05 1.47013e-05 1.47356e-05 5.66648e-06 6.58502e-06 8.65944e-06 1.2329e-05 1.4353e-05 1.46735e-05 1.47056e-05 1.47077e-05
          1.47073e-05 1.47055e-05 1.47042e-05 1.47032e-05 1.47024e-05 1.47017e-05 1.47011e-05 1.47356e-05 5.66025e-06 6.25202e-06 8.41407e-06 1.20857e-05
          1.42811e-05 1.46645e-05 1.47055e-05 1.47085e-05 1.47079e-05 1.4707e-05 1.4706e-05 1.4705e-05 1.47041e-05 1.47032e-05 1.47022e-05 1.47356e-05
        </DataArray>
        <DataArray type="Float32" Name="x^H2O_n" NumberOfComponents="1" format="ascii">
          1e-10 1e-10 1e-10 1e-10 1e-10 1e-10 1e-10 1e-10 1e-10 1e-10 1e-10 1e-10
          1e-10 1e-10 1e-10 1e-10 1e-10 1e-10 1e-10 1e-10 1e-10 1e-10 1e-10 1e-10
          1e-10 1e-10 1e-10 1e-10 1e-10 1e-10 1e-10 1e-10 1e-10 1e-10 1e-10 1e-10
          1e-10 1e-10 1e-10 1e-10 1e-10 1e-10 1e-10 1e-10 1e-10 1e-10 1e-10 1e-10
          1e-10 1e-10 1e-10 1e-10 1e-10 1e-10 1e-10 1e-10 1e-10 1e-10 1e-10 1e-10
          1e-10 1e-10 1e-10 1e-10 1e-10 1e-10 1e-10 1e-10 1e-10 1e-10 1e-10 1e-10
          1e-10 1e-10 1e-10 1e-10 1e-10 1e-10 1e-10 1e-10 1e-10 1e-10 1e-10 1e-10
          1e-10 1e-10 1e-10 1e-10 1e-10 1e-10 1e-10 1e-10 1e-10 1e-10 1e-10 1e-10
          1e-10 1e-10 1e-10 1e-10 1e-10 1e-10 1e-10 1e-10 1e-10 1e-10 1e-10 1e-10
          1e-10 1e-10 1e-10 1e-10 1e-10 1e-10 1e-10 1e-10 1e-10 1e-10 1e-10 1e-10
          1e-10 1e-10 1e-10 1e-10 1e-10 1e-10 1e-10 1e-10 1e-10 1e-10 1e-10 1e-10
          1e-10 1e-10 1e-10 1e-10 1e-10 1e-10 1e-10 1e-10 1e-10 1e-10 1e-10 1e-10
        </DataArray>
        <DataArray type="Float32" Name="x^mesitylene_n" NumberOfComponents="1" format="ascii">
          1.36916e-08 1.03792e-06 1.15374e-07 8.7152e-06 2.02398e-05 8.75223e-05 0.000130118 0.00055907 0.00025575 0.00094409 0.000294804 0.0010529
          0.000308934 0.00108413 0.000320518 0.00110133 0.000331995 0.00110785 0.000343238 0.00108565 0.000354118 0.00100111 0.000369987 0.000838839
          0.000634502 0.00108123 0.000884069 0.00132984 0.00091711 0.00129995 0.000438002 0.000438002 4.58134e-07 5.30501e-05 0.000346836 0.00220441
          0.00397782 0.00454966 0.00475417 0.00486654 0.00487768 0.00463185 0.00382554 0.00259015 0.00265846 0.00273081 0.00281144 0.000438002
          9.99447e-07 0.000189791 0.00104329 0.00850814 0.0196186 0.0247974 0.0280803 0.0306853 0.0322291 0.0317963 0.0285456 0.024538
          0.0234473 0.0210354 0.020017 0.000438002 1.5375e-06 0.000384191 0.229842 0.458591 0.503348 0.494364 0.472692 0.445128
          0.397864 0.332771 0.25589 0.197947 0.153116 0.0298327 0.0611991 0.000438002 2.61325e-06 0.000575474 1 1
          1 1 1 1 1 0.697219 0.547074 0.464719 0.449489 0.530971 0.6582 0.000438002
          4.04565e-06 0.00133451 1 1 1 1 1 1 1 0.886383 0.79351 0.758837
          0.799815 0.98347 0.973475 0.000438002 5.1677e-06 0.0010715 1 1 1 1 1 1
          1 0.998852 0.997285 0.995835 0.99483 0.994797 0.986211 0.000438002 5.58117e-06 0.00121893 0.13566 0.664355
          1 1 1 1 1 0.999899 0.999707 0.999439 0.999077 0.998531 0.989614 0.000438002
        </DataArray>
        <DataArray type="Float32" Name="x^Air_n" NumberOfComponents="1" format="ascii">
          1e-10 1e-10 1e-10 1e-10 1e-10 1e-10 1e-10 1e-10 1e-10 1e-10 1e-10 1e-10
          1e-10 1e-10 1e-10 1e-10 1e-10 1e-10 1e-10 1e-10 1e-10 1e-10 1e-10 1e-10
          1e-10 1e-10 1e-10 1e-10 1e-10 1e-10 1e-10 1e-10 1e-10 1e-10 1e-10 1e-10
          1e-10 1e-10 1e-10 1e-10 1e-10 1e-10 1e-10 1e-10 1e-10 1e-10 1e-10 1e-10
          1e-10 1e-10 1e-10 1e-10 1e-10 1e-10 1e-10 1e-10 1e-10 1e-10 1e-10 1e-10
          1e-10 1e-10 1e-10 1e-10 1e-10 1e-10 1e-10 1e-10 1e-10 1e-10 1e-10 1e-10
          1e-10 1e-10 1e-10 1e-10 1e-10 1e-10 1e-10 1e-10 1e-10 1e-10 1e-10 1e-10
          1e-10 1e-10 1e-10 1e-10 1e-10 1e-10 1e-10 1e-10 1e-10 1e-10 1e-10 1e-10
          1e-10 1e-10 1e-10 1e-10 1e-10 1e-10 1e-10 1e-10 1e-10 1e-10 1e-10 1e-10
          1e-10 1e-10 1e-10 1e-10 1e-10 1e-10 1e-10 1e-10 1e-10 1e-10 1e-10 1e-10
          1e-10 1e-10 1e-10 1e-10 1e-10 1e-10 1e-10 1e-10 1e-10 1e-10 1e-10 1e-10
          1e-10 1e-10 1e-10 1e-10 1e-10 1e-10 1e-10 1e-10 1e-10 1e-10 1e-10 1e-10
        </DataArray>
        <DataArray type="Float32" Name="x^H2O_g" NumberOfComponents="1" format="ascii">
          0.401819 0.316577 0.402441 0.340287 0.109762 0.12527 0.0346303 0.0343576 0.0242832 0.0242671 0.023361 0.0233644
          0.0232828 0.0232834 0.0232774 0.0232777 0.023278 0.0232782 0.023279 0.0232793 0.02328 0.0232804 0.0232808 0.0232811
          0.0232827 0.0232834 0.0232855 0.0232859 0.0232876 0.0232878 0.0232898 0.0232898 0.402231 0.334004 0.139297 0.0368506
          0.0244808 0.0233829 0.0232849 0.0232778 0.0232783 0.0232795 0.0232806 0.0232818 0.0232836 0.0232854 0.0232873 0.0232898
          0.40143 0.304508 0.154331 0.0403623 0.0247071 0.0233941 0.0232838 0.0232763 0.0232771 0.0232786 0.0232803 0.0232819
          0.0232837 0.0232857 0.0232877 0.0232898 0.400564 0.271356 0.0313365 0.024111 0.0233855 0.0232855 0.023277 0.0232773
          0.0232785 0.0232801 0.0232817 0.0232833 0.0232853 0.0232856 0.0232872 0.0232898 0.400254 0.259958 0.0300717 0.0235575
          0.0232948 0.023278 0.0232774 0.0232782 0.0232792 0.0232822 0.0232828 0.0232841 0.0232862 0.0232895 0.0232933 0.0232898
          0.401043 0.277967 0.0313022 0.0241855 0.0234076 0.0232904 0.023279 0.0232792 0.0232806 0.0232823 0.0232835 0.0232851
          0.0232878 0.0232926 0.0232951 0.0232898 0.401935 0.315583 0.146514 0.0420131 0.0250778 0.0234546 0.0232936 0.0232798
          0.0232788 0.0232844 0.023288 0.0232901 0.0232913 0.0232916 0.0232942 0.0232898 0.402528 0.346105 0.170091 0.0452885
          0.0255009 0.0234986 0.0232938 0.0232754 0.0232752 0.0232764 0.0232783 0.02328 0.0232817 0.0232836 0.023288 0.0232898
        </DataArray>
        <DataArray type="Float32" Name="x^mesitylene_g" NumberOfComponents="1" format="ascii">
          6.88747e-10 4.05391e-08 5.81339e-09 3.67174e-07 2.52397e-07 1.26064e-06 4.60331e-07 1.96084e-06 6.1286e-07 2.26058e-06 6.75466e-07 2.41284e-06
          7.05144e-07 2.4746e-06 7.31385e-07 2.51313e-06 7.57591e-07 2.52808e-06 7.83283e-07 2.47753e-06 8.08145e-07 2.28471e-06 8.44388e-07 1.91443e-06
          1.44819e-06 2.46787e-06 2.01804e-06 3.03563e-06 2.09365e-06 2.96765e-06 1e-06 1e-06 2.30713e-08 2.192e-06 5.60537e-06 8.36531e-06
          9.62384e-06 1.04355e-05 1.08525e-05 1.11051e-05 1.11307e-05 1.05702e-05 8.7306e-06 5.91151e-06 6.06786e-06 6.2335e-06 6.41808e-06 1e-06
          5.02247e-08 7.10057e-06 1.88058e-05 3.56748e-05 4.79873e-05 5.69081e-05 6.40961e-05 7.00163e-05 7.35412e-05 7.25584e-05 6.51451e-05 5.60033e-05
          5.3518e-05 4.8017e-05 4.56964e-05 1e-06 7.70858e-08 1.27247e-05 0.000731922 0.0010898 0.00115467 0.00112854 0.00107861 0.00101572
          0.000907918 0.000759427 0.000584018 0.000451805 0.00034951 6.80976e-05 0.000139706 1e-06 1.30914e-07 1.81742e-05 0.00303474 0.00231332
          0.00228386 0.00228197 0.00228188 0.00228195 0.00228205 0.00159131 0.00124865 0.00106073 0.00102607 0.00121225 0.001503 1e-06
          2.03096e-07 4.53721e-05 0.00318094 0.00238502 0.00229645 0.00228334 0.00228205 0.00228205 0.00228219 0.00202305 0.00181117 0.00173215
          0.0018259 0.00224568 0.00222312 1e-06 2.60038e-07 4.17032e-05 0.0170729 0.00437599 0.00249019 0.00230169 0.00228367 0.00228212
          0.00228198 0.00227998 0.00227678 0.00227368 0.0022715 0.00227144 0.00225211 1e-06 2.81285e-07 5.22843e-05 0.00272367 0.00316208
          0.00253494 0.00230663 0.00228369 0.00228162 0.00228158 0.00228147 0.00228122 0.00228079 0.00228013 0.00227908 0.00225919 1e-06
        </DataArray>
        <DataArray type="Float32" Name="x^Air_g" NumberOfComponents="1" format="ascii">
          0.598181 0.683423 0.597559 0.659713 0.890238 0.874729 0.965369 0.96564 0.975716 0.975731 0.976638 0.976633
          0.976716 0.976714 0.976722 0.97672 0.976721 0.976719 0.97672 0.976718 0.976719 0.976717 0.976718 0.976717
          0.976716 0.976714 0.976713 0.976711 0.97671 0.976709 0.976709 0.976709 0.597769 0.665994 0.860698 0.963141
          0.97551 0.976607 0.976704 0.976711 0.976711 0.97671 0.976711 0.976712 0.97671 0.976708 0.976706 0.976709
          0.59857 0.695485 0.84565 0.959602 0.975245 0.976549 0.976652 0.976654 0.976649 0.976649 0.976655 0.976662
          0.976663 0.976666 0.976667 0.976709 0.599436 0.728631 0.967932 0.974799 0.97546 0.975586 0.975644 0.975707
          0.975814 0.97596 0.976134 0.976265 0.976365 0.976646 0.976573 0.976709 0.599746 0.740024 0.966894 0.974129
          0.974421 0.97444 0.974441 0.97444 0.974439 0.975126 0.975469 0.975655 0.975688 0.975498 0.975204 0.976709
          0.598956 0.721987 0.965517 0.973429 0.974296 0.974426 0.974439 0.974439 0.974437 0.974695 0.974905 0.974983
          0.974886 0.974462 0.974482 0.976709 0.598064 0.684375 0.836413 0.953611 0.972432 0.974244 0.974423 0.974438
          0.974439 0.974436 0.974435 0.974436 0.974437 0.974437 0.974454 0.976709 0.597472 0.653843 0.827185 0.951549
          0.971964 0.974195 0.974423 0.974443 0.974443 0.974442 0.974441 0.974439 0.974438 0.974437 0.974453 0.976709
        </DataArray>
        <DataArray type="Float32" Name="porosity" NumberOfComponents="1" format="ascii">
          0.42 0.42 0.42 0.42 0.42 0.42 0.42 0.42 0.42 0.42 0.42 0.42
          0.42 0.42 0.42 0.42 0.42 0.42 0.42 0.42 0.42 0.42 0.42 0.42
          0.42 0.42 0.42 0.42 0.42 0.42 0.42 0.42 0.42 0.42 0.42 0.42
          0.42 0.42 0.42 0.42 0.42 0.42 0.42 0.42 0.42 0.42 0.42 0.42
          0.42 0.42 0.42 0.42 0.42 0.42 0.42 0.42 0.42 0.42 0.42 0.42
          0.42 0.42 0.42 0.42 0.42 0.42 0.42 0.42 0.42 0.42 0.42 0.42
          0.42 0.42 0.42 0.42 0.42 0.42 0.42 0.42 0.42 0.42 0.42 0.42
          0.42 0.42 0.42 0.42 0.42 0.42 0.42 0.42 0.42 0.42 0.42 0.42
          0.42 0.42 0.42 0.42 0.42 0.42 0.42 0.42 0.42 0.42 0.42 0.42
          0.42 0.42 0.42 0.42 0.42 0.42 0.42 0.42 0.42 0.42 0.42 0.42
          0.42 0.42 0.42 0.42 0.42 0.42 0.42 0.42 0.42 0.42 0.42 0.42
          0.42 0.42 0.42 0.42 0.42 0.42 0.42 0.42 0.42 0.42 0.42 0.42
        </DataArray>
        <DataArray type="Float32" Name="phase presence" NumberOfComponents="1" format="ascii">
          6 6 6 6 6 6 6 6 6 6 6 6
          6 6 6 6 6 6 6 6 6 6 6 6
          6 6 6 6 6 6 6 6 6 6 6 6
          6 6 6 6 6 6 6 6 6 6 6 6
          6 6 6 6 6 6 6 6 6 6 6 6
          6 6 6 6 6 6 6 6 6 6 6 6
          6 6 6 6 6 6 6 6 6 6 1 1
          1 1 1 1 1 6 6 6 6 6 6 6
          6 6 1 1 1 1 1 1 1 6 6 6
          6 6 6 6 6 6 1 1 1 1 1 1
          1 6 6 6 6 6 6 6 6 6 6 6
          1 1 1 1 1 6 6 6 6 6 6 6
        </DataArray>
        <DataArray type="Float32" Name="permeability" NumberOfComponents="1" format="ascii">
          9.14e-10 9.14e-10 9.14e-10 9.14e-10 9.14e-10 9.14e-10 9.14e-10 9.14e-10 9.14e-10 9.14e-10 9.14e-10 9.14e-10
          9.14e-10 9.14e-10 9.14e-10 9.14e-10 9.14e-10 9.14e-10 9.14e-10 9.14e-10 9.14e-10 9.14e-10 9.14e-10 9.14e-10
          6.28e-12 6.28e-12 6.28e-12 6.28e-12 6.28e-12 6.28e-12 6.28e-12 6.28e-12 9.14e-10 9.14e-10 9.14e-10 9.14e-10
          9.14e-10 9.14e-10 9.14e-10 9.14e-10 9.14e-10 9.14e-10 9.14e-10 9.14e-10 9.14e-10 9.14e-10 9.14e-10 9.14e-10
          9.14e-10 9.14e-10 9.14e-10 9.14e-10 9.14e-10 9.14e-10 9.14e-10 9.14e-10 9.14e-10 9.14e-10 9.14e-10 9.14e-10
          9.14e-10 9.14e-10 9.14e-10 9.14e-10 9.14e-10 9.14e-10 6.28e-12 6.28e-12 6.28e-12 6.28e-12 6.28e-12 6.28e-12
          6.28e-12 6.28e-12 6.28e-12 6.28e-12 6.28e-12 9.14e-10 9.14e-10 9.14e-10 9.14e-10 9.14e-10 6.28e-12 6.28e-12
          6.28e-12 6.28e-12 6.28e-12 6.28e-12 6.28e-12 6.28e-12 6.28e-12 6.28e-12 6.28e-12 9.14e-10 9.14e-10 9.14e-10
          9.14e-10 9.14e-10 6.28e-12 6.28e-12 6.28e-12 6.28e-12 6.28e-12 6.28e-12 6.28e-12 6.28e-12 6.28e-12 6.28e-12
          6.28e-12 9.14e-10 9.14e-10 9.14e-10 9.14e-10 9.14e-10 9.14e-10 9.14e-10 9.14e-10 9.14e-10 9.14e-10 9.14e-10
          9.14e-10 9.14e-10 9.14e-10 9.14e-10 9.14e-10 9.14e-10 9.14e-10 9.14e-10 9.14e-10 9.14e-10 9.14e-10 9.14e-10
          9.14e-10 9.14e-10 9.14e-10 9.14e-10 9.14e-10 9.14e-10 9.14e-10 9.14e-10 9.14e-10 9.14e-10 9.14e-10 9.14e-10
        </DataArray>
        <DataArray type="Float32" Name="T" NumberOfComponents="1" format="ascii">
          349.086 343.487 349.123 345.138 320.74 323.405 299.575 299.442 293.717 293.706 293.061 293.063
          293.005 293.005 293 293 293 293 293 293 293 293 293 293
          293 293 293 293 293 293 293 293 349.111 344.713 325.575 300.661
          293.858 293.076 293.006 293 293 293 293 292.999 292.999 292.999 292.999 293
          349.064 342.558 327.665 302.224 294.018 293.084 293.005 292.999 292.999 292.999 292.999 292.999
          292.999 292.999 292.999 293 349.013 339.959 297.966 293.596 293.079 293.007 293 292.999
          292.999 292.999 293 293 292.999 292.998 292.999 293 348.995 338.957 297.236 293.203
          293.014 293.001 293 293 292.999 293 293 293 292.999 293.001 293.003 293
          349.042 340.514 297.949 293.649 293.094 293.01 293.001 293 293 293 293 293
          293 293.003 293.004 293 349.094 343.412 326.622 302.899 294.281 293.127 293.011 293
          292.998 293.001 293.003 293.003 293.003 293.002 293.004 293 349.129 345.534 329.762 304.238
          294.544 293.158 293.011 292.997 292.996 292.995 292.996 292.996 292.996 292.997 292.999 293
        </DataArray>
      </PointData>
      <CellData Scalars="process rank">
        <DataArray type="Float32" Name="process rank" NumberOfComponents="1" format="ascii">