<?xml version="1.0"?>
<VTKFile type="UnstructuredGrid" version="0.1" byte_order="LittleEndian">
  <UnstructuredGrid>
    <Piece NumberOfCells="120" NumberOfPoints="242">
      <PointData Scalars="Sw">
        <DataArray type="Float32" Name="Sw" NumberOfComponents="1" format="ascii">
          0.215196 0.144636 0.192071 0.129171 0.168704 0.121608 0.147117 0.120208 0.145171 0.12015 0.145004 0.120144
          0.144983 0.120143 0.144982 0.120143 0.144984 0.120144 0.144985 0.120146 0.144985 0.120147 0.144985 0.120149
          0.144985 0.12015 0.144985 0.120151 0.144985 0.120151 0.144985 0.120152 0.144985 0.120152 0.144985 0.120152
          0.144985 0.120153 0.144985 0.120153 0.144985 0.120153 0.144985 0.120153 0.144985 0.120153 0.144985 0.120153
          0.144985 0.120153 0.144985 0.120153 0.144985 0.120153 0.144985 0.120153 0.144985 0.120153 0.144985 0.120153
          0.144985 0.120153 0.144985 0.120153 0.144985 0.120153 0.144985 0.120153 0.144985 0.120153 0.144985 0.120153
          0.144985 0.120153 0.144985 0.120153 0.144985 0.120153 0.144985 0.120153 0.144985 0.120153 0.144985 0.120153
          0.144985 0.120153 0.144985 0.120153 0.144985 0.120153 0.144985 0.120153 0.144985 0.120153 0.144985 0.120153
          0.144985 0.120153 0.144985 0.120153 0.144985 0.120153 0.144985 0.120153 0.144985 0.120153 0.144985 0.120153
          0.144985 0.120153 0.144985 0.120153 0.144985 0.120153 0.144985 0.120153 0.144985 0.120153 0.144985 0.120153
          0.144985 0.120153 0.144985 0.120153 0.144985 0.120153 0.144985 0.120153 0.144985 0.120153 0.144985 0.120153
          0.144985 0.120153 0.144985 0.120153 0.144985 0.120153 0.144985 0.120153 0.144985 0.120153 0.144985 0.120153
          0.144985 0.120153 0.144985 0.120153 0.144985 0.120153 0.144985 0.120153 0.144985 0.120153 0.144985 0.120153
          0.144985 0.120153 0.144985 0.120153 0.144985 0.120153 0.144985 0.120153 0.144985 0.120153 0.144985 0.120153
          0.144985 0.120153 0.144985 0.120153 0.144985 0.120153 0.144985 0.120153 0.144985 0.120153 0.144985 0.120153
          0.144985 0.120153 0.144985 0.120153 0.144985 0.120153 0.144985 0.120153 0.144985 0.120153 0.144985 0.120153
          0.144985 0.120154 0.144985 0.120154 0.144985 0.120154 0.144985 0.120154 0.144985 0.120154 0.144985 0.120154
          0.144985 0.120155 0.144985 0.120155 0.144985 0.120156 0.144985 0.120157 0.144985 0.120158 0.144985 0.12016
          0.144985 0.120161 0.144985 0.120164 0.144985 0.120167 0.144987 0.120172 0.144995 0.120178 0.145045 0.120186
          0.145356 0.120203 0.147111 0.120255 0.153704 0.120473 0.165958 0.121291 0.176906 0.123278 0.178883 0.12657
          0.169907 0.133463
        </DataArray>
        <DataArray type="Float32" Name="Sn" NumberOfComponents="1" format="ascii">
          0 0 0 0 0 0 0 0 0 0 0 0
          0 0 0 0 0 0 0 0 0 0 0 0
          0 0 0 0 0 0 0 0 0 0 0 0
          0 0 0 0 0 0 0 0 0 0 0 0
          0 0 0 0 0 0 0 0 0 0 0 0
          0 0 0 0 0 0 0 0 0 0 0 0
          0 0 0 0 0 0 0 0 0 0 0 0
          0 0 0 0 0 0 0 0 0 0 0 0
          0 0 0 0 0 0 0 0 0 0 0 0
          0 0 0 0 0 0 0 0 0 0 0 0
          0 0 0 0 0 0 0 0 0 0 0 0
          0 0 0 0 0 0 0 0 0 0 0 0
          0 0 0 0 0 0 0 0 0 0 0 0
          0 0 0 0 0 0 0 0 0 0 0 0
          0 0 0 0 0 0 0 0 0 0 0 0
          0 0 0 0 0 0 0 0 0 0 0 0
          0 0 0 0 0 0 0 0 0 0 0 0
          0 0 0 0 0 0 0 0 0 0 0 0
          0 0 0 0 0 0 0 0 0 0 0 0
          0 0 0 0 0 0 0 0 0 0 0 0
          0 0
        </DataArray>
        <DataArray type="Float32" Name="Sg" NumberOfComponents="1" format="ascii">
          0.784804 0.855364 0.807929 0.870829 0.831296 0.878392 0.852883 0.879792 0.854829 0.87985 0.854996 0.879856
          0.855017 0.879857 0.855018 0.879857 0.855016 0.879856 0.855015 0.879854 0.855015 0.879853 0.855015 0.879851
          0.855015 0.87985 0.855015 0.879849 0.855015 0.879849 0.855015 0.879848 0.855015 0.879848 0.855015 0.879848
          0.855015 0.879847 0.855015 0.879847 0.855015 0.879847 0.855015 0.879847 0.855015 0.879847 0.855015 0.879847
          0.855015 0.879847 0.855015 0.879847 0.855015 0.879847 0.855015 0.879847 0.855015 0.879847 0.855015 0.879847
          0.855015 0.879847 0.855015 0.879847 0.855015 0.879847 0.855015 0.879847 0.855015 0.879847 0.855015 0.879847
          0.855015 0.879847 0.855015 0.879847 0.855015 0.879847 0.855015 0.879847 0.855015 0.879847 0.855015 0.879847
          0.855015 0.879847 0.855015 0.879847 0.855015 0.879847 0.855015 0.879847 0.855015 0.879847 0.855015 0.879847
          0.855015 0.879847 0.855015 0.879847 0.855015 0.879847 0.855015 0.879847 0.855015 0.879847 0.855015 0.879847
          0.855015 0.879847 0.855015 0.879847 0.855015 0.879847 0.855015 0.879847 0.855015 0.879847 0.855015 0.879847
          0.855015 0.879847 0.855015 0.879847 0.855015 0.879847 0.855015 0.879847 0.855015 0.879847 0.855015 0.879847
          0.855015 0.879847 0.855015 0.879847 0.855015 0.879847 0.855015 0.879847 0.855015 0.879847 0.855015 0.879847
          0.855015 0.879847 0.855015 0.879847 0.855015 0.879847 0.855015 0.879847 0.855015 0.879847 0.855015 0.879847
          0.855015 0.879847 0.855015 0.879847 0.855015 0.879847 0.855015 0.879847 0.855015 0.879847 0.855015 0.879847
          0.855015 0.879847 0.855015 0.879847 0.855015 0.879847 0.855015 0.879847 0.855015 0.879847 0.855015 0.879847
          0.855015 0.879847 0.855015 0.879847 0.855015 0.879847 0.855015 0.879847 0.855015 0.879847 0.855015 0.879847
          0.855015 0.879847 0.855015 0.879846 0.855015 0.879846 0.855015 0.879846 0.855015 0.879846 0.855015 0.879846
          0.855015 0.879845 0.855015 0.879845 0.855015 0.879844 0.855015 0.879843 0.855015 0.879842 0.855015 0.87984
          0.855015 0.879839 0.855015 0.879836 0.855015 0.879833 0.855013 0.879828 0.855005 0.879822 0.854955 0.879814
          0.854644 0.879797 0.852889 0.879745 0.846296 0.879527 0.834042 0.878709 0.823094 0.876722 0.821117 0.87343
          0.830093 0.866537
        </DataArray>
        <DataArray type="Float32" Name="pw" NumberOfComponents="1" format="ascii">
          3.09195e+06 3.0917e+06 3.09191e+06 3.09143e+06 3.09183e+06 3.09115e+06 3.09171e+06 3.0911e+06 3.09169e+06 3.09109e+06 3.09169e+06 3.09109e+06
          3.09168e+06 3.09108e+06 3.09168e+06 3.09108e+06 3.09168e+06 3.09108e+06 3.09167e+06 3.09107e+06 3.09167e+06 3.09107e+06 3.09167e+06 3.09107e+06
          3.09166e+06 3.09106e+06 3.09166e+06 3.09106e+06 3.09166e+06 3.09106e+06 3.09165e+06 3.09105e+06 3.09165e+06 3.09105e+06 3.09164e+06 3.09105e+06
          3.09164e+06 3.09104e+06 3.09164e+06 3.09104e+06 3.09163e+06 3.09104e+06 3.09163e+06 3.09103e+06 3.09163e+06 3.09103e+06 3.09162e+06 3.09103e+06
          3.09162e+06 3.09102e+06 3.09162e+06 3.09102e+06 3.09161e+06 3.09101e+06 3.09161e+06 3.09101e+06 3.09161e+06 3.09101e+06 3.0916e+06 3.091e+06
          3.0916e+06 3.091e+06 3.0916e+06 3.091e+06 3.09159e+06 3.09099e+06 3.09159e+06 3.09099e+06 3.09158e+06 3.09099e+06 3.09158e+06 3.09098e+06
          3.09158e+06 3.09098e+06 3.09157e+06 3.09098e+06 3.09157e+06 3.09097e+06 3.09157e+06 3.09097e+06 3.09156e+06 3.09097e+06 3.09156e+06 3.09096e+06
          3.09156e+06 3.09096e+06 3.09155e+06 3.09096e+06 3.09155e+06 3.09095e+06 3.09155e+06 3.09095e+06 3.09154e+06 3.09094e+06 3.09154e+06 3.09094e+06
          3.09154e+06 3.09094e+06 3.09153e+06 3.09093e+06 3.09153e+06 3.09093e+06 3.09153e+06 3.09093e+06 3.09152e+06 3.09092e+06 3.09152e+06 3.09092e+06
          3.09151e+06 3.09092e+06 3.09151e+06 3.09091e+06 3.09151e+06 3.09091e+06 3.0915e+06 3.09091e+06 3.0915e+06 3.0909e+06 3.0915e+06 3.0909e+06
          3.09149e+06 3.0909e+06 3.09149e+06 3.09089e+06 3.09149e+06 3.09089e+06 3.09148e+06 3.09088e+06 3.09148e+06 3.09088e+06 3.09148e+06 3.09088e+06
          3.09147e+06 3.09087e+06 3.09147e+06 3.09087e+06 3.09147e+06 3.09087e+06 3.09146e+06 3.09086e+06 3.09146e+06 3.09086e+06 3.09146e+06 3.09086e+06
          3.09145e+06 3.09085e+06 3.09145e+06 3.09085e+06 3.09144e+06 3.09085e+06 3.09144e+06 3.09084e+06 3.09144e+06 3.09084e+06 3.09143e+06 3.09084e+06
          3.09143e+06 3.09083e+06 3.09143e+06 3.09083e+06 3.09142e+06 3.09083e+06 3.09142e+06 3.09082e+06 3.09142e+06 3.09082e+06 3.09141e+06 3.09082e+06
          3.09141e+06 3.09081e+06 3.09141e+06 3.09081e+06 3.0914e+06 3.0908e+06 3.0914e+06 3.0908e+06 3.0914e+06 3.0908e+06 3.09139e+06 3.09079e+06
          3.09139e+06 3.09079e+06 3.09138e+06 3.09079e+06 3.09138e+06 3.09078e+06 3.09138e+06 3.09078e+06 3.09137e+06 3.09078e+06 3.09137e+06 3.09077e+06
          3.09137e+06 3.09077e+06 3.09136e+06 3.09077e+06 3.09136e+06 3.09076e+06 3.09136e+06 3.09076e+06 3.09135e+06 3.09076e+06 3.09135e+06 3.09075e+06
          3.09135e+06 3.09075e+06 3.09134e+06 3.09074e+06 3.09134e+06 3.09074e+06 3.09134e+06 3.09074e+06 3.09133e+06 3.09073e+06 3.09133e+06 3.09073e+06
          3.09133e+06 3.09073e+06 3.09132e+06 3.09072e+06 3.09132e+06 3.09072e+06 3.09132e+06 3.09072e+06 3.09131e+06 3.09071e+06 3.09131e+06 3.09071e+06
          3.09131e+06 3.09071e+06 3.09132e+06 3.09071e+06 3.09136e+06 3.09071e+06 3.09142e+06 3.09074e+06 3.09146e+06 3.0908e+06 3.09146e+06 3.09092e+06
          3.09143e+06 3.09113e+06
        </DataArray>
        <DataArray type="Float32" Name="pn" NumberOfComponents="1" format="ascii">
          3.09195e+06 3.0917e+06 3.09191e+06 3.09143e+06 3.09183e+06 3.09115e+06 3.09171e+06 3.0911e+06 3.09169e+06 3.09109e+06 3.09169e+06 3.09109e+06
          3.09168e+06 3.09108e+06 3.09168e+06 3.09108e+06 3.09168e+06 3.09108e+06 3.09167e+06 3.09107e+06 3.09167e+06 3.09107e+06 3.09167e+06 3.09107e+06
          3.09166e+06 3.09106e+06 3.09166e+06 3.09106e+06 3.09166e+06 3.09106e+06 3.09165e+06 3.09105e+06 3.09165e+06 3.09105e+06 3.09164e+06 3.09105e+06
          3.09164e+06 3.09104e+06 3.09164e+06 3.09104e+06 3.09163e+06 3.09104e+06 3.09163e+06 3.09103e+06 3.09163e+06 3.09103e+06 3.09162e+06 3.09103e+06
          3.09162e+06 3.09102e+06 3.09162e+06 3.09102e+06 3.09161e+06 3.09101e+06 3.09161e+06 3.09101e+06 3.09161e+06 3.09101e+06 3.0916e+06 3.091e+06
          3.0916e+06 3.091e+06 3.0916e+06 3.091e+06 3.09159e+06 3.09099e+06 3.09159e+06 3.09099e+06 3.09158e+06 3.09099e+06 3.09158e+06 3.09098e+06
          3.09158e+06 3.09098e+06 3.09157e+06 3.09098e+06 3.09157e+06 3.09097e+06 3.09157e+06 3.09097e+06 3.09156e+06 3.09097e+06 3.09156e+06 3.09096e+06
          3.09156e+06 3.09096e+06 3.09155e+06 3.09096e+06 3.09155e+06 3.09095e+06 3.09155e+06 3.09095e+06 3.09154e+06 3.09094e+06 3.09154e+06 3.09094e+06
          3.09154e+06 3.09094e+06 3.09153e+06 3.09093e+06 3.09153e+06 3.09093e+06 3.09153e+06 3.09093e+06 3.09152e+06 3.09092e+06 3.09152e+06 3.09092e+06
          3.09151e+06 3.09092e+06 3.09151e+06 3.09091e+06 3.09151e+06 3.09091e+06 3.0915e+06 3.09091e+06 3.0915e+06 3.0909e+06 3.0915e+06 3.0909e+06
          3.09149e+06 3.0909e+06 3.09149e+06 3.09089e+06 3.09149e+06 3.09089e+06 3.09148e+06 3.09088e+06 3.09148e+06 3.09088e+06 3.09148e+06 3.09088e+06
          3.09147e+06 3.09087e+06 3.09147e+06 3.09087e+06 3.09147e+06 3.09087e+06 3.09146e+06 3.09086e+06 3.09146e+06 3.09086e+06 3.09146e+06 3.09086e+06
          3.09145e+06 3.09085e+06 3.09145e+06 3.09085e+06 3.09144e+06 3.09085e+06 3.09144e+06 3.09084e+06 3.09144e+06 3.09084e+06 3.09143e+06 3.09084e+06
          3.09143e+06 3.09083e+06 3.09143e+06 3.09083e+06 3.09142e+06 3.09083e+06 3.09142e+06 3.09082e+06 3.09142e+06 3.09082e+06 3.09141e+06 3.09082e+06
          3.09141e+06 3.09081e+06 3.09141e+06 3.09081e+06 3.0914e+06 3.0908e+06 3.0914e+06 3.0908e+06 3.0914e+06 3.0908e+06 3.09139e+06 3.09079e+06
          3.09139e+06 3.09079e+06 3.09138e+06 3.09079e+06 3.09138e+06 3.09078e+06 3.09138e+06 3.09078e+06 3.09137e+06 3.09078e+06 3.09137e+06 3.09077e+06
          3.09137e+06 3.09077e+06 3.09136e+06 3.09077e+06 3.09136e+06 3.09076e+06 3.09136e+06 3.09076e+06 3.09135e+06 3.09076e+06 3.09135e+06 3.09075e+06
          3.09135e+06 3.09075e+06 3.09134e+06 3.09074e+06 3.09134e+06 3.09074e+06 3.09134e+06 3.09074e+06 3.09133e+06 3.09073e+06 3.09133e+06 3.09073e+06
          3.09133e+06 3.09073e+06 3.09132e+06 3.09072e+06 3.09132e+06 3.09072e+06 3.09132e+06 3.09072e+06 3.09131e+06 3.09071e+06 3.09131e+06 3.09071e+06
          3.09131e+06 3.09071e+06 3.09132e+06 3.09071e+06 3.09136e+06 3.09071e+06 3.09142e+06 3.09074e+06 3.09146e+06 3.0908e+06 3.09146e+06 3.09092e+06
          3.09143e+06 3.09113e+06
        </DataArray>
        <DataArray type="Float32" Name="pg" NumberOfComponents="1" format="ascii">
          3.09238e+06 3.09239e+06 3.09238e+06 3.09238e+06 3.09238e+06 3.09238e+06 3.09237e+06 3.09237e+06 3.09237e+06 3.09237e+06 3.09237e+06 3.09237e+06
          3.09236e+06 3.09236e+06 3.09236e+06 3.09236e+06 3.09236e+06 3.09236e+06 3.09235e+06 3.09235e+06 3.09235e+06 3.09235e+06 3.09235e+06 3.09235e+06
          3.09234e+06 3.09234e+06 3.09234e+06 3.09234e+06 3.09234e+06 3.09234e+06 3.09233e+06 3.09233e+06 3.09233e+06 3.09233e+06 3.09232e+06 3.09232e+06
          3.09232e+06 3.09232e+06 3.09232e+06 3.09232e+06 3.09231e+06 3.09231e+06 3.09231e+06 3.09231e+06 3.09231e+06 3.09231e+06 3.0923e+06 3.0923e+06
          3.0923e+06 3.0923e+06 3.0923e+06 3.0923e+06 3.09229e+06 3.09229e+06 3.09229e+06 3.09229e+06 3.09229e+06 3.09229e+06 3.09228e+06 3.09228e+06
          3.09228e+06 3.09228e+06 3.09228e+06 3.09228e+06 3.09227e+06 3.09227e+06 3.09227e+06 3.09227e+06 3.09227e+06 3.09227e+06 3.09226e+06 3.09226e+06
          3.09226e+06 3.09226e+06 3.09226e+06 3.09225e+06 3.09225e+06 3.09225e+06 3.09225e+06 3.09225e+06 3.09224e+06 3.09224e+06 3.09224e+06 3.09224e+06
          3.09224e+06 3.09224e+06 3.09223e+06 3.09223e+06 3.09223e+06 3.09223e+06 3.09223e+06 3.09223e+06 3.09222e+06 3.09222e+06 3.09222e+06 3.09222e+06
          3.09222e+06 3.09222e+06 3.09221e+06 3.09221e+06 3.09221e+06 3.09221e+06 3.09221e+06 3.09221e+06 3.0922e+06 3.0922e+06 3.0922e+06 3.0922e+06
          3.0922e+06 3.0922e+06 3.09219e+06 3.09219e+06 3.09219e+06 3.09219e+06 3.09218e+06 3.09218e+06 3.09218e+06 3.09218e+06 3.09218e+06 3.09218e+06
          3.09217e+06 3.09217e+06 3.09217e+06 3.09217e+06 3.09217e+06 3.09217e+06 3.09216e+06 3.09216e+06 3.09216e+06 3.09216e+06 3.09216e+06 3.09216e+06
          3.09215e+06 3.09215e+06 3.09215e+06 3.09215e+06 3.09215e+06 3.09215e+06 3.09214e+06 3.09214e+06 3.09214e+06 3.09214e+06 3.09214e+06 3.09214e+06
          3.09213e+06 3.09213e+06 3.09213e+06 3.09213e+06 3.09213e+06 3.09213e+06 3.09212e+06 3.09212e+06 3.09212e+06 3.09212e+06 3.09211e+06 3.09211e+06
          3.09211e+06 3.09211e+06 3.09211e+06 3.09211e+06 3.0921e+06 3.0921e+06 3.0921e+06 3.0921e+06 3.0921e+06 3.0921e+06 3.09209e+06 3.09209e+06
          3.09209e+06 3.09209e+06 3.09209e+06 3.09209e+06 3.09208e+06 3.09208e+06 3.09208e+06 3.09208e+06 3.09208e+06 3.09208e+06 3.09207e+06 3.09207e+06
          3.09207e+06 3.09207e+06 3.09207e+06 3.09207e+06 3.09206e+06 3.09206e+06 3.09206e+06 3.09206e+06 3.09206e+06 3.09206e+06 3.09205e+06 3.09205e+06
          3.09205e+06 3.09205e+06 3.09204e+06 3.09204e+06 3.09204e+06 3.09204e+06 3.09204e+06 3.09204e+06 3.09203e+06 3.09203e+06 3.09203e+06 3.09203e+06
          3.09203e+06 3.09203e+06 3.09202e+06 3.09202e+06 3.09202e+06 3.09202e+06 3.09202e+06 3.09202e+06 3.09201e+06 3.09201e+06 3.09201e+06 3.09201e+06
          3.09201e+06 3.09201e+06 3.092e+06 3.092e+06 3.092e+06 3.092e+06 3.092e+06 3.092e+06 3.09199e+06 3.09199e+06 3.09199e+06 3.09199e+06
          3.09199e+06 3.09198e+06 3.09198e+06 3.09198e+06 3.09198e+06 3.09198e+06 3.09198e+06 3.09197e+06 3.09197e+06 3.09197e+06 3.09197e+06 3.09197e+06
          3.09197e+06 3.09196e+06
        </DataArray>
        <DataArray type="Float32" Name="rhow" NumberOfComponents="1" format="ascii">
          956.928 1000.71 982.806 999.112 991.353 999.211 993.901 999.484 994.61 999.61 994.797 999.647
          994.84 999.657 994.846 999.66 994.844 999.659 994.842 999.658 994.842 999.656 994.842 999.654
          994.842 999.653 994.842 999.652 994.842 999.651 994.842 999.651 994.842 999.65 994.842 999.65
          994.842 999.65 994.842 999.65 994.842 999.65 994.842 999.649 994.842 999.649 994.842 999.649
          994.842 999.649 994.842 999.649 994.842 999.649 994.842 999.649 994.842 999.649 994.842 999.649
          994.842 999.649 994.842 999.649 994.842 999.649 994.842 999.649 994.842 999.649 994.842 999.649
          994.842 999.649 994.842 999.649 994.842 999.649 994.842 999.649 994.842 999.649 994.842 999.649
          994.842 999.649 994.842 999.649 994.842 999.649 994.842 999.649 994.842 999.649 994.842 999.649
          994.842 999.649 994.842 999.649 994.842 999.649 994.842 999.649 994.842 999.649 994.842 999.649
          994.842 999.649 994.842 999.649 994.842 999.649 994.842 999.649 994.842 999.649 994.842 999.649
          994.842 999.649 994.842 999.649 994.842 999.649 994.842 999.649 994.842 999.649 994.842 999.649
          994.842 999.649 994.842 999.649 994.842 999.649 994.842 999.649 994.842 999.649 994.842 999.649
          994.842 999.649 994.842 999.649 994.842 999.649 994.842 999.649 994.842 999.649 994.842 999.649
          994.842 999.649 994.842 999.649 994.842 999.649 994.842 999.649 994.842 999.649 994.842 999.649
          994.842 999.649 994.842 999.649 994.842 999.649 994.842 999.649 994.842 999.649 994.842 999.649
          994.842 999.649 994.842 999.649 994.842 999.649 994.842 999.649 994.842 999.649 994.842 999.649
          994.842 999.649 994.842 999.648 994.842 999.648 994.842 999.648 994.842 999.648 994.842 999.648
          994.842 999.647 994.842 999.647 994.842 999.646 994.842 999.645 994.842 999.644 994.842 999.642
          994.842 999.64 994.842 999.637 994.841 999.633 994.841 999.629 994.841 999.622 994.84 999.613
          994.835 999.599 994.812 999.567 994.703 999.486 994.212 999.284 992.069 998.866 983.546 998.385
          952.255 999.785
        </DataArray>
        <DataArray type="Float32" Name="rhon" NumberOfComponents="1" format="ascii">
          797.205 874.301 833.554 867.955 848.827 868.289 854.185 869.212 855.79 869.653 856.222 869.799
          856.323 869.839 856.336 869.848 856.331 869.847 856.327 869.841 856.327 869.833 856.327 869.826
          856.327 869.822 856.327 869.818 856.327 869.816 856.327 869.813 856.327 869.812 856.327 869.811
          856.327 869.81 856.327 869.809 856.327 869.809 856.327 869.808 856.327 869.808 856.327 869.808
          856.327 869.808 856.327 869.808 856.327 869.808 856.327 869.807 856.327 869.807 856.327 869.807
          856.327 869.807 856.327 869.807 856.327 869.807 856.327 869.807 856.327 869.807 856.327 869.807
          856.327 869.807 856.327 869.807 856.327 869.807 856.327 869.807 856.327 869.807 856.327 869.807
          856.327 869.807 856.327 869.807 856.327 869.807 856.327 869.807 856.327 869.807 856.327 869.807
          856.327 869.807 856.327 869.807 856.327 869.807 856.327 869.807 856.327 869.807 856.327 869.807
          856.327 869.807 856.327 869.807 856.327 869.807 856.327 869.807 856.327 869.807 856.327 869.807
          856.327 869.807 856.327 869.807 856.327 869.807 856.327 869.807 856.327 869.807 856.327 869.807
          856.327 869.807 856.327 869.807 856.327 869.807 856.327 869.807 856.327 869.807 856.327 869.807
          856.327 869.807 856.327 869.807 856.327 869.807 856.327 869.807 856.327 869.807 856.327 869.807
          856.327 869.807 856.327 869.807 856.327 869.807 856.327 869.807 856.327 869.807 856.327 869.807
          856.327 869.807 856.327 869.807 856.327 869.807 856.327 869.807 856.327 869.807 856.327 869.807
          856.327 869.807 856.327 869.807 856.327 869.807 856.327 869.807 856.327 869.806 856.327 869.806
          856.327 869.806 856.327 869.805 856.327 869.805 856.327 869.804 856.327 869.803 856.327 869.802
          856.327 869.8 856.327 869.798 856.326 869.795 856.326 869.791 856.326 869.786 856.326 869.78
          856.326 869.772 856.326 869.761 856.326 869.746 856.325 869.728 856.325 869.702 856.322 869.667
          856.31 869.609 856.257 869.494 856.005 869.219 854.866 868.538 850.298 867.121 834.782 865.624
          791.4 870.344
        </DataArray>
        <DataArray type="Float32" Name="rhog" NumberOfComponents="1" format="ascii">
          28.1536 37.3137 31.8945 36.3414 33.7206 36.3911 34.4127 36.5294 34.6258 36.5959 34.6837 36.6179
          34.6971 36.6239 34.6989 36.6252 34.6981 36.6251 34.6977 36.624 34.6976 36.6227 34.6975 36.6218
          34.6975 36.621 34.6974 36.6204 34.6974 36.62 34.6973 36.6196 34.6973 36.6194 34.6972 36.6192
          34.6972 36.619 34.6972 36.6188 34.6971 36.6187 34.6971 36.6186 34.697 36.6185 34.697 36.6185
          34.697 36.6184 34.6969 36.6183 34.6969 36.6183 34.6968 36.6182 34.6968 36.6182 34.6968 36.6181
          34.6967 36.6181 34.6967 36.618 34.6966 36.618 34.6966 36.618 34.6966 36.6179 34.6965 36.6179
          34.6965 36.6178 34.6964 36.6178 34.6964 36.6177 34.6964 36.6177 34.6963 36.6177 34.6963 36.6176
          34.6963 36.6176 34.6962 36.6175 34.6962 36.6175 34.6961 36.6175 34.6961 36.6174 34.6961 36.6174
          34.696 36.6173 34.696 36.6173 34.6959 36.6172 34.6959 36.6172 34.6959 36.6172 34.6958 36.6171
          34.6958 36.6171 34.6957 36.617 34.6957 36.617 34.6957 36.617 34.6956 36.6169 34.6956 36.6169
          34.6955 36.6168 34.6955 36.6168 34.6955 36.6168 34.6954 36.6167 34.6954 36.6167 34.6953 36.6166
          34.6953 36.6166 34.6953 36.6165 34.6952 36.6165 34.6952 36.6165 34.6952 36.6164 34.6951 36.6164
          34.6951 36.6163 34.695 36.6163 34.695 36.6163 34.695 36.6162 34.6949 36.6162 34.6949 36.6161
          34.6948 36.6161 34.6948 36.616 34.6948 36.616 34.6947 36.616 34.6947 36.6159 34.6946 36.6159
          34.6946 36.6158 34.6946 36.6158 34.6945 36.6157 34.6945 36.6157 34.6944 36.6156 34.6944 36.6156
          34.6944 36.6155 34.6943 36.6155 34.6943 36.6154 34.6942 36.6154 34.6942 36.6153 34.6942 36.6152
          34.6941 36.6151 34.6941 36.615 34.694 36.6149 34.694 36.6147 34.694 36.6145 34.6939 36.6143
          34.6939 36.614 34.6938 36.6136 34.6938 36.6131 34.6938 36.6125 34.6937 36.6118 34.6937 36.6107
          34.6936 36.6094 34.6935 36.6077 34.6935 36.6055 34.6934 36.6027 34.6932 36.5988 34.6928 36.5933
          34.6912 36.5846 34.684 36.5672 34.6503 36.5257 34.4983 36.4236 33.903 36.213 32.0297 35.9934
          27.6007 36.6957
        </DataArray>
        <DataArray type="Float32" Name="x^w_H2O" NumberOfComponents="1" format="ascii">
          0.999729 0.999493 0.999698 0.999559 0.999664 0.999556 0.999644 0.999548 0.999637 0.999544 0.999635 0.999542
          0.999635 0.999542 0.999635 0.999542 0.999635 0.999542 0.999635 0.999542 0.999635 0.999542 0.999635 0.999542
          0.999635 0.999542 0.999635 0.999542 0.999635 0.999542 0.999635 0.999542 0.999635 0.999542 0.999635 0.999542
          0.999635 0.999542 0.999635 0.999542 0.999635 0.999542 0.999635 0.999542 0.999635 0.999542 0.999635 0.999542
          0.999635 0.999542 0.999635 0.999542 0.999635 0.999542 0.999635 0.999542 0.999635 0.999542 0.999635 0.999542
          0.999635 0.999542 0.999635 0.999542 0.999635 0.999542 0.999635 0.999542 0.999635 0.999542 0.999635 0.999542
          0.999635 0.999542 0.999635 0.999542 0.999635 0.999542 0.999635 0.999542 0.999635 0.999542 0.999635 0.999542
          0.999635 0.999542 0.999635 0.999542 0.999635 0.999542 0.999635 0.999542 0.999635 0.999542 0.999635 0.999542
          0.999635 0.999542 0.999635 0.999542 0.999635 0.999542 0.999635 0.999542 0.999635 0.999542 0.999635 0.999542
          0.999635 0.999542 0.999635 0.999542 0.999635 0.999542 0.999635 0.999542 0.999635 0.999542 0.999635 0.999542
          0.999635 0.999542 0.999635 0.999542 0.999635 0.999542 0.999635 0.999542 0.999635 0.999542 0.999635 0.999542
          0.999635 0.999542 0.999635 0.999542 0.999635 0.999542 0.999635 0.999542 0.999635 0.999542 0.999635 0.999542
          0.999635 0.999542 0.999635 0.999542 0.999635 0.999542 0.999635 0.999542 0.999635 0.999542 0.999635 0.999542
          0.999635 0.999542 0.999635 0.999542 0.999635 0.999542 0.999635 0.999542 0.999635 0.999542 0.999635 0.999542
          0.999635 0.999542 0.999635 0.999542 0.999635 0.999542 0.999635 0.999542 0.999635 0.999542 0.999635 0.999542
          0.999635 0.999542 0.999635 0.999542 0.999635 0.999542 0.999635 0.999542 0.999635 0.999542 0.999635 0.999542
          0.999635 0.999542 0.999635 0.999542 0.999635 0.999542 0.999635 0.999542 0.999635 0.999542 0.999635 0.999542
          0.999635 0.999542 0.999635 0.999542 0.999635 0.999543 0.999635 0.999543 0.999635 0.999543 0.999635 0.999543
          0.999635 0.999543 0.999635 0.999543 0.999635 0.999543 0.999635 0.999543 0.999635 0.999543 0.999635 0.999544
          0.999635 0.999544 0.999635 0.999545 0.999636 0.999548 0.999642 0.999554 0.999659 0.999567 0.999696 0.999579
          0.999733 0.999537
        </DataArray>
        <DataArray type="Float32" Name="x^w_mesitylene" NumberOfComponents="1" format="ascii">
          3.1215e-09 6.01837e-09 3.91974e-09 6.3462e-09 3.96077e-09 6.57492e-09 3.84753e-09 6.68985e-09 3.67097e-09 6.74607e-09 3.46206e-09 6.76536e-09
          3.23449e-09 6.75863e-09 2.99642e-09 6.73244e-09 2.75463e-09 6.6922e-09 2.52182e-09 6.64276e-09 2.31089e-09 6.59267e-09 2.12058e-09 6.55124e-09
          1.94969e-09 6.51708e-09 1.79691e-09 6.48894e-09 1.66094e-09 6.4658e-09 1.5404e-09 6.44676e-09 1.43393e-09 6.43108e-09 1.34017e-09 6.41812e-09
          1.25782e-09 6.40738e-09 1.18563e-09 6.39842e-09 1.12244e-09 6.3909e-09 1.06719e-09 6.38455e-09 1.0189e-09 6.37914e-09 9.76712e-10 6.37448e-09
          9.3984e-10 6.37042e-09 9.07599e-10 6.36686e-09 8.79388e-10 6.36367e-09 8.54676e-10 6.3608e-09 8.33007e-10 6.35816e-09 8.13981e-10 6.35571e-09
          7.97252e-10 6.35339e-09 7.82523e-10 6.35117e-09 7.69536e-10 6.34901e-09 7.58068e-10 6.34687e-09 7.47927e-10 6.34474e-09 7.38947e-10 6.34258e-09
          7.30986e-10 6.34037e-09 7.23918e-10 6.33807e-09 7.17636e-10 6.33568e-09 7.12046e-10 6.33316e-09 7.07068e-10 6.33049e-09 7.0263e-10 6.32764e-09
          6.9867e-10 6.3246e-09 6.95134e-10 6.32132e-09 6.91975e-10 6.31779e-09 6.8915e-10 6.31396e-09 6.86624e-10 6.30982e-09 6.84363e-10 6.30532e-09
          6.82338e-10 6.30042e-09 6.80525e-10 6.29509e-09 6.789e-10 6.28928e-09 6.77444e-10 6.28294e-09 6.76139e-10 6.27602e-09 6.74969e-10 6.26846e-09
          6.7392e-10 6.2602e-09 6.7298e-10 6.25118e-09 6.72136e-10 6.24133e-09 6.71379e-10 6.23055e-09 6.707e-10 6.21878e-09 6.70091e-10 6.20591e-09
          6.69545e-10 6.19185e-09 6.69055e-10 6.17649e-09 6.68615e-10 6.15971e-09 6.68221e-10 6.14138e-09 6.67867e-10 6.12138e-09 6.6755e-10 6.09954e-09
          6.67265e-10 6.07571e-09 6.6701e-10 6.04972e-09 6.6678e-10 6.02138e-09 6.66574e-10 5.9905e-09 6.6639e-10 5.95687e-09 6.66224e-10 5.92026e-09
          6.66076e-10 5.88042e-09 6.65942e-10 5.83711e-09 6.65823e-10 5.79006e-09 6.65715e-10 5.73898e-09 6.65619e-10 5.68358e-09 6.65532e-10 5.62355e-09
          6.65454e-10 5.55857e-09 6.65384e-10 5.48832e-09 6.65321e-10 5.41247e-09 6.65265e-10 5.33067e-09 6.65214e-10 5.2426e-09 6.65168e-10 5.14794e-09
          6.65127e-10 5.04638e-09 6.6509e-10 4.93763e-09 6.65056e-10 4.82145e-09 6.65026e-10 4.69761e-09 6.64999e-10 4.56597e-09 6.64974e-10 4.42644e-09
          6.64952e-10 4.27901e-09 6.64932e-10 4.12379e-09 6.64913e-10 3.96097e-09 6.64897e-10 3.79089e-09 6.64882e-10 3.61405e-09 6.64868e-10 3.4311e-09
          6.64856e-10 3.24285e-09 6.64844e-10 3.05031e-09 6.64834e-10 2.85468e-09 6.64824e-10 2.65733e-09 6.64815e-10 2.45979e-09 6.64807e-10 2.26374e-09
          6.64798e-10 2.07099e-09 6.64788e-10 1.88336e-09 6.64773e-10 1.70272e-09 6.64747e-10 1.53083e-09 6.64695e-10 1.3693e-09 6.64581e-10 1.21951e-09
          6.64338e-10 1.0825e-09 6.63824e-10 9.58907e-10 6.62772e-10 8.48891e-10 6.60696e-10 7.52098e-10 6.56762e-10 6.67621e-10 6.49607e-10 5.93984e-10
          6.3713e-10 5.2912e-10 6.15974e-10 4.70322e-10 5.81419e-10 4.1417e-10 5.26453e-10 3.56365e-10 4.39057e-10 2.90938e-10 2.84953e-10 2.04889e-10
          2.0901e-16 3.94473e-11
        </DataArray>
        <DataArray type="Float32" Name="x^w_Air" NumberOfComponents="1" format="ascii">
          0.000270537 0.000506793 0.000302004 0.000440622 0.000335973 0.000443565 0.000355578 0.000451983 0.000362595 0.000456157 0.00036459 0.000457561
          0.00036506 0.000457949 0.000365122 0.000458034 0.000365097 0.000458025 0.000365081 0.000457958 0.000365078 0.000457881 0.000365077 0.000457821
          0.000365076 0.000457775 0.000365076 0.00045774 0.000365075 0.000457713 0.000365075 0.000457693 0.000365074 0.000457678 0.000365074 0.000457666
          0.000365073 0.000457658 0.000365073 0.000457651 0.000365072 0.000457645 0.000365072 0.000457641 0.000365071 0.000457638 0.000365071 0.000457635
          0.000365071 0.000457633 0.00036507 0.000457632 0.00036507 0.00045763 0.000365069 0.000457629 0.000365069 0.000457628 0.000365068 0.000457627
          0.000365068 0.000457626 0.000365068 0.000457626 0.000365067 0.000457625 0.000365067 0.000457624 0.000365066 0.000457624 0.000365066 0.000457623
          0.000365066 0.000457623 0.000365065 0.000457622 0.000365065 0.000457621 0.000365064 0.000457621 0.000365064 0.00045762 0.000365064 0.00045762
          0.000365063 0.000457619 0.000365063 0.000457619 0.000365062 0.000457618 0.000365062 0.000457618 0.000365061 0.000457617 0.000365061 0.000457617
          0.000365061 0.000457616 0.00036506 0.000457616 0.00036506 0.000457615 0.000365059 0.000457615 0.000365059 0.000457614 0.000365059 0.000457614
          0.000365058 0.000457613 0.000365058 0.000457613 0.000365057 0.000457612 0.000365057 0.000457612 0.000365057 0.000457611 0.000365056 0.000457611
          0.000365056 0.00045761 0.000365055 0.00045761 0.000365055 0.000457609 0.000365054 0.000457609 0.000365054 0.000457608 0.000365054 0.000457608
          0.000365053 0.000457607 0.000365053 0.000457607 0.000365052 0.000457606 0.000365052 0.000457606 0.000365052 0.000457605 0.000365051 0.000457604