<?xml version="1.0"?>
<VTKFile type="UnstructuredGrid" version="0.1" byte_order="LittleEndian">
  <UnstructuredGrid>
    <Piece NumberOfCells="120" NumberOfPoints="144">
      <PointData Scalars="Sw">
        <DataArray type="Float32" Name="Sw" NumberOfComponents="1" format="ascii">
          0.143881 0.120456 0.143612 0.120461 0.120006 0.120007 0.12 0.12 0.12 0.12 0.12 0.12
          0.12 0.12 0.12 0.12 0.12 0.12 0.12 0.12 0.12 0.12 0.12 0.12
          0.12 0.12 0.12 0.12 0.12 0.12 0.12 0.12 0.143612 0.120476 0.120008 0.12
          0.12 0.12 0.12 0.12 0.12 0.12 0.12 0.12 0.12 0.12 0.12 0.12
          0.143611 0.120464 0.120009 0.12 0.12 0.12 0.12 0.12 0.12 0.12 0.12 0.12
          0.12 0.12 0.12 0.12 0.143611 0.120351 0.12 0.12 0.12 0.12 0.12 0.12
          0.12 0.12 0.12 0.12 0.12 0.12 0.12 0.12 0.143611 0.120331 0.12 0.12
          0.12 0.12 0.12 0.12 0.12 0.12 0.12 0.12 0.12 0.12 0.12 0.12
          0.143611 0.120354 0.12 0.12 0.12 0.12 0.12 0.12 0.12 0.12 0.12 0.12
          0.12 0.120001 0.120001 0.12 0.143608 0.12047 0.120008 0.119999 0.12 0.12 0.12 0.12
          0.12 0.120001 0.120001 0.120001 0.120001 0.120001 0.120001 0.12 0.14335 0.120497 0.120009 0.12
          0.12 0.12 0.12 0.12 0.12 0.12 0.12 0.12 0.12 0.12 0.12 0.12
        </DataArray>
        <DataArray type="Float32" Name="Sn" NumberOfComponents="1" format="ascii">
          0 0 0 0 0 0 0 0 0 0 0 0
          0 0 0 0 0 0 0 0 0 0 0 0
          0 0 0 0 0 0 0 0 0 0 0 0
          0 0 0 0 0 0 0 0 0 0 0 0
          0 0 0 0 0 0 0 0 0 0 0 0
          0 0 0 0 0 0 0 0 0 0 0 0
          0 0 0 0 0 0 0 0 0 0 0.0699929 0.07
          0.07 0.0699998 0.0699995 0.0699991 0.0699988 0 0 0 0 0 0 0
          0 0 0.0699925 0.07 0.07 0.07 0.07 0.07 0.07 0 0 0
          0 0 0 0 0 0 0.0694399 0.0699989 0.0699999 0.07 0.07 0.0699999
          0.0699978 0 0 0 0 0 0 0 0 0 0 0
          0 0 0 0 0 0 0 0 0 0 0 0
        </DataArray>
        <DataArray type="Float32" Name="Sg" NumberOfComponents="1" format="ascii">
          0.856119 0.879544 0.856388 0.879539 0.879994 0.879993 0.88 0.88 0.88 0.88 0.88 0.88
          0.88 0.88 0.88 0.88 0.88 0.88 0.88 0.88 0.88 0.88 0.88 0.88
          0.88 0.88 0.88 0.88 0.88 0.88 0.88 0.88 0.856388 0.879524 0.879992 0.88
          0.88 0.88 0.88 0.88 0.88 0.88 0.88 0.88 0.88 0.88 0.88 0.88
          0.856389 0.879536 0.879991 0.88 0.88 0.88 0.88 0.88 0.88 0.88 0.88 0.88
          0.88 0.88 0.88 0.88 0.856389 0.879649 0.88 0.88 0.88 0.88 0.88 0.88
          0.88 0.88 0.88 0.88 0.88 0.88 0.88 0.88 0.856389 0.879669 0.810007 0.81
          0.81 0.81 0.810001 0.810001 0.810001 0.88 0.88 0.88 0.88 0.88 0.88 0.88
          0.856389 0.879646 0.810007 0.81 0.81 0.81 0.81 0.81 0.81 0.88 0.88 0.88
          0.88 0.879999 0.879999 0.88 0.856392 0.87953 0.810552 0.810002 0.81 0.81 0.81 0.81
          0.810002 0.879999 0.879999 0.879999 0.879999 0.879999 0.879999 0.88 0.85665 0.879503 0.879991 0.88
          0.88 0.88 0.88 0.88 0.88 0.88 0.88 0.88 0.88 0.88 0.88 0.88
        </DataArray>
        <DataArray type="Float32" Name="pw" NumberOfComponents="1" format="ascii">
          99422.3 98860.5 99419 98859.9 98840.6 98839.7 98835.8 98834.8 98831 98830 98826.2 98825.1
          98821.3 98820.2 98816.4 98815.3 98811.6 98810.5 98807 98805.8 98803 98801.4 98800.5 98798.4
          87652.8 87649.6 87640.9 87638.8 87631.6 87630.5 87622.4 87622.4 99419 98860.3 98839.1 98833.9
          98829 98824.1 98819.1 98814.2 98809.2 98804.3 98799.1 98793 98784 98776.2 98769.1 98762.2
          99420 98860.7 98838.5 98833.1 98828 98823 98818.1 98813.1 98808 98802.8 98797.2 98790.4
          98782.7 98773.9 98767.7 98762.2 99421.3 98859.7 87701 87693.3 87687.5 87682.1 87676.8 87671.6
          87666.2 87660.7 87654.6 87647.4 87637.5 98769 98766.2 98762.2 99421.7 98859.4 83092.8 83083.5
          83076.7 83070.7 83065 83059.3 83053.5 87657.5 87651.2 87643.7 87633.9 98767.2 98765.2 98762.2
          99420.4 98858.9 83090.8 83082.1 83075.5 83069.3 83063.1 83057 83050.9 87654.7 87648.6 87642
          87633.8 98767.1 98765 98762.2 99418.1 98859.1 98378.2 98369.4 98363.1 98356.9 98350.6 98344.3
          98338.1 98792.8 98786.9 98780.9 98775.2 98769 98765.1 98762.2 99414 98858.2 98835.6 98829.2
          98823.1 98816.8 98810.5 98804.3 98798 98791.8 98785.8 98779.9 98774.1 98768.7 98764.6 98762.2
        </DataArray>
        <DataArray type="Float32" Name="pn" NumberOfComponents="1" format="ascii">
          99422.3 98860.5 99419 98859.9 98840.6 98839.7 98835.8 98834.8 98831 98830 98826.2 98825.1
          98821.3 98820.2 98816.4 98815.3 98811.6 98810.5 98807 98805.8 98803 98801.4 98800.5 98798.4
          87652.8 87649.6 87640.9 87638.8 87631.6 87630.5 87622.4 87622.4 99419 98860.3 98839.1 98833.9
          98829 98824.1 98819.1 98814.2 98809.2 98804.3 98799.1 98793 98784 98776.2 98769.1 98762.2
          99420 98860.7 98838.5 98833.1 98828 98823 98818.1 98813.1 98808 98802.8 98797.2 98790.4
          98782.7 98773.9 98767.7 98762.2 99421.3 98859.7 87701 87693.3 87687.5 87682.1 87676.8 87671.6
          87666.2 87660.7 87654.6 87647.4 87637.5 98769 98766.2 98762.2 99421.7 98859.4 95469 95461.1
          95454.3 95448.3 95442.5 95436.7 95430.9 87657.5 87651.2 87643.7 87633.9 98767.2 98765.2 98762.2
          99420.4 98858.9 95467 95459.7 95453.1 95446.8 95440.7 95434.6 95428.5 87654.7 87648.6 87642
          87633.8 98767.1 98765 98762.2 99418.1 98859.1 99605.8 99607.1 99600.9 99594.6 99588.4 99582.1
          99575.8 98792.8 98786.9 98780.9 98775.2 98769 98765.1 98762.2 99414 98858.2 98835.6 98829.2
          98823.1 98816.8 98810.5 98804.3 98798 98791.8 98785.8 98779.9 98774.1 98768.7 98764.6 98762.2
        </DataArray>
        <DataArray type="Float32" Name="pg" NumberOfComponents="1" format="ascii">
          100086 100082 100086 100081 100078 100077 100074 100073 100069 100068 100064 100063
          100059 100058 100054 100053 100049 100048 100045 100044 100041 100039 100038 100036
          100030 100027 100019 100016 100009 100008 100000 100000 100086 100081 100077 100072
          100067 100062 100057 100052 100047 100042 100037 100031 100022 100014 100007 100000
          100087 100082 100076 100071 100066 100061 100056 100051 100046 100041 100035 100028
          100020 100012 100005 100000 100088 100085 100078 100071 100065 100060 100054 100049
          100044 100038 100032 100025 100015 100007 100004 100000 100088 100086 100080 100071
          100064 100058 100053 100047 100041 100035 100029 100021 100011 100005 100003 100000
          100087 100084 100078 100070 100063 100057 100051 100045 100039 100032 100026 100020
          100011 100005 100003 100000 100085 100080 100074 100068 100062 100056 100049 100043
          100037 100030 100025 100019 100013 100007 100003 100000 100083 100078 100073 100067
          100061 100055 100048 100042 100036 100030 100024 100018 100012 100006 100002 100000
        </DataArray>
        <DataArray type="Float32" Name="rhow" NumberOfComponents="1" format="ascii">
          993.885 998.144 993.885 998.143 998.228 998.228 998.229 998.229 998.229 998.229 998.229 998.229
          998.229 998.229 998.229 998.229 998.229 998.229 998.229 998.229 998.229 998.229 998.229 998.229
          998.224 998.224 998.224 998.224 998.224 998.224 998.224 998.224 993.885 998.14 998.227 998.229
          998.229 998.229 998.229 998.229 998.229 998.229 998.229 998.229 998.229 998.229 998.229 998.229
          993.885 998.142 998.227 998.229 998.229 998.229 998.229 998.229 998.229 998.229 998.229 998.229
          998.229 998.229 998.229 998.229 993.885 998.161 998.226 998.226 998.225 998.224 998.224 998.224
          998.224 998.224 998.224 998.224 998.224 998.229 998.23 998.229 993.885 998.165 998.261 998.261
          998.261 998.261 998.261 998.261 998.261 998.231 998.225 998.224 998.224 998.245 998.249 998.229
          993.885 998.161 998.261 998.261 998.261 998.261 998.261 998.261 998.261 998.231 998.225 998.225
          998.229 998.261 998.259 998.229 993.885 998.141 998.276 998.268 998.268 998.268 998.268 998.268
          998.268 998.267 998.267 998.267 998.266 998.262 998.257 998.229 993.884 998.136 998.23 998.233
          998.234 998.234 998.234 998.234 998.234 998.234 998.234 998.234 998.234 998.233 998.233 998.229
        </DataArray>
        <DataArray type="Float32" Name="rhon" NumberOfComponents="1" format="ascii">
          857.654 870.32 857.653 870.315 870.666 870.666 870.673 870.673 870.673 870.673 870.673 870.673
          870.673 870.673 870.673 870.673 870.673 870.673 870.673 870.673 870.673 870.673 870.673 870.673
          870.673 870.673 870.673 870.673 870.673 870.673 870.673 870.673 857.653 870.305 870.665 870.673
          870.673 870.673 870.673 870.673 870.673 870.673 870.673 870.673 870.673 870.673 870.673 870.673
          857.653 870.313 870.664 870.673 870.673 870.673 870.673 870.673 870.673 870.673 870.673 870.673
          870.673 870.673 870.673 870.673 857.654 870.393 870.671 870.673 870.673 870.673 870.673 870.673
          870.673 870.673 870.673 870.673 870.673 870.673 870.673 870.673 857.654 870.408 870.672 870.673
          870.673 870.673 870.673 870.673 870.673 870.673 870.673 870.673 870.673 870.673 870.673 870.673
          857.654 870.391 870.672 870.673 870.673 870.673 870.673 870.673 870.673 870.673 870.673 870.673
          870.673 870.672 870.672 870.673 857.653 870.309 870.706 870.674 870.673 870.673 870.673 870.673
          870.673 870.672 870.672 870.672 870.672 870.672 870.673 870.673 857.653 870.288 870.664 870.673
          870.673 870.673 870.673 870.673 870.673 870.673 870.673 870.673 870.673 870.673 870.673 870.673
        </DataArray>
        <DataArray type="Float32" Name="rhog" NumberOfComponents="1" format="ascii">
          1.10507 1.17732 1.10506 1.17728 1.17922 1.17921 1.1792 1.17919 1.17914 1.17913 1.17909 1.17907
          1.17903 1.17902 1.17897 1.17896 1.17891 1.1789 1.17886 1.17884 1.17881 1.17879 1.17878 1.17876
          1.17869 1.17865 1.17855 1.17852 1.17844 1.17843 1.17833 1.17833 1.10506 1.17722 1.17919 1.17918
          1.17912 1.17906 1.179 1.17894 1.17889 1.17883 1.17876 1.17869 1.17859 1.17849 1.17841 1.17833
          1.10507 1.17728 1.17918 1.17917 1.17911 1.17905 1.179 1.17894 1.17888 1.17881 1.17874 1.17866
          1.17857 1.17847 1.17839 1.17833 1.10509 1.17777 1.17982 1.17963 1.17927 1.17906 1.17898 1.17891
          1.17885 1.17878 1.17871 1.17863 1.17851 1.17841 1.17857 1.17833 1.1051 1.17785 1.18781 1.1877
          1.18762 1.18755 1.18748 1.18742 1.18735 1.18021 1.17885 1.1786 1.17848 1.18178 1.18267 1.17833
          1.10508 1.17774 1.18778 1.18769 1.18761 1.18753 1.18746 1.18739 1.18732 1.18028 1.17883 1.17879
          1.1796 1.18545 1.18499 1.17833 1.10505 1.17723 1.18791 1.18767 1.18759 1.18752 1.18744 1.18737
          1.1873 1.18705 1.18691 1.18677 1.18657 1.18568 1.1845 1.17833 1.10503 1.17709 1.1798 1.17999
          1.17998 1.17993 1.17986 1.17978 1.17971 1.17963 1.17955 1.17948 1.1794 1.17933 1.17926 1.17833
        </DataArray>
        <DataArray type="Float32" Name="x^H2O_w" NumberOfComponents="1" format="ascii">
          0.999989 0.999985 0.999989 0.999985 0.999985 0.999985 0.999985 0.999985 0.999985 0.999985 0.999985 0.999985
          0.999985 0.999985 0.999985 0.999985 0.999985 0.999985 0.999985 0.999985 0.999985 0.999985 0.999985 0.999985
          0.999985 0.999985 0.999985 0.999985 0.999985 0.999985 0.999985 0.999985 0.999989 0.999985 0.999985 0.999985
          0.999985 0.999985 0.999985 0.999985 0.999985 0.999985 0.999985 0.999985 0.999985 0.999985 0.999985 0.999985
          0.999989 0.999985 0.999985 0.999985 0.999985 0.999985 0.999985 0.999985 0.999985 0.999985 0.999985 0.999985
          0.999985 0.999985 0.999985 0.999985 0.999989 0.999985 0.999985 0.999985 0.999985 0.999985 0.999985 0.999985
          0.999985 0.999985 0.999985 0.999985 0.999985 0.999985 0.999985 0.999985 0.999989 0.999985 0.999978 0.999978
          0.999978 0.999978 0.999978 0.999978 0.999978 0.999984 0.999985 0.999985 0.999985 0.999983 0.999982 0.999985
          0.999989 0.999985 0.999978 0.999978 0.999978 0.999978 0.999978 0.999978 0.999978 0.999984 0.999985 0.999985
          0.999984 0.99998 0.99998 0.999985 0.999989 0.999985 0.999978 0.999978 0.999978 0.999978 0.999978 0.999978
          0.999978 0.999979 0.999979 0.999979 0.999979 0.999979 0.99998 0.999985 0.999989 0.999985 0.999985 0.999985
          0.999985 0.999985 0.999985 0.999985 0.999985 0.999985 0.999985 0.999985 0.999985 0.999985 0.999985 0.999985
        </DataArray>
        <DataArray type="Float32" Name="x^mesitylene_w" NumberOfComponents="1" format="ascii">
          1.07868e-14 9.14117e-13 1.07829e-14 1.18627e-12 7.89389e-12 5.82685e-11 1.56805e-11 9.31823e-11 2.512e-11 1.11933e-10 3.84215e-11 1.2501e-10
          5.76339e-11 1.39535e-10 8.46965e-11 1.61336e-10 1.21215e-10 1.91417e-10 1.69862e-10 2.30583e-10 2.38871e-10 2.82264e-10 3.72437e-10 3.79127e-10
          2.32191e-09 2.26593e-09 2.90906e-09 2.90842e-09 3.01023e-09 3.00302e-09 3.02334e-09 3.02334e-09 1.07833e-14 2.0064e-12 4.84725e-10 7.15928e-10
          7.94117e-10 8.02767e-10 7.86013e-10 7.69348e-10 7.47411e-10 7.05902e-10 6.2043e-10 5.3895e-10 5.82462e-10 6.2582e-10 6.75516e-10 3.02334e-09
          1.0784e-14 3.20922e-12 3.96476e-09 5.24263e-09 5.22195e-09 5.03517e-09 4.84179e-09 4.61571e-09 4.32866e-09 3.91157e-09 3.31275e-09 2.76329e-09
          2.58225e-09 2.32441e-09 2.21459e-09 3.02334e-09 1.07845e-14 4.09513e-12 4.6248e-07 3.73705e-07 1.41052e-07 1.677e-08 4.12584e-09 3.1159e-09
          3.04458e-09 3.0288e-09 2.99705e-09 2.94721e-09 2.88634e-09 2.30659e-09 1.61201e-07 3.02334e-09 1.07847e-14 4.47681e-12 6.90303e-06 6.90259e-06
          6.90258e-06 6.90257e-06 6.90256e-06 6.90254e-06 6.90252e-06 1.18568e-06 1.44524e-07 1.864e-08 1.83096e-08 2.74781e-06 3.48528e-06 3.02334e-09
          1.07838e-14 3.52955e-12 6.903e-06 6.90255e-06 6.90258e-06 6.90258e-06 6.90258e-06 6.90258e-06 6.90258e-06 1.27509e-06 1.57366e-07 1.856e-07
          9.19759e-07 5.72198e-06 5.36615e-06 3.02334e-09 1.07826e-14 2.54536e-12 6.88332e-06 6.90195e-06 6.90255e-06 6.90257e-06 6.90257e-06 6.90256e-06
          6.90247e-06 6.76901e-06 6.71009e-06 6.65356e-06 6.5472e-06 5.88512e-06 4.9666e-06 3.02334e-09 1.07783e-14 1.41914e-12 5.33112e-07 7.03669e-07
          7.55586e-07 7.70877e-07 7.75979e-07 7.75722e-07 7.73939e-07 7.71479e-07 7.67994e-07 7.63267e-07 7.57194e-07 7.48971e-07 7.34022e-07 3.02334e-09
        </DataArray>
        <DataArray type="Float32" Name="x^Air_w" NumberOfComponents="1" format="ascii">
          1.13521e-05 1.46275e-05 1.13519e-05 1.46257e-05 1.47451e-05 1.47449e-05 1.47467e-05 1.47465e-05 1.4746e-05 1.47458e-05 1.47453e-05 1.47451e-05
          1.47445e-05 1.47444e-05 1.47438e-05 1.47436e-05 1.47431e-05 1.47429e-05 1.47424e-05 1.47422e-05 1.47418e-05 1.47415e-05 1.47414e-05 1.47411e-05
          1.47402e-05 1.47397e-05 1.47384e-05 1.47381e-05 1.4737e-05 1.47368e-05 1.47356e-05 1.47356e-05 1.13519e-05 1.46221e-05 1.47446e-05 1.47464e-05
          1.47457e-05 1.47449e-05 1.47442e-05 1.47435e-05 1.47427e-05 1.4742e-05 1.47412e-05 1.47403e-05 1.47389e-05 1.47377e-05 1.47367e-05 1.47356e-05
          1.1352e-05 1.46251e-05 1.4744e-05 1.47462e-05 1.47455e-05 1.47448e-05 1.4744e-05 1.47433e-05 1.47425e-05 1.47417e-05 1.47409e-05 1.47399e-05
          1.47387e-05 1.47374e-05 1.47364e-05 1.47356e-05 1.13523e-05 1.46528e-05 1.47446e-05 1.47444e-05 1.47447e-05 1.47445e-05 1.47438e-05 1.4743e-05
          1.47422e-05 1.47414e-05 1.47405e-05 1.47394e-05 1.47379e-05 1.47366e-05 1.47354e-05 1.47356e-05 1.13523e-05 1.46578e-05 1.4713e-05 1.47119e-05
          1.47109e-05 1.471e-05 1.47091e-05 1.47083e-05 1.47074e-05 1.4735e-05 1.47392e-05 1.47387e-05 1.47373e-05 1.47226e-05 1.47186e-05 1.47356e-05
          1.13521e-05 1.46518e-05 1.47127e-05 1.47117e-05 1.47107e-05 1.47098e-05 1.47088e-05 1.47079e-05 1.4707e-05 1.47341e-05 1.47388e-05 1.47376e-05
          1.47327e-05 1.47077e-05 1.47091e-05 1.47356e-05 1.13518e-05 1.46234e-05 1.47241e-05 1.47118e-05 1.47105e-05 1.47096e-05 1.47086e-05 1.47077e-05
          1.47068e-05 1.47063e-05 1.47057e-05 1.47051e-05 1.47048e-05 1.47072e-05 1.47112e-05 1.47356e-05 1.13515e-05 1.4616e-05 1.47411e-05 1.47422e-05
          1.4741e-05 1.474e-05 1.4739e-05 1.47381e-05 1.47371e-05 1.47362e-05 1.47353e-05 1.47345e-05 1.47336e-05 1.47329e-05 1.47323e-05 1.47356e-05
        </DataArray>
        <DataArray type="Float32" Name="x^H2O_n" NumberOfComponents="1" format="ascii">
          1e-10 1e-10 1e-10 1e-10 1e-10 1e-10 1e-10 1e-10 1e-10 1e-10 1e-10 1e-10
          1e-10 1e-10 1e-10 1e-10 1e-10 1e-10 1e-10 1e-10 1e-10 1e-10 1e-10 1e-10
          1e-10 1e-10 1e-10 1e-10 1e-10 1e-10 1e-10 1e-10 1e-10 1e-10 1e-10 1e-10
          1e-10 1e-10 1e-10 1e-10 1e-10 1e-10 1e-10 1e-10 1e-10 1e-10 1e-10 1e-10
          1e-10 1e-10 1e-10 1e-10 1e-10 1e-10 1e-10 1e-10 1e-10 1e-10 1e-10 1e-10
          1e-10 1e-10 1e-10 1e-10 1e-10 1e-10 1e-10 1e-10 1e-10 1e-10 1e-10 1e-10
          1e-10 1e-10 1e-10 1e-10 1e-10 1e-10 1e-10 1e-10 1e-10 1e-10 1e-10 1e-10
          1e-10 1e-10 1e-10 1e-10 1e-10 1e-10 1e-10 1e-10 1e-10 1e-10 1e-10 1e-10
          1e-10 1e-10 1e-10 1e-10 1e-10 1e-10 1e-10 1e-10 1e-10 1e-10 1e-10 1e-10
          1e-10 1e-10 1e-10 1e-10 1e-10 1e-10 1e-10 1e-10 1e-10 1e-10 1e-10 1e-10
          1e-10 1e-10 1e-10 1e-10 1e-10 1e-10 1e-10 1e-10 1e-10 1e-10 1e-10 1e-10
          1e-10 1e-10 1e-10 1e-10 1e-10 1e-10 1e-10 1e-10 1e-10 1e-10 1e-10 1e-10
        </DataArray>
        <DataArray type="Float32" Name="x^mesitylene_n" NumberOfComponents="1" format="ascii">
          5.73101e-10 1.28617e-07 5.72877e-10 1.66842e-07 1.14299e-06 8.43682e-06 2.27167e-06 1.34995e-05 3.63923e-06 1.62162e-05 5.56626e-06 1.81107e-05
          8.34963e-06 2.0215e-05 1.22703e-05 2.33733e-05 1.75608e-05 2.77313e-05 2.46085e-05 3.34054e-05 3.46061e-05 4.08926e-05 5.39562e-05 5.49254e-05
          0.000336383 0.000328273 0.000421446 0.000421354 0.000436102 0.000435058 0.000438002 0.000438002 5.72898e-10 2.8194e-07 7.01797e-05 0.000103718
          0.000115046 0.0001163 0.000113872 0.000111458 0.00010828 0.000102267 8.9884e-05 7.80798e-05 8.43837e-05 9.0665e-05 9.78647e-05 0.000438002
          5.72942e-10 4.51276e-07 0.000573972 0.000759508 0.000756523 0.000729463 0.000701447 0.000668694 0.000627108 0.000566683 0.00047993 0.000400329
          0.000374101 0.000336747 0.000320836 0.000438002 5.72983e-10 5.79689e-07 0.0669928 0.0541397 0.0204347 0.00242952 0.000597724 0.000451411
          0.000441079 0.000438793 0.000434193 0.000426973 0.000418155 0.000334165 0.0233537 0.000438002 5.73001e-10 6.34484e-07 1 1
          1 1 1 1 1 0.171772 0.0209377 0.00270044 0.00265258 0.398079 0.504916 0.000438002
          5.72943e-10 4.99532e-07 1 1 1 1 1 1 1 0.184726 0.0227981 0.0268885
          0.133248 0.828938 0.777391 0.000438002 5.72868e-10 3.57801e-07 1 1 1 1 1 1
          1 0.980618 0.97208 0.963891 0.948484 0.852573 0.71951 0.000438002 5.7261e-10 1.99144e-07 0.0771798 0.101942
          0.109464 0.111679 0.112418 0.112381 0.112123 0.111767 0.111262 0.110577 0.109697 0.108506 0.10634 0.000438002
        </DataArray>
        <DataArray type="Float32" Name="x^Air_n" NumberOfComponents="1" format="ascii">
          1e-10 1e-10 1e-10 1e-10 1e-10 1e-10 1e-10 1e-10 1e-10 1e-10 1e-10 1e-10
          1e-10 1e-10 1e-10 1e-10 1e-10 1e-10 1e-10 1e-10 1e-10 1e-10 1e-10 1e-10
          1e-10 1e-10 1e-10 1e-10 1e-10 1e-10 1e-10 1e-10 1e-10 1e-10 1e-10 1e-10
          1e-10 1e-10 1e-10 1e-10 1e-10 1e-10 1e-10 1e-10 1e-10 1e-10 1e-10 1e-10
          1e-10 1e-10 1e-10 1e-10 1e-10 1e-10 1e-10 1e-10 1e-10 1e-10 1e-10 1e-10
          1e-10 1e-10 1e-10 1e-10 1e-10 1e-10 1e-10 1e-10 1e-10 1e-10 1e-10 1e-10
          1e-10 1e-10 1e-10 1e-10 1e-10 1e-10 1e-10 1e-10 1e-10 1e-10 1e-10 1e-10
          1e-10 1e-10 1e-10 1e-10 1e-10 1e-10 1e-10 1e-10 1e-10 1e-10 1e-10 1e-10
          1e-10 1e-10 1e-10 1e-10 1e-10 1e-10 1e-10 1e-10 1e-10 1e-10 1e-10 1e-10
          1e-10 1e-10 1e-10 1e-10 1e-10 1e-10 1e-10 1e-10 1e-10 1e-10 1e-10 1e-10
          1e-10 1e-10 1e-10 1e-10 1e-10 1e-10 1e-10 1e-10 1e-10 1e-10 1e-10 1e-10
          1e-10 1e-10 1e-10 1e-10 1e-10 1e-10 1e-10 1e-10 1e-10 1e-10 1e-10 1e-10
        </DataArray>
        <DataArray type="Float32" Name="x^H2O_g" NumberOfComponents="1" format="ascii">
          0.0577112 0.0238707 0.0577136 0.0238791 0.0232828 0.0232834 0.0232729 0.0232731 0.0232738 0.023274 0.0232749 0.0232751
          0.023276 0.0232763 0.0232772 0.0232774 0.0232783 0.0232785 0.0232793 0.0232796 0.0232803 0.0232807 0.0232809 0.0232814
          0.0232827 0.0232835 0.0232855 0.023286 0.0232876 0.0232879 0.0232898 0.0232898 0.0577137 0.0238974 0.0232848 0.0232733
          0.0232742 0.0232754 0.0232765 0.0232777 0.0232788 0.02328 0.0232812 0.0232826 0.0232846 0.0232865 0.0232881 0.0232898
          0.0577123 0.0238827 0.023287 0.0232736 0.0232745 0.0232756 0.0232768 0.0232779 0.0232791 0.0232803 0.0232816 0.0232832
          0.0232849 0.023287 0.0232885 0.0232898 0.0577101 0.0237455 0.023274 0.0232734 0.0232747 0.0232759 0.0232771 0.0232784
          0.0232796 0.0232809 0.0232823 0.023284 0.0232863 0.0232882 0.0232889 0.0232898 0.0577091 0.0237205 0.0232725 0.0232733
          0.0232748 0.0232762 0.0232775 0.0232787 0.02328 0.0232818 0.0232831 0.0232848 0.0232871 0.0232889 0.0232895 0.0232898
          0.0577107 0.0237496 0.0232729 0.0232734 0.0232751 0.0232765 0.023278 0.0232794 0.0232808 0.0232824 0.0232837 0.0232853
          0.0232873 0.0232893 0.0232897 0.0232898 0.0577136 0.0238904 0.0232153 0.0232721 0.0232753 0.0232768 0.0232783 0.0232797
          0.0232809 0.0232833 0.0232848 0.0232861 0.0232875 0.0232888 0.0232896 0.0232898 0.0577172 0.0239263 0.0232871 0.0232743
          0.0232757 0.0232771 0.0232786 0.02328 0.0232815 0.023283 0.0232844 0.0232857 0.0232871 0.0232883 0.0232893 0.0232898
        </DataArray>
        <DataArray type="Float32" Name="x^mesitylene_g" NumberOfComponents="1" format="ascii">
          3.56475e-12 3.02105e-10 3.5635e-12 3.9205e-10 2.60895e-09 1.9258e-08 5.18268e-09 3.07986e-08 8.30299e-09 3.6998e-08 1.27002e-08 4.13224e-08
          1.90517e-08 4.6126e-08 2.7999e-08 5.33352e-08 4.00732e-08 6.32826e-08 5.61583e-08 7.62344e-08 7.89767e-08 9.33251e-08 1.2314e-07 1.25355e-07
          7.67761e-07 7.49276e-07 9.62024e-07 9.61833e-07 9.95572e-07 9.93198e-07 1e-06 1e-06 3.56363e-12 6.63099e-10 1.60205e-07 2.36631e-07
          2.62487e-07 2.65359e-07 2.59834e-07 2.54337e-07 2.47097e-07 2.33386e-07 2.05138e-07 1.78208e-07 1.92613e-07 2.06967e-07 2.23418e-07 1e-06
          3.56382e-12 1.06061e-09 1.31039e-06 1.73282e-06 1.72608e-06 1.66442e-06 1.60058e-06 1.52592e-06 1.43109e-06 1.29327e-06 1.09534e-06 9.13729e-07
          8.53931e-07 7.68732e-07 7.32459e-07 1e-06 3.56394e-12 1.35335e-09 0.00015285 0.000123519 4.66241e-05 5.54353e-06 1.36392e-06 1.03011e-06
          1.00658e-06 1.00142e-06 9.90985e-07 9.74576e-07 9.54543e-07 7.62877e-07 5.33166e-05 1e-06 3.56399e-12 1.47948e-09 0.00228142 0.00228148
          0.00228163 0.00228176 0.00228189 0.00228201 0.00228214 0.000392038 4.77891e-05 6.16404e-06 6.0554e-06 0.000908821 0.00115276 1e-06
          3.56373e-12 1.16645e-09 0.00228145 0.00228149 0.00228166 0.0022818 0.00228194 0.00228208 0.00228222 0.000421613 5.20367e-05 6.1377e-05
          0.000304185 0.00189251 0.00177486 1e-06 3.56344e-12 8.41229e-10 0.00227504 0.00228134 0.00228168 0.00228182 0.00228197 0.00228211
          0.00228222 0.00223823 0.00221888 0.00220032 0.00216527 0.00194643 0.00164271 1e-06 3.56206e-12 4.69026e-10 0.000176204 0.00023259
          0.000249766 0.000254836 0.000256539 0.00025647 0.000255897 0.000255099 0.000253962 0.000252414 0.00025042 0.000247713 0.000242779 1e-06
        </DataArray>
        <DataArray type="Float32" Name="x^Air_g" NumberOfComponents="1" format="ascii">
          0.942289 0.976129 0.942286 0.976121 0.976717 0.976717 0.976727 0.976727 0.976726 0.976726 0.976725 0.976725
          0.976724 0.976724 0.976723 0.976723 0.976722 0.976721 0.976721 0.97672 0.97672 0.976719 0.976719 0.976718
          0.976717 0.976716 0.976714 0.976713 0.976711 0.976711 0.976709 0.976709 0.942286 0.976103 0.976715 0.976726
          0.976726 0.976724 0.976723 0.976722 0.976721 0.97672 0.976719 0.976717 0.976715 0.976713 0.976712 0.976709
          0.942288 0.976117 0.976712 0.976725 0.976724 0.976723 0.976722 0.976721 0.976719 0.976718 0.976717 0.976716
          0.976714 0.976712 0.976711 0.976709 0.94229 0.976255 0.976573 0.976603 0.976679 0.976719 0.976722 0.976721
          0.976719 0.976718 0.976717 0.976715 0.976713 0.976711 0.976658 0.976709 0.942291 0.976279 0.974446 0.974445
          0.974444 0.974442 0.974441 0.974439 0.974438 0.976326 0.976669 0.976709 0.976707 0.975802 0.975558 0.976709
          0.942289 0.97625 0.974446 0.974445 0.974443 0.974442 0.97444 0.974439 0.974437 0.976296 0.976664 0.976653
          0.976409 0.974818 0.974935 0.976709 0.942286 0.97611 0.97451 0.974447 0.974443 0.974441 0.97444 0.974438
          0.974437 0.974478 0.974496 0.974514 0.974547 0.974765 0.975068 0.976709 0.942283 0.976074 0.976537 0.976493
          0.976475 0.976468 0.976465 0.976463 0.976463 0.976462 0.976462 0.976462 0.976462 0.976464 0.976468 0.976709
        </DataArray>
        <DataArray type="Float32" Name="porosity" NumberOfComponents="1" format="ascii">
          0.42 0.42 0.42 0.42 0.42 0.42 0.42 0.42 0.42 0.42 0.42 0.42
          0.42 0.42 0.42 0.42 0.42 0.42 0.42 0.42 0.42 0.42 0.42 0.42
          0.42 0.42 0.42 0.42 0.42 0.42 0.42 0.42 0.42 0.42 0.42 0.42
          0.42 0.42 0.42 0.42 0.42 0.42 0.42 0.42 0.42 0.42 0.42 0.42
          0.42 0.42 0.42 0.42 0.42 0.42 0.42 0.42 0.42 0.42 0.42 0.42
          0.42 0.42 0.42 0.42 0.42 0.42 0.42 0.42 0.42 0.42 0.42 0.42
          0.42 0.42 0.42 0.42 0.42 0.42 0.42 0.42 0.42 0.42 0.42 0.42
          0.42 0.42 0.42 0.42 0.42 0.42 0.42 0.42 0.42 0.42 0.42 0.42
          0.42 0.42 0.42 0.42 0.42 0.42 0.42 0.42 0.42 0.42 0.42 0.42
          0.42 0.42 0.42 0.42 0.42 0.42 0.42 0.42 0.42 0.42 0.42 0.42
          0.42 0.42 0.42 0.42 0.42 0.42 0.42 0.42 0.42 0.42 0.42 0.42
          0.42 0.42 0.42 0.42 0.42 0.42 0.42 0.42 0.42 0.42 0.42 0.42
        </DataArray>
        <DataArray type="Float32" Name="temperature" NumberOfComponents="1" format="ascii">
          308.609 293.427 308.61 293.432 293.008 293.008 293 293 293 293 293 293
          293 293 293 293 293 293 293 293 293 293 293 293
          293 293 293 293 293 293 293 293 308.61 293.445 293.009 293
          293 293 293 293 293 293 293 293 293 293 293 293
          308.61 293.435 293.011 293 293 293 293 293 293 293 293 293
          293 293 293 293 308.609 293.338 293.002 293 293 293 293 293
          293 293 293 293 293 293 293 293 308.609 293.32 293.001 293
          293 293 293 293 293 293 293 293 293 293 293 293
          308.609 293.341 293.001 293 293 293 293 293 293 293 293 293
          293 293 293 293 308.61 293.44 292.959 292.999 293 293 293 293
          293 293 293 293 293 293 293 293 308.611 293.465 293.01 293
          293 293 293 293 293 293 293 293 293 293 293 293
        </DataArray>
        <DataArray type="Float32" Name="phase presence" NumberOfComponents="1" format="ascii">
          6 6 6 6 6 6 6 6 6 6 6 6
          6 6 6 6 6 6 6 6 6 6 6 6
          6 6 6 6 6 6 6 6 6 6 6 6
          6 6 6 6 6 6 6 6 6 6 6 6
          6 6 6 6 6 6 6 6 6 6 6 6
          6 6 6 6 6 6 6 6 6 6 6 6
          6 6 6 6 6 6 6 6 6 6 1 1
          1 1 1 1 1 6 6 6 6 6 6 6
          6 6 1 1 1 1 1 1 1 6 6 6
          6 6 6 6 6 6 1 1 1 1 1 1
          1 6 6 6 6 6 6 6 6 6 6 6
          6 6 6 6 6 6 6 6 6 6 6 6
        </DataArray>
        <DataArray type="Float32" Name="permeability" NumberOfComponents="1" format="ascii">
          9.14e-10 9.14e-10 9.14e-10 9.14e-10 9.14e-10 9.14e-10 9.14e-10 9.14e-10 9.14e-10 9.14e-10 9.14e-10 9.14e-10
          9.14e-10 9.14e-10 9.14e-10 9.14e-10 9.14e-10 9.14e-10 9.14e-10 9.14e-10 9.14e-10 9.14e-10 9.14e-10 9.14e-10
          6.28e-12 6.28e-12 6.28e-12 6.28e-12 6.28e-12 6.28e-12 6.28e-12 6.28e-12 9.14e-10 9.14e-10 9.14e-10 9.14e-10
          9.14e-10 9.14e-10 9.14e-10 9.14e-10 9.14e-10 9.14e-10 9.14e-10 9.14e-10 9.14e-10 9.14e-10 9.14e-10 9.14e-10
          9.14e-10 9.14e-10 9.14e-10 9.14e-10 9.14e-10 9.14e-10 9.14e-10 9.14e-10 9.14e-10 9.14e-10 9.14e-10 9.14e-10
          9.14e-10 9.14e-10 9.14e-10 9.14e-10 9.14e-10 9.14e-10 6.28e-12 6.28e-12 6.28e-12 6.28e-12 6.28e-12 6.28e-12
          6.28e-12 6.28e-12 6.28e-12 6.28e-12 6.28e-12 9.14e-10 9.14e-10 9.14e-10 9.14e-10 9.14e-10 6.28e-12 6.28e-12
          6.28e-12 6.28e-12 6.28e-12 6.28e-12 6.28e-12 6.28e-12 6.28e-12 6.28e-12 6.28e-12 9.14e-10 9.14e-10 9.14e-10
          9.14e-10 9.14e-10 6.28e-12 6.28e-12 6.28e-12 6.28e-12 6.28e-12 6.28e-12 6.28e-12 6.28e-12 6.28e-12 6.28e-12
          6.28e-12 9.14e-10 9.14e-10 9.14e-10 9.14e-10 9.14e-10 9.14e-10 9.14e-10 9.14e-10 9.14e-10 9.14e-10 9.14e-10
          9.14e-10 9.14e-10 9.14e-10 9.14e-10 9.14e-10 9.14e-10 9.14e-10 9.14e-10 9.14e-10 9.14e-10 9.14e-10 9.14e-10
          9.14e-10 9.14e-10 9.14e-10 9.14e-10 9.14e-10 9.14e-10 9.14e-10 9.14e-10 9.14e-10 9.14e-10 9.14e-10 9.14e-10
        </DataArray>
      </PointData>
      <CellData Scalars="process rank">
        <DataArray type="Float32" Name="process rank" NumberOfComponents="1" format="ascii">
          0 0 0 0 0 0 0 0 0 0 0 0
          0 0 0 0 0 0 0 0 0 0 0 0
          0 0 0 0 0 0 0 0 0 0 0 0
          0 0 0 0 0 0 0 0 0 0 0 0
          0 0 0 0 0 0 0 0 0 0 0 0
          0 0 0 0 0 0 0 0 0 0 0 0
          0 0 0 0 0 0 0 0 0 0 0 0
          0 0 0 0 0 0 0 0 0 0 0 0
          0 0 0 0 0 0 0 0 0 0 0 0
          0 0 0 0 0 0 0 0 0 0 0 0
        </DataArray>
      </CellData>
      <Points>
        <DataArray type="Float32" Name="Coordinates" NumberOfComponents="3" format="ascii">
          0 0 0 0.1 0 0 0 0.0925 0 0.1 0.0925 0
          0.2 0 0 0.2 0.0925 0 0.3 0 0 0.3 0.0925 0
          0.4 0 0 0.4 0.0925 0 0.5 0 0 0.5 0.0925 0