<?xml version="1.0"?>
<VTKFile type="UnstructuredGrid" version="0.1" byte_order="LittleEndian">
  <UnstructuredGrid>
    <Piece NumberOfCells="120" NumberOfPoints="144">
      <CellData Scalars="S_w">
        <DataArray type="Float32" Name="S_w" NumberOfComponents="1" format="ascii">
          0.299058 0.269131 0.197939 0.131121 0.120225 0.120019 0.120001 0.12 0.12 0.12 0.12 0.12
          0.12 0.12 0.12 0.193424 0.184726 0.157538 0.12416 0.120271 0.120023 0.120002 0.12 0.12
          0.12 0.12 0.12 0.12 0.12 0.12 0.18752 0.171477 0.156963 0.125386 0.120356 0.120029
          0.120002 0.12 0.119999 0.119999 0.119999 0.119999 0.119997 0.119999 0.119999 0.184413 0.143576 0.120483
          0.120006 0.120001 0.12 0.12 0.12 0.12 0.12 0.12 0.12 0.119999 0.12 0.12
          0.180907 0.138981 0.120062 0.120001 0.12 0.12 0.12 0.12 0.120001 0.12 0.12 0.12
          0.12 0.12 0.12 0.176598 0.145058 0.123695 0.120015 0.120001 0.12 0.12 0.12 0.120001
          0.120001 0.120001 0.120001 0.120001 0.120001 0.12 0.170827 0.191359 0.184888 0.133206 0.120565 0.12005
          0.120004 0.12 0.119998 0.12 0.12 0.12 0.12 0.12 0.12 0.160048 0.168989 0.15684
          0.126925 0.120597 0.120058 0.120005 0.12 0.12 0.12 0.12 0.12 0.12 0.12 0.12
        </DataArray>
        <DataArray type="Float32" Name="S_n" NumberOfComponents="1" format="ascii">
          0 0 0 0 0 0 0 0 0 0 0 0
          0 0 0 0 0 0 0 0 0 0 0 0
          0 0 0 0 0 0 0 0 0 0 0 0
          0 0 0 0 0 0 0 0 0 0 0 0
          0 0 0 0 0 0 0 0 0 0 0 0
          0 0 0.069888 0.0699682 0.0699609 0.0699562 0.0699516 0.0699288 0 0 0 0
          0 0 0 0 0 0.0700172 0.070017 0.0700016 0.0700001 0.07 0.0699897 0
          0 0 0 0 0 0 0 0 0.0582375 0.0751846 0.0704563 0.0700093
          0.0699676 0.0699371 0 0 0 0 0 0 0 0 0 0
          0 0 0 0 0 0 0 0 0 0 0 0
        </DataArray>
        <DataArray type="Float32" Name="S_g" NumberOfComponents="1" format="ascii">
          0.700942 0.730869 0.802061 0.868879 0.879775 0.879981 0.879999 0.88 0.88 0.88 0.88 0.88
          0.88 0.88 0.88 0.806576 0.815274 0.842462 0.87584 0.879729 0.879977 0.879998 0.88 0.88
          0.88 0.88 0.88 0.88 0.88 0.88 0.81248 0.828523 0.843037 0.874614 0.879644 0.879971
          0.879998 0.88 0.88 0.880001 0.880001 0.880001 0.880003 0.880001 0.880001 0.815587 0.856424 0.879517
          0.879994 0.879999 0.88 0.88 0.88 0.88 0.88 0.88 0.88 0.880001 0.88 0.88
          0.819093 0.861019 0.81005 0.810031 0.810039 0.810044 0.810049 0.810071 0.879999 0.88 0.88 0.88
          0.88 0.88 0.88 0.823402 0.854942 0.806288 0.809968 0.809998 0.81 0.81 0.81001 0.879999
          0.879999 0.879999 0.879999 0.879999 0.879999 0.88 0.829173 0.808641 0.756875 0.791609 0.808978 0.80994
          0.810029 0.810063 0.880002 0.88 0.88 0.88 0.88 0.88 0.88 0.839952 0.831011 0.84316
          0.873075 0.879403 0.879942 0.879995 0.88 0.88 0.88 0.88 0.88 0.88 0.88 0.88
        </DataArray>
        <DataArray type="Float32" Name="p_w" NumberOfComponents="1" format="ascii">
          99776.7 99740.2 99638.5 99218.6 98841.9 98829.8 98824.4 98819.6 98814.9 98810.4 98806.4 98803.7
          87654 87639.6 87628.1 99653.2 99619.3 99511.8 98984.5 98842.5 98828.9 98823.3 98818.5 98813.7
          98808.9 98804.3 98800.4 87648.5 87636.1 87627 99643.8 99581.3 99508.2 99026.7 98844.4 98828
          98822.2 98817.3 98812.4 98807.3 98801.5 98793.9 98780 98772.1 98765.6 99646.5 93425.5 87875.2
          87698.8 87690.8 87685.1 87679.9 87674.7 87669.3 87663.5 87656.4 87645.4 98773.8 98769.8 98764.9
          99639.9 92923 83123.1 83086.8 83079.3 83073.2 83067.7 83062.8 87664.1 87657.7 87650 87639.3
          98771 98768.2 98764.3 99622.7 93558 84474 83086.9 83074 83067.4 83061.3 83055.6 87659.3
          87653.2 87646.3 87637.7 98770.4 98767.6 98764.1 99591.7 99630.5 99286.8 98829.8 98381.9 98355.5
          98347.7 98341.6 98796.1 98790.2 98784.3 98778.2 98772 98767.7 98764 99543 99565.4 99499
          99070.2 98840.7 98815.6 98807.6 98801.3 98795.1 98789.2 98783.2 98777.4 98771.8 98767.3 98763.6
        </DataArray>
        <DataArray type="Float32" Name="p_n" NumberOfComponents="1" format="ascii">
          99776.7 99740.2 99638.5 99218.6 98841.9 98829.8 98824.4 98819.6 98814.9 98810.4 98806.4 98803.7
          87654 87639.6 87628.1 99653.2 99619.3 99511.8 98984.5 98842.5 98828.9 98823.3 98818.5 98813.7
          98808.9 98804.3 98800.4 87648.5 87636.1 87627 99643.8 99581.3 99508.2 99026.7 98844.4 98828
          98822.2 98817.3 98812.4 98807.3 98801.5 98793.9 98780 98772.1 98765.6 99646.5 93425.5 87875.2
          87698.8 87690.8 87685.1 87679.9 87674.7 87669.3 87663.5 87656.4 87645.4 98773.8 98769.8 98764.9
          99639.9 92923 95459 95458.3 95450 95443.1 95436.7 95427.9 87664.1 87657.7 87650 87639.3
          98771 98768.2 98764.3 99622.7 93558 95550.3 95459.3 95451.3 95444.9 95438.8 95431.4 87659.3
          87653.2 87646.3 87637.7 98770.4 98767.6 98764.1 99591.7 99630.5 99680.5 99639.9 99599.8 99591.5
          99584.8 99578.2 98796.1 98790.2 98784.3 98778.2 98772 98767.7 98764 99543 99565.4 99499
          99070.2 98840.7 98815.6 98807.6 98801.3 98795.1 98789.2 98783.2 98777.4 98771.8 98767.3 98763.6
        </DataArray>
        <DataArray type="Float32" Name="p_g" NumberOfComponents="1" format="ascii">
          100106 100093 100083 100077 100072 100067 100062 100057 100053 100048 100044 100041
          100032 100017 100006 100107 100093 100082 100076 100071 100066 100061 100056 100051
          100047 100042 100038 100026 100014 100005 100111 100094 100081 100075 100070 100065
          100060 100055 100050 100045 100039 100032 100018 100010 100003 100121 100096 100083
          100074 100068 100063 100057 100052 100047 100041 100034 100023 100012 100008 100003
          100124 100097 100083 100073 100065 100059 100053 100048 100041 100035 100028 100017
          100009 100006 100002 100119 100093 100079 100069 100061 100055 100049 100043 100037
          100031 100024 100015 100008 100005 100002 100106 100089 100075 100065 100058 100052
          100046 100040 100034 100028 100022 100016 100010 100005 100002 100101 100086 100073
          100064 100057 100051 100045 100039 100033 100027 100021 100015 100010 100005 100001
        </DataArray>
        <DataArray type="Float32" Name="rho_w" NumberOfComponents="1" format="ascii">
          975.16 981.367 993.283 997.652 998.177 998.225 998.229 998.229 998.229 998.229 998.229 998.229
          998.224 998.224 998.224 975.062 979.552 992.144 997.529 998.166 998.224 998.229 998.229 998.229
          998.229 998.229 998.229 998.224 998.224 998.224 975.198 978.393 990.621 997.324 998.15 998.223
          998.23 998.23 998.23 998.23 998.23 998.23 998.23 998.23 998.23 975.425 995.788 997.984
          998.212 998.237 998.239 998.238 998.237 998.234 998.231 998.229 998.227 998.23 998.23 998.231
          975.44 996.466 998.175 998.256 998.261 998.261 998.261 998.261 998.248 998.241 998.237 998.235
          998.237 998.239 998.242 975.411 995.727 997.952 998.223 998.257 998.261 998.261 998.261 998.256
          998.251 998.249 998.25 998.261 998.26 998.258 975.178 977.905 989.639 996.974 998.142 998.256
          998.267 998.268 998.267 998.266 998.266 998.264 998.262 998.259 998.255 974.987 978.271 989.656
          996.976 998.117 998.233 998.245 998.246 998.246 998.246 998.246 998.246 998.246 998.246 998.245
        </DataArray>
        <DataArray type="Float32" Name="rho_n" NumberOfComponents="1" format="ascii">
          823.982 833.621 856.245 868.48 870.458 870.654 870.671 870.673 870.673 870.673 870.673 870.673
          870.673 870.673 870.673 823.839 830.71 853.654 868.049 870.413 870.65 870.671 870.673 870.673
          870.673 870.673 870.673 870.673 870.673 870.673 824.037 828.903 850.404 867.331 870.345 870.646
          870.672 870.674 870.674 870.674 870.673 870.674 870.674 870.674 870.673 824.375 862.631 869.637
          870.562 870.664 870.673 870.674 870.674 870.673 870.673 870.673 870.673 870.674 870.674 870.673
          824.398 864.592 870.313 870.654 870.672 870.674 870.674 870.674 870.673 870.673 870.673 870.674
          870.674 870.674 870.671 824.354 862.451 869.401 870.513 870.657 870.672 870.673 870.673 870.673
          870.673 870.673 870.672 870.67 870.67 870.668 824.009 828.143 848.002 865.99 870.146 870.622
          870.669 870.674 870.671 870.669 870.669 870.669 870.67 870.671 870.669 823.728 828.714 848.4
          866.119 870.14 870.621 870.671 870.675 870.676 870.676 870.676 870.675 870.675 870.675 870.673
        </DataArray>
        <DataArray type="Float32" Name="rho_g" NumberOfComponents="1" format="ascii">
          0.861745 0.944794 1.09665 1.16685 1.17797 1.17902 1.17906 1.17901 1.17895 1.1789 1.17885 1.17882
          1.17871 1.17854 1.1784 0.860347 0.921179 1.08118 1.1644 1.17771 1.17899 1.17905 1.17901 1.17895
          1.17889 1.17884 1.17879 1.17865 1.17851 1.17841 0.862331 0.905736 1.06128 1.16041 1.17741 1.17906
          1.17917 1.17914 1.17909 1.17902 1.17892 1.17878 1.17861 1.17852 1.17846 0.865617 1.13438 1.17583
          1.18171 1.18241 1.18231 1.18209 1.18178 1.18101 1.1803 1.17974 1.17923 1.17857 1.17852 1.17879
          0.865847 1.14623 1.18606 1.18763 1.18763 1.18757 1.1875 1.18743 1.18411 1.18247 1.18151 1.18093
          1.17997 1.18047 1.18123 0.865406 1.13398 1.18155 1.18688 1.18751 1.18751 1.18744 1.18737 1.18577
          1.18461 1.184 1.18425 1.18549 1.18522 1.18478 0.86201 0.899272 1.08705 1.16486 1.18495 1.18723
          1.18739 1.18734 1.18708 1.18691 1.18673 1.1864 1.18565 1.18495 1.18417 0.85921 0.904052 1.05174
          1.15697 1.17968 1.1823 1.18248 1.18241 1.18233 1.18224 1.18215 1.18206 1.18197 1.18188 1.18173
        </DataArray>
        <DataArray type="Float32" Name="x^H2O_w" NumberOfComponents="1" format="ascii">
          0.999994 0.999992 0.999989 0.999986 0.999985 0.999985 0.999985 0.999985 0.999985 0.999985 0.999985 0.999985
          0.999985 0.999985 0.999985 0.999994 0.999993 0.999989 0.999986 0.999985 0.999985 0.999985 0.999985 0.999985
          0.999985 0.999985 0.999985 0.999985 0.999985 0.999985 0.999994 0.999993 0.99999 0.999986 0.999985 0.999985
          0.999985 0.999985 0.999985 0.999985 0.999985 0.999985 0.999985 0.999985 0.999985 0.999994 0.999987 0.999984
          0.999983 0.999983 0.999983 0.999983 0.999983 0.999984 0.999984 0.999984 0.999985 0.999985 0.999985 0.999985
          0.999994 0.999986 0.999978 0.999978 0.999978 0.999978 0.999978 0.999978 0.999981 0.999982 0.999983 0.999983
          0.999984 0.999984 0.999983 0.999994 0.999987 0.999978 0.999978 0.999978 0.999978 0.999978 0.999978 0.99998
          0.999981 0.999981 0.999981 0.99998 0.99998 0.99998 0.999994 0.999993 0.999954 0.999977 0.999978 0.999978
          0.999978 0.999978 0.999979 0.999979 0.999979 0.999979 0.999979 0.99998 0.999981 0.999994 0.999993 0.999987
          0.999984 0.999982 0.999982 0.999982 0.999982 0.999982 0.999982 0.999982 0.999982 0.999982 0.999982 0.999983
        </DataArray>
        <DataArray type="Float32" Name="x^mesitylene_w" NumberOfComponents="1" format="ascii">
          1.08406e-10 3.41182e-10 6.78031e-10 8.72625e-10 9.60789e-10 1.00605e-09 1.05633e-09 1.11232e-09 1.17331e-09 1.2365e-09 1.29692e-09 1.38008e-09
          3.82849e-09 7.22517e-09 8.24558e-09 7.37023e-10 1.69159e-09 4.0991e-09 5.45829e-09 6.22711e-09 6.87165e-09 7.59904e-09 8.34481e-09 8.91829e-09
          8.93013e-09 7.82912e-09 5.56102e-09 1.20022e-08 1.86701e-08 2.0786e-08 1.97416e-09 6.44421e-09 3.15057e-08 5.6646e-08 7.67159e-08 9.55248e-08
          1.12438e-07 1.26104e-07 1.31411e-07 1.23656e-07 9.70864e-08 5.67455e-08 5.62992e-08 5.60933e-08 7.05886e-08 3.39672e-09 4.14678e-07 1.89103e-06
          2.52879e-06 2.69248e-06 2.6168e-06 2.48911e-06 2.29203e-06 1.72285e-06 1.2039e-06 8.1551e-07 5.09213e-07 7.69821e-08 8.3554e-08 3.45811e-07
          5.64339e-09 9.57462e-07 7.1117e-06 6.91352e-06 6.90279e-06 6.90203e-06 6.90184e-06 6.90174e-06 4.27673e-06 3.00973e-06 2.31249e-06 1.94531e-06
          1.24265e-06 1.67467e-06 2.3379e-06 5.69194e-09 9.72926e-07 7.66496e-06 6.99476e-06 6.91171e-06 6.90333e-06 6.90256e-06 6.90245e-06 5.66762e-06
          4.79287e-06 4.3576e-06 4.64694e-06 5.72723e-06 5.53809e-06 5.22835e-06 3.6111e-09 1.07644e-07 3.62283e-05 1.00764e-05 7.21053e-06 6.93157e-06
          6.90493e-06 6.90197e-06 6.76907e-06 6.69476e-06 6.60405e-06 6.39952e-06 5.84332e-06 5.31923e-06 4.72968e-06 1.39964e-09 2.36645e-08 2.75485e-06
          2.96524e-06 2.97194e-06 2.95531e-06 2.93722e-06 2.91981e-06 2.90579e-06 2.89192e-06 2.87827e-06 2.86402e-06 2.84619e-06 2.82069e-06 2.73927e-06
        </DataArray>
        <DataArray type="Float32" Name="x^Air_w" NumberOfComponents="1" format="ascii">
          5.91776e-06 7.54601e-06 1.10768e-05 1.40279e-05 1.46727e-05 1.47392e-05 1.47445e-05 1.47443e-05 1.47436e-05 1.4743e-05 1.47423e-05 1.47419e-05
          1.47404e-05 1.47382e-05 1.47364e-05 5.88959e-06 7.085e-06 1.06067e-05 1.38949e-05 1.46572e-05 1.47377e-05 1.47443e-05 1.47441e-05 1.47434e-05
          1.47427e-05 1.4742e-05 1.47414e-05 1.47395e-05 1.47376e-05 1.47362e-05 5.92901e-06 6.78263e-06 1.00615e-05 1.36799e-05 1.46338e-05 1.47356e-05
          1.47438e-05 1.47437e-05 1.47428e-05 1.4742e-05 1.47413e-05 1.47404e-05 1.47385e-05 1.47371e-05 1.4736e-05 5.99315e-06 1.24319e-05 1.43912e-05
          1.46961e-05 1.47293e-05 1.47321e-05 1.47322e-05 1.47324e-05 1.47343e-05 1.4736e-05 1.47368e-05 1.47367e-05 1.47374e-05 1.47367e-05 1.47345e-05
          5.99734e-06 1.29197e-05 1.45898e-05 1.47055e-05 1.47109e-05 1.47104e-05 1.47097e-05 1.47089e-05 1.47206e-05 1.4726e-05 1.47284e-05 1.47287e-05
          1.47312e-05 1.47284e-05 1.47238e-05 5.9892e-06 1.23861e-05 1.42856e-05 1.46563e-05 1.47049e-05 1.4709e-05 1.47086e-05 1.47077e-05 1.47129e-05
          1.47164e-05 1.47176e-05 1.47146e-05 1.47073e-05 1.47079e-05 1.47082e-05 5.92298e-06 6.65496e-06 9.55313e-06 1.32497e-05 1.45295e-05 1.46916e-05
          1.47067e-05 1.47076e-05 1.47063e-05 1.47052e-05 1.47046e-05 1.47048e-05 1.47071e-05 1.47092e-05 1.47111e-05 5.86735e-06 6.75013e-06 9.73569e-06
          1.33182e-05 1.45483e-05 1.47109e-05 1.4727e-05 1.47278e-05 1.47271e-05 1.47263e-05 1.47254e-05 1.47245e-05 1.47237e-05 1.47229e-05 1.47223e-05
        </DataArray>
        <DataArray type="Float32" Name="x^H2O_n" NumberOfComponents="1" format="ascii">
          1e-10 1e-10 1e-10 1e-10 1e-10 1e-10 1e-10 1e-10 1e-10 1e-10 1e-10 1e-10
          1e-10 1e-10 1e-10 1e-10 1e-10 1e-10 1e-10 1e-10 1e-10 1e-10 1e-10 1e-10
          1e-10 1e-10 1e-10 1e-10 1e-10 1e-10 1e-10 1e-10 1e-10 1e-10 1e-10 1e-10
          1e-10 1e-10 1e-10 1e-10 1e-10 1e-10 1e-10 1e-10 1e-10 1e-10 1e-10 1e-10
          1e-10 1e-10 1e-10 1e-10 1e-10 1e-10 1e-10 1e-10 1e-10 1e-10 1e-10 1e-10
          1e-10 1e-10 1e-10 1e-10 1e-10 1e-10 1e-10 1e-10 1e-10 1e-10 1e-10 1e-10
          1e-10 1e-10 1e-10 1e-10 1e-10 1e-10 1e-10 1e-10 1e-10 1e-10 1e-10 1e-10
          1e-10 1e-10 1e-10 1e-10 1e-10 1e-10 1e-10 1e-10 1e-10 1e-10 1e-10 1e-10
          1e-10 1e-10 1e-10 1e-10 1e-10 1e-10 1e-10 1e-10 1e-10 1e-10 1e-10 1e-10
          1e-10 1e-10 1e-10 1e-10 1e-10 1e-10 1e-10 1e-10 1e-10 1e-10 1e-10 1e-10
        </DataArray>
        <DataArray type="Float32" Name="x^mesitylene_n" NumberOfComponents="1" format="ascii">
          7.59362e-07 3.98428e-06 3.25983e-05 0.000105621 0.000136733 0.000145521 0.000153017 0.000161147 0.000169984 0.000179139 0.000187891 0.000199938
          0.000554648 0.00104674 0.00119457 5.12538e-06 1.68428e-05 0.000164651 0.000638073 0.000882898 0.000993654 0.00110076 0.00120896 0.00129206
          0.00129377 0.00113426 0.000805661 0.00173882 0.00270482 0.00301136 1.38671e-05 5.82497e-05 0.00101714 0.00625156 0.0108166 0.0138081
          0.0162879 0.0182706 0.0190394 0.0179154 0.0140659 0.00822143 0.00815708 0.00812698 0.0102268 2.42727e-05 0.0317672 0.251512
          0.362998 0.389777 0.37911 0.360635 0.332084 0.249608 0.17442 0.11815 0.0737746 0.0111538 0.0121059 0.0501011
          4.0373e-05 0.0852121 1 1 1 1 1 1 0.619587 0.436043 0.335033 0.28184
          0.180049 0.242631 0.338658 4.06305e-05 0.0735273 1 1 1 1 1 1 0.821085
          0.694373 0.63132 0.673198 0.829534 0.802155 0.75715 2.5329e-05 0.000934669 1 1 1 1
          1 1 0.980495 0.969613 0.956439 0.926835 0.846368 0.770493 0.685007 9.6792e-06 0.000211768 0.0780206
          0.297291 0.411964 0.426325 0.425446 0.423094 0.421078 0.419063 0.417081 0.41501 0.412417 0.408705 0.39686
        </DataArray>
        <DataArray type="Float32" Name="x^Air_n" NumberOfComponents="1" format="ascii">
          1e-10 1e-10 1e-10 1e-10 1e-10 1e-10 1e-10 1e-10 1e-10 1e-10 1e-10 1e-10
          1e-10 1e-10 1e-10 1e-10 1e-10 1e-10 1e-10 1e-10 1e-10 1e-10 1e-10 1e-10
          1e-10 1e-10 1e-10 1e-10 1e-10 1e-10 1e-10 1e-10 1e-10 1e-10 1e-10 1e-10
          1e-10 1e-10 1e-10 1e-10 1e-10 1e-10 1e-10 1e-10 1e-10 1e-10 1e-10 1e-10
          1e-10 1e-10 1e-10 1e-10 1e-10 1e-10 1e-10 1e-10 1e-10 1e-10 1e-10 1e-10
          1e-10 1e-10 1e-10 1e-10 1e-10 1e-10 1e-10 1e-10 1e-10 1e-10 1e-10 1e-10
          1e-10 1e-10 1e-10 1e-10 1e-10 1e-10 1e-10 1e-10 1e-10 1e-10 1e-10 1e-10
          1e-10 1e-10 1e-10 1e-10 1e-10 1e-10 1e-10 1e-10 1e-10 1e-10 1e-10 1e-10
          1e-10 1e-10 1e-10 1e-10 1e-10 1e-10 1e-10 1e-10 1e-10 1e-10 1e-10 1e-10
          1e-10 1e-10 1e-10 1e-10 1e-10 1e-10 1e-10 1e-10 1e-10 1e-10 1e-10 1e-10
        </DataArray>
        <DataArray type="Float32" Name="x^H2O_g" NumberOfComponents="1" format="ascii">
          0.377667 0.234147 0.0634704 0.0273767 0.023639 0.0233064 0.0232777 0.0232763 0.0232772 0.0232782 0.0232792 0.02328
          0.0232824 0.0232857 0.0232884 0.380375 0.271852 0.0748324 0.0282608 0.0237159 0.0233129 0.0232783 0.0232764 0.0232773
          0.0232784 0.0232795 0.0232805 0.0232835 0.0232865 0.0232886 0.376611 0.298062 0.0915019 0.0297321 0.0238307 0.0233205
          0.0232775 0.0232752 0.0232766 0.0232782 0.0232797 0.0232811 0.0232836 0.0232861 0.0232881 0.370558 0.0414553 0.0250322
          0.0234613 0.0232893 0.0232749 0.0232747 0.0232759 0.0232779 0.0232795 0.0232812 0.0232836 0.0232851 0.0232862 0.0232882
          0.370176 0.0361564 0.0238834 0.0233054 0.0232752 0.0232744 0.0232752 0.0232762 0.02328 0.023281 0.0232825 0.0232847
          0.0232853 0.023287 0.0232918 0.370919 0.0419823 0.0254842 0.023546 0.0233026 0.0232792 0.0232783 0.0232794 0.0232813
          0.0232823 0.0232836 0.0232869 0.0232926 0.0232928 0.0232975 0.377165 0.309306 0.105641 0.0327366 0.0241734 0.0233635
          0.023286 0.0232787 0.0232853 0.0232892 0.0232914 0.0232924 0.0232918 0.0232918 0.0232953 0.382482 0.300883 0.103048
          0.0324184 0.0241838 0.0233653 0.023283 0.0232763 0.023277 0.0232786 0.0232802 0.0232818 0.0232836 0.0232855 0.0232888
        </DataArray>
        <DataArray type="Float32" Name="x^mesitylene_g" NumberOfComponents="1" format="ascii">
          3.58184e-08 1.12745e-07 2.2408e-07 2.88408e-07 3.17563e-07 3.32538e-07 3.49175e-07 3.677e-07 3.87879e-07 4.08787e-07 4.28778e-07 4.56286e-07
          1.26591e-06 2.38938e-06 2.72715e-06 2.43518e-07 5.58991e-07 1.35471e-06 1.80402e-06 2.05822e-06 2.27137e-06 2.51193e-06 2.75858e-06 2.9483e-06
          2.95235e-06 2.58847e-06 1.83866e-06 3.96882e-06 6.17449e-06 6.87487e-06 6.52251e-07 2.12949e-06 1.04123e-05 1.87222e-05 2.53569e-05 3.15753e-05
          3.71677e-05 4.16871e-05 4.34437e-05 4.0882e-05 3.20997e-05 1.87632e-05 1.86182e-05 1.85516e-05 2.33471e-05 1.12214e-06 0.000137027 0.000624961
          0.000835802 0.000889959 0.000864991 0.000822825 0.000757717 0.000569585 0.000398039 0.000269647 0.000168389 2.54596e-05 2.76342e-05 0.000114378
          1.8643e-06 0.000316383 0.00235032 0.00228506 0.00228168 0.00228157 0.00228164 0.00228173 0.00141398 0.000995149 0.000764668 0.000643323
          0.000410984 0.00055388 0.000773267 1.88044e-06 0.000321505 0.00253327 0.002312 0.00228471 0.00228209 0.00228197 0.00228208 0.00187393
          0.00158481 0.00144098 0.00153679 0.00189418 0.00183168 0.0017293 1.19314e-06 3.55728e-05 0.0119739 0.0033307 0.00238356 0.00229149
          0.00228282 0.00228198 0.00223818 0.00221374 0.00218388 0.00211637 0.00193255 0.00175929 0.00156436 4.62478e-07 7.82051e-06 0.000910532
          0.000980154 0.000982435 0.000976998 0.000971075 0.000965378 0.000960804 0.000956274 0.000951818 0.000947159 0.000941316 0.000932923 0.000906028
        </DataArray>
        <DataArray type="Float32" Name="x^Air_g" NumberOfComponents="1" format="ascii">
          0.622333 0.765852 0.936529 0.972623 0.976361 0.976693 0.976722 0.976723 0.976722 0.976721 0.97672 0.97672
          0.976716 0.976712 0.976709 0.619625 0.728147 0.925166 0.971737 0.976282 0.976685 0.976719 0.976721 0.97672
          0.976719 0.976718 0.976718 0.976713 0.976707 0.976704 0.623388 0.701936 0.908488 0.970249 0.976144 0.976648
          0.976685 0.976683 0.97668 0.976681 0.976688 0.9767 0.976698 0.976695 0.976689 0.62944 0.958408 0.974343
          0.975703 0.975821 0.97586 0.975902 0.975966 0.976153 0.976322 0.976449 0.976548 0.97669 0.976686 0.976597
          0.629822 0.963527 0.973766 0.97441 0.974443 0.974444 0.974443 0.974442 0.975306 0.975724 0.975953 0.976072
          0.976304 0.976159 0.975935 0.629079 0.957696 0.971982 0.974142 0.974413 0.974439 0.97444 0.974438 0.974845
          0.975133 0.975275 0.975176 0.974813 0.974876 0.974973 0.622834 0.690659 0.882385 0.963933 0.973443 0.974345
          0.974431 0.974439 0.974477 0.974497 0.974525 0.974591 0.974776 0.974949 0.97514 0.617517 0.699109 0.896042
          0.966601 0.974834 0.975658 0.975746 0.975758 0.975762 0.975765 0.975768 0.975771 0.975775 0.975782 0.975805
        </DataArray>
        <DataArray type="Float32" Name="porosity" NumberOfComponents="1" format="ascii">
          0.42 0.42 0.42 0.42 0.42 0.42 0.42 0.42 0.42 0.42 0.42 0.42
          0.42 0.42 0.42 0.42 0.42 0.42 0.42 0.42 0.42 0.42 0.42 0.42
          0.42 0.42 0.42 0.42 0.42 0.42 0.42 0.42 0.42 0.42 0.42 0.42
          0.42 0.42 0.42 0.42 0.42 0.42 0.42 0.42 0.42 0.42 0.42 0.42
          0.42 0.42 0.42 0.42 0.42 0.42 0.42 0.42 0.42 0.42 0.42 0.42
          0.42 0.42 0.42 0.42 0.42 0.42 0.42 0.42 0.42 0.42 0.42 0.42
          0.42 0.42 0.42 0.42 0.42 0.42 0.42 0.42 0.42 0.42 0.42 0.42
          0.42 0.42 0.42 0.42 0.42 0.42 0.42 0.42 0.42 0.42 0.42 0.42
          0.42 0.42 0.42 0.42 0.42 0.42 0.42 0.42 0.42 0.42 0.42 0.42
          0.42 0.42 0.42 0.42 0.42 0.42 0.42 0.42 0.42 0.42 0.42 0.42
        </DataArray>
        <DataArray type="Float32" Name="temperature" NumberOfComponents="1" format="ascii">
          347.642 336.669 310.281 295.649 293.26 293.023 293.002 293 293 293 293 293
          293 293 293 347.804 340 313.347 296.169 293.315 293.027 293.002 293 293
          293 293 293 293 293 293 347.58 342.061 317.178 297.034 293.396 293.033
          293.001 292.999 292.999 292.999 292.999 292.999 292.999 292.999 292.999 347.198 302.675 294.252
          293.134 293.011 293 292.999 292.999 292.999 292.999 293 292.999 292.999 292.999 292.999
          347.172 300.326 293.436 293.023 293 292.999 292.998 292.998 293 293 292.999 292.999
          292.998 292.999 293.002 347.222 302.89 294.537 293.193 293.019 293.002 293 293 293
          293 293 293 293.003 293.003 293.006 347.612 342.926 319.997 298.648 293.638 293.061
          293.005 292.999 293.002 293.004 293.005 293.004 293.003 293.002 293.004 347.929 342.276 319.531
          298.492 293.645 293.062 293.003 292.997 292.996 292.996 292.997 292.997 292.997 292.998 293
        </DataArray>
        <DataArray type="Float32" Name="phase presence" NumberOfComponents="1" format="ascii">
          6 6 6 6 6 6 6 6 6 6 6 6
          6 6 6 6 6 6 6 6 6 6 6 6
          6 6 6 6 6 6 6 6 6 6 6 6
          6 6 6 6 6 6 6 6 6 6 6 6
          6 6 6 6 6 6 6 6 6 6 6 6
          6 6 1 1 1 1 1 1 6 6 6 6
          6 6 6 6 6 1 1 1 1 1 1 6
          6 6 6 6 6 6 6 6 1 1 1 1
          1 1 6 6 6 6 6 6 6 6 6 6
          6 6 6 6 6 6 6 6 6 6 6 6
        </DataArray>
        <DataArray type="Float32" Name="process rank" NumberOfComponents="1" format="ascii">
          0 0 0 0 0 0 0 0 0 0 0 0
          0 0 0 0 0 0 0 0 0 0 0 0
          0 0 0 0 0 0 0 0 0 0 0 0
          0 0 0 0 0 0 0 0 0 0 0 0
          0 0 0 0 0 0 0 0 0 0 0 0
          0 0 0 0 0 0 0 0 0 0 0 0
          0 0 0 0 0 0 0 0 0 0 0 0
          0 0 0 0 0 0 0 0 0 0 0 0
          0 0 0 0 0 0 0 0 0 0 0 0
          0 0 0 0 0 0 0 0 0 0 0 0
        </DataArray>
        <DataArray type="Float32" Name="permeability" NumberOfComponents="1" format="ascii">
          9.14e-10 9.14e-10 9.14e-10 9.14e-10 9.14e-10 9.14e-10 9.14e-10 9.14e-10 9.14e-10 9.14e-10 9.14e-10 9.14e-10
          6.28e-12 6.28e-12 6.28e-12 9.14e-10 9.14e-10 9.14e-10 9.14e-10 9.14e-10 9.14e-10 9.14e-10 9.14e-10 9.14e-10
          9.14e-10 9.14e-10 9.14e-10 6.28e-12 6.28e-12 6.28e-12 9.14e-10 9.14e-10 9.14e-10 9.14e-10 9.14e-10 9.14e-10
          9.14e-10 9.14e-10 9.14e-10 9.14e-10 9.14e-10 9.14e-10 9.14e-10 9.14e-10 9.14e-10 9.14e-10 6.28e-12 6.28e-12
          6.28e-12 6.28e-12 6.28e-12 6.28e-12 6.28e-12 6.28e-12 6.28e-12 6.28e-12 6.28e-12 9.14e-10 9.14e-10 9.14e-10
          9.14e-10 6.28e-12 6.28e-12 6.28e-12 6.28e-12 6.28e-12 6.28e-12 6.28e-12 6.28e-12 6.28e-12 6.28e-12 6.28e-12
          9.14e-10 9.14e-10 9.14e-10 9.14e-10 6.28e-12 6.28e-12 6.28e-12 6.28e-12 6.28e-12 6.28e-12 6.28e-12 6.28e-12
          6.28e-12 6.28e-12 6.28e-12 9.14e-10 9.14e-10 9.14e-10 9.14e-10 9.14e-10 9.14e-10 9.14e-10 9.14e-10 9.14e-10
          9.14e-10 9.14e-10 9.14e-10 9.14e-10 9.14e-10 9.14e-10 9.14e-10 9.14e-10 9.14e-10 9.14e-10 9.14e-10 9.14e-10
          9.14e-10 9.14e-10 9.14e-10 9.14e-10 9.14e-10 9.14e-10 9.14e-10 9.14e-10 9.14e-10 9.14e-10 9.14e-10 9.14e-10
        </DataArray>
      </CellData>
      <Points>
        <DataArray type="Float32" Name="Coordinates" NumberOfComponents="3" format="ascii">
          0 0 0 0.1 0 0 0 0.0925 0 0.1 0.0925 0
          0.2 0 0 0.2 0.0925 0 0.3 0 0 0.3 0.0925 0
          0.4 0 0 0.4 0.0925 0 0.5 0 0 0.5 0.0925 0
          0.6 0 0 0.6 0.0925 0 0.7 0 0 0.7 0.0925 0
          0.8 0 0 0.8 0.0925 0 0.9 0 0 0.9 0.0925 0
          1 0 0 1 0.0925 0 1.1 0 0 1.1 0.0925 0
          1.2 0 0 1.2 0.0925 0 1.3 0 0 1.3 0.0925 0
          1.4 0 0 1.4 0.0925 0 1.5 0 0 1.5 0.0925 0
          0 0.185 0 0.1 0.185 0 0.2 0.185 0 0.3 0.185 0
          0.4 0.185 0 0.5 0.185 0 0.6 0.185 0 0.7 0.185 0
          0.8 0.185 0 0.9 0.185 0 1 0.185 0 1.1 0.185 0
          1.2 0.185 0 1.3 0.185 0 1.4 0.185 0 1.5 0.185 0
          0 0.2775 0 0.1 0.2775 0 0.2 0.2775 0 0.3 0.2775 0
          0.4 0.2775 0 0.5 0.2775 0 0.6 0.2775 0 0.7 0.2775 0
          0.8 0.2775 0 0.9 0.2775 0 1 0.2775 0 1.1 0.2775 0
          1.2 0.2775 0 1.3 0.2775 0 1.4 0.2775 0 1.5 0.2775 0
          0 0.37 0 0.1 0.37 0 0.2 0.37 0 0.3 0.37 0
          0.4 0.37 0 0.5 0.37 0 0.6 0.37 0 0.7 0.37 0
          0.8 0.37 0 0.9 0.37 0 1 0.37 0 1.1 0.37 0
          1.2 0.37 0 1.3 0.37 0 1.4 0.37 0 1.5 0.37 0
          0 0.4625 0 0.1 0.4625 0 0.2 0.4625 0 0.3 0.4625 0
          0.4 0.4625 0 0.5 0.4625 0 0.6 0.4625 0 0.7 0.4625 0
          0.8 0.4625 0 0.9 0.4625 0 1 0.4625 0 1.1 0.4625 0
          1.2 0.4625 0 1.3 0.4625 0 1.4 0.4625 0 1.5 0.4625 0
          0 0.555 0 0.1 0.555 0 0.2 0.555 0 0.3 0.555 0
          0.4 0.555 0 0.5 0.555 0 0.6 0.555 0 0.7 0.555 0
          0.8 0.555 0 0.9 0.555 0 1 0.555 0 1.1 0.555 0
          1.2 0.555 0 1.3 0.555 0 1.4 0.555 0 1.5 0.555 0
          0 0.6475 0 0.1 0.6475 0 0.2 0.6475 0 0.3 0.6475 0
          0.4 0.6475 0 0.5 0.6475 0 0.6 0.6475 0 0.7 0.6475 0
          0.8 0.6475 0 0.9 0.6475 0 1 0.6475 0 1.1 0.6475 0
          1.2 0.6475 0 1.3 0.6475 0 1.4 0.6475 0 1.5 0.6475 0
          0 0.74 0 0.1 0.74 0 0.2 0.74 0 0.3 0.74 0
          0.4 0.74 0 0.5 0.74 0 0.6 0.74 0 0.7 0.74 0
          0.8 0.74 0 0.9 0.74 0 1 0.74 0 1.1 0.74 0
          1.2 0.74 0 1.3 0.74 0 1.4 0.74 0 1.5 0.74 0
        </DataArray>
      </Points>
      <Cells>
        <DataArray type="Int32" Name="connectivity" NumberOfComponents="1" format="ascii">
          0 1 3 2 1 4 5 3 4 6 7 5
          6 8 9 7 8 10 11 9 10 12 13 11
          12 14 15 13 14 16 17 15 16 18 19 17
          18 20 21 19 20 22 23 21 22 24 25 23
          24 26 27 25 26 28 29 27 28 30 31 29
          2 3 33 32 3 5 34 33 5 7 35 34
          7 9 36 35 9 11 37 36 11 13 38 37
          13 15 39 38 15 17 40 39 17 19 41 40
          19 21 42 41 21 23 43 42 23 25 44 43
          25 27 45 44 27 29 46 45 29 31 47 46
          32 33 49 48 33 34 50 49 34 35 51 50
          35 36 52 51 36 37 53 52 37 38 54 53
          38 39 55 54 39 40 56 55 40 41 57 56
          41 42 58 57 42 43 59 58 43 44 60 59
          44 45 61 60 45 46 62 61 46 47 63 62
          48 49 65 64 49 50 66 65 50 51 67 66
          51 52 68 67 52 53 69 68 53 54 70 69
          54 55 71 70 55 56 72 71 56 57 73 72
          57 58 74 73 58 59 75 74 59 60 76 75
          60 61 77 76 61 62 78 77 62 63 79 78
          64 65 81 80 65 66 82 81 66 67 83 82
          67 68 84 83 68 69 85 84 69 70 86 85
          70 71 87 86 71 72 88 87 72 73 89 88
          73 74 90 89 74 75 91 90 75 76 92 91
          76 77 93 92 77 78 94 93 78 79 95 94
          80 81 97 96 81 82 98 97 82 83 99 98
          83 84 100 99 84 85 101 100 85 86 102 101
          86 87 103 102 87 88 104 103 88 89 105 104
          89 90 106 105 90 91 107 106 91 92 108 107
          92 93 109 108 93 94 110 109 94 95 111 110
          96 97 113 112 97 98 114 113 98 99 115 114
          99 100 116 115 100 101 117 116 101 102 118 117
          102 103 119 118 103 104 120 119 104 105 121 120
          105 106 122 121 106 107 123 122 107 108 124 123
          108 109 125 124 109 110 126 125 110 111 127 126
          112 113 129 128 113 114 130 129 114 115 131 130
          115 116 132 131 116 117 133 132 117 118 134 133
          118 119 135 134 119 120 136 135 120 121 137 136
          121 122 138 137 122 123 139 138 123 124 140 139