<?xml version="1.0"?>
<VTKFile type="UnstructuredGrid" version="0.1" byte_order="LittleEndian">
  <UnstructuredGrid>
    <Piece NumberOfCells="120" NumberOfPoints="144">
      <CellData Scalars="Sw">
        <DataArray type="Float32" Name="Sw" NumberOfComponents="1" format="ascii">
          0.132034 0.120195 0.120004 0.12 0.12 0.12 0.12 0.12 0.12 0.12 0.12 0.12
          0.12 0.12 0.12 0.13202 0.120213 0.120004 0.12 0.12 0.12 0.12 0.12 0.12
          0.12 0.12 0.12 0.12 0.12 0.12 0.13202 0.120268 0.120005 0.12 0.12 0.12
          0.12 0.12 0.12 0.12 0.12 0.12 0.12 0.12 0.12 0.132023 0.120008 0.12
          0.12 0.12 0.12 0.12 0.12 0.12 0.12 0.12 0.12 0.12 0.12 0.12
          0.132023 0.120007 0.12 0.12 0.12 0.12 0.12 0.12 0.12 0.12 0.12 0.12
          0.12 0.12 0.12 0.132023 0.120008 0.12 0.12 0.12 0.12 0.12 0.12 0.12
          0.12 0.12 0.12 0.120001 0.120001 0.120001 0.13202 0.1203 0.120005 0.119999 0.12 0.12
          0.12 0.12 0.120001 0.120001 0.120001 0.120001 0.120001 0.120001 0.12 0.132006 0.120246 0.120005
          0.12 0.12 0.12 0.12 0.12 0.12 0.12 0.12 0.12 0.12 0.12 0.12
        </DataArray>
        <DataArray type="Float32" Name="Sn" NumberOfComponents="1" format="ascii">
          0 0 0 0 0 0 0 0 0 0 0 0
          0 0 0 0 0 0 0 0 0 0 0 0
          0 0 0 0 0 0 0 0 0 0 0 0
          0 0 0 0 0 0 0 0 0 0 0 0
          0 0 0 0 0 0 0 0 0 0 0 0
          0 0 0.0699945 0.0699994 0.0699988 0.0699984 0.069998 0.0699975 0 0 0 0
          0 0 0 0 0 0.0699948 0.07 0.07 0.07 0.07 0.07 0
          0 0 0 0 0 0 0 0 0.069442 0.0699989 0.0699999 0.07
          0.07 0.0699968 0 0 0 0 0 0 0 0 0 0
          0 0 0 0 0 0 0 0 0 0 0 0
        </DataArray>
        <DataArray type="Float32" Name="Sg" NumberOfComponents="1" format="ascii">
          0.867966 0.879805 0.879996 0.88 0.88 0.88 0.88 0.88 0.88 0.88 0.88 0.88
          0.88 0.88 0.88 0.86798 0.879787 0.879996 0.88 0.88 0.88 0.88 0.88 0.88
          0.88 0.88 0.88 0.88 0.88 0.88 0.86798 0.879732 0.879995 0.88 0.88 0.88
          0.88 0.88 0.88 0.88 0.88 0.88 0.88 0.88 0.88 0.867977 0.879992 0.88
          0.88 0.88 0.88 0.88 0.88 0.88 0.88 0.88 0.88 0.88 0.88 0.88
          0.867977 0.879993 0.810005 0.810001 0.810001 0.810002 0.810002 0.810003 0.88 0.88 0.88 0.88
          0.88 0.88 0.88 0.867977 0.879992 0.810005 0.81 0.81 0.81 0.81 0.81 0.88
          0.88 0.88 0.88 0.879999 0.879999 0.879999 0.86798 0.8797 0.810553 0.810002 0.81 0.81
          0.81 0.810003 0.879999 0.879999 0.879999 0.879999 0.879999 0.879999 0.88 0.867994 0.879754 0.879995
          0.88 0.88 0.88 0.88 0.88 0.88 0.88 0.88 0.88 0.88 0.88 0.88
        </DataArray>
        <DataArray type="Float32" Name="pw" NumberOfComponents="1" format="ascii">
          99231.2 98818.3 98806.4 98801 98795.6 98790.2 98784.9 98779.6 98774.3 98769.3 98764.9 98761.8
          87194.2 87178.2 87165.5 99230.7 98818.3 98805.5 98800 98794.6 98789.2 98783.8 98778.4 98773.1
          98767.8 98762.6 98758.3 87188.2 87174.3 87164.3 99231.8 98819.9 98804.6 98798.9 98793.5 98788.1
          98782.7 98777.3 98771.8 98766.1 98759.7 98751.1 98735.7 98726.9 98719.7 99235.6 87258.8 87247.7
          87241 87235 87229.2 87223.4 87217.6 87211.5 87205.1 87197.1 87184.9 98728.8 98724.3 98718.8
          99235.9 87259.3 82373.2 82365 82358.2 82351.8 82345.4 82338.9 87205.8 87198.8 87190.2 87178.1
          98725.7 98722.6 98718.3 99232.9 87255.6 82370 82361.9 82354.7 82347.8 82340.9 82333.9 87200.8
          87193.9 87186.1 87176.4 98725.1 98722 98718 99226.4 98814.7 98312.7 98302.6 98295.6 98288.5
          98281.4 98274.3 98754.5 98747.9 98741.1 98734.2 98727.1 98722.2 98717.9 99222.9 98811.2 98796
          98788.9 98781.9 98774.8 98767.7 98760.7 98753.6 98746.8 98740.1 98733.4 98727 98721.9 98717.6
        </DataArray>
        <DataArray type="Float32" Name="pn" NumberOfComponents="1" format="ascii">
          99231.2 98818.3 98806.4 98801 98795.6 98790.2 98784.9 98779.6 98774.3 98769.3 98764.9 98761.8
          87194.2 87178.2 87165.5 99230.7 98818.3 98805.5 98800 98794.6 98789.2 98783.8 98778.4 98773.1
          98767.8 98762.6 98758.3 87188.2 87174.3 87164.3 99231.8 98819.9 98804.6 98798.9 98793.5 98788.1
          98782.7 98777.3 98771.8 98766.1 98759.7 98751.1 98735.7 98726.9 98719.7 99235.6 87258.8 87247.7
          87241 87235 87229.2 87223.4 87217.6 87211.5 87205.1 87197.1 87184.9 98728.8 98724.3 98718.8
          99235.9 87259.3 95476.8 95469.5 95462.6 95456 95449.6 95443 87205.8 87198.8 87190.2 87178.1
          98725.7 98722.6 98718.3 99232.9 87255.6 95473.6 95466.4 95459.3 95452.4 95445.5 95438.5 87200.8
          87193.9 87186.1 87176.4 98725.1 98722 98718 99226.4 98814.7 99612.5 99613.1 99606 99598.9
          99591.9 99584.7 98754.5 98747.9 98741.1 98734.2 98727.1 98722.2 98717.9 99222.9 98811.2 98796
          98788.9 98781.9 98774.8 98767.7 98760.7 98753.6 98746.8 98740.1 98733.4 98727 98721.9 98717.6
        </DataArray>
        <DataArray type="Float32" Name="pg" NumberOfComponents="1" format="ascii">
          100100 100095 100090 100085 100080 100074 100069 100064 100058 100053 100049 100046
          100035 100019 100006 100100 100095 100089 100084 100079 100073 100068 100062 100057
          100052 100047 100042 100029 100015 100005 100101 100094 100089 100083 100078 100072
          100067 100061 100056 100050 100044 100035 100020 100011 100004 100105 100097 100088
          100082 100076 100070 100064 100058 100052 100046 100038 100026 100013 100008 100003
          100105 100097 100088 100080 100073 100066 100060 100054 100046 100039 100031 100019
          100010 100007 100002 100102 100093 100084 100077 100069 100062 100056 100049 100041
          100035 100027 100017 100009 100006 100002 100096 100088 100081 100074 100067 100060
          100053 100046 100039 100032 100025 100018 100011 100006 100002 100093 100086 100080
          100073 100066 100059 100052 100045 100038 100031 100024 100017 100011 100006 100002
        </DataArray>
        <DataArray type="Float32" Name="rhow" NumberOfComponents="1" format="ascii">
          996.248 998.185 998.228 998.229 998.229 998.229 998.229 998.229 998.229 998.229 998.229 998.229
          998.224 998.224 998.224 996.248 998.182 998.228 998.229 998.229 998.229 998.229 998.229 998.229
          998.229 998.229 998.229 998.224 998.224 998.224 996.248 998.173 998.228 998.229 998.229 998.229
          998.229 998.229 998.229 998.229 998.229 998.229 998.229 998.229 998.229 996.248 998.213 998.224
          998.224 998.224 998.224 998.224 998.224 998.224 998.224 998.224 998.224 998.229 998.229 998.23
          996.248 998.213 998.261 998.261 998.261 998.261 998.261 998.261 998.23 998.225 998.224 998.224
          998.234 998.236 998.24 996.248 998.213 998.261 998.261 998.261 998.261 998.261 998.261 998.231
          998.225 998.224 998.228 998.259 998.257 998.256 996.248 998.167 998.277 998.268 998.268 998.268
          998.268 998.268 998.267 998.266 998.266 998.264 998.26 998.255 998.251 996.248 998.176 998.23
          998.232 998.232 998.232 998.232 998.232 998.232 998.232 998.232 998.232 998.232 998.232 998.232
        </DataArray>
        <DataArray type="Float32" Name="rhon" NumberOfComponents="1" format="ascii">
          863.928 870.492 870.669 870.673 870.673 870.673 870.673 870.673 870.673 870.673 870.673 870.673
          870.673 870.673 870.673 863.928 870.479 870.669 870.673 870.673 870.673 870.673 870.673 870.673
          870.673 870.673 870.673 870.673 870.673 870.673 863.928 870.439 870.668 870.673 870.673 870.673
          870.673 870.673 870.673 870.673 870.673 870.673 870.673 870.673 870.673 863.929 870.628 870.673
          870.673 870.673 870.673 870.673 870.673 870.673 870.673 870.673 870.673 870.673 870.673 870.673
          863.929 870.629 870.673 870.673 870.673 870.673 870.673 870.673 870.673 870.673 870.673 870.673
          870.673 870.673 870.673 863.929 870.628 870.673 870.673 870.673 870.673 870.673 870.673 870.673
          870.673 870.673 870.673 870.672 870.673 870.673 863.928 870.416 870.708 870.674 870.673 870.673
          870.673 870.673 870.672 870.672 870.672 870.672 870.673 870.673 870.673 863.928 870.454 870.668
          870.673 870.673 870.673 870.673 870.673 870.673 870.673 870.673 870.673 870.673 870.673 870.673
        </DataArray>
        <DataArray type="Float32" Name="rhog" NumberOfComponents="1" format="ascii">
          1.14138 1.17844 1.17938 1.17934 1.17927 1.17921 1.17915 1.17908 1.17902 1.17896 1.17891 1.17887
          1.17874 1.17855 1.1784 1.14138 1.17836 1.17937 1.17932 1.17926 1.1792 1.17913 1.17907 1.17901
          1.17894 1.17888 1.17883 1.17867 1.17851 1.17839 1.14139 1.17813 1.17935 1.17931 1.17925 1.17918
          1.17912 1.17906 1.17899 1.17892 1.17885 1.17875 1.17856 1.17846 1.17838 1.14144 1.17923 1.17946
          1.17931 1.17923 1.17916 1.17909 1.17902 1.17895 1.17887 1.17878 1.17863 1.17848 1.17843 1.17858
          1.14144 1.17924 1.1879 1.18781 1.18772 1.18765 1.18757 1.18749 1.18026 1.17896 1.17871 1.17856
          1.17956 1.17994 1.18062 1.14141 1.17919 1.18786 1.18777 1.18768 1.1876 1.18752 1.18744 1.18036
          1.17893 1.17867 1.1794 1.18488 1.18456 1.18416 1.14133 1.17793 1.188 1.18774 1.18765 1.18757
          1.18749 1.1874 1.18703 1.18684 1.18666 1.18625 1.18511 1.1841 1.18315 1.14129 1.17812 1.17973
          1.1798 1.17975 1.17968 1.1796 1.17951 1.17943 1.17935 1.17926 1.17918 1.1791 1.17903 1.17897
        </DataArray>
        <DataArray type="Float32" Name="x^H2O_w" NumberOfComponents="1" format="ascii">
          0.999987 0.999985 0.999985 0.999985 0.999985 0.999985 0.999985 0.999985 0.999985 0.999985 0.999985 0.999985
          0.999985 0.999985 0.999985 0.999987 0.999985 0.999985 0.999985 0.999985 0.999985 0.999985 0.999985 0.999985
          0.999985 0.999985 0.999985 0.999985 0.999985 0.999985 0.999987 0.999985 0.999985 0.999985 0.999985 0.999985
          0.999985 0.999985 0.999985 0.999985 0.999985 0.999985 0.999985 0.999985 0.999985 0.999987 0.999985 0.999985
          0.999985 0.999985 0.999985 0.999985 0.999985 0.999985 0.999985 0.999985 0.999985 0.999985 0.999985 0.999985
          0.999987 0.999985 0.999978 0.999978 0.999978 0.999978 0.999978 0.999978 0.999984 0.999985 0.999985 0.999985
          0.999984 0.999984 0.999983 0.999987 0.999985 0.999978 0.999978 0.999978 0.999978 0.999978 0.999978 0.999984
          0.999985 0.999985 0.999985 0.99998 0.99998 0.999981 0.999987 0.999985 0.999978 0.999978 0.999978 0.999978
          0.999978 0.999978 0.999979 0.999979 0.999979 0.999979 0.99998 0.999981 0.999981 0.999987 0.999985 0.999985
          0.999985 0.999985 0.999985 0.999985 0.999985 0.999985 0.999985 0.999985 0.999985 0.999985 0.999985 0.999985
        </DataArray>
        <DataArray type="Float32" Name="x^mesitylene_w" NumberOfComponents="1" format="ascii">
          6.03531e-13 2.45063e-12 6.28337e-12 1.29355e-11 2.3967e-11 4.10182e-11 6.56679e-11 9.93997e-11 1.43861e-10 2.0194e-10 2.8222e-10 4.26986e-10
          2.2486e-09 2.87523e-09 3.00269e-09 6.03565e-13 4.12902e-12 1.51276e-11 2.28117e-11 3.26398e-11 4.76938e-11 7.00188e-11 1.01006e-10 1.41918e-10
          1.94525e-10 2.64798e-10 3.87219e-10 2.10486e-09 2.8655e-09 3.00525e-09 6.03612e-13 1.89416e-11 1.98187e-10 1.95753e-10 1.96933e-10 2.02985e-10
          2.15099e-10 2.34027e-10 2.58903e-10 2.86362e-10 3.14324e-10 3.70734e-10 4.09457e-10 4.68993e-10 7.16247e-09 6.03654e-13 1.9683e-09 7.15342e-08
          1.0868e-08 3.5485e-09 2.88595e-09 2.80123e-09 2.75676e-09 2.70404e-09 2.64074e-09 2.51908e-09 2.28778e-09 5.16509e-10 5.76258e-10 1.79082e-07
          6.03659e-13 1.98598e-09 6.90246e-06 6.90256e-06 6.90253e-06 6.90251e-06 6.90249e-06 6.90247e-06 1.1191e-06 1.32922e-07 1.74473e-08 4.86979e-09
          9.04478e-07 1.24202e-06 1.83671e-06 6.03611e-13 1.91127e-09 6.90232e-06 6.90258e-06 6.90258e-06 6.90258e-06 6.90258e-06 6.90258e-06 1.25063e-06
          1.54468e-07 1.92415e-08 7.04085e-07 5.21482e-06 4.98905e-06 4.70207e-06 6.03533e-13 1.99338e-11 6.88217e-06 6.90187e-06 6.90255e-06 6.90256e-06
          6.90256e-06 6.90243e-06 6.66927e-06 6.58654e-06 6.50022e-06 6.23378e-06 5.38199e-06 4.61412e-06 3.88123e-06 6.03403e-13 3.35088e-12 3.87865e-07
          4.88164e-07 5.19038e-07 5.31559e-07 5.32541e-07 5.32001e-07 5.31107e-07 5.29671e-07 5.27542e-07 5.24538e-07 5.20299e-07 5.1317e-07 5.01631e-07
        </DataArray>
        <DataArray type="Float32" Name="x^Air_w" NumberOfComponents="1" format="ascii">
          1.27552e-05 1.4688e-05 1.4748e-05 1.47484e-05 1.47476e-05 1.47468e-05 1.4746e-05 1.47452e-05 1.47444e-05 1.47437e-05 1.4743e-05 1.47425e-05
          1.47409e-05 1.47385e-05 1.47366e-05 1.27551e-05 1.46833e-05 1.47477e-05 1.47483e-05 1.47475e-05 1.47467e-05 1.47459e-05 1.47451e-05 1.47442e-05
          1.47434e-05 1.47427e-05 1.4742e-05 1.474e-05 1.47379e-05 1.47364e-05 1.27553e-05 1.46697e-05 1.47472e-05 1.47481e-05 1.47473e-05 1.47465e-05
          1.47457e-05 1.47449e-05 1.47441e-05 1.47432e-05 1.47422e-05 1.4741e-05 1.47387e-05 1.47373e-05 1.47362e-05 1.27559e-05 1.47349e-05 1.47485e-05
          1.47479e-05 1.4747e-05 1.47461e-05 1.47453e-05 1.47444e-05 1.47435e-05 1.47425e-05 1.47413e-05 1.47395e-05 1.47376e-05 1.47369e-05 1.47352e-05
          1.2756e-05 1.47353e-05 1.47145e-05 1.47132e-05 1.47122e-05 1.47112e-05 1.47103e-05 1.47093e-05 1.4737e-05 1.47409e-05 1.47402e-05 1.47384e-05
          1.47326e-05 1.47304e-05 1.47268e-05 1.27556e-05 1.47343e-05 1.47141e-05 1.47127e-05 1.47116e-05 1.47106e-05 1.47096e-05 1.47085e-05 1.47356e-05
          1.47401e-05 1.47396e-05 1.47347e-05 1.47109e-05 1.47115e-05 1.47124e-05 1.27545e-05 1.46609e-05 1.47258e-05 1.47128e-05 1.47113e-05 1.47102e-05
          1.47092e-05 1.47082e-05 1.4708e-05 1.47074e-05 1.47068e-05 1.47071e-05 1.47103e-05 1.47134e-05 1.47165e-05 1.27541e-05 1.46736e-05 1.4744e-05
          1.47442e-05 1.4743e-05 1.47418e-05 1.47408e-05 1.47397e-05 1.47387e-05 1.47376e-05 1.47366e-05 1.47356e-05 1.47347e-05 1.4734e-05 1.47334e-05
        </DataArray>
        <DataArray type="Float32" Name="x^H2O_n" NumberOfComponents="1" format="ascii">
          1e-10 1e-10 1e-10 1e-10 1e-10 1e-10 1e-10 1e-10 1e-10 1e-10 1e-10 1e-10
          1e-10 1e-10 1e-10 1e-10 1e-10 1e-10 1e-10 1e-10 1e-10 1e-10 1e-10 1e-10
          1e-10 1e-10 1e-10 1e-10 1e-10 1e-10 1e-10 1e-10 1e-10 1e-10 1e-10 1e-10
          1e-10 1e-10 1e-10 1e-10 1e-10 1e-10 1e-10 1e-10 1e-10 1e-10 1e-10 1e-10
          1e-10 1e-10 1e-10 1e-10 1e-10 1e-10 1e-10 1e-10 1e-10 1e-10 1e-10 1e-10
          1e-10 1e-10 1e-10 1e-10 1e-10 1e-10 1e-10 1e-10 1e-10 1e-10 1e-10 1e-10
          1e-10 1e-10 1e-10 1e-10 1e-10 1e-10 1e-10 1e-10 1e-10 1e-10 1e-10 1e-10
          1e-10 1e-10 1e-10 1e-10 1e-10 1e-10 1e-10 1e-10 1e-10 1e-10 1e-10 1e-10
          1e-10 1e-10 1e-10 1e-10 1e-10 1e-10 1e-10 1e-10 1e-10 1e-10 1e-10 1e-10
          1e-10 1e-10 1e-10 1e-10 1e-10 1e-10 1e-10 1e-10 1e-10 1e-10 1e-10 1e-10
        </DataArray>
        <DataArray type="Float32" Name="x^mesitylene_n" NumberOfComponents="1" format="ascii">
          5.10367e-08 3.4975e-07 9.10023e-07 1.874e-06 3.47218e-06 5.94244e-06 9.51354e-06 1.44004e-05 2.08416e-05 2.92557e-05 4.08862e-05 6.1859e-05
          0.000325763 0.000416545 0.00043501 5.10393e-08 5.8864e-07 2.19085e-06 3.30479e-06 4.72864e-06 6.90957e-06 1.01439e-05 1.46332e-05 2.05601e-05
          2.81815e-05 3.83623e-05 5.60979e-05 0.000304938 0.000415135 0.000435382 5.10426e-08 2.69147e-06 2.87e-05 2.83592e-05 2.85303e-05 2.94071e-05
          3.11622e-05 3.39043e-05 3.75081e-05 4.14864e-05 4.55373e-05 5.37098e-05 5.93202e-05 6.79449e-05 0.00103766 5.10494e-08 0.000284103 0.0103632
          0.00157448 0.000514083 0.000418097 0.000405824 0.000399381 0.000391743 0.000382573 0.000364948 0.000331438 7.48287e-05 8.34846e-05 0.0259442
          5.10498e-08 0.00028668 1 1 1 1 1 1 0.162127 0.0192568 0.00252765 0.000705503
          0.131034 0.179935 0.266088 5.10458e-08 0.000275863 1 1 1 1 1 1 0.181182
          0.0223783 0.00278758 0.102003 0.755468 0.722761 0.681189 5.10358e-08 2.82707e-06 1 1 1 1
          1 1 0.96617 0.954183 0.941679 0.903081 0.779687 0.668448 0.562276 5.10253e-08 4.76728e-07 0.0561684
          0.0707213 0.0751947 0.0770087 0.077151 0.0770728 0.0769432 0.0767352 0.0764268 0.0759916 0.0753774 0.0743447 0.0726729
        </DataArray>
        <DataArray type="Float32" Name="x^Air_n" NumberOfComponents="1" format="ascii">
          1e-10 1e-10 1e-10 1e-10 1e-10 1e-10 1e-10 1e-10 1e-10 1e-10 1e-10 1e-10
          1e-10 1e-10 1e-10 1e-10 1e-10 1e-10 1e-10 1e-10 1e-10 1e-10 1e-10 1e-10
          1e-10 1e-10 1e-10 1e-10 1e-10 1e-10 1e-10 1e-10 1e-10 1e-10 1e-10 1e-10
          1e-10 1e-10 1e-10 1e-10 1e-10 1e-10 1e-10 1e-10 1e-10 1e-10 1e-10 1e-10
          1e-10 1e-10 1e-10 1e-10 1e-10 1e-10 1e-10 1e-10 1e-10 1e-10 1e-10 1e-10
          1e-10 1e-10 1e-10 1e-10 1e-10 1e-10 1e-10 1e-10 1e-10 1e-10 1e-10 1e-10
          1e-10 1e-10 1e-10 1e-10 1e-10 1e-10 1e-10 1e-10 1e-10 1e-10 1e-10 1e-10
          1e-10 1e-10 1e-10 1e-10 1e-10 1e-10 1e-10 1e-10 1e-10 1e-10 1e-10 1e-10
          1e-10 1e-10 1e-10 1e-10 1e-10 1e-10 1e-10 1e-10 1e-10 1e-10 1e-10 1e-10
          1e-10 1e-10 1e-10 1e-10 1e-10 1e-10 1e-10 1e-10 1e-10 1e-10 1e-10 1e-10
        </DataArray>
        <DataArray type="Float32" Name="x^H2O_g" NumberOfComponents="1" format="ascii">
          0.0377812 0.023575 0.0232749 0.0232701 0.0232712 0.0232725 0.0232737 0.023275 0.0232762 0.0232773 0.0232784 0.0232791
          0.0232817 0.0232854 0.0232883 0.0377814 0.0235977 0.0232758 0.0232704 0.0232715 0.0232727 0.023274 0.0232752 0.0232765
          0.0232777 0.0232789 0.0232799 0.0232831 0.0232863 0.0232886 0.0377814 0.0236655 0.0232778 0.0232706 0.0232717 0.023273
          0.0232742 0.0232755 0.0232768 0.0232781 0.0232796 0.0232815 0.0232849 0.0232871 0.0232889 0.037778 0.023343 0.0232696
          0.0232708 0.0232722 0.0232735 0.0232749 0.0232762 0.0232776 0.0232791 0.023281 0.0232838 0.0232867 0.0232878 0.0232891
          0.0377779 0.023341 0.023269 0.0232712 0.0232727 0.0232741 0.0232756 0.023277 0.0232791 0.0232806 0.0232826 0.0232854
          0.0232876 0.0232883 0.0232894 0.037779 0.0233443 0.0232694 0.023272 0.0232737 0.0232753 0.0232769 0.0232785 0.0232803
          0.0232818 0.0232836 0.0232859 0.0232882 0.0232889 0.0232898 0.0377836 0.023706 0.0232102 0.0232704 0.0232741 0.0232758
          0.0232774 0.0232787 0.0232814 0.023283 0.0232846 0.0232862 0.0232877 0.0232888 0.0232897 0.0377845 0.0236418 0.0232796
          0.023273 0.0232745 0.0232761 0.0232777 0.0232794 0.023281 0.0232826 0.0232842 0.0232857 0.0232872 0.0232884 0.0232894
        </DataArray>
        <DataArray type="Float32" Name="x^mesitylene_g" NumberOfComponents="1" format="ascii">
          1.99424e-10 8.09799e-10 2.07641e-09 4.2749e-09 7.921e-09 1.35571e-08 2.17053e-08 3.28565e-08 4.75557e-08 6.6758e-08 9.33015e-08 1.41165e-07
          7.43488e-07 9.50832e-07 9.93107e-07 1.99435e-10 1.36442e-09 4.99912e-09 7.53886e-09 1.07875e-08 1.57636e-08 2.31437e-08 3.3388e-08 4.69138e-08
          6.43077e-08 8.75438e-08 1.28022e-07 6.96001e-07 9.4765e-07 9.93968e-07 1.99448e-10 6.25923e-09 6.54944e-08 6.46935e-08 6.5087e-08 6.70909e-08
          7.10988e-08 7.73592e-08 8.55868e-08 9.46698e-08 1.0392e-07 1.22581e-07 1.35405e-07 1.55107e-07 2.36897e-06 1.99455e-10 6.50405e-07 2.36398e-05
          3.59176e-06 1.17282e-06 9.5389e-07 9.25941e-07 9.11295e-07 8.9392e-07 8.73052e-07 8.32897e-07 7.56511e-07 1.70818e-07 1.90587e-07 5.92313e-05
          1.99456e-10 6.56243e-07 0.00228106 0.00228127 0.00228142 0.00228156 0.0022817 0.00228184 0.000369981 4.39478e-05 5.76908e-06 1.61043e-06
          0.000299136 0.000410783 0.000607495 1.99446e-10 6.31581e-07 0.00228108 0.00228135 0.00228151 0.00228167 0.00228183 0.00228199 0.000413487
          5.10743e-05 6.3626e-06 0.000232843 0.00172469 0.00165008 0.00155523 1.99433e-10 6.58751e-09 0.0022745 0.00228117 0.00228156 0.00228172
          0.00228188 0.002282 0.00220508 0.00217787 0.00214947 0.00206151 0.00177995 0.00152607 0.00128373 1.99397e-10 1.10738e-09 0.000128188
          0.000161347 0.000171564 0.000175715 0.000176052 0.000175886 0.000175603 0.00017514 0.000174448 0.000173466 0.000172075 0.000169726 0.000165917
        </DataArray>
        <DataArray type="Float32" Name="x^Air_g" NumberOfComponents="1" format="ascii">
          0.962219 0.976425 0.976725 0.97673 0.976729 0.976727 0.976726 0.976725 0.976724 0.976723 0.976722 0.976721
          0.976718 0.976714 0.976711 0.962219 0.976402 0.976724 0.97673 0.976728 0.976727 0.976726 0.976725 0.976723
          0.976722 0.976721 0.97672 0.976716 0.976713 0.97671 0.962219 0.976334 0.976722 0.976729 0.976728 0.976727
          0.976726 0.976724 0.976723 0.976722 0.97672 0.976718 0.976715 0.976713 0.976709 0.962222 0.976656 0.976707
          0.976726 0.976727 0.976726 0.976724 0.976723 0.976721 0.97672 0.976718 0.976715 0.976713 0.976712 0.976652
          0.962222 0.976658 0.97445 0.974448 0.974446 0.974444 0.974443 0.974441 0.976351 0.976675 0.976712 0.976713
          0.976413 0.976301 0.976103 0.962221 0.976655 0.97445 0.974447 0.974445 0.974443 0.974441 0.97444 0.976306
          0.976667 0.97671 0.976481 0.974987 0.975061 0.975155 0.962216 0.976294 0.974515 0.974448 0.974444 0.974442
          0.974441 0.974439 0.974513 0.974539 0.974566 0.974652 0.974932 0.975185 0.975427 0.962215 0.976358 0.976592
          0.976566 0.976554 0.976548 0.976546 0.976545 0.976543 0.976542 0.976541 0.976541 0.976541 0.976542 0.976545
        </DataArray>
        <DataArray type="Float32" Name="porosity" NumberOfComponents="1" format="ascii">
          0.42 0.42 0.42 0.42 0.42 0.42 0.42 0.42 0.42 0.42 0.42 0.42
          0.42 0.42 0.42 0.42 0.42 0.42 0.42 0.42 0.42 0.42 0.42 0.42
          0.42 0.42 0.42 0.42 0.42 0.42 0.42 0.42 0.42 0.42 0.42 0.42
          0.42 0.42 0.42 0.42 0.42 0.42 0.42 0.42 0.42 0.42 0.42 0.42
          0.42 0.42 0.42 0.42 0.42 0.42 0.42 0.42 0.42 0.42 0.42 0.42
          0.42 0.42 0.42 0.42 0.42 0.42 0.42 0.42 0.42 0.42 0.42 0.42
          0.42 0.42 0.42 0.42 0.42 0.42 0.42 0.42 0.42 0.42 0.42 0.42
          0.42 0.42 0.42 0.42 0.42 0.42 0.42 0.42 0.42 0.42 0.42 0.42
          0.42 0.42 0.42 0.42 0.42 0.42 0.42 0.42 0.42 0.42 0.42 0.42
          0.42 0.42 0.42 0.42 0.42 0.42 0.42 0.42 0.42 0.42 0.42 0.42
        </DataArray>
        <DataArray type="Float32" Name="temperature" NumberOfComponents="1" format="ascii">
          301.122 293.219 293.004 293 293 293 293 293 293 293 293 293
          293 293 293 301.122 293.235 293.005 293 293 293 293 293 293
          293 293 293 293 293 293 301.122 293.283 293.006 293 293 293
          293 293 293 293 293 293 293 293 293 301.121 293.054 293
          293 293 293 293 293 293 293 293 293 293 293 293
          301.121 293.053 293 293 293 293 293 293 293 293 293 293
          293 293 293 301.121 293.054 292.999 293 293 293 293 293 293
          293 293 293 293 293 293 301.122 293.31 292.957 292.999 293 293
          293 293 293 293 293 293 293 293 293 301.122 293.265 293.006
          293 293 293 293 293 293 293 293 293 293 293 293
        </DataArray>
        <DataArray type="Float32" Name="phase presence" NumberOfComponents="1" format="ascii">
          6 6 6 6 6 6 6 6 6 6 6 6
          6 6 6 6 6 6 6 6 6 6 6 6
          6 6 6 6 6 6 6 6 6 6 6 6
          6 6 6 6 6 6 6 6 6 6 6 6
          6 6 6 6 6 6 6 6 6 6 6 6
          6 6 1 1 1 1 1 1 6 6 6 6
          6 6 6 6 6 1 1 1 1 1 1 6
          6 6 6 6 6 6 6 6 1 1 1 1
          1 1 6 6 6 6 6 6 6 6 6 6
          6 6 6 6 6 6 6 6 6 6 6 6
        </DataArray>
        <DataArray type="Float32" Name="process rank" NumberOfComponents="1" format="ascii">
          0 0 0 0 0 0 0 0 0 0 0 0
          0 0 0 0 0 0 0 0 0 0 0 0
          0 0 0 0 0 0 0 0 0 0 0 0
          0 0 0 0 0 0 0 0 0 0 0 0
          0 0 0 0 0 0 0 0 0 0 0 0
          0 0 0 0 0 0 0 0 0 0 0 0
          0 0 0 0 0 0 0 0 0 0 0 0
          0 0 0 0 0 0 0 0 0 0 0 0
          0 0 0 0 0 0 0 0 0 0 0 0
          0 0 0 0 0 0 0 0 0 0 0 0
        </DataArray>
        <DataArray type="Float32" Name="permeability" NumberOfComponents="1" format="ascii">
          9.14e-10 9.14e-10 9.14e-10 9.14e-10 9.14e-10 9.14e-10 9.14e-10 9.14e-10 9.14e-10 9.14e-10 9.14e-10 9.14e-10
          6.28e-12 6.28e-12 6.28e-12 9.14e-10 9.14e-10 9.14e-10 9.14e-10 9.14e-10 9.14e-10 9.14e-10 9.14e-10 9.14e-10
          9.14e-10 9.14e-10 9.14e-10 6.28e-12 6.28e-12 6.28e-12 9.14e-10 9.14e-10 9.14e-10 9.14e-10 9.14e-10 9.14e-10
          9.14e-10 9.14e-10 9.14e-10 9.14e-10 9.14e-10 9.14e-10 9.14e-10 9.14e-10 9.14e-10 9.14e-10 6.28e-12 6.28e-12
          6.28e-12 6.28e-12 6.28e-12 6.28e-12 6.28e-12 6.28e-12 6.28e-12 6.28e-12 6.28e-12 9.14e-10 9.14e-10 9.14e-10
          9.14e-10 6.28e-12 6.28e-12 6.28e-12 6.28e-12 6.28e-12 6.28e-12 6.28e-12 6.28e-12 6.28e-12 6.28e-12 6.28e-12
          9.14e-10 9.14e-10 9.14e-10 9.14e-10 6.28e-12 6.28e-12 6.28e-12 6.28e-12 6.28e-12 6.28e-12 6.28e-12 6.28e-12
          6.28e-12 6.28e-12 6.28e-12 9.14e-10 9.14e-10 9.14e-10 9.14e-10 9.14e-10 9.14e-10 9.14e-10 9.14e-10 9.14e-10
          9.14e-10 9.14e-10 9.14e-10 9.14e-10 9.14e-10 9.14e-10 9.14e-10 9.14e-10 9.14e-10 9.14e-10 9.14e-10 9.14e-10
          9.14e-10 9.14e-10 9.14e-10 9.14e-10 9.14e-10 9.14e-10 9.14e-10 9.14e-10 9.14e-10 9.14e-10 9.14e-10 9.14e-10
        </DataArray>
      </CellData>
      <Points>
        <DataArray type="Float32" Name="Coordinates" NumberOfComponents="3" format="ascii">
          0 0 0 0.1 0 0 0 0.0925 0 0.1 0.0925 0
          0.2 0 0 0.2 0.0925 0 0.3 0 0 0.3 0.0925 0
          0.4 0 0 0.4 0.0925 0 0.5 0 0 0.5 0.0925 0
          0.6 0 0 0.6 0.0925 0 0.7 0 0 0.7 0.0925 0
          0.8 0 0 0.8 0.0925 0 0.9 0 0 0.9 0.0925 0
          1 0 0 1 0.0925 0 1.1 0 0 1.1 0.0925 0
          1.2 0 0 1.2 0.0925 0 1.3 0 0 1.3 0.0925 0
          1.4 0 0 1.4 0.0925 0 1.5 0 0 1.5 0.0925 0
          0 0.185 0 0.1 0.185 0 0.2 0.185 0 0.3 0.185 0
          0.4 0.185 0 0.5 0.185 0 0.6 0.185 0 0.7 0.185 0
          0.8 0.185 0 0.9 0.185 0 1 0.185 0 1.1 0.185 0
          1.2 0.185 0 1.3 0.185 0 1.4 0.185 0 1.5 0.185 0
          0 0.2775 0 0.1 0.2775 0 0.2 0.2775 0 0.3 0.2775 0
          0.4 0.2775 0 0.5 0.2775 0 0.6 0.2775 0 0.7 0.2775 0
          0.8 0.2775 0 0.9 0.2775 0 1 0.2775 0 1.1 0.2775 0
          1.2 0.2775 0 1.3 0.2775 0 1.4 0.2775 0 1.5 0.2775 0
          0 0.37 0 0.1 0.37 0 0.2 0.37 0 0.3 0.37 0
          0.4 0.37 0 0.5 0.37 0 0.6 0.37 0 0.7 0.37 0
          0.8 0.37 0 0.9 0.37 0 1 0.37 0 1.1 0.37 0
          1.2 0.37 0 1.3 0.37 0 1.4 0.37 0 1.5 0.37 0
          0 0.4625 0 0.1 0.4625 0 0.2 0.4625 0 0.3 0.4625 0
          0.4 0.4625 0 0.5 0.4625 0 0.6 0.4625 0 0.7 0.4625 0
          0.8 0.4625 0 0.9 0.4625 0 1 0.4625 0 1.1 0.4625 0
          1.2 0.4625 0 1.3 0.4625 0 1.4 0.4625 0 1.5 0.4625 0
          0 0.555 0 0.1 0.555 0 0.2 0.555 0 0.3 0.555 0
          0.4 0.555 0 0.5 0.555 0 0.6 0.555 0 0.7 0.555 0
          0.8 0.555 0 0.9 0.555 0 1 0.555 0 1.1 0.555 0
          1.2 0.555 0 1.3 0.555 0 1.4 0.555 0 1.5 0.555 0
          0 0.6475 0 0.1 0.6475 0 0.2 0.6475 0 0.3 0.6475 0
          0.4 0.6475 0 0.5 0.6475 0 0.6 0.6475 0 0.7 0.6475 0
          0.8 0.6475 0 0.9 0.6475 0 1 0.6475 0 1.1 0.6475 0
          1.2 0.6475 0 1.3 0.6475 0 1.4 0.6475 0 1.5 0.6475 0
          0 0.74 0 0.1 0.74 0 0.2 0.74 0 0.3 0.74 0
          0.4 0.74 0 0.5 0.74 0 0.6 0.74 0 0.7 0.74 0
          0.8 0.74 0 0.9 0.74 0 1 0.74 0 1.1 0.74 0
          1.2 0.74 0 1.3 0.74 0 1.4 0.74 0 1.5 0.74 0
        </DataArray>
      </Points>
      <Cells>
        <DataArray type="Int32" Name="connectivity" NumberOfComponents="1" format="ascii">
          0 1 3 2 1 4 5 3 4 6 7 5
          6 8 9 7 8 10 11 9 10 12 13 11
          12 14 15 13 14 16 17 15 16 18 19 17
          18 20 21 19 20 22 23 21 22 24 25 23
          24 26 27 25 26 28 29 27 28 30 31 29
          2 3 33 32 3 5 34 33 5 7 35 34
          7 9 36 35 9 11 37 36 11 13 38 37
          13 15 39 38 15 17 40 39 17 19 41 40
          19 21 42 41 21 23 43 42 23 25 44 43
          25 27 45 44 27 29 46 45 29 31 47 46
          32 33 49 48 33 34 50 49 34 35 51 50
          35 36 52 51 36 37 53 52 37 38 54 53
          38 39 55 54 39 40 56 55 40 41 57 56
          41 42 58 57 42 43 59 58 43 44 60 59
          44 45 61 60 45 46 62 61 46 47 63 62
          48 49 65 64 49 50 66 65 50 51 67 66
          51 52 68 67 52 53 69 68 53 54 70 69
          54 55 71 70 55 56 72 71 56 57 73 72
          57 58 74 73 58 59 75 74 59 60 76 75
          60 61 77 76 61 62 78 77 62 63 79 78
          64 65 81 80 65 66 82 81 66 67 83 82
          67 68 84 83 68 69 85 84 69 70 86 85
          70 71 87 86 71 72 88 87 72 73 89 88
          73 74 90 89 74 75 91 90 75 76 92 91
          76 77 93 92 77 78 94 93 78 79 95 94
          80 81 97 96 81 82 98 97 82 83 99 98
          83 84 100 99 84 85 101 100 85 86 102 101
          86 87 103 102 87 88 104 103 88 89 105 104
          89 90 106 105 90 91 107 106 91 92 108 107
          92 93 109 108 93 94 110 109 94 95 111 110
          96 97 113 112 97 98 114 113 98 99 115 114
          99 100 116 115 100 101 117 116 101 102 118 117
          102 103 119 118 103 104 120 119 104 105 121 120
          105 106 122 121 106 107 123 122 107 108 124 123
          108 109 125 124 109 110 126 125 110 111 127 126
          112 113 129 128 113 114 130 129 114 115 131 130
          115 116 132 131 116 117 133 132 117 118 134 133
          118 119 135 134 119 120 136 135 120 121 137 136
          121 122 138 137 122 123 139 138 123 124 140 139
          124 125 141 140 125 126 142 141 126 127 143 142
        </DataArray>
        <DataArray type="Int32" Name="offsets" NumberOfComponents="1" format="ascii">
          4 8 12 16 20 24 28 32 36 40 44 48
          52 56 60 64 68 72 76 80 84 88 92 96
          100 104 108 112 116 120 124 128 132 136 140 144
          148 152 156 160 164 168 172 176 180 184 188 192
          196 200 204 208 212 216 220 224 228 232 236 240
          244 248 252 256 260 264 268 272 276 280 284 288