<?xml version="1.0"?>
<VTKFile type="UnstructuredGrid" version="0.1" byte_order="LittleEndian">
  <UnstructuredGrid>
    <Piece NumberOfCells="120" NumberOfPoints="144">
      <CellData Scalars="Sw">
        <DataArray type="Float32" Name="Sw" NumberOfComponents="1" format="ascii">
          0.299181 0.269224 0.197979 0.131125 0.120224 0.120019 0.120001 0.12 0.12 0.12 0.12 0.12
          0.12 0.12 0.12 0.193466 0.184754 0.157506 0.124148 0.12027 0.120023 0.120002 0.12 0.12
          0.12 0.12 0.12 0.12 0.12 0.12 0.187563 0.171518 0.156941 0.125373 0.120355 0.120029
          0.120002 0.12 0.12 0.12 0.119999 0.119999 0.119997 0.119999 0.119999 0.18446 0.14344 0.12047
          0.120005 0.12 0.12 0.12 0.12 0.12 0.12 0.12 0.12 0.119999 0.12 0.12
          0.180951 0.138878 0.120059 0.120001 0.12 0.12 0.12 0.12 0.12 0.12 0.12 0.12
          0.12 0.12 0.12 0.176632 0.144909 0.12368 0.120014 0.120001 0.12 0.12 0.12 0.120001
          0.12 0.12 0.12 0.120001 0.120001 0.12 0.170845 0.191376 0.184883 0.133185 0.120564 0.12005
          0.120004 0.12 0.12 0.12 0.12 0.12 0.12 0.12 0.12 0.160064 0.168997 0.156806
          0.126909 0.120595 0.120057 0.120005 0.12 0.12 0.12 0.12 0.12 0.12 0.12 0.12
        </DataArray>
        <DataArray type="Float32" Name="Sn" NumberOfComponents="1" format="ascii">
          0 0 0 0 0 0 0 0 0 0 0 0
          0 0 0 0 0 0 0 0 0 0 0 0
          0 0 0 0 0 0 0 0 0 0 0 0
          0 0 0 0 0 0 0 0 0 0 0 0
          0 0 0 0 0 0 0 0 0 0 0 0
          0 0 0.0699369 0.0699941 0.0699835 0.0699771 0.0699716 0.0699659 0 0 0 0
          0 0 0 0 0 0.0700131 0.0700139 0.0700013 0.0700001 0.07 0.07 0
          0 0 0 0 0 0 0 0 0.0583391 0.0752026 0.0704903 0.0700453
          0.0700037 0.0699736 0 0 0 0 0 0 0 0 0 0
          0 0 0 0 0 0 0 0 0 0 0 0
        </DataArray>
        <DataArray type="Float32" Name="Sg" NumberOfComponents="1" format="ascii">
          0.700819 0.730776 0.802021 0.868875 0.879776 0.879981 0.879999 0.88 0.88 0.88 0.88 0.88
          0.88 0.88 0.88 0.806534 0.815246 0.842494 0.875852 0.87973 0.879977 0.879999 0.88 0.88
          0.88 0.88 0.88 0.88 0.88 0.88 0.812437 0.828482 0.843059 0.874627 0.879645 0.879971
          0.879998 0.88 0.88 0.88 0.880001 0.880001 0.880003 0.880001 0.880001 0.81554 0.85656 0.87953
          0.879995 0.88 0.88 0.88 0.88 0.88 0.88 0.88 0.88 0.880001 0.88 0.88
          0.819049 0.861122 0.810004 0.810005 0.810017 0.810023 0.810028 0.810034 0.88 0.88 0.88 0.88
          0.88 0.88 0.88 0.823368 0.855091 0.806307 0.809972 0.809998 0.81 0.81 0.81 0.879999
          0.88 0.88 0.88 0.879999 0.879999 0.88 0.829155 0.808624 0.756778 0.791612 0.808946 0.809904
          0.809992 0.810026 0.88 0.88 0.88 0.88 0.88 0.88 0.88 0.839936 0.831003 0.843194
          0.873091 0.879405 0.879943 0.879995 0.88 0.88 0.88 0.88 0.88 0.88 0.88 0.88
        </DataArray>
        <DataArray type="Float32" Name="pw" NumberOfComponents="1" format="ascii">
          99776.8 99740.2 99638.6 99218.7 98841.9 98829.8 98824.4 98819.6 98814.9 98810.4 98806.4 98803.7
          87654 87639.6 87628.1 99653.2 99619.4 99511.6 98984 98842.4 98828.9 98823.3 98818.4 98813.6
          98808.9 98804.3 98800.4 87648.5 87636.1 87627 99643.9 99581.5 99508.1 99026.2 98844.4 98828
          98822.2 98817.3 98812.4 98807.2 98801.5 98793.9 98780 98772.1 98765.6 99646.6 93412.7 87870.4
          87698.4 87690.6 87685 87679.8 87674.6 87669.2 87663.4 87656.3 87645.4 98773.8 98769.8 98764.9
          99640 92910.2 83120.1 83085.7 83078.3 83072.4 83066.8 83061.3 87664 87657.7 87650 87639.2
          98771 98768.2 98764.3 99622.7 93545.1 84468.3 83086.4 83073.9 83067.4 83061.3 83055.2 87659.3
          87653.1 87646.2 87637.7 98770.4 98767.6 98764.1 99591.7 99630.6 99286.3 98829.4 98381.9 98355.6
          98347.6 98341.4 98796.1 98790.2 98784.3 98778.2 98771.9 98767.7 98764 99543 99565.4 99498.8
          99069.6 98840.7 98815.5 98807.6 98801.3 98795.1 98789.2 98783.2 98777.4 98771.8 98767.3 98763.6
        </DataArray>
        <DataArray type="Float32" Name="pn" NumberOfComponents="1" format="ascii">
          99776.8 99740.2 99638.6 99218.7 98841.9 98829.8 98824.4 98819.6 98814.9 98810.4 98806.4 98803.7
          87654 87639.6 87628.1 99653.2 99619.4 99511.6 98984 98842.4 98828.9 98823.3 98818.4 98813.6
          98808.9 98804.3 98800.4 87648.5 87636.1 87627 99643.9 99581.5 99508.1 99026.2 98844.4 98828
          98822.2 98817.3 98812.4 98807.2 98801.5 98793.9 98780 98772.1 98765.6 99646.6 93412.7 87870.4
          87698.4 87690.6 87685 87679.8 87674.6 87669.2 87663.4 87656.3 87645.4 98773.8 98769.8 98764.9
          99640 92910.2 95465.6 95461.8 95453 95445.9 95439.4 95432.9 87664 87657.7 87650 87639.2
          98771 98768.2 98764.3 99622.7 93545.1 95550 95459.2 95451.3 95444.9 95438.8 95432.8 87659.3
          87653.1 87646.2 87637.7 98770.4 98767.6 98764.1 99591.7 99630.6 99680.7 99639.9 99599.8 99591.5
          99585.2 99578.7 98796.1 98790.2 98784.3 98778.2 98771.9 98767.7 98764 99543 99565.4 99498.8
          99069.6 98840.7 98815.5 98807.6 98801.3 98795.1 98789.2 98783.2 98777.4 98771.8 98767.3 98763.6
        </DataArray>
        <DataArray type="Float32" Name="pg" NumberOfComponents="1" format="ascii">
          100106 100093 100083 100077 100072 100067 100062 100057 100053 100048 100044 100041
          100032 100017 100006 100107 100093 100082 100076 100071 100066 100061 100056 100051
          100047 100042 100038 100026 100014 100005 100111 100094 100081 100075 100070 100065
          100060 100055 100050 100045 100039 100032 100018 100010 100003 100121 100096 100083
          100074 100068 100063 100057 100052 100047 100041 100034 100023 100012 100008 100003
          100123 100097 100083 100073 100065 100059 100053 100048 100041 100035 100027 100017
          100009 100006 100002 100119 100093 100079 100069 100061 100055 100049 100043 100037
          100031 100024 100015 100008 100005 100002 100106 100088 100074 100065 100058 100052
          100046 100040 100034 100028 100022 100016 100010 100005 100002 100101 100086 100073
          100064 100057 100051 100045 100039 100033 100027 100021 100015 100010 100005 100001
        </DataArray>
        <DataArray type="Float32" Name="rhow" NumberOfComponents="1" format="ascii">
          975.156 981.368 993.287 997.653 998.177 998.225 998.229 998.229 998.229 998.229 998.229 998.229
          998.224 998.224 998.224 975.057 979.551 992.149 997.53 998.166 998.224 998.229 998.229 998.229
          998.229 998.229 998.229 998.224 998.224 998.224 975.192 978.391 990.628 997.325 998.15 998.222
          998.229 998.229 998.229 998.229 998.229 998.229 998.229 998.229 998.229 975.417 995.788 997.976
          998.199 998.223 998.225 998.224 998.224 998.224 998.224 998.224 998.224 998.229 998.229 998.231
          975.432 996.463 998.175 998.257 998.261 998.261 998.261 998.262 998.245 998.235 998.23 998.227
          998.235 998.238 998.242 975.403 995.723 997.953 998.223 998.257 998.261 998.261 998.261 998.255
          998.245 998.238 998.244 998.262 998.261 998.26 975.172 977.9 989.644 996.976 998.142 998.256
          998.267 998.268 998.268 998.267 998.267 998.266 998.262 998.259 998.256 974.982 978.268 989.659
          996.975 998.115 998.231 998.243 998.244 998.244 998.244 998.244 998.243 998.243 998.243 998.242
        </DataArray>
        <DataArray type="Float32" Name="rhon" NumberOfComponents="1" format="ascii">
          823.975 833.623 856.254 868.482 870.458 870.654 870.671 870.673 870.673 870.673 870.673 870.673
          870.673 870.673 870.673 823.831 830.709 853.667 868.052 870.413 870.65 870.671 870.673 870.673
          870.673 870.673 870.673 870.673 870.673 870.673 824.028 828.901 850.418 867.334 870.345 870.645
          870.671 870.673 870.673 870.673 870.673 870.673 870.674 870.674 870.673 824.364 862.637 869.636
          870.561 870.663 870.672 870.673 870.673 870.673 870.673 870.673 870.673 870.673 870.673 870.673
          824.386 864.599 870.314 870.654 870.673 870.674 870.675 870.675 870.673 870.673 870.673 870.673
          870.673 870.673 870.673 824.342 862.456 869.406 870.514 870.657 870.672 870.673 870.673 870.673
          870.673 870.673 870.673 870.673 870.673 870.673 824 828.136 848.012 865.997 870.147 870.622
          870.669 870.674 870.673 870.673 870.673 870.673 870.673 870.673 870.673 823.721 828.709 848.408
          866.121 870.137 870.619 870.668 870.673 870.673 870.673 870.673 870.673 870.673 870.673 870.673
        </DataArray>
        <DataArray type="Float32" Name="rhog" NumberOfComponents="1" format="ascii">
          0.861679 0.944807 1.0967 1.16686 1.17797 1.17901 1.17906 1.17901 1.17895 1.1789 1.17885 1.17882
          1.1787 1.17853 1.17839 0.86027 0.921168 1.08124 1.16442 1.17771 1.17898 1.17904 1.17899 1.17894
          1.17888 1.17883 1.17878 1.17864 1.17849 1.17838 0.862242 0.905705 1.06133 1.16037 1.17731 1.17894
          1.17903 1.17899 1.17893 1.17887 1.1788 1.17871 1.17855 1.17845 1.17839 0.865506 1.13392 1.17421
          1.1791 1.17936 1.17918 1.17905 1.17896 1.17889 1.17882 1.17873 1.1786 1.17847 1.17842 1.17868
          0.865731 1.14512 1.18607 1.18763 1.18763 1.18757 1.1875 1.18743 1.18331 1.18108 1.17988 1.17926
          1.17977 1.1803 1.18118 0.865291 1.13285 1.18157 1.18689 1.18751 1.18751 1.18744 1.18737 1.18545
          1.18334 1.18173 1.18281 1.18559 1.18534 1.18501 0.861919 0.899102 1.08709 1.1649 1.18496 1.18723
          1.18739 1.18734 1.18713 1.187 1.18686 1.18655 1.18572 1.18495 1.18418 0.859134 0.903989 1.05162
          1.15674 1.17939 1.18198 1.18214 1.18205 1.18193 1.18181 1.18169 1.18158 1.18146 1.18135 1.18124
        </DataArray>
        <DataArray type="Float32" Name="x^H2O_w" NumberOfComponents="1" format="ascii">
          0.999994 0.999992 0.999989 0.999986 0.999985 0.999985 0.999985 0.999985 0.999985 0.999985 0.999985 0.999985
          0.999985 0.999985 0.999985 0.999994 0.999993 0.999989 0.999986 0.999985 0.999985 0.999985 0.999985 0.999985
          0.999985 0.999985 0.999985 0.999985 0.999985 0.999985 0.999994 0.999993 0.99999 0.999986 0.999985 0.999985
          0.999985 0.999985 0.999985 0.999985 0.999985 0.999985 0.999985 0.999985 0.999985 0.999994 0.999988 0.999985
          0.999985 0.999985 0.999985 0.999985 0.999985 0.999985 0.999985 0.999985 0.999985 0.999985 0.999985 0.999985
          0.999994 0.999987 0.999978 0.999978 0.999978 0.999978 0.999978 0.999978 0.999982 0.999983 0.999984 0.999985
          0.999984 0.999984 0.999983 0.999994 0.999988 0.999978 0.999978 0.999978 0.999978 0.999978 0.999978 0.99998
          0.999982 0.999983 0.999982 0.999979 0.99998 0.99998 0.999994 0.999993 0.999954 0.999977 0.999978 0.999978
          0.999978 0.999978 0.999978 0.999979 0.999979 0.999979 0.999979 0.99998 0.999981 0.999994 0.999993 0.999988
          0.999984 0.999983 0.999983 0.999983 0.999983 0.999983 0.999983 0.999983 0.999983 0.999983 0.999983 0.999983
        </DataArray>
        <DataArray type="Float32" Name="x^mesitylene_w" NumberOfComponents="1" format="ascii">
          3.57937e-27 3.35802e-16 1.40902e-11 2.23729e-11 2.45874e-11 2.4302e-11 2.40114e-11 2.37211e-11 2.34289e-11 2.31269e-11 2.27906e-11 2.23109e-11
          1.64165e-11 2.96389e-11 1.48898e-10 2.44972e-26 2.54327e-15 2.19883e-10 2.97327e-10 3.10984e-10 3.08425e-10 3.04154e-10 2.97158e-10 2.83824e-10
          2.56476e-10 2.05224e-10 1.31076e-10 9.11581e-11 7.93889e-11 2.68775e-10 6.51703e-26 1.74511e-14 3.60887e-09 4.65594e-09 4.65321e-09 4.61556e-09
          4.55213e-09 4.44368e-09 4.22588e-09 3.75227e-09 2.83402e-09 1.60423e-09 1.58774e-09 1.57289e-09 1.41175e-08 1.11616e-25 2.70986e-12 5.75044e-07
          4.19822e-07 2.23331e-07 9.31804e-08 3.43644e-08 1.24472e-08 5.28728e-09 3.10067e-09 2.26491e-09 1.5758e-09 1.57873e-09 1.56755e-09 2.6162e-07
          3.61187e-25 2.32012e-12 7.11069e-06 6.91332e-06 6.90256e-06 6.90173e-06 6.90149e-06 6.90136e-06 3.6375e-06 1.88736e-06 9.96425e-07 5.98478e-07
          1.0849e-06 1.5383e-06 2.28897e-06 2.94406e-22 2.22314e-12 7.66199e-06 6.99421e-06 6.91163e-06 6.9033e-06 6.90254e-06 6.90242e-06 5.4149e-06
          3.76126e-06 2.53072e-06 3.48551e-06 5.79991e-06 5.62213e-06 5.38939e-06 5.28223e-19 1.46109e-14 3.62053e-05 1.00705e-05 7.20972e-06 6.93151e-06
          6.90497e-06 6.90192e-06 6.79347e-06 6.75027e-06 6.6914e-06 6.50112e-06 5.88588e-06 5.30441e-06 4.71785e-06 2.09141e-19 1.64559e-15 2.602e-06
          2.76677e-06 2.75055e-06 2.71334e-06 2.67462e-06 2.6363e-06 2.59843e-06 2.56032e-06 2.52256e-06 2.48496e-06 2.44616e-06 2.39893e-06 2.34267e-06
        </DataArray>
        <DataArray type="Float32" Name="x^Air_w" NumberOfComponents="1" format="ascii">
          5.91644e-06 7.54627e-06 1.10785e-05 1.40287e-05 1.46728e-05 1.47392e-05 1.47445e-05 1.47443e-05 1.47436e-05 1.4743e-05 1.47423e-05 1.47419e-05
          1.47404e-05 1.47382e-05 1.47365e-05 5.88806e-06 7.08484e-06 1.06089e-05 1.3896e-05 1.46573e-05 1.47377e-05 1.47442e-05 1.47441e-05 1.47434e-05
          1.47427e-05 1.4742e-05 1.47415e-05 1.47396e-05 1.47377e-05 1.47363e-05 5.92727e-06 6.78219e-06 1.00638e-05 1.36811e-05 1.46339e-05 1.47357e-05
          1.47439e-05 1.47439e-05 1.47432e-05 1.47425e-05 1.47416e-05 1.47406e-05 1.47387e-05 1.47374e-05 1.47362e-05 5.99106e-06 1.24352e-05 1.43975e-05
          1.47064e-05 1.47414e-05 1.47444e-05 1.47441e-05 1.47435e-05 1.47427e-05 1.47418e-05 1.47407e-05 1.47391e-05 1.47376e-05 1.47369e-05 1.47348e-05
          5.9952e-06 1.29258e-05 1.45904e-05 1.47056e-05 1.4711e-05 1.47106e-05 1.47099e-05 1.47091e-05 1.47237e-05 1.47315e-05 1.47348e-05 1.47352e-05
          1.47315e-05 1.47288e-05 1.47245e-05 5.98709e-06 1.23915e-05 1.42871e-05 1.46566e-05 1.4705e-05 1.4709e-05 1.47086e-05 1.47077e-05 1.4714e-05
          1.47214e-05 1.47265e-05 1.47204e-05 1.47078e-05 1.47083e-05 1.4709e-05 5.92125e-06 6.65422e-06 9.55475e-06 1.32518e-05 1.453e-05 1.46916e-05
          1.47067e-05 1.47076e-05 1.4707e-05 1.47062e-05 1.47055e-05 1.47056e-05 1.47077e-05 1.47099e-05 1.47123e-05 5.86586e-06 6.74947e-06 9.73752e-06
          1.33196e-05 1.45486e-05 1.47112e-05 1.47274e-05 1.47283e-05 1.47277e-05 1.4727e-05 1.47262e-05 1.47256e-05 1.47249e-05 1.47244e-05 1.47241e-05
        </DataArray>
        <DataArray type="Float32" Name="x^H2O_n" NumberOfComponents="1" format="ascii">
          1e-10 1e-10 1e-10 1e-10 1e-10 1e-10 1e-10 1e-10 1e-10 1e-10 1e-10 1e-10
          1e-10 1e-10 1e-10 1e-10 1e-10 1e-10 1e-10 1e-10 1e-10 1e-10 1e-10 1e-10
          1e-10 1e-10 1e-10 1e-10 1e-10 1e-10 1e-10 1e-10 1e-10 1e-10 1e-10 1e-10
          1e-10 1e-10 1e-10 1e-10 1e-10 1e-10 1e-10 1e-10 1e-10 1e-10 1e-10 1e-10
          1e-10 1e-10 1e-10 1e-10 1e-10 1e-10 1e-10 1e-10 1e-10 1e-10 1e-10 1e-10
          1e-10 1e-10 1e-10 1e-10 1e-10 1e-10 1e-10 1e-10 1e-10 1e-10 1e-10 1e-10
          1e-10 1e-10 1e-10 1e-10 1e-10 1e-10 1e-10 1e-10 1e-10 1e-10 1e-10 1e-10
          1e-10 1e-10 1e-10 1e-10 1e-10 1e-10 1e-10 1e-10 1e-10 1e-10 1e-10 1e-10
          1e-10 1e-10 1e-10 1e-10 1e-10 1e-10 1e-10 1e-10 1e-10 1e-10 1e-10 1e-10
          1e-10 1e-10 1e-10 1e-10 1e-10 1e-10 1e-10 1e-10 1e-10 1e-10 1e-10 1e-10
        </DataArray>
        <DataArray type="Float32" Name="x^mesitylene_n" NumberOfComponents="1" format="ascii">
          2.50643e-23 3.92184e-12 6.77851e-07 2.7085e-06 3.49919e-06 3.5152e-06 3.47822e-06 3.43659e-06 3.39428e-06 3.35053e-06 3.3018e-06 3.23229e-06
          2.37832e-06 4.2939e-06 2.15714e-05 1.7029e-22 2.53213e-11 8.83955e-06 3.47671e-05 4.40934e-05 4.45985e-05 4.40577e-05 4.30505e-05 4.11193e-05
          3.71573e-05 2.97321e-05 1.89898e-05 1.32065e-05 1.15014e-05 3.89385e-05 4.57571e-22 1.57719e-10 0.000116616 0.000513983 0.000656043 0.000667117
          0.000659369 0.000643774 0.000612228 0.000543615 0.000410585 0.000232421 0.000230044 0.000227885 0.00204532 7.97117e-22 2.07695e-07 0.0764801
          0.0602606 0.0323285 0.0134986 0.00497853 0.0018033 0.000765987 0.000449205 0.000328125 0.000228293 0.000228727 0.000227102 0.0379024
          2.58234e-21 2.06598e-07 1 1 1 1 1 1 0.526975 0.273426 0.144355 0.0867032
          0.157173 0.222858 0.331611 2.10026e-18 1.68076e-07 1 1 1 1 1 1 0.78446
          0.544895 0.366628 0.50495 0.840239 0.814482 0.780768 3.70341e-15 1.26822e-10 1 1 1 1
          1 1 0.98423 0.977941 0.969405 0.941838 0.852708 0.768462 0.683484 1.44576e-15 1.47225e-11 0.0737301
          0.277435 0.381204 0.391329 0.38732 0.381924 0.376448 0.370927 0.365456 0.360008 0.354387 0.347542 0.33939
        </DataArray>
        <DataArray type="Float32" Name="x^Air_n" NumberOfComponents="1" format="ascii">
          1e-10 1e-10 1e-10 1e-10 1e-10 1e-10 1e-10 1e-10 1e-10 1e-10 1e-10 1e-10
          1e-10 1e-10 1e-10 1e-10 1e-10 1e-10 1e-10 1e-10 1e-10 1e-10 1e-10 1e-10
          1e-10 1e-10 1e-10 1e-10 1e-10 1e-10 1e-10 1e-10 1e-10 1e-10 1e-10 1e-10
          1e-10 1e-10 1e-10 1e-10 1e-10 1e-10 1e-10 1e-10 1e-10 1e-10 1e-10 1e-10
          1e-10 1e-10 1e-10 1e-10 1e-10 1e-10 1e-10 1e-10 1e-10 1e-10 1e-10 1e-10
          1e-10 1e-10 1e-10 1e-10 1e-10 1e-10 1e-10 1e-10 1e-10 1e-10 1e-10 1e-10
          1e-10 1e-10 1e-10 1e-10 1e-10 1e-10 1e-10 1e-10 1e-10 1e-10 1e-10 1e-10
          1e-10 1e-10 1e-10 1e-10 1e-10 1e-10 1e-10 1e-10 1e-10 1e-10 1e-10 1e-10
          1e-10 1e-10 1e-10 1e-10 1e-10 1e-10 1e-10 1e-10 1e-10 1e-10 1e-10 1e-10
          1e-10 1e-10 1e-10 1e-10 1e-10 1e-10 1e-10 1e-10 1e-10 1e-10 1e-10 1e-10
        </DataArray>
        <DataArray type="Float32" Name="x^H2O_g" NumberOfComponents="1" format="ascii">
          0.377793 0.234127 0.0634341 0.0273718 0.0236385 0.0233064 0.0232777 0.0232763 0.0232772 0.0232783 0.0232792 0.02328
          0.0232824 0.0232858 0.0232884 0.380522 0.271866 0.074774 0.0282538 0.0237154 0.0233131 0.0232784 0.0232766 0.0232775
          0.0232786 0.0232796 0.0232805 0.0232835 0.0232865 0.0232887 0.376779 0.298103 0.0914245 0.0297249 0.0238319 0.0233224
          0.0232794 0.0232769 0.0232778 0.0232789 0.0232801 0.0232814 0.0232837 0.0232862 0.0232883 0.370757 0.0414364 0.0250328
          0.0234624 0.0232906 0.0232764 0.0232763 0.0232774 0.0232789 0.0232802 0.0232819 0.0232843 0.0232861 0.0232875 0.0232888
          0.37038 0.0361392 0.0238804 0.0233048 0.0232745 0.0232735 0.0232741 0.0232751 0.0232802 0.0232818 0.0232835 0.0232859
          0.0232877 0.0232884 0.0232893 0.37112 0.0419671 0.0254745 0.0235443 0.0233024 0.0232791 0.0232783 0.0232794 0.0232817
          0.0232831 0.0232846 0.0232866 0.0232883 0.0232889 0.0232896 0.377332 0.309403 0.105577 0.0327183 0.0241711 0.0233634
          0.0232861 0.0232785 0.0232811 0.0232831 0.0232847 0.0232861 0.0232875 0.0232887 0.0232896 0.382626 0.300948 0.102995
          0.0324136 0.0241876 0.02337 0.0232878 0.023281 0.0232818 0.0232833 0.0232847 0.023286 0.0232874 0.0232886 0.0232895
        </DataArray>
        <DataArray type="Float32" Name="x^mesitylene_g" NumberOfComponents="1" format="ascii">
          1.18266e-24 1.10967e-13 4.65662e-09 7.39439e-09 8.12671e-09 8.03276e-09 7.93709e-09 7.84151e-09 7.74526e-09 7.64577e-09 7.5349e-09 7.37651e-09
          5.4282e-09 9.80168e-09 4.92467e-08 8.09406e-24 8.40429e-13 7.2669e-08 9.82693e-08 1.02789e-07 1.01947e-07 1.00541e-07 9.82328e-08 9.38295e-08
          8.47925e-08 6.78514e-08 4.33383e-08 3.01436e-08 2.62551e-08 8.88959e-08 2.15319e-23 5.76673e-12 1.1927e-06 1.53885e-06 1.53802e-06 1.52565e-06
          1.50476e-06 1.46898e-06 1.39705e-06 1.24054e-06 9.37012e-07 5.30446e-07 5.25068e-07 5.20199e-07 4.66933e-06 3.68735e-23 8.95451e-10 0.000190044
          0.000138757 7.38186e-05 3.08011e-05 1.13599e-05 4.1149e-06 1.748e-06 1.02516e-06 7.48886e-07 5.2109e-07 5.2212e-07 5.18444e-07 8.6531e-05
          1.19319e-22 7.66658e-10 0.00234998 0.00228499 0.0022816 0.00228147 0.00228152 0.00228161 0.00120264 0.000624044 0.000329487 0.000197919
          0.000358809 0.000508776 0.000757083 9.72623e-20 7.3464e-10 0.00253228 0.00231181 0.00228469 0.00228208 0.00228197 0.00228207 0.00179038
          0.00124369 0.000836862 0.00115269 0.00191822 0.00185948 0.00178256 1.7453e-16 4.82842e-12 0.0119663 0.00332875 0.00238329 0.00229147
          0.00228283 0.00228197 0.00224625 0.00223209 0.00221276 0.00214997 0.00194662 0.00175439 0.00156045 6.91059e-17 5.43825e-13 0.000860012
          0.000914552 0.00090925 0.000897005 0.000884258 0.000871643 0.000859173 0.000846623 0.000834186 0.0008218 0.000809015 0.00079343 0.000774851
        </DataArray>
        <DataArray type="Float32" Name="x^Air_g" NumberOfComponents="1" format="ascii">
          0.622207 0.765873 0.936566 0.972628 0.976361 0.976694 0.976722 0.976724 0.976723 0.976722 0.976721 0.97672
          0.976718 0.976714 0.976712 0.619478 0.728134 0.925226 0.971746 0.976285 0.976687 0.976721 0.976723 0.976722
          0.976721 0.97672 0.976719 0.976716 0.976713 0.976711 0.623221 0.701897 0.908574 0.970274 0.976167 0.976676
          0.976719 0.976722 0.976721 0.97672 0.976719 0.976718 0.976716 0.976713 0.976707 0.629243 0.958564 0.974777
          0.976399 0.976636 0.976693 0.976712 0.976719 0.976719 0.976719 0.976717 0.976715 0.976713 0.976712 0.976625
          0.62962 0.963861 0.97377 0.97441 0.974444 0.974445 0.974444 0.974443 0.975517 0.976094 0.976387 0.976516
          0.976354 0.976203 0.975954 0.62888 0.958033 0.971993 0.974144 0.974413 0.974439 0.97444 0.974439 0.974928
          0.975473 0.975879 0.975561 0.974793 0.974852 0.974928 0.622668 0.690597 0.882457 0.963953 0.973446 0.974345
          0.974431 0.97444 0.974473 0.974485 0.974503 0.974564 0.974766 0.974957 0.97515 0.617374 0.699052 0.896145
          0.966672 0.974903 0.975733 0.975828 0.975847 0.975859 0.97587 0.975881 0.975892 0.975904 0.975918 0.975936
        </DataArray>
        <DataArray type="Float32" Name="porosity" NumberOfComponents="1" format="ascii">
          0.42 0.42 0.42 0.42 0.42 0.42 0.42 0.42 0.42 0.42 0.42 0.42
          0.42 0.42 0.42 0.42 0.42 0.42 0.42 0.42 0.42 0.42 0.42 0.42
          0.42 0.42 0.42 0.42 0.42 0.42 0.42 0.42 0.42 0.42 0.42 0.42
          0.42 0.42 0.42 0.42 0.42 0.42 0.42 0.42 0.42 0.42 0.42 0.42
          0.42 0.42 0.42 0.42 0.42 0.42 0.42 0.42 0.42 0.42 0.42 0.42
          0.42 0.42 0.42 0.42 0.42 0.42 0.42 0.42 0.42 0.42 0.42 0.42
          0.42 0.42 0.42 0.42 0.42 0.42 0.42 0.42 0.42 0.42 0.42 0.42
          0.42 0.42 0.42 0.42 0.42 0.42 0.42 0.42 0.42 0.42 0.42 0.42
          0.42 0.42 0.42 0.42 0.42 0.42 0.42 0.42 0.42 0.42 0.42 0.42
          0.42 0.42 0.42 0.42 0.42 0.42 0.42 0.42 0.42 0.42 0.42 0.42
        </DataArray>
        <DataArray type="Float32" Name="temperature" NumberOfComponents="1" format="ascii">
          347.65 336.667 310.271 295.646 293.26 293.023 293.002 293 293 293 293 293
          293 293 293 347.813 340.002 313.333 296.165 293.314 293.027 293.002 293 293
          293 293 293 293 293 293 347.59 342.064 317.161 297.03 293.397 293.034
          293.003 293 293 293 293 292.999 292.999 292.999 292.999 347.211 302.667 294.253
          293.135 293.012 293.001 293 293 293 293 293 293 292.999 293 293
          347.186 300.318 293.434 293.023 293 292.998 292.998 292.997 293 293 293 293
          293 293 293 347.235 302.884 294.531 293.192 293.019 293.002 293 293 293
          293 293 293 293 293 293 347.622 342.933 319.986 298.639 293.636 293.061
          293.005 292.999 292.999 293 293 293 293 293 293 347.938 342.281 319.521
          298.489 293.648 293.066 293.006 293 293 293 293 293 293 293 293
        </DataArray>
        <DataArray type="Float32" Name="phase presence" NumberOfComponents="1" format="ascii">
          6 6 6 6 6 6 6 6 6 6 6 6
          6 6 6 6 6 6 6 6 6 6 6 6
          6 6 6 6 6 6 6 6 6 6 6 6
          6 6 6 6 6 6 6 6 6 6 6 6
          6 6 6 6 6 6 6 6 6 6 6 6
          6 6 1 1 1 1 1 1 6 6 6 6
          6 6 6 6 6 1 1 1 1 1 1 6
          6 6 6 6 6 6 6 6 1 1 1 1
          1 1 6 6 6 6 6 6 6 6 6 6
          6 6 6 6 6 6 6 6 6 6 6 6
        </DataArray>
        <DataArray type="Float32" Name="process rank" NumberOfComponents="1" format="ascii">
          0 0 0 0 0 0 0 0 0 0 0 0
          0 0 0 0 0 0 0 0 0 0 0 0
          0 0 0 0 0 0 0 0 0 0 0 0
          0 0 0 0 0 0 0 0 0 0 0 0
          0 0 0 0 0 0 0 0 0 0 0 0
          0 0 0 0 0 0 0 0 0 0 0 0
          0 0 0 0 0 0 0 0 0 0 0 0
          0 0 0 0 0 0 0 0 0 0 0 0
          0 0 0 0 0 0 0 0 0 0 0 0
          0 0 0 0 0 0 0 0 0 0 0 0
        </DataArray>
        <DataArray type="Float32" Name="permeability" NumberOfComponents="1" format="ascii">
          9.14e-10 9.14e-10 9.14e-10 9.14e-10 9.14e-10 9.14e-10 9.14e-10 9.14e-10 9.14e-10 9.14e-10 9.14e-10 9.14e-10
          6.28e-12 6.28e-12 6.28e-12 9.14e-10 9.14e-10 9.14e-10 9.14e-10 9.14e-10 9.14e-10 9.14e-10 9.14e-10 9.14e-10
          9.14e-10 9.14e-10 9.14e-10 6.28e-12 6.28e-12 6.28e-12 9.14e-10 9.14e-10 9.14e-10 9.14e-10 9.14e-10 9.14e-10
          9.14e-10 9.14e-10 9.14e-10 9.14e-10 9.14e-10 9.14e-10 9.14e-10 9.14e-10 9.14e-10 9.14e-10 6.28e-12 6.28e-12
          6.28e-12 6.28e-12 6.28e-12 6.28e-12 6.28e-12 6.28e-12 6.28e-12 6.28e-12 6.28e-12 9.14e-10 9.14e-10 9.14e-10
          9.14e-10 6.28e-12 6.28e-12 6.28e-12 6.28e-12 6.28e-12 6.28e-12 6.28e-12 6.28e-12 6.28e-12 6.28e-12 6.28e-12
          9.14e-10 9.14e-10 9.14e-10 9.14e-10 6.28e-12 6.28e-12 6.28e-12 6.28e-12 6.28e-12 6.28e-12 6.28e-12 6.28e-12
          6.28e-12 6.28e-12 6.28e-12 9.14e-10 9.14e-10 9.14e-10 9.14e-10 9.14e-10 9.14e-10 9.14e-10 9.14e-10 9.14e-10
          9.14e-10 9.14e-10 9.14e-10 9.14e-10 9.14e-10 9.14e-10 9.14e-10 9.14e-10 9.14e-10 9.14e-10 9.14e-10 9.14e-10
          9.14e-10 9.14e-10 9.14e-10 9.14e-10 9.14e-10 9.14e-10 9.14e-10 9.14e-10 9.14e-10 9.14e-10 9.14e-10 9.14e-10
        </DataArray>
      </CellData>
      <Points>
        <DataArray type="Float32" Name="Coordinates" NumberOfComponents="3" format="ascii">
          0 0 0 0.1 0 0 0 0.0925 0 0.1 0.0925 0
          0.2 0 0 0.2 0.0925 0 0.3 0 0 0.3 0.0925 0
          0.4 0 0 0.4 0.0925 0 0.5 0 0 0.5 0.0925 0
          0.6 0 0 0.6 0.0925 0 0.7 0 0 0.7 0.0925 0
          0.8 0 0 0.8 0.0925 0 0.9 0 0 0.9 0.0925 0
          1 0 0 1 0.0925 0 1.1 0 0 1.1 0.0925 0
          1.2 0 0 1.2 0.0925 0 1.3 0 0 1.3 0.0925 0
          1.4 0 0 1.4 0.0925 0 1.5 0 0 1.5 0.0925 0
          0 0.185 0 0.1 0.185 0 0.2 0.185 0 0.3 0.185 0
          0.4 0.185 0 0.5 0.185 0 0.6 0.185 0 0.7 0.185 0
          0.8 0.185 0 0.9 0.185 0 1 0.185 0 1.1 0.185 0
          1.2 0.185 0 1.3 0.185 0 1.4 0.185 0 1.5 0.185 0
          0 0.2775 0 0.1 0.2775 0 0.2 0.2775 0 0.3 0.2775 0
          0.4 0.2775 0 0.5 0.2775 0 0.6 0.2775 0 0.7 0.2775 0
          0.8 0.2775 0 0.9 0.2775 0 1 0.2775 0 1.1 0.2775 0
          1.2 0.2775 0 1.3 0.2775 0 1.4 0.2775 0 1.5 0.2775 0
          0 0.37 0 0.1 0.37 0 0.2 0.37 0 0.3 0.37 0
          0.4 0.37 0 0.5 0.37 0 0.6 0.37 0 0.7 0.37 0
          0.8 0.37 0 0.9 0.37 0 1 0.37 0 1.1 0.37 0
          1.2 0.37 0 1.3 0.37 0 1.4 0.37 0 1.5 0.37 0
          0 0.4625 0 0.1 0.4625 0 0.2 0.4625 0 0.3 0.4625 0
          0.4 0.4625 0 0.5 0.4625 0 0.6 0.4625 0 0.7 0.4625 0
          0.8 0.4625 0 0.9 0.4625 0 1 0.4625 0 1.1 0.4625 0
          1.2 0.4625 0 1.3 0.4625 0 1.4 0.4625 0 1.5 0.4625 0
          0 0.555 0 0.1 0.555 0 0.2 0.555 0 0.3 0.555 0
          0.4 0.555 0 0.5 0.555 0 0.6 0.555 0 0.7 0.555 0
          0.8 0.555 0 0.9 0.555 0 1 0.555 0 1.1 0.555 0
          1.2 0.555 0 1.3 0.555 0 1.4 0.555 0 1.5 0.555 0
          0 0.6475 0 0.1 0.6475 0 0.2 0.6475 0 0.3 0.6475 0
          0.4 0.6475 0 0.5 0.6475 0 0.6 0.6475 0 0.7 0.6475 0
          0.8 0.6475 0 0.9 0.6475 0 1 0.6475 0 1.1 0.6475 0
          1.2 0.6475 0 1.3 0.6475 0 1.4 0.6475 0 1.5 0.6475 0
          0 0.74 0 0.1 0.74 0 0.2 0.74 0 0.3 0.74 0
          0.4 0.74 0 0.5 0.74 0 0.6 0.74 0 0.7 0.74 0
          0.8 0.74 0 0.9 0.74 0 1 0.74 0 1.1 0.74 0
          1.2 0.74 0 1.3 0.74 0 1.4 0.74 0 1.5 0.74 0
        </DataArray>
      </Points>
      <Cells>
        <DataArray type="Int32" Name="connectivity" NumberOfComponents="1" format="ascii">
          0 1 3 2 1 4 5 3 4 6 7 5
          6 8 9 7 8 10 11 9 10 12 13 11
          12 14 15 13 14 16 17 15 16 18 19 17
          18 20 21 19 20 22 23 21 22 24 25 23
          24 26 27 25 26 28 29 27 28 30 31 29
          2 3 33 32 3 5 34 33 5 7 35 34
          7 9 36 35 9 11 37 36 11 13 38 37
          13 15 39 38 15 17 40 39 17 19 41 40
          19 21 42 41 21 23 43 42 23 25 44 43
          25 27 45 44 27 29 46 45 29 31 47 46
          32 33 49 48 33 34 50 49 34 35 51 50
          35 36 52 51 36 37 53 52 37 38 54 53
          38 39 55 54 39 40 56 55 40 41 57 56
          41 42 58 57 42 43 59 58 43 44 60 59
          44 45 61 60 45 46 62 61 46 47 63 62
          48 49 65 64 49 50 66 65 50 51 67 66
          51 52 68 67 52 53 69 68 53 54 70 69
          54 55 71 70 55 56 72 71 56 57 73 72
          57 58 74 73 58 59 75 74 59 60 76 75
          60 61 77 76 61 62 78 77 62 63 79 78
          64 65 81 80 65 66 82 81 66 67 83 82
          67 68 84 83 68 69 85 84 69 70 86 85
          70 71 87 86 71 72 88 87 72 73 89 88
          73 74 90 89 74 75 91 90 75 76 92 91
          76 77 93 92 77 78 94 93 78 79 95 94
          80 81 97 96 81 82 98 97 82 83 99 98
          83 84 100 99 84 85 101 100 85 86 102 101
          86 87 103 102 87 88 104 103 88 89 105 104
          89 90 106 105 90 91 107 106 91 92 108 107
          92 93 109 108 93 94 110 109 94 95 111 110
          96 97 113 112 97 98 114 113 98 99 115 114
          99 100 116 115 100 101 117 116 101 102 118 117
          102 103 119 118 103 104 120 119 104 105 121 120
          105 106 122 121 106 107 123 122 107 108 124 123
          108 109 125 124 109 110 126 125 110 111 127 126
          112 113 129 128 113 114 130 129 114 115 131 130
          115 116 132 131 116 117 133 132 117 118 134 133
          118 119 135 134 119 120 136 135 120 121 137 136
          121 122 138 137 122 123 139 138 123 124 140 139
          124 125 141 140 125 126 142 141 126 127 143 142
        </DataArray>
        <DataArray type="Int32" Name="offsets" NumberOfComponents="1" format="ascii">