<?xml version="1.0"?>
<VTKFile type="UnstructuredGrid" version="0.1" byte_order="LittleEndian">
  <UnstructuredGrid>
    <Piece NumberOfCells="2584" NumberOfPoints="2613">
      <CellData Scalars="Sn">
        <DataArray type="Float32" Name="Sn" NumberOfComponents="1" format="ascii">
          0 0 0 0 0 0 0 0 0 0 0 0
          0 0 0 0 0 0 0 0 0 0 0 0
          0 0 0 0 0 0 0 0 0 0 0 0
          0 0 0 0 0 0 0 0 0 0 0 0
          0 0 0 0 0 0 0 0 0 0 0 0
          0 0 0 0 0 0 0 0 0 0 0 0
          0 0 0 0 0 0 0 0 0 0 0 0
          0 0 0 0 0 0 0 0 0 0 0 0
          0 0 0 0 0 0 0 0 0 0 0 0
          0 0 0 0 0 0 0 0 0 0 0 0
          0 0 0 0 0 0 0 0 0 0 0 0
          0 0 0 0 0 0 0 0 0 0 0 0
          0 0 0 0 0 0 0 0 0 0 0 0
          0 0 0 0 0 0 0 0 0 0 0 0
          0 0 0 0 0 0 0 0 0 0 0 0
          0 0 0 0 0 0 0 0 0 0 0 0
          0 0 0 0 0 0 0 0 0 0 0 0
          0 0 0 0 0 0 0 0 0 0 0 0
          0 0 0 0 0 0 0 0 0 0 0 0
          0 0 0 0 0 0 0 0 0 0 0 0
          0 0 0 0 0 0 0 0 0 0 0 0
          0 0 0 0 0 0 0 0 0 0 0 0
          0 0 0 0 0 0 0 0 0 0 0 0
          0 0 0 0 0 0 0 0 0 0 0 0
          0 0 0 0 0 0 0 0 0 0 0 0
          0 0 0 0 0 0 0 0 0 0 0 0
          0 0 0 0 0 0 0 0 0 0 0 0
          0 0 0 0 0 0 0 0 0 0 0 0
          0 0 0 0 0 0 0 0 0 0 0 0
          0 0 0 0 0 0 0 0 0 0 0 0
          0 0 0 0 0 0 0 0 0 0 0 0
          0 0 0 0 0 0 0 0 0 0 0 0
          0 0 0 0 0 0 0 0 0 0 0 0
          0 0 0 0 0 0 0 0 0 0 0 0
          0 0 0 0 0 0 0 0 0 0 0 0
          0 0 0 0 0 0 0 0 0 0 0 0
          0 0 0 0 0 0 0 0 0 0 0 0
          0 0 0 0 0 0 0 0 0 0 0 0
          0 0 0 0 0 0 0 0 0 0 0 0
          0 0 0 0 0 0 0 0 0 0 0 0
          0 0 0 0 0 0 0 0 0 0 0 0
          0 0 0 0 0 0 0 0 0 0 0 0
          0 0 0 0 0 0 0 0 0 0 0 0
          0 0 0 0 0 0 0 0 0 0 0 0
          0 0 0 0 0 0 0 0 0 0 0 0
          0 0 0 0 0 0 0 0 0 0 0 0
          0 0 0 0 0 0 0 0 0 0 0 0
          0 0 0 0 0 0 0 0 0 0 0 0
          0 0 0 0 0 0 0 0 0 0 0 0
          0 0 0 0 0 0 0 0 0 0 0 0
          0 0 0 0 0 0 0 0 0 0 0 0
          0 0 0 0 0 0 0 0 0 0 0 0
          0 0 0 0 0 0 0 0 0 0 0 0
          0 0 0 0 0 0 0 0 0 0 0 0
          0 0 0 0 0 0 0 0 0 0 0 0
          0 0 0 0 0 0 0 0 0 0 0 0
          0 0 0 0 0 0 0 0 0 0 0 0
          0 0 0 0 0 0 0 0 0 0 0 0
          0 0 0 0 0 0 0 0 0 0 0 0
          0 0 0 0 0 0 0 0 0 0 0 0
          0 0 0 0 0 0 0 0 0 0 0 0
          0 0 0 0 0 0 0 0 0 0 0 0
          0 0 0 0 0 0 0 0 0 0 0 0
          0 0 0 0 0 0 0 0 0 0 0 0
          0 0 0 0 0 0 0 0 0 0 0 0
          0 0 0 0 0 0 0 0 0 0 0 0
          0 0 0 0 0 0 0 0 0 0 0 2.88146e-30
          0 0 0 0 0 0 0 0 0 0 0 0
          0 0 0 0 0 0 0 0 0 0 0 0
          0 0 0 0 0 0 0 0 0 0 0 0
          0 0 0 0 1.01632e-32 0 0 0 0 0 0 0
          0 0 0 0 0 0 0 0 0 0 0 0
          0 0 0 0 0 0 0 0 0 0 0 0
          0 0 0 0 0 0 0 0 -9.90525e-38 0 0 0
          0 0 0 0 0 0 0 0 0 0 0 0
          0 0 0 0 0 0 0 0 0 0 0 0
          0 0 0 0 0 0 0 0 0 0 0 0
          0 0 0 0 0 0 0 0 0 0 0 0
          0 0 0 0 0 0 0 0 0 0 0 0
          0 0 0 0 0 0 0 0 0 0 0 0
          0 0 0 0 0 0 0 0 0 0 0 0
          0 0 0 0 0 0 0 0 0 0 0 0
          0 0 0 0 0 0 0 0 0 0 0 0
          0 0 0 0 0 0 0 0 -2.01284e-36 -4.4323e-34 -3.84882e-33 0
          0 0 0 0 0 0 0 0 0 0 0 0
          0 0 0 0 0 0 0 0 0 2.9224e-38 0 0
          0 0 0 0 0 0 0 0 0 0 0 0
          0 0 0 0 0 0 0 0 0 0 4.20387e-21 2.68387e-37
          0 0 0 0 0 0 0 0 0 0 0 0
          0 0 0 0 0 0 0 0 0 0 0 0
          0 0 0 0 0 0 0 0 0 0 0 0
          0 0 0 0 0 0 0 0 0 0 0 0
          0 0 0 0 0 0 0 0 0 0 0 0
          0 0 0 0 0 0 0 0 0 0 0 0
          0 0 0 0 0 0 0 0 0 0 0 0
          0 0 0 0 0 0 0 0 0 0 0 0
          0 0 0 0 0 0 0 0 0 0 0 0
          0 0 0 0 0 0 0 0 0 0 0 0
          0 0 0 0 0 0 0 0 0 0 0 0
          0 0 0 0 0 0 0 0 0 0 0 0
          0 0 0 0 0 0 0 0 0 0 0 0
          0 0 0 0 0 0 0 0 0 0 0 0
          0 0 0 0 8.65318e-07 4.97355e-09 1.22451e-16 1.67108e-09 1.21901e-18 2.50005e-11 1.28901e-23 2.2556e-16
          8.09695e-14 9.08006e-29 3.3814e-22 1.47511e-11 0 1.98305e-34 0 0 0 0 0 0
          0 0 0 2.4412e-34 0 0 6.31176e-22 1.11332e-11 5.6994e-16 1.35775e-05 0 1.50432e-38
          5.30416e-18 1.39329e-06 9.31723e-13 1.63229e-23 0 5.80535e-27 1.52487e-07 1.19211e-13 0 2.42434e-22 0 0
          0 2.68052e-25 0 2.86178e-25 0 2.87863e-08 1.23751e-28 -1.44665e-38 0 8.40035e-26 0 7.4247e-34
          6.43221e-11 2.26554e-10 1.79664e-09 4.56198e-09 5.47943e-09 5.73485e-09 3.60035e-17 0 0 0 0 0
          0 0 4.44923e-35 0 8.82763e-37 6.89303e-37 9.28922e-21 0 0 0 0 0
          0 1.32599e-38 0 2.73684e-35 1.25798e-38 5.33216e-21 2.74653e-29 1.43982e-26 1.10245e-11 1.75715e-11 1.69449e-11 9.39989e-07
          9.31794e-07 3.90615e-05 6.49821e-13 6.63936e-13 1.06708e-08 -7.4031e-33 -9.63782e-33 -5.4265e-36 0 0 0 0
          7.85486e-21 8.88711e-20 4.67315e-18 2.81555e-17 4.09652e-17 4.79273e-17 1.97384e-24 4.25856e-19 -4.00553e-35 -1.60224e-38 0 0
          5.93995e-13 4.43933e-09 3.04956e-08 3.34963e-10 1.90575e-09 4.52017e-09 1.06085e-22 -2.17837e-37 2.6959e-06 0.000196337 0.000159787 8.06935e-06
          0.000347172 0.000286396 1.31916e-05 0.000422369 0.000393997 1.47419e-05 0.000445143 0.000430825 1.38956e-05 0.000526159 0.00042735 3.27395e-05
          1.16098e-05 0.000560931 0.000937455 1.13866e-05 7.00127e-06 0.000321159 0.000476907 6.68369e-10 1.37672e-09 3.51456e-06 -2.89388e-38 0
          0.000238347 0.00270873 0.00289868 0.00348471 0.00380368 0.00406069 0.00417973 0.00422505 0.00423397 0.00406418 0.00387178 0.00518155
          0.00397755 0.00379796 0 0 1.93386e-06 6.23718e-06 1.20904e-13 1.31708e-13 4.06052e-10 0 0 0.000480998
          0.00114282 1.77985e-06 1.37243e-08 1.7002e-08 1.70159e-05 3.13392e-15 1.38059e-15 5.57742e-15 0 0 0 0
          0 0 0.0471902 0.0538687 0.0414306 0.0587321 0.0597926 0.0580395 0.0597618 0.0603153 0.0604784 0.0603182
          0.0503841 0.0578141 0.0596248 0.0551283 0.060255 0.0604358 0.0602647 0.0604103 0.0604943 0.0604797 0.0605247 0.0605282
          0.0605345 0.0605336 0.0604685 0.0605125 0.0605306 0.0605196 0.0604253 0.0604992 0.0604986 0.0604265 0.0604994 0.0605
          0.0605295 0.0605295 0.0605348 0.0605348 0.0605292 0.0605294 0.0605348 0.0605347 0.0604264 0.0604993 0.0605 0.0604263
          0.0604992 0.0604999 0.0605295 0.0605295 0.0605348 0.0605348 0.0605295 0.0605295 0.0605348 0.0605348 0.0604261 0.060499
          0.0604998 0.0604259 0.0604989 0.0604997 0.0605294 0.0605294 0.0605348 0.0605348 0.0605294 0.0605294 0.0605348 0.0605348
          0.0604257 0.0604988 0.0604996 0.0604258 0.0604988 0.0604995 0.0605294 0.0605294 0.0605348 0.0605348 0.0605294 0.0605294
          0.0605348 0.0605348 0.0604266 0.0604989 0.0604997 0.060424 0.0604906 0.0604989 0.0605292 0.0605271 0.0605341 0.0605347
          0.0605294 0.0605294 0.0605348 0.0605348 0.0602494 0.060176 0.0604514 0.0557432 0.0521806 0.0589233 0.0596989 0.0550785
          0.0571241 0.0601628 0.0605128 0.0604097 0.0604917 0.0605295 0.0155085 0.0237076 0.00500405 0.0048629 0.0189788 0.0196861
          0.0190169 0.0167965 0.00479297 0.0304055 0.0127181 0.00938181 0.0299129 0.0241501 0.0255191 0 0 0.000314419
          2.24907e-05 0.00181013 9.99192e-06 0.0454939 0.0549908 0.053472 0.049327 0.0585662 0.0576109 0.0699948 0.0693953 0.0811483
          0.08129 0.0671465 0.0682246 0.0801227 0.0802158 0.0459389 0.0441796 0.0557357 0.0574668 0.041109 0.0369809 0.0484553
          0.0526733 0.0636408 0.0596674 0.070578 0.0747133 0.0686145 0.0667904 0.0782009 0.0803225 0.0328633 0.0364638 0.0417654
          0.0281579 0.0419915 0.0383867 0.0487469 0.0547909 0.0507657 0.060268 0.065818 0.0125867 0.00588586 0.0254759 0.000586076
          7.7269e-08 0.0927472 0.0926517 0.106282 0.106411 0.0938369 0.0941623 0.108503 0.10769 0.122051 0.123603 0.140416
          0.137646 0.118923 0.119861 0.134268 0.132407 0.0933364 0.0907533 0.104821 0.107847 0.0866266 0.0818712 0.094245
          0.0999477 0.114076 0.107645 0.121481 0.129128 0.123291 0.119673 0.136045 0.140805 0.0765714 0.0704843 0.0811182
          0.0879754 0.0622216 0.0549975 0.0650375 0.0732886 0.084134 0.0753497 0.0859017 0.0955582 0.100473 0.0925723 0.10482
          0.113384 0.0443369 0.0415285 0.0523416 0.0266269 0.0424572 0.030843 0.0478634 0.0651981 0.0564706 0.0653211 0.0758271
          1.32011e-06 0.145713 0.149757 0.167489 0.161124 0.155277 0.160239 0.185106 0.176226 0.202102 0.218384 0.266147
          0.235348 0.177146 0.187872 0.212352 0.196447 0.162183 0.155207 0.179128 0.190659 0.14598 0.136353 0.152926
          0.165769 0.190062 0.171943 0.194082 0.220978 0.23293 0.21107 0.256881 0.304684 0.126738 0.117125 0.129732
          0.140965 0.107299 0.0969527 0.108041 0.118892 0.130516 0.118801 0.129285 0.142193 0.156427 0.142847 0.156503
          0.173299 0.0861107 0.0749524 0.0848921 0.0966984 0.0614806 0.049097 0.0613363 0.0726942 0.0823059 0.0697954 0.0757285
          0.0908352 0.10711 0.0948687 0.104384 0.116931 7.11908e-13 0.216434 0.240342 0.258422 0.232308 0.277644 0.338397
          0.350345 0.296221 0.306136 0.352678 0.351417 0.312096 0.24435 0.270439 0.279115 0.253896 0.449917 0.326483
          0.336477 0.42275 0.260085 0.21911 0.233911 0.275396 0.282538 0.242689 0.248136 0.286318 0.398702 0.337744
          0.334974 0.380051 0.191173 0.17041 0.181749 0.204201 0.153756 0.139411 0.148443 0.163772 0.171681 0.155657
          0.16049 0.177386 0.213146 0.190275 0.196412 0.219259 0.126166 0.113075 0.120745 0.134455 0.0991344 0.0832861
          0.0903622 0.106375 0.111007 0.0943328 0.090999 0.110013 0.140883 0.12628 0.127595 0.144288 0.0645989 0.0487682
          0.0567699 0.0730804 0.0282217 0.029457 0.0348928 0.0282063 0.0140359 0.0194073 0.0762281 0.0565508 0.0458504 0.0701731
          0.0123023 0.000385134 0.00246023 1.27568e-06 0.261243 0.285581 0.290617 0.267512 0.315724 0.348327 0.344186 0.31776
          0.318265 0.339055 0.331727 0.316446 0.271597 0.29408 0.295473 0.273709 0.365455 0.330617 0.325279 0.353562
          0.287701 0.25147 0.252686 0.286977 0.283467 0.250039 0.238132 0.273593 0.342863 0.318438 0.307419 0.330668
          0.223105 0.200103 0.200062 0.224231 0.180139 0.161251 0.153383 0.177343 0.162146 0.126681 0.0701719 0.122082
          0.22017 0.192083 0.16609 0.203213 0.141534 0.119209 0.0915832 0.125549 0.0963326 0.0725063 0.0377649 0.0643213
          0.0340614 0.0111231 0.00534718 0.0846146 0.0602244 0.0232203 2.23553e-27 0.268651 0.291322 0.271304 0.249951 0.308467
          0.317225 0.279294 0.28104 0.177901 0.158652 0.0660746 0.170352 0.187586 0.0846738 0.309844 0.283574 0.22378
          0.260453 0.246095 0.20276 0.12249 0.176592 0.0459126 0.0177478 0.00379191 0.124915 0.0807157 0.0225054 0.157277
          0.109442 0.0307001 0.0727176 0.0622908 0.0352619 0.00632609 4.09518e-05 0.00669341 0.00280163 0.000213819 0.00822532 0.000859058
          0 1.64182e-18 0.000419488 0 0 0 0 0 0 0 0 0
          0 0 0 0 0.0488677 0.0602466 0.0768198 0.0907123 0.086533 0.0753972 0.0834925 0.0948329
          0.0991297 0.101792 0.114982 0.110812 0.125126 0.137663 0.133127 0.119238 0.00781247 0.0033245 0.0156335 0.122196
          0.139433 0.148079 0.161474 0.156072 0.173051 0.188021 0.18109 0.160296 0.0347062 0.0403478 0.0474613 0.0181392
          0.0100368 0.0511765 0.0342304 0.0528016 0.000193429 1.81801e-08 0.000195085 0.181628 0.200193 0.213933 0.205913 0.222671
          0.232956 0.224952 0.199042 0.210929 0.238159 0.245103 0.237461 0.245081 0.243924 0.23834 0.212724 0.0456152
          0.0271356 0.00951794 0.00887732 3.28753e-05 0.00192611 0.000629344 7.42093e-15 6.58172e-09 0.181542 0.223708 0.191315 0.194465
          0.118493 0.0849354 6.25518e-06 3.01708e-10 0 0.0672046 0.0904025 0.112998 0.0967575 0.14041 0.152339 0.148639
          0.109375 0.124191 0.13196 0.118955 0.130335 0.145981 0.15243 0.137874 0.162028 0.17369 0.168092 0.179186
          0.19032 0.18225 0.146041 0.163609 0.167068 0.150007 0.000272769 0.000597232 0.017935 0.0324381 0.0242282 0.00835755
          0.00519963 0.0162199 0.0199086 0.0257572 0.0225687 0.029027 0.0301407 0.00505154 0.00769816 0.0164306 0.0357789 0.0726436
          0.0907676 0.103706 0.0933552 0.0486215 0.0505326 0.108586 0.116717 0.104282 0.116402 0.123432 0.1059 0.0428632
          0.145588 0.165244 0.15323 0.18914 0.185045 0.146471 0.000339137 3.82085e-12 1.4983e-28 2.73738e-10 0.000212903 5.41641e-15
          0.0171269 0.0251455 0.0150409 0.0330986 0.0394633 0.0341228 0.0418586 0.0459121 0.049309 0.0461772 0.0247311 0.0330981
          0.0376472 0.030978 0.0415267 0.0455813 0.0428986 0.0429748 0.043825 0.0481247 0.0473632 0.0509034 0.0513838 0.0538114
          0.0534416 0.0487798 0.0501092 0.0528462 0.0517641 0.0443024 0.0446692 0.0487368 0.0484714 0.0448476 0.0450318 0.048987
          0.0488475 0.0518548 0.0519729 0.0542288 0.0541098 0.0516009 0.0518046 0.0541159 0.0539393 0.0450983 0.0452096 0.0491097
          0.0490193 0.0452195 0.0452844 0.0491607 0.0491016 0.0520205 0.0520877 0.0543029 0.0542124 0.0519675 0.0520542 0.0542812
          0.0541806 0.0452499 0.0452737 0.049154 0.0491215 0.0451956 0.0451722 0.0490928 0.0490863 0.0520112 0.05205 0.0542833
          0.054205 0.0520328 0.0520844 0.054302 0.0542188 0.0450359 0.0449424 0.0489919 0.0489979 0.0447196 0.0445422 0.0491188
          0.0489294 0.0519377 0.0520315 0.0542349 0.0541502 0.051963 0.0520027 0.0542559 0.0541758 0.0457673 0.048825 0.0501082
          0.0500497 0.0439342 0.0431515 0.0478331 0.0485663 0.0516177 0.0512697 0.053764 0.0538869 0.0519551 0.0519441 0.0541223
          0.0540897 0.0422672 0.0443089 0.0464682 0.0348692 0.0341399 0.0409749 0.0469508 0.042287 0.0464736 0.0499745 0.0505044
          0.0496907 0.0524806 0.0531435 0.00377613 0.00181175 0.00572658 0.00058539 3.52003e-05 2.92411e-05 0.000112922 0.000515489 3.49453e-05
          2.89653e-05 2.97025e-05 0.00313217 0.000243306 0.00488324 3.08005e-06 0.000313014 1.22917e-06 0.00285536 0.00291875 0.00939639 9.49891e-09
          1.90608e-05 0.000225246 0.00308354 0.00846458 0.0139976 0.00961938 0.00248847 0.0218236 0.0107762 0.0194944 0.0302417 0.0309506
          0.03402 0.00702604 0.0156663 0.0131745 0.036049 0.0405091 0.0409061 0.0494339 0.0517251 0.0533812 0.0542441 0.0417615
          0.0540093 0.0548364 0.0564754 0.0553308 0.0556513 0.0572454 0.0578963 0.0571806 0.0556975 0.0558848 0.0574416 0.0558091
          0.0559622 0.0574944 0.0581153 0.058072 0.05585 0.0559959 0.0575123 0.0558663 0.0560103 0.0575185 0.0581319 0.058128
          0.0558677 0.0560116 0.0575179 0.0558573 0.0560029 0.0575119 0.0581281 0.0581315 0.0558369 0.0559865 0.0575005 0.0558123
          0.0559607 0.0574851 0.0581111 0.0581209 0.0557609 0.0558866 0.0574509 0.0556227 0.0556658 0.0573473 0.0580137 0.0580902
          0.0550273 0.054635 0.0567193 0.0519509 0.0496066 0.052688 0.0534022 0.0574395 0.0343885 0.0271043 0.031991 0.0448332
          0.0563469 0.0586743 0.0591652 0.0592696 0.0592908 0.0592953 0.0592961 0.0592956 0.0592944 0.0592923 0.0592907 0.0592881
          0.0592615 0.0588924 0.0554042 0.0331308 0.0261804 0.0428087 0.00700246 0.000824729 0.000815384 0.000186776 0.00282592 0.00769941
          4.3848e-06 3.10251e-15 3.65687e-13 4.55774e-08 3.08341e-09 6.68556e-08 3.08073e-09 3.08073e-09 3.92285e-08 3.08424e-09 7.77473e-08 5.10772e-16
          9.83497e-16 0.00811222 0.0197458 0.00620734 0.0201961 0.0202452 0.031535 0.0359845 0.0341216 0.0316677 0.0218034 0.0225911
          0.0343003 0.0379437 0.0376786 0.0335518 0.037406 0.0368007 0.0229987 0.0232108 0.0348237 0.0383109 0.0382351 0.0346523
          0.0382009 0.0380538 0.0232542 0.023137 0.0347274 0.0381356 0.0382059 0.0348495 0.0382948 0.038284 0.0227883 0.0223726
          0.0337353 0.0369501 0.0373544 0.0343778 0.0377267 0.0379493 0.0257887 0.0213959 0.0320577 0.0344225 0.0361602 0.037792
          0.0189957 0.0203914 0.0313121 2.66901e-06 0.000254459 0.000295464 0 0 1.00249e-07 3.02196e-05 3.10298e-05 3.01615e-05
          0.000343171 0.00138645 0.000100919 3.01857e-05 3.01936e-05 2.99391e-05 2.99359e-05 1.70044e-28 2.92176e-16 2.66782e-16 1.30307e-35 4.93644e-17
          1.15366e-09 1.15366e-09 1.3391e-09 2.63199e-08 1.15398e-09 1.15366e-09 0 0 9.73529e-23 1.34245e-34 5.49665e-08 5.49684e-08
          3.14563e-07 3.77437e-07 3.86066e-08 9.31357e-07 2.1931e-07 0.000133245 0.00015564 0.00208919 0.00189199 0.000146876 0.000134254 0.00163354
          0.00176251 8.19765e-07 7.29305e-06 0.000381516 6.64324e-06 0.00046034 0.00242091 0.00592394 0.00244592 0.00695038 0.0134113 0.0251882
          0.0145364 0.000359724 0.00251313 0.00628547 0.00187506 0.00274962 0.00417673 0.00160878 0.000861374 0.00705076 0.00828476 0.00504716
          0.00506679 0.000751354 0.000642533 0.000271547 0.000272529 1.20843e-06 2.98256e-05 2.41282e-06 1.19869e-06 2.41367e-26 2.33819e-26 7.50345e-22
          1.3146e-21 7.50335e-22 1.95416e-14 1.95416e-14 8.55213e-14 1.95416e-14 1.95416e-14 1.95416e-14 9.35371e-13 2.28976e-08 2.62813e-05 2.84755e-07
          7.94045e-05 3.31475e-12 3.34899e-12 1.53613e-10 3.31476e-12 1.66831e-06 0.000214406 3.111e-06 3.31475e-12 2.77339e-10 3.31475e-12 0.000117756
          0.000997541 0.00683698 0.000632406 0.00255999 0.00354284 0.00224038 0.00163013 0.00821288 0.00731592 0.00647083 0.0129066 0.00740225
          0.00771017 0.0151471 0.025655 0.0208021 0.027634 0.0367791 0.00970731 0.0169328 0.031158 0.0275276 0.00641688 0.0151846
          0.00868718 0.0250452 0.0401232 0.0291548 0.0332613 0.0116808 0.0518688 0.0592316 0.0477996 0.0676989 0.0139798 0.0342317
          0.0375483 0.0872267 0.117415 0.10764 0.022361 0.0680796 0.0359441 0.0297275 0.0207327 0.016116 0.0157604 0.00935046
          0.0987988 0.140839 0.0606195 0.041948 0.00305514 0.000540412 0.00918787 0.00900837 0.010869 0.010268 0.0114489 0.0112518
          0.0114736 0.0115157 0.0109307 0.0112029 0.0107042 0.0134164 0.00303484 0.0102383 0.00122306 0.000226988 0.000458765 0.00199985
          6.67505e-05 6.35649e-05 6.35361e-05 6.32543e-05 0.00318936 0.000595257 0.000499539 0.000201294 2.16629e-11 3.1619e-12 3.1619e-12 3.1619e-12
          3.1619e-12 3.1619e-12 3.1619e-12 3.1619e-12 0 0 0 0.00210015 0.0047788 1.19374e-22 0 0.00969611
          0.00378921 0.000167023 5.12902e-07 3.17293e-07
        </DataArray>
        <DataArray type="Float32" Name="Sw" NumberOfComponents="1" format="ascii">
          1 1 1 1 1 1 1 1 1 1 1 1
          1 1 1 1 1 1 1 1 1 1 1 1
          1 1 1 1 1 1 1 1 1 1 1 1
          1 1 1 1 1 1 1 1 1 1 1 1
          1 1 1 1 1 1 1 1 1 1 1 1
          1 1 1 1 1 1 1 1 1 1 1 1
          1 1 1 1 1 1 1 1 1 1 1 1
          1 1 1 1 1 1 1 1 1 1 1 1
          1 1 1 1 1 1 1 1 1 1 1 1
          1 1 1 1 1 1 1 1 1 1 1 1
          1 1 1 1 1 1 1 1 1 1 1 1
          1 1 1 1 1 1 1 1 1 1 1 1
          1 1 1 1 1 1 1 1 1 1 1 1
          1 1 1 1 1 1 1 1 1 1 1 1
          1 1 1 1 1 1 1 1 1 1 1 1
          1 1 1 1 1 1 1 1 1 1 1 1
          1 1 1 1 1 1 1 1 1 1 1 1
          1 1 1 1 1 1 1 1 1 1 1 1
          1 1 1 1 1 1 1 1 1 1 1 1
          1 1 1 1 1 1 1 1 1 1 1 1
          1 1 1 1 1 1 1 1 1 1 1 1
          1 1 1 1 1 1 1 1 1 1 1 1
          1 1 1 1 1 1 1 1 1 1 1 1
          1 1 1 1 1 1 1 1 1 1 1 1
          1 1 1 1 1 1 1 1 1 1 1 1
          1 1 1 1 1 1 1 1 1 1 1 1
          1 1 1 1 1 1 1 1 1 1 1 1
          1 1 1 1 1 1 1 1 1 1 1 1
          1 1 1 1 1 1 1 1 1 1 1 1
          1 1 1 1 1 1 1 1 1 1 1 1
          1 1 1 1 1 1 1 1 1 1 1 1
          1 1 1 1 1 1 1 1 1 1 1 1
          1 1 1 1 1 1 1 1 1 1 1 1
          1 1 1 1 1 1 1 1 1 1 1 1
          1 1 1 1 1 1 1 1 1 1 1 1
          1 1 1 1 1 1 1 1 1 1 1 1
          1 1 1 1 1 1 1 1 1 1 1 1
          1 1 1 1 1 1 1 1 1 1 1 1
          1 1 1 1 1 1 1 1 1 1 1 1
          1 1 1 1 1 1 1 1 1 1 1 1
          1 1 1 1 1 1 1 1 1 1 1 1
          1 1 1 1 1 1 1 1 1 1 1 1
          1 1 1 1 1 1 1 1 1 1 1 1
          1 1 1 1 1 1 1 1 1 1 1 1
          1 1 1 1 1 1 1 1 1 1 1 1
          1 1 1 1 1 1 1 1 1 1 1 1
          1 1 1 1 1 1 1 1 1 1 1 1
          1 1 1 1 1 1 1 1 1 1 1 1
          1 1 1 1 1 1 1 1 1 1 1 1
          1 1 1 1 1 1 1 1 1 1 1 1
          1 1 1 1 1 1 1 1 1 1 1 1
          1 1 1 1 1 1 1 1 1 1 1 1
          1 1 1 1 1 1 1 1 1 1 1 1
          1 1 1 1 1 1 1 1 1 1 1 1
          1 1 1 1 1 1 1 1 1 1 1 1
          1 1 1 1 1 1 1 1 1 1 1 1
          1 1 1 1 1 1 1 1 1 1 1 1
          1 1 1 1 1 1 1 1 1 1 1 1
          1 1 1 1 1 1 1 1 1 1 1 1
          1 1 1 1 1 1 1 1 1 1 1 1
          1 1 1 1 1 1 1 1 1 1 1 1
          1 1 1 1 1 1 1 1 1 1 1 1
          1 1 1 1 1 1 1 1 1 1 1 1
          1 1 1 1 1 1 1 1 1 1 1 1
          1 1 1 1 1 1 1 1 1 1 1 1
          1 1 1 1 1 1 1 1 1 1 1 1
          1 1 1 1 1 1 1 1 1 1 1 1
          1 1 1 1 1 1 1 1 1 1 1 1
          1 1 1 1 1 1 1 1 1 1 1 1
          1 1 1 1 1 1 1 1 1 1 1 1
          1 1 1 1 1 1 1 1 1 1 1 1
          1 1 1 1 1 1 1 1 1 1 1 1
          1 1 1 1 1 1 1 1 1 1 1 1
          1 1 1 1 1 1 1 1 1 1 1 1
          1 1 1 1 1 1 1 1 1 1 1 1
          1 1 1 1 1 1 1 1 1 1 1 1
          1 1 1 1 1 1 1 1 1 1 1 1
          1 1 1 1 1 1 1 1 1 1 1 1
          1 1 1 1 1 1 1 1 1 1 1 1
          1 1 1 1 1 1 1 1 1 1 1 1
          1 1 1 1 1 1 1 1 1 1 1 1
          1 1 1 1 1 1 1 1 1 1 1 1
          1 1 1 1 1 1 1 1 1 1 1 1
          1 1 1 1 1 1 1 1 1 1 1 1
          1 1 1 1 1 1 1 1 1 1 1 1
          1 1 1 1 1 1 1 1 1 1 1 1
          1 1 1 1 1 1 1 1 1 1 1 1
          1 1 1 1 1 1 1 1 1 1 1 1
          1 1 1 1 1 1 1 1 1 1 1 1
          1 1 1 1 1 1 1 1 1 1 1 1
          1 1 1 1 1 1 1 1 1 1 1 1
          1 1 1 1 1 1 1 1 1 1 1 1
          1 1 1 1 1 1 1 1 1 1 1 1
          1 1 1 1 1 1 1 1 1 1 1 1
          1 1 1 1 1 1 1 1 1 1 1 1
          1 1 1 1 1 1 1 1 1 1 1 1
          1 1 1 1 1 1 1 1 1 1 1 1
          1 1 1 1 1 1 1 1 1 1 1 1
          1 1 1 1 1 1 1 1 1 1 1 1
          1 1 1 1 1 1 1 1 1 1 1 1
          1 1 1 1 1 1 1 1 1 1 1 1
          1 1 1 1 1 1 1 1 1 1 1 1
          1 1 1 1 0.999999 1 1 1 1 1 1 1
          1 1 1 1 1 1 1 1 1 1 1 1
          1 1 1 1 1 1 1 1 1 0.999986 1 1
          1 0.999999 1 1 1 1 1 1 1 1 1 1
          1 1 1 1 1 1 1 1 1 1 1 1
          1 1 1 1 1 1 1 1 1 1 1 1
          1 1 1 1 1 1 1 1 1 1 1 1
          1 1 1 1 1 1 1 1 1 1 1 0.999999
          0.999999 0.999961 1 1 1 1 1 1 1 1 1 1
          1 1 1 1 1 1 1 1 1 1 1 1
          1 1 1 1 1 1 1 1 0.999997 0.999804 0.99984 0.999992
          0.999653 0.999714 0.999987 0.999578 0.999606 0.999985 0.999555 0.999569 0.999986 0.999474 0.999573 0.999967
          0.999988 0.999439 0.999063 0.999989 0.999993 0.999679 0.999523 1 1 0.999996 1 1
          0.999762 0.997291 0.997101 0.996515 0.996196 0.995939 0.99582 0.995775 0.995766 0.995936 0.996128 0.994818
          0.996022 0.996202 1 1 0.999998 0.999994 1 1 1 1 1 0.999519
          0.998857 0.999998 1 1 0.999983 1 1 1 1 1 1 1
          1 1 0.95281 0.946131 0.958569 0.941268 0.940207 0.941961 0.940238 0.939685 0.939522 0.939682
          0.949616 0.942186 0.940375 0.944872 0.939745 0.939564 0.939735 0.93959 0.939506 0.93952 0.939475 0.939472
          0.939466 0.939466 0.939532 0.939487 0.939469 0.93948 0.939575 0.939501 0.939501 0.939573 0.939501 0.9395
          0.939471 0.939471 0.939465 0.939465 0.939471 0.939471 0.939465 0.939465 0.939574 0.939501 0.9395 0.939574
          0.939501 0.9395 0.939471 0.939471 0.939465 0.939465 0.939471 0.939471 0.939465 0.939465 0.939574 0.939501
          0.9395 0.939574 0.939501 0.9395 0.939471 0.939471 0.939465 0.939465 0.939471 0.939471 0.939465 0.939465
          0.939574 0.939501 0.9395 0.939574 0.939501 0.9395 0.939471 0.939471 0.939465 0.939465 0.939471 0.939471
          0.939465 0.939465 0.939573 0.939501 0.9395 0.939576 0.939509 0.939501 0.939471 0.939473 0.939466 0.939465
          0.939471 0.939471 0.939465 0.939465 0.939751 0.939824 0.939549 0.944257 0.947819 0.941077 0.940301 0.944922
          0.942876 0.939837 0.939487 0.93959 0.939508 0.93947 0.984491 0.976292 0.994996 0.995137 0.981021 0.980314
          0.980983 0.983203 0.995207 0.969594 0.987282 0.990618 0.970087 0.97585 0.974481 1 1 0.999686
          0.999978 0.99819 0.99999 0.954506 0.945009 0.946528 0.950673 0.941434 0.942389 0.930005 0.930605 0.918852
          0.91871 0.932854 0.931775 0.919877 0.919784 0.954061 0.95582 0.944264 0.942533 0.958891 0.963019 0.951545
          0.947327 0.936359 0.940333 0.929422 0.925287 0.931386 0.93321 0.921799 0.919677 0.967137 0.963536 0.958235
          0.971842 0.958008 0.961613 0.951253 0.945209 0.949234 0.939732 0.934182 0.987413 0.994114 0.974524 0.999414
          1 0.907253 0.907348 0.893718 0.893589 0.906163 0.905838 0.891497 0.89231 0.877949 0.876397 0.859584
          0.862354 0.881077 0.880139 0.865732 0.867593 0.906664 0.909247 0.895179 0.892153 0.913373 0.918129 0.905755
          0.900052 0.885924 0.892355 0.878519 0.870872 0.876709 0.880327 0.863955 0.859195 0.923429 0.929516 0.918882
          0.912025 0.937778 0.945002 0.934962 0.926711 0.915866 0.92465 0.914098 0.904442 0.899527 0.907428 0.89518
          0.886616 0.955663 0.958471 0.947658 0.973373 0.957543 0.969157 0.952137 0.934802 0.943529 0.934679 0.924173
          0.999999 0.854287 0.850243 0.832511 0.838876 0.844723 0.839761 0.814894 0.823774 0.797898 0.781616 0.733853
          0.764652 0.822854 0.812128 0.787648 0.803553 0.837817 0.844793 0.820872 0.809341 0.85402 0.863647 0.847074
          0.834231 0.809938 0.828057 0.805918 0.779022 0.76707 0.78893 0.743119 0.695316 0.873262 0.882875 0.870268
          0.859035 0.8927 0.903047 0.891959 0.881108 0.869484 0.881199 0.870715 0.857807 0.843573 0.857153 0.843497
          0.826701 0.913889 0.925048 0.915108 0.903302 0.938519 0.950903 0.938664 0.927306 0.917694 0.930205 0.924271
          0.909165 0.89289 0.905131 0.895616 0.883069 1 0.783566 0.759658 0.741578 0.767692 0.722356 0.661603
          0.649655 0.703779 0.693864 0.647322 0.648583 0.687904 0.75565 0.729561 0.720885 0.746104 0.550083 0.673518
          0.663523 0.57725 0.739915 0.78089 0.766089 0.724604 0.717462 0.757311 0.751864 0.713682 0.601298 0.662256
          0.665026 0.619949 0.808827 0.82959 0.818251 0.795799 0.846244 0.860589 0.851557 0.836228 0.828319 0.844343
          0.83951 0.822614 0.786854 0.809725 0.803588 0.780741 0.873834 0.886925 0.879255 0.865546 0.900866 0.916714
          0.909638 0.893625 0.888993 0.905667 0.909001 0.889987 0.859117 0.87372 0.872405 0.855712 0.935401 0.951232
          0.94323 0.92692 0.971778 0.970543 0.965107 0.971794 0.985964 0.980593 0.923772 0.943449 0.95415 0.929827
          0.987698 0.999615 0.99754 0.999999 0.738757 0.714419 0.709383 0.732488 0.684276 0.651673 0.655814 0.68224
          0.681735 0.660945 0.668273 0.683554 0.728403 0.70592 0.704527 0.726291 0.634545 0.669383 0.674721 0.646438
          0.712299 0.74853 0.747314 0.713023 0.716533 0.749961 0.761868 0.726407 0.657137 0.681562 0.692581 0.669332
          0.776895 0.799897 0.799938 0.775769 0.819861 0.838749 0.846617 0.822657 0.837854 0.873319 0.929828 0.877918
          0.77983 0.807917 0.83391 0.796787 0.858466 0.880791 0.908417 0.874451 0.903667 0.927494 0.962235 0.935679
          0.965939 0.988877 0.994653 0.915385 0.939776 0.97678 1 0.731349 0.708678 0.728696 0.750049 0.691533
          0.682775 0.720706 0.71896 0.822099 0.841348 0.933925 0.829648 0.812414 0.915326 0.690156 0.716426 0.77622
          0.739547 0.753905 0.79724 0.87751 0.823408 0.954087 0.982252 0.996208 0.875085 0.919284 0.977495 0.842723
          0.890558 0.9693 0.927282 0.937709 0.964738 0.993674 0.999959 0.993307 0.997198 0.999786 0.991775 0.999141
          1 1 0.999581 1 1 1 1 1 1 1 1 1
          1 1 1 1 0.951132 0.939753 0.92318 0.909288 0.913467 0.924603 0.916507 0.905167
          0.90087 0.898208 0.885018 0.889188 0.874874 0.862337 0.866873 0.880762 0.992188 0.996675 0.984366 0.877804
          0.860567 0.851921 0.838526 0.843928 0.826949 0.811979 0.81891 0.839704 0.965294 0.959652 0.952539 0.981861
          0.989963 0.948823 0.96577 0.947198 0.999807 1 0.999805 0.818372 0.799807 0.786067 0.794087 0.777329
          0.767044 0.775048 0.800958 0.789071 0.761841 0.754897 0.762539 0.754919 0.756076 0.76166 0.787276 0.954385
          0.972864 0.990482 0.991123 0.999967 0.998074 0.999371 1 1 0.818458 0.776292 0.808685 0.805535
          0.881507 0.915065 0.999994 1 1 0.932795 0.909598 0.887002 0.903243 0.85959 0.847661 0.851361
          0.890625 0.875809 0.86804 0.881045 0.869665 0.854019 0.84757 0.862126 0.837972 0.82631 0.831908 0.820814
          0.80968 0.81775 0.853959 0.836391 0.832932 0.849993 0.999727 0.999403 0.982065 0.967562 0.975772 0.991642
          0.9948 0.98378 0.980091 0.974243 0.977431 0.970973 0.969859 0.994948 0.992302 0.983569 0.964221 0.927356
          0.909232 0.896294 0.906645 0.951379 0.949467 0.891414 0.883283 0.895719 0.883598 0.876568 0.8941 0.957137
          0.854412 0.834756 0.84677 0.81086 0.814955 0.853529 0.999661 1 1 1 0.999787 1
          0.982873 0.974855 0.984959 0.966901 0.960537 0.965877 0.958141 0.954088 0.950691 0.953823 0.975269 0.966902
          0.962353 0.969022 0.958473 0.954419 0.957101 0.957025 0.956175 0.951875 0.952637 0.949097 0.948616 0.946189
          0.946558 0.95122 0.949891 0.947154 0.948236 0.955698 0.955331 0.951263 0.951529 0.955152 0.954968 0.951013
          0.951152 0.948145 0.948027 0.945771 0.94589 0.948399 0.948195 0.945884 0.946061 0.954902 0.95479 0.95089
          0.950981 0.954781 0.954716 0.950839 0.950898 0.947979 0.947912 0.945697 0.945788 0.948032 0.947946 0.945719
          0.945819 0.95475 0.954726 0.950846 0.950879 0.954804 0.954828 0.950907 0.950914 0.947989 0.94795 0.945717
          0.945795 0.947967 0.947916 0.945698 0.945781 0.954964 0.955058 0.951008 0.951002 0.95528 0.955458 0.950881
          0.951071 0.948062 0.947969 0.945765 0.94585 0.948037 0.947997 0.945744 0.945824 0.954233 0.951175 0.949892
          0.94995 0.956066 0.956849 0.952167 0.951434 0.948382 0.94873 0.946236 0.946113 0.948045 0.948056 0.945878
          0.94591 0.957733 0.955691 0.953532 0.965131 0.96586 0.959025 0.953049 0.957713 0.953526 0.950025 0.949496