<?xml version="1.0"?>
<VTKFile type="UnstructuredGrid" version="0.1" byte_order="LittleEndian">
  <UnstructuredGrid>
    <Piece NumberOfCells="1536" NumberOfPoints="1617">
      <PointData Scalars="porosity">
        <DataArray type="Float32" Name="porosity" NumberOfComponents="1" format="ascii">
          0.4 0.4 0.4 0.4 0.4 0.4 0.4 0.4 0.4 0.4 0.4 0.4
          0.4 0.4 0.4 0.4 0.4 0.4 0.4 0.4 0.4 0.4 0.4 0.4
          0.4 0.4 0.4 0.4 0.4 0.4 0.4 0.4 0.4 0.4 0.4 0.4
          0.4 0.4 0.4 0.4 0.4 0.4 0.4 0.4 0.4 0.4 0.4 0.4
          0.4 0.4 0.4 0.4 0.4 0.4 0.4 0.4 0.4 0.4 0.4 0.4
          0.4 0.4 0.4 0.4 0.4 0.4 0.4 0.4 0.4 0.4 0.4 0.4
          0.4 0.4 0.4 0.4 0.4 0.4 0.4 0.4 0.4 0.4 0.4 0.4
          0.4 0.4 0.4 0.4 0.4 0.4 0.4 0.4 0.4 0.4 0.4 0.4
          0.4 0.4 0.4 0.4 0.4 0.4 0.4 0.4 0.4 0.4 0.4 0.4
          0.4 0.4 0.4 0.4 0.4 0.4 0.4 0.4 0.4 0.4 0.4 0.4
          0.4 0.4 0.4 0.4 0.4 0.4 0.4 0.4 0.4 0.4 0.4 0.4
          0.4 0.4 0.4 0.4 0.4 0.4 0.4 0.4 0.4 0.4 0.4 0.4
          0.4 0.4 0.4 0.4 0.4 0.4 0.4 0.4 0.4 0.4 0.4 0.4
          0.4 0.4 0.4 0.4 0.4 0.4 0.4 0.4 0.4 0.4 0.4 0.4
          0.4 0.4 0.4 0.4 0.4 0.4 0.4 0.4 0.4 0.4 0.4 0.4
          0.4 0.4 0.4 0.4 0.4 0.4 0.4 0.4 0.4 0.4 0.4 0.4
          0.4 0.4 0.4 0.4 0.4 0.4 0.4 0.4 0.4 0.4 0.4 0.4
          0.4 0.4 0.4 0.4 0.4 0.4 0.4 0.4 0.4 0.4 0.4 0.4
          0.4 0.4 0.4 0.4 0.4 0.4 0.4 0.4 0.4 0.4 0.4 0.4
          0.4 0.4 0.4 0.4 0.4 0.4 0.4 0.4 0.4 0.4 0.4 0.4
          0.4 0.4 0.4 0.4 0.4 0.4 0.4 0.4 0.4 0.4 0.4 0.4
          0.4 0.4 0.4 0.4 0.4 0.4 0.4 0.4 0.4 0.4 0.4 0.4
          0.4 0.4 0.4 0.4 0.4 0.4 0.4 0.4 0.4 0.4 0.4 0.4
          0.4 0.4 0.4 0.4 0.4 0.4 0.4 0.4 0.4 0.4 0.4 0.4
          0.4 0.4 0.4 0.4 0.4 0.4 0.4 0.4 0.4 0.4 0.4 0.4
          0.4 0.4 0.4 0.4 0.4 0.4 0.4 0.4 0.4 0.4 0.4 0.4
          0.4 0.4 0.4 0.4 0.4 0.4 0.4 0.4 0.4 0.4 0.4 0.4
          0.4 0.4 0.4 0.4 0.4 0.4 0.4 0.4 0.4 0.4 0.4 0.4
          0.4 0.4 0.4 0.4 0.4 0.4 0.4 0.4 0.4 0.4 0.4 0.4
          0.4 0.4 0.4 0.4 0.4 0.4 0.4 0.4 0.4 0.4 0.4 0.4
          0.4 0.4 0.4 0.4 0.4 0.4 0.4 0.4 0.4 0.4 0.4 0.4
          0.4 0.4 0.4 0.4 0.4 0.4 0.4 0.4 0.4 0.4 0.4 0.4
          0.4 0.4 0.4 0.4 0.4 0.4 0.4 0.4 0.4 0.4 0.4 0.4
          0.4 0.4 0.4 0.4 0.4 0.4 0.4 0.4 0.4 0.4 0.4 0.4
          0.4 0.4 0.4 0.4 0.4 0.4 0.4 0.4 0.4 0.4 0.4 0.4
          0.4 0.4 0.4 0.4 0.4 0.4 0.4 0.4 0.4 0.4 0.4 0.4
          0.4 0.4 0.4 0.4 0.4 0.4 0.4 0.4 0.4 0.4 0.4 0.4
          0.4 0.4 0.4 0.4 0.4 0.4 0.4 0.4 0.4 0.4 0.4 0.4
          0.4 0.4 0.4 0.4 0.4 0.4 0.4 0.4 0.4 0.4 0.4 0.4
          0.4 0.4 0.4 0.4 0.4 0.4 0.4 0.4 0.4 0.4 0.4 0.4
          0.4 0.4 0.4 0.4 0.4 0.4 0.4 0.4 0.4 0.4 0.4 0.4
          0.4 0.4 0.4 0.4 0.4 0.4 0.4 0.4 0.4 0.4 0.4 0.4
          0.4 0.4 0.4 0.4 0.4 0.4 0.4 0.4 0.4 0.4 0.4 0.4
          0.4 0.4 0.4 0.4 0.4 0.4 0.4 0.4 0.4 0.4 0.4 0.4
          0.4 0.4 0.4 0.4 0.4 0.4 0.4 0.4 0.4 0.4 0.4 0.4
          0.4 0.4 0.4 0.4 0.4 0.4 0.4 0.4 0.4 0.4 0.4 0.4
          0.4 0.4 0.4 0.4 0.4 0.4 0.4 0.4 0.4 0.4 0.4 0.4
          0.4 0.4 0.4 0.4 0.4 0.4 0.4 0.4 0.4 0.4 0.4 0.4
          0.4 0.4 0.4 0.4 0.4 0.4 0.4 0.4 0.4 0.4 0.4 0.4
          0.4 0.4 0.4 0.4 0.4 0.4 0.4 0.4 0.4 0.4 0.4 0.4
          0.4 0.4 0.4 0.4 0.4 0.4 0.4 0.4 0.4 0.4 0.4 0.4
          0.4 0.4 0.4 0.4 0.4 0.4 0.4 0.4 0.4 0.4 0.4 0.4
          0.4 0.4 0.4 0.4 0.4 0.4 0.4 0.4 0.4 0.4 0.4 0.4
          0.4 0.4 0.4 0.4 0.4 0.4 0.4 0.4 0.4 0.4 0.4 0.4
          0.4 0.4 0.4 0.4 0.4 0.4 0.4 0.4 0.4 0.4 0.4 0.4
          0.4 0.4 0.4 0.4 0.4 0.4 0.4 0.4 0.4 0.4 0.4 0.4
          0.4 0.4 0.4 0.4 0.4 0.4 0.4 0.4 0.4 0.4 0.4 0.4
          0.4 0.4 0.4 0.4 0.4 0.4 0.4 0.4 0.4 0.4 0.4 0.4
          0.4 0.4 0.4 0.4 0.4 0.4 0.4 0.4 0.4 0.4 0.4 0.4
          0.4 0.4 0.4 0.4 0.4 0.4 0.4 0.4 0.4 0.4 0.4 0.4
          0.4 0.4 0.4 0.4 0.4 0.4 0.4 0.4 0.4 0.4 0.4 0.4
          0.4 0.4 0.4 0.4 0.4 0.4 0.4 0.4 0.4 0.4 0.4 0.4
          0.4 0.4 0.4 0.4 0.4 0.4 0.4 0.4 0.4 0.4 0.4 0.4
          0.4 0.4 0.4 0.4 0.4 0.4 0.4 0.4 0.4 0.4 0.4 0.4
          0.4 0.4 0.4 0.4 0.4 0.4 0.4 0.4 0.4 0.4 0.4 0.4
          0.4 0.4 0.4 0.4 0.4 0.4 0.4 0.4 0.4 0.4 0.4 0.4
          0.4 0.4 0.4 0.4 0.4 0.4 0.4 0.4 0.4 0.4 0.4 0.4
          0.4 0.4 0.4 0.4 0.4 0.4 0.4 0.4 0.4 0.4 0.4 0.4
          0.4 0.4 0.4 0.4 0.4 0.4 0.4 0.4 0.4 0.4 0.4 0.4
          0.4 0.4 0.4 0.4 0.4 0.4 0.4 0.4 0.4 0.4 0.4 0.4
          0.4 0.4 0.4 0.4 0.4 0.4 0.4 0.4 0.4 0.4 0.4 0.4
          0.4 0.4 0.4 0.4 0.4 0.4 0.4 0.4 0.4 0.4 0.4 0.4
          0.4 0.4 0.4 0.4 0.4 0.4 0.4 0.4 0.4 0.4 0.4 0.4
          0.4 0.4 0.4 0.4 0.4 0.4 0.4 0.4 0.4 0.4 0.4 0.4
          0.4 0.4 0.4 0.4 0.4 0.4 0.4 0.4 0.4 0.4 0.4 0.4
          0.4 0.4 0.4 0.4 0.4 0.4 0.4 0.4 0.4 0.4 0.4 0.4
          0.4 0.4 0.4 0.4 0.4 0.4 0.4 0.4 0.4 0.4 0.4 0.4
          0.4 0.4 0.4 0.4 0.4 0.4 0.4 0.4 0.4 0.4 0.4 0.4
          0.4 0.4 0.4 0.4 0.4 0.4 0.4 0.4 0.4 0.4 0.4 0.4
          0.4 0.4 0.4 0.4 0.4 0.4 0.4 0.4 0.4 0.4 0.4 0.4
          0.4 0.4 0.4 0.4 0.4 0.4 0.4 0.4 0.4 0.4 0.4 0.4
          0.4 0.4 0.4 0.4 0.4 0.4 0.4 0.4 0.4 0.4 0.4 0.4
          0.4 0.4 0.4 0.4 0.4 0.4 0.4 0.4 0.4 0.4 0.4 0.4
          0.4 0.4 0.4 0.4 0.4 0.4 0.4 0.4 0.4 0.4 0.4 0.4
          0.4 0.4 0.4 0.4 0.4 0.4 0.4 0.4 0.4 0.4 0.4 0.4
          0.4 0.4 0.4 0.4 0.4 0.4 0.4 0.4 0.4 0.4 0.4 0.4
          0.4 0.4 0.4 0.4 0.4 0.4 0.4 0.4 0.4 0.4 0.4 0.4
          0.4 0.4 0.4 0.4 0.4 0.4 0.4 0.4 0.4 0.4 0.4 0.4
          0.4 0.4 0.4 0.4 0.4 0.4 0.4 0.4 0.4 0.4 0.4 0.4
          0.4 0.4 0.4 0.4 0.4 0.4 0.4 0.4 0.4 0.4 0.4 0.4
          0.4 0.4 0.4 0.4 0.4 0.4 0.4 0.4 0.4 0.4 0.4 0.4
          0.4 0.4 0.4 0.4 0.4 0.4 0.4 0.4 0.4 0.4 0.4 0.4
          0.4 0.4 0.4 0.4 0.4 0.4 0.4 0.4 0.4 0.4 0.4 0.4
          0.4 0.4 0.4 0.4 0.4 0.4 0.4 0.4 0.4 0.4 0.4 0.4
          0.4 0.4 0.4 0.4 0.4 0.4 0.4 0.4 0.4 0.4 0.4 0.4
          0.4 0.4 0.4 0.4 0.4 0.4 0.4 0.4 0.4 0.4 0.4 0.4
          0.4 0.4 0.4 0.4 0.4 0.4 0.4 0.4 0.4 0.4 0.4 0.4
          0.4 0.4 0.4 0.4 0.4 0.4 0.4 0.4 0.4 0.4 0.4 0.4
          0.4 0.4 0.4 0.4 0.4 0.4 0.4 0.4 0.4 0.4 0.4 0.4
          0.4 0.4 0.4 0.4 0.4 0.4 0.4 0.4 0.4 0.4 0.4 0.4
          0.4 0.4 0.4 0.4 0.4 0.4 0.4 0.4 0.4 0.4 0.4 0.4
          0.4 0.4 0.4 0.4 0.4 0.4 0.4 0.4 0.4 0.4 0.4 0.4
          0.4 0.4 0.4 0.4 0.4 0.4 0.4 0.4 0.4 0.4 0.4 0.4
          0.4 0.4 0.4 0.4 0.4 0.4 0.4 0.4 0.4 0.4 0.4 0.4
          0.4 0.4 0.4 0.4 0.4 0.4 0.4 0.4 0.4 0.4 0.4 0.4
          0.4 0.4 0.4 0.4 0.4 0.4 0.4 0.4 0.4 0.4 0.4 0.4
          0.4 0.4 0.4 0.4 0.4 0.4 0.4 0.4 0.4 0.4 0.4 0.4
          0.4 0.4 0.4 0.4 0.4 0.4 0.4 0.4 0.4 0.4 0.4 0.4
          0.4 0.4 0.4 0.4 0.4 0.4 0.4 0.4 0.4 0.4 0.4 0.4
          0.4 0.4 0.4 0.4 0.4 0.4 0.4 0.4 0.4 0.4 0.4 0.4
          0.4 0.4 0.4 0.4 0.4 0.4 0.4 0.4 0.4 0.4 0.4 0.4
          0.4 0.4 0.4 0.4 0.4 0.4 0.4 0.4 0.4 0.4 0.4 0.4
          0.4 0.4 0.4 0.4 0.4 0.4 0.4 0.4 0.4 0.4 0.4 0.4
          0.4 0.4 0.4 0.4 0.4 0.4 0.4 0.4 0.4 0.4 0.4 0.4
          0.4 0.4 0.4 0.4 0.4 0.4 0.4 0.4 0.4 0.4 0.4 0.4
          0.4 0.4 0.4 0.4 0.4 0.4 0.4 0.4 0.4 0.4 0.4 0.4
          0.4 0.4 0.4 0.4 0.4 0.4 0.4 0.4 0.4 0.4 0.4 0.4
          0.4 0.4 0.4 0.4 0.4 0.4 0.4 0.4 0.4 0.4 0.4 0.4
          0.4 0.4 0.4 0.4 0.4 0.4 0.4 0.4 0.4 0.4 0.4 0.4
          0.4 0.4 0.4 0.4 0.4 0.4 0.4 0.4 0.4 0.4 0.4 0.4
          0.4 0.4 0.4 0.4 0.4 0.4 0.4 0.4 0.4 0.4 0.4 0.4
          0.4 0.4 0.4 0.4 0.4 0.4 0.4 0.4 0.4 0.4 0.4 0.4
          0.4 0.4 0.4 0.4 0.4 0.4 0.4 0.4 0.4 0.4 0.4 0.4
          0.4 0.4 0.4 0.4 0.4 0.4 0.4 0.4 0.4 0.4 0.4 0.4
          0.4 0.4 0.4 0.4 0.4 0.4 0.4 0.4 0.4 0.4 0.4 0.4
          0.4 0.4 0.4 0.4 0.4 0.4 0.4 0.4 0.4 0.4 0.4 0.4
          0.4 0.4 0.4 0.4 0.4 0.4 0.4 0.4 0.4 0.4 0.4 0.4
          0.4 0.4 0.4 0.4 0.4 0.4 0.4 0.4 0.4 0.4 0.4 0.4
          0.4 0.4 0.4 0.4 0.4 0.4 0.4 0.4 0.4 0.4 0.4 0.4
          0.4 0.4 0.4 0.4 0.4 0.4 0.4 0.4 0.4 0.4 0.4 0.4
          0.4 0.4 0.4 0.4 0.4 0.4 0.4 0.4 0.4 0.4 0.4 0.4
          0.4 0.4 0.4 0.4 0.4 0.4 0.4 0.4 0.4 0.4 0.4 0.4
          0.4 0.4 0.4 0.4 0.4 0.4 0.4 0.4 0.4 0.4 0.4 0.4
          0.4 0.4 0.4 0.4 0.4 0.4 0.4 0.4 0.4 0.4 0.4 0.4
          0.4 0.4 0.4 0.4 0.4 0.4 0.4 0.4 0.4
        </DataArray>
        <DataArray type="Float32" Name="pc" NumberOfComponents="1" format="ascii">
          0 0 0 0 0 0 0 0 0 0 0 0
          0 0 0 0 0 0 0 0 0 0 0 0
          0 0 0 0 0 0 0 0 0 0 0 0
          0 0 0 0 0 0 0 0 0 0 0 0
          0 0 0 0 0 0 0 0 0 0 0 0
          0 0 0 0 0 0 0 0 0 0 0 0
          0 0 0 0 0 0 0 0 0 0 0 0
          0 0 0 0 0 0 0 0 0 0 0 0
          0 0 0 0 0 0 0 0 0 0 0 0
          0 0 0 0 0 0 0 0 0 0 0 0
          0 0 0 0 0 0 0 0 0 0 0 0
          0 0 0 0 0 0 0 0 0 0 0 0
          0 0 0 0 0 0 0 0 0 0 0 0
          0 0 0 0 0 0 0 0 0 0 0 0
          0 0 0 0 0 0 0 0 0 0 0 0
          0 0 9.02816e-11 4.74643e-12 0 0 0 0 0 0 0 0
          0 0 0 0 0 0 0 0 0 0 0 0
          0 0 0 0 0 0 0 0 0 0 0 0
          0 0 0 0 0 0 0 0 0 0 0 0
          0 0 1.08328e-06 9.84095e-05 2.16416e-05 2.27394e-09 0 0 0 0 0 0
          0 0 0 0 0 0 0 0 0 0 0 0
          0 0 0 0 0 0 0 0 0 0 0 0
          0 0 0 0 0 0 0 0 0 0 0 0
          0 0 1.21744e-06 0.013927 0.147989 0.0669284 0.000552227 3.0129e-09 0 0 0 0
          0 0 0 0 0 0 0 0 0 0 0 0
          0 0 0 0 0 0 0 0 0 0 0 0
          0 0 0 0 0 0 0 0 0 0 0 0
          0 0 0 0.0148409 1.97588 6.71192 4.46178 0.363559 0.000548346 9.38556e-10 0 0
          0 0 0 0 0 0 0 0 0 0 0 0
          0 0 0 0 0 0 0 0 0 0 0 0
          0 0 0 0 0 0 0 0 0 0 0 0
          0 0 0 1.19987e-06 2.04356 24.5545 43.6741 36.0133 10.2526 0.291852 0.000145855 5.70139e-11
          0 0 0 0 0 0 0 0 0 0 0 0
          0 0 0 0 0 0 0 0 0 0 0 0
          0 0 0 0 0 0 0 0 0 0 0 0
          0 0 0 0 0.0147676 24.9654 76.6863 95.0009 87.7446 49.3885 7.175 0.0696636
          7.76005e-06 0 0 0 0 0 0 0 0 0 0 0
          0 0 0 0 0 0 0 0 0 0 0 0
          0 0 0 0 0 0 0 0 0 0 0 0
          0 0 0 0 0 2.04101 77.3369 110.278 116.354 112.901 93.5603 33.6215
          1.71094 0.00350167 2.45547e-08 0 0 0 0 0 0 0 0 0
          0 0 0 0 0 0 0 0 0 0 0 0
          0 0 0 0 0 0 0 0 0 0 0 0
          0 0 0 0 0 0 25.073 110.356 125.181 129.777 125.823 112.215
          67.7379 9.11379 0.0902582 1.18342e-05 0 0 0 0 0 0 0 0
          0 0 0 0 0 0 0 0 0 0 0 0
          0 0 0 0 0 0 0 0 0 0 0 0
          0 0 0 0 0 0 0 77.2426 124.602 137.01 140.47 135.873
          122.09 91.9538 21.5654 0.517227 0.000323058 2.44739e-10 0 0 0 0 0 0
          0 0 0 0 0 0 0 0 0 0 0 0
          0 0 0 0 0 0 0 0 0 0 0 0
          0 0 0 0 0 0 0 0 109.483 135.873 146.547 149.013
          143.601 129.043 103.683 32.7684 1.25109 0.00169612 5.56008e-09 0 0 0 0 0
          0 0 0 0 0 0 0 0 0 0 0 0
          0 0 0 0 0 0 0 0 0 0 0 0
          0 0 0 0 0 0 0 0 0 122.28 145.221 154.5
          155.857 149.215 133.283 107.355 37.965 1.68513 0.00288736 1.47699e-08 0 0 0 0
          0 0 0 0 0 0 0 0 0 0 0 0
          0 0 0 0 0 0 0 0 0 0 0 0
          0 0 0 0 0 0 0 0 0 0 132.003 153.472
          161.461 161.29 152.743 134.694 107.108 35.5633 1.38471 0.0018884 6.29193e-09 0 0 0
          0 0 0 0 0 0 0 0 0 0 0 0
          0 0 0 0 0 0 0 0 0 0 0 0
          0 0 0 0 0 0 0 0 0 0 0 140.464
          161.726 167.921 165.312 153.903 132.96 102.356 26.4307 0.673823 0.000449968 3.89676e-10 0 0
          0 0 0 0 0 0 0 0 0 0 0 0
          0 0 0 0 0 0 0 0 0 0 0 0
          0 0 0 0 0 0 0 0 0 0 0 0
          150.346 171.5 173.966 167.391 152.069 127.657 87.9784 14.1829 0.168284 2.99576e-05 2.359e-12 0
          0 0 0 0 0 0 0 0 0 0 0 0
          0 0 0 0 0 0 0 0 0 0 0 0
          0 0 0 0 0 0 0 0 0 0 0 0
          0 181.76 183.634 178.23 166.329 146.529 118.599 61.105 4.61062 0.0164403 3.33112e-07 0
          0 0 0 0 0 0 0 0 0 0 0 0
          0 0 0 0 0 0 0 0 0 0 0 0
          0 0 0 0 0 0 0 0 0 0 0 0
          0 0 193.058 188.494 177.669 161.261 137.395 106.574 30.0266 0.758273 0.000464621 3.46901e-10
          0 0 0 0 0 0 0 0 0 0 0 0
          0 0 0 0 0 0 0 0 0 0 0 0
          0 0 0 0 0 0 0 0 0 0 0 0
          0 0 0 198.497 189.521 174.222 153.865 126.652 82.7838 10.3921 0.0717788 4.77221e-06
          0 0 0 0 0 0 0 0 0 0 0 0
          0 0 0 0 0 0 0 0 0 0 0 0
          0 0 0 0 0 0 0 0 0 0 0 0
          0 0 0 0 202.605 189 169.519 145.721 116.129 53.4516 2.80126 0.0048707
          2.63748e-08 0 0 0 0 0 0 0 0 0 0 0
          0 0 0 0 0 0 0 0 0 0 0 0
          0 0 0 0 0 0 0 0 0 0 0 0
          0 0 0 0 0 206.553 187.519 163.933 137.281 106.327 29.8545 0.626009
          0.000252359 8.79083e-11 0 0 0 0 0 0 0 0 0 0
          0 0 0 0 0 0 0 0 0 0 0 0
          5.36602e-11 3.08592e-09 4.0437e-08 2.09108e-07 5.0459e-07 9.45747e-07 1.53502e-06 2.24727e-06 3.02923e-06 3.76804e-06 4.26313e-06 4.47552e-06
          4.45842e-06 4.34801e-06 4.2604e-06 4.20778e-06 3.92885e-06 2.83236e-06 210.718 184.916 157.189 128.185 89.5017 13.9349
          0.109388 8.53024e-06 0 0 0 0 0 0 0 0 0 0
          0 0 0 0 0 0 0 0 0 0 0 0
          5.06604e-08 0.0121917 0.0875129 0.264435 0.512326 0.735362 0.947562 1.1445 1.31968 1.46827 1.58107 1.64109
          1.65286 1.6265 1.57905 1.52692 1.48105 1.40027 1.15407 215.321 180.404 148.305 117.458 62.7569
          4.49589 0.0104406 9.30841e-08 0 0 0 0 0 0 0 0 0
          0 0 0 0 0 0 0 0 0 0 0 0
          0 0.54721 98.5113 158.435 210.282 245.538 272.995 294.594 310.82 322.681 331.278 337.334
          341.275 343.254 343.172 340.678 335.589 329.19 323.93 302.188 220.544 170.848 134.054 100.48
          25.9833 0.467162 0.000126228 1.89999e-11 0 0 0 0 0 0 0 0
          0 0 0 0 0 0 0 0 0 0 0 0
          0 0 0 2.53575 80.5243 139.498 154.628 162.937 168.554 172.956 176.688 179.788
          181.646 180.201 173.785 162.479 146.169 124.483 88.7216 13.4726 0.102446 7.99948e-06 0 0
          0 0 0 0 0 0 0 0 0 0 0 0
          0 0 0 0 0 0 0 0 0 0 0 0
          0 0 0 0 3.37537 81.2671 138.177 151.528 157.127 159.621 160.732 161.232
          161.417 160.95 157.228 148.296 135.086 118.096 88.5688 20.3134 0.308367 5.72901e-05 4.74643e-12 0
          0 0 0 0 0 0 0 0 0 0 0 0
          0 0 0 0 0 0 0 0 0 0 0 0
          0 0 0 0 0 6.36246 84.5014 139.635 152.8 157.764 159.727 160.473
          160.737 160.775 160.194 155.744 145.309 130.692 112.822 75.6571 12.8001 0.106635 7.36615e-06 0
          0 0 0 0 0 0 0 0 0 0 0 0
          0 0 0 0 0 0 0 0 0 0 0 0
          0 0 0 0 0 0 10.518 86.7585 141.16 154.223 158.567 160.097
          160.614 160.775 160.78 160.184 154.91 142.629 126.377 107.705 61.803 7.17863 0.0321484 7.47683e-07
          0 0 0 0 0 0 0 0 0 0 0 0
          0 0 0 0 0 0 0 0 0 0 0 0
          0 0 0 0 0 0 0 14.7196 88.023 142.648 155.653 159.291
          160.398 160.723 160.812 160.801 160.225 153.934 139.252 121.098 99.6293 45.5579 3.16214 0.0062362
          3.27523e-08 0 0 0 0 0 0 0 0 0 0 0
          0 0 0 0 0 0 0 0 0 0 0 0
          0 0 0 0 0 0 0 0 17.3638 88.5216 144.092 157.088
          159.914 160.619 160.793 160.833 160.819 160.309 152.735 134.701 114.338 84.2906 27.6952 0.917052
          0.000557514 3.25514e-10 0 0 0 0 0 0 0 0 0 0
          0 0 0 0 0 0 0 0 0 0 0 0
          0 0 0 0 0 0 0 0 0 16.3453 87.3888 145.524
          158.541 160.413 160.762 160.83 160.843 160.833 160.453 151.238 127.853 104.65 59.4999 10.7905
          0.110856 9.53144e-06 0 0 0 0 0 0 0 0 0 0
          0 0 0 0 0 0 0 0 0 0 0 0
          0 0 0 0 0 0 0 0 0 0 8.65635 74.1756
          147.122 160.026 160.758 160.835 160.845 160.847 160.843 160.683 149.364 113.955 65.7294 19.1318
          0.743358 0.000538895 3.51648e-10 0 0 0 0 0 0 0 0 0
          0 0 0 0 0 0 0 0 0
        </DataArray>
        <DataArray type="Float32" Name="Sw" NumberOfComponents="1" format="ascii">
          1 1 1 1 1 1 1 1 1 1 1 1
          1 1 1 1 1 1 1 1 1 1 1 1
          1 1 1 1 1 1 1 1 1 1 1 1
          1 1 1 1 1 1 1 1 1 1 1 1
          1 1 1 1 1 1 1 1 1 1 1 1
          1 1 1 1 1 1 1 1 1 1 1 1
          1 1 1 1 1 1 1 1 1 1 1 1
          1 1 1 1 1 1 1 1 1 1 1 1
          1 1 1 1 1 1 1 1 1 1 1 1
          1 1 1 1 1 1 1 1 1 1 1 1
          1 1 1 1 1 1 1 1 1 1 1 1
          1 1 1 1 1 1 1 1 1 1 1 1
          1 1 1 1 1 1 1 1 1 1 1 1
          1 1 1 1 1 1 1 1 1 1 1 1
          1 1 1 1 1 1 1 1 1 1 1 1
          1 1 1 1 1 1 1 1 1 1 1 1
          1 1 1 1 1 1 1 1 1 1 1 1
          1 1 1 1 1 1 1 1 1 1 1 1
          1 1 1 1 1 1 1 1 1 1 1 1
          1 1 1 1 1 1 1 1 1 1 1 1
          1 1 1 1 1 1 1 1 1 1 1 1
          1 1 1 1 1 1 1 1 1 1 1 1
          1 1 1 1 1 1 1 1 1 1 1 1
          1 1 1 0.999999 0.999993 0.999997 1 1 1 1 1 1
          1 1 1 1 1 1 1 1 1 1 1 1
          1 1 1 1 1 1 1 1 1 1 1 1
          1 1 1 1 1 1 1 1 1 1 1 1
          1 1 1 0.999999 0.999912 0.999696 0.999799 0.999984 1 1 1 1
          1 1 1 1 1 1 1 1 1 1 1 1
          1 1 1 1 1 1 1 1 1 1 1 1
          1 1 1 1 1 1 1 1 1 1 1 1
          1 1 1 1 0.999909 0.998823 0.997752 0.998201 0.999531 0.999987 1 1
          1 1 1 1 1 1 1 1 1 1 1 1
          1 1 1 1 1 1 1 1 1 1 1 1
          1 1 1 1 1 1 1 1 1 1 1 1
          1 1 1 1 0.999999 0.998802 0.995315 0.993202 0.994164 0.997395 0.999675 0.999997
          1 1 1 1 1 1 1 1 1 1 1 1
          1 1 1 1 1 1 1 1 1 1 1 1
          1 1 1 1 1 1 1 1 1 1 1 1
          1 1 1 1 1 0.999909 0.995254 0.989076 0.985997 0.987819 0.993412 0.998336
          0.999924 1 1 1 1 1 1 1 1 1 1 1
          1 1 1 1 1 1 1 1 1 1 1 1
          1 1 1 1 1 1 1 1 1 1 1 1
          1 1 1 1 1 1 0.998797 0.98904 0.980388 0.976866 0.979922 0.988158
          0.996084 0.999584 0.999996 1 1 1 1 1 1 1 1 1
          1 1 1 1 1 1 1 1 1 1 1 1
          1 1 1 1 1 1 1 1 1 1 1 1
          1 1 1 1 1 1 1 0.995263 0.980801 0.970386 0.966849 0.971485
          0.982517 0.993634 0.998977 0.999977 1 1 1 1 1 1 1 1
          1 1 1 1 1 1 1 1 1 1 1 1
          1 1 1 1 1 1 1 1 1 1 1 1
          1 1 1 1 1 1 1 1 0.989437 0.971485 0.959896 0.956792
          0.963387 0.977458 0.991552 0.998383 0.999944 1 1 1 1 1 1 1
          1 1 1 1 1 1 1 1 1 1 1 1
          1 1 1 1 1 1 1 1 1 1 1 1
          1 1 1 1 1 1 1 1 1 0.982392 0.961496 0.949272
          0.947277 0.956531 0.973875 0.990357 0.99809 0.999925 1 1 1 1 1 1
          1 1 1 1 1 1 1 1 1 1 1 1
          1 1 1 1 1 1 1 1 1 1 1 1
          1 1 1 1 1 1 1 1 1 1 0.974999 0.950746
          0.938451 0.938735 0.951773 0.972593 0.99046 0.998227 0.999938 1 1 1 1 1
          1 1 1 1 1 1 1 1 1 1 1 1
          1 1 1 1 1 1 1 1 1 1 1 1
          1 1 1 1 1 1 1 1 1 1 1 0.966856
          0.93801 0.927069 0.931823 0.950132 0.974162 0.991869 0.998725 0.99997 1 1 1 1
          1 1 1 1 1 1 1 1 1 1 1 1
          1 1 1 1 1 1 1 1 1 1 1 1
          1 1 1 1 1 1 1 1 1 1 1 1
          0.955045 0.920187 0.915205 0.928052 0.95271 0.978545 0.994136 0.999343 0.999993 1 1 1
          1 1 1 1 1 1 1 1 1 1 1 1
          1 1 1 1 1 1 1 1 1 1 1 1
          1 1 1 1 1 1 1 1 1 1 1 1
          1 0.898148 0.89375 0.90612 0.929996 0.959919 0.984705 0.996592 0.999793 0.999999 1 1
          1 1 1 1 1 1 1 1 1 1 1 1
          1 1 1 1 1 1 1 1 1 1 1 1
          1 1 1 1 1 1 1 1 1 1 1 1
          1 1 0.869904 0.88181 0.907351 0.938782 0.970007 0.990672 0.998533 0.999966 1 1
          1 1 1 1 1 1 1 1 1 1 1 1
          1 1 1 1 1 1 1 1 1 1 1 1
          1 1 1 1 1 1 1 1 1 1 1 1
          1 1 1 0.854862 0.879189 0.914677 0.950187 0.979309 0.994715 0.999524 0.999997 1
          1 1 1 1 1 1 1 1 1 1 1 1
          1 1 1 1 1 1 1 1 1 1 1 1
          1 1 1 1 1 1 1 1 1 1 1 1
          1 1 1 1 0.842906 0.880522 0.924047 0.960899 0.986122 0.997128 0.999875 1
          1 1 1 1 1 1 1 1 1 1 1 1
          1 1 1 1 1 1 1 1 1 1 1 1
          1 1 1 1 1 1 1 1 1 1 1 1
          1 1 1 1 1 0.830956 0.884268 0.934251 0.97012 0.990763 0.998543 0.999972
          1 1 1 1 1 1 1 1 1 1 1 1
          1 1 1 1 1 1 1 1 1 1 1 1
          1 1 1 1 1 1 1 1 1 1 1 1
          1 1 1 1 1 1 0.817884 0.890675 0.945266 0.978136 0.99395 0.999355
          0.999995 1 1 1 1 1 1 1 1 1 1 1
          1 1 1 1 1 1 1 1 1 1 1 1
          1 1 1 0.999999 0.999998 0.999997 0.999997 0.999996 0.999996 0.999995 0.999995 0.999994
          0.999994 0.999994 0.999995 0.999995 0.999995 0.999995 0.999996 0.802913 0.901259 0.957702 0.985373 0.99647
          0.999798 1 1 1 1 1 1 1 1 1 1 1
          1 1 1 1 1 1 1 1 1 1 1 1
          1 0.999976 0.992632 0.943334 0.819272 0.694508 0.590241 0.511893 0.457664 0.421108 0.396347 0.379788
          0.369404 0.364305 0.364515 0.370958 0.384485 0.402224 0.417421 0.48594 0.785318 0.921471 0.973179 0.992265
          0.998749 0.999979 1 1 1 1 1 1 1 1 1 1
          1 1 1 1 1 1 1 1 1 1 1 1
          1 1 1 0.999887 0.994946 0.967873 0.949085 0.935965 0.925881 0.917269 0.909475 0.902653
          0.898412 0.90172 0.915577 0.936745 0.960357 0.980885 0.994046 0.999377 0.999995 1 1 1
          1 1 1 1 1 1 1 1 1 1 1 1
          1 1 1 1 1 1 1 1 1 1 1 1
          1 1 1 1 0.999849 0.994871 0.969227 0.953452 0.945359 0.941454 0.939653 0.93883
          0.938523 0.939295 0.945205 0.957712 0.972228 0.985002 0.994065 0.99904 0.999986 1 1 1
          1 1 1 1 1 1 1 1 1 1 1 1
          1 1 1 1 1 1 1 1 1 1 1 1
          1 1 1 1 1 0.999712 0.994531 0.96773 0.951695 0.94438 0.941283 0.940077
          0.939646 0.939582 0.94053 0.947444 0.961392 0.976112 0.987858 0.995409 0.99941 0.999995 1 1
          1 1 1 1 1 1 1 1 1 1 1 1
          1 1 1 1 1 1 1 1 1 1 1 1
          1 1 1 1 1 1 0.999518 0.994279 0.966108 0.949671 0.943128 0.940687
          0.939847 0.939582 0.939574 0.940547 0.948674 0.964489 0.979514 0.99021 0.996541 0.999675 0.999999 1
          1 1 1 1 1 1 1 1 1 1 1 1
          1 1 1 1 1 1 1 1 1 1 1 1
          1 1 1 1 1 1 1 0.999317 0.99413 0.964468 0.94758 0.941981
          0.940198 0.939668 0.939522 0.93954 0.940479 0.950088 0.968128 0.983162 0.992429 0.997636 0.999858 1
          1 1 1 1 1 1 1 1 1 1 1 1
          1 1 1 1 1 1 1 1 1 1 1 1
          1 1 1 1 1 1 1 1 0.999188 0.994071 0.962822 0.945419
          0.940982 0.939838 0.939554 0.939487 0.939511 0.940344 0.951786 0.972585 0.987084 0.994554 0.998658 0.999959
          1 1 1 1 1 1 1 1 1 1 1 1
          1 1 1 1 1 1 1 1 1 1 1 1
          1 1 1 1 1 1 1 1 1 0.999238 0.994205 0.961135
          0.943169 0.940173 0.939604 0.939492 0.939471 0.939488 0.940109 0.953847 0.978395 0.991293 0.996709 0.999506
          0.999995 1 1 1 1 1 1 1 1 1 1 1
          1 1 1 1 1 1 1 1 1 1 1 1
          1 1 1 1 1 1 1 1 1 1 0.999606 0.995542
          0.959188 0.940801 0.939611 0.939484 0.939467 0.939465 0.939471 0.939733 0.956337 0.987283 0.996243 0.9991
          0.999967 1 1 1 1 1 1 1 1 1 1 1
          1 1 1 1 1 1 1 1 1
        </DataArray>
        <DataArray type="Float32" Name="pw" NumberOfComponents="1" format="ascii">
          153955 152692 152269 151340 151818 150523 151099 149826 150477 149217 149927 148674
          149431 148183 148979 147735 148563 147322 148178 146939 147817 146580 147478 146243
          147156 145922 146850 145617 146557 145325 146274 145044 146001 144771 145736 144507
          145478 144249 145226 143997 144978 143750 144735 143507 144496 143268 144260 143032
          144028 142800 143798 142570 143571 142344 143347 142120 143126 141898 142907 141679
          142691 141463 142477 141249 142266 141039 142058 140831 141853 140625 141651 140423
          141451 140224 141255 140027 141061 139833 140870 139643 140682 139454 140496 139268
          140312 139085 140130 138903 139950 138723 139771 138545 139594 138367 139417 138190
          139240 138014 150583 149824 149113 148469 147891 147369 146893 146456 146052 145676
          145323 144990 144674 144372 144083 143804 143533 143270 143014 142763 142517 142275
          142037 141801 141569 141340 141113 140889 140668 140449 140233 140019 139808 139600
          139395 139192 138993 138797 138603 138412 138224 138039 137856 137674 137495 137317
          137140 136964 136788 148897 148250 147628 147047 146511 146018 145565 145145 144754
          144389 144045 143720 143411 143115 142830 142555 142288 142028 141774 141525 141280
          141039 140802 140568 140336 140107 139881 139657 139435 139216 139000 138786 138575
          138367 138161 137959 137759 137563 137370 137179 136992 136807 136624 136444 136265
          136088 135912 135736 135561 147211 146647 146099 145577 145086 144629 144202 143804
          143431 143081 142750 142435 142135 141846 141568 141298 141036 140779 140528 140282
          140040 139800 139564 139331 139100 138872 138645 138422 138200 137981 137764 137550
          137339 137130 136925 136722 136523 136327 136134 135944 135757 135573 135391 135212
          135034 134858 134683 134509 134335 145525 145029 144543 144074 143629 143208 142811
          142438 142086 141754 141438 141136 140846 140567 140297 140034 139777 139526 139279
          139035 138795 138558 138324 138092 137862 137634 137408 137184 136962 136743 136526
          136312 136100 135891 135685 135482 135283 135087 134894 134705 134519 134336 134156
          133978 133802 133627 133454 133281 133109 143838 143400 142968 142548 142146 141761
          141397 141051 140722 140410 140111 139824 139548 139280 139019 138764 138514 138268
          138025 137786 137549 137314 137081 136850 136621 136394 136168 135944 135723 135503
          135286 135071 134858 134649 134443 134239 134040 133843 133651 133463 133278 133097
          132918 132742 132568 132395 132223 132053 131882 142152 141764 141380 141005 140643
          140296 139963 139646 139343 139052 138773 138503 138241 137985 137735 137489 137246
          137006 136769 136533 136300 136067 135837 135607 135379 135152 134927 134703 134481
          134260 134042 133827 133614 133404 133197 132993 132793 132596 132404 132217 132034
          131854 131678 131504 131332 131162 130992 130824 130656 140466 140122 139782 139450
          139126 138814 138515 138227 137950 137683 137425 137174 136927 136685 136446 136210
          135975 135742 135510 135279 135049 134820 134591 134363 134136 133909 133684 133459
          133237 133016 132797 132580 132367 132156 131948 131743 131541 131344 131153 130967
          130786 130609 130435 130264 130095 129927 129761 129595 129430 138780 138478 138178
          137884 137598 137321 137054 136796 136548 136306 136070 135839 135610 135382 135156
          134930 134703 134477 134251 134024 133798 133571 133344 133118 132891 132665 132440
          132215 131991 131769 131548 131331 131116 130905 130696 130489 130285 130086 129896
          129713 129534 129360 129190 129022 128856 128691 128528 128366 128204 137094 136829
          136567 136310 136060 135817 135583 135357 135138 134923 134712 134502 134291 134079
          133865 133649 133432 133212 132991 132769 132546 132322 132098 131872 131647 131421
          131195 130969 130744 130520 130298 130078 129863 129651 129441 129230 129022 128822
          128633 128453 128279 128108 127942 127777 127615 127454 127295 127136 126978 135408
          135179 134952 134729 134513 134305 134104 133911 133723 133538 133352 133165 132973
          132777 132576 132371 132161 131949 131733 131516 131296 131074 130852 130627 130402
          130176 129950 129722 129495 129269 129044 128822 128605 128393 128180 127964 127751
          127549 127363 127188 127019 126853 126691 126531 126373 126216 126061 125906 125751
          133722 133526 133332 133142 132959 132784 132618 132459 132305 132152 131996 131832
          131660 131480 131291 131096 130895 130688 130478 130264 130047 129828 129607 129384
          129159 128933 128705 128476 128246 128016 127787 127561 127342 127127 126909 126687
          126470 126268 126087 125918 125754 125595 125438 125283 125130 124978 124826 124675
          124525 132036 131870 131707 131549 131397 131255 131123 131002 130886 130770 130646
          130509 130357 130191 130014 129827 129633 129432 129226 129015 128801 128584 128364
          128141 127917 127690 127462 127231 126998 126763 126527 126295 126070 125851 125626
          125397 125177 124978 124804 124643 124487 124334 124183 124033 123885 123738 123591
          123445 123299 130350 130212 130078 129948 129826 129715 129618 129537 129468 129398
          129311 129200 129066 128913 128746 128566 128377 128180 127978 127770 127558 127342
          127123 126901 126677 126450 126221 125988 125751 125511 125266 125020 124784 124556
          124322 124088 123870 123680 123516 123365 123217 123071 122926 122782 122640 122497
          122356 122214 122072 128664 128552 128443 128339 128244 128161 128095 128057 128049
          128045 128003 127915 127795 127651 127489 127315 127129 126935 126735 126528 126318
          126103 125885 125664 125440 125213 124982 124748 124509 124263 124007 123736 123472
          123229 122989 122758 122550 122375 122225 122084 121945 121806 121668 121531 121394
          121257 121120 120983 120846 126978 126889 126804 126723 126650 126589 126548 126537
          126611 126757 126739 126661 126546 126405 126246 126073 125889 125697 125497 125292
          125082 124868 124650 124429 124206 123979 123748 123513 123273 123025 122764 122476
          122075 121843 121617 121406 121220 121067 120933 120803 120672 120541 120410 120279
          120147 120016 119884 119752 119620 125291 125224 125159 125098 125044 125000 124972
          124965 124968 125000 124975 124901 124795 124667 124522 124365 124198 124024 123843
          123656 123464 123268 123068 122863 122653 122438 122218 121989 121750 121495 121215
          120890 120495 120388 120218 120043 119889 119761 119641 119522 119400 119277 119152
          119027 118901 118775 118648 118521 118394 123605 123557 123511 123467 123428 123397
          123375 123364 123361 123318 123257 123172 123066 122944 122810 122666 122515 122358
          122194 122025 121852 121673 121489 121300 121106 120904 120695 120475 120241 119988
          119706 119382 119001 118938 118820 118686 118566 118459 118352 118242 118129 118013
          117895 117776 117656 117534 117412 117290 117168 121919 121889 121859 121831 121805
          121783 121767 121756 121751 121660 121566 121463 121351 121232 121107 120975 120839
          120697 120551 120400 120244 120083 119916 119744 119565 119378 119182 118974 118751