<?xml version="1.0"?>
<VTKFile type="UnstructuredGrid" version="0.1" byte_order="LittleEndian">
  <UnstructuredGrid>
    <Piece NumberOfCells="1536" NumberOfPoints="1617">
      <CellData Scalars="Sn">
        <DataArray type="Float32" Name="Sn" NumberOfComponents="1" format="ascii">
          0 0 0 0 0 0 0 0 0 0 0 0
          0 0 0 0 0 0 0 0 0 0 0 0
          0 0 0 0 0 0 0 0 0 0 0 0
          0 0 0 0 0 0 0 0 0 0 0 0
          0 0 0 0 0 0 0 0 0 0 0 0
          0 0 0 0 0 0 0 0 0 0 0 0
          0 0 0 0 0 0 0 0 0 0 2.00593e-37 0
          0 0 0 0 0 0 0 0 0 0 0 0
          0 0 0 0 0 0 0 0 0 0 0 0
          0 0 0 0 0 0 0 0 0 0 0 0
          0 0 0 0 0 0 0 0 0 -7.63704e-33 -3.80537e-30 -2.04731e-32
          3.35074e-38 0 0 0 0 0 0 0 0 0 0 0
          0 0 0 0 0 0 0 0 0 0 0 0
          0 0 0 0 0 0 0 0 0 0 0 0
          0 0 0 0 0 0 0 0 2.72586e-34 -1.7648e-26 6.07133e-24 8.66903e-28
          -1.00334e-30 5.60194e-38 0 0 0 0 0 0 0 0 0 0
          0 0 0 0 0 0 0 0 0 0 0 0
          0 0 0 0 0 0 0 0 0 0 0 0
          0 0 0 0 0 0 0 0 -5.3046e-28 4.25151e-17 6.4852e-14 2.45697e-16
          1.05662e-25 -1.43376e-30 3.86974e-38 0 0 0 0 0 0 0 0 0
          0 0 0 0 0 0 0 0 0 0 0 0
          0 0 0 0 0 0 0 0 0 0 0 0
          0 0 0 0 0 0 0 0 1.19912e-18 4.71949e-10 2.20115e-08 1.18417e-09
          9.98291e-15 1.02077e-25 -7.53128e-31 1.36567e-38 0 0 0 0 0 0 0 0
          0 0 0 0 0 0 0 0 0 0 0 0
          0 0 0 0 0 0 0 0 0 0 0 0
          0 0 0 0 0 0 0 0 7.28295e-11 2.31573e-06 1.73758e-05 3.78066e-06
          8.24628e-09 7.28486e-15 5.18543e-25 -1.73979e-31 0 0 0 0 0 0 0 0
          0 0 0 0 0 0 0 0 0 0 0 0
          0 0 0 0 0 0 0 0 0 0 0 0
          0 0 0 0 0 0 0 0 8.64604e-07 0.0001927 0.000552935 0.0002558
          1.02075e-05 5.01119e-09 1.4318e-15 1.65609e-25 -1.63321e-32 0 0 0 0 0 0 0
          0 0 0 0 0 0 0 0 0 0 0 0
          0 0 0 0 0 0 0 0 0 0 0 0
          0 0 0 0 0 0 0 0 0.000113272 0.00181804 0.0031823 0.00218039
          0.000400401 5.33111e-06 8.31334e-10 4.11785e-17 -3.90096e-28 -3.79834e-34 0 0 0 0 0 0
          0 0 0 0 0 0 0 0 0 0 0 0
          0 0 0 0 0 0 0 0 0 0 0 0
          0 0 0 0 0 0 0 0 0.00134702 0.00576416 0.00818271 0.00650256
          0.00244034 0.000191753 7.87171e-07 1.9318e-11 3.03933e-20 -2.11295e-29 2.40975e-36 0 0 0 0 0
          0 0 0 0 0 0 0 0 0 0 0 0
          0 0 0 0 0 0 0 0 0 0 0 0
          0 0 0 0 0 0 0 0 0.0047035 0.0116349 0.0149328 0.0124594
          0.00600739 0.00115253 2.73092e-05 1.66213e-08 1.17048e-14 4.14492e-26 -2.56748e-32 0 0 0 0 0
          0 0 0 0 0 0 0 0 0 0 0 0
          0 0 0 0 0 0 0 0 0 0 0 0
          0 0 0 0 0 0 0 0 0.00977237 0.0188922 0.0224354 0.0188764
          0.0101321 0.00281599 0.00017418 5.79967e-07 1.002e-11 8.02242e-21 -1.22725e-29 4.5319e-37 0 0 0 0
          0 0 0 0 0 0 0 0 0 0 0 0
          0 0 0 0 0 0 0 0 0 0 0 0
          0 0 0 0 0 0 0 0 0.0162611 0.0270406 0.0302377 0.0249834
          0.013926 0.00442913 0.000446593 3.62499e-06 3.22817e-10 5.84917e-18 -4.22145e-29 1.43071e-35 0 0 0 0
          0 0 0 0 0 0 0 0 0 0 0 0
          0 0 0 0 0 0 0 0 0 0 0 0
          0 0 0 0 0 0 0 0 0.0239224 0.036021 0.0380839 0.0302667
          0.0166075 0.0054496 0.000672254 8.08138e-06 1.45262e-09 9.93187e-17 -3.84717e-29 -1.86792e-35 0 0 0 0
          0 0 0 0 0 0 0 0 0 0 0 0
          0 0 0 0 0 0 0 0 0 0 0 0
          0 0 0 0 0 0 0 0 0.0332867 0.0461085 0.0456969 0.0341322
          0.0176821 0.0056086 0.000696014 8.47669e-06 1.53829e-09 1.06239e-16 -3.37201e-29 -2.33575e-35 0 0 0 0
          0 0 0 0 0 0 0 0 0 0 0 0
          0 0 0 0 0 0 0 0 0 0 0 0
          0 0 0 0 0 0 0 0 0.0464742 0.0579813 0.0524226 0.0357334
          0.0168066 0.00488961 0.000511495 4.40978e-06 4.22005e-10 8.58868e-18 -1.68842e-29 7.95207e-37 0 0 0 0
          0 0 0 0 0 0 0 0 0 0 0 0
          0 0 0 0 0 0 0 0 0 0 0 0
          0 0 0 0 0 0 0 -3.49997e-38 0.0766164 0.0720809 0.0565278 0.0342008
          0.0141508 0.0035891 0.000258167 1.08241e-06 2.72853e-11 4.38081e-20 -9.75314e-31 5.72002e-37 0 0 0 0
          0 0 0 0 0 0 0 0 0 0 0 0
          0 0 0 0 0 0 0 0 0 0 0 0
          0 0 0 0 0 0 0 1.63564e-20 0.0923423 0.078437 0.0555888 0.0299555
          0.0107777 0.002249 9.09899e-05 1.33696e-07 4.73404e-13 1.81056e-23 -1.54281e-32 1.40228e-38 0 0 0 0
          0 0 0 0 0 0 0 0 0 0 0 0
          0 0 0 0 0 0 0 0 0 0 0 0
          0 0 0 0 0 0 0 3.30142e-10 0.102519 0.0807704 0.0522821 0.0251617
          0.00793765 0.00128665 2.64366e-05 1.16346e-08 4.22096e-15 2.11946e-27 -9.00303e-35 0 0 0 0 0
          0 0 0 0 0 0 0 0 0 0 0 0
          0 0 0 0 0 0 0 -4.93869e-38 -2.56877e-35 -2.57799e-37 -1.26524e-37 -2.75765e-37
          -3.67327e-38 0 -2.55599e-35 4.3856e-38 5.18638e-38 6.82304e-38 1.09863e-37 2.76982e-05 0.110262 0.0811187 0.0481438 0.0207831
          0.00590172 0.000702839 7.13906e-06 8.92708e-10 2.97207e-17 -1.91804e-31 8.4748e-37 0 0 0 0 0
          0 0 0 0 0 0 0 0 0 0 0 0
          0 0 1.33822e-38 1.72446e-24 2.02762e-21 1.14177e-20 3.37627e-20 7.91536e-20 1.65198e-19 3.20957e-19 5.86407e-19 9.71776e-19
          1.33637e-18 1.78832e-18 2.56658e-18 3.53944e-18 4.52355e-18 6.83928e-18 1.29043e-17 0.000118183 0.117098 0.0801094 0.0435856 0.0169783
          0.00438043 0.000367538 1.82987e-06 6.27597e-11 1.78295e-19 -1.09534e-32 6.31901e-38 0 0 0 0 0
          0 0 0 0 0 0 0 0 0 0 0 0
          0 3.26577e-33 3.05278e-18 5.80604e-12 1.47223e-10 3.15738e-10 5.05525e-10 7.29456e-10 9.9999e-10 1.32873e-09 1.71854e-09 2.12776e-09
          2.42226e-09 2.7228e-09 3.15766e-09 3.59828e-09 3.96432e-09 4.70969e-09 6.18672e-09 0.000203167 0.123533 0.0776899 0.0385361 0.0136006
          0.00316579 0.00017849 4.21892e-07 3.65293e-12 7.52766e-22 -1.86074e-35 0 0 0 0 0 0
          0 0 0 0 0 0 0 0 0 0 0 0
          0 4.9575e-16 6.79281e-09 5.94489e-06 2.13555e-05 2.82593e-05 3.34907e-05 3.81826e-05 4.27171e-05 4.7242e-05 5.17172e-05 5.56883e-05
          5.81161e-05 6.02898e-05 6.31911e-05 6.58396e-05 6.78432e-05 7.18936e-05 7.92335e-05 0.000285604 0.129824 0.0734024 0.0327347 0.0104793
          0.00213654 7.48049e-05 7.59963e-08 1.34652e-13 1.3439e-24 -5.99244e-36 0 0 0 0 0 0
          0 0 0 0 0 0 0 0 0 0 0 0
          0 9.48156e-08 0.000168341 0.00177324 0.00218222 0.00232405 0.00243781 0.00253939 0.00263459 0.00272549 0.00281219 0.00289325
          0.00296657 0.00303588 0.00310618 0.00318176 0.00326685 0.00336664 0.00349006 0.00365976 0.136157 0.0661261 0.0257442 0.00747582
          0.00122451 2.24946e-05 7.47599e-09 1.58346e-15 2.71042e-28 6.10948e-37 0 0 0 0 0 0
          0 0 0 0 0 0 0 0 0 0 0 0
          0 0.000185075 0.00588618 0.0410026 0.142184 0.210727 0.266986 0.314734 0.355515 0.390038 0.418622 0.441078
          0.456272 0.463304 0.462349 0.454711 0.441825 0.423778 0.39614 0.332409 0.14272 0.0525774 0.0167688 0.00438723
          0.000435946 2.66213e-06 1.26107e-10 6.46716e-19 -1.56896e-35 1.62985e-38 0 0 0 0 0 0
          0 0 0 0 0 0 0 0 0 0 0 0
          0 0 0.000547369 0.00657177 0.0428648 0.0559071 0.0628798 0.0668745 0.0693976 0.0711708 0.0722977 0.0711673
          0.0612892 0.0451494 0.027959 0.0135857 0.00473323 0.000650685 7.15631e-06 9.13512e-10 2.83096e-17 -1.01441e-34 4.84202e-38 0
          0 0 0 0 0 0 0 0 0 0 0 0
          0 0 0 0 0 0 0 0 0 0 0 0
          0 0 0.000692054 0.00671324 0.0427868 0.0534224 0.0579444 0.0597968 0.0605207 0.0607856 0.0606876 0.0586448
          0.0472507 0.0317993 0.0177849 0.00773853 0.00217824 0.000121661 2.50687e-07 1.47091e-12 1.2772e-22 2.70335e-37 0 0
          0 0 0 0 0 0 0 0 0 0 0 0
          0 0 0 0 0 0 0 0 0 0 0 0
          0 0 0.000949007 0.00708229 0.0451816 0.054894 0.0585689 0.0598945 0.0603415 0.0604715 0.0603238 0.058155
          0.0445246 0.0280592 0.014649 0.00609692 0.00143747 4.919e-05 4.29849e-08 5.003e-14 2.00191e-25 1.01949e-37 0 0
          0 0 0 0 0 0 0 0 0 0 0 0
          0 0 0 0 0 0 0 0 0 0 0 0
          0 0 0.00120211 0.00735886 0.0477816 0.0564042 0.059257 0.0601599 0.0604289 0.0604961 0.0603543 0.0581424
          0.0415637 0.0241633 0.0116721 0.0046016 0.000839353 1.55589e-05 4.66924e-09 7.16489e-16 5.17552e-29 1.67299e-38 0 0
          0 0 0 0 0 0 0 0 0 0 0 0
          0 0 0 0 0 0 0 0 0 0 0 0
          0 0 0.00136777 0.00751835 0.0505153 0.05778 0.0598012 0.0603469 0.0604881 0.0605175 0.0604006 0.0582595
          0.037711 0.019755 0.00875927 0.00316272 0.000385339 3.10373e-06 2.11279e-10 1.92924e-18 -1.87903e-36 0 0 0
          0 0 0 0 0 0 0 0 0 0 0 0
          0 0 0 0 0 0 0 0 0 0 0 0
          0 0 0.0013568 0.00757692 0.0533978 0.0589715 0.0601908 0.0604602 0.0605192 0.060529 0.0604498 0.0585709
          0.0323892 0.0147169 0.00603761 0.00179654 0.000111423 2.60788e-07 1.82821e-12 2.19987e-22 0 0 0 0
          0 0 0 0 0 0 0 0 0 0 0 0
          0 0 0 0 0 0 0 0 0 0 0 0
          0 0 0.00103492 0.00682456 0.0565856 0.0599189 0.0604295 0.0605166 0.0605323 0.0605342 0.0604979 0.059215
          0.0241832 0.00893931 0.00334871 0.000614491 1.07337e-05 2.74433e-09 2.95706e-16 1.22101e-29 0 0 0 0
          0 0 0 0 0 0 0 0 0 0 0 0
        </DataArray>
        <DataArray type="Float32" Name="Sw" NumberOfComponents="1" format="ascii">
          1 1 1 1 1 1 1 1 1 1 1 1
          1 1 1 1 1 1 1 1 1 1 1 1
          1 1 1 1 1 1 1 1 1 1 1 1
          1 1 1 1 1 1 1 1 1 1 1 1
          1 1 1 1 1 1 1 1 1 1 1 1
          1 1 1 1 1 1 1 1 1 1 1 1
          1 1 1 1 1 1 1 1 1 1 1 1
          1 1 1 1 1 1 1 1 1 1 1 1
          1 1 1 1 1 1 1 1 1 1 1 1
          1 1 1 1 1 1 1 1 1 1 1 1
          1 1 1 1 1 1 1 1 1 1 1 1
          1 1 1 1 1 1 1 1 1 1 1 1
          1 1 1 1 1 1 1 1 1 1 1 1
          1 1 1 1 1 1 1 1 1 1 1 1
          1 1 1 1 1 1 1 1 1 1 1 1
          1 1 1 1 1 1 1 1 1 1 1 1
          1 1 1 1 1 1 1 1 1 1 1 1
          1 1 1 1 1 1 1 1 1 1 1 1
          1 1 1 1 1 1 1 1 1 1 1 1
          1 1 1 1 1 1 1 1 1 1 1 1
          1 1 1 1 1 1 1 1 1 1 1 1
          1 1 1 1 1 1 1 1 1 1 1 1
          1 1 1 1 1 1 1 1 1 1 1 1
          1 1 1 1 1 1 1 1 1 1 1 1
          1 1 1 1 1 1 1 1 1 1 1 1
          1 1 1 1 1 1 1 1 1 1 1 1
          1 1 1 1 1 1 1 1 1 0.999998 0.999983 0.999996
          1 1 1 1 1 1 1 1 1 1 1 1
          1 1 1 1 1 1 1 1 1 1 1 1
          1 1 1 1 1 1 1 1 1 1 1 1
          1 1 1 1 1 1 1 1 0.999999 0.999807 0.999447 0.999744
          0.99999 1 1 1 1 1 1 1 1 1 1 1
          1 1 1 1 1 1 1 1 1 1 1 1
          1 1 1 1 1 1 1 1 1 1 1 1
          1 1 1 1 1 1 1 1 0.999887 0.998182 0.996818 0.99782
          0.9996 0.999995 1 1 1 1 1 1 1 1 1 1
          1 1 1 1 1 1 1 1 1 1 1 1
          1 1 1 1 1 1 1 1 1 1 1 1
          1 1 1 1 1 1 1 1 0.998653 0.994236 0.991817 0.993497
          0.99756 0.999808 0.999999 1 1 1 1 1 1 1 1 1
          1 1 1 1 1 1 1 1 1 1 1 1
          1 1 1 1 1 1 1 1 1 1 1 1
          1 1 1 1 1 1 1 1 0.995296 0.988365 0.985067 0.987541
          0.993993 0.998847 0.999973 1 1 1 1 1 1 1 1 1
          1 1 1 1 1 1 1 1 1 1 1 1
          1 1 1 1 1 1 1 1 1 1 1 1
          1 1 1 1 1 1 1 1 0.990228 0.981108 0.977565 0.981124
          0.989868 0.997184 0.999826 0.999999 1 1 1 1 1 1 1 1
          1 1 1 1 1 1 1 1 1 1 1 1
          1 1 1 1 1 1 1 1 1 1 1 1
          1 1 1 1 1 1 1 1 0.983739 0.972959 0.969762 0.975017
          0.986074 0.995571 0.999553 0.999996 1 1 1 1 1 1 1 1
          1 1 1 1 1 1 1 1 1 1 1 1
          1 1 1 1 1 1 1 1 1 1 1 1
          1 1 1 1 1 1 1 1 0.976078 0.963979 0.961916 0.969733
          0.983392 0.99455 0.999328 0.999992 1 1 1 1 1 1 1 1
          1 1 1 1 1 1 1 1 1 1 1 1
          1 1 1 1 1 1 1 1 1 1 1 1
          1 1 1 1 1 1 1 1 0.966713 0.953892 0.954303 0.965868
          0.982318 0.994391 0.999304 0.999992 1 1 1 1 1 1 1 1
          1 1 1 1 1 1 1 1 1 1 1 1
          1 1 1 1 1 1 1 1 1 1 1 1
          1 1 1 1 1 1 1 1 0.953526 0.942019 0.947577 0.964267
          0.983193 0.99511 0.999489 0.999996 1 1 1 1 1 1 1 1
          1 1 1 1 1 1 1 1 1 1 1 1
          1 1 1 1 1 1 1 1 1 1 1 1
          1 1 1 1 1 1 1 1 0.923384 0.927919 0.943472 0.965799
          0.985849 0.996411 0.999742 0.999999 1 1 1 1 1 1 1 1
          1 1 1 1 1 1 1 1 1 1 1 1
          1 1 1 1 1 1 1 1 1 1 1 1
          1 1 1 1 1 1 1 1 0.907658 0.921563 0.944411 0.970045
          0.989222 0.997751 0.999909 1 1 1 1 1 1 1 1 1
          1 1 1 1 1 1 1 1 1 1 1 1
          1 1 1 1 1 1 1 1 1 1 1 1
          1 1 1 1 1 1 1 1 0.897481 0.91923 0.947718 0.974838
          0.992062 0.998713 0.999974 1 1 1 1 1 1 1 1 1
          1 1 1 1 1 1 1 1 1 1 1 1
          1 1 1 1 1 1 1 1 1 1 1 1
          1 1 1 1 1 1 1 0.999972 0.889738 0.918881 0.951856 0.979217
          0.994098 0.999297 0.999993 1 1 1 1 1 1 1 1 1
          1 1 1 1 1 1 1 1 1 1 1 1
          1 1 1 1 1 1 1 1 1 1 1 1
          1 1 1 1 1 1 1 0.999882 0.882902 0.919891 0.956414 0.983022
          0.99562 0.999632 0.999998 1 1 1 1 1 1 1 1 1
          1 1 1 1 1 1 1 1 1 1 1 1
          1 1 1 1 1 1 1 1 1 1 1 1
          1 1 1 1 1 1 1 0.999797 0.876467 0.92231 0.961464 0.986399
          0.996834 0.999821 1 1 1 1 1 1 1 1 1 1
          1 1 1 1 1 1 1 1 1 1 1 1
          1 1 1 0.999994 0.999979 0.999972 0.999967 0.999962 0.999957 0.999953 0.999948 0.999944
          0.999942 0.99994 0.999937 0.999934 0.999932 0.999928 0.999921 0.999714 0.870176 0.926598 0.967265 0.989521
          0.997863 0.999925 1 1 1 1 1 1 1 1 1 1
          1 1 1 1 1 1 1 1 1 1 1 1
          1 1 0.999832 0.998227 0.997818 0.997676 0.997562 0.997461 0.997365 0.997275 0.997188 0.997107
          0.997033 0.996964 0.996894 0.996818 0.996733 0.996633 0.99651 0.99634 0.863843 0.933874 0.974256 0.992524
          0.998775 0.999978 1 1 1 1 1 1 1 1 1 1
          1 1 1 1 1 1 1 1 1 1 1 1
          1 0.999815 0.994114 0.958997 0.857816 0.789273 0.733014 0.685265 0.644485 0.609962 0.581378 0.558922
          0.543728 0.536696 0.537651 0.545289 0.558174 0.576222 0.60386 0.667591 0.85728 0.947423 0.983231 0.995613
          0.999564 0.999997 1 1 1 1 1 1 1 1 1 1
          1 1 1 1 1 1 1 1 1 1 1 1
          1 1 0.999453 0.993428 0.957135 0.944093 0.93712 0.933125 0.930602 0.928829 0.927702 0.928833
          0.938711 0.954851 0.972041 0.986414 0.995267 0.999349 0.999993 1 1 1 1 1
          1 1 1 1 1 1 1 1 1 1 1 1
          1 1 1 1 1 1 1 1 1 1 1 1
          1 1 0.999308 0.993287 0.957213 0.946578 0.942056 0.940203 0.939479 0.939214 0.939312 0.941355
          0.952749 0.968201 0.982215 0.992261 0.997822 0.999878 1 1 1 1 1 1
          1 1 1 1 1 1 1 1 1 1 1 1
          1 1 1 1 1 1 1 1 1 1 1 1
          1 1 0.999051 0.992918 0.954818 0.945106 0.941431 0.940105 0.939659 0.939528 0.939676 0.941845
          0.955475 0.971941 0.985351 0.993903 0.998563 0.999951 1 1 1 1 1 1
          1 1 1 1 1 1 1 1 1 1 1 1
          1 1 1 1 1 1 1 1 1 1 1 1
          1 1 0.998798 0.992641 0.952218 0.943596 0.940743 0.93984 0.939571 0.939504 0.939646 0.941858
          0.958436 0.975837 0.988328 0.995398 0.999161 0.999984 1 1 1 1 1 1
          1 1 1 1 1 1 1 1 1 1 1 1
          1 1 1 1 1 1 1 1 1 1 1 1
          1 1 0.998632 0.992482 0.949485 0.94222 0.940199 0.939653 0.939512 0.939482 0.939599 0.94174
          0.962289 0.980245 0.991241 0.996837 0.999615 0.999997 1 1 1 1 1 1
          1 1 1 1 1 1 1 1 1 1 1 1
          1 1 1 1 1 1 1 1 1 1 1 1
          1 1 0.998643 0.992423 0.946602 0.941028 0.939809 0.93954 0.939481 0.939471 0.93955 0.941429
          0.967611 0.985283 0.993962 0.998203 0.999889 1 1 1 1 1 1 1
          1 1 1 1 1 1 1 1 1 1 1 1
          1 1 1 1 1 1 1 1 1 1 1 1
          1 1 0.998965 0.993175 0.943414 0.940081 0.939571 0.939483 0.939468 0.939466 0.939502 0.940785
          0.975817 0.991061 0.996651 0.999386 0.999989 1 1 1 1 1 1 1
          1 1 1 1 1 1 1 1 1 1 1 1
        </DataArray>
        <DataArray type="Float32" Name="pn" NumberOfComponents="1" format="ascii">
          152500 151568 150802 150144 149565 149047 148576 148145 147746 147374 147024 146695
          146381 146081 145793 145515 145246 144984 144728 144477 144231 143989 143751 143516
          143284 143055 142829 142606 142385 142167 141952 141740 141531 141325 141122 140922
          140725 140531 140340 140152 139966 139783 139601 139422 139243 139066 138890 138715
          150981 150176 149467 148839 148279 147773 147311 146886 146492 146124 145779 145452
          145141 144843 144557 144281 144012 143751 143496 143246 143001 142759 142521 142287
          142055 141826 141600 141377 141156 140938 140723 140511 140302 140096 139893 139693
          139496 139302 139111 138923 138737 138554 138373 138194 138016 137839 137664 137488
          149379 148687 148050 147468 146938 146454 146008 145596 145213 144853 144515 144194
          143887 143594 143311 143038 142772 142513 142259 142011 141766 141526 141288 141054
          140823 140594 140368 140145 139924 139706 139491 139279 139069 138863 138660 138460
          138264 138070 137879 137692 137507 137324 137143 136965 136787 136611 136436 136262
          147746 147146 146576 146045 145552 145096 144673 144278 143909 143561 143233 142920
          142621 142334 142056 141787 141525 141269 141018 140771 140528 140289 140053 139819
          139588 139360 139134 138911 138690 138472 138256 138044 137834 137628 137425 137225
          137028 136835 136645 136458 136273 136091 135912 135734 135558 135383 135208 135035
          146100 145572 145065 144583 144130 143705 143308 142935 142583 142251 141935 141633
          141343 141064 140793 140529 140272 140019 139771 139527 139287 139049 138814 138581
          138351 138123 137897 137674 137453 137234 137018 136805 136595 136389 136186 135986
          135790 135597 135407 135221 135037 134857 134678 134502 134327 134153 133980 133808
          144446 143980 143527 143092 142679 142288 141919 141570 141239 140924 140623 140334
          140056 139785 139522 139265 139013 138766 138522 138281 138042 137806 137573 137341
          137111 136884 136658 136434 136213 135994 135778 135564 135354 135147 134943 134743
          134547 134355 134166 133981 133799 133620 133443 133268 133094 132922 132751 132581
          142787 142374 141970 141580 141206 140849 140509 140186 139878 139583 139299 139025
          138759 138500 138246 137996 137751 137508 137268 137031 136795 136562 136330 136099
          135870 135643 135417 135193 134971 134751 134534 134320 134109 133901 133698 133497
          133302 133110 132922 132738 132558 132380 132205 132032 131861 131691 131522 131354
          141125 140760 140400 140052 139715 139392 139084 138788 138504 138230 137966 137708
          137456 137208 136965 136724 136485 136248 136013 135779 135547 135315 135085 134855
          134627 134400 134174 133949 133726 133506 133287 133072 132860 132656 132459 132253
          132052 131861 131674 131492 131314 131138 130966 130795 130626 130459 130292 130126
          139461 139138 138820 138511 138211 137922 137645 137378 137120 136869 136625 136385
          136148 135914 135680 135448 135217 134987 134756 134526 134297 134068 133839 133611
          133383 133156 132929 132704 132480 132258 132038 131821 131610 131435 131251 131035
          130805 130607 130422 130243 130066 129894 129724 129556 129390 129225 129062 128898
          137795 137511 137232 136960 136696 136441 136195 135958 135728 135502 135280 135059
          134838 134617 134395 134173 133949 133724 133499 133273 133047 132820 132593 132366
          132138 131911 131684 131457 131232 131008 130786 130567 130379 130228 130036 129825
          129583 129352 129166 128989 128816 128646 128480 128315 128153 127991 127831 127671
          136127 135881 135638 135401 135171 134950 134737 134532 134331 134132 133934 133733
          133529 133322 133111 132898 132682 132463 132243 132021 131797 131573 131347 131120
          130893 130666 130438 130210 129982 129755 129530 129308 129168 128990 128787 128578
          128358 128107 127905 127731 127562 127396 127233 127073 126914 126756 126599 126443
          134458 134246 134037 133834 133639 133451 133272 133100 132932 132763 132589 132409
          132223 132029 131830 131625 131416 131204 130988 130769 130549 130326 130102 129876
          129649 129421 129192 128962 128731 128501 128272 128046 127932 127733 127525 127314
          127103 126864 126641 126469 126304 126143 125985 125829 125674 125520 125367 125214
          132788 132608 132431 132260 132097 131944 131800 131665 131534 131398 131251 131093
          130923 130743 130554 130358 130155 129947 129736 129520 129302 129081 128858 128633
          128406 128177 127947 127714 127480 127245 127010 126778 126672 126465 126250 126036
          125827 125607 125375 125202 125044 124888 124735 124583 124433 124283 124134 123986
          131117 130966 130819 130679 130547 130426 130320 130226 130141 130043 129925 129788
          129634 129465 129285 129096 128899 128695 128487 128274 128058 127838 127616 127392
          127165 126935 126703 126469 126231 125990 125747 125503 125397 125180 124959 124743
          124538 124332 124102 123932 123780 123630 123482 123336 123191 123046 122902 122758
          129444 129321 129201 129088 128985 128896 128825 128780 128760 128707 128618 128500
          128359 128200 128026 127842 127649 127449 127242 127032 126817 126598 126377 126153
          125926 125696 125463 125226 124984 124737 124483 124221 124101 123872 123646 123434
          123237 123041 122820 122659 122514 122371 122229 122088 121948 121808 121668 121529
          127771 127672 127577 127488 127409 127346 127305 127308 127412 127408 127341 127235
          127102 126948 126778 126597 126406 126207 126003 125793 125579 125362 125141 124917
          124690 124460 124226 123988 123744 123491 123226 122938 122757 122523 122306 122107
          121924 121738 121531 121383 121246 121110 120975 120840 120705 120570 120435 120300
          126096 126019 125946 125878 125819 125772 125743 125735 125850 125880 125827 125730
          125605 125459 125298 125125 124944 124754 124559 124358 124153 123944 123732 123515
          123295 123071 122841 122604 122357 122092 121795 121416 121259 121114 120939 120767
          120605 120424 120239 120106 119978 119849 119720 119591 119461 119332 119202 119072
          124420 124363 124309 124259 124216 124182 124159 124149 124163 124145 124081 123985
          123867 123732 123585 123427 123262 123090 122911 122728 122540 122347 122150 121949
          121743 121530 121310 121079 120832 120560 120249 119870 119805 119706 119569 119426
          119285 119106 118949 118829 118710 118588 118466 118342 118218 118093 117968 117843
          122743 122705 122668 122634 122604 122579 122562 122553 122523 122454 122367 122263
          122146 122018 121881 121738 121587 121431 121269 121102 120931 120755 120574 120388
          120196 119997 119789 119569 119331 119068 118770 118423 118401 118324 118214 118094
          117969 117795 117665 117555 117443 117329 117212 117094 116975 116856 116735 116615
          121066 121045 121025 121005 120986 120970 120957 120949 120892 120782 120670 120554
          120435 120313 120186 120054 119918 119777 119632 119481 119326 119166 119002 118832
          118657 118474 118282 118077 117856 117612 117339 117037 117038 116973 116879 116776
          116657 116496 116385 116284 116179 116071 115960 115848 115733 115618 115503 115386
          119389 119385 119380 119374 119366 119356 119347 119340 119259 119111 118976 118849
          118729 118611 118494 118376 118254 118129 117999 117865 117726 117583 117435 117283
          117124 116960 116786 116602 116403 116185 115943 115707 115708 115648 115565 115472
          115353 115208 115112 115018 114919 114816 114710 114602 114493 114382 114270 114158
          117712 117726 117738 117745 117747 117743 117735 117726 117617 117429 117272 117138
          117020 116910 116804 116700 116594 116485 116371 116253 116131 116004 115874 115739
          115599 115454 115302 115141 114970 114783 114576 114405 114405 114347 114269 114182
          114060 113932 113845 113756 113662 113563 113462 113358 113253 113146 113038 112930
          116036 116071 116100 116122 116134 116134 116123 116108 115948 115715 115545 115412
          115302 115204 115113 115027 114944 114853 114757 114657 114552 114444 114332 114216
          114096 113972 113845 113712 113571 113421 113256 113129 113129 113066 112989 112906
          112776 112665 112584 112499 112409 112314 112217 112117 112015 111911 111807 111702
          114362 114420 114470 114509 114532 114536 114517 114480 114197 113939 113780 113665
          113571 113490 113467 113811 113834 113788 113730 113664 113592 113516 113437 113353
          113264 113174 113083 112991 112898 112803 112703 112595 111878 111805 111725 111638
          111503 111408 111330 111247 111160 111068 110974 110877 110778 110677 110576 110474
          112690 112776 112852 112912 112950 112960 112928 112826 112554 112381 112258 112161
          112081 112016 112038 112043 112044 111998 111940 111873 111802 111726 111646 111562
          111474 111384 111292 111201 111108 111013 110913 110805 110661 110560 110471 110366
          110239 110158 110082 110000 109914 109825 109733 109639 109542 109445 109346 109247
          111022 111142 111249 111336 111397 111425 111411 111342 111212 111092 110993 110908
          110835 110768 110718 110740 110733 110669 110593 110510 110422 110333 110241 110146
          110046 109947 109850 109753 109639 109500 109408 109330 109252 109184 109120 109056
          108988 108915 108838 108757 108673 108585 108495 108402 108308 108213 108116 108019
          109358 109520 109666 109787 109878 109932 109947 109921 109858 109785 109713 109645
          109581 109520 109475 109495 109489 109424 109347 109264 109177 109088 108997 108903
          108803 108703 108607 108509 108376 108260 108182 108106 108031 107960 107891 107822
          107750 107676 107599 107518 107434 107348 107259 107168 107076 106982 106887 106792
          107700 107915 108108 108269 108394 108479 108526 108535 108514 108476 108428 108377
          108324 108270 108234 108254 108249 108184 108107 108025 107939 107851 107761 107668
          107567 107468 107372 107270 107135 107032 106955 106880 106806 106734 106662 106590
          106516 106441 106362 106282 106198 106113 106025 105935 105844 105752 105659 105565
          106050 106333 106582 106788 106949 107066 107141 107180 107189 107176 107148 107112
          107068 107021 106995 107014 107011 106946 106870 106788 106704 106616 106527 106435
          106333 106234 106138 106028 105896 105804 105729 105654 105580 105507 105433 105359
          105284 105208 105129 105048 104965 104880 104793 104704 104614 104523 104431 104338
          104415 104785 105098 105351 105548 105693 105793 105854 105884 105890 105878 105852
          105817 105775 105757 105776 105776 105710 105634 105554 105470 105384 105295 105204
          105099 104999 104903 104782 104659 104577 104502 104428 104354 104279 104205 104130
          104054 103977 103897 103816 103733 103648 103562 103474 103385 103294 103203 103111
          102812 103292 103675 103972 104198 104365 104483 104561 104605 104622 104620 104602
          104573 104535 104519 104541 104544 104477 104402 104322 104239 104153 104065 103974
          103864 103763 103661 103534 103427 103350 103276 103201 103127 103052 102977 102902
          102825 102747 102668 102587 102504 102419 102333 102245 102156 102067 101976 101885
          101293 101899 102337 102663 102907 103087 103215 103300 103351 103375 103377 103364
          103337 103302 103281 103306 103316 103248 103172 103093 103010 102924 102837 102746
          102626 102524 102405 102285 102198 102124 102049 101975 101900 101826 101751 101675
          101598 101520 101440 101359 101276 101191 101105 101018 100929 100840 100749 100659
        </DataArray>
        <DataArray type="Float32" Name="pw" NumberOfComponents="1" format="ascii">
          152500 151568 150802 150144 149565 149047 148576 148145 147746 147374 147024 146695
          146381 146081 145793 145515 145246 144984 144728 144477 144231 143989 143751 143516
          143284 143055 142829 142606 142385 142167 141952 141740 141531 141325 141122 140922
          140725 140531 140340 140152 139966 139783 139601 139422 139243 139066 138890 138715
          150981 150176 149467 148839 148279 147773 147311 146886 146492 146124 145779 145452
          145141 144843 144557 144281 144012 143751 143496 143246 143001 142759 142521 142287
          142055 141826 141600 141377 141156 140938 140723 140511 140302 140096 139893 139693
          139496 139302 139111 138923 138737 138554 138373 138194 138016 137839 137664 137488
          149379 148687 148050 147468 146938 146454 146008 145596 145213 144853 144515 144194
          143887 143594 143311 143038 142772 142513 142259 142011 141766 141526 141288 141054
          140823 140594 140368 140145 139924 139706 139491 139279 139069 138863 138660 138460
          138264 138070 137879 137692 137507 137324 137143 136965 136787 136611 136436 136262
          147746 147146 146576 146045 145552 145096 144673 144278 143909 143561 143233 142920
          142621 142334 142056 141787 141525 141269 141018 140771 140528 140289 140053 139819
          139588 139360 139134 138911 138690 138472 138256 138044 137834 137628 137425 137225
          137028 136835 136645 136458 136273 136091 135912 135734 135558 135383 135208 135035
          146100 145572 145065 144583 144130 143705 143308 142935 142583 142251 141935 141633
          141343 141064 140793 140529 140272 140019 139771 139527 139287 139049 138814 138581
          138351 138123 137897 137674 137453 137234 137018 136805 136595 136389 136186 135986
          135790 135597 135407 135221 135037 134857 134678 134502 134327 134153 133980 133808
          144446 143980 143527 143092 142679 142288 141919 141570 141239 140924 140623 140334
          140056 139785 139522 139265 139013 138766 138522 138281 138042 137806 137573 137341
          137111 136884 136658 136434 136213 135994 135778 135564 135354 135147 134943 134743
          134547 134355 134166 133981 133799 133620 133443 133268 133094 132922 132751 132581