<?xml version="1.0"?>
<VTKFile type="UnstructuredGrid" version="0.1" byte_order="LittleEndian">
  <UnstructuredGrid>
    <Piece NumberOfCells="3575" NumberOfPoints="3556">
      <PointData Scalars="Sn">
        <DataArray type="Float32" Name="Sn" NumberOfComponents="1" format="ascii">
          0 0 0 0 0 0 0 0 0 0 0 0
          0 0 0 0 0 0 0 0 0 0 0 0
          0 0 0 0 0 0 0 0 0 0 0 0
          0 0 0 0 0 0 0 0 0 0 0 0
          0 0 0 0 0 0 0 0 0 0 0 0
          0 0 0 0 0 0 0 0 0 0 0 0
          0 0 0 0 0 0 0 0 0 0 0 0
          0 0 0 0 0 0 0 0 0 0 0 0
          0 0 0 0 0 0 0 0 0 0 0 0
          0 0 0 0 0 0 0 0 0 0 0 0
          0 0 0 0 0 0 0 0 0 0 0 0
          0 0 0 0 0 0 0 0 0 0 0 0
          0 0 0 0 0 0 0 0 0 0 0 0
          0 0 0 0 0 0 0 0 0 0 0 0
          0 0 0 0 0 0 0 0 0 0 0 0
          0 0 0 0 0 0 0 0 0 0 0 0
          0 0 0 0 0 0 0 0 0 0 0 0
          0 0 0 0 0 0 0 0 0 0 0 0
          0 0 0 0 0 0 0 0 0 0 0 0
          0 0 0 0 0 0 0 0 0 0 0 0
          0 0 0 0 0 0 0 0 0 0 0 0
          0 0 0 0 0 0 0 0 0 0 0 0
          0 0 0 0 0 0 0 0 0 0 0 0
          0 0 0 0 0 0 0 0 0 0 0 0
          0 0 0 0 0 0 0 0 0 0 0 0
          0 0 0 0 0 0 0 0 0 0 0 0
          0 0 0 0 0 0 0 0 0 0 0 0
          0 0 0 0 0 0 0 0 0 0 0 0
          0 0 0 0 0 0 0 0 0 0 0 0
          0 0 0 0 0 0 0 0 0 0 0 0
          0 0 0 0 0 0 0 0 0 0 0 0
          0 0 0 0 0 0 0 0 0 0 0 0
          0 0 0 0 0 0 0 0 0 0 0 0
          0 0 0 0 0 0 0 0 0 0 0 0
          0 0 0 0 0 0 0 0 0 0 0 0
          0 0 0 0 0 0 0 0 0 0 0 0
          0 0 0 0 0 0 0 0 0 0 0 0
          1.20879e-34 1.28672e-32 3.40008e-31 4.82266e-30 4.5435e-29 3.14207e-28 1.68996e-27 7.34054e-27 2.64408e-26 8.05514e-26 2.10739e-25 4.79256e-25
          9.5681e-25 1.69051e-24 2.66041e-24 3.74791e-24 4.74305e-24 5.40276e-24 5.54201e-24 5.11431e-24 4.2362e-24 3.13849e-24 2.07032e-24 1.2092e-24
          6.21154e-25 2.78393e-25 1.0781e-25 3.56442e-26 9.9088e-27 2.27011e-27 4.16981e-28 5.89978e-29 6.03357e-30 3.96878e-31 1.26103e-32 0
          0 0 0 0 0 0 0 0 0 0 0 0
          9.05595e-36 1.52876e-25 4.70181e-24 6.9635e-23 6.69676e-22 4.73558e-21 2.63135e-20 1.19404e-19 4.52838e-19 1.45634e-18 4.01166e-18 9.54067e-18
          1.97336e-17 3.5767e-17 5.7284e-17 8.18376e-17 1.05377e-16 1.2358e-16 1.33149e-16 1.32426e-16 1.2148e-16 1.02146e-16 7.79417e-17 5.33442e-17
          3.23649e-17 1.72134e-17 7.93946e-18 3.14162e-18 1.05425e-18 2.96117e-19 6.85111e-20 1.27835e-20 1.86463e-21 2.01749e-22 1.45926e-23 5.3976e-25
          8.6885e-28 1.95398e-36 0 0 0 0 0 0 0 0 0 0
          0 6.37554e-28 7.61957e-23 2.12525e-21 2.84116e-20 2.42741e-19 1.49091e-18 7.02032e-18 2.63929e-17 8.14744e-17 2.10844e-16 4.64919e-16
          8.8552e-16 1.47501e-15 2.17509e-15 2.87704e-15 3.46425e-15 3.85971e-15 4.04421e-15 4.03595e-15 3.85624e-15 3.51434e-15 3.02174e-15 2.4168e-15
          1.77226e-15 1.17585e-15 6.9743e-16 3.65671e-16 1.67604e-16 6.63615e-17 2.23866e-17 6.3237e-18 1.46133e-18 2.67274e-19 3.68163e-20 3.52395e-21
          2.01868e-22 4.80298e-24 1.78415e-28 1.15702e-37 0 0 0 0 0 0 0 0
          0 3.82448e-37 4.07508e-24 2.84623e-21 7.52921e-20 9.68264e-19 7.98796e-18 4.7445e-17 2.16185e-16 7.86619e-16 2.34939e-15 5.87484e-15
          1.24813e-14 2.2787e-14 3.6099e-14 5.01118e-14 6.16773e-14 6.83636e-14 6.96996e-14 6.71614e-14 6.29839e-14 5.87262e-14 5.4541e-14 4.95038e-14
          4.26365e-14 3.38568e-14 2.42148e-14 1.53239e-14 8.46812e-15 4.04707e-15 1.66068e-15 5.81171e-16 1.71858e-16 4.22557e-17 8.40106e-18 1.29051e-18
          1.42428e-19 9.96998e-21 3.37609e-22 1.17424e-24 8.44045e-30 0 0 0 0 0 0 0
          0 0 5.96958e-29 2.7375e-22 5.11016e-20 1.26175e-18 1.57076e-17 1.26607e-16 7.37093e-16 3.3192e-15 1.23346e-14 4.03178e-14
          1.20016e-13 3.20755e-13 7.41465e-13 1.44554e-12 2.36882e-12 3.30404e-12 4.00573e-12 4.33271e-12 4.31754e-12 4.12659e-12 3.99304e-12 4.21014e-12
          5.01511e-12 6.20629e-12 6.9721e-12 6.49835e-12 4.81009e-12 2.76009e-12 1.20105e-12 3.84758e-13 8.67892e-14 1.29776e-14 1.27674e-15 1.30722e-16
          2.15648e-17 2.59034e-18 2.03045e-19 8.33861e-21 8.77506e-23 7.17115e-26 3.57248e-32 0 0 0 0 0
          0 0 0 4.85608e-25 5.54332e-21 5.71438e-19 1.31668e-17 1.59364e-16 1.26352e-15 7.27871e-15 3.65177e-14 1.9379e-13
          1.03884e-12 4.68989e-12 1.61215e-11 4.1173e-11 7.84895e-11 1.13301e-10 1.26674e-10 1.14484e-10 9.15432e-11 7.54456e-11 7.22529e-11 7.95173e-11
          9.90434e-11 1.3866e-10 1.92351e-10 2.26854e-10 2.09199e-10 1.45725e-10 7.53385e-11 2.84642e-11 7.72037e-12 1.47414e-12 1.95714e-13 1.93297e-14
          2.17826e-15 3.36528e-16 3.49445e-17 2.39464e-18 1.13437e-19 1.94494e-21 6.93525e-24 8.37793e-28 2.73623e-36 0 0 0
          0 0 0 0 1.21551e-23 6.09752e-20 4.45531e-18 9.63594e-17 1.1378e-15 8.91527e-15 5.33602e-14 3.34582e-13
          2.37784e-12 1.4702e-11 6.84406e-11 2.34411e-10 5.93388e-10 1.11727e-09 1.57432e-09 1.68046e-09 1.41119e-09 1.05278e-09 9.31443e-10 1.17894e-09
          1.65593e-09 2.08943e-09 2.42425e-09 2.78822e-09 3.00142e-09 2.65807e-09 1.78242e-09 8.71931e-10 3.04697e-10 7.4634e-11 1.26759e-11 1.57034e-12
          1.79892e-13 2.50871e-14 3.59048e-15 3.24822e-16 1.90389e-17 1.01536e-18 2.34277e-20 1.52681e-22 1.17328e-25 7.11658e-32 0 0
          0 0 0 0 0 6.74889e-22 4.53692e-19 2.59593e-17 5.29288e-16 6.10878e-15 4.74472e-14 3.19801e-13
          2.78102e-12 2.30258e-11 1.3823e-10 5.99511e-10 1.9421e-09 4.7819e-09 8.94096e-09 1.25703e-08 1.33034e-08 1.11657e-08 8.79825e-09 8.92062e-09
          1.35916e-08 2.20251e-08 2.80397e-08 2.76802e-08 2.54501e-08 2.45398e-08 2.12075e-08 1.3866e-08 6.45311e-09 2.1e-09 4.69138e-10 7.21217e-11
          8.76135e-12 1.16679e-12 1.83391e-13 2.46458e-14 2.0557e-15 1.11743e-16 6.66274e-18 1.94315e-19 2.11892e-21 3.70281e-24 7.38175e-30 0
          0 0 0 0 0 0 1.31516e-20 2.59985e-18 1.19272e-16 2.28615e-15 2.57636e-14 1.98549e-13
          1.60576e-12 1.87149e-11 1.62824e-10 9.15682e-10 3.61909e-09 1.09238e-08 2.61747e-08 4.96311e-08 7.18357e-08 1.03816e-07 1.94328e-07 3.45665e-10
          4.74008e-11 6.35336e-12 9.11541e-13 1.15572e-13 9.31254e-15 5.18946e-16 3.47591e-17 1.26687e-18 2.16301e-20 6.15959e-23 1.84307e-28 0
          0 0 0 0 0 0 1.36993e-19 1.24828e-17 4.53395e-16 8.06337e-15 8.82098e-14 6.73161e-13
          6.67448e-12 9.23503e-11 8.06599e-10 4.33542e-09 1.59929e-08 4.48868e-08 1.05473e-07 2.10355e-07 4.36418e-09 1.03383e-09 2.16508e-10 2.24255e-11
          5.27103e-13 2.05206e-15 1.53841e-16 6.96183e-18 1.66387e-19 6.653e-22 2.44151e-27 1.55884e-37 0 0 0 0
          0 0 9.32181e-19 5.22718e-17 1.48858e-15 2.40422e-14 2.52276e-13 1.8948e-12 2.25584e-11 3.62503e-10 3.09751e-09 1.58259e-08
          5.52528e-08 1.45933e-07 3.7704e-10 5.65616e-12 7.30767e-15 6.03646e-16 3.29199e-17 9.81093e-19 5.14696e-21 2.12787e-26 1.36269e-36 0
          0 0 0 0 0 4.6001e-18 1.91568e-16 4.35582e-15 6.25962e-14 6.19509e-13 4.52996e-12 6.13236e-11
          1.18412e-09 1.08499e-08 5.29873e-08 1.69561e-07 2.84312e-11 2.3755e-14 2.13291e-15 1.33221e-16 4.53921e-18 3.02386e-20 1.34888e-25 8.58812e-36
          0 0 0 0 0 0 1.76643e-17 6.08636e-16 1.15161e-14 1.46105e-13 1.34184e-12 9.41876e-12
          1.33951e-10 3.10992e-09 3.35784e-08 6.97796e-14 6.73055e-15 4.57098e-16 1.68849e-17 1.40304e-19 6.58754e-25 4.15607e-35 0 0
          0 0 0 0 5.62257e-17 1.67546e-15 2.75087e-14 3.10494e-13 2.62359e-12 1.746e-11 2.37256e-10 6.29207e-09
          1.83323e-13 1.86476e-14 1.32484e-15 5.16281e-17 5.2878e-19 2.57192e-24 1.60638e-34 0 0 0 0 0
          0 1.58667e-16 4.0739e-15 5.94186e-14 6.04676e-13 4.70467e-12 2.95261e-11 3.48001e-10 9.63845e-09 4.26763e-13 4.47443e-14 3.25147e-15
          1.32304e-16 1.65334e-18 8.23603e-24 5.09396e-34 0 0 0 0 0 0 4.22101e-16 9.10747e-15
          1.18009e-13 1.08878e-12 7.82488e-12 4.63622e-11 4.39001e-10 1.12115e-08 8.71252e-13 9.24064e-14 6.80263e-15 2.89049e-16 4.36058e-18 2.20455e-23
          1.35146e-33 0 0 0 0 0 0 1.08657e-15 1.9603e-14 2.23533e-13 1.8588e-12 1.22947e-11
          6.87284e-11 5.05725e-10 1.01025e-08 1.5487e-12 1.64479e-13 1.22534e-14 5.46776e-16 9.8348e-18 5.0061e-23 3.04586e-33 0 0
          0 0 0 0 2.65185e-15 4.1461e-14 4.1923e-13 3.13302e-12 1.89199e-11 9.89572e-11 5.76624e-10 7.46258e-09
          2.4012e-12 2.54556e-13 1.92531e-14 9.08685e-16 1.91964e-17 9.76578e-23 5.90653e-33 0 0 0 0 0
          0 5.89503e-15 8.43154e-14 7.81519e-13 5.34945e-12 2.96569e-11 1.44276e-10 7.0546e-10 5.28579e-09 1.21203e-10 7.43093e-11 3.29529e-12
          3.48434e-13 2.68358e-14 1.3458e-15 3.27924e-17 1.65589e-22 9.97299e-33 0 0 0 0 0 0
          1.15616e-14 1.58049e-13 1.39645e-12 9.06682e-12 4.74135e-11 2.1747e-10 9.58099e-10 4.73794e-09 1.83341e-09 1.01491e-09 5.03037e-11 4.11783e-12
          4.32675e-13 3.38739e-14 1.80197e-15 4.95792e-17 2.47042e-22 1.48418e-32 0 0 0 0 0 0
          1.96617e-14 2.63602e-13 2.28189e-12 1.44814e-11 7.3696e-11 3.2745e-10 1.37692e-09 5.82409e-09 2.88188e-08 2.51672e-08 6.17345e-08 9.33679e-09
          2.08446e-08 3.67422e-09 4.83899e-10 4.2999e-11 4.85082e-12 5.02059e-13 3.96062e-14 2.21328e-15 6.71235e-17 3.28749e-22 1.97322e-32 0
          0 0 0 0 0 2.87832e-14 3.83213e-13 3.29581e-12 2.07827e-11 1.04955e-10 4.61489e-10 1.91214e-09
          7.84499e-09 3.20885e-08 9.70339e-09 1.93731e-09 3.24276e-10 4.48221e-11 5.51175e-12 5.57093e-13 4.3766e-14 2.52944e-15 8.23569e-17 3.96287e-22
          2.37899e-32 0 0 0 0 0 0 3.6188e-14 4.80878e-13 4.13101e-12 2.604e-11 1.3148e-10
          5.77481e-10 2.3865e-09 9.74936e-09 3.9576e-08 4.15772e-08 3.56864e-08 8.61632e-09 1.80443e-09 3.2592e-10 4.89831e-11 6.02559e-12 5.95348e-13
          4.6309e-14 2.72394e-15 9.25982e-17 4.39574e-22 2.64035e-32 0 0 0 0 0 0 3.90578e-14
          5.18852e-13 4.45731e-12 2.81078e-11 1.42007e-10 6.23986e-10 2.57866e-09 1.05266e-08 4.25392e-08 3.55885e-08 8.75162e-09 1.86643e-09 3.38526e-10
          5.09091e-11 6.22703e-12 6.09524e-13 4.71725e-14 2.78899e-15 9.61899e-17 4.54297e-22 2.72956e-32 0 0 0 0
          0 5.57895e-08 4.06822e-07 1.6049e-07 2.10955e-06 7.26474e-07 9.98379e-06 2.84083e-06 1.04838e-07 3.78103e-07 1.30462e-07 5.48643e-07
          1.26286e-06 2.64127e-07 5.46352e-07 1.65543e-07 1.57437e-07 6.1521e-07 4.27567e-07 1.29423e-07 1.6511e-07 5.71717e-07 4.87119e-07 1.31846e-07
          8.62131e-07 1.1937e-06 1.08489e-06 1.05942e-07 7.4253e-07 6.32237e-07 6.88398e-07 3.68196e-07 7.61186e-08 1.37041e-05 6.48825e-06 1.77325e-06
          3.19852e-06 2.43401e-06 6.77262e-07 1.41662e-06 5.14024e-07 1.37171e-06 2.64142e-07 2.32017e-06 2.30082e-07 1.67813e-06 1.70854e-07 1.31144e-06
          1.63163e-07 2.46148e-06 1.46651e-07 2.19366e-06 4.73161e-07 4.51389e-06 1.53563e-06 4.57898e-06 2.92861e-05 7.33957e-07 1.39448e-06 1.9827e-06
          6.42703e-06 7.66843e-08 3.33082e-07 3.68172e-07 6.584e-08 2.80563e-07 6.03483e-08 3.59257e-07 6.70839e-08 3.26901e-07 8.96207e-07 7.02658e-06
          2.19152e-06 2.67393e-05 9.09261e-08 6.55986e-07 3.92699e-07 1.26874e-06 4.12187e-07 5.78246e-07 1.1868e-06 2.20238e-06 4.35855e-06 0.0605318
          0.0605343 0.0605336 0.0605353 0.0605329 0.0605355 0.0605359 0.060536 0.0605361 1.89488e-07 7.63419e-06 6.85438e-07 3.65953e-07
          1.52146e-05 6.14637e-06 5.39144e-07 1.90673e-05 7.2618e-07 2.06127e-07 3.1999e-08 1.3238e-07 1.79778e-08 1.09625e-06 1.57753e-07 4.88584e-08
          1.22173e-06 1.18528e-08 6.72111e-09 3.13637e-09 4.43323e-06 3.88101e-08 3.33935e-07 1.14363e-08 4.96025e-08 2.16235e-09 3.11999e-08 1.43535e-08
          1.60317e-07 3.18808e-07 2.39894e-06 1.76529e-07 4.4653e-07 1.55148e-08 1.04122e-07 5.32293e-06 8.079e-08 1.39183e-07 9.26374e-07 1.71111e-07
          1.5514e-07 3.53588e-09 2.43329e-08 2.39128e-09 3.35905e-07 2.33684e-06 7.44444e-07 1.04775e-07 7.73771e-09 8.54301e-11 2.47755e-05 1.77465e-05
          4.93863e-06 2.48016e-06 4.23433e-05 2.02183e-05 0.000297084 3.42267e-07 1.16612e-06 3.3418e-07 1.33876e-08 1.69877e-10 6.67587e-06 0.00015119
          4.11511e-05 2.09691e-06 9.48309e-07 3.57177e-06 1.28339e-06 0.000151126 3.53702e-08 1.5104e-08 2.36208e-10 0.000352869 0.000183623 0.000327482
          0.000126141 5.01379e-06 2.17296e-06 3.99888e-06 3.2892e-08 2.3952e-10 0.000160641 7.45879e-05 6.91336e-05 3.22042e-06 1.86545e-10 4.64383e-07
          6.20956e-06 0.033954 0.0516263 0.0480083 0.0508331 0.0568275 0.0305472 0.0577965 0.0578507 0.0591597 0.0599474 0.0587458
          0.0599855 0.0603499 0.0603856 0.0604908 0.059954 0.0324375 0.0540255 0.0577158 0.0338205 0.0596725 0.0598328 0.0602811
          0.0604095 0.0602548 0.0603264 0.060473 0.0605015 0.0605068 0.0605226 0.0605294 0.0605336 0.0605349 0.0605302 0.0604659
          0.0605207 0.0604433 0.0604691 0.0605175 0.0605254 0.0605326 0.0605344 0.0605355 0.0605358 0.0604922 0.0601966 0.0604875
          0.0605205 0.0604769 0.0605314 0.0605351 0.060532 0.060518 0.0605351 0.0605308 0.0605359 0.0579608 0.0600583 0.0603152
          0.0594278 0.0472004 0.0547571 0.0557489 0.041606 0.0599655 0.0567675 0.0397972 0.0587104 0.036875 0.0603167 0.0604399
          0.0605045 0.00767275 0.0166421 0.00658349 0.0153268 0.0192723 0.0118448 0.00477252 0.0302092 0.0233919 0.0155976 0.0121618
          0.0154019 0.00738468 0.0262927 0.121733 0.139059 0.187115 0.220999 0.146895 0.158103 0.189843 0.24307 0.24841
          0.221793 0.172176 0.206702 0.263629 0.265725 0.347779 0.361234 0.370315 0.530365 0.545263 0.512476 0.312265
          0.334174 0.491478 0.466173 0.279526 0.291932 0.38766 0.396542 0.290596 0.401426 0.579788 0.588344 0.569598
          0.279347 0.381014 0.558475 0.299776 0.310733 0.412693 0.419407 0.307731 0.422227 0.60966 0.615 0.603134
          0.30213 0.409032 0.59642 0.314902 0.325291 0.43056 0.436266 0.32188 0.438305 0.629081 0.632599 0.624634
          0.318293 0.428311 0.620347 0.230297 0.247544 0.281146 0.341841 0.340009 0.330061 0.446547 0.452461 0.450716
          0.64266 0.644647 0.639465 0.332654 0.444116 0.636439 0.26979 0.288181 0.378826 0.394711 0.139952 0.18978
          0.0359613 0.0486014 0.23504 0.0602098 0.0306481 0.0365848 0.0241243 0.283037 0.0722536 0.323081 0.085261 0.0422284
          0.0476118 0.0340602 0.0388507 0.0432222 0.0389239 0.0431554 0.0342336 0.0233467 0.0289355 0.0292274 0.0241621 0.367019
          0.0993636 0.398058 0.115081 0.0527186 0.0575584 0.437093 0.132022 0.150739 0.0621729 0.0666036 0.0504969 0.0533952
          0.0558444 0.0525967 0.0547082 0.0499926 0.047111 0.0468518 0.170607 0.191408 0.0708997 0.0750982 0.212785 0.234429
          0.0792411 0.0833651 0.0596072 0.0610365 0.0622394 0.0586948 0.0594528 0.0576927 0.0578959 0.0563854 0.255944 0.277084
          0.087502 0.0916755 0.297515 0.317065 0.0959013 0.100163 0.0641585 0.0649525 0.0656759 0.060765 0.0610082 0.0604457
          0.0632658 0.0600209 0.335496 0.352772 0.104458 0.108778 0.36877 0.383534 0.113111 0.117435 0.0669857 0.0675944
          0.0681816 0.0614684 0.0615703 0.0613472 0.0663489 0.0611968 0.397013 0.409286 0.121721 0.125935 0.420347 0.430284
          0.130035 0.13397 0.0693042 0.0698357 0.0703376 0.0618189 0.0618825 0.0617436 0.0687516 0.0616611 0.439111 0.446873
          0.137682 0.141106 0.453506 0.458893 0.144167 0.146774 0.0711906 0.0714889 0.0716417 0.061876 0.0617079 0.061933
          0.0707962 0.0619258 0.647455 0.462158 0.631088 0.463713 0.148854 0.150208 0.646458 0.465219 0.636038 0.466377
          0.150617 0.150116 0.0711772 0.0703298 0.0689227 0.0596766 0.0581065 0.0607191 0.0715734 0.0613558 0.649699 0.466869
          0.630992 0.469836 0.148909 0.147027 0.575061 0.428516 0.151051 0.171126 0.064417 0.061904 0.0594295 0.0496951
          0.0459279 0.053096 0.0669019 0.0559198 0.00668749 0.0106354 0.00659592 0.0107213 0.0149257 0.0150581 0.0111258 0.0153989
          0.00688208 0.0193063 0.0196575 0.0246016 0.0200188 0.0250348 0.0157382 0.0203755 0.0254685 0.0207222 0.0259037 0.0160528
          0.00764289 0.0115591 0.0119525 0.00837512 0.0297265 0.0347631 0.0302421 0.0353446 0.0394683 0.0436826 0.0400836 0.0442958
          0.0359421 0.0407167 0.0449257 0.0413611 0.0455628 0.0365522 0.0307672 0.0313015 0.0473288 0.0503921 0.0479083 0.0509142
          0.0528989 0.0549008 0.0533485 0.0552709 0.0514491 0.0538108 0.0556557 0.0542663 0.0560314 0.0519809 0.0485024 0.0490982
          0.0564624 0.0576535 0.0567529 0.0578688 0.0585425 0.0591928 0.0586904 0.0592824 0.0581084 0.0588699 0.059412 0.0590429
          0.0595379 0.0583395 0.0570618 0.0573613 0.0596597 0.0599899 0.0597005 0.0599906 0.0602207 0.0603806 0.0601891 0.060323
          0.0600499 0.0602256 0.060343 0.0602671 0.0603708 0.0601114 0.0597904 0.0598795 0.06049 0.0605648 0.0604108 0.0604683
          0.0606121 0.0606426 0.060499 0.0605153 0.0604179 0.0604679 0.0604346 0.0604777 0.0606654 0.0606822 0.0605271 0.0605335
          0.0606951 0.0606989 0.0605379 0.0605331 0.0606855 0.060639 0.0605111 0.0604555 0.0605307 0.0603117 0.0603362 0.0601014
          0.0604285 0.0603036 0.0600576 0.0602938 0.0600368 0.0604234 0.060511 0.0604872 0.0604843 0.06051 0.0599057 0.0592073
          0.0596701 0.0589301 0.0580892 0.0564238 0.0577464 0.0559865 0.0588226 0.0575707 0.0557106 0.057411 0.0554438 0.0587356
          0.0596039 0.0595602 0.0541156 0.0511329 0.0535558 0.0504316 0.047524 0.043432 0.0466743 0.0424086 0.0498822 0.045985
          0.0415994 0.0452938 0.0407995 0.0493291 0.0531508 0.0527472 0.043147 0.0390539 0.0426189 0.0341634 0.0377827 0.0329683
          0.0350657 0.0298681 0.0281846 0.0230485 0.0320209 0.0271166 0.0219635 0.0262358 0.0215315 0.0311109 0.0368891 0.0360161
          0.00130329 0.00311146 0.00224615 0.00375728 0.0024027 0.00423056 0.000873814 0.00559841 0.0059984 0.00874481 0.00633025 0.0090501
          0.00449119 0.00659637 0.00932517 0.00682314 0.00958168 0.00471153 0.00112029 0.00267779 0.00289714 0.00121802 0.0122766 0.0163416
          0.0125533 0.0166088 0.0210594 0.0263412 0.0213884 0.0267819 0.0168582 0.0217104 0.0272267 0.0220261 0.0276762 0.0170914
          0.0128059 0.0130421 0.0318457 0.037175 0.0324003 0.0378111 0.0420159 0.0462053 0.042681 0.0468524 0.0384612 0.0433563
          0.0475036 0.0440413 0.048158 0.0391261 0.032966 0.0335433 0.0496934 0.0525065 0.0502867 0.0530245 0.0547113 0.0563942
          0.0551443 0.0567428 0.0535335 0.0555644 0.0570763 0.0559703 0.0573941 0.0540323 0.050877 0.0514628 0.0576469 0.0585574
          0.0579178 0.0587613 0.0592043 0.0596542 0.0593533 0.0597603 0.0589512 0.0594903 0.0598565 0.0596154 0.0599433 0.0591271
          0.0581735 0.0584137 0.0599612 0.0601675 0.0600349 0.0602176 0.0603052 0.060397 0.0603389 0.060421 0.060262 0.0603683
          0.0604433 0.0603935 0.0604607 0.0603011 0.0601009 0.0601598 0.0604502 0.0604843 0.0604636 0.0604899 0.0605107 0.0604843
          0.0604214 0.0604846 0.0604199 0.060512 0.0602871 0.060019 0.0602809 0.0600014 0.0604184 0.0602748 0.0599837 0.0602689
          0.059966 0.0604171 0.060513 0.0604849 0.0604852 0.0605143 0.0595184 0.0586478 0.0594757 0.0585564 0.0572456 0.0551639
          0.057071 0.0548666 0.0584607 0.0568861 0.0545501 0.0566902 0.0542124 0.0583605 0.0594317 0.0593864 0.0523223 0.0487492
          0.0518712 0.0481375 0.044577 0.0399807 0.0438307 0.0391403 0.0474912 0.043054 0.0382798 0.0422471 0.0374015 0.0468074
          0.0513911 0.0508794 0.0351318 0.0301969 0.034234 0.0292731 0.0253403 0.0206999 0.0244245 0.0198328 0.0283413 0.0235023
          0.0189591 0.022576 0.0180838 0.027403 0.0333242 0.0324048 0.0170464 0.0163231 0.0123702 0.0119996 0.0155724 0.0116562
          0.00772543 0.00863538 0.00821705 0.00558727 0.0109998 0.0077393 0.00508717 0.0072882 0.00464747 0.010336 0.0147948 0.0140102
          0.00146533 0.00310026 0.00490744 0.00329658 0.00508353 0.00158531 0.0070277 0.00982469 0.00721414 0.0100597 0.00523832 0.0073837
          0.0102928 0.00753692 0.0105312 0.00536854 0.00192275 0.00348416 0.00364326 0.00218775 0.0132667 0.0173082 0.0134843 0.0175073
          0.0223361 0.0281313 0.0226409 0.0285928 0.0176858 0.0229416 0.0290614 0.02324 0.0295379 0.0178388 0.0136996 0.0139191
          0.0341327 0.0398069 0.0347345 0.0405053 0.0447357 0.0488149 0.0454385 0.0494735 0.0412233 0.0461481 0.0501332 0.0468618
          0.0507942 0.0419644 0.0353482 0.0359733 0.0520427 0.0545195 0.052615 0.0549939 0.0563608 0.0576956 0.0567349 0.0579801
          0.0554542 0.0570912 0.0582473 0.0574283 0.0584972 0.0558996 0.0531774 0.0537273 0.058638 0.0592891 0.0588465 0.0594375
          0.0597291 0.0600212 0.0598317 0.0600906 0.0595728 0.0599238 0.0601522 0.0600059 0.0602065 0.0596953 0.0590389 0.0592153
          0.0602119 0.0603353 0.0602579 0.0603653 0.0604151 0.0604718 0.0604337 0.0604821 0.0603914 0.0604497 0.0604896 0.0604633
          0.0604967 0.0604141 0.0602982 0.0603332 0.060515 0.0604854 0.0604159 0.0604856 0.0604147 0.0605161 0.0602632 0.0599483
          0.0602577 0.0599307 0.0604138 0.0602523 0.0599134 0.0602471 0.0598967 0.0604131 0.0605166 0.0604858 0.0604859 0.0605175
          0.0593397 0.0582557 0.0592917 0.0581462 0.0564823 0.0538516 0.0562615 0.0534652 0.0580319 0.0560268 0.0530503 0.0557767
          0.0526035 0.0579131 0.0592421 0.0591909 0.050333 0.0460828 0.0497486 0.0453129 0.0414106 0.036509 0.0405464 0.0356072
          0.0444919 0.0396582 0.0347025 0.0387535 0.0338035 0.0436108 0.0491228 0.0484523 0.0314782 0.0264589 0.0305472 0.0255086
          0.0216458 0.0172089 0.020711 0.0163352 0.0245509 0.0197704 0.0154632 0.0188225 0.014594 0.023583 0.0296137 0.0286791
          0.0132322 0.00969779 0.0124614 0.00909636 0.00687723 0.00444702 0.0064943 0.00409119 0.00853947 0.00613641 0.0039457 0.00580072
          0.00366971 0.00801694 0.0116981 0.0109464 0.000289005 0.00101862 0.000384018 0.00116163 0.00232231 0.00126943 0.00242869 0.000414844
          0.000549873 0.00137113 0.00251686 0.00146397 0.00259049 0.000659104 0.0037611 0.0054726 0.00384804 0.00555104 0.00767404 0.0107842
          0.00779424 0.011064 0.0056038 0.0078941 0.0113865 0.00796518 0.0117729 0.00562876 0.00391251 0.0039569 0.0141517 0.0179581
          0.0144108 0.0180301 0.0235394 0.0300232 0.0238459 0.0305177 0.0180324 0.0241704 0.0310216 0.0245312 0.0315343 0.0179269
          0.0147171 0.0151033 0.0366079 0.0427339 0.0372482 0.0435404 0.0475748 0.0514577 0.0482788 0.0521274 0.0443979 0.0489588
          0.0528126 0.0495872 0.0535329 0.0453306 0.0378879 0.0385149 0.0542607 0.05633 0.0547712 0.0567467 0.0577445 0.05873
          0.058037 0.0589469 0.0571541 0.0583011 0.0591507 0.0585277 0.0593474 0.0575635 0.0552484 0.0556725 0.0593756 0.0598059
          0.0595192 0.0599057 0.0600784 0.0602542 0.0601417 0.0602962 0.0599965 0.0601957 0.0603334 0.0602396 0.0603673 0.0600813
          0.0596449 0.0597496 0.0603635 0.0604339 0.0603893 0.0604514 0.060475 0.0605014 0.0604848 0.0605055 0.0604108 0.0604672
          0.0604277 0.0604794 0.0605178 0.0604859 0.0604127 0.0604858 0.0604128 0.0605184 0.060242 0.059881 0.0602365 0.0598673
          0.0604138 0.0602299 0.0598571 0.0602205 0.0598538 0.0604165 0.0605182 0.0604853 0.0604842 0.0605184 0.0591374 0.0577901
          0.0590804 0.0576643 0.05551 0.05212 0.0552249 0.0515934 0.057538 0.0549194 0.0510134 0.0545911 0.0503625 0.0574162
          0.0590176 0.0589442 0.0477348 0.0426554 0.0469714 0.0416009 0.037846 0.0329206 0.0369615 0.0320653 0.0404015 0.0361491
          0.0312463 0.0355019 0.0304599 0.0389688 0.0461713 0.0453622 0.0277425 0.0226 0.0267994 0.0215949 0.0178653 0.013729
          0.0168978 0.0128699 0.0205572 0.0159205 0.0120196 0.0149382 0.0111871 0.0194739 0.0258395 0.0248447 0.010213 0.00752036
          0.00950712 0.00704246 0.00547929 0.00366632 0.00514714 0.00352962 0.00657814 0.00479377 0.00326471 0.00443099 0.00298046 0.00612429
          0.00884603 0.0082341 0.00156803 0.00228008 0.0020992 0.000927561 0.000622334 0.000312214 0.00192655 0.000820755 0.00172519 0.000658672
          4.85094e-05 0.00022055 6.93553e-05 0.000267465 0.000727724 0.000302545 0.000783141 7.44814e-05 0.0015413 0.00265113 0.00160267 0.00270175
          0.00081972 0.00164455 0.00274787 0.00165767 0.00279863 0.00082749 9.46299e-05 0.000328054 0.000338489 9.14734e-05 0.00398376 0.00562262
          0.0039988 0.00558277 0.00799009 0.0122528 0.00794214 0.0126867 0.00550662 0.00783615 0.0121553 0.00775017 0.0118176 0.00537455
          0.00401545 0.00406651 0.0296752 0.0237895 0.0183279 0.022621 0.0170977 0.0293557 0.0139634 0.0103884 0.0130231 0.00964501
          0.0157646 0.0121728 0.00898149 0.0115224 0.0084025 0.0143205 0.0273961 0.0211823 0.0198379 0.0258296 0.007662 0.00567783
          0.00712215 0.00523327 0.00406401 0.00268934 0.00369028 0.00239302 0.00478127 0.00330465 0.00209061 0.00290123 0.00178227 0.00430811
          0.00660269 0.00608363 0.001523 0.000609349 0.00132184 0.000474227 0.001123 0.000426374 0.000928467 0.000315049 0.000101607 0.000328682
          0.000794354 0.000297754 0.000712193 8.56359e-05 0.00162165 0.00287273 0.00148601 0.00289538 0.000592941 0.00122227 0.00228717 0.000949905
          0.00172415 0.000469812 8.22264e-05 0.00025233 0.000203546 6.16509e-05 0.00785946 0.00553542 0.00379506 0.00488715 0.00321765 0.00755183
          0.00247575 0.00147157 0.00203105 0.0011681 0.00257734 0.00158954 0.000888642 0.00119327 0.000651276 0.00197355 0.00595708 0.00395723
          0.00306492 0.00459892 0.00074253 0.000269011 0.000571697 0.000185157 0.000423514 0.000148327 0.000303817 9.5861e-05 5.46003e-05 0.000160589
          0.00036683 0.000127176 0.000287439 4.01994e-05 0.000737997 0.00137632 0.000575276 0.00107532 0.000229445 0.000448347 0.000816092 0.000368923
          0.000634939 0.000197709 3.70677e-05 0.000103874 9.28649e-05 3.12254e-05 0.00301682 0.00244435 0.00516401 0.00413364 0.00196038 0.00363956
          0.00573222 0.00268617 0.0041113 0.00187882 0.00146506 0.0010654 0.0110969 0.0113075 0.00810755 0.00679446 0.00700607 0.00537366
          0.00355112 0.00414379 0.00263216 0.0045413 0.00283543 0.00181726 0.00181941 0.00124102 0.00280927 0.00679312 0.0023149 0.00146362
          0.0016853 0.00105533 0.000868841 0.00046527 0.000621305 0.000330042 0.00075104 0.000448236 0.000241179 0.000356239 0.000199517 0.000570887
          0.00118049 0.000853684 0.0002138 7.4096e-05 0.000151189 4.81232e-05 0.000112213 4.02169e-05 9.61676e-05 3.23639e-05 0.116524 0.130473
          0.184631 0.0530947 0.0899926 0.0879319 0.140718 0.211264 0.14454 0.296321 0.406198 0.286304 0.398205 0.497522
          0.0279152 0.0617254 0.0108341 0.0189481 0.0313425 0.0195158 0.0111264 0.544571 0.136138 0.52584 0.126677 0.0582181
          0.000387677 0.00155421 0.000503535 0.00138572 0.000373426 0.000102823 0.0043311 0.00363877 0.00466206 0.00534124 0.0282447 0.0161687
          0.0227389 0.0104132 0.0176604 3.08984e-05 2.05903e-05 7.10643e-05 6.98007e-05 0.000296787 0.00047973 0.000335495 0.00593408 0.00337965
          0.00439669 0.00200747 0.00238008 0.00112299 0.00353085 0.00294932 0.00193643 0.000810534 0.00253677 2.37577e-06 3.13834e-06 3.44998e-06
          1.3103e-05 1.37834e-05 2.10417e-05 3.09263e-05 1.79273e-05 0.0155721 0.0175521 0.0250182 0.0321741 0.0173112 0.0328615 0.0155499
          0.0392091 0.0466925 0.0502216 0.0545591 0.04841 0.0558005 0.056077 0.0581216 0.0587344 0.0596052 0.0587679 0.0598925
          0.0598419 0.0601892 0.0602774 0.0604094 0.060306 0.0604541 0.060442 0.0604905 0.0605188 0.0605068 0.0605258 0.0605292
          0.0605331 0.0605326 0.06052 0.0605338 0.0605238 0.0604804 0.0604292 0.060196 0.0598897 0.0604521 0.0599819 0.0588086
          0.0573446 0.0541035 0.0494913 0.0574369 0.0485863 0.0443746 0.0366438 0.0349928 0.0327937 0.0343509 4.1889e-06 3.34292e-06
          1.81775e-05 3.58345e-05 3.08667e-05 1.44137e-05 0.00416662 0.00508661 0.00780149 0.0106536 0.00332111 0.060504 0.0605247 0.060535
          0.06053 0.0221742 0.0184618 0.0123162 0.0110974 0.00795262 3.10482e-06 2.54611e-06 1.04315e-05 2.16994e-05 1.56599e-05 8.80841e-06
          2.0354e-06 0.30809 0.267723 0.221041 0.194638 0.232745 0.202873 0.242195 0.210064 0.250214 0.216523 0.257232
          0.222593 0.263736 0.270756 0.487756 0.477967 0.000361188 0.000179663 2.32484e-05 2.92051e-05 1.19276e-05 1.655e-05 7.58421e-06
          0.13988 0.147548 0.15422 0.160297 0.164237 2.11583e-05 9.49682e-05 1.82554e-05 8.53273e-05 0.000446886 0.000692506 0.00097073
          2.77766e-06 1.70676e-05 8.49521e-05 6.19464e-05 0.000111424 3.03236e-05 1.867e-05 1.17811e-05 6.83585e-06 4.2799e-05 4.83989e-06 0.000136966
          0.000208791 0.000247531 0.000167161 7.1804e-05 0.000103832 5.72286e-05 0.0605314 0.0605341 0.0605359 0.0605358 0.0605347 0.0605361
          0.060536 0.0605355 0.109198 0.115127 0.163225 0.163526 0.110282 0.163298 0.210833 0.214728 0.213584 0.108801
          0.159245 0.0931123 0.154422 0.208423 0.209794 0.250379 0.251424 0.0693417 0.060164 0.121374 0.105967 0.0388906
          0.0885687 0.153331 0.13787 0.167593 0.0367669 0.0742352 0.117338 0.0872369 0.187081 0.168434 0.147399 0.220556
          0.201264 0.242295 0.214835 0.201282 0.252958 0.272095 0.180761 0.256206 0.238217 0.15098 0.219274 0.30274
          0.288493 0.316663 0.141106 0.204273 0.268354 0.228942 0.374007 0.358427 0.323745 0.49912 0.463333 0.492897
          0.395172 0.388236 0.527408 0.515276 0.0047735 0.00723627 0.017946 0.0249984 0.00896574 0.0267996 0.0232423 0.0184086
          0.0567307 0.0487737 0.0156577 0.0430669 0.0706579 0.0784909 0.00967544 0.0044152 0.0277543 0.013144 0.00205006 0.00968564
          0.030686 0.115799 0.117937 0.177923 0.194569 0.157908 0.0912006 0.143291 0.187679 0.131978 0.222671 0.275299
          0.0311798 0.0818194 0.0250579 0.0700914 0.131692 0.381192 0.371102 0.301816 0.342475 0.27108 0.407462 0.511179
          0.117093 0.20027 0.0886283 0.181251 0.292487 0.308407 0.284312 0.113198 0.090953 0.208332 0.0685103 0.168459
          0.0549437 0.0141611 0.0109126 0.0605345 0.0605358 0.0714738 0.0706831 0.0964469 0.078643 0.0785891 0.106203 0.0863521