<?xml version="1.0"?>
<VTKFile type="UnstructuredGrid" version="0.1" byte_order="LittleEndian">
  <UnstructuredGrid>
    <Piece NumberOfCells="2712" NumberOfPoints="2716">
      <CellData Scalars="Sn">
        <DataArray type="Float32" Name="Sn" NumberOfComponents="1" format="ascii">
          0 0 0 0 0 0 0 0 0 0 0 0
          0 0 0 0 0 0 0 0 0 0 0 0
          0 0 0 0 0 0 0 0 0 0 0 0
          0 0 0 0 0 0 0 0 0 0 0 0
          0 0 0 0 0 0 0 0 0 0 0 0
          0 0 0 0 0 0 0 0 0 0 0 0
          0 0 0 0 0 0 0 0 0 0 0 0
          0 0 0 0 0 0 0 0 0 0 0 0
          0 0 0 0 0 0 0 0 0 0 0 0
          0 0 0 0 0 0 0 0 0 0 0 0
          0 0 0 0 0 0 0 0 0 0 0 0
          0 0 0 0 0 0 0 0 0 0 0 0
          0 0 0 0 0 0 0 0 0 0 0 0
          0 0 0 0 0 0 0 0 0 0 0 0
          0 0 0 0 0 0 0 0 0 0 0 0
          0 0 0 0 0 0 0 0 0 0 0 0
          0 0 0 0 0 0 0 0 0 0 0 0
          0 0 0 0 0 0 0 0 0 0 0 0
          0 0 0 0 0 0 0 0 0 0 0 0
          0 0 0 0 0 0 0 0 0 0 0 0
          0 0 0 0 0 0 0 0 0 0 0 0
          0 0 0 0 0 0 0 0 0 0 0 0
          0 0 0 0 0 0 0 0 0 0 0 0
          0 0 0 0 0 0 0 0 0 0 0 0
          0 0 0 0 0 0 0 0 0 0 0 0
          0 0 0 0 0 0 0 0 0 0 0 0
          0 0 0 0 0 0 0 0 0 0 0 0
          0 0 0 0 0 0 0 0 0 0 0 0
          0 0 0 0 0 0 0 0 0 0 0 0
          0 0 0 0 0 0 0 0 0 0 0 0
          0 0 0 0 0 0 0 0 0 0 0 0
          0 0 0 0 0 0 0 0 0 0 0 0
          0 0 0 0 0 0 0 0 0 0 0 0
          0 0 0 0 0 0 0 0 0 0 0 0
          0 0 0 0 0 0 0 0 0 0 0 0
          0 0 0 0 0 0 0 0 0 0 0 0
          0 0 0 0 0 0 0 0 0 0 0 0
          0 0 0 0 0 0 0 0 0 0 0 0
          0 0 0 0 0 0 0 0 0 0 0 0
          0 0 0 0 0 0 0 0 0 0 0 0
          0 0 0 0 0 0 0 0 0 0 0 0
          0 0 0 0 0 0 0 0 0 0 0 0
          0 0 0 0 0 0 0 0 0 0 0 0
          0 0 0 0 0 0 0 0 0 0 0 0
          0 0 0 0 0 0 0 0 0 0 0 0
          0 0 0 0 0 0 0 0 0 0 0 0
          0 0 0 0 0 0 0 0 0 0 0 0
          0 0 0 0 0 0 0 0 0 0 0 0
          0 0 0 0 0 0 0 0 0 0 0 0
          0 0 0 0 0 0 0 0 0 0 0 0
          0 0 0 0 0 0 0 0 0 0 0 0
          0 0 0 0 0 0 0 0 0 0 0 0
          0 0 0 0 0 0 0 0 0 0 0 0
          0 0 0 0 0 0 0 0 0 0 0 0
          0 0 0 0 0 0 0 0 0 0 0 0
          0 0 0 0 0 0 0 0 0 0 0 0
          0 0 0 0 0 0 0 0 0 0 0 0
          0 0 0 0 0 0 0 0 0 0 0 0
          0 0 0 0 0 0 0 0 0 0 0 0
          0 0 0 0 0 0 0 0 0 0 0 0
          0 0 0 0 0 0 0 0 0 0 0 0
          0 0 0 0 0 0 0 0 0 0 0 0
          0 0 0 0 0 0 0 0 0 0 0 0
          0 0 0 0 0 0 0 0 0 0 0 0
          0 0 0 0 0 0 0 0 0 0 0 0
          0 0 0 0 0 0 0 0 0 0 0 0
          0 0 0 0 0 0 0 0 0 0 0 0
          0 0 0 0 0 0 0 0 0 0 0 0
          0 0 0 0 0 0 0 0 0 0 0 0
          0 0 0 0 0 0 0 0 0 0 0 0
          0 0 0 0 0 0 0 0 0 0 0 0
          0 0 0 0 0 0 0 0 0 0 0 0
          0 0 0 0 0 0 0 0 0 0 0 0
          0 0 0 0 0 0 0 0 0 0 0 0
          0 0 0 0 0 0 0 0 0 0 0 0
          0 0 0 0 0 0 0 0 0 0 0 0
          0 0 0 0 0 0 0 0 0 0 0 0
          0 0 0 0 0 0 0 0 0 0 0 0
          0 0 0 0 0 0 0 0 0 0 0 0
          0 0 0 0 0 0 0 0 0 0 0 0
          0 0 0 0 0 0 0 0 0 0 0 0
          0 0 0 0 0 0 0 0 0 0 0 0
          0 0 0 0 0 0 0 0 0 0 0 0
          0 0 0 0 0 0 0 0 0 0 0 0
          0 0 0 0 0 0 0 0 0 0 0 0
          0 0 0 0 0 0 0 0 0 0 0 0
          0 0 0 0 0 1.21644e-27 0 0 0 0 0 0
          0 0 0 0 0 0 0 0 0 0 0 0
          0 0 0 0 0 0 0 0 0 0 0 0
          0 0 0 0 0 0 0 0 0 0 0 0
          0 0 0 0 0 0 0 0 0 0 0 0
          0 0 0 0 0 0 0 0 0 0 0 0
          0 0 0 0 0 0 0 0 0 0 0 0
          0 0 0 0 0 0 0 0 0 0 0 0
          0 0 0 0 0 0 0 0 0 0 0 0
          0 0 0 0 0 0 0 0 0 0 0 0
          0 0 0 0 0 0 0 0 0 0 0 0
          0 0 0 0 0 0 0 0 0 0 0 0
          0 0 0 0 0 0 0 0 0 0 0 0
          0 0 0 0 0 0 0 0 0 0 0 0
          0 0 0 0 0 0 0.0604715 0.0605311 0.0604715 0.0604715 0.0605311 0.0605311
          0 0 1.8241e-18 3.17576e-10 2.76289e-20 3.72589e-12 1.29423e-25 1.86457e-17 1.09448e-14 7.00926e-31 1.01816e-28 8.66921e-15
          0 8.74879e-37 0 0 0 0 0 0 0 0 0 1.0052e-37
          0 0 4.69823e-18 0 0 1.01967e-25 0 9.0015e-31 0 5.42189e-16 0 0
          0 0 0 5.75297e-09 1.36707e-28 5.72305e-30 0 3.73425e-27 0 0 0 0
          0 0 0 0 1.43514e-36 0 0 0 0 0 0 0
          7.00624e-38 0 -3.96949e-36 5.88661e-24 1.99666e-34 0 0 0 0 0 8.61633e-24 0
          0 5.34571e-38 0 0 0 0 0 0 0 0 0 0
          1.58682e-18 2.61191e-13 3.50178e-13 6.36242e-34 0 1.2211e-07 2.14628e-07 3.08675e-10 3.08667e-10 2.82799e-09 7.26567e-36 0
          0 0 0 0 9.40644e-13 0 0 0 1.55416e-21 1.2335e-07 2.31037e-07 1.44681e-13
          8.0123e-14 2.23413e-13 0 7.77908e-05 2.24799e-08 1.2453e-08 1.45012e-15 0 0 1.48589e-15 0 0.0469368
          0.053644 0.0411628 0.0586367 0.0597344 0.0578936 0.0596976 0.0602908 0.0604707 0.0602958 0.0502648 0.0576759 0.0595618
          0.055086 0.0602466 0.0604316 0.0602416 0.0604196 0.0604946 0.0604811 0.0605239 0.0605276 0.0605344 0.0605334 0.0604596
          0.0605098 0.0605298 0.060517 0.060434 0.0604932 0.0604948 0.0605288 0.0605273 0.0605342 0.0605347 0.0602469 0.0601586
          0.0604521 0.0556067 0.0520238 0.0588535 0.0596776 0.0550704 0.0571502 0.0601589 0.060512 0.0604033 0.06049 0.0605293
          0.0153682 0.023459 0.00493397 0.0317404 0.0173768 0.0408802 0.0047758 0.0187911 0.0194171 0.0187962 0.0166298 0.00472825
          0.0302826 0.0133665 0.00956524 0.0302093 0.0242884 0.0257898 0 0 1.15873e-05 0.00157722 4.80976e-06 0.0471769
          0.0560235 0.0545217 0.0493925 0.0594053 0.0583455 0.0708393 0.0705902 0.0825194 0.0822011 0.0674091 0.0688311 0.0806519
          0.0804309 0.0490564 0.0472894 0.0584804 0.0598668 0.0439871 0.0393818 0.0508798 0.0554206 0.0662401 0.0620539 0.072967
          0.0772507 0.0707395 0.0692552 0.080539 0.0823698 0.0346126 0.0380303 0.0436568 0.0291941 0.043292 0.0395375 0.0500907
          0.0568288 0.0525318 0.0620813 0.0679242 0.0125756 0.00582334 0.02625 0.000447946 3.06535e-08 0.0930459 0.0932188 0.106883
          0.106834 0.0948104 0.0956295 0.109844 0.108608 0.122831 0.124749 0.141332 0.138251 0.11934 0.120387 0.134683
          0.132763 0.0953705 0.0930624 0.106954 0.109664 0.0891775 0.0843251 0.096764 0.102432 0.116294 0.109964 0.123619
          0.131133 0.124862 0.121552 0.137706 0.142113 0.0787672 0.0723795 0.0831379 0.0902866 0.0637695 0.056354 0.0665028
          0.0749892 0.0859885 0.0769346 0.0876298 0.0975388 0.102786 0.0947239 0.106908 0.115534 0.0454703 0.0427393 0.0535489
          0.0272274 0.0434746 0.0316812 0.0489017 0.0665433 0.0577219 0.0666463 0.0773107 6.75214e-07 0.145982 0.150024 0.167587
          0.161275 0.155672 0.160884 0.185444 0.176382 0.202008 0.218402 0.265893 0.235045 0.17718 0.18779 0.212125
          0.196387 0.163178 0.15667 0.180367 0.191308 0.147793 0.138328 0.154741 0.167385 0.19147 0.173591 0.195563
          0.222185 0.233226 0.212056 0.257635 0.304694 0.128753 0.119107 0.131616 0.142853 0.109211 0.0987902 0.109827
          0.120732 0.132282 0.120534 0.130962 0.143879 0.158185 0.144632 0.158181 0.174923 0.0877346 0.0763762 0.0864421
          0.0984339 0.0626976 0.0502154 0.0626245 0.0740633 0.08382 0.071212 0.0772147 0.0924738 0.108815 0.0965495 0.10606
          0.118603 4.32441e-16 0.216438 0.240153 0.258275 0.232313 0.27734 0.338108 0.350223 0.296011 0.30611 0.352785
          0.351749 0.312274 0.244462 0.270434 0.279279 0.254131 0.449895 0.327149 0.337212 0.423055 0.261166 0.220456
          0.235193 0.276466 0.283629 0.243949 0.249396 0.287439 0.399239 0.338573 0.335886 0.380746 0.192672 0.171986
          0.183249 0.205619 0.155363 0.141033 0.150034 0.165322 0.173217 0.157264 0.162178 0.178958 0.214527 0.191742
          0.197884 0.220633 0.127808 0.114748 0.122457 0.136095 0.100845 0.0848888 0.0921443 0.108164 0.11293 0.0962978
          0.0929731 0.112079 0.14258 0.12809 0.129581 0.146121 0.0659287 0.0497561 0.058012 0.0746641 0.0283346 0.0292238
          0.0351039 0.0277078 0.0121862 0.0182065 0.0779905 0.0576958 0.0461536 0.0716863 0.0102499 8.94735e-05 0.00150174 3.89415e-08
          0.261625 0.285918 0.291116 0.268021 0.316099 0.348852 0.344869 0.318311 0.318966 0.339866 0.332626 0.317255
          0.272236 0.294724 0.296222 0.274427 0.366249 0.331616 0.32635 0.35444 0.288843 0.252768 0.254049 0.288169
          0.284789 0.251498 0.239687 0.275031 0.343818 0.319551 0.308593 0.331686 0.224507 0.201632 0.201717 0.225719
          0.181816 0.163106 0.155418 0.179195 0.164061 0.128445 0.0702397 0.123239 0.221827 0.193891 0.167704 0.204904
          0.143577 0.121381 0.0931372 0.127618 0.0983545 0.0739043 0.0362744 0.0646917 0.0326423 0.0095977 0.00506085 0.085844
          0.0602619 0.0218548 1.34337e-33 0.269289 0.292029 0.27136 0.249922 0.309232 0.318053 0.279308 0.281118 0.175006
          0.155413 0.0627597 0.167363 0.184608 0.0809106 0.310765 0.284632 0.223785 0.260442 0.247344 0.204034 0.122059
          0.176544 0.0441097 0.016301 0.0035817 0.121844 0.0781658 0.0198617 0.158318 0.109791 0.0296117 0.0720228 0.062107
          0.0333047 0.00589997 1.5683e-05 0.00644017 0.00254479 9.03303e-05 0.00703902 0.000457139 0 1.51675e-22 0.000238692 0
          0 0 0 0 0 0 0 0 0 0 0 0
          0.0480169 0.0584315 0.0760774 0.0907272 0.086505 0.0753316 0.0848647 0.09722 0.0995335 0.102182 0.115324 0.111248
          0.125669 0.138025 0.13364 0.120014 0.0075916 0.00301814 0.0156547 0.123914 0.140229 0.148541 0.161751 0.156519
          0.173385 0.188209 0.181454 0.161102 0.0356375 0.0414234 0.0486485 0.0182035 0.009574 0.0523675 0.0348196 0.0538843
          0.000170742 4.36151e-09 0.00012792 0.182375 0.200478 0.214184 0.206295 0.223053 0.233375 0.225445 0.199783 0.211724
          0.238712 0.245716 0.238094 0.245795 0.244674 0.239062 0.213684 0.0460275 0.0258618 0.00831403 0.00732682 5.74626e-06
          0.00116229 0.000281792 1.49843e-18 1.14804e-10 0.183041 0.224058 0.190741 0.194095 0.114284 0.0836949 8.78136e-07 3.51754e-12
          0 0.0705286 0.0931252 0.115179 0.0989084 0.141811 0.153558 0.149896 0.111218 0.126033 0.133605 0.120661
          0.132118 0.147498 0.153946 0.139712 0.163203 0.174764 0.169236 0.180272 0.191333 0.183372 0.147935 0.16501
          0.1685 0.151976 0.00970325 0.0059531 0.0183123 0.0217882 0.0282906 0.0252367 0.0321306 0.0338098 0.00508689 0.00781577
          0.0173144 0.0361967 0.0727377 0.0917907 0.105279 0.0948224 0.0500294 0.0526274 0.110758 0.119217 0.106817 0.119448
          0.126809 0.109139 0.0446538 0.147924 0.166753 0.155517 0.1903 0.18722 0.150601 0.00404262 0.000287268 1.59765e-25
          1.35376e-07 1.31748e-16 0.0155072 0.0241333 0.0139432 0.0329721 0.039331 0.0333419 0.0415462 0.0459074 0.0494223 0.0460749
          0.0241209 0.03259 0.037367 0.0306502 0.041714 0.045463 0.0428108 0.0445934 0.047506 0.0466847 0.0515101 0.0520746
          0.0543793 0.0539317 0.0488582 0.0505724 0.0532094 0.0519229 0.0455271 0.0481253 0.0478503 0.0458251 0.0483462 0.0482249
          0.0525679 0.0526763 0.0548393 0.0547273 0.0523167 0.0525261 0.0547284 0.0545418 0.0459582 0.0484402 0.0483693 0.046033
          0.0484926 0.0484421 0.0527019 0.0527689 0.0549043 0.0548194 0.0526593 0.0527381 0.0548835 0.0547916 0.0460514 0.0485036
          0.0484712 0.0460593 0.0484973 0.0484763 0.0527209 0.0527735 0.0549089 0.0548307 0.0527193 0.0527781 0.0549116 0.0548305
          0.0460095 0.0484518 0.0484483 0.0459706 0.0483857 0.0483979 0.052672 0.0527067 0.0548663 0.0547971 0.0527045 0.0527493
          0.0548941 0.0548194 0.0458543 0.0482201 0.0482942 0.0455167 0.0476217 0.0480196 0.0524103 0.0522122 0.0545357 0.0546145
          0.0526038 0.0526005 0.0547971 0.0547506 0.0427742 0.0451553 0.0466313 0.036729 0.0365332 0.0424414 0.0479965 0.0436233
          0.0470462 0.0507568 0.0515258 0.0505427 0.0532487 0.0539569 0.000102434 3.17782e-05 0.00092347 0.000423175 2.42904e-05 2.09947e-05
          2.10031e-05 0.00316844 0.00016959 0.00490183 8.67208e-07 0.00019666 3.50121e-07 0.0070501 0.017739 0.00489558 0.0180603 0.0216131
          0.0276529 1.8715e-09 1.04938e-05 0.000143506 0.00273275 0.00801132 0.0136588 0.00919776 0.00222748 0.0238419 0.0116323 0.0210514
          0.0317182 0.0316961 0.033978 0.00679191 0.0154291 0.0129503 0.0358423 0.0402958 0.0407814 0.0494612 0.0518811 0.0534253
          0.0542317 0.0416255 0.0541546 0.0551294 0.0566293 0.0556852 0.0560688 0.0574996 0.0580895 0.0572879 0.0561412 0.0563403
          0.057736 0.0562744 0.0564221 0.0577987 0.0583537 0.0583008 0.0563175 0.0564535 0.0578184 0.0563343 0.0564684 0.0578259
          0.0583752 0.0583693 0.05634 0.0564748 0.0578285 0.0563387 0.0564747 0.0578278 0.058378 0.0583776 0.0563304 0.0564674
          0.0578239 0.0563159 0.0564527 0.0578185 0.0583757 0.0583766 0.0562874 0.0564137 0.0578055 0.0561934 0.0562407 0.0577282
          0.0583141 0.0583721 0.0556391 0.055197 0.0571091 0.0524177 0.0491017 0.052947 0.05377 0.0577512 0.0446304 0.0563297
          0.0587188 0.0592614 0.0593889 0.059413 0.0594189 0.059421 0.059422 0.0594227 0.0594233 0.0594259 0.0594313 0.0593985
          0.0589737 0.0550606 1.88573e-08 1.17495e-09 2.71696e-05 4.29304e-09 1.39608e-09 1.39608e-09 3.06325e-08 1.39748e-09 4.76876e-08 1.27702e-16
          2.36946e-16 1.92512e-06 0.000231642 0.000262727 0 0 4.34141e-08 1.87858e-05 1.93634e-05 1.87595e-05 0.000323424 0.00139625
          6.94761e-05 1.87731e-05 1.87761e-05 1.86609e-05 1.86599e-05 6.53483e-36 4.62521e-17 4.22469e-17 4.19065e-37 7.89109e-18 4.14892e-10 4.14892e-10
          4.28184e-10 1.17408e-08 4.1496e-10 4.14892e-10 0 0 0.000937098 0.00133359 0.00013927 4.34324e-05 0.00288233 0.00453887
          0.00170704 0.00156172 3.83018e-05 1.57669e-05 6.54202e-06 6.54392e-06 1.10317e-08 1.88977e-07 1.00414e-09 0.0334852 0.0915896 0.123724
          0.113409 0.0176571 0.0720533 0.0320826 0.0182937 0.00927885 0.00647431 0.00603825 0.0042075 0.105882 0.151005 0.0557457
          0.0302616 0.000533835 5.55781e-05 2.75577e-05 0.00155198 1.36199e-06 1.36213e-06 1.36212e-06 1.36187e-06 0.00294435 4.91449e-05 0
          7.68183e-19 7.68183e-19 7.68183e-19 7.68183e-19 7.68183e-19 7.68183e-19 0 0 0 0 0 0.0604766
          0.060472 0.0605313 0.0605296 0.0605331 0.0605342 0.0604715 0.0605311 0.0604715 0.0604721 0.0605312 0.0605311 0.0604777
          0.0605299 0.0605343 0.0605327 1.005e-08 3.09447e-29 4.10382e-23 -7.84566e-35 3.43617e-25 0 8.96802e-28 4.84723e-14 1.0178e-13
          9.90405e-14 5.63247e-08 5.63435e-08 5.63363e-08 5.63306e-08 5.63489e-08 5.63568e-08 1.98432e-06 1.98007e-06 3.16762e-05 3.67725e-05 1.68853e-06
          1.69354e-06 3.65977e-05 3.05155e-05 1.4025e-05 1.40275e-05 2.9175e-05 2.74238e-05 8.27065e-06 1.05721e-05 1.60038e-05 1.49708e-05 0.000829969
          0.000823121 0.00331199 0.00326165 0.00114477 0.00120202 0.0034999 0.00298721 7.17547e-05 0.000113091 0.000238431 8.09797e-05 0.00173174
          0.0035109 0.00519443 0.00259811 0.00760978 0.0113905 0.0199382 0.0111974 0.00100768 0.00210913 0.00406969 0.00169434 0
          0 0 0 0 0 0 0 0 0 0 1.95436e-32 5.91318e-21
          2.00689e-24 0 2.70255e-07 2.70178e-07 4.52645e-07 4.50156e-07 3.63129e-07 3.63133e-07 6.46877e-07 6.29122e-07 8.7935e-05 8.87958e-05
          0.000479244 0.00045724 7.20534e-05 7.32963e-05 0.000422864 0.000384361 1.34848e-06 1.34849e-06 2.52529e-06 2.50023e-06 1.90002e-06 1.90009e-06
          3.70238e-06 3.62896e-06 0.000223451 0.000225286 0.000940977 0.00091646 0.000181822 0.000184201 0.000883495 0.000846139 1.97641e-06 1.97638e-06
          3.8349e-06 3.83073e-06 2.73933e-06 2.73947e-06 5.45779e-06 5.37287e-06 0.000274615 0.000276424 0.00108948 0.00106776 0.000228004 0.000229829
          0.00104292 0.00101565 2.13101e-06 2.13094e-06 4.1716e-06 4.18842e-06 2.91385e-06 2.91399e-06 5.81841e-06 5.74836e-06 0.000285116 0.000286492
          0.00111392 0.00109669 0.000239481 0.000240621 0.00107911 0.00105921 1.83309e-06 1.83302e-06 3.56142e-06 3.5956e-06 2.49703e-06 2.49712e-06
          4.92343e-06 4.89222e-06 0.000263947 0.000264569 0.00104291 0.00103188 0.000221992 0.000222336 0.00102211 0.00101001 1.14908e-06 1.14904e-06
          2.19587e-06 2.24052e-06 1.61579e-06 1.61582e-06 3.16717e-06 3.14806e-06 0.000215515 0.000213275 0.000847202 0.000871728 0.000176419 0.000175781
          0.000874958 0.000873378 0.00166595 0.00224938 0.00345991 0.000209768 0.000183847 0.000189927 0.000247511 0.000888952 0.000495324 0.000867442
          0.00137596 0.00491743 0.00553223 0.00790509 2.8373e-18 2.37897e-18 4.13203e-17 6.10304e-15 5.62657e-15 1.70492e-26 1.30327e-18 1.34087e-18
          3.73911e-13 3.08655e-15 4.14496e-11 3.08594e-15 3.47905e-10 3.47905e-10 3.47905e-10 9.58614e-10 6.21041e-10 3.47905e-10 8.68189e-10 3.47905e-10
          2.62349e-08 2.60479e-08 2.60479e-08 1.75458e-05 4.14876e-08 4.86449e-06 3.01674e-10 3.02195e-10 2.11604e-07 3.03029e-10 3.8731e-10 1.11257e-06
          1.2211e-07 1.93054e-07 2.464e-06 2.4648e-06 2.47495e-06 2.46401e-06 1.33993e-05 0.000290534 2.75606e-05 2.46401e-06 2.49194e-06 2.46396e-06
          0.000722156 0.000725358 0.000726893 0.00082731 0.00369804 0.00082377 0.00140617 0.00382472 0.00175051 0.00175411 0.00233589 0.00174109
          0.00172832 0.00202491 0.00372481 0.00498157 0.000197207 0.000174189 0.000545102 0.00115845 0.000117021 0.0001157 0.000493529 0.0123757
          0.013205 0.0151446 0.0136851 0.0135348 0.0171733 0.024231 0.0190383 0.024137 0.0335341 0.0130409 0.0158474 0.0261624
          0.0211879 0.0230635 0.0222025 0.0180911 0.0323384 0.00896374 0.0137235 0.0115516 0.0204551 0.0364931 0.0231103 0.0271509
          0.0125086 0.0526157 0.0592045 0.0497028 0.0667608 0.0169176 0.0305969 1.6642e-23 6.05505e-21 2.44485e-20 3.20803e-20 1.85501e-20
          3.82083e-21 1.14113e-16 1.16757e-10 9.52633e-11 3.94126e-12 3.94126e-12 7.20572e-12 7.63014e-12 3.94126e-12 6.01247e-12 5.57797e-12 8.83553e-11
          8.83553e-11 1.67735e-10 1.82577e-10 8.83553e-11 1.37869e-10 1.27928e-10 1.80726e-10 1.80726e-10 3.4157e-10 3.74298e-10 1.80726e-10 2.86157e-10
          2.65244e-10 2.04859e-10 2.04859e-10 3.85267e-10 4.2305e-10 2.04859e-10 3.27016e-10 3.03149e-10 1.50972e-10 1.50972e-10 2.82845e-10 3.10873e-10
          1.50972e-10 2.41435e-10 2.24446e-10 6.34347e-11 6.34347e-11 1.16852e-10 1.28524e-10 6.34347e-11 9.86497e-11 9.29285e-11 8.04181e-11 1.33698e-07
          1.50276e-07 6.16228e-13 1.11041e-12 1.45121e-21 1.00058e-12 2.48547e-06 2.48522e-06 2.48522e-06 2.48522e-06 2.48736e-06 1.07928e-05 2.49237e-06
          4.41236e-06 0.000101671 0.000101685 0.000101687 0.000102297 0.000213232 0.000105643 0.000114408 0.000497573 1.42044e-07 4.34396e-07 0.000344267
          0.00041599 0.00149991 0.00329974 0.00337079 0.00550196 0.00341583 0.0034864 0.00582244 0.00968522 0.00898409 0.00457986 0.00469449
          0.0074594 0.00466608 0.0047459 0.00757308 0.011743 0.0115782 0.00497153 0.00506411 0.00799655 0.00500404 0.00508103 0.00803324
          0.0122296 0.0121808 0.00506739 0.00514614 0.00811914 0.00507016 0.00514031 0.00811193 0.0123113 0.0123162 0.00496437 0.00502947
          0.00796 0.00494123 0.00500466 0.00791477 0.0121086 0.0121588 0.00467912 0.00473689 0.00752259 0.00463304 0.00469182 0.00744421
          0.0114402 0.011666 0.00292718 0.00257949 0.00689 0.000106736 0.000478797 2.70471e-08 8.92646e-07 8.49475e-16 6.26735e-15 0.0252554
          0.0262026 0.0284078 0.0286022 0.0290344 0.0290869 0.0291712 0.0291778 0.0290453 0.029036 0.0286079 0.0286723 0.00431314
          0.00528537 0.00929585 0.000110166 2.53766e-05 2.53484e-05 2.59529e-05 2.69055e-05 0.000243934 1.53991e-09 7.19179e-12 1.65513e-11 7.08214e-07
          5.73605e-07 8.0936e-07 5.73574e-07 6.00338e-07 1.3761e-06 5.77164e-07 6.75183e-06 7.14795e-13 1.41385e-12 0.0321404 0.0304937 0.0287444
          0.0316396 0.0084571 0.00436444 0.00381993 0.00395636 0.00386633 0.00570512 0.00016416 3.64888e-05 7.67901e-05 0.00298203 0.00200644
        </DataArray>
        <DataArray type="Float32" Name="Sw" NumberOfComponents="1" format="ascii">
          1 1 1 1 1 1 1 1 1 1 1 1
          1 1 1 1 1 1 1 1 1 1 1 1
          1 1 1 1 1 1 1 1 1 1 1 1
          1 1 1 1 1 1 1 1 1 1 1 1
          1 1 1 1 1 1 1 1 1 1 1 1
          1 1 1 1 1 1 1 1 1 1 1 1
          1 1 1 1 1 1 1 1 1 1 1 1
          1 1 1 1 1 1 1 1 1 1 1 1
          1 1 1 1 1 1 1 1 1 1 1 1
          1 1 1 1 1 1 1 1 1 1 1 1
          1 1 1 1 1 1 1 1 1 1 1 1
          1 1 1 1 1 1 1 1 1 1 1 1
          1 1 1 1 1 1 1 1 1 1 1 1
          1 1 1 1 1 1 1 1 1 1 1 1
          1 1 1 1 1 1 1 1 1 1 1 1
          1 1 1 1 1 1 1 1 1 1 1 1
          1 1 1 1 1 1 1 1 1 1 1 1
          1 1 1 1 1 1 1 1 1 1 1 1
          1 1 1 1 1 1 1 1 1 1 1 1
          1 1 1 1 1 1 1 1 1 1 1 1
          1 1 1 1 1 1 1 1 1 1 1 1
          1 1 1 1 1 1 1 1 1 1 1 1
          1 1 1 1 1 1 1 1 1 1 1 1
          1 1 1 1 1 1 1 1 1 1 1 1
          1 1 1 1 1 1 1 1 1 1 1 1
          1 1 1 1 1 1 1 1 1 1 1 1
          1 1 1 1 1 1 1 1 1 1 1 1
          1 1 1 1 1 1 1 1 1 1 1 1
          1 1 1 1 1 1 1 1 1 1 1 1
          1 1 1 1 1 1 1 1 1 1 1 1
          1 1 1 1 1 1 1 1 1 1 1 1
          1 1 1 1 1 1 1 1 1 1 1 1
          1 1 1 1 1 1 1 1 1 1 1 1
          1 1 1 1 1 1 1 1 1 1 1 1
          1 1 1 1 1 1 1 1 1 1 1 1
          1 1 1 1 1 1 1 1 1 1 1 1
          1 1 1 1 1 1 1 1 1 1 1 1
          1 1 1 1 1 1 1 1 1 1 1 1
          1 1 1 1 1 1 1 1 1 1 1 1
          1 1 1 1 1 1 1 1 1 1 1 1
          1 1 1 1 1 1 1 1 1 1 1 1
          1 1 1 1 1 1 1 1 1 1 1 1
          1 1 1 1 1 1 1 1 1 1 1 1
          1 1 1 1 1 1 1 1 1 1 1 1
          1 1 1 1 1 1 1 1 1 1 1 1
          1 1 1 1 1 1 1 1 1 1 1 1
          1 1 1 1 1 1 1 1 1 1 1 1
          1 1 1 1 1 1 1 1 1 1 1 1
          1 1 1 1 1 1 1 1 1 1 1 1
          1 1 1 1 1 1 1 1 1 1 1 1
          1 1 1 1 1 1 1 1 1 1 1 1
          1 1 1 1 1 1 1 1 1 1 1 1
          1 1 1 1 1 1 1 1 1 1 1 1
          1 1 1 1 1 1 1 1 1 1 1 1
          1 1 1 1 1 1 1 1 1 1 1 1
          1 1 1 1 1 1 1 1 1 1 1 1
          1 1 1 1 1 1 1 1 1 1 1 1
          1 1 1 1 1 1 1 1 1 1 1 1
          1 1 1 1 1 1 1 1 1 1 1 1
          1 1 1 1 1 1 1 1 1 1 1 1
          1 1 1 1 1 1 1 1 1 1 1 1
          1 1 1 1 1 1 1 1 1 1 1 1
          1 1 1 1 1 1 1 1 1 1 1 1
          1 1 1 1 1 1 1 1 1 1 1 1
          1 1 1 1 1 1 1 1 1 1 1 1
          1 1 1 1 1 1 1 1 1 1 1 1
          1 1 1 1 1 1 1 1 1 1 1 1
          1 1 1 1 1 1 1 1 1 1 1 1
          1 1 1 1 1 1 1 1 1 1 1 1
          1 1 1 1 1 1 1 1 1 1 1 1
          1 1 1 1 1 1 1 1 1 1 1 1
          1 1 1 1 1 1 1 1 1 1 1 1
          1 1 1 1 1 1 1 1 1 1 1 1
          1 1 1 1 1 1 1 1 1 1 1 1
          1 1 1 1 1 1 1 1 1 1 1 1
          1 1 1 1 1 1 1 1 1 1 1 1
          1 1 1 1 1 1 1 1 1 1 1 1
          1 1 1 1 1 1 1 1 1 1 1 1
          1 1 1 1 1 1 1 1 1 1 1 1
          1 1 1 1 1 1 1 1 1 1 1 1
          1 1 1 1 1 1 1 1 1 1 1 1
          1 1 1 1 1 1 1 1 1 1 1 1
          1 1 1 1 1 1 1 1 1 1 1 1
          1 1 1 1 1 1 1 1 1 1 1 1
          1 1 1 1 1 1 1 1 1 1 1 1
          1 1 1 1 1 1 1 1 1 1 1 1
          1 1 1 1 1 1 1 1 1 1 1 1
          1 1 1 1 1 1 1 1 1 1 1 1
          1 1 1 1 1 1 1 1 1 1 1 1
          1 1 1 1 1 1 1 1 1 1 1 1
          1 1 1 1 1 1 1 1 1 1 1 1
          1 1 1 1 1 1 1 1 1 1 1 1
          1 1 1 1 1 1 1 1 1 1 1 1
          1 1 1 1 1 1 1 1 1 1 1 1
          1 1 1 1 1 1 1 1 1 1 1 1
          1 1 1 1 1 1 1 1 1 1 1 1
          1 1 1 1 1 1 1 1 1 1 1 1
          1 1 1 1 1 1 1 1 1 1 1 1
          1 1 1 1 1 1 1 1 1 1 1 1
          1 1 1 1 1 1 1 1 1 1 1 1
          1 1 1 1 1 1 0.939529 0.939469 0.939529 0.939529 0.939469 0.939469
          1 1 1 1 1 1 1 1 1 1 1 1
          1 1 1 1 1 1 1 1 1 1 1 1
          1 1 1 1 1 1 1 1 1 1 1 1
          1 1 1 1 1 1 1 1 1 1 1 1
          1 1 1 1 1 1 1 1 1 1 1 1
          1 1 1 1 1 1 1 1 1 1 1 1
          1 1 1 1 1 1 1 1 1 1 1 1
          1 1 1 1 1 1 1 1 1 1 1 1
          1 1 1 1 1 1 1 1 1 1 1 1
          1 1 1 0.999922 1 1 1 1 1 1 1 0.953063
          0.946356 0.958837 0.941363 0.940266 0.942106 0.940302 0.939709 0.939529 0.939704 0.949735 0.942324 0.940438
          0.944914 0.939753 0.939568 0.939758 0.93958 0.939505 0.939519 0.939476 0.939472 0.939466 0.939467 0.93954
          0.93949 0.93947 0.939483 0.939566 0.939507 0.939505 0.939471 0.939473 0.939466 0.939465 0.939753 0.939841
          0.939548 0.944393 0.947976 0.941146 0.940322 0.94493 0.94285 0.939841 0.939488 0.939597 0.93951 0.939471
          0.984632 0.976541 0.995066 0.96826 0.982623 0.95912 0.995224 0.981209 0.980583 0.981204 0.98337 0.995272
          0.969717 0.986633 0.990435 0.969791 0.975712 0.97421 1 1 0.999988 0.998423 0.999995 0.952823
          0.943977 0.945478 0.950608 0.940595 0.941654 0.929161 0.92941 0.917481 0.917799 0.932591 0.931169 0.919348
          0.919569 0.950944 0.952711 0.94152 0.940133 0.956013 0.960618 0.94912 0.944579 0.93376 0.937946 0.927033
          0.922749 0.929261 0.930745 0.919461 0.91763 0.965387 0.96197 0.956343 0.970806 0.956708 0.960463 0.949909
          0.943171 0.947468 0.937919 0.932076 0.987424 0.994177 0.97375 0.999552 1 0.906954 0.906781 0.893117
          0.893166 0.90519 0.90437 0.890156 0.891392 0.877169 0.875251 0.858668 0.861749 0.88066 0.879613 0.865317
          0.867236 0.90463 0.906938 0.893046 0.890336 0.910823 0.915675 0.903236 0.897568 0.883705 0.890036 0.876381
          0.868867 0.875138 0.878448 0.862294 0.857887 0.921233 0.92762 0.916862 0.909713 0.936231 0.943646 0.933497
          0.925011 0.914011 0.923065 0.91237 0.902461 0.897214 0.905276 0.893092 0.884466 0.95453 0.957261 0.946451
          0.972773 0.956525 0.968319 0.951098 0.933457 0.942278 0.933354 0.922689 0.999999 0.854018 0.849976 0.832413
          0.838725 0.844328 0.839116 0.814556 0.823618 0.797992 0.781598 0.734107 0.764955 0.82282 0.81221 0.787875
          0.803613 0.836822 0.84333 0.819633 0.808692 0.852207 0.861672 0.845259 0.832615 0.80853 0.826409 0.804437
          0.777815 0.766774 0.787944 0.742365 0.695306 0.871247 0.880893 0.868384 0.857147 0.890789 0.90121 0.890173
          0.879268 0.867718 0.879466 0.869038 0.856121 0.841815 0.855368 0.841819 0.825077 0.912265 0.923624 0.913558
          0.901566 0.937302 0.949785 0.937376 0.925937 0.91618 0.928788 0.922785 0.907526 0.891185 0.903451 0.89394
          0.881397 1 0.783562 0.759847 0.741725 0.767687 0.72266 0.661892 0.649777 0.703989 0.69389 0.647215
          0.648251 0.687726 0.755538 0.729566 0.720721 0.745869 0.550105 0.672851 0.662788 0.576945 0.738834 0.779544
          0.764807 0.723534 0.716371 0.756051 0.750604 0.712561 0.600761 0.661427 0.664114 0.619254 0.807328 0.828014
          0.816751 0.794381 0.844637 0.858967 0.849966 0.834678 0.826783 0.842736 0.837821 0.821042 0.785473 0.808258
          0.802116 0.779367 0.872192 0.885252 0.877543 0.863905 0.899155 0.915111 0.907856 0.891836 0.88707 0.903702
          0.907027 0.887921 0.85742 0.87191 0.870419 0.853879 0.934071 0.950244 0.941988 0.925336 0.971665 0.970776
          0.964896 0.972292 0.987814 0.981794 0.922009 0.942304 0.953846 0.928314 0.98975 0.999911 0.998498 1
          0.738375 0.714082 0.708884 0.731979 0.683901 0.651148 0.655131 0.681689 0.681034 0.660134 0.667374 0.682745
          0.727764 0.705276 0.703778 0.725573 0.633751 0.668384 0.67365 0.64556 0.711157 0.747232 0.745951 0.711831
          0.715211 0.748502 0.760313 0.72497 0.656183 0.680449 0.691407 0.668314 0.775493 0.798368 0.798283 0.774281
          0.818184 0.836894 0.844582 0.820805 0.835939 0.871555 0.92976 0.876761 0.778173 0.806109 0.832296 0.795096
          0.856423 0.878619 0.906863 0.872382 0.901645 0.926096 0.963726 0.935308 0.967358 0.990402 0.994939 0.914156
          0.939738 0.978145 1 0.730711 0.707971 0.72864 0.750078 0.690768 0.681947 0.720692 0.718882 0.824994
          0.844587 0.93724 0.832637 0.815392 0.919089 0.689235 0.715368 0.776215 0.739558 0.752656 0.795966 0.877941
          0.823456 0.95589 0.983699 0.996418 0.878156 0.921834 0.980138 0.841682 0.890209 0.970388 0.927977 0.937893
          0.966695 0.9941 0.999984 0.99356 0.997455 0.99991 0.992961 0.999543 1 1 0.999761 1
          1 1 1 1 1 1 1 1 1 1 1 1
          0.951983 0.941568 0.923923 0.909273 0.913495 0.924668 0.915135 0.90278 0.900466 0.897818 0.884676 0.888752
          0.874331 0.861975 0.86636 0.879986 0.992408 0.996982 0.984345 0.876086 0.859771 0.851459 0.838249 0.843481
          0.826615 0.811791 0.818546 0.838898 0.964363 0.958577 0.951352 0.981796 0.990426 0.947632 0.96518 0.946116
          0.999829 1 0.999872 0.817625 0.799522 0.785816 0.793705 0.776947 0.766625 0.774555 0.800217 0.788276
          0.761288 0.754284 0.761906 0.754205 0.755326 0.760938 0.786316 0.953973 0.974138 0.991686 0.992673 0.999994
          0.998838 0.999718 1 1 0.816959 0.775942 0.809259 0.805905 0.885716 0.916305 0.999999 1
          1 0.929471 0.906875 0.884821 0.901092 0.858189 0.846442 0.850104 0.888782 0.873967 0.866395 0.879339
          0.867882 0.852502 0.846054 0.860288 0.836797 0.825236 0.830764 0.819727 0.808667 0.816628 0.852065 0.83499
          0.8315 0.848024 0.990297 0.994047 0.981688 0.978212 0.971709 0.974763 0.967869 0.96619 0.994913 0.992184
          0.982686 0.963803 0.927262 0.908209 0.894721 0.905178 0.949971 0.947373 0.889242 0.880783 0.893183 0.880552
          0.873191 0.890861 0.955346 0.852076 0.833247 0.844483 0.8097 0.81278 0.8494 0.995957 0.999713 1
          1 1 0.984493 0.975867 0.986057 0.967028 0.960669 0.966658 0.958454 0.954093 0.950578 0.953925
          0.975879 0.96741 0.962633 0.96935 0.958286 0.954537 0.957189 0.955407 0.952494 0.953315 0.94849 0.947925
          0.945621 0.946068 0.951142 0.949428 0.946791 0.948077 0.954473 0.951875 0.95215 0.954175 0.951654 0.951775
          0.947432 0.947324 0.945161 0.945273 0.947683 0.947474 0.945272 0.945458 0.954042 0.95156 0.951631 0.953967
          0.951507 0.951558 0.947298 0.947231 0.945096 0.945181 0.947341 0.947262 0.945117 0.945208 0.953949 0.951496
          0.951529 0.953941 0.951503 0.951524 0.947279 0.947226 0.945091 0.945169 0.947281 0.947222 0.945088 0.94517
          0.95399 0.951548 0.951552 0.954029 0.951614 0.951602 0.947328 0.947293 0.945134 0.945203 0.947295 0.947251