<?xml version="1.0"?>
<VTKFile type="UnstructuredGrid" version="0.1" byte_order="LittleEndian">
  <UnstructuredGrid>
    <Piece NumberOfCells="1536" NumberOfPoints="1617">
      <PointData Scalars="S_liqTrichloroethene">
        <DataArray type="Float32" Name="S_liqTrichloroethene" NumberOfComponents="1" format="ascii">
          0 0 0 0 0 0 0 0 0 0 0 0
          0 0 0 0 0 0 0 0 0 0 0 0
          0 0 0 0 0 0 0 0 0 0 0 0
          0 0 0 0 0 0 0 0 0 0 0 0
          0 0 0 0 0 0 0 0 0 0 0 0
          0 0 0 0 0 0 0 0 0 0 0 0
          0 0 0 0 0 0 0 0 0 0 0 0
          0 0 0 0 0 0 0 0 0 0 0 0
          0 0 0 0 0 0 0 0 0 0 0 0
          0 0 0 0 0 0 0 0 0 0 0 0
          0 0 0 0 0 0 0 0 0 0 0 0
          0 0 0 0 0 0 0 0 0 0 0 0
          0 0 0 0 0 0 0 0 0 0 0 0
          0 0 0 0 0 0 0 0 0 0 0 0
          0 0 0 0 0 0 0 0 0 0 0 0
          0 0 0 0 0 0 0 0 0 0 0 0
          0 0 0 0 0 0 0 0 0 0 0 0
          0 0 0 0 0 0 0 0 0 0 0 0
          0 0 0 0 0 0 0 0 0 0 0 0
          0 0 0 0 0 0 0 0 0 0 0 0
          0 0 0 0 0 0 0 0 0 0 0 0
          0 0 0 0 0 0 0 0 0 0 0 0
          0 0 0 0 0 0 0 0 0 0 0 0
          0 0 0 0 0 0 0 0 0 0 0 0
          0 0 0 0 0 0 0 0 0 0 0 0
          0 0 0 0 0 0 0 0 0 0 0 0
          0 0 0 0 0 0 0 0 0 0 0 0
          0 0 0 0 0 0 0 0 0 0 0 0
          0 0 0 0 0 0 0 0 0 0 0 0
          0 0 0 0 0 0 0 0 0 0 0 0
          0 0 0 0 0 0 0 0 0 0 0 0
          0 0 0 0 0 0 0 0 0 0 0 0
          0 0 0 0 0 0 0 0 0 0 0 0
          0 0 0 0 0 0 0 0 0 0 0 0
          0 0 0 0 0 0 0 0 0 0 0 0
          0 0 0 0 0 0 0 0 0 0 0 0
          0 0 0 0 0 0 0 0 0 0 0 0
          0 0 0 0 0 0 0 0 0 0 0 0
          0 0 0 0 0 0 0 0 0 0 0 0
          0 0 0 0 0 0 0 0 0 0 0 0
          0 0 0 0 0 0 0 0 0 0 0 0
          0 0 0 0 0 0 0 0 0 0 0 0
          0 0 0 0 0 0 0 0 0 0 0 0
          0 0 0 0 0 0 0 0 0 0 0 0
          0 0 0 0 0 0 0 0 0 0 0 0
          0 0 0 0 0 0 0 0 0 0 0 0
          0 0 0 0 0 0 0 0 0 0 0 0
          0 0 0 0 0 0 0 0 0 0 0 0
          0 0 0 0 0 0 0 0 0 0 0 0
          0 0 0 0 0 0 0 0 0 0 0 0
          0 0 0 0 0 0 0 0 0 0 0 0
          0 0 0 0 0 0 0 0 0 0 0 0
          0 0 0 0 0 0 0 0 0 0 0 0
          0 0 0 0 0 0 0 0 0 0 0 0
          0 0 0 0 0 0 0 0 0 0 0 0
          0 0 0 0 0 0 0 0 0 -5.52068e-33 -6.27545e-34 0
          0 0 0 0 0 0 0 0 0 0 0 0
          0 0 0 0 0 0 0 0 0 0 0 0
          0 0 0 0 0 0 0 0 0 0 0 0
          0 0 0 0 0 0 0 0 0 0 1.64856e-25 -7.19467e-27
          -1.01059e-33 0 0 0 0 0 0 0 0 0 0 0
          0 0 0 0 0 0 0 0 0 0 0 0
          0 0 0 0 0 0 0 0 0 0 0 0
          0 0 0 0 0 0 0 0 0 0 0 1.73767e-17
          1.78339e-19 -9.29155e-27 -5.29378e-34 0 0 0 0 0 0 0 0 0
          0 0 0 0 0 0 0 0 0 0 0 0
          0 0 0 0 0 0 0 0 0 0 0 0
          0 -2.64295e-37 -3.42497e-36 -4.88618e-36 -1.25241e-35 -7.58633e-36 -1.59939e-37 0 0 0 0 -7.39094e-34
          2.63273e-10 1.83017e-11 1.23084e-19 -3.33096e-27 -1.07115e-34 0 0 0 0 0 0 0
          0 0 0 0 0 0 0 0 0 0 0 0
          0 0 0 0 0 0 0 0 0 0 -1.45932e-37 -3.65495e-34
          1.22548e-32 1.2138e-30 3.66472e-29 1.573e-27 2.73895e-26 8.98266e-26 1.1871e-26 4.88572e-29 -7.80633e-33 -2.7543e-34 -3.97847e-35 -9.20259e-37
          5.04954e-24 2.80712e-06 4.00572e-07 7.47353e-12 1.7394e-20 -3.86815e-28 -8.55193e-36 0 0 0 0 0
          0 0 0 0 0 0 0 0 0 0 0 0
          0 0 0 0 0 0 0 0 0 0 -2.87436e-36 4.81512e-30
          8.43982e-23 5.06838e-19 1.01444e-16 4.21664e-15 7.29277e-14 4.96124e-13 8.63226e-13 2.79299e-13 1.80386e-14 2.44584e-16 3.67836e-19 8.48041e-23
          2.56778e-28 5.95046e-12 0.000290671 7.15647e-05 1.12405e-07 4.18392e-13 5.82785e-22 -1.27716e-29 -2.27e-37 0 0 0
          0 0 0 0 0 0 0 0 0 0 0 0
          0 0 0 0 0 0 0 0 0 0 -4.50764e-36 1.12868e-22
          8.19713e-15 3.05884e-11 1.94937e-09 2.41201e-08 1.4082e-07 5.41205e-07 1.33217e-06 1.70687e-06 9.74901e-07 2.55885e-07 3.15483e-08 1.33963e-09
          2.28294e-11 4.70517e-14 3.72302e-06 0.00294971 0.00100786 1.91114e-05 6.18212e-09 1.54442e-15 2.62923e-24 -3.21654e-32 0 0
          0 0 0 0 0 0 0 0 0 0 0 0
          0 0 0 0 0 0 0 0 0 0 -1.09285e-36 4.90035e-21
          4.04476e-11 2.39279e-07 1.17073e-05 7.76015e-05 0.000231223 0.000481442 0.000826054 0.00117641 0.00129469 0.00103423 0.000594317 0.000237525
          5.49516e-05 7.76317e-06 3.79139e-07 0.000111876 0.00966699 0.00377791 0.000296414 1.09254e-06 2.63289e-11 4.67665e-20 -5.0666e-28 -6.69619e-36
          0 0 0 0 0 0 0 0 0 0 0 0
          0 0 0 0 0 0 0 0 0 0 -3.54461e-38 4.02121e-21
          2.76983e-10 1.46022e-05 0.000627925 0.00274911 0.00551656 0.00862933 0.0121044 0.0157043 0.0187514 0.0198189 0.0179483 0.013901
          0.00916674 0.00498311 0.00232612 0.000667014 0.000586535 0.0195334 0.00750952 0.00116286 1.71325e-05 4.61381e-09 8.15381e-16 9.45421e-26
          -2.39785e-32 0 0 0 0 0 0 0 0 0 0 0
          0 0 0 0 0 0 0 0 0 0 0 8.80315e-23
          2.84179e-10 3.29374e-05 0.00304737 0.0138539 0.0291492 0.0450332 0.0595875 0.0718731 0.0820189 0.0895885 0.0926254 0.0893112
          0.0794061 0.0637975 0.0449569 0.0289996 0.0154826 0.00530186 0.0304992 0.0111722 0.00225169 7.35174e-05 7.22952e-08 1.47393e-13
          2.39022e-24 -1.82469e-30 0 0 0 0 0 0 0 0 0 0
          0 0 0 0 0 0 0 0 0 0 0 0
          5.18502e-11 2.95176e-05 0.00374913 0.0314061 0.0750471 0.113039 0.142335 0.166031 0.184731 0.199222 0.209406 0.213786
          0.210425 0.198246 0.176723 0.147548 0.118877 0.0857433 0.0468433 0.0415419 0.0137279 0.00296004 0.000141855 2.60054e-07
          1.65307e-12 2.20062e-22 -5.00521e-30 1.70483e-37 0 0 0 0 0 0 0 0
          0 0 0 0 0 0 0 0 0 0 0 0
          0 3.54374e-06 0.00287061 0.0269388 0.117229 0.206538 0.279172 0.337756 0.383809 0.418296 0.44224 0.455991
          0.458468 0.447315 0.420347 0.377683 0.321697 0.272031 0.217567 0.148579 0.0520195 0.0136604 0.00267825 0.000119655
          1.96332e-07 9.68012e-13 7.79088e-23 -3.96995e-31 8.70194e-38 0 0 0 0 0 0 0
          0 0 0 0 0 0 0 0 0 0 0 0
          0 0 0 9.19427e-05 0.00458926 0.0309596 0.0484843 0.05901 0.0653205 0.0692016 0.0716612 0.0730873
          0.0728051 0.0670183 0.0537866 0.0366728 0.0203536 0.00848909 0.00225376 0.000129139 3.29516e-07 3.13782e-12 6.33135e-22 -7.13433e-32
          2.86546e-38 0 0 0 0 0 0 0 0 0 0 0
          0 0 0 0 0 0 0 0 0 0 0 0
          0 0 0 0 0.000127071 0.00482322 0.0308121 0.0467232 0.0546697 0.0583582 0.0599463 0.0605816
          0.0607303 0.0598108 0.053691 0.0409985 0.0263483 0.0136301 0.00535548 0.00105373 2.66612e-05 1.48565e-08 7.58387e-15 7.56662e-27
          -1.57017e-32 0 0 0 0 0 0 0 0 0 0 0
          0 0 0 0 0 0 0 0 0 0 0 0
          0 0 0 0 0 0.000266491 0.00526684 0.0324148 0.0485739 0.0558028 0.0588011 0.059942
          0.0603374 0.0603801 0.0593933 0.0523076 0.0381332 0.0231814 0.0113356 0.00425572 0.000671262 1.02138e-05 2.33826e-09 2.2357e-16
          -2.83299e-28 -4.81389e-34 0 0 0 0 0 0 0 0 0 0
          0 0 0 0 0 0 0 0 0 0 0 0
          0 0 0 0 0 0 0.000467419 0.00565262 0.0340545 0.0505793 0.0570259 0.0593832
          0.060177 0.0604214 0.0604191 0.059418 0.0511315 0.0351307 0.0199467 0.00919855 0.00322208 0.00037808 3.16963e-06 2.49693e-10
          3.15564e-18 -5.06458e-29 -4.48355e-37 0 0 0 0 0 0 0 0 0
          0 0 0 0 0 0 0 0 0 0 0 0
          0 0 0 0 0 0 0 0.000674273 0.00593347 0.0356769 0.0526331 0.0581332
          0.0598481 0.0603469 0.0604811 0.0604579 0.0594968 0.0497415 0.0315527 0.01643 0.00715805 0.00221745 0.000170467 6.5208e-07
          1.21944e-11 9.98681e-21 -3.14286e-30 3.96891e-37 0 0 0 0 0 0 0 0
          0 0 0 0 0 0 0 0 0 0 0 0
          0 0 0 0 0 0 0 0 0.0008096 0.00611025 0.0372813 0.0547455
          0.059091 0.0601875 0.0604533 0.0605142 0.0604879 0.059641 0.0480698 0.0271509 0.0126314 0.00516132 0.00127691 5.1987e-05
          6.46713e-08 1.47589e-13 2.19521e-24 -4.3887e-32 0 0 0 0 0 0 0 0
          0 0 0 0 0 0 0 0 0 0 0 0
          0 0 0 0 0 0 0 0 0 0.000759435 0.00595536 0.0389366
          0.0569388 0.0598627 0.0604064 0.0605102 0.0605298 0.0605116 0.0598825 0.0460451 0.0214034 0.00854186 0.00311463 0.000487396
          6.91167e-06 1.33003e-09 8.81453e-17 -1.34165e-29 -1.62362e-35 0 0 0 0 0 0 0
          0 0 0 0 0 0 0 0 0 0 0 0
          0 0 0 0 0 0 0 0 0 0 0.000394942 0.00456149
          0.0408396 0.0592395 0.060397 0.0605174 0.0605331 0.0605353 0.0605286 0.0602648 0.0436135 0.0126019 0.00370024 0.000851787
          3.4929e-05 3.91854e-08 6.66701e-14 5.416e-25 -1.54724e-33 0 0 0 0 0 0 0
          0 0 0 0 0 0 0 0 0
        </DataArray>
        <DataArray type="Float32" Name="S_liqSimpleH2O" NumberOfComponents="1" format="ascii">
          1 1 1 1 1 1 1 1 1 1 1 1
          1 1 1 1 1 1 1 1 1 1 1 1
          1 1 1 1 1 1 1 1 1 1 1 1
          1 1 1 1 1 1 1 1 1 1 1 1
          1 1 1 1 1 1 1 1 1 1 1 1
          1 1 1 1 1 1 1 1 1 1 1 1
          1 1 1 1 1 1 1 1 1 1 1 1
          1 1 1 1 1 1 1 1 1 1 1 1
          1 1 1 1 1 1 1 1 1 1 1 1
          1 1 1 1 1 1 1 1 1 1 1 1
          1 1 1 1 1 1 1 1 1 1 1 1
          1 1 1 1 1 1 1 1 1 1 1 1
          1 1 1 1 1 1 1 1 1 1 1 1
          1 1 1 1 1 1 1 1 1 1 1 1
          1 1 1 1 1 1 1 1 1 1 1 1
          1 1 1 1 1 1 1 1 1 1 1 1
          1 1 1 1 1 1 1 1 1 1 1 1
          1 1 1 1 1 1 1 1 1 1 1 1
          1 1 1 1 1 1 1 1 1 1 1 1
          1 1 1 1 1 1 1 1 1 1 1 1
          1 1 1 1 1 1 1 1 1 1 1 1
          1 1 1 1 1 1 1 1 1 1 1 1
          1 1 1 1 1 1 1 1 1 1 1 1
          1 1 1 1 1 1 1 1 1 1 1 1
          1 1 1 1 1 1 1 1 1 1 1 1
          1 1 1 1 1 1 1 1 1 1 1 1
          1 1 1 1 1 1 1 1 1 1 1 1
          1 1 1 1 1 1 1 1 1 1 1 1
          1 1 1 1 1 1 1 1 1 1 1 1
          1 1 1 1 1 1 1 1 1 1 1 1
          1 1 1 1 1 1 1 1 1 1 1 1
          1 1 1 1 1 1 1 1 1 1 1 1
          1 1 1 1 1 1 1 1 1 1 1 1
          1 1 1 1 1 1 1 1 1 1 1 1
          1 1 1 1 1 1 1 1 1 1 1 1
          1 1 1 1 1 1 1 1 1 1 1 1
          1 1 1 1 1 1 1 1 1 1 1 1
          1 1 1 1 1 1 1 1 1 1 1 1
          1 1 1 1 1 1 1 1 1 1 1 1
          1 1 1 1 1 1 1 1 1 1 1 1
          1 1 1 1 1 1 1 1 1 1 1 1
          1 1 1 1 1 1 1 1 1 1 1 1
          1 1 1 1 1 1 1 1 1 1 1 1
          1 1 1 1 1 1 1 1 1 1 1 1
          1 1 1 1 1 1 1 1 1 1 1 1
          1 1 1 1 1 1 1 1 1 1 1 1
          1 1 1 1 1 1 1 1 1 1 1 1
          1 1 1 1 1 1 1 1 1 1 1 1
          1 1 1 1 1 1 1 1 1 1 1 1
          1 1 1 1 1 1 1 1 1 1 1 1
          1 1 1 1 1 1 1 1 1 1 1 1
          1 1 1 1 1 1 1 1 1 1 1 1
          1 1 1 1 1 1 1 1 1 1 1 1
          1 1 1 1 1 1 1 1 1 1 1 1
          1 1 1 1 1 1 1 1 1 1 1 1
          1 1 1 1 1 1 1 1 1 1 1 1
          1 1 1 1 1 1 1 1 1 1 1 1
          1 1 1 1 1 1 1 1 1 1 1 1
          1 1 1 1 1 1 1 1 1 1 1 1
          1 1 1 1 1 1 1 1 1 1 1 1
          1 1 1 1 1 1 1 1 1 1 1 1
          1 1 1 1 1 1 1 1 1 1 1 1
          1 1 1 1 1 1 1 1 1 1 1 1
          1 1 1 1 1 1 1 1 1 1 1 1
          1 1 1 1 1 1 1 1 1 1 1 1
          1 1 1 1 1 1 1 1 1 1 1 1
          1 1 1 1 1 1 1 1 1 1 1 1
          1 1 1 1 1 1 1 1 1 1 1 1
          1 1 1 1 1 1 1 1 1 1 1 1
          1 1 1 1 1 1 1 1 1 1 1 1
          1 1 1 1 1 1 1 1 1 1 1 1
          1 1 1 1 1 1 1 1 1 1 1 1
          1 0.999997 1 1 1 1 1 1 1 1 1 1
          1 1 1 1 1 1 1 1 1 1 1 1
          1 1 1 1 1 1 1 1 1 1 1 1
          1 1 1 1 1 1 1 1 1 1 1 1
          1 1 0.999709 0.999928 1 1 1 1 1 1 1 1
          1 1 1 1 1 1 1 1 1 1 1 1
          1 1 1 1 1 1 1 1 1 1 1 1
          1 1 1 1 1 0.999999 0.999999 0.999998 0.999999 1 1 1
          1 1 0.999996 0.99705 0.998992 0.999981 1 1 1 1 1 1
          1 1 1 1 1 1 1 1 1 1 1 1
          1 1 1 1 1 1 1 1 1 1 1 1
          1 1 0.999988 0.999922 0.999769 0.999519 0.999174 0.998824 0.998705 0.998966 0.999406 0.999762
          0.999945 0.999992 1 0.999888 0.990333 0.996222 0.999704 0.999999 1 1 1 1
          1 1 1 1 1 1 1 1 1 1 1 1
          1 1 1 1 1 1 1 1 1 1 1 1
          1 0.999985 0.999372 0.997251 0.994483 0.991371 0.987896 0.984296 0.981249 0.980181 0.982052 0.986099
          0.990833 0.995017 0.997674 0.999333 0.999413 0.980467 0.99249 0.998837 0.999983 1 1 1
          1 1 1 1 1 1 1 1 1 1 1 1
          1 1 1 1 1 1 1 1 1 1 1 1
          1 0.999967 0.996953 0.986146 0.970851 0.954967 0.940413 0.928127 0.917981 0.910412 0.907375 0.910689
          0.920594 0.936202 0.955043 0.971 0.984517 0.994698 0.969501 0.988828 0.997748 0.999927 1 1
          1 1 1 1 1 1 1 1 1 1 1 1
          1 1 1 1 1 1 1 1 1 1 1 1
          1 0.99997 0.996251 0.968594 0.924953 0.886961 0.857665 0.833969 0.815269 0.800778 0.790594 0.786214
          0.789575 0.801754 0.823277 0.852452 0.881123 0.914257 0.953157 0.958458 0.986272 0.99704 0.999858 1
          1 1 1 1 1 1 1 1 1 1 1 1
          1 1 1 1 1 1 1 1 1 1 1 1
          1 0.999996 0.997129 0.973061 0.882771 0.793462 0.720828 0.662244 0.616191 0.581704 0.55776 0.544009
          0.541532 0.552685 0.579653 0.622317 0.678303 0.727969 0.782433 0.851421 0.947981 0.98634 0.997322 0.99988
          1 1 1 1 1 1 1 1 1 1 1 1
          1 1 1 1 1 1 1 1 1 1 1 1
          1 1 1 0.999908 0.995411 0.96904 0.951516 0.94099 0.93468 0.930798 0.928339 0.926913
          0.927195 0.932982 0.946213 0.963327 0.979646 0.991511 0.997746 0.999871 1 1 1 1
          1 1 1 1 1 1 1 1 1 1 1 1
          1 1 1 1 1 1 1 1 1 1 1 1
          1 1 1 1 0.999873 0.995177 0.969188 0.953277 0.94533 0.941642 0.940054 0.939418
          0.93927 0.940189 0.946309 0.959002 0.973652 0.98637 0.994645 0.998946 0.999973 1 1 1
          1 1 1 1 1 1 1 1 1 1 1 1
          1 1 1 1 1 1 1 1 1 1 1 1
          1 1 1 1 1 0.999734 0.994733 0.967585 0.951426 0.944197 0.941199 0.940058
          0.939663 0.93962 0.940607 0.947692 0.961867 0.976819 0.988664 0.995744 0.999329 0.99999 1 1
          1 1 1 1 1 1 1 1 1 1 1 1
          1 1 1 1 1 1 1 1 1 1 1 1
          1 1 1 1 1 1 0.999533 0.994347 0.965946 0.949421 0.942974 0.940617
          0.939823 0.939579 0.939581 0.940582 0.948869 0.964869 0.980053 0.990801 0.996778 0.999622 0.999997 1
          1 1 1 1 1 1 1 1 1 1 1 1
          1 1 1 1 1 1 1 1 1 1 1 1
          1 1 1 1 1 1 1 0.999326 0.994067 0.964323 0.947367 0.941867
          0.940152 0.939653 0.939519 0.939542 0.940503 0.950258 0.968447 0.98357 0.992842 0.997783 0.99983 0.999999
          1 1 1 1 1 1 1 1 1 1 1 1
          1 1 1 1 1 1 1 1 1 1 1 1
          1 1 1 1 1 1 1 1 0.99919 0.99389 0.962719 0.945254
          0.940909 0.939812 0.939547 0.939486 0.939512 0.940359 0.95193 0.972849 0.987369 0.994839 0.998723 0.999948
          1 1 1 1 1 1 1 1 1 1 1 1
          1 1 1 1 1 1 1 1 1 1 1 1
          1 1 1 1 1 1 1 1 1 0.999241 0.994045 0.961063
          0.943061 0.940137 0.939594 0.93949 0.93947 0.939488 0.940117 0.953955 0.978597 0.991458 0.996885 0.999513
          0.999993 1 1 1 1 1 1 1 1 1 1 1
          1 1 1 1 1 1 1 1 1 1 1 1
          1 1 1 1 1 1 1 1 1 1 0.999605 0.995439
          0.95916 0.940761 0.939603 0.939483 0.939467 0.939465 0.939471 0.939735 0.956387 0.987398 0.9963 0.999148
          0.999965 1 1 1 1 1 1 1 1 1 1 1
          1 1 1 1 1 1 1 1 1
        </DataArray>
        <DataArray type="Float32" Name="p_liqTrichloroethene" NumberOfComponents="1" format="ascii">
          153955 152690 152269 151338 151814 150519 151092 149819 150468 149207 149915 148662
          149417 148169 148963 147719 148544 147303 148156 146918 147793 146556 147451 146216
          147128 145894 146819 145586 146523 145291 146238 145007 145963 144733 145695 144466
          145435 144205 145180 143951 144930 143702 144685 143457 144444 143216 144206 142978
          143972 142744 143741 142513 143513 142286 143289 142061 143067 141839 142848 141620
          142633 141405 142420 141192 142211 140983 142005 140777 141803 140575 141603 140375
          141407 140179 141214 139987 141024 139797 140837 139610 140653 139426 140471 139244
          140291 139064 140113 138886 139936 138710 139761 138535 139587 138360 139413 138187
          139240 138014 150583 149822 149108 148462 147882 147357 146879 146440 146033 145654
          145299 144964 144645 144341 144049 143767 143495 143229 142970 142717 142469 142224
          141984 141747 141513 141283 141055 140830 140608 140389 140174 139961 139752 139546
          139343 139144 138948 138756 138566 138380 138196 138014 137835 137657 137481 137307
          137133 136960 136788 148897 148247 147623 147040 146501 146007 145551 145128 144735
          144368 144022 143694 143382 143083 142796 142519 142249 141987 141730 141479 141232
          140988 140749 140513 140279 140049 139821 139596 139374 139155 138939 138727 138517
          138311 138109 137910 137714 137522 137333 137147 136963 136783 136604 136427 136252
          136078 135905 135733 135561 147211 146645 146094 145570 145077 144617 144188 143788
          143413 143060 142726 142409 142106 141815 141534 141262 140997 140738 140484 140236
          139991 139749 139511 139275 139042 138812 138585 138360 138138 137918 137702 137489
          137279 137073 136871 136672 136477 136285 136096 135911 135729 135549 135371 135195
          135021 134849 134677 134506 134335 145525 145026 144538 144067 143619 143196 142797
          142422 142068 141733 141414 141110 140818 140536 140263 139998 139738 139484 139234
          138989 138746 138507 138270 138035 137803 137573 137345 137120 136898 136678 136461
          136248 136038 135832 135629 135430 135236 135044 134857 134673 134491 134313 134136
          133962 133789 133618 133448 133278 133109 143838 143397 142963 142542 142136 141750
          141383 141035 140704 140389 140088 139798 139519 139248 138985 138727 138474 138226
          137981 137738 137499 137261 137026 136793 136561 136332 136104 135878 135655 135435
          135217 135003 134793 134586 134384 134185 133991 133801 133614 133431 133251 133074
          132899 132727 132556 132386 132218 132050 131882 142152 141761 141375 140999 140634
          140284 139950 139630 139324 139031 138749 138477 138212 137954 137701 137452 137207
          136964 136724 136486 136249 136014 135781 135548 135318 135088 134860 134634 134410
          134189 133970 133755 133544 133336 133134 132936 132742 132553 132368 132186 132008
          131833 131660 131490 131321 131154 130987 130822 130656 140466 140120 139778 139443
          139118 138803 138501 138211 137932 137663 137402 137148 136899 136654 136413 136173
          135936 135700 135465 135231 134998 134766 134534 134303 134072 133843 133615 133388
          133163 132940 132719 132503 132290 132082 131879 131682 131489 131301 131118 130938
          130762 130590 130419 130251 130085 129920 129756 129593 129430 138780 138475 138174
          137877 137589 137310 137041 136781 136530 136286 136048 135813 135582 135352 135122
          134893 134664 134435 134206 133976 133746 133516 133286 133056 132827 132597 132368
          132140 131913 131688 131465 131247 131032 130823 130620 130422 130231 130045 129864
          129687 129514 129344 129176 129011 128848 128686 128524 128364 128204 137094 136827
          136563 136304 136051 135807 135570 135342 135120 134903 134689 134476 134263 134048
          133831 133613 133392 133170 132946 132721 132495 132267 132039 131810 131580 131350
          131120 130890 130661 130433 130208 129986 129769 129558 129354 129157 128967 128784
          128605 128431 128262 128095 127931 127769 127609 127450 127292 127135 126978 135408
          135177 134948 134724 134505 134295 134092 133896 133706 133518 133330 133140 132946
          132746 132543 132334 132122 131907 131688 131467 131244 131019 130792 130564 130335
          130104 129873 129640 129408 129176 128946 128720 128499 128286 128081 127885 127698
          127517 127342 127172 127006 126844 126683 126525 126369 126213 126059 125905 125751
          133722 133524 133328 133137 132952 132775 132606 132445 132289 132133 131974 131808
          131633 131450 131258 131060 130856 130646 130433 130215 129995 129772 129547 129319
          129090 128859 128626 128391 128155 127918 127682 127449 127222 127005 126800 126605
          126421 126244 126074 125909 125748 125590 125434 125280 125128 124976 124825 124675
          124525 132036 131869 131704 131543 131390 131246 131112 130988 130870 130752 130625
          130484 130330 130161 129981 129792 129594 129390 129181 128967 128749 128528 128304
          128077 127847 127615 127380 127143 126902 126659 126414 126170 125935 125713 125506
          125315 125136 124965 124801 124642 124487 124334 124183 124033 123885 123738 123591
          123445 123299 130350 130211 130074 129943 129820 129707 129608 129524 129453 129380
          129290 129176 129040 128884 128713 128531 128339 128139 127933 127722 127506 127286
          127063 126837 126607 126374 126138 125898 125653 125402 125145 124885 124633 124403
          124198 124013 123842 123680 123524 123372 123223 123076 122930 122786 122642 122499
          122357 122215 122072 128664 128551 128440 128335 128238 128153 128086 128046 128035
          128028 127983 127892 127768 127622 127457 127280 127091 126894 126691 126481 126267
          126048 125826 125600 125370 125137 124900 124657 124409 124152 123882 123593 123306
          123064 122869 122698 122540 122389 122243 122099 121957 121816 121676 121537 121398
          121260 121122 120984 120846 126978 126888 126801 126719 126645 126583 126540 126528
          126599 126740 126719 126637 126520 126376 126215 126039 125852 125657 125454 125245
          125032 124814 124592 124366 124137 123904 123666 123423 123173 122913 122637 122329
          121900 121680 121519 121373 121232 121095 120959 120824 120689 120555 120422 120288
          120154 120021 119887 119754 119620 125291 125223 125157 125095 125040 124995 124966
          124958 124960 124990 124962 124887 124781 124653 124511 124356 124193 124023 123847
          123665 123476 123282 123081 122873 122657 122434 122202 121959 121704 121431 121129
          120775 120322 120267 120159 120042 119921 119798 119674 119548 119422 119295 119167
          119039 118910 118781 118652 118523 118394 123605 123556 123509 123465 123425 123393
          123371 123359 123356 123312 123251 123167 123063 122945 122817 122682 122542 122396
          122246 122090 121927 121756 121576 121386 121185 120973 120748 120508 120252 119974
          119666 119314 118913 118876 118805 118714 118612 118503 118390 118274 118155 118035
          117913 117790 117666 117542 117417 117293 117168 121919 121888 121858 121829 121803
          121780 121763 121753 121748 121658 121565 121465 121358 121246 121131 121014 120895
          120774 120650 120521 120385 120239 120082 119911 119726 119525 119307 119073 118821
          118547 118247 117915 117599 117542 117469 117396 117309 117212 117109 117001 116890
          116776 116660 116542 116423 116303 116183 116062 115941 120233 120220 120206 120191
          120177 120162 120150 120140 120135 120008 119887 119771 119659 119551 119447 119346
          119249 119155 119063 118983 118920 118871 118830 118769 118629 118375 118052 117725
          117426 117148 116861 116584 116324 116263 116160 116092 116015 115928 115833 115732
          115627 115519 115408 115295 115181 115065 114949 114832 114715 118547 118551 118554
          118554 118551 118543 118533 118522 118516 118352 118203 118072 117956 117852 117758
          117674 117605 117713 118136 118462 118549 118518 118457 118362 118222 118027 117779
          117483 117015 116344 115686 115382 115040 114996 114882 114802 114732 114651 114563
          114468 114368 114264 114158 114050 113939 113828 113715 113602 113489 116861 116884
          116905 116921 116929 116927 116916 116900 116889 116678 116501 116359 116242 116143
          116059 116001 116661 117213 117333 117397 117419 117402 117350 117265 117141 116971
          116753 116483 116169 115837 115472 114932 113773 113728 113623 113527 113459 113383
          113298 113208 113112 113013 112911 112806 112699 112591 112482 112373 112262 115175
          115220 115261 115295 115316 115322 115308 115272 115244 114960 114763 114622 114512
          114421 114354 115121 115723 115933 116034 116074 116079 116055 116006 115932 115827
          115689 115513 115299 115053 114793 114499 114135 112526 112473 112371 112265 112196
          112122 112040 111953 111860 111764 111665 111564 111461 111356 111250 111143 111036
          113489 113560 113626 113681 113719 113736 113723 113665 113496 113145 112975 112857
          112764 112685 112670 112690 112695 112662 112613 112555 112490 112417 112339 112253
          112160 112060 111958 111854 111751 111655 111557 111452 111316 111232 111118 111012
          110942 110868 110788 110702 110612 110519 110423 110324 110223 110121 110018 109914
          109810 111803 111905 112001 112083 112145 112179 112178 112128 112013 111857 111716
          111608 111520 111444 111378 111389 111388 111333 111263 111184 111100 111013 110923
          110832 110737 110640 110545 110451 110355 110222 110106 110027 109954 109890 109829
          109764 109695 109620 109540 109456 109368 109277 109182 109086 108988 108888 108787
          108686 108584 110117 110258 110391 110506 110596 110656 110680 110662 110603 110518
          110426 110341 110265 110196 110134 110147 110145 110090 110019 109940 109855 109768
          109679 109589 109495 109398 109304 109210 109105 108971 108876 108802 108731 108662
          108594 108525 108453 108377 108297 108214 108127 108037 107944 107850 107753 107656
          107557 107457 107358 108430 108620 108798 108953 109079 109170 109224 109240 109223
          109181 109125 109065 109004 108944 108891 108908 108905 108851 108780 108701 108618
          108532 108444 108355 108261 108164 108070 107977 107865 107735 107648 107575 107504
          107433 107362 107290 107215 107138 107058 106975 106888 106800 106708 106615 106521
          106424 106327 106229 106131 106744 106994 107228 107431 107596 107721 107806 107853
          107868 107857 107828 107788 107741 107691 107648 107668 107666 107613 107543 107465
          107382 107297 107211 107122 107028 106930 106836 106743 106623 106501 106420 106348
          106275 106203 106130 106056 105980 105902 105822 105739 105653 105565 105475 105383
          105289 105194 105098 105002 104905 105058 105387 105689 105947 106155 106314 106427
          106500 106539 106551 106542 106517 106482 106440 106407 106430 106429 106378 106308
          106230 106148 106064 105978 105890 105795 105697 105602 105506 105380 105269 105193
          105120 105047 104974 104900 104825 104748 104669 104588 104505 104420 104332 104243
          104151 104059 103965 103870 103774 103679 103372 103809 104198 104515 104763 104951
          105088 105181 105238 105265 105270 105257 105230 105195 105169 105193 105195 105145
          105075 104997 104916 104833 104748 104660 104564 104463 104368 104263 104137 104039
          103966 103893 103819 103745 103671 103595 103517 103438 103357 103274 103189 103101
          103012 102922 102830 102736 102642 102548 102452 101686 102291 102783 103153 103432
          103640 103792 103898 103966 104003 104015 104009 103988 103956 103932 103959 103964
          103915 103844 103767 103687 103604 103518 103431 103334 103228 103131 103012 102894
          102811 102739 102666 102592 102518 102443 102366 102289 102209 102128 102045 101960
          101872 101784 101693 101602 101509 101415 101321 101226 100000 100939 101487 101879
          102169 102385 102543 102653 102724 102764 102779 102775 102756 102726 102695 102716
          102738 102689 102616 102539 102459 102376 102291 102204 102104 101987 101866 101747
          101658 101585 101512 101439 101365 101291 101216 101139 101061 100982 100901 100817
          100732 100645 100557 100466 100375 100282 100189 100094 100000
        </DataArray>
        <DataArray type="Float32" Name="p_liqSimpleH2O" NumberOfComponents="1" format="ascii">
          153955 152690 152269 151338 151814 150519 151092 149819 150468 149207 149915 148662
          149417 148169 148963 147719 148544 147303 148156 146918 147793 146556 147451 146216
          147128 145894 146819 145586 146523 145291 146238 145007 145963 144733 145695 144466
          145435 144205 145180 143951 144930 143702 144685 143457 144444 143216 144206 142978
          143972 142744 143741 142513 143513 142286 143289 142061 143067 141839 142848 141620
          142633 141405 142420 141192 142211 140983 142005 140777 141803 140575 141603 140375
          141407 140179 141214 139987 141024 139797 140837 139610 140653 139426 140471 139244
          140291 139064 140113 138886 139936 138710 139761 138535 139587 138360 139413 138187
          139240 138014 150583 149822 149108 148462 147882 147357 146879 146440 146033 145654
          145299 144964 144645 144341 144049 143767 143495 143229 142970 142717 142469 142224
          141984 141747 141513 141283 141055 140830 140608 140389 140174 139961 139752 139546
          139343 139144 138948 138756 138566 138380 138196 138014 137835 137657 137481 137307
          137133 136960 136788 148897 148247 147623 147040 146501 146007 145551 145128 144735
          144368 144022 143694 143382 143083 142796 142519 142249 141987 141730 141479 141232
          140988 140749 140513 140279 140049 139821 139596 139374 139155 138939 138727 138517
          138311 138109 137910 137714 137522 137333 137147 136963 136783 136604 136427 136252
          136078 135905 135733 135561 147211 146645 146094 145570 145077 144617 144188 143788
          143413 143060 142726 142409 142106 141815 141534 141262 140997 140738 140484 140236
          139991 139749 139511 139275 139042 138812 138585 138360 138138 137918 137702 137489
          137279 137073 136871 136672 136477 136285 136096 135911 135729 135549 135371 135195
          135021 134849 134677 134506 134335 145525 145026 144538 144067 143619 143196 142797
          142422 142068 141733 141414 141110 140818 140536 140263 139998 139738 139484 139234
          138989 138746 138507 138270 138035 137803 137573 137345 137120 136898 136678 136461