<?xml version="1.0"?>
<VTKFile type="UnstructuredGrid" version="0.1" byte_order="LittleEndian">
  <UnstructuredGrid>
    <Piece NumberOfCells="1536" NumberOfPoints="1617">
      <CellData Scalars="porosity">
        <DataArray type="Float32" Name="porosity" NumberOfComponents="1" format="ascii">
          0.4 0.4 0.4 0.4 0.4 0.4 0.4 0.4 0.4 0.4 0.4 0.4
          0.4 0.4 0.4 0.4 0.4 0.4 0.4 0.4 0.4 0.4 0.4 0.4
          0.4 0.4 0.4 0.4 0.4 0.4 0.4 0.4 0.4 0.4 0.4 0.4
          0.4 0.4 0.4 0.4 0.4 0.4 0.4 0.4 0.4 0.4 0.4 0.4
          0.4 0.4 0.4 0.4 0.4 0.4 0.4 0.4 0.4 0.4 0.4 0.4
          0.4 0.4 0.4 0.4 0.4 0.4 0.4 0.4 0.4 0.4 0.4 0.4
          0.4 0.4 0.4 0.4 0.4 0.4 0.4 0.4 0.4 0.4 0.4 0.4
          0.4 0.4 0.4 0.4 0.4 0.4 0.4 0.4 0.4 0.4 0.4 0.4
          0.4 0.4 0.4 0.4 0.4 0.4 0.4 0.4 0.4 0.4 0.4 0.4
          0.4 0.4 0.4 0.4 0.4 0.4 0.4 0.4 0.4 0.4 0.4 0.4
          0.4 0.4 0.4 0.4 0.4 0.4 0.4 0.4 0.4 0.4 0.4 0.4
          0.4 0.4 0.4 0.4 0.4 0.4 0.4 0.4 0.4 0.4 0.4 0.4
          0.4 0.4 0.4 0.4 0.4 0.4 0.4 0.4 0.4 0.4 0.4 0.4
          0.4 0.4 0.4 0.4 0.4 0.4 0.4 0.4 0.4 0.4 0.4 0.4
          0.4 0.4 0.4 0.4 0.4 0.4 0.4 0.4 0.4 0.4 0.4 0.4
          0.4 0.4 0.4 0.4 0.4 0.4 0.4 0.4 0.4 0.4 0.4 0.4
          0.4 0.4 0.4 0.4 0.4 0.4 0.4 0.4 0.4 0.4 0.4 0.4
          0.4 0.4 0.4 0.4 0.4 0.4 0.4 0.4 0.4 0.4 0.4 0.4
          0.4 0.4 0.4 0.4 0.4 0.4 0.4 0.4 0.4 0.4 0.4 0.4
          0.4 0.4 0.4 0.4 0.4 0.4 0.4 0.4 0.4 0.4 0.4 0.4
          0.4 0.4 0.4 0.4 0.4 0.4 0.4 0.4 0.4 0.4 0.4 0.4
          0.4 0.4 0.4 0.4 0.4 0.4 0.4 0.4 0.4 0.4 0.4 0.4
          0.4 0.4 0.4 0.4 0.4 0.4 0.4 0.4 0.4 0.4 0.4 0.4
          0.4 0.4 0.4 0.4 0.4 0.4 0.4 0.4 0.4 0.4 0.4 0.4
          0.4 0.4 0.4 0.4 0.4 0.4 0.4 0.4 0.4 0.4 0.4 0.4
          0.4 0.4 0.4 0.4 0.4 0.4 0.4 0.4 0.4 0.4 0.4 0.4
          0.4 0.4 0.4 0.4 0.4 0.4 0.4 0.4 0.4 0.4 0.4 0.4
          0.4 0.4 0.4 0.4 0.4 0.4 0.4 0.4 0.4 0.4 0.4 0.4
          0.4 0.4 0.4 0.4 0.4 0.4 0.4 0.4 0.4 0.4 0.4 0.4
          0.4 0.4 0.4 0.4 0.4 0.4 0.4 0.4 0.4 0.4 0.4 0.4
          0.4 0.4 0.4 0.4 0.4 0.4 0.4 0.4 0.4 0.4 0.4 0.4
          0.4 0.4 0.4 0.4 0.4 0.4 0.4 0.4 0.4 0.4 0.4 0.4
          0.4 0.4 0.4 0.4 0.4 0.4 0.4 0.4 0.4 0.4 0.4 0.4
          0.4 0.4 0.4 0.4 0.4 0.4 0.4 0.4 0.4 0.4 0.4 0.4
          0.4 0.4 0.4 0.4 0.4 0.4 0.4 0.4 0.4 0.4 0.4 0.4
          0.4 0.4 0.4 0.4 0.4 0.4 0.4 0.4 0.4 0.4 0.4 0.4
          0.4 0.4 0.4 0.4 0.4 0.4 0.4 0.4 0.4 0.4 0.4 0.4
          0.4 0.4 0.4 0.4 0.4 0.4 0.4 0.4 0.4 0.4 0.4 0.4
          0.4 0.4 0.4 0.4 0.4 0.4 0.4 0.4 0.4 0.4 0.4 0.4
          0.4 0.4 0.4 0.4 0.4 0.4 0.4 0.4 0.4 0.4 0.4 0.4
          0.4 0.4 0.4 0.4 0.4 0.4 0.4 0.4 0.4 0.4 0.4 0.4
          0.4 0.4 0.4 0.4 0.4 0.4 0.4 0.4 0.4 0.4 0.4 0.4
          0.4 0.4 0.4 0.4 0.4 0.4 0.4 0.4 0.4 0.4 0.4 0.4
          0.4 0.4 0.4 0.4 0.4 0.4 0.4 0.4 0.4 0.4 0.4 0.4
          0.4 0.4 0.4 0.4 0.4 0.4 0.4 0.4 0.4 0.4 0.4 0.4
          0.4 0.4 0.4 0.4 0.4 0.4 0.4 0.4 0.4 0.4 0.4 0.4
          0.4 0.4 0.4 0.4 0.4 0.4 0.4 0.4 0.4 0.4 0.4 0.4
          0.4 0.4 0.4 0.4 0.4 0.4 0.4 0.4 0.4 0.4 0.4 0.4
          0.4 0.4 0.4 0.4 0.4 0.4 0.4 0.4 0.4 0.4 0.4 0.4
          0.4 0.4 0.4 0.4 0.4 0.4 0.4 0.4 0.4 0.4 0.4 0.4
          0.4 0.4 0.4 0.4 0.4 0.4 0.4 0.4 0.4 0.4 0.4 0.4
          0.4 0.4 0.4 0.4 0.4 0.4 0.4 0.4 0.4 0.4 0.4 0.4
          0.4 0.4 0.4 0.4 0.4 0.4 0.4 0.4 0.4 0.4 0.4 0.4
          0.4 0.4 0.4 0.4 0.4 0.4 0.4 0.4 0.4 0.4 0.4 0.4
          0.4 0.4 0.4 0.4 0.4 0.4 0.4 0.4 0.4 0.4 0.4 0.4
          0.4 0.4 0.4 0.4 0.4 0.4 0.4 0.4 0.4 0.4 0.4 0.4
          0.4 0.4 0.4 0.4 0.4 0.4 0.4 0.4 0.4 0.4 0.4 0.4
          0.4 0.4 0.4 0.4 0.4 0.4 0.4 0.4 0.4 0.4 0.4 0.4
          0.4 0.4 0.4 0.4 0.4 0.4 0.4 0.4 0.4 0.4 0.4 0.4
          0.4 0.4 0.4 0.4 0.4 0.4 0.4 0.4 0.4 0.4 0.4 0.4
          0.4 0.4 0.4 0.4 0.4 0.4 0.4 0.4 0.4 0.4 0.4 0.4
          0.4 0.4 0.4 0.4 0.4 0.4 0.4 0.4 0.4 0.4 0.4 0.4
          0.4 0.4 0.4 0.4 0.4 0.4 0.4 0.4 0.4 0.4 0.4 0.4
          0.4 0.4 0.4 0.4 0.4 0.4 0.4 0.4 0.4 0.4 0.4 0.4
          0.4 0.4 0.4 0.4 0.4 0.4 0.4 0.4 0.4 0.4 0.4 0.4
          0.4 0.4 0.4 0.4 0.4 0.4 0.4 0.4 0.4 0.4 0.4 0.4
          0.4 0.4 0.4 0.4 0.4 0.4 0.4 0.4 0.4 0.4 0.4 0.4
          0.4 0.4 0.4 0.4 0.4 0.4 0.4 0.4 0.4 0.4 0.4 0.4
          0.4 0.4 0.4 0.4 0.4 0.4 0.4 0.4 0.4 0.4 0.4 0.4
          0.4 0.4 0.4 0.4 0.4 0.4 0.4 0.4 0.4 0.4 0.4 0.4
          0.4 0.4 0.4 0.4 0.4 0.4 0.4 0.4 0.4 0.4 0.4 0.4
          0.4 0.4 0.4 0.4 0.4 0.4 0.4 0.4 0.4 0.4 0.4 0.4
          0.4 0.4 0.4 0.4 0.4 0.4 0.4 0.4 0.4 0.4 0.4 0.4
          0.4 0.4 0.4 0.4 0.4 0.4 0.4 0.4 0.4 0.4 0.4 0.4
          0.4 0.4 0.4 0.4 0.4 0.4 0.4 0.4 0.4 0.4 0.4 0.4
          0.4 0.4 0.4 0.4 0.4 0.4 0.4 0.4 0.4 0.4 0.4 0.4
          0.4 0.4 0.4 0.4 0.4 0.4 0.4 0.4 0.4 0.4 0.4 0.4
          0.4 0.4 0.4 0.4 0.4 0.4 0.4 0.4 0.4 0.4 0.4 0.4
          0.4 0.4 0.4 0.4 0.4 0.4 0.4 0.4 0.4 0.4 0.4 0.4
          0.4 0.4 0.4 0.4 0.4 0.4 0.4 0.4 0.4 0.4 0.4 0.4
          0.4 0.4 0.4 0.4 0.4 0.4 0.4 0.4 0.4 0.4 0.4 0.4
          0.4 0.4 0.4 0.4 0.4 0.4 0.4 0.4 0.4 0.4 0.4 0.4
          0.4 0.4 0.4 0.4 0.4 0.4 0.4 0.4 0.4 0.4 0.4 0.4
          0.4 0.4 0.4 0.4 0.4 0.4 0.4 0.4 0.4 0.4 0.4 0.4
          0.4 0.4 0.4 0.4 0.4 0.4 0.4 0.4 0.4 0.4 0.4 0.4
          0.4 0.4 0.4 0.4 0.4 0.4 0.4 0.4 0.4 0.4 0.4 0.4
          0.4 0.4 0.4 0.4 0.4 0.4 0.4 0.4 0.4 0.4 0.4 0.4
          0.4 0.4 0.4 0.4 0.4 0.4 0.4 0.4 0.4 0.4 0.4 0.4
          0.4 0.4 0.4 0.4 0.4 0.4 0.4 0.4 0.4 0.4 0.4 0.4
          0.4 0.4 0.4 0.4 0.4 0.4 0.4 0.4 0.4 0.4 0.4 0.4
          0.4 0.4 0.4 0.4 0.4 0.4 0.4 0.4 0.4 0.4 0.4 0.4
          0.4 0.4 0.4 0.4 0.4 0.4 0.4 0.4 0.4 0.4 0.4 0.4
          0.4 0.4 0.4 0.4 0.4 0.4 0.4 0.4 0.4 0.4 0.4 0.4
          0.4 0.4 0.4 0.4 0.4 0.4 0.4 0.4 0.4 0.4 0.4 0.4
          0.4 0.4 0.4 0.4 0.4 0.4 0.4 0.4 0.4 0.4 0.4 0.4
          0.4 0.4 0.4 0.4 0.4 0.4 0.4 0.4 0.4 0.4 0.4 0.4
          0.4 0.4 0.4 0.4 0.4 0.4 0.4 0.4 0.4 0.4 0.4 0.4
          0.4 0.4 0.4 0.4 0.4 0.4 0.4 0.4 0.4 0.4 0.4 0.4
          0.4 0.4 0.4 0.4 0.4 0.4 0.4 0.4 0.4 0.4 0.4 0.4
          0.4 0.4 0.4 0.4 0.4 0.4 0.4 0.4 0.4 0.4 0.4 0.4
          0.4 0.4 0.4 0.4 0.4 0.4 0.4 0.4 0.4 0.4 0.4 0.4
          0.4 0.4 0.4 0.4 0.4 0.4 0.4 0.4 0.4 0.4 0.4 0.4
          0.4 0.4 0.4 0.4 0.4 0.4 0.4 0.4 0.4 0.4 0.4 0.4
          0.4 0.4 0.4 0.4 0.4 0.4 0.4 0.4 0.4 0.4 0.4 0.4
          0.4 0.4 0.4 0.4 0.4 0.4 0.4 0.4 0.4 0.4 0.4 0.4
          0.4 0.4 0.4 0.4 0.4 0.4 0.4 0.4 0.4 0.4 0.4 0.4
          0.4 0.4 0.4 0.4 0.4 0.4 0.4 0.4 0.4 0.4 0.4 0.4
          0.4 0.4 0.4 0.4 0.4 0.4 0.4 0.4 0.4 0.4 0.4 0.4
          0.4 0.4 0.4 0.4 0.4 0.4 0.4 0.4 0.4 0.4 0.4 0.4
          0.4 0.4 0.4 0.4 0.4 0.4 0.4 0.4 0.4 0.4 0.4 0.4
          0.4 0.4 0.4 0.4 0.4 0.4 0.4 0.4 0.4 0.4 0.4 0.4
          0.4 0.4 0.4 0.4 0.4 0.4 0.4 0.4 0.4 0.4 0.4 0.4
          0.4 0.4 0.4 0.4 0.4 0.4 0.4 0.4 0.4 0.4 0.4 0.4
          0.4 0.4 0.4 0.4 0.4 0.4 0.4 0.4 0.4 0.4 0.4 0.4
          0.4 0.4 0.4 0.4 0.4 0.4 0.4 0.4 0.4 0.4 0.4 0.4
          0.4 0.4 0.4 0.4 0.4 0.4 0.4 0.4 0.4 0.4 0.4 0.4
          0.4 0.4 0.4 0.4 0.4 0.4 0.4 0.4 0.4 0.4 0.4 0.4
          0.4 0.4 0.4 0.4 0.4 0.4 0.4 0.4 0.4 0.4 0.4 0.4
          0.4 0.4 0.4 0.4 0.4 0.4 0.4 0.4 0.4 0.4 0.4 0.4
          0.4 0.4 0.4 0.4 0.4 0.4 0.4 0.4 0.4 0.4 0.4 0.4
          0.4 0.4 0.4 0.4 0.4 0.4 0.4 0.4 0.4 0.4 0.4 0.4
          0.4 0.4 0.4 0.4 0.4 0.4 0.4 0.4 0.4 0.4 0.4 0.4
          0.4 0.4 0.4 0.4 0.4 0.4 0.4 0.4 0.4 0.4 0.4 0.4
          0.4 0.4 0.4 0.4 0.4 0.4 0.4 0.4 0.4 0.4 0.4 0.4
          0.4 0.4 0.4 0.4 0.4 0.4 0.4 0.4 0.4 0.4 0.4 0.4
          0.4 0.4 0.4 0.4 0.4 0.4 0.4 0.4 0.4 0.4 0.4 0.4
          0.4 0.4 0.4 0.4 0.4 0.4 0.4 0.4 0.4 0.4 0.4 0.4
          0.4 0.4 0.4 0.4 0.4 0.4 0.4 0.4 0.4 0.4 0.4 0.4
        </DataArray>
        <DataArray type="Float32" Name="pc" NumberOfComponents="1" format="ascii">
          0 0 0 0 0 0 0 0 0 0 0 0
          0 0 0 0 0 0 0 0 0 0 0 0
          0 0 0 0 0 0 0 0 0 0 0 0
          0 0 0 0 0 0 0 0 0 0 0 0
          0 0 0 0 0 0 0 0 0 0 0 0
          0 0 0 0 0 0 0 0 0 0 0 0
          0 0 0 0 0 0 0 0 0 0 0 0
          0 0 0 0 0 0 0 0 0 0 0 0
          0 0 0 0 0 0 0 0 0 0 0 0
          0 0 0 0 0 0 0 0 0 0 0 0
          0 0 0 0 0 0 0 0 0 0 0 0
          0 0 0 0 0 0 0 0 0 0 0 0
          0 0 0 0 0 0 0 0 0 0 0 0
          0 0 0 0 0 0 0 0 0 0 0 0
          0 0 0 0 0 0 0 0 0 1.18661e-11 9.72492e-07 2.9402e-06
          2.68263e-09 0 0 0 0 0 0 0 0 0 0 0
          0 0 0 0 0 0 0 0 0 0 0 0
          0 0 0 0 0 0 0 0 0 0 0 0
          0 0 0 0 0 0 0 0 0 2.58092e-05 0.00968595 0.0172968
          0.000441067 9.26683e-09 0 0 0 0 0 0 0 0 0 0
          0 0 0 0 0 0 0 0 0 0 0 0
          0 0 0 0 0 0 0 0 0 0 0 0
          0 0 0 0 0 0 0 0 1.21222e-07 0.0541746 1.20638 1.63233
          0.239375 0.000801077 4.15106e-09 0 0 0 0 0 0 0 0 0
          0 0 0 0 0 0 0 0 0 0 0 0
          0 0 0 0 0 0 0 0 0 0 0 0
          0 0 0 0 0 0 0 0 0.00327168 2.96548 14.5395 16.9028
          6.30234 0.29376 0.000302277 4.46704e-10 0 0 0 0 0 0 0 0
          0 0 0 0 0 0 0 0 0 0 0 0
          0 0 0 0 0 0 0 0 0 0 0 0
          0 0 0 0 0 0 0 0 0.688478 22.8373 49.6391 52.9693
          31.6889 5.99971 0.0983918 2.74892e-05 4.74643e-12 0 0 0 0 0 0 0
          0 0 0 0 0 0 0 0 0 0 0 0
          0 0 0 0 0 0 0 0 0 0 0 0
          0 0 0 0 0 0 0 0 11.018 61.771 88.7397 90.2348
          67.8704 26.2563 1.97744 0.00849625 2.41427e-07 0 0 0 0 0 0 0
          0 0 0 0 0 0 0 0 0 0 0 0
          0 0 0 0 0 0 0 0 0 0 0 0
          0 0 0 0 0 0 0 0 43.552 97.6107 109.602 109.356
          96.3127 53.5387 9.48133 0.180272 8.06639e-05 3.32534e-11 0 0 0 0 0 0
          0 0 0 0 0 0 0 0 0 0 0 0
          0 0 0 0 0 0 0 0 0 0 0 0
          0 0 0 0 0 0 0 0 83.7685 113.456 120.409 119.034
          109.306 76.3618 21.4711 0.947853 0.00188543 1.28452e-08 0 0 0 0 0 0
          0 0 0 0 0 0 0 0 0 0 0 0
          0 0 0 0 0 0 0 0 0 0 0 0
          0 0 0 0 0 0 0 0 108.122 124.312 129.547 126.817
          116.207 91.0798 32.636 2.28179 0.0099363 2.97639e-07 0 0 0 0 0 0
          0 0 0 0 0 0 0 0 0 0 0 0
          0 0 0 0 0 0 0 0 0 0 0 0
          0 0 0 0 0 0 0 0 119.769 133.793 137.465 133.159
          121.062 98.6402 39.404 3.36038 0.0203275 1.12791e-06 0 0 0 0 0 0
          0 0 0 0 0 0 0 0 0 0 0 0
          0 0 0 0 0 0 0 0 0 0 0 0
          0 0 0 0 0 0 0 0 129.98 142.324 144.318 138.091
          123.961 100.988 40.4039 3.40589 0.020022 1.05375e-06 0 0 0 0 0 0
          0 0 0 0 0 0 0 0 0 0 0 0
          0 0 0 0 0 0 0 0 0 0 0 0
          0 0 0 0 0 0 0 0 139.792 150.358 150.161 141.407
          124.681 98.9072 35.4559 2.40385 0.00969851 2.52721e-07 0 0 0 0 0 0
          0 0 0 0 0 0 0 0 0 0 0 0
          0 0 0 0 0 0 0 0 0 0 0 0
          0 0 0 0 0 0 0 0 150.691 158.376 154.801 142.647
          122.819 91.0753 25.6434 1.10368 0.00204546 1.23415e-08 0 0 0 0 0 0
          0 0 0 0 0 0 0 0 0 0 0 0
          0 0 0 0 0 0 0 0 0 0 0 0
          0 0 0 0 0 0 0 0 168.99 166.49 157.413 141.182
          118.109 75.6064 14.173 0.292693 0.000151322 8.31619e-11 0 0 0 0 0 0
          0 0 0 0 0 0 0 0 0 0 0 0
          0 0 0 0 0 0 0 0 0 0 0 0
          0 0 0 0 0 0 0 0 176.575 169.792 156.78 137.102
          111.245 54.6466 5.69043 0.0429539 3.6319e-06 0 0 0 0 0 0 0
          0 0 0 0 0 0 0 0 0 0 0 0
          0 0 0 0 0 0 0 0 0 0 0 0
          0 0 0 0 0 0 0 0.000104352 181.126 170.991 154.605 131.947
          103.218 35.0759 1.81222 0.00425922 4.13419e-08 0 0 0 0 0 0 0
          0 0 0 0 0 0 0 0 0 0 0 0
          0 0 0 0 0 0 0 0 0 0 0 0
          0 0 0 0 0 0 0 7.44121 184.426 171.207 151.76 126.525
          90.553 20.7892 0.51713 0.000355081 3.39782e-10 0 0 0 0 0 0 0
          0 0 0 0 0 0 0 0 0 0 0 0
          0 0 0 0 0 0 0 0 0 0 0 0
          0 0 0 0 0 0 0 33.8317 187.225 170.757 148.43 121.045
          75.6173 11.466 0.136109 2.58914e-05 2.359e-12 0 0 0 0 0 0 0
          0 0 0 0 0 0 0 0 0 0 0 0
          0 0 0 1.94328e-06 4.59927e-05 9.90461e-05 0.000158546 0.000228633 0.000313422 0.000416664 0.000539585 0.000671601
          0.000777074 0.000848811 0.000967549 0.00114964 0.00134724 0.0015275 0.00186369 58.3435 189.78 169.592 144.437 115.313
          59.8421 5.74418 0.0315052 1.49992e-06 0 0 0 0 0 0 0 0
          0 0 0 0 0 0 0 0 0 0 0 0
          0 3.22188e-10 0.0022792 1.75891 6.31621 8.38075 9.93102 11.316 12.6542 13.9901 15.3139 16.5094
          17.3105 17.7572 18.4787 19.515 20.5194 21.3469 22.8677 81.8506 192.202 167.418 139.34 108.901
          43.483 2.43803 0.00558482 5.29754e-08 0 0 0 0 0 0 0 0
          0 0 0 0 0 0 0 0 0 0 0 0
          0 0.0332952 49.0265 456.701 548.717 578.135 601.145 621.271 639.776 657.129 673.397 688.351
          701.659 714.05 726.446 739.592 754.17 770.976 791.338 818.593 194.57 163.475 132.193 98.3283
          26.6381 0.739674 0.000544526 6.05894e-10 0 0 0 0 0 0 0 0
          0 0 0 0 0 0 0 0 0 0 0 0
          0 4.12525 87.517 146.917 197.214 219.15 234.956 247.657 258.301 267.313 274.853 280.859
          284.958 286.822 286.456 284.236 280.603 275.632 268.213 251.586 196.952 155.183 120.424 72.4039
          10.2291 0.0916473 9.9455e-06 0 0 0 0 0 0 0 0 0
          0 0 0 0 0 0 0 0 0 0 0 0
          0 0 11.8602 93.2321 148.728 157.929 162.23 164.543 165.951 166.916 167.517 166.892
          161.205 150.339 135.033 115.271 76.711 14.8412 0.225428 5.70344e-05 7.11964e-12 0 0 0
          0 0 0 0 0 0 0 0 0 0 0 0
          0 0 0 0 0 0 0 0 0 0 0 0
          0 0 14.7255 94.2254 148.685 156.322 159.242 160.391 160.833 160.994 160.934 159.675
          152.022 139.127 122.397 100.129 42.4219 2.98513 0.00847884 1.05271e-07 0 0 0 0
          0 0 0 0 0 0 0 0 0 0 0 0
          0 0 0 0 0 0 0 0 0 0 0 0
          0 0 19.9097 96.6876 150.518 157.293 159.635 160.454 160.727 160.806 160.716 159.374
          150.01 135.351 117.368 89.4481 29.5109 1.22945 0.00149187 3.76851e-09 0 0 0 0
          0 0 0 0 0 0 0 0 0 0 0 0
          0 0 0 0 0 0 0 0 0 0 0 0
          0 0 24.8498 98.4114 152.427 158.27 160.063 160.617 160.781 160.822 160.736 159.367
          147.716 130.987 111.755 75.3364 18.0142 0.395974 0.000167467 5.70139e-11 0 0 0 0
          0 0 0 0 0 0 0 0 0 0 0 0
          0 0 0 0 0 0 0 0 0 0 0 0
          0 0 28.0189 99.3577 154.356 159.143 160.398 160.732 160.818 160.836 160.765 159.441
          144.543 125.352 104.709 57.3106 8.59065 0.0808129 7.95557e-06 0 0 0 0 0
          0 0 0 0 0 0 0 0 0 0 0 0
          0 0 0 0 0 0 0 0 0 0 0 0
          0 0 27.8322 99.6884 156.309 159.887 160.637 160.801 160.837 160.843 160.795 159.636
          139.744 117.59 89.2174 35.7358 2.56315 0.00702625 7.44554e-08 0 0 0 0 0
          0 0 0 0 0 0 0 0 0 0 0 0
          0 0 0 0 0 0 0 0 0 0 0 0
          0 0 21.7008 95.2082 158.385 160.471 160.783 160.836 160.845 160.846 160.824 160.036
          131.039 105.413 60.0852 13.2658 0.254795 7.88749e-05 1.42535e-11 0 0 0 0 0
          0 0 0 0 0 0 0 0 0 0 0 0
        </DataArray>
        <DataArray type="Float32" Name="Sw" NumberOfComponents="1" format="ascii">
          1 1 1 1 1 1 1 1 1 1 1 1
          1 1 1 1 1 1 1 1 1 1 1 1
          1 1 1 1 1 1 1 1 1 1 1 1
          1 1 1 1 1 1 1 1 1 1 1 1
          1 1 1 1 1 1 1 1 1 1 1 1
          1 1 1 1 1 1 1 1 1 1 1 1
          1 1 1 1 1 1 1 1 1 1 1 1
          1 1 1 1 1 1 1 1 1 1 1 1
          1 1 1 1 1 1 1 1 1 1 1 1
          1 1 1 1 1 1 1 1 1 1 1 1
          1 1 1 1 1 1 1 1 1 1 1 1
          1 1 1 1 1 1 1 1 1 1 1 1
          1 1 1 1 1 1 1 1 1 1 1 1
          1 1 1 1 1 1 1 1 1 1 1 1
          1 1 1 1 1 1 1 1 1 1 1 1
          1 1 1 1 1 1 1 1 1 1 1 1
          1 1 1 1 1 1 1 1 1 1 1 1
          1 1 1 1 1 1 1 1 1 1 1 1
          1 1 1 1 1 1 1 1 1 1 1 0.999999
          1 1 1 1 1 1 1 1 1 1 1 1
          1 1 1 1 1 1 1 1 1 1 1 1
          1 1 1 1 1 1 1 1 1 1 1 1
          1 1 1 1 1 1 1 1 1 0.999998 0.999946 0.999927
          0.999989 1 1 1 1 1 1 1 1 1 1 1
          1 1 1 1 1 1 1 1 1 1 1 1
          1 1 1 1 1 1 1 1 1 1 1 1
          1 1 1 1 1 1 1 1 1 0.999867 0.999326 0.99921
          0.999715 0.999987 1 1 1 1 1 1 1 1 1 1
          1 1 1 1 1 1 1 1 1 1 1 1
          1 1 1 1 1 1 1 1 1 1 1 1
          1 1 1 1 1 1 1 1 0.999969 0.998912 0.997379 0.99716
          0.998443 0.999729 0.999996 1 1 1 1 1 1 1 1 1
          1 1 1 1 1 1 1 1 1 1 1 1
          1 1 1 1 1 1 1 1 1 1 1 1
          1 1 1 1 1 1 1 1 0.999495 0.996543 0.994044 0.993858
          0.996073 0.998735 0.999912 1 1 1 1 1 1 1 1 1
          1 1 1 1 1 1 1 1 1 1 1 1
          1 1 1 1 1 1 1 1 1 1 1 1
          1 1 1 1 1 1 1 1 0.997759 0.992787 0.989384 0.989494
          0.992999 0.997122 0.999567 0.999992 1 1 1 1 1 1 1 1
          1 1 1 1 1 1 1 1 1 1 1 1
          1 1 1 1 1 1 1 1 1 1 1 1
          1 1 1 1 1 1 1 1 0.994611 0.987539 0.983598 0.984444
          0.989516 0.995345 0.998982 0.999958 1 1 1 1 1 1 1 1
          1 1 1 1 1 1 1 1 1 1 1 1
          1 1 1 1 1 1 1 1 1 1 1 1
          1 1 1 1 1 1 1 1 0.990033 0.981006 0.977053 0.979185
          0.986079 0.99375 0.998391 0.999898 1 1 1 1 1 1 1 1
          1 1 1 1 1 1 1 1 1 1 1 1
          1 1 1 1 1 1 1 1 1 1 1 1
          1 1 1 1 1 1 1 1 0.983997 0.973417 0.969938 0.973986
          0.983185 0.992609 0.998006 0.999849 0.999999 1 1 1 1 1 1 1
          1 1 1 1 1 1 1 1 1 1 1 1
          1 1 1 1 1 1 1 1 1 1 1 1
          1 1 1 1 1 1 1 1 0.976701 0.96483 0.962559 0.969313
          0.981251 0.992163 0.997947 0.999847 0.999999 1 1 1 1 1 1 1
          1 1 1 1 1 1 1 1 1 1 1 1
          1 1 1 1 1 1 1 1 1 1 1 1
          1 1 1 1 1 1 1 1 0.967566 0.955029 0.955291 0.96584
          0.980745 0.992562 0.998233 0.999893 1 1 1 1 1 1 1 1
          1 1 1 1 1 1 1 1 1 1 1 1
          1 1 1 1 1 1 1 1 1 1 1 1
          1 1 1 1 1 1 1 1 0.954584 0.943427 0.948833 0.964469
          0.982032 0.99375 0.998767 0.999951 1 1 1 1 1 1 1 1
          1 1 1 1 1 1 1 1 1 1 1 1
          1 1 1 1 1 1 1 1 1 1 1 1
          1 1 1 1 1 1 1 1 0.925056 0.929704 0.944922 0.966084
          0.984994 0.995414 0.999344 0.999987 1 1 1 1 1 1 1 1
          1 1 1 1 1 1 1 1 1 1 1 1
          1 1 1 1 1 1 1 1 1 1 1 1
          1 1 1 1 1 1 1 1 0.909717 0.923523 0.945888 0.970297
          0.988625 0.997047 0.999743 0.999998 1 1 1 1 1 1 1 1
          1 1 1 1 1 1 1 1 1 1 1 1
          1 1 1 1 1 1 1 1 1 1 1 1
          1 1 1 1 1 1 1 1 0.899611 0.921191 0.949119 0.975047
          0.991667 0.998255 0.999919 1 1 1 1 1 1 1 1 1
          1 1 1 1 1 1 1 1 1 1 1 1
          1 1 1 1 1 1 1 1 1 1 1 1
          1 1 1 1 1 1 1 0.999975 0.891858 0.920767 0.953135 0.979403
          0.993818 0.999016 0.999977 1 1 1 1 1 1 1 1 1
          1 1 1 1 1 1 1 1 1 1 1 1
          1 1 1 1 1 1 1 1 1 1 1 1
          1 1 1 1 1 1 1 0.999884 0.885001 0.92165 0.957542 0.983195
          0.995413 0.999474 0.999994 1 1 1 1 1 1 1 1 1
          1 1 1 1 1 1 1 1 1 1 1 1
          1 1 1 1 1 1 1 1 1 1 1 1
          1 1 1 1 1 1 1 0.999799 0.878523 0.923908 0.962421 0.986567
          0.996684 0.999741 0.999999 1 1 1 1 1 1 1 1 1
          1 1 1 1 1 1 1 1 1 1 1 1
          1 1 1 0.999994 0.999979 0.999972 0.999966 0.999961 0.999957 0.999952 0.999948 0.999944
          0.999941 0.99994 0.999937 0.999933 0.99993 0.999927 0.999922 0.999717 0.872187 0.928002 0.968037 0.989695
          0.997763 0.999891 1 1 1 1 1 1 1 1 1 1
          1 1 1 1 1 1 1 1 1 1 1 1
          1 1 0.999832 0.998241 0.997819 0.997677 0.997563 0.997462 0.997367 0.997276 0.99719 0.997109
          0.997037 0.996968 0.996898 0.996823 0.996739 0.996639 0.996516 0.996346 0.865815 0.935043 0.974834 0.992664
          0.998714 0.999967 1 1 1 1 1 1 1 1 1 1
          1 1 1 1 1 1 1 1 1 1 1 1
          1 0.999815 0.99419 0.959442 0.858491 0.790073 0.734006 0.686483 0.645941 0.611654 0.583293 0.56106
          0.546121 0.539397 0.540714 0.548738 0.562001 0.58039 0.608247 0.671553 0.859228 0.948275 0.983589 0.995697
          0.999532 0.999996 1 1 1 1 1 1 1 1 1 1
          1 1 1 1 1 1 1 1 1 1 1 1
          1 1 0.999455 0.993458 0.95716 0.944125 0.937164 0.933185 0.930679 0.928925 0.927818 0.928969
          0.938875 0.955054 0.972277 0.986589 0.995312 0.999311 0.99999 1 1 1 1 1
          1 1 1 1 1 1 1 1 1 1 1 1
          1 1 1 1 1 1 1 1 1 1 1 1
          1 1 0.999317 0.993316 0.957215 0.94658 0.942061 0.94021 0.939487 0.939223 0.939322 0.941368
          0.952775 0.968257 0.982314 0.992334 0.997827 0.999866 1 1 1 1 1 1
          1 1 1 1 1 1 1 1 1 1 1 1
          1 1 1 1 1 1 1 1 1 1 1 1
          1 1 0.999061 0.99294 0.954816 0.945105 0.941432 0.940108 0.939661 0.939531 0.939679 0.94185
          0.95549 0.97198 0.985424 0.993957 0.998561 0.999945 1 1 1 1 1 1
          1 1 1 1 1 1 1 1 1 1 1 1
          1 1 1 1 1 1 1 1 1 1 1 1
          1 1 0.998808 0.99265 0.952214 0.943594 0.940743 0.939841 0.939572 0.939505 0.939647 0.94186
          0.958446 0.975865 0.988381 0.995438 0.999155 0.999982 1 1 1 1 1 1
          1 1 1 1 1 1 1 1 1 1 1 1
          1 1 1 1 1 1 1 1 1 1 1 1
          1 1 0.998641 0.992479 0.949481 0.942218 0.940198 0.939653 0.939512 0.939483 0.9396 0.941742
          0.962296 0.980265 0.991276 0.996864 0.999609 0.999996 1 1 1 1 1 1
          1 1 1 1 1 1 1 1 1 1 1 1
          1 1 1 1 1 1 1 1 1 1 1 1
          1 1 0.998651 0.992418 0.946599 0.941027 0.939809 0.93954 0.939481 0.939471 0.93955 0.94143
          0.967616 0.985296 0.993986 0.998217 0.999885 1 1 1 1 1 1 1
          1 1 1 1 1 1 1 1 1 1 1 1
          1 1 1 1 1 1 1 1 1 1 1 1
          1 1 0.99897 0.993171 0.943413 0.94008 0.93957 0.939483 0.939468 0.939466 0.939502 0.940785
          0.975821 0.991067 0.996666 0.999387 0.999989 1 1 1 1 1 1 1
          1 1 1 1 1 1 1 1 1 1 1 1
        </DataArray>
        <DataArray type="Float32" Name="pw" NumberOfComponents="1" format="ascii">
          152500 151568 150802 150144 149565 149047 148576 148144 147745 147373 147024 146694
          146381 146081 145793 145515 145246 144983 144727 144477 144230 143989 143750 143515
          143284 143055 142828 142605 142385 142167 141952 141740 141531 141325 141122 140922
          140725 140531 140340 140151 139966 139782 139601 139421 139243 139066 138890 138715
          150981 150176 149467 148839 148279 147772 147311 146886 146492 146124 145779 145452
          145141 144843 144557 144280 144012 143751 143496 143246 143000 142759 142521 142286
          142054 141826 141599 141376 141156 140938 140723 140510 140301 140095 139892 139692
          139495 139302 139111 138923 138737 138554 138373 138194 138016 137839 137663 137488
          149379 148687 148049 147468 146938 146454 146008 145596 145212 144853 144514 144193
          143887 143594 143311 143037 142772 142512 142259 142010 141766 141525 141288 141054
          140822 140594 140368 140144 139924 139706 139491 139278 139069 138863 138660 138460
          138263 138070 137879 137691 137506 137324 137143 136964 136787 136611 136436 136262
          147746 147146 146576 146045 145552 145096 144672 144278 143909 143561 143233 142920
          142621 142334 142056 141787 141524 141268 141017 140770 140528 140288 140052 139818
          139588 139359 139133 138910 138689 138471 138256 138043 137834 137627 137424 137224
          137028 136834 136644 136457 136273 136091 135911 135734 135558 135383 135208 135035
          146100 145572 145064 144583 144130 143705 143308 142934 142583 142251 141935 141633
          141343 141064 140793 140529 140271 140019 139771 139527 139286 139048 138813 138581
          138350 138122 137897 137673 137452 137234 137018 136805 136595 136388 136185 135985
          135789 135596 135407 135220 135037 134856 134678 134501 134326 134153 133980 133808
          144446 143980 143527 143092 142679 142288 141918 141569 141238 140924 140623 140334
          140055 139785 139522 139265 139013 138765 138521 138280 138042 137806 137572 137341
          137111 136883 136657 136434 136212 135993 135777 135564 135353 135146 134943 134743
          134547 134355 134166 133981 133799 133619 133442 133268 133094 132922 132751 132581
          142787 142374 141970 141580 141206 140849 140509 140186 139878 139583 139299 139025
          138759 138499 138245 137996 137750 137508 137268 137030 136795 136561 136329 136098
          135869 135642 135416 135192 134970 134750 134533 134319 134108 133901 133697 133497
          133301 133109 132922 132738 132557 132380 132205 132032 131861 131691 131522 131353
          141125 140759 140400 140051 139715 139392 139083 138788 138504 138230 137965 137708
          137456 137208 136964 136723 136484 136248 136013 135779 135546 135315 135084 134855
          134626 134399 134173 133949 133726 133505 133287 133072 132860 132651 132447 132247
          132051 131860 131674 131492 131313 131138 130965 130795 130626 130458 130292 130126
          139461 139138 138820 138511 138211 137922 137644 137377 137119 136869 136625 136385
          136148 135913 135680 135448 135217 134986 134756 134526 134296 134067 133838 133610
          133382 133155 132929 132703 132479 132257 132037 131821 131607 131398 131193 130992
          130796 130606 130422 130242 130066 129893 129723 129556 129390 129225 129061 128898
          137795 137511 137232 136960 136696 136441 136195 135958 135728 135502 135280 135059
          134838 134617 134395 134172 133948 133724 133499 133273 133046 132819 132592 132365
          132137 131910 131683 131456 131231 131007 130785 130566 130351 130140 129934 129732
          129536 129347 129165 128988 128815 128646 128479 128315 128152 127991 127830 127671
          136127 135881 135638 135401 135171 134950 134737 134531 134331 134132 133933 133732
          133528 133321 133111 132897 132681 132463 132242 132020 131797 131572 131346 131120
          130893 130665 130437 130209 129981 129754 129529 129307 129090 128878 128669 128465
          128269 128082 127903 127730 127561 127396 127233 127072 126914 126756 126599 126442
          134458 134246 134037 133834 133638 133451 133272 133100 132932 132763 132589 132409
          132222 132029 131830 131625 131416 131203 130987 130769 130548 130325 130101 129875
          129648 129420 129191 128961 128730 128500 128271 128044 127824 127608 127396 127190
          126994 126811 126636 126468 126304 126143 125985 125828 125674 125520 125367 125214
          132788 132608 132431 132260 132097 131944 131800 131665 131534 131397 131251 131093
          130923 130743 130554 130357 130155 129947 129735 129520 129301 129080 128857 128632
          128405 128176 127946 127713 127479 127244 127009 126776 126550 126329 126112 125904
          125711 125532 125364 125202 125043 124888 124734 124583 124432 124283 124134 123986
          131117 130966 130819 130679 130547 130426 130319 130226 130141 130042 129925 129788
          129634 129465 129285 129096 128898 128695 128486 128274 128057 127838 127616 127391
          127164 126934 126702 126467 126229 125988 125745 125501 125264 125035 124813 124606
          124417 124247 124086 123931 123779 123630 123482 123336 123190 123046 122901 122758
          129444 129321 129201 129088 128985 128895 128825 128780 128760 128707 128618 128500
          128359 128199 128026 127842 127648 127448 127242 127031 126816 126598 126376 126152
          125925 125695 125462 125225 124983 124735 124481 124219 123958 123718 123494 123292
          123115 122955 122804 122658 122513 122370 122229 122088 121948 121808 121668 121529
          127771 127672 127577 127488 127409 127346 127305 127308 127412 127407 127341 127235
          127101 126947 126778 126596 126405 126207 126002 125792 125578 125361 125140 124916
          124689 124459 124225 123986 123742 123490 123224 122936 122602 122361 122149 121964
          121804 121659 121519 121382 121246 121110 120974 120839 120704 120570 120435 120300
          126096 126019 125946 125878 125819 125772 125743 125735 125850 125880 125827 125730
          125604 125458 125298 125125 124943 124754 124559 124358 124153 123944 123731 123514
          123294 123070 122840 122603 122355 122091 121793 121413 121086 120944 120780 120626
          120489 120360 120233 120106 119977 119849 119720 119591 119461 119331 119202 119072
          124420 124363 124309 124259 124216 124182 124159 124149 124163 124144 124081 123985
          123867 123732 123584 123427 123262 123089 122911 122728 122539 122347 122150 121948
          121742 121529 121309 121078 120831 120559 120248 119869 119626 119534 119411 119289
          119175 119063 118947 118830 118710 118588 118466 118342 118218 118093 117968 117843
          122743 122705 122668 122634 122604 122579 122562 122553 122523 122454 122367 122263
          122146 122018 121881 121737 121587 121431 121269 121102 120930 120754 120573 120387
          120196 119997 119789 119569 119331 119068 118769 118422 118218 118152 118059 117963
          117868 117769 117664 117555 117443 117329 117212 117094 116975 116856 116735 116615
          121066 121045 121025 121005 120986 120970 120957 120949 120892 120782 120670 120554
          120435 120313 120186 120054 119918 119777 119632 119481 119326 119166 119002 118832
          118656 118474 118281 118077 117856 117612 117338 117029 116853 116801 116728 116650
          116569 116481 116386 116285 116180 116071 115960 115848 115734 115618 115503 115386
          119389 119385 119380 119374 119366 119356 119347 119340 119259 119111 118976 118849
          118729 118611 118494 118376 118254 118129 117999 117865 117726 117583 117435 117283
          117125 116960 116786 116602 116403 116186 115944 115673 115521 115477 115417 115352
          115281 115201 115113 115018 114919 114816 114710 114602 114493 114382 114270 114158
          117712 117726 117738 117745 117747 117743 117735 117726 117617 117429 117272 117138
          117020 116910 116804 116700 116594 116485 116371 116254 116131 116005 115874 115739
          115599 115454 115302 115142 114970 114783 114577 114347 114216 114177 114125 114068
          114003 113929 113846 113756 113662 113564 113462 113359 113253 113146 113038 112930
          116036 116071 116100 116122 116134 116134 116123 116108 115948 115715 115545 115413
          115302 115204 115113 115025 114938 114845 114748 114646 114540 114430 114317 114200