<?xml version="1.0"?>
<VTKFile type="UnstructuredGrid" version="0.1" byte_order="LittleEndian">
  <UnstructuredGrid>
    <Piece NumberOfCells="5709" NumberOfPoints="6151">
      <CellData Scalars="Sn">
        <DataArray type="Float32" Name="Sn" NumberOfComponents="1" format="ascii">
          0 0 0 0 0 0 0 0 0 0 0 0
          0 0 0 0 0 0 0 0 0 0 0 0
          0 0 0 0 0 0 0 0 0 0 0 0
          0 0 0 0 0 0 0 0 0 0 0 0
          0 0 0 0 0 0 0 0 0 0 0 0
          0 0 0 0 0 0 0 0 0 0 0 0
          0 0 0 0 0 0 0 0 0 0 0 0
          0 0 0 0 0 0 0 0 0 0 0 0
          0 0 0 0 0 0 0 0 0 0 0 0
          0 0 0 -2.67823e-36 0 0 0 0 0 0 0 0
          0 0 0 0 0 0 0 0 0 0 0 0
          0 0 0 0 0 0 0 0 0 0 0 0
          0 0 0 0 0 0 0 0 0 0 0 0
          0 0 0 0 0 0 0 0 0 0 0 0
          0 0 0 0 0 0 0 0 -5.98734e-32 -7.97861e-29 -5.81628e-33 0
          0 0 0 0 0 0 0 0 0 0 0 0
          0 0 0 0 0 0 0 0 0 0 0 0
          0 0 0 0 0 0 0 0 0 0 0 0
          0 0 0 0 0 0 0 0 0 0 0 0
          0 0 0 0 0 0 0 0 0 0 0 0
          0 -4.61692e-35 2.93851e-28 4.32682e-23 9.8188e-28 -8.84342e-33 0 0 0 0 0 0
          0 0 0 0 0 0 0 0 0 0 0 0
          0 0 0 0 0 0 0 0 0 0 0 0
          0 0 0 0 0 0 0 0 0 0 0 0
          0 0 0 0 0 0 0 0 0 0 0 0
          0 0 0 0 0 0 1.4639e-37 -2.36901e-31 6.80165e-16 4.48231e-13 3.74614e-17 -3.44861e-27
          -3.98016e-33 0 0 0 0 0 0 0 0 0 0 0
          0 0 0 0 0 0 0 0 0 0 0 0
          0 0 0 0 0 0 0 0 0 0 0 0
          0 0 0 0 0 0 0 0 0 0 0 0
          0 0 0 0 0 0 0 0 0 0 0 0
          -1.96458e-33 3.83593e-18 2.40193e-09 7.2512e-08 5.2862e-10 3.37586e-17 2.36484e-26 -5.42551e-34 0 0 0 0
          0 0 0 0 0 0 0 0 0 0 0 0
          0 0 0 0 0 0 0 0 0 0 0 0
          0 0 0 0 0 0 0 0 0 0 0 0
          0 0 0 0 0 0 0 0 0 0 0 0
          0 0 0 0 0 0 1.93192e-20 1.82904e-10 5.35354e-06 5.35362e-06 9.19002e-06 8.43773e-06
          3.18705e-05 3.18761e-05 5.5201e-05 5.636e-05 2.43931e-06 2.42495e-06 3.75396e-06 4.20264e-06 4.16179e-10 7.83542e-18 8.12671e-27 5.35425e-36
          0 0 0 0 0 0 0 0 0 0 0 0
          0 0 0 0 0 0 0 0 0 0 0 0
          0 0 0 0 0 0 0 0 0 0 0 0
          0 0 0 0 0 0 0 0 0 0 0 0
          0 0 0 0 0 0 0 0 1.82334e-24 1.15615e-11 1.23945e-06 1.23982e-06
          3.09861e-06 1.23936e-06 0.000350238 0.000368561 0.000956266 0.000483155 0.000949655 0.000932584 0.00171321 0.00196758 0.000248187 0.000235655
          0.000403634 0.000579522 2.2051e-06 1.39799e-06 1.67374e-06 4.05934e-06 7.11722e-11 2.49504e-19 -1.07983e-28 7.47651e-37 0 0
          0 0 0 0 0 0 0 0 0 0 0 0
          0 0 0 0 0 0 0 0 0 0 0 0
          0 0 0 0 0 0 0 0 0 0 0 0
          0 0 0 0 0 0 0 0 0 0 0 0
          0 0 0 0 0 1.36216e-13 2.93534e-07 2.93562e-07 7.28998e-07 2.9415e-07 9.65558e-07 9.65577e-07
          1.37216e-06 1.24331e-06 0.000247072 0.000256824 0.0005673 0.000417969 0.00181853 0.00242753 0.00453032 0.00278466 7.17958e-05 8.02576e-05
          0.000381633 7.75631e-05 0.00216256 0.00248187 0.00406402 0.00326944 0.00457146 0.00512452 0.00761233 0.00665011 0.0109465 0.0123666
          0.016533 0.0147627 0.00620383 0.00764677 0.0113434 0.00869414 0.0066378 0.00694479 0.00989703 0.00943119 0.00615494 0.00552531
          0.00724052 0.00867095 0.0133016 0.0118997 0.0147975 0.0171805 0.0143249 0.0148155 0.0187687 0.0183317 0.00361784 0.0026197
          0.00367217 0.00750914 0.000185971 0.000104661 0.000112592 0.000295658 3.48119e-07 1.78917e-07 1.79479e-07 3.21212e-07 1.25018e-12 1.01545e-22
          -8.60465e-30 0 0 0 0 0 0 0 0 0 0 0
          0 0 0 0 0 0 0 0 0 0 0 0
          0 0 0 0 0 0 0 0 0 0 0 0
          0 0 0 0 0 0 0 0 0 0 0 0
          0 0 0 0 0 0 0 1.2974e-20 6.58874e-11 1.56919e-10 1.75401e-10 6.58874e-11
          4.18096e-06 4.18098e-06 4.18161e-06 4.18016e-06 0.000112496 0.000113796 0.000225353 0.00017868 0.00110561 0.00143328 0.00292639 0.00149353
          5.03978e-06 5.04355e-06 8.32103e-06 5.14463e-06 0.000366419 0.00236645 0.00497532 0.00178056 0.00553414 0.00900177 0.0136783 0.0090668
          0.0135723 0.0185042 0.0233047 0.0182638 0.00430471 0.00838608 0.0127231 0.00735006 0.0134991 0.0172788 0.0222302 0.0183084
          0.0204373 0.0225276 0.0273817 0.025349 0.030196 0.0323693 0.0369898 0.034866 0.0231561 0.0270753 0.031779 0.0279049
          0.0239985 0.0243704 0.0285792 0.0282879 0.0230226 0.0215078 0.0254591 0.0271987 0.0324304 0.0302952 0.0338037 0.0365584
          0.0336252 0.0339411 0.0380888 0.0378721 0.0175069 0.0142325 0.0169343 0.02077 0.00805039 0.00529615 0.00587264 0.0096868
          0.0123631 0.0077613 0.00870848 0.0143609 0.0248714 0.0205553 0.0231484 0.0279864 0.000928195 0.000546375 0.000574962 0.00181563
          7.36804e-06 4.24096e-06 4.24029e-06 7.46549e-06 5.19905e-10 9.42058e-18 1.87304e-27 -8.25173e-35 0 0 0 0
          0 0 0 0 0 0 0 0 0 0 0 0
          0 0 0 0 0 0 0 0 0 0 0 0
          0 0 0 0 0 0 0 0 0 0 0 0
          0 0 0 0 0 0 0 0 0 0 0 0
          0 1.98302e-20 2.73548e-11 3.44929e-08 6.48501e-11 1.77964e-08 1.12183e-05 1.97471e-10 7.33438e-11 4.54705e-05 0.000238133 0.00122305
          6.82924e-05 0.00319593 0.00654285 0.0100891 0.00546263 0.00837848 0.0141856 0.0182557 0.0118822 0.000454226 0.0031937 0.00571079
          0.00171701 0.0117453 0.0175123 0.0220572 0.0161704 0.0230215 0.0280495 0.0325509 0.0275651 0.0318961 0.0368348 0.0408946
          0.0360138 0.0204713 0.0264122 0.0305834 0.0246491 0.0325547 0.0363681 0.0407228 0.0369614 0.0394421 0.0416986 0.0459895
          0.0437637 0.0479003 0.0500421 0.0538325 0.0517955 0.0411923 0.0449093 0.0488597 0.0451865 0.0429769 0.043142 0.0471744
          0.0471708 0.0416358 0.0379144 0.04127 0.0454211 0.0489037 0.0446658 0.047384 0.0520228 0.0510829 0.0508949 0.0543185
          0.0547275 0.0318201 0.0265987 0.0288766 0.0346907 0.0175769 0.0119835 0.013079 0.0193332 0.0212379 0.0143005 0.0138958
          0.0219365 0.0379419 0.0315103 0.0326616 0.0402209 0.00592481 0.00364826 0.00378312 0.00624306 0.000862148 0.000459112 0.000448631
          0.000851037 0.000823028 0.000375493 0.00036202 0.000719862 0.00654238 0.00396069 0.00368037 0.00611438 6.03813e-06 3.56688e-06 3.56608e-06
          5.27954e-06 3.47088e-10 4.04357e-18 5.85846e-29 -3.15369e-35 0 0 0 0 0 0 0
          0 0 0 0 0 0 0 0 0 0 0 0
          0 0 0 0 0 0 0 0 0 0 0 0
          0 0 0 0 0 0 0 0 0 0 0 0
          0 0 0 0 0 0 0 0 0 9.61453e-24 5.73918e-13 5.73919e-13
          2.438e-11 5.73918e-13 3.87605e-07 7.15329e-07 0.000331357 0.0015228 3.11649e-05 0.00052228 0.00357855 0.0060235 0.00189555 1.0257e-06
          1.05532e-06 1.37162e-05 3.94619e-06 0.0037627 0.00880776 0.012472 0.00620964 0.015724 0.0223409 0.0262309 0.0195287 0.0233033
          0.0300027 0.0336586 0.0269814 0.00921716 0.0162276 0.0199069 0.0126867 0.0287094 0.0345768 0.0383809 0.0325628 0.0399408
          0.0447731 0.0484832 0.0436954 0.0473278 0.052076 0.0555874 0.0508734 0.0362817 0.0420541 0.0456298 0.0398917 0.0490337
          0.0526631 0.0562644 0.0526966 0.055528 0.057439 0.0608169 0.0590404 0.062403 0.0640164 0.0670291 0.0656359 0.0562406
          0.0597366 0.0631106 0.0597008 0.0581614 0.0574918 0.0603306 0.0613301 0.0548617 0.0500227 0.0517726 0.0572355 0.0591838
          0.0529316 0.0534986 0.0606501 0.0642755 0.0628625 0.0650168 0.0669512 0.0427788 0.0333989 0.0333857 0.0436621 0.0226591
          0.0122496 0.0112829 0.0219903 0.0209505 0.0104692 0.00922037 0.0194754 0.0438805 0.0327976 0.0316713 0.0435004 0.0047935
          0.00241726 0.00225605 0.00436845 0.000314718 0.00015703 0.000154638 0.000280122 0.000140383 5.55155e-05 5.51489e-05 0.000121853 0.00381398
          0.00182854 0.00170282 0.00334945 8.32781e-07 4.96554e-07 4.96533e-07 5.40091e-07 8.03516e-12 3.01004e-21 -3.15231e-31 1.74286e-38 0
          0 0 0 0 0 0 0 0 0 0 0 0
          0 0 0 0 0 0 0 0 0 0 0 0
          0 0 0 0 0 0 0 0 0 0 0 0
          0 0 0 0 0 0 0 0 0 0 0 0
          0 0 0 2.14638e-25 4.20785e-14 4.20785e-14 4.20785e-14 4.20785e-14 4.20785e-14 6.51913e-13 6.51913e-13 3.47391e-12
          2.69574e-12 2.52055e-13 8.90452e-05 0.00029044 0.00106889 8.97946e-05 0.00370558 0.0088195 0.0119791 0.00560497 0.00780546 0.0151135
          0.0181858 0.0103663 0.000104583 0.00222342 0.00364812 0.000227503 0.0161507 0.0234896 0.0269542 0.0195308 0.0305606 0.0372216
          0.0407146 0.0340477 0.0374887 0.0441881 0.0476904 0.0409338 0.0228343 0.0303464 0.0337137 0.0260876 0.0434277 0.0491477
          0.0526407 0.0469199 0.054372 0.0590542 0.0625042 0.0578555 0.0613615 0.0659673 0.0694633 0.0649195 0.0504168 0.0561526
          0.0597196 0.0539602 0.0631079 0.0664081 0.0696381 0.0664822 0.0687496 0.0698597 0.0724717 0.0717368 0.0745872 0.0748458
          0.0769362 0.0772713 0.0698427 0.0728056 0.0759001 0.0731959 0.069362 0.0667961 0.0681239 0.0714295 0.0616314 0.0534925
          0.0528774 0.0620377 0.0618447 0.0516209 0.0496731 0.0609874 0.0731379 0.0689658 0.0692536 0.0744293 0.0425566 0.0300921
          0.0280797 0.041049 0.017781 0.00824761 0.00697406 0.0157391 0.0136369 0.00595105 0.00470815 0.0113776 0.0389679 0.0256719
          0.0228662 0.0363095 0.00271869 0.00124529 0.00115439 0.00224732 8.16587e-05 4.66192e-05 4.64016e-05 7.30861e-05 1.48354e-05 7.24196e-06
          7.2345e-06 1.29427e-05 0.00153605 0.0006323 0.000596958 0.00115027 8.21486e-08 4.98053e-08 4.9805e-08 5.06714e-08 9.96534e-14 6.83548e-25
          -3.36422e-32 0 0 0 0 0 0 0 0 0 0 0
          0 0 0 0 0 0 0 0 0 0 0 0
          0 0 0 0 0 0 0 0 0 0 0 0
          0 0 0 0 0 0 0 0 0 0 0 0
          0 0 0 0 0 0 1.16277e-14 2.02189e-08 6.02003e-08 6.02011e-08 7.69897e-08 6.19248e-08
          1.84186e-06 1.05537e-05 0.000231032 1.86861e-06 2.0284e-08 0.000888883 0.00548635 0.00758314 0.00191133 0.0130863 0.0212534 0.0243545
          0.0158675 0.0187505 0.0275745 0.0309862 0.0217729 0.00319464 0.0100175 0.0125804 0.00467 0.0293503 0.0371158 0.040614
          0.0326791 0.044439 0.0512732 0.0549893 0.0480628 0.0518683 0.0588951 0.0630482 0.0559202 0.0361546 0.0442795 0.048182
          0.0398506 0.0575977 0.0633824 0.0671765 0.061374 0.0685607 0.07301 0.0766127 0.0723081 0.0761815 0.080265 0.0839355
          0.0801839 0.0653378 0.0711399 0.0753019 0.0695362 0.0765415 0.0788988 0.0817565 0.0798607 0.0797439 0.078678 0.079983
          0.0819352 0.0837545 0.0807459 0.0808423 0.0850842 0.0831165 0.0844059 0.086748 0.0862404 0.0752238 0.0689028 0.0678174
          0.0754229 0.0593978 0.0470217 0.0436456 0.0570079 0.0537878 0.0396207 0.0350601 0.0497444 0.0749175 0.0659065 0.0630893
          0.07359 0.033121 0.0197691 0.0164446 0.0294222 0.00926546 0.00374778 0.00255684 0.00729471 0.00564987 0.00176779 0.000849475
          0.00411985 0.0253874 0.0131559 0.01013 0.0211725 0.000611052 0.000235005 0.000229233 0.000388384 2.65004e-06 1.84559e-06 1.84512e-06
          2.25509e-06 5.25755e-08 0.000119061 4.1718e-05 4.1311e-05 5.45145e-05 1.71631e-10 1.05151e-10 1.05151e-10 1.05167e-10 7.88987e-19 1.29243e-33
          0 0 0 0 0 0 0 0 0 0 0 0
          0 0 0 0 0 0 0 0 0 0 0 0
          0 0 0 0 0 0 0 0 0 0 0 0
          0 0 0 0 0 0 0 0 0 0 0 0
          0 0 0 0 0 1.19821e-24 1.9658e-13 1.9658e-13 2.29217e-12 1.9658e-13 3.48828e-07 9.55112e-06
          0.000962678 0.00153048 2.86346e-05 0.000210598 0.00220104 0.00254488 0.000201397 3.46331e-07 3.46336e-07 3.46222e-07 3.46104e-07 0.00633205
          0.0152962 0.0182015 0.00819633 0.0250359 0.0346767 0.0387343 0.028611 0.0326429 0.0432823 0.0484653 0.037265 0.0105057
          0.0214881 0.025226 0.0130134 0.0438478 0.0523969 0.0570085 0.0482348 0.0602875 0.0675081 0.0723348 0.0650461 0.0702795
          0.0775829 0.0832857 0.0760733 0.0531229 0.062117 0.0678399 0.0586482 0.074012 0.0796784 0.0842602 0.0787975 0.0842935
          0.0875589 0.0910251 0.0884493 0.0925344 0.0941728 0.0967943 0.0963597 0.0839013 0.0889939 0.0937528 0.089281 0.0891288
          0.088655 0.0899715 0.091638 0.0857878 0.080138 0.0784934 0.0857124 0.0847014 0.0757752 0.0718745 0.0826017 0.0935918
          0.090527 0.0901464 0.0947957 0.0713258 0.0593156 0.0545845 0.0680252 0.0449417 0.0301254 0.0250125 0.0395094 0.0336406
          0.0199171 0.015029 0.0275939 0.0636243 0.0489676 0.0426385 0.0581305 0.0169493 0.0076167 0.00561509 0.0129429 0.00284017
          0.000443567 0.000105221 0.0017038 0.000874995 3.35302e-05 2.40792e-06 0.000299208 0.00947488 0.00394758 0.00254097 0.00679232 5.79178e-06
          2.39366e-06 2.39221e-06 2.48791e-06 4.28719e-10 3.78312e-11 2.50718e-08 1.03831e-17 -2.49472e-30 2.19943e-37 0 0 0
          0 0 0 0 0 0 0 0 0 0 0 0
          0 0 0 0 0 0 0 0 0 0 0 0
          0 0 0 0 0 0 0 0 0 0 0 0
          0 0 0 0 0 0 0 0 0 0 0 0
          0 0 0 0 0 0 0 6.36777e-23 6.36777e-23 6.36777e-23 6.36777e-23 0.000161522
          0.00266958 0.00256763 0.000332657 0.000564683 0.00216083 0.000908216 0.000436729 6.37093e-23 6.37093e-23 6.41723e-23 6.38571e-23 0.0158431
          0.0296539 0.0352245 0.0193955 0.042715 0.0544969 0.0616923 0.0493922 0.0579531 0.0704824 0.0813084 0.0694071 0.0244622
          0.0428051 0.0542796 0.0333073 0.0649906 0.0743128 0.0816656 0.0723789 0.0824974 0.0894177 0.0958229 0.089552 0.0970447
          0.102113 0.107862 0.104416 0.0810489 0.0899324 0.0988179 0.0910526 0.0947983 0.0983071 0.102366 0.100162 0.0996743
          0.0986708 0.0995884 0.102252 0.103843 0.0993202 0.0976642 0.104186 0.10503 0.105674 0.107938 0.109092 0.0950536
          0.0886616 0.08592 0.0941716 0.0792767 0.0667368 0.0604042 0.0746287 0.068641 0.0530639 0.0450679 0.0614346 0.0919813
          0.0818046 0.0762698 0.0883689 0.051658 0.0358693 0.0290106 0.0444531 0.0216516 0.0106845 0.00735847 0.0160819 0.0112214
          0.00495025 0.0031121 0.00758542 0.0368827 0.0224223 0.0164002 0.0293831 0.0046478 0.0014009 0.000427632 0.00284087 7.75264e-05
          4.01307e-05 3.99149e-05 4.12944e-05 7.73266e-07 0.00144011 0.000109217 6.62451e-06 0.00049088 5.86994e-08 3.54924e-08 3.54923e-08 3.54941e-08
          4.51923e-14 1.23904e-25 8.68886e-38 0 0 0 0 0 0 0 0 0
          0 0 0 0 0 0 0 0 0 0 0 0
          0 0 0 0 0 0 0 0 0 0 0 0
          0 0 0 0 0 0 0 0 0 0 0 0
          0 0 0 0 0 0 0 0 0 5.96297e-26 4.81567e-13 3.66029e-11
          0.00018359 0.000302534 1.64455e-10 1.30233e-05 0.000374005 0.000375279 1.39774e-05 5.53508e-12 0.0627212 0.0738903 0.0913585 0.0830545
          0.0845555 0.0939841 0.106089 0.0993198 0.111415 0.115896 0.123301 0.120399 0.0988898 0.105774 0.116114 0.109962
          0.101713 0.107403 0.114825 0.111301 0.111077 0.112663 0.116117 0.116499 0.120328 0.117964 0.118142 0.122456
          0.119031 0.120593 0.12457 0.124762 0.111996 0.108862 0.108227 0.113436 0.103059 0.0944996 0.0898481 0.100344
          0.096083 0.0838467 0.0767196 0.0904982 0.113236 0.105952 0.102137 0.111399 0.0833031 0.0693928 0.0614274 0.0768565
          0.0533164 0.0368948 0.0290493 0.0447685 0.0363567 0.0219596 0.0158647 0.0285834 0.0692474 0.0528201 0.0441395 0.0608659
          0.0223649 0.0112075 0.00743253 0.0161287 0.0049688 0.00157549 0.000438916 0.00293747 0.00145692 0.000116288 4.2785e-06 0.000470437
          0.0109682 0.00487682 0.0029461 0.00734699 9.52991e-05 4.40515e-05 4.3741e-05 4.52892e-05 9.43704e-08 1.86684e-10 3.25437e-07 2.62841e-13
          2.99257e-24 1.78698e-37 0 0 0 0 0 0 0 0 0 0
          0 0 0 0 0 0 0 0 0 0 0 0
          0 0 0 0 0 0 0 0 0 0 0 0
          0 0 0 0 0 0 0 0 0 0 0 0
          0 0 0 0 0 0 0 0 6.24522e-32 2.78572e-15 1.10812e-12 4.82193e-13
          2.78572e-15 2.56961e-06 2.69045e-06 2.64285e-06 2.56957e-06 0.000387941 0.000417393 0.000446438 0.000389559 0.00051608 0.000518952 0.000518967
          0.000515459 2.56961e-06 3.20079e-06 3.13092e-06 2.56956e-06 0.117866 0.123578 0.129104 0.12371 0.126968 0.128662 0.132442
          0.131791 0.135413 0.135069 0.136882 0.138238 0.128238 0.133368 0.136842 0.131963 0.12869 0.126879 0.127778
          0.131146 0.122984 0.11677 0.114094 0.122143 0.120215 0.110413 0.106022 0.117471 0.132475 0.127561 0.126498
          0.132968 0.108101 0.0970388 0.0910221 0.103634 0.083912 0.0687963 0.0605091 0.0766172 0.0689391 0.0523179 0.0446104
          0.0612261 0.0983379 0.0844516 0.0775616 0.0925385 0.0522298 0.0359289 0.0285734 0.0438688 0.0217819 0.0109435 0.0075455
          0.0160678 0.0114799 0.0052848 0.0035629 0.00817618 0.0361932 0.0222545 0.016971 0.0294279 0.00490768 0.00147324 0.000551689
          0.00310351 8.89997e-05 5.48839e-07 2.80145e-07 5.49823e-06 8.20283e-07 5.27782e-07 5.27739e-07 5.28724e-07 0.00175145 0.000173193 1.7445e-05
          0.000765466 1.89297e-11 2.24029e-12 2.24029e-12 7.44337e-12 8.81227e-22 5.75078e-35 0 0 0 0 0
          0 0 0 0 0 0 0 0 0 0 0 0
          0 0 0 0 0 0 0 0 0 0 0 0
          0 0 0 0 0 0 0 0 0 0 0 0
          0 0 0 0 0 0 0 0 0 0 0 0
          0 0 0 0 7.19372e-15 1.20962e-15 0 2.91735e-07 2.91735e-07 2.91735e-07 2.91734e-07 0.00023288
          0.000486512 0.00049323 0.000233588 0.000394253 0.000500235 0.000505881 0.000393802 2.91735e-07 4.6235e-07 4.19351e-07 2.91734e-07 0.135239
          0.139836 0.142542 0.138267 0.14054 0.138123 0.13895 0.142492 0.144199 0.139462 0.139719 0.145722 0.141185
          0.145077 0.147509 0.144065 0.132845 0.124804 0.122639 0.13226 0.114138 0.10117 0.0960497 0.110392 0.106362
          0.0908127 0.0855434 0.102134 0.131313 0.120114 0.117303 0.130068 0.086511 0.0705709 0.0636883 0.0803822 0.0537925
          0.0376338 0.0314886 0.0468679 0.0405776 0.0261661 0.0216028 0.034957 0.0742586 0.0570884 0.0508901 0.0682326 0.023633
          0.0126544 0.00934698 0.0187567 0.00599612 0.0022668 0.00122307 0.00432769 0.00303815 0.000629439 0.000156019 0.00195079 0.0146665
          0.00711085 0.00546366 0.0113536 0.000285177 7.82698e-06 4.15857e-06 4.82836e-05 1.24301e-08 9.60937e-09 1.17846e-05 7.20083e-06 7.19388e-06
          7.21161e-06 1.5738e-14 2.25708e-26 4.12781e-38 0 0 0 0 0 0 8.43035e-37 0
          0 0 0 0 0 0 0 0 0 0 0 0
          0 0 0 0 0 0 0 0 0 0 0 0
          0 0 0 0 0 0 0 0 0 0 0 0
          0 0 0 0 0 0 0 0 0 0 0 0
          0 4.30076e-16 0 0 1.03644e-07 1.03644e-07 1.03644e-07 1.03643e-07 0.000118019 0.000513096 0.000520403 0.000118695
          0.000292187 0.000532589 0.000552661 0.000291988 1.03643e-07 1.03644e-07 1.03643e-07 1.03643e-07 0.146972 0.149878 0.152207 0.149933
          0.147097 0.139755 0.139589 0.148345 0.149474 0.139231 0.138682 0.150492 0.15298 0.154508 0.156779 0.15609
          0.128564 0.114256 0.111003 0.126824 0.0977665 0.0802639 0.0750062 0.0933044 0.0887768 0.0697909 0.0646357 0.0841678
          0.124858 0.107561 0.103931 0.122666 0.0623861 0.045156 0.0399025 0.0567787 0.029982 0.0176975 0.0143443 0.0256008
          0.0217538 0.0115693 0.00934415 0.0183616 0.0514421 0.0351128 0.0307491 0.0463857 0.00882328 0.00417054 0.00306027 0.00703955
          0.00119789 9.36557e-05 2.03982e-05 0.000563515 0.000257905 2.75368e-06 4.58014e-07 7.83835e-05 0.00568851 0.0021921 0.00146622 0.00458613
          2.78898e-07 5.18508e-09 5.18279e-09 5.46492e-09 3.16324e-15 1.02498e-27 0 0 0 0 0 0
          0 -2.95878e-32 0 0 0 0 0 0 0 0 0 1.35277e-36
          0 0 0 0 0 0 0 0 0 0 0 0
          0 0 0 0 0 0 0 0 0 0 0 0
          0 0 0 0 0 0 0 0 0 -2.04892e-35 0 2.52388e-34
          -1.29572e-36 2.66122e-24 7.4298e-33 1.82599e-21 3.07639e-10 2.6325e-05 0.000585876 0.000566536 2.54657e-05 6.20505e-05 0.000573561 0.000551098
          6.13145e-05 1.64976e-10 0.159171 0.159022 0.161259 0.162013 0.151404 0.137936 0.136977 0.152214 0.152917 0.135774
          0.134281 0.15348 0.1652 0.163578 0.165979 0.168602 0.120238 0.100107 0.0960796 0.117554 0.0794676 0.059554
          0.0545519 0.0746684 0.0697611 0.0496324 0.0448019 0.0647416 0.114583 0.0918354 0.0873532 0.111287 0.0416021 0.0267655
          0.0231196 0.0370745 0.0153337 0.0076985 0.00639204 0.0126651 0.0103766 0.00528166 0.00428472 0.00850472 0.0327841 0.0197697
          0.0166724 0.0287188 0.00366126 0.000956637 0.00048778 0.00281515 2.96797e-05 1.99018e-06 1.96398e-06 3.64559e-06 2.55844e-06 1.99462e-06
          1.99412e-06 1.9943e-06 0.00208529 0.000305924 8.20417e-05 0.0013819 3.49049e-10 8.29817e-11 8.29817e-11 1.37237e-10 7.58747e-19 2.46963e-34
          0 0 0 0 0 0 0 2.06147e-28 3.33722e-36 0 0 0
          0 0 0 0 4.88039e-36 -4.70927e-32 0 0 0 0 0 0
          0 0 0 0 0 0 0 0 0 0 0 0
          0 0 0 0 0 0 4.49391e-36 4.35702e-30 -2.26769e-36 -1.67864e-38 0 -1.6696e-38
          1.07279e-35 7.24924e-34 2.23089e-31 6.26083e-23 7.12517e-26 3.57843e-19 3.29371e-23 2.94203e-12 1.17865e-16 3.39098e-23 3.39098e-23 1.9112e-22
          1.64784e-22 3.1686e-16 3.1686e-16 3.1686e-16 3.1686e-16 0.000135541 0.000575804 0.000594573 0.000135944 0.000170982 0.00060929 0.000625159
          0.000170992 5.07386e-16 5.07386e-16 5.53163e-15 4.13385e-15 0.172634 0.168468 0.17097 0.176876 0.153858 0.132444 0.130207
          0.153995 0.153834 0.127504 0.124251 0.153304 0.181343 0.173466 0.175948 0.186136 0.107624 0.0826021 0.0775676
          0.103556 0.0596203 0.0400758 0.0354765 0.0544185 0.0491631 0.0310291 0.026756 0.0438813 0.0990408 0.0722417 0.066618
          0.0940345 0.0248799 0.0138201 0.0112898 0.0212802 0.00705184 0.00339724 0.00254027 0.00581496 0.00475604 0.00180571 0.00115927
          0.0038154 0.0179269 0.00916234 0.00753614 0.0148069 0.000893469 5.13075e-05 6.56268e-06 0.000418325 1.02809e-07 8.76616e-09 0.000181614
          1.28092e-06 2.03795e-07 4.72573e-05 2.73505e-13 1.82953e-24 0 0 0 0 0 0 0
          0 0 0 0 0 0 0 0 0 0 0 0
          0 0 0 0 0 0 0 0 0 0 0 0
          0 0 0 0 0 0 0 0 0 0 -1.48778e-37 3.58659e-23
          1.10073e-17 1.10073e-17 2.53657e-16 1.12604e-17 3.83251e-15 3.83251e-15 1.38777e-13 5.99926e-15 3.05639e-19 3.05639e-19 8.76345e-18 3.17051e-19
          2.03417e-18 2.03417e-18 1.32625e-17 1.7781e-17 1.60811e-18 1.60811e-18 1.38082e-17 9.71886e-18 1.16041e-18 1.16041e-18 1.16291e-17 9.2252e-18
          8.69213e-19 8.69213e-19 1.02613e-17 1.65145e-17 1.50968e-18 1.50968e-18 1.65942e-17 1.53019e-17 5.2708e-16 5.2708e-16 9.3207e-16 1.77886e-14
          8.56838e-12 8.56838e-12 4.20573e-10 4.81748e-10 3.23207e-13 3.23207e-13 9.5771e-13 1.06407e-11 5.60948e-10 5.60948e-10 1.85727e-09 1.85727e-09
          2.50265e-08 3.10271e-08 2.197e-09 2.197e-09 3.16341e-08 2.52845e-08 6.24147e-12 6.24147e-12 2.89212e-09 1.23869e-10 1.23169e-06 1.2317e-06
          4.12439e-06 4.12226e-06 7.26278e-05 7.56647e-05 4.05533e-06 4.05353e-06 7.46933e-05 6.76392e-05 8.50969e-09 8.50746e-09 2.18377e-08 2.18377e-08
          2.93506e-07 3.33092e-07 2.43434e-08 2.42988e-08 3.49178e-07 5.1056e-07 1.07415e-11 1.07414e-11 1.15539e-10 2.01247e-10 2.88488e-08 3.3921e-06
          0.000651015 0.000778628 6.98899e-06 7.84453e-05 0.000659023 0.000836322 8.58503e-05 8.75618e-08 8.75613e-08 1.29557e-06 1.18889e-06 0.191331
          0.17839 0.180743 0.196866 0.152296 0.120339 0.11562 0.150655 0.148141 0.1099 0.102942 0.14441 0.203485
          0.182938 0.184727 0.211003 0.0884825 0.0606899 0.0544591 0.0823037 0.0386007 0.0226796 0.0188123 0.0333506 0.028167
          0.0151511 0.0117913 0.0230996 0.0754103 0.0479393 0.0411588 0.0677182 0.0119888 0.00620931 0.00504598 0.0095469 0.00296341
          0.000686362 0.000301746 0.00215943 0.00143168 0.000142785 1.13276e-05 0.000743193 0.00763099 0.00398345 0.00297674 0.00607915 1.46146e-05
          2.80599e-07 2.7234e-07 8.27023e-07 2.8182e-10 2.7142e-10 5.6117e-07 4.81408e-07 4.81372e-07 4.81382e-07 2.36442e-17 -1.94828e-32 0
          0 0 0 0 0 0 0 0 0 0 0 0
          0 0 0 0 0 0 0 0 0 0 0 0
          0 0 0 0 0 0 0 0 0 0 0 0
          0 0 0 4.24376e-22 2.3497e-23 3.0995e-17 6.97602e-09 1.00993e-08 6.44468e-05 4.50107e-07 9.80865e-13 1.71908e-12
          3.96362e-11 8.70871e-06 1.30691e-05 0.000935513 0.00086067 4.44404e-07 3.96814e-06 0.000755512 0.000417605 2.55972e-09 1.72317e-08 1.72317e-08
          2.70609e-07 1.77668e-07 0.000193208 0.000199412 0.00115596 0.00109584 1.87035e-05 2.36814e-05 0.00104953 0.000997765 4.26628e-08 4.26628e-08
          6.05813e-08 5.4489e-08 2.97462e-07 2.97463e-07 7.59029e-06 7.47907e-06 0.000585603 0.000590416 0.00136952 0.00132293 7.1218e-05 8.38324e-05
          0.001272 0.0012163 1.07242e-10 1.07144e-10 1.86784e-08 1.81384e-08 3.40005e-09 3.40004e-09 1.53405e-07 1.72961e-07 0.000179536 0.000185396
          0.00151793 0.00148626 8.98548e-05 9.09315e-05 0.00145107 0.00141226 5.90851e-09 5.90851e-09 2.71185e-08 2.35602e-08 4.84586e-09 4.84586e-09
          3.73728e-08 3.27487e-08 0.000119135 0.000123845 0.00161683 0.00159564 0.000105453 0.000112933 0.00157228 0.00154655 3.78888e-09 3.78888e-09
          4.77949e-08 4.30672e-08 4.33132e-09 4.33132e-09 5.63081e-08 5.30695e-08 0.000137416 0.00014057 0.00168598 0.00167069 0.000129046 0.000133106
          0.00165414 0.00163631 3.32578e-09 3.32578e-09 6.68226e-08 6.21456e-08 3.59597e-09 3.59597e-09 7.63077e-08 7.25316e-08 0.000151578 0.000154388
          0.001738 0.00172623 0.000144685 0.000147853 0.00171365 0.00170034 4.14451e-09 4.14451e-09 8.668e-08 8.30433e-08 3.12556e-09 3.12556e-09
          9.81946e-08 9.31588e-08 0.000164144 0.000166737 0.00177952 0.0017699 0.000158337 0.000160842 0.00175977 0.00174922 3.66657e-09 3.66657e-09
          1.09773e-07 1.06226e-07 3.78361e-09 3.78361e-09 1.16378e-07 1.1452e-07 0.000174721 0.000176144 0.00181514 0.00180664 0.000170529 0.000172552
          0.00179784 0.00178889 9.14587e-08 9.1462e-08 4.19553e-06 3.95275e-06 1.31898e-08 1.31907e-08 1.17861e-06 8.05784e-07 0.000304773 0.00036166
          0.00184806 0.00184003 0.000495583 0.000498537 0.00183182 0.00182361 1.13109e-05 1.13152e-05 0.000108788 0.000103104 1.0564e-05 1.0563e-05
          8.94941e-05 9.04614e-05 0.00130722 0.00129638 0.00187931 0.00187186 0.00134229 0.00139025 0.00186404 0.00185617 1.78584e-06 1.78489e-06
          5.45601e-05 5.61476e-05 4.40603e-07 4.41465e-07 1.45757e-05 1.37744e-05 0.000738708 0.000771019 0.0019017 0.00189775 0.00115147 0.00113061
          0.00189259 0.00188643 5.89256e-05 5.89461e-05 0.000183863 0.000177834 5.83324e-05 5.83271e-05 0.000172559 0.000172604 0.0015442 0.00153991
          0.0019347 0.00192243 0.0015442 0.0015878 0.00191286 0.00190602 5.54839e-06 5.53117e-06 0.00011386 0.000114455 4.33053e-06 5.56976e-05
          0.000137704 8.06004e-05 0.00133056 0.00135 0.00198215 0.00197376 0.00149557 0.00148594 0.00196256 0.00194909 0.00126287 0.00130956
          0.00140399 0.00135195 0.00130958 0.00126896 0.0013512 0.00139484 0.00175828 0.00174503 0.00201096 0.00200443 0.00180342 0.00182948
          0.00199684 0.00198925 0.00020954 0.000159982 0.000271338 0.000321656 0.000157712 0.000157621 0.000260521 0.000261022 0.00155981 0.00155259
          0.00202139 0.00202033 0.00161039 0.00159929 0.00201871 0.00201575 6.78935e-06 6.60892e-06 9.99649e-05 0.000101459 4.81971e-06 5.10714e-06
          5.72338e-05 5.53945e-05 0.00118045 0.00120089 0.00198823 0.00200725 0.0014586 0.00144122 0.00201767 0.00202163 0.000280522 0.00028103
          0.000427861 0.000421791 0.00028232 0.000694115 0.000719944 0.000414259 0.00177298 0.00168406 0.00178976 0.00188154 0.001807 0.00183916
          0.00192611 0.00196032 0.219738 0.185753 0.185343 0.230138 0.138968 0.0944484 0.0840442 0.131062 0.119516 0.0712681
          0.0554359 0.102197 0.242841 0.182154 0.173113 0.258843 0.0591485 0.0341654 0.0270391 0.0496363 0.0182014 0.00889641
          0.00670263 0.0135254 0.0093358 0.00483385 0.0030861 0.00616919 0.039177 0.019911 0.0129486 0.0278373 0.0047098 0.00204556
          0.00116668 0.00343651 0.000323727 8.91219e-06 4.34241e-06 6.171e-05 1.03941e-05 3.65621e-06 3.64243e-06 3.64614e-06 0.00222616 0.00049716
          8.05021e-05 0.00106817 6.94908e-09 9.70926e-10 9.70922e-10 2.13595e-09 2.36279e-16 1.30246e-29 0 0 0 0
          0 0 0 0 0 0 0 0 0 0 0 0
          0 0 0 0 0 0 0 0 0 0 0 0
          0 0 0 0 0 0 0 0 0 0 0 3.73036e-22
          1.77679e-12 1.09098e-11 1.77679e-12 1.77679e-12 3.24459e-07 3.24461e-07 3.24299e-07 3.24262e-07 0.000313714 0.00258267 5.01452e-06 5.0003e-06
          2.10071e-13 2.10071e-13 0.00651424 0.0184039 1.03565e-07 1.14437e-07 0.0466671 0.0809745 0.00306447 0.00116659 7.89694e-05 0.00127807
          0.00117523 2.03095e-06 1.63883e-07 0.119993 0.161832 0.00987328 0.00583553 0.205762 0.251419 0.0301521 0.0178544 0.00951348
          0.0170562 0.0163899 0.00914319 0.00357722 0.00600866 0.0057753 0.0034097 0.297403 0.341772 0.0596248 0.0443241 0.383331
          0.421497 0.094962 0.0763439 0.0391615 0.0457813 0.0417517 0.0363531 0.0246972 0.0321074 0.0302377 0.0235207 0.455786
          0.48586 0.138631 0.115788 0.511896 0.534281 0.190571 0.163596 0.0632315 0.0685211 0.0562635 0.0535883 0.0519603
          0.0577477 0.0503276 0.0464017 0.553512 0.570061 0.249125 0.219242 0.584384 0.596851 0.310168 0.279641 0.0844651
          0.0902455 0.0629345 0.0616914 0.0737373 0.0790078 0.0602225 0.0584437 0.607785 0.617411 0.368868 0.3401 0.625943
          0.633529 0.421361 0.396044 0.110613 0.118699 0.0669665 0.0659947 0.09648 0.10324 0.0650284 0.0640257 0.640321
          0.64641 0.466008 0.444692 0.651911 0.656889 0.502886 0.485368 0.14789 0.159358 0.0714378 0.0701964 0.127575
          0.137296 0.0690466 0.0679758 0.661438 0.665593 0.533007 0.518712 0.669433 0.672985 0.557673 0.545941 0.19854
          0.212909 0.0774504 0.0757833 0.171667 0.184757 0.0742268 0.0727793 0.676316 0.679433 0.578119 0.568356 0.682393
          0.6852 0.59535 0.587085 0.258281 0.273723 0.0851501 0.0830924 0.227742 0.242909 0.0811113 0.0792276 0.687905
          0.690492 0.610112 0.603006 0.693004 0.695426 0.622873 0.616726 0.319069 0.33331 0.0926509 0.0911562 0.289101
          0.30427 0.0892879 0.0872417 0.697795 0.70007 0.63382 0.628576 0.702269 0.70434 0.642854 0.638593 0.370487
          0.380279 0.0897551 0.0922838 0.346781 0.35925 0.0934818 0.0935193 0.706268 0.707942 0.64965 0.646563 0.709336
          0.710445 0.653908 0.652087 0.399462 0.402265 0.0676878 0.0745394 0.388447 0.394863 0.0807045 0.0858579 0.71158
          0.713173 0.656633 0.655325 0.715343 0.718087 0.65933 0.657976 0.401275 0.398119 0.0397206 0.0462326 0.40339