<?xml version="1.0"?>
<VTKFile type="UnstructuredGrid" version="0.1" byte_order="LittleEndian">
  <UnstructuredGrid>
    <Piece NumberOfCells="3638" NumberOfPoints="3607">
      <PointData Scalars="Sn">
        <DataArray type="Float32" Name="Sn" NumberOfComponents="1" format="ascii">
          0 0 0 0 0 0 0 0 0 0 0 0
          0 0 0 0 0 0 0 0 0 0 0 0
          0 0 0 0 0 0 0 0 0 0 0 0
          0 0 0 0 0 0 0 0 0 0 0 0
          0 0 0 0 0 0 0 0 0 0 0 0
          0 0 0 0 0 0 0 0 0 0 0 0
          0 0 0 0 0 0 0 0 0 0 0 0
          0 0 0 0 0 0 0 0 0 0 0 0
          0 0 0 0 0 0 0 0 0 0 0 0
          0 0 0 0 0 0 0 0 0 0 0 0
          0 0 0 0 0 0 0 0 0 0 0 0
          0 0 0 0 0 0 0 0 0 0 0 0
          0 0 0 0 0 0 0 0 0 0 0 0
          0 0 0 0 0 0 0 0 0 0 0 0
          0 0 0 0 0 0 0 0 0 0 0 0
          0 0 0 0 0 0 0 0 0 0 0 0
          0 0 0 0 0 0 0 0 0 0 0 0
          0 0 0 0 0 0 0 0 0 0 0 0
          0 0 0 0 0 0 0 0 0 0 0 0
          0 0 0 0 0 0 0 0 0 0 0 0
          0 0 0 0 0 0 0 0 0 0 0 0
          0 0 0 0 0 0 0 0 0 0 0 0
          0 0 0 0 0 0 0 0 0 0 0 0
          0 0 0 0 0 0 0 0 0 0 0 0
          0 0 0 0 0 0 0 0 0 0 0 0
          0 0 0 0 0 0 0 0 0 0 0 0
          0 0 0 0 0 0 0 0 0 0 0 0
          0 0 0 0 0 0 0 0 0 0 0 0
          0 0 0 0 0 0 0 0 0 0 0 0
          0 0 0 0 0 0 0 0 0 0 0 0
          0 0 0 0 0 0 0 0 0 0 0 0
          0 0 0 0 0 0 0 0 0 0 0 0
          0 0 0 0 0 0 0 0 0 0 0 0
          0 0 0 0 0 0 0 0 0 0 0 0
          0 0 0 0 0 0 0 0 0 0 0 0
          0 0 0 0 0 0 0 0 0 0 0 0
          0 0 0 0 0 0 0 0 0 0 0 0
          0 0 0 0 0 0 0 0 0 1.75282e-38 7.7102e-38 2.69812e-37
          7.70813e-37 1.83056e-36 3.66096e-36 6.22346e-36 9.05215e-36 1.13151e-35 1.21855e-35 1.13151e-35 9.05219e-36 6.22349e-36 3.66098e-36 1.83055e-36
          7.70799e-37 2.69799e-37 7.70934e-38 1.7524e-38 0 0 0 0 0 0 0 0
          0 0 0 0 0 0 0 0 0 0 0 0
          0 0 1.9359e-33 2.02126e-31 5.03748e-30 6.69448e-29 5.88689e-28 3.78822e-27 1.89061e-26 7.6002e-26 2.52749e-25 7.09314e-25
          1.706e-24 3.56007e-24 6.51046e-24 1.05174e-23 1.51023e-23 1.93605e-23 2.22137e-23 2.28257e-23 2.09804e-23 1.72013e-23 1.2526e-23 8.05671e-24
          4.54621e-24 2.23229e-24 9.44474e-25 3.40179e-25 1.02718e-25 2.54844e-26 5.0541e-27 7.69782e-28 8.44982e-29 5.94931e-30 2.01822e-31 9.13928e-38
          0 0 0 0 0 0 0 0 0 0 0 0
          0 0 1.44895e-34 2.44601e-24 7.03369e-23 9.71041e-22 8.70239e-21 5.73935e-20 2.97527e-19 1.25802e-18 4.43186e-18 1.31797e-17
          3.33953e-17 7.26805e-17 1.36981e-16 2.2563e-16 3.28303e-16 4.27166e-16 5.03405e-16 5.4331e-16 5.40365e-16 4.94782e-16 4.13759e-16 3.1204e-16
          2.09229e-16 1.2301e-16 6.2591e-17 2.72232e-17 9.99406e-18 3.05458e-18 7.64813e-19 1.5366e-19 2.40442e-20 2.78687e-21 2.16251e-22 8.60835e-24
          1.39016e-26 3.12638e-35 0 0 0 0 0 0 0 0 0 0
          0 0 0 1.02049e-26 1.21424e-21 3.14257e-20 3.88303e-19 3.05451e-18 1.72065e-17 7.40194e-17 2.53235e-16 7.08658e-16
          1.65647e-15 3.28899e-15 5.62905e-15 8.42237e-15 1.11841e-14 1.34087e-14 1.47976e-14 1.53263e-14 1.51188e-14 1.42793e-14 1.28471e-14 1.08844e-14
          8.56839e-15 6.18678e-15 4.04474e-15 2.36112e-15 1.21167e-15 5.37348e-16 2.02171e-16 6.32392e-17 1.60583e-17 3.2069e-18 4.80116e-19 4.97228e-20
          3.05904e-21 7.68143e-23 2.855e-27 1.85275e-36 0 0 0 0 0 0 0 0
          0 0 0 6.12183e-36 6.51815e-23 4.29867e-20 1.05107e-18 1.24439e-17 9.41531e-17 5.10981e-16 2.11952e-15 6.99203e-15
          1.88337e-14 4.21798e-14 7.96282e-14 1.28318e-13 1.78986e-13 2.19831e-13 2.43034e-13 2.49314e-13 2.48276e-13 2.5521e-13 2.83661e-13 3.32786e-13
          3.78692e-13 3.8618e-13 3.37313e-13 2.47283e-13 1.5059e-13 7.53805e-14 3.05634e-14 9.88807e-15 2.54794e-15 5.3912e-16 9.88112e-17 1.55858e-17
          1.87644e-18 1.4266e-19 5.21107e-21 1.87819e-23 1.35086e-28 0 0 0 0 0 0 0
          0 0 0 0 9.55139e-28 4.25003e-21 7.21889e-19 1.64372e-17 1.8816e-16 1.3894e-15 7.38185e-15 3.05477e-14
          1.07215e-13 3.41166e-13 9.78871e-13 2.45669e-12 5.42511e-12 1.07703e-11 1.9037e-11 2.88233e-11 3.61934e-11 3.74239e-11 3.24084e-11 2.43655e-11
          1.72973e-11 1.48009e-11 1.88474e-11 2.68959e-11 3.18924e-11 2.84645e-11 1.85377e-11 8.58718e-12 2.71987e-12 5.51324e-13 6.42455e-14 3.92861e-15
          2.52287e-16 3.16615e-17 2.69806e-18 1.20129e-19 1.3642e-21 1.14712e-24 5.71796e-31 0 0 0 0 0
          0 0 0 0 1.19962e-38 7.76782e-24 8.01222e-20 7.48148e-18 1.58782e-16 1.76745e-15 1.28447e-14 6.80775e-14
          2.99193e-13 1.37795e-12 6.33233e-12 2.27302e-11 5.86615e-11 1.13465e-10 1.82189e-10 2.69963e-10 3.76992e-10 4.68614e-10 4.95914e-10 4.45583e-10
          3.43964e-10 2.36581e-10 1.89011e-10 2.57104e-10 4.06202e-10 5.03839e-10 4.50776e-10 2.87332e-10 1.28812e-10 3.95656e-11 8.00943e-12 1.0432e-12
          1.0036e-13 1.05532e-14 8.58964e-16 2.92786e-17 1.50781e-18 2.81513e-20 1.08644e-22 1.34222e-26 4.38696e-35 0 0 0
          0 0 0 0 0 1.66394e-27 1.78945e-22 8.10836e-19 5.367e-17 1.06856e-15 1.16133e-14 8.36539e-14
          5.39322e-13 3.45725e-12 2.00773e-11 9.15211e-11 3.05903e-10 7.32525e-10 1.27151e-09 1.70497e-09 2.11365e-09 2.95632e-09 4.20709e-09 4.92674e-09
          4.45671e-09 3.2573e-09 2.09039e-09 1.5023e-09 1.995e-09 3.35516e-09 4.2841e-09 3.79e-09 2.32947e-09 9.95652e-10 2.9316e-10 5.93126e-11
          8.77974e-12 1.17493e-12 1.42689e-13 1.02608e-14 2.19978e-16 1.25049e-17 3.12313e-19 2.22073e-21 1.85097e-24 1.13892e-30 0 0
          0 0 0 0 0 0 3.66089e-26 1.04333e-20 5.53657e-18 2.86157e-16 5.3663e-15 5.70555e-14
          4.09101e-13 4.15792e-12 3.71807e-11 2.17562e-10 8.73715e-10 2.5582e-09 5.71353e-09 9.62145e-09 2.05258e-09 7.99737e-10 2.60922e-10 6.7915e-11
          1.22648e-11 1.14188e-12 2.8565e-14 4.60559e-18 2.92347e-20 5.55376e-23 1.15845e-28 0 0 0 0 0
          0 0 0 8.65264e-25 1.89395e-19 2.92978e-17 1.20031e-15 2.10954e-14 2.19022e-13 1.56245e-12 2.49187e-11 2.42934e-10
          1.55086e-09 6.45871e-09 1.8213e-08 3.71448e-08 9.96981e-09 3.27978e-09 8.91167e-10 1.62078e-10 1.51807e-11 3.7729e-13 4.51871e-17 2.8343e-19
          8.72678e-22 2.71647e-27 1.70269e-37 0 0 0 0 0 0 0 1.40486e-23 1.80281e-18
          1.31232e-16 4.17643e-15 6.75756e-14 6.79635e-13 4.80765e-12 1.01187e-10 9.94033e-10 6.39091e-09 3.40891e-08 1.12739e-07 2.0091e-08 5.46263e-09
          9.8218e-10 9.17965e-11 2.28893e-12 2.70643e-16 2.04492e-18 8.84431e-21 3.35216e-26 2.14924e-36 0 0 0 0
          0 0 0 1.30164e-21 1.11184e-17 5.14855e-16 1.26412e-14 1.83347e-13 1.75817e-12 1.22452e-11 3.30897e-10 3.04726e-09
          1.75186e-08 3.55994e-09 3.2839e-10 8.42906e-12 1.09717e-15 1.11603e-17 6.37917e-20 2.70765e-25 1.73576e-35 0 0 0
          0 0 0 0 3.27678e-20 4.94972e-17 1.75737e-15 3.43378e-14 4.37031e-13 3.91313e-12 2.64688e-11 9.21791e-10
          8.3674e-09 7.69366e-10 2.10084e-11 3.29971e-15 4.72984e-17 3.47395e-19 1.58364e-24 1.00722e-34 0 0 0 0
          0 0 0 4.1214e-19 1.7158e-16 5.14576e-15 8.434e-14 9.40357e-13 7.73077e-12 4.98721e-11 1.99866e-09 1.89445e-08
          3.74632e-11 7.9359e-15 1.59929e-16 1.48629e-18 7.10475e-24 4.47153e-34 0 0 0 0 0 0
          0 3.28169e-18 4.98745e-16 1.29743e-14 1.86251e-13 1.8477e-12 1.38952e-11 8.43858e-11 3.16403e-09 3.11572e-08 4.93951e-11 1.62429e-14
          4.42035e-16 5.14051e-18 2.53696e-23 1.57944e-33 0 0 0 0 0 0 0 1.84861e-17
          1.31885e-15 2.9093e-14 3.71125e-13 3.32482e-12 2.30255e-11 1.3164e-10 3.6717e-09 3.6386e-08 4.92751e-11 2.9563e-14 1.02013e-15 1.4686e-17
          7.39756e-23 4.55915e-33 0 0 0 0 0 0 0 7.84413e-17 3.38015e-15 6.14193e-14
          6.88193e-13 5.56014e-12 3.55526e-11 1.92525e-10 3.32266e-09 3.17138e-08 3.79886e-11 4.87971e-14 2.0034e-15 3.52563e-17 1.79534e-22 1.09684e-32
          0 0 0 0 0 0 0 2.60821e-16 8.43433e-15 1.28274e-13 1.25243e-12 9.01981e-12
          5.27003e-11 2.69201e-10 2.67547e-09 2.27881e-08 2.32361e-11 7.31587e-14 3.40772e-15 7.21571e-17 3.68247e-22 2.23408e-32 0 0
          0 0 0 0 0 6.97815e-16 1.95862e-14 2.6447e-13 2.31037e-12 1.49444e-11 7.9231e-11 3.76326e-10
          2.33294e-09 1.56523e-08 1.17443e-11 9.9506e-14 5.1076e-15 1.2757e-16 6.47156e-22 3.90657e-32 0 0 0 0
          0 0 0 1.53013e-15 4.03427e-14 5.12786e-13 4.20372e-12 2.53646e-11 1.24792e-10 5.52593e-10 2.57971e-09 1.28466e-08
          3.18262e-10 1.6081e-10 5.35572e-12 1.23727e-13 6.86341e-15 1.97378e-16 9.88062e-22 5.94695e-32 0 0 0 0
          0 0 0 2.78569e-15 7.16294e-14 8.88439e-13 7.09719e-12 4.15928e-11 1.97524e-10 8.39726e-10 3.51422e-09 1.49072e-08
          1.70782e-09 6.49256e-10 6.55826e-11 2.75934e-12 1.4315e-13 8.41495e-15 2.70935e-16 1.33127e-21 8.00431e-32 0 0 0
          0 0 0 0 4.24873e-15 1.0829e-13 1.33289e-12 1.05757e-11 6.1588e-11 2.90116e-10 1.21842e-09 4.97152e-09
          2.04352e-08 1.75719e-08 4.01647e-09 6.91743e-09 1.44544e-09 2.40269e-10 2.81274e-11 2.09408e-12 1.57233e-13 9.57702e-15 3.34719e-16 1.61201e-21
          9.69552e-32 0 0 0 0 0 0 0 5.46111e-15 1.3884e-13 1.7064e-12 1.35366e-11
          7.89276e-11 3.72406e-10 1.56435e-09 6.36673e-09 2.60401e-08 2.65361e-08 2.34222e-08 5.35655e-09 1.02705e-09 1.65364e-10 2.10275e-11 2.07827e-12
          1.66049e-13 1.02739e-14 3.77326e-16 1.7886e-21 1.07667e-31 0 0 0 0 0 0 0
          5.93557e-15 1.50834e-13 1.85371e-12 1.47123e-11 8.58793e-11 4.05815e-10 1.70678e-09 6.9487e-09 2.8351e-08 2.428e-08 5.47904e-09 1.04263e-09
          1.64454e-10 2.0973e-11 2.12177e-12 1.69121e-13 1.05032e-14 3.92186e-16 1.84774e-21 1.11273e-31 0 0 0 0
          0 0 1.25774e-07 5.80994e-07 8.70302e-08 5.79773e-07 6.35052e-08 3.70181e-07 5.64992e-06 1.73127e-06 6.26499e-08 2.34635e-07
          8.43356e-08 3.61528e-07 1.15896e-06 1.7016e-07 3.30256e-07 9.97166e-08 1.05884e-07 4.25312e-07 3.07126e-07 8.84511e-08 1.13162e-07 4.08927e-07
          3.59637e-07 9.50413e-08 5.57711e-07 8.08886e-07 7.78017e-07 3.81862e-07 1.47814e-05 4.41133e-06 1.22797e-06 2.13572e-06 5.4794e-08 1.7162e-06
          4.63055e-07 1.03415e-06 4.25534e-08 2.5821e-08 3.886e-07 1.78759e-07 1.49481e-08 1.10119e-07 9.75962e-09 6.63717e-08 1.33863e-08 6.13052e-08
          2.8896e-08 3.3547e-07 4.29125e-08 6.68785e-07 3.99897e-08 6.19554e-07 5.67565e-07 7.86746e-06 1.95794e-06 1.44867e-06 8.37063e-07 1.22003e-05
          8.02727e-06 1.19869e-08 6.20776e-08 7.85307e-08 1.24264e-08 6.8813e-08 1.97735e-08 8.1883e-08 3.8988e-08 3.73777e-07 5.14454e-08 2.47883e-08
          3.00864e-07 2.33026e-07 3.40281e-07 5.18473e-07 3.99223e-07 1.6192e-07 1.16434e-07 1.68014e-07 5.72563e-07 1.48011e-06 2.05271e-06 1.28011e-05
          1.89512e-06 4.52081e-07 1.23534e-07 1.59995e-07 5.06318e-08 1.17131e-07 2.45073e-07 9.47973e-08 4.01876e-08 1.66731e-07 9.28467e-07 2.63226e-07
          8.06639e-08 3.85798e-06 7.48703e-07 1.03938e-07 3.05451e-07 1.99771e-07 1.07787e-06 5.4066e-08 5.08448e-09 2.37828e-08 3.29621e-09 1.16473e-08
          0.0605321 0.0605345 0.0605338 0.0605354 0.0605333 0.0605356 0.0605359 0.060536 0.0605361 1.01699e-06 2.35169e-07 1.86257e-07
          8.78879e-06 1.2691e-07 6.07102e-08 2.3348e-06 1.48172e-06 2.67106e-08 3.41956e-07 6.06564e-08 2.06637e-08 7.65625e-08 8.45574e-09 1.35427e-08
          1.24462e-09 1.42391e-08 1.44116e-09 1.05703e-08 1.24546e-09 7.16398e-09 8.66508e-10 5.41768e-10 1.15073e-08 4.85684e-09 8.97218e-07 7.72334e-06
          5.13769e-06 3.67207e-07 4.55445e-06 2.54009e-05 2.13517e-05 1.62625e-05 1.30319e-05 0.000218548 0.000119257 9.79894e-06 7.27067e-06 5.03041e-06
          3.08075e-06 2.554e-08 1.68267e-08 3.41277e-07 0.034269 0.0520653 0.0484312 0.0512268 0.0570421 0.0307059 0.0580083 0.0580261
          0.0592662 0.060005 0.0588595 0.0600304 0.0603683 0.0604016 0.0604964 0.0600037 0.0324862 0.0543126 0.0578746 0.0338987
          0.0597597 0.0598972 0.0603105 0.0604261 0.0602881 0.0603498 0.0604819 0.0605067 0.0605106 0.0605245 0.0605304 0.060534
          0.0605351 0.0605311 0.060474 0.0605228 0.0604551 0.0604774 0.0605204 0.0605271 0.0605331 0.0605347 0.0605356 0.0605359
          0.0605 0.0602473 0.0604953 0.0605232 0.0604857 0.0605323 0.0605353 0.0605327 0.0605207 0.0605353 0.0605317 0.0605359
          0.0581803 0.0601131 0.0603437 0.059525 0.0475656 0.0550349 0.0560066 0.0418676 0.0600209 0.0569757 0.0399129 0.0588289
          0.0369218 0.0603409 0.060452 0.0605089 0.0073372 0.0160955 0.00620742 0.0150635 0.019044 0.0115783 0.00433321 0.0300261
          0.023157 0.0151635 0.011723 0.0150092 0.0067724 0.0261213 0.0840246 0.0980599 0.166378 0.178611 0.115128 0.148417
          0.204488 0.214316 0.26452 0.291342 0.309925 0.442898 0.472094 0.408522 0.250916 0.370043 0.324003 0.136145
          0.172558 0.232975 0.239861 0.173593 0.199419 0.259115 0.265445 0.341555 0.35734 0.368774 0.536781 0.552541
          0.518135 0.327847 0.497084 0.281168 0.293365 0.387592 0.39652 0.292046 0.401129 0.588083 0.596582 0.577757
          0.280527 0.380754 0.5664 0.301016 0.311795 0.41215 0.418956 0.30894 0.421637 0.617853 0.623093 0.611294
          0.3033 0.408715 0.604684 0.315826 0.325247 0.42976 0.434884 0.319475 0.434779 0.636753 0.639395 0.632563
          0.3193 0.427832 0.628466 0.202388 0.204715 0.255238 0.323072 0.318276 0.315344 0.434517 0.437891 0.438293
          0.645361 0.646948 0.643129 0.324576 0.436859 0.641884 0.217836 0.261546 0.328655 0.324086 0.234643 0.358338
          0.439187 0.466167 0.653272 0.634332 0.6497 0.443118 0.649132 0.142376 0.190333 0.0326899 0.0452852 0.235222
          0.0565449 0.0300394 0.0359184 0.0233367 0.283699 0.0682833 0.0811343 0.041472 0.0467587 0.0339516 0.0387353 0.043091
          0.0389131 0.0431457 0.0342144 0.0231202 0.0288144 0.029188 0.0240802 0.0952994 0.111155 0.051764 0.0564855 0.128279
          0.146729 0.0609505 0.0651921 0.0503173 0.0531832 0.0555937 0.0525707 0.0546739 0.0499739 0.0469581 0.0468388 0.166381
          0.187058 0.0692608 0.0732079 0.208416 0.230185 0.0770823 0.0809265 0.0592618 0.0606373 0.0617835 0.058631 0.0593783
          0.0576392 0.0576004 0.0563418 0.251961 0.273476 0.0847785 0.0886649 0.294331 0.314362 0.0926052 0.0966019 0.0635839
          0.064317 0.0649778 0.0606572 0.0608889 0.0603493 0.0627512 0.0599356 0.333266 0.351014 0.100633 0.104689 0.36744
          0.382611 0.108759 0.112821 0.0661609 0.066705 0.0672267 0.061318 0.0614091 0.0612072 0.0655877 0.0610668 0.396431
          0.408986 0.116852 0.120816 0.420192 0.430103 0.124675 0.128378 0.0682181 0.0686859 0.0691262 0.0616245 0.0616778
          0.0615601 0.0677308 0.0614887 0.438665 0.446005 0.131862 0.135045 0.452207 0.457396 0.137838 0.140146 0.0698601
          0.0700973 0.0701858 0.061645 0.0614699 0.06171 0.069525 0.0617116 0.461496 0.464446 0.141871 0.142897 0.465309
          0.464647 0.143149 0.142452 0.0695983 0.0687044 0.0672482 0.0594291 0.057856 0.0604731 0.0700521 0.0611126 0.651554
          0.463859 0.63293 0.46672 0.140788 0.138208 0.584625 0.426099 0.140664 0.156821 0.0625242 0.0597126 0.0566577
          0.0493711 0.0455117 0.0528148 0.0651518 0.0556601 0.00614993 0.0101616 0.00633948 0.0104528 0.0145792 0.014882 0.0109202
          0.0152539 0.00667338 0.0191357 0.0195484 0.024545 0.0199289 0.0249901 0.0156098 0.0202981 0.0254332 0.020656 0.025877
          0.0159392 0.00740264 0.0113729 0.0117818 0.00813081 0.0297046 0.0347621 0.0302293 0.0353522 0.0394779 0.0436958 0.0401016
          0.0443174 0.0359573 0.0407419 0.0449541 0.0413939 0.045598 0.0365752 0.0307622 0.0313041 0.0473416 0.0504025 0.0479295
          0.0509327 0.0529059 0.054904 0.0533635 0.0552822 0.0514727 0.05383 0.0556705 0.0542892 0.056049 0.0520093 0.0485294
          0.0491312 0.056462 0.0576496 0.0567608 0.0578738 0.0585355 0.0591829 0.058693 0.0592831 0.0581159 0.0588747 0.0594148
          0.0590487 0.0595415 0.0583484 0.0570726 0.057374 0.0596471 0.0599747 0.0596997 0.0599885 0.0602028 0.0603601 0.0601855
          0.0603179 0.0600499 0.0602241 0.0603399 0.0602659 0.0603674 0.0601119 0.0597917 0.0598814 0.0604682 0.0605427 0.060406
          0.0604652 0.0605889 0.060618 0.0604962 0.0605128 0.0604157 0.0604681 0.0604328 0.060479 0.0606388 0.0606539 0.0605238
          0.0605302 0.0606648 0.0606671 0.0605337 0.0605288 0.0606527 0.0606058 0.0605072 0.0604527 0.0604983 0.0602816 0.0603358
          0.0601052 0.0604305 0.0603086 0.0600676 0.0603002 0.060049 0.0604265 0.060511 0.0604878 0.0604857 0.0605106 0.0598799
          0.0591874 0.0596802 0.0589481 0.0580755 0.0564142 0.0577725 0.056018 0.0588494 0.0576067 0.0557523 0.0574529 0.0554918
          0.0587671 0.0596214 0.059581 0.0541058 0.0511168 0.0535876 0.0504578 0.0474952 0.0433745 0.0466909 0.0424134 0.0499165
          0.0460091 0.0416134 0.0453196 0.0408151 0.0493666 0.0531921 0.0527938 0.0422208 0.0389268 0.0401739 0.0339187 0.0377727
          0.0329378 0.0324722 0.0294801 0.0280987 0.0228378 0.032012 0.0270916 0.021914 0.0262139 0.0214889 0.0311054 0.0368931
          0.0360224 0.00116727 0.00299068 0.00207497 0.00358997 0.00225309 0.00405198 0.000759547 0.00541116 0.00579345 0.00851517 0.00611903
          0.00884543 0.0043144 0.00639263 0.00914541 0.00663084 0.00943142 0.00454113 0.000991605 0.00252294 0.00274433 0.0010965 0.0121287
          0.0162427 0.0124315 0.0165238 0.0210035 0.0263226 0.0213416 0.0267708 0.016785 0.0216711 0.0272223 0.0219926 0.0276782
          0.0170264 0.0127107 0.0129728 0.0318558 0.0372065 0.032418 0.037852 0.0420569 0.046248 0.0427312 0.0469034 0.0385126
          0.0434166 0.0475636 0.0441131 0.0482281 0.0391897 0.0329915 0.0335771 0.0497327 0.0525399 0.0503327 0.053063 0.0547379
          0.0564144 0.0551747 0.0567655 0.0535774 0.0555985 0.0571016 0.0560082 0.0574219 0.0540818 0.0509301 0.0515236 0.0576615
          0.0585674 0.0579341 0.0587725 0.0592108 0.0596582 0.0593606 0.0597647 0.0589633 0.0594981 0.0598613 0.0596238 0.0599484
          0.0591401 0.0581914 0.058433 0.0599635 0.0601683 0.0600374 0.0602186 0.060304 0.0603928 0.0603378 0.0604154 0.0602632
          0.0603674 0.0604354 0.0603932 0.0604532 0.0603025 0.0601037 0.0601628 0.0604486 0.0604866 0.0604623 0.0604936 0.060474
          0.0604985 0.0604838 0.0605025 0.0605114 0.0604859 0.060425 0.0604863 0.0604239 0.0605127 0.0602945 0.0600331 0.0602893
          0.0600175 0.060423 0.0602844 0.0600022 0.0602798 0.0599871 0.0604222 0.0605138 0.0604868 0.0604873 0.060515 0.0595423
          0.0586841 0.0595032 0.0585982 0.0572936 0.0552183 0.0571261 0.0549285 0.0585089 0.0569495 0.0546205 0.0567633 0.0542928
          0.0584163 0.0594633 0.0594228 0.052374 0.0487893 0.0519287 0.0481801 0.0446035 0.0399968 0.0438576 0.0391569 0.0475361
          0.0430811 0.0382967 0.0422737 0.0374186 0.0468543 0.051455 0.0509506 0.0351393 0.0301926 0.0342427 0.0292702 0.0253177
          0.0206528 0.0244028 0.0197848 0.02834 0.0234819 0.0189114 0.0225569 0.0180369 0.0274032 0.0333341 0.0324159 0.016986
          0.0162514 0.0122912 0.0118883 0.0154938 0.0115336 0.00749742 0.00845226 0.00808497 0.00547402 0.0108687 0.00761168 0.00499497
          0.00716945 0.0045758 0.0102024 0.0147137 0.0139284 0.00133351 0.00295091 0.00474525 0.00315018 0.00493019 0.00146471 0.00684852
          0.00970798 0.00704881 0.00997733 0.00509427 0.00723226 0.0102448 0.00739859 0.0105163 0.00523443 0.00178312 0.00333925 0.0035008
          0.00204156 0.0132223 0.0172465 0.0134629 0.0174423 0.0223062 0.0281391 0.0226124 0.0286061 0.0176088 0.0229123 0.0290801
          0.0232078 0.0295624 0.0177384 0.0136983 0.0139323 0.0341754 0.0398847 0.0347869 0.0406 0.0448203 0.0488961 0.0455375
          0.0495671 0.0413383 0.0462632 0.0502406 0.0469948 0.0509168 0.0421038 0.0354117 0.0360495 0.0521117 0.0545749 0.0526926
          0.0550553 0.0564025 0.0577257 0.0567803 0.0580125 0.0555219 0.0571402 0.058282 0.0574808 0.058534 0.0559737 0.0532642
          0.0538234 0.0586588 0.0593029 0.0588685 0.0594521 0.0597379 0.0600265 0.0598409 0.0600962 0.059588 0.0599334 0.060158
          0.0600157 0.0602125 0.0597111 0.0590622 0.0592396 0.0602151 0.060337 0.0602612 0.0603671 0.0604155 0.0604695 0.0604345
          0.0604821 0.0603932 0.0604506 0.06049 0.0604643 0.060497 0.060416 0.0603015 0.0603367 0.0605159 0.0604878 0.0604216
          0.0604883 0.0604212 0.060517 0.0602756 0.0599725 0.0602718 0.0599585 0.0604212 0.0602684 0.0599454 0.0602654 0.0599336
          0.0604214 0.0605177 0.0604888 0.0604893 0.0605186 0.0593817 0.0583204 0.0593402 0.0582214 0.0565667 0.0539436 0.0563593
          0.0535709 0.0581196 0.0561402 0.0531721 0.0559086 0.0527442 0.0580157 0.0592983 0.0592558 0.0504125 0.0461309 0.0498375
          0.0453611 0.0414361 0.0365261 0.0405699 0.0356237 0.0445382 0.0396787 0.0347178 0.0387699 0.0338161 0.0436524 0.0492225
          0.0485644 0.0314904 0.0264601 0.0305597 0.0255101 0.0216276 0.0171628 0.0206934 0.0162899 0.0245515 0.0197528 0.0154188
          0.0188042 0.0145504 0.023581 0.0296255 0.0286885 0.0131489 0.00956534 0.0123753 0.00897086 0.0067662 0.00436386 0.00638996
          0.0040231 0.00842237 0.00603724 0.0038684 0.00570463 0.00360555 0.00790849 0.0116087 0.0108547 0.000231457 0.000897206 0.000312505
          0.00103288 0.00217586 0.00113714 0.00228524 0.000342071 0.000458735 0.00123636 0.00237871 0.0013294 0.00246046 0.000557008 0.00362449
          0.00534911 0.0037197 0.0054385 0.00754702 0.0107985 0.00767557 0.0110993 0.00550216 0.00777982 0.0114277 0.0078515 0.0117941
          0.00553791 0.00379407 0.00385034 0.0141704 0.0178196 0.0144197 0.0178354 0.0235023 0.030054 0.023802 0.0305559 0.0177598
          0.024117 0.0310689 0.0244637 0.0315933 0.0175529 0.0146911 0.015001 0.036699 0.0429029 0.0373575 0.0437448 0.0477276
          0.051597 0.0484532 0.0522851 0.0446444 0.0491571 0.0529895 0.049813 0.0537287 0.0456255 0.0380199 0.0386766 0.0543662
          0.0564106 0.0548863 0.0568338 0.0578003 0.0587688 0.0580958 0.0589876 0.0572476 0.0583628 0.0591931 0.0585926 0.0593909
          0.0576623 0.0553731 0.0558077 0.0594007 0.0598223 0.0595451 0.0599225 0.0600884 0.0602604 0.0601519 0.0603025 0.0600137
          0.060206 0.0603397 0.0602502 0.0603737 0.0600987 0.0596715 0.0597771 0.060367 0.0604358 0.0603929 0.0604533 0.060476
          0.0605019 0.0604858 0.060506 0.0604144 0.060469 0.0604314 0.0604811 0.0605191 0.0604897 0.0604221 0.0604901 0.0604234
          0.0605198 0.0602628 0.0599236 0.0602602 0.0599166 0.0604258 0.060257 0.0599141 0.0602517 0.0599196 0.0604299 0.0605199
          0.0604902 0.0604898 0.0605203 0.0592126 0.0579108 0.0591675 0.0578069 0.0556634 0.0522834 0.0554031 0.0517843 0.0577076
          0.0551257 0.0512387 0.0548282 0.0506331 0.0576195 0.0591185 0.0590611 0.0478612 0.042688 0.0471143 0.0416185 0.0378569
          0.0329279 0.0369656 0.0320627 0.0403964 0.0361439 0.0312257 0.0354813 0.0304084 0.0389341 0.0463322 0.04554 0.0277467
          0.0225935 0.0267948 0.021581 0.0178458 0.0136859 0.0168767 0.0128267 0.0205333 0.015898 0.0119759 0.0149154 0.0111434
          0.0194369 0.0258215 0.0248088 0.0101212 0.00742094 0.00941882 0.0069523 0.00538415 0.00357652 0.00505347 0.00342928 0.00649714
          0.004704 0.00316491 0.00434632 0.00288363 0.00605202 0.00876737 0.00816621 0.00145298 0.0021533 0.00199927 0.000822224 0.000375898
          0.000265771 0.00182783 0.000739007 0.00162978 0.000588645 3.54312e-05 0.000173226 5.18657e-05 0.000213441 0.000622993 0.000245646 0.000680444
          5.66195e-05 0.00141186 0.002533 0.00148293 0.00259959 0.000722924 0.00153763 0.00266447 0.00156398 0.00273153 0.000739071 7.35249e-05
          0.000271228 0.000284379 7.20967e-05 0.00389177 0.00554259 0.00392475 0.00551315 0.00787647 0.0122111 0.00783692 0.0125646 0.00544468
          0.00775089 0.0120244 0.00768519 0.0116352 0.00531427 0.00396215 0.00403086 0.0295732 0.0237332 0.0182753 0.0225509 0.0170278
          0.0292255 0.0139423 0.0103462 0.0130063 0.00960467 0.0156745 0.0121609 0.00894059 0.0115061 0.00834854 0.0142118 0.0272536
          0.021102 0.0197501 0.0256577 0.00760513 0.00561365 0.00707495 0.00517609 0.00398458 0.00259631 0.00361574 0.00230415 0.0047293
          0.00323421 0.002006 0.00283365 0.00170186 0.00425884 0.0065617 0.00604327 0.00143156 0.000540562 0.00123537 0.000417636 0.00104243
          0.000372681 0.000854696 0.000272626 8.12855e-05 0.000279238 0.000715025 0.000254035 0.000641433 6.86875e-05 0.00153776 0.00280341 0.00140834
          0.00282107 0.000530251 0.00114572 0.00221609 0.000880201 0.00165789 0.000415717 6.60829e-05 0.000214597 0.000171575 4.91103e-05 0.00776302
          0.00548921 0.00374576 0.00484017 0.00316679 0.00744162 0.0024095 0.00139536 0.00196478 0.00109655 0.00252111 0.00152276 0.00082305
          0.00112918 0.000593702 0.00191677 0.00587198 0.00390494 0.00301932 0.00455039 0.000676479 0.000230773 0.000514206 0.000156645 0.000375184
          0.000124121 0.000264692 7.8869e-05 4.33411e-05 0.000133958 0.000321287 0.000105348 0.000250045 3.17533e-05 0.000678135 0.00131889 0.000526052
          0.00102733 0.000199552 0.000410008 0.000777422 0.000330063 0.000584986 0.000169947 2.94488e-05 8.60739e-05 7.66232e-05 2.47848e-05 0.00295554
          0.00239769 0.00502376 0.00406748 0.00192136 0.00355608 0.0055963 0.00259925 0.00395695 0.00171521 0.00142633 0.0009915 0.0107518
          0.0110423 0.00790497 0.00659869 0.00688611 0.00529663 0.00351354 0.00408892 0.00260402 0.0043342 0.00276875 0.00178396 0.0016844
          0.00115742 0.00252604 0.00645921 0.0022739 0.00140952 0.00164823 0.00100716 0.000811007 0.000417148 0.000572557 0.000291652 0.00071121
          0.000409801 0.000211569 0.000317238 0.000172254 0.000521197 0.00114588 0.000792023 0.000183225 6.03784e-05 0.000127879 3.88189e-05 9.44292e-05
          3.25168e-05 8.0339e-05 2.61033e-05 0.115538 0.130304 0.185716 0.0474742 0.0630728 0.0776485 0.125855 0.199693 0.135986
          0.246078 0.376265 0.267801 0.379737 0.475956 0.0169892 0.0517727 0.00779597 0.0171075 0.0275515 0.0191155 0.0101873
          0.558659 0.12233 0.541474 0.112648 0.0548155 0.00160774 0.00382981 0.00133258 0.00352491 0.00440547 0.00513792 0.0254258
          0.0158268 0.0199545 0.00995009 0.0175512 7.61026e-05 0.000321186 5.64542e-05 0.000240046 0.000392143 0.000276506 5.28e-05 0.00560761
          0.00321295 0.00408103 0.00181271 0.00227886 0.00108957 0.00340189 0.00282177 0.00182084 0.000533442 0.00241071 1.55534e-06 2.11025e-06
          2.37878e-06 9.07946e-06 9.76533e-06 1.48066e-05 2.26972e-05 1.31655e-05 0.0153382 0.0169632 0.0249173 0.0322707 0.0166207 0.0330055
          0.015214 0.0394243 0.0470886 0.050493 0.0547912 0.0488381 0.0560272 0.0562311 0.0582314 0.0588063 0.0596517 0.0588682
          0.0599331 0.0598719 0.0602074 0.0602889 0.0604161 0.0603213 0.0604596 0.0604461 0.0604927 0.0605197 0.0605088 0.0605265
          0.0605295 0.0605333 0.060533 0.0605222 0.0605341 0.0605257 0.0604873 0.0604441 0.0602337 0.0599683 0.060465 0.0600566
          0.0589481 0.0576075 0.0543726 0.0498464 0.0577143 0.0489836 0.0445419 0.0365264 0.0349441 0.0327298 0.0342469 2.9572e-06
          2.39939e-06 1.35995e-05 2.7088e-05 2.35339e-05 1.08256e-05 0.00414377 0.00497613 0.00772054 0.0104304 0.00326132 0.0605082 0.0605262
          0.0605352 0.0605311 0.0218913 0.0182978 0.012105 0.0110421 0.00783452 2.28415e-06 1.89421e-06 7.90385e-06 1.65373e-05 1.20955e-05
          6.75489e-06 1.5249e-06 0.222269 0.195507 0.234089 0.203564 0.243313 0.210656 0.251223 0.216767 0.258089 0.221423
          0.26352 0.25983 0.000303145 0.000137082 1.79357e-05 2.27513e-05 9.17383e-06 1.29746e-05 5.87024e-06 0.139603 0.147138 0.153647
          0.159364 0.162259 1.50331e-05 7.23254e-05 1.28827e-05 6.45958e-05 0.000378527 0.000586785 0.00084073 1.80558e-06 1.19849e-05 6.45881e-05
          9.51977e-05 8.60436e-05 4.19078e-05 8.83161e-05 2.16697e-05 1.36977e-05 8.71009e-06 5.06363e-06 3.35588e-05 3.62406e-06 0.000104928 0.000162408
          0.000203162 0.000136723 5.6988e-05 8.38797e-05 4.53298e-05 0.0605322 0.0605344 0.0605359 0.0605359 0.060535 0.0605361 0.060536
          0.0605356 0.0798243 0.0673195 0.125486 0.111038 0.0502484 0.0965488 0.155762 0.14245 0.167657 0.03991 0.0812657
          0.0250573 0.0663893 0.126948 0.107907 0.189508 0.17375 0.155622 0.222172 0.205099 0.241418 0.212724 0.201514
          0.250315 0.26583 0.185977 0.257525 0.240861 0.158422 0.222971 0.303714 0.290053 0.316526 0.141793 0.207605
          0.271335 0.234464 0.375112 0.360886 0.327318 0.511945 0.475401 0.505505 0.395068 0.389265 0.540391 0.530669
          0.0360926 0.0214657 0.0773944 0.0561291 0.0104067 0.033713 0.108628 0.130076 0.00360621 0.0133427 0.00160273 0.00519543
          0.01483 0.0357911 0.192252 0.182119 0.136036 0.218137 0.265971 0.0229323 0.0529006 0.0885956 0.0262271 0.0690945
          0.139395 0.370914 0.364281 0.298455 0.339015 0.271457 0.408315 0.526789 0.11267 0.20049 0.0870411 0.179643
          0.303558 0.318587 0.287062 0.0994185 0.0788557 0.201539 0.0589761 0.159866 0.0457376 0.0126905 0.00975406 0.0605348
          0.0605359 0.0605243 0.0605243 0.0605268 0.0605217 0.0605259 0.0604934 0.0605102 0.0605151 0.0605137 0.0605212 0.0605291
          0.0605257 0.0605315 0.060529 0.0605263 0.0605282 0.0605313 0.0727868 0.0705774 0.0963777 0.0783048 0.0778633 0.106034
          0.0858214 0.0847944 0.113867 0.0923828 0.0908989 0.120655 0.0982307 0.096628 0.126807 0.104207 0.104159 0.132911
          0.115621 1.89498e-06 0.00262381 0.004142 0.0115404 0.0143776 0.00547342 0.0186758 0.0353589 0.0454864 0.0330877 0.00047854
          0.00167891 0.00350723 0.00694213 0.0204952 0.0112375 9.00964e-05 0.000143033 0.00110912 0.00140564 0.00014172 0.00162044 0.00612002
          0.00691123 0.000180676 0.00171562 0.000151618 0.00174952 0.00712797 0.00739079 0.0231319 0.0230905 0.0246725 0.0493148 0.054967
          0.0523467 0.0200202 0.0444848 0.00015772 0.00158322 9.99068e-05 0.00124358 0.00680087 0.00607945 0.00034534 0.000979212 0.00452058
          0.00252934 0.0210105 0.0161184 0.0130444 0.0394221 0.0498708 0.0224178 0.0487489 0.00308207 0.00179374 0.00915824 0.00658116