<?xml version="1.0"?>
<VTKFile type="UnstructuredGrid" version="0.1" byte_order="LittleEndian">
  <UnstructuredGrid>
    <Piece NumberOfCells="1536" NumberOfPoints="1617">
      <CellData Scalars="Sn">
        <DataArray type="Float32" Name="Sn" NumberOfComponents="1" format="ascii">
          0 0 0 0 0 0 0 0 0 0 0 0
          0 0 0 0 0 0 0 0 0 0 0 0
          0 0 0 0 0 0 0 0 0 0 0 0
          0 0 0 0 0 0 0 0 0 0 0 0
          0 0 0 0 0 0 0 0 0 0 0 0
          0 0 0 0 0 0 0 0 0 0 0 0
          0 0 0 0 0 0 0 0 0 0 0 0
          0 0 0 0 0 0 0 0 0 0 0 0
          0 0 0 0 0 0 0 0 0 0 0 0
          0 0 0 0 0 0 0 0 0 0 0 0
          0 0 0 0 0 0 0 0 0 1.91444e-35 -2.68185e-33 1.76607e-35
          0 0 0 0 0 0 0 0 0 0 0 0
          0 0 0 0 0 0 0 0 0 0 0 0
          0 0 0 0 0 0 0 0 0 0 0 0
          0 0 0 0 0 0 0 0 -1.00153e-36 -5.02661e-28 -8.41905e-27 -1.62376e-28
          1.01192e-34 0 0 0 0 0 0 0 0 0 0 0
          0 0 0 0 0 0 0 0 0 0 0 0
          0 0 0 0 0 0 0 0 0 0 0 0
          0 0 0 0 0 0 0 0 -1.61923e-28 2.32489e-20 3.85982e-17 4.20268e-21
          -1.28754e-27 1.50426e-34 0 0 0 0 0 0 0 0 0 0
          0 0 0 0 0 0 0 0 0 0 0 0
          0 0 0 0 0 0 0 0 0 0 0 0
          0 0 0 0 0 0 0 0 1.88755e-21 9.21525e-12 4.49315e-10 3.73463e-12
          1.93774e-19 -1.56351e-27 1.00041e-34 0 0 0 0 0 0 0 0 0
          0 0 0 0 0 0 0 0 0 0 0 0
          0 0 0 0 0 0 0 0 0 0 0 0
          0 0 0 0 0 0 0 0 2.47734e-12 2.95976e-07 2.27399e-06 1.85131e-07
          2.79819e-11 1.335e-19 -7.60241e-28 3.38954e-35 0 0 0 0 0 0 0 0
          0 0 0 0 0 0 0 0 0 0 0 0
          0 0 0 0 0 0 0 0 0 0 0 0
          0 0 0 0 0 0 0 0 1.48137e-07 6.67777e-05 0.000195103 5.3409e-05
          5.20523e-07 1.59888e-11 2.44232e-20 -1.6826e-28 5.77965e-36 0 0 0 0 0 0 0
          0 0 0 0 0 0 0 0 0 0 0 0
          0 0 0 0 0 0 0 0 0 0 0 0
          0 0 0 0 0 0 0 0 4.5733e-05 0.0010739 0.00189163 0.000995407
          8.58181e-05 2.5081e-07 2.39218e-12 5.9068e-22 -1.51362e-29 4.18441e-37 0 0 0 0 0 0
          0 0 0 0 0 0 0 0 0 0 0 0
          0 0 0 0 0 0 0 0 0 0 0 0
          0 0 0 0 0 0 0 0 0.000859684 0.00437065 0.00610533 0.00429461
          0.00112671 3.67847e-05 3.21388e-08 4.31556e-14 3.5097e-25 -2.73524e-31 0 0 0 0 0 0
          0 0 0 0 0 0 0 0 0 0 0 0
          0 0 0 0 0 0 0 0 0 0 0 0
          0 0 0 0 0 0 0 0 0.00374203 0.00975778 0.0123664 0.00954752
          0.00392288 0.000465743 4.32649e-06 4.89527e-10 1.40602e-17 -3.60994e-28 -8.07413e-35 0 0 0 0 0
          0 0 0 0 0 0 0 0 0 0 0 0
          0 0 0 0 0 0 0 0 0 0 0 0
          0 0 0 0 0 0 0 0 0.0084839 0.0167947 0.0197081 0.0157942
          0.0075863 0.00165193 5.56052e-05 6.36342e-08 1.47636e-13 4.06079e-24 -2.7333e-31 1.69722e-38 0 0 0 0
          0 0 0 0 0 0 0 0 0 0 0 0
          0 0 0 0 0 0 0 0 0 0 0 0
          0 0 0 0 0 0 0 0 0.014799 0.0248439 0.0274672 0.0218758
          0.0112683 0.00310711 0.000207448 7.96741e-07 1.78232e-11 2.33072e-20 -3.25643e-29 4.98152e-37 0 0 0 0
          0 0 0 0 0 0 0 0 0 0 0 0
          0 0 0 0 0 0 0 0 0 0 0 0
          0 0 0 0 0 0 0 0 0.0223807 0.0337775 0.0353037 0.0272318
          0.0140673 0.00417776 0.000381214 2.58035e-06 1.62854e-10 1.52769e-18 -2.88043e-29 9.88813e-36 0 0 0 0
          0 0 0 0 0 0 0 0 0 0 0 0
          0 0 0 0 0 0 0 0 0 0 0 0
          0 0 0 0 0 0 0 0 0.0316684 0.0438281 0.0429318 0.031232
          0.015391 0.00451321 0.000438596 3.32323e-06 2.54673e-10 3.4346e-18 -2.81343e-29 3.3134e-36 0 0 0 0
          0 0 0 0 0 0 0 0 0 0 0 0
          0 0 0 0 0 0 0 0 0 0 0 0
          0 0 0 0 0 0 0 0 0.0447109 0.0556252 0.0496983 0.0330506
          0.0148808 0.00404018 0.000338688 1.92026e-06 8.54009e-11 4.0706e-19 -1.03565e-29 2.0325e-36 0 0 0 0
          0 0 0 0 0 0 0 0 0 0 0 0
          0 0 0 0 0 0 0 0 0 0 0 0
          0 0 0 0 0 0 0 -1.2088e-37 0.0743803 0.0695923 0.0539169 0.0318404
          0.0126545 0.00299004 0.000172561 4.86256e-07 5.86829e-12 2.33221e-21 -1.01037e-30 2.87058e-37 0 0 0 0
          0 0 0 0 0 0 0 0 0 0 0 0
          0 0 0 0 0 0 0 0 0 0 0 0
          0 0 0 0 0 0 0 1.30083e-20 0.0900151 0.0760737 0.0532509 0.0279898
          0.00968399 0.0018601 5.98585e-05 5.8878e-08 9.8144e-14 9.00058e-25 -1.53277e-32 0 0 0 0 0
          0 0 0 0 0 0 0 0 0 0 0 0
          0 0 0 0 0 0 0 0 0 0 0 0
          0 0 0 0 0 0 0 3.0448e-10 0.100433 0.078668 0.0502654 0.0235544
          0.00718156 0.00104963 1.70202e-05 4.93969e-09 8.16166e-16 7.25633e-29 -7.05947e-35 0 0 0 0 0
          0 0 0 0 0 0 0 0 0 0 0 0
          0 0 0 0 0 0 0 -3.90898e-38 -1.85288e-35 6.6495e-37 -9.63801e-38 -2.69542e-37
          -1.34188e-37 -9.61383e-38 -1.8309e-35 -1.57684e-33 -4.79368e-37 -9.04882e-37 -2.06112e-36 2.76021e-05 0.108436 0.079266 0.0464109 0.0194847
          0.00534555 0.000563361 4.48002e-06 3.61455e-10 5.24794e-18 -1.95616e-31 1.15423e-36 0 0 0 0 0
          0 0 0 0 0 0 0 0 0 0 0 0
          0 0 1.59292e-37 1.96552e-24 1.11122e-21 6.62274e-21 2.06974e-20 5.10422e-20 1.11466e-19 2.25296e-19 4.25495e-19 7.22847e-19
          1.01004e-18 1.38155e-18 2.00189e-18 2.74713e-18 3.50967e-18 5.5227e-18 1.03234e-17 0.000120902 0.115487 0.0784656 0.042089 0.015938
          0.00395474 0.000289098 1.11689e-06 2.41081e-11 2.84635e-20 -1.20092e-32 9.02805e-38 0 0 0 0 0
          0 0 0 0 0 0 0 0 0 0 0 0
          0 3.11267e-30 1.238e-17 6.55906e-12 1.16915e-10 2.55725e-10 4.17726e-10 6.14158e-10 8.56325e-10 1.1548e-09 1.51201e-09 1.88862e-09
          2.16088e-09 2.44818e-09 2.84643e-09 3.23131e-09 3.55377e-09 4.29092e-09 5.60164e-09 0.000209028 0.122108 0.0762173 0.0372422 0.0127842
          0.00284232 0.000137905 2.50657e-07 1.33322e-12 1.08985e-22 -5.91352e-34 0 0 0 0 0 0
          0 0 0 0 0 0 0 0 0 0 0 0
          0 1.37273e-14 1.46773e-08 6.61943e-06 2.02446e-05 2.68528e-05 3.19369e-05 3.65476e-05 4.10328e-05 4.5518e-05 4.99473e-05 5.38518e-05
          5.62043e-05 5.83756e-05 6.11524e-05 6.35487e-05 6.53583e-05 6.95596e-05 7.6342e-05 0.000295493 0.128566 0.0720699 0.0316285 0.00986412
          0.00190323 5.67691e-05 4.38567e-08 4.6501e-14 1.74991e-25 -6.54889e-36 0 0 0 0 0 0
          0 0 0 0 0 0 0 0 0 0 0 0
          0 5.18981e-07 0.000242142 0.00180964 0.0021573 0.00230135 0.00241754 0.00252155 0.00261881 0.00271116 0.00279859 0.00287963
          0.00295233 0.00302067 0.00308987 0.00316426 0.00324782 0.00334499 0.00346229 0.00361351 0.135053 0.0649183 0.0248351 0.00705486
          0.00107413 1.66012e-05 4.1017e-09 4.96615e-16 2.12609e-29 1.59265e-37 0 0 0 0 0 0
          0 0 0 0 0 0 0 0 0 0 0 0
          0 0.000432937 0.00726588 0.048736 0.152102 0.222978 0.280672 0.32907 0.369751 0.403521 0.430863 0.451768
          0.465276 0.470676 0.46831 0.459554 0.445765 0.426853 0.398317 0.335063 0.141787 0.0515426 0.0161359 0.00412051
          0.000370137 1.86451e-06 6.26753e-11 1.67988e-19 2.57724e-35 0 0 0 0 0 0 0
          0 0 0 0 0 0 0 0 0 0 0 0
          0 0 0.000787276 0.00719672 0.0439209 0.0568746 0.0637365 0.067673 0.0701911 0.0719833 0.0731033 0.0717953
          0.0612654 0.0444779 0.026947 0.012637 0.00418393 0.000476273 3.5336e-06 2.20149e-10 1.73958e-18 -3.86345e-34 1.52186e-38 0
          0 0 0 0 0 0 0 0 0 0 0 0
          0 0 0 0 0 0 0 0 0 0 0 0
          0 0 0.000974801 0.00734251 0.0435595 0.0539448 0.0582421 0.0599515 0.0606016 0.0608327 0.0607066 0.0585345
          0.0466463 0.0308909 0.0168657 0.00713212 0.00183512 7.90151e-05 1.01498e-07 2.45418e-13 3.94501e-24 1.6986e-38 0 0
          0 0 0 0 0 0 0 0 0 0 0 0
          0 0 0 0 0 0 0 0 0 0 0 0
          0 0 0.00128236 0.00774746 0.0458654 0.055308 0.0587745 0.0599831 0.0603759 0.0604834 0.0603158 0.058032
          0.0439051 0.0272186 0.013881 0.00562325 0.00119277 3.10871e-05 1.6703e-08 7.76728e-15 5.42937e-27 4.76953e-38 0 0
          0 0 0 0 0 0 0 0 0 0 0 0
          0 0 0 0 0 0 0 0 0 0 0 0
          0 0 0.00155646 0.00804265 0.0483619 0.0567191 0.0593956 0.0602127 0.060447 0.0605013 0.0603465 0.0580347
          0.0409566 0.0234154 0.0110667 0.0042385 0.000683619 9.56941e-06 1.73646e-09 1.02816e-16 7.65404e-31 0 0 0
          0 0 0 0 0 0 0 0 0 0 0 0
          0 0 0 0 0 0 0 0 0 0 0 0
          0 0 0.00170584 0.00820155 0.0509679 0.0579968 0.059884 0.0603745 0.0604964 0.0605196 0.060395 0.0581729
          0.0371355 0.019122 0.00832908 0.00289726 0.000305642 1.83913e-06 7.35659e-11 2.4508e-19 -5.21036e-35 0 0 0
          0 0 0 0 0 0 0 0 0 0 0 0
          0 0 0 0 0 0 0 0 0 0 0 0
          0 0 0.00163752 0.00819449 0.0537032 0.0590974 0.060231 0.0604716 0.0605222 0.0605296 0.0604466 0.0585103
          0.0318754 0.0142335 0.00575844 0.00162392 8.51281e-05 1.45989e-07 5.73274e-13 2.29507e-23 -2.13281e-37 0 0 0
          0 0 0 0 0 0 0 0 0 0 0 0
          0 0 0 0 0 0 0 0 0 0 0 0
          0 0 0.00122297 0.00724077 0.0567468 0.0599696 0.0604422 0.0605196 0.060533 0.0605343 0.0604967 0.059184
          0.023787 0.00865161 0.00318825 0.000538073 7.73763e-06 1.39004e-09 7.68952e-17 7.7351e-31 0 0 0 0
          0 0 0 0 0 0 0 0 0 0 0 0
        </DataArray>
        <DataArray type="Float32" Name="Sw" NumberOfComponents="1" format="ascii">
          1 1 1 1 1 1 1 1 1 1 1 1
          1 1 1 1 1 1 1 1 1 1 1 1
          1 1 1 1 1 1 1 1 1 1 1 1
          1 1 1 1 1 1 1 1 1 1 1 1
          1 1 1 1 1 1 1 1 1 1 1 1
          1 1 1 1 1 1 1 1 1 1 1 1
          1 1 1 1 1 1 1 1 1 1 1 1
          1 1 1 1 1 1 1 1 1 1 1 1
          1 1 1 1 1 1 1 1 1 1 1 1
          1 1 1 1 1 1 1 1 1 1 1 1
          1 1 1 1 1 1 1 1 1 1 1 1
          1 1 1 1 1 1 1 1 1 1 1 1
          1 1 1 1 1 1 1 1 1 1 1 1
          1 1 1 1 1 1 1 1 1 1 1 1
          1 1 1 1 1 1 1 1 1 1 1 1
          1 1 1 1 1 1 1 1 1 1 1 1
          1 1 1 1 1 1 1 1 1 1 1 1
          1 1 1 1 1 1 1 1 1 1 1 1
          1 1 1 1 1 1 1 1 1 1 1 1
          1 1 1 1 1 1 1 1 1 1 1 1
          1 1 1 1 1 1 1 1 1 1 1 1
          1 1 1 1 1 1 1 1 1 1 1 1
          1 1 1 1 1 1 1 1 1 1 1 1
          1 1 1 1 1 1 1 1 1 1 1 1
          1 1 1 1 1 1 1 1 1 1 1 1
          1 1 1 1 1 1 1 1 1 1 1 1
          1 1 1 1 1 1 1 1 1 1 0.999998 1
          1 1 1 1 1 1 1 1 1 1 1 1
          1 1 1 1 1 1 1 1 1 1 1 1
          1 1 1 1 1 1 1 1 1 1 1 1
          1 1 1 1 1 1 1 1 1 0.999933 0.999805 0.999947
          0.999999 1 1 1 1 1 1 1 1 1 1 1
          1 1 1 1 1 1 1 1 1 1 1 1
          1 1 1 1 1 1 1 1 1 1 1 1
          1 1 1 1 1 1 1 1 0.999954 0.998926 0.998108 0.999005
          0.999914 1 1 1 1 1 1 1 1 1 1 1
          1 1 1 1 1 1 1 1 1 1 1 1
          1 1 1 1 1 1 1 1 1 1 1 1
          1 1 1 1 1 1 1 1 0.99914 0.995629 0.993895 0.995705
          0.998873 0.999963 1 1 1 1 1 1 1 1 1 1
          1 1 1 1 1 1 1 1 1 1 1 1
          1 1 1 1 1 1 1 1 1 1 1 1
          1 1 1 1 1 1 1 1 0.996258 0.990242 0.987634 0.990452
          0.996077 0.999534 0.999996 1 1 1 1 1 1 1 1 1
          1 1 1 1 1 1 1 1 1 1 1 1
          1 1 1 1 1 1 1 1 1 1 1 1
          1 1 1 1 1 1 1 1 0.991516 0.983205 0.980292 0.984206
          0.992414 0.998348 0.999944 1 1 1 1 1 1 1 1 1
          1 1 1 1 1 1 1 1 1 1 1 1
          1 1 1 1 1 1 1 1 1 1 1 1
          1 1 1 1 1 1 1 1 0.985201 0.975156 0.972533 0.978124
          0.988732 0.996893 0.999793 0.999999 1 1 1 1 1 1 1 1
          1 1 1 1 1 1 1 1 1 1 1 1
          1 1 1 1 1 1 1 1 1 1 1 1
          1 1 1 1 1 1 1 1 0.977619 0.966223 0.964696 0.972768
          0.985933 0.995822 0.999619 0.999997 1 1 1 1 1 1 1 1
          1 1 1 1 1 1 1 1 1 1 1 1
          1 1 1 1 1 1 1 1 1 1 1 1
          1 1 1 1 1 1 1 1 0.968332 0.956172 0.957068 0.968768
          0.984609 0.995487 0.999561 0.999997 1 1 1 1 1 1 1 1
          1 1 1 1 1 1 1 1 1 1 1 1
          1 1 1 1 1 1 1 1 1 1 1 1
          1 1 1 1 1 1 1 1 0.955289 0.944375 0.950302 0.966949
          0.985119 0.99596 0.999661 0.999998 1 1 1 1 1 1 1 1
          1 1 1 1 1 1 1 1 1 1 1 1
          1 1 1 1 1 1 1 1 1 1 1 1
          1 1 1 1 1 1 1 1 0.92562 0.930408 0.946083 0.96816
          0.987345 0.99701 0.999827 1 1 1 1 1 1 1 1 1
          1 1 1 1 1 1 1 1 1 1 1 1
          1 1 1 1 1 1 1 1 1 1 1 1
          1 1 1 1 1 1 1 1 0.909985 0.923926 0.946749 0.97201
          0.990316 0.99814 0.99994 1 1 1 1 1 1 1 1 1
          1 1 1 1 1 1 1 1 1 1 1 1
          1 1 1 1 1 1 1 1 1 1 1 1
          1 1 1 1 1 1 1 1 0.899567 0.921332 0.949735 0.976446
          0.992818 0.99895 0.999983 1 1 1 1 1 1 1 1 1
          1 1 1 1 1 1 1 1 1 1 1 1
          1 1 1 1 1 1 1 1 1 1 1 1
          1 1 1 1 1 1 1 0.999972 0.891564 0.920734 0.953589 0.980515
          0.994654 0.999437 0.999996 1 1 1 1 1 1 1 1 1
          1 1 1 1 1 1 1 1 1 1 1 1
          1 1 1 1 1 1 1 1 1 1 1 1
          1 1 1 1 1 1 1 0.999879 0.884513 0.921534 0.957911 0.984062
          0.996045 0.999711 0.999999 1 1 1 1 1 1 1 1 1
          1 1 1 1 1 1 1 1 1 1 1 1
          1 1 1 1 1 1 1 1 1 1 1 1
          1 1 1 1 1 1 1 0.999791 0.877892 0.923783 0.962758 0.987216
          0.997158 0.999862 1 1 1 1 1 1 1 1 1 1
          1 1 1 1 1 1 1 1 1 1 1 1
          1 1 1 0.999993 0.99998 0.999973 0.999968 0.999963 0.999959 0.999954 0.99995 0.999946
          0.999944 0.999942 0.999939 0.999936 0.999935 0.99993 0.999924 0.999704 0.871434 0.92793 0.968372 0.990136
          0.998097 0.999943 1 1 1 1 1 1 1 1 1 1
          1 1 1 1 1 1 1 1 1 1 1 1
          1 0.999999 0.999758 0.99819 0.997843 0.997699 0.997582 0.997478 0.997381 0.997289 0.997201 0.99712
          0.997048 0.996979 0.99691 0.996836 0.996752 0.996655 0.996538 0.996386 0.864947 0.935082 0.975165 0.992945
          0.998926 0.999983 1 1 1 1 1 1 1 1 1 1
          1 1 1 1 1 1 1 1 1 1 1 1
          1 0.999567 0.992734 0.951264 0.847898 0.777022 0.719328 0.67093 0.630249 0.596479 0.569137 0.548232
          0.534724 0.529324 0.53169 0.540446 0.554235 0.573147 0.601683 0.664937 0.858213 0.948457 0.983864 0.995879
          0.99963 0.999998 1 1 1 1 1 1 1 1 1 1
          1 1 1 1 1 1 1 1 1 1 1 1
          1 1 0.999213 0.992803 0.956079 0.943125 0.936264 0.932327 0.929809 0.928017 0.926897 0.928205
          0.938735 0.955522 0.973053 0.987363 0.995816 0.999524 0.999996 1 1 1 1 1
          1 1 1 1 1 1 1 1 1 1 1 1
          1 1 1 1 1 1 1 1 1 1 1 1
          1 1 0.999025 0.992657 0.956441 0.946055 0.941758 0.940049 0.939398 0.939167 0.939293 0.941465
          0.953354 0.969109 0.983134 0.992868 0.998165 0.999921 1 1 1 1 1 1
          1 1 1 1 1 1 1 1 1 1 1 1
          1 1 1 1 1 1 1 1 1 1 1 1
          1 1 0.998718 0.992253 0.954135 0.944692 0.941225 0.940017 0.939624 0.939517 0.939684 0.941968
          0.956095 0.972781 0.986119 0.994377 0.998807 0.999969 1 1 1 1 1 1
          1 1 1 1 1 1 1 1 1 1 1 1
          1 1 1 1 1 1 1 1 1 1 1 1
          1 1 0.998444 0.991957 0.951638 0.943281 0.940604 0.939787 0.939553 0.939499 0.939653 0.941965
          0.959043 0.976585 0.988933 0.995762 0.999316 0.99999 1 1 1 1 1 1
          1 1 1 1 1 1 1 1 1 1 1 1
          1 1 1 1 1 1 1 1 1 1 1 1
          1 1 0.998294 0.991798 0.949032 0.942003 0.940116 0.939626 0.939504 0.93948 0.939605 0.941827
          0.962864 0.980878 0.991671 0.997103 0.999694 0.999998 1 1 1 1 1 1
          1 1 1 1 1 1 1 1 1 1 1 1
          1 1 1 1 1 1 1 1 1 1 1 1
          1 1 0.998362 0.991805 0.946297 0.940903 0.939769 0.939528 0.939478 0.93947 0.939553 0.94149
          0.968125 0.985767 0.994242 0.998376 0.999915 1 1 1 1 1 1 1
          1 1 1 1 1 1 1 1 1 1 1 1
          1 1 1 1 1 1 1 1 1 1 1 1
          1 1 0.998777 0.992759 0.943253 0.94003 0.939558 0.93948 0.939467 0.939466 0.939503 0.940816
          0.976213 0.991348 0.996812 0.999462 0.999992 1 1 1 1 1 1 1
          1 1 1 1 1 1 1 1 1 1 1 1
        </DataArray>
        <DataArray type="Float32" Name="pn" NumberOfComponents="1" format="ascii">
          152961 151896 151057 150353 149743 149201 148712 148266 147855 147473 147116 146779
          146459 146155 145862 145580 145307 145042 144783 144530 144281 144037 143797 143560
          143327 143096 142869 142644 142422 142204 141988 141775 141565 141359 141156 140956
          140759 140566 140375 140188 140004 139822 139642 139465 139290 139117 138946 138778
          151280 150443 149695 149035 148448 147921 147443 147004 146599 146222 145869 145535
          145219 144916 144625 144345 144073 143809 143551 143298 143051 142807 142567 142331
          142097 141867 141640 141415 141193 140974 140759 140546 140336 140130 139926 139726
          139530 139336 139146 138959 138775 138593 138414 138237 138062 137888 137717 137547
          149598 148901 148244 147642 147094 146593 146134 145710 145316 144948 144602 144275
          143963 143665 143378 143101 142832 142570 142314 142063 141816 141573 141334 141098
          140865 140635 140408 140183 139961 139742 139526 139313 139103 138897 138693 138494
          138297 138104 137914 137727 137543 137362 137183 137006 136832 136658 136487 136316
          147917 147317 146740 146197 145692 145223 144789 144385 144007 143652 143317 142999
          142695 142403 142122 141849 141584 141325 141071 140822 140577 140336 140098 139863
          139630 139400 139173 138948 138726 138507 138291 138078 137867 137661 137457 137257
          137061 136868 136679 136492 136309 136128 135950 135774 135600 135427 135256 135085
          146236 145712 145201 144713 144252 143820 143414 143033 142675 142336 142015 141708
          141414 141131 140857 140590 140329 140074 139824 139578 139335 139095 138858 138624
          138392 138163 137936 137711 137489 137269 137052 136839 136628 136421 136218 136018
          135822 135629 135440 135254 135072 134892 134715 134540 134367 134195 134024 133854
          144555 144093 143640 143203 142785 142389 142014 141659 141323 141004 140698 140405
          140123 139850 139584 139324 139069 138819 138573 138330 138090 137852 137617 137383
          137152 136923 136696 136471 136248 136028 135811 135597 135386 135178 134974 134774
          134578 134386 134198 134013 133832 133654 133478 133304 133132 132961 132792 132623
          142873 142465 142064 141673 141297 140937 140594 140267 139955 139656 139369 139092
          138823 138561 138304 138053 137805 137560 137319 137079 136842 136606 136373 136141
          135910 135681 135454 135229 135005 134784 134566 134351 134139 133931 133727 133527
          133331 133140 132953 132769 132589 132412 132238 132066 131896 131727 131559 131392
          141192 140832 140476 140128 139792 139468 139157 138859 138573 138297 138030 137770
          137516 137266 137021 136778 136537 136299 136062 135826 135592 135359 135127 134896
          134666 134438 134210 133984 133760 133538 133319 133102 132890 132682 132480 132277
          132080 131889 131703 131522 131344 131169 130996 130827 130659 130492 130326 130160
          139511 139194 138880 138573 138274 137986 137708 137440 137181 136930 136684 136443
          136204 135968 135734 135500 135268 135035 134804 134572 134341 134111 133880 133651
          133421 133193 132965 132738 132513 132289 132068 131850 131637 131448 131258 131040
          130826 130634 130450 130270 130094 129922 129753 129585 129420 129256 129092 128929
          137829 137552 137278 137009 136747 136493 136249 136012 135782 135556 135334 135112
          134891 134669 134446 134222 133997 133772 133545 133318 133090 132862 132633 132405
          132176 131947 131718 131490 131263 131038 130814 130594 130396 130239 130049 129829
          129586 129375 129192 129015 128842 128673 128506 128342 128180 128019 127858 127698
          136148 135908 135670 135437 135211 134992 134781 134577 134378 134180 133982 133781
          133577 133370 133159 132945 132728 132509 132287 132064 131839 131613 131387 131159
          130930 130701 130472 130242 130013 129784 129558 129334 129181 129009 128805 128596
          128361 128118 127929 127755 127586 127421 127258 127097 126938 126781 126624 126467
          134467 134261 134058 133859 133667 133483 133307 133138 132972 132804 132632 132454
          132268 132075 131875 131671 131461 131248 131031 130812 130590 130366 130141 129914
          129685 129455 129225 128993 128761 128529 128298 128070 127951 127751 127543 127331
          127117 126868 126661 126491 126327 126166 126007 125851 125696 125542 125389 125236
          132785 132612 132441 132275 132116 131966 131826 131695 131567 131434 131290 131134
          130965 130786 130597 130401 130198 129990 129778 129562 129342 129120 128896 128670
          128441 128211 127979 127745 127509 127272 127035 126800 126690 126481 126267 126052
          125843 125611 125391 125223 125064 124908 124754 124603 124452 124303 124154 124005
          131104 130960 130819 130683 130556 130439 130337 130248 130167 130074 129960 129825
          129673 129506 129327 129138 128941 128737 128528 128315 128097 127877 127654 127428
          127199 126968 126735 126498 126259 126016 125770 125524 125414 125195 124974 124759
          124554 124338 124115 123950 123798 123648 123500 123353 123208 123063 122918 122774
          129423 129306 129192 129083 128984 128899 128833 128794 128781 128734 128650 128535
          128396 128239 128066 127883 127690 127489 127283 127071 126856 126636 126414 126188
          125960 125729 125494 125255 125011 124762 124505 124241 124116 123885 123660 123448
          123251 123048 122832 122675 122529 122386 122244 122103 121962 121822 121683 121543
          127742 127648 127558 127474 127399 127339 127303 127312 127428 127432 127371 127269
          127138 126986 126818 126637 126446 126248 126043 125832 125618 125399 125177 124952
          124724 124492 124257 124016 123770 123516 123248 122957 122769 122534 122318 122119
          121937 121743 121542 121396 121259 121123 120987 120852 120717 120582 120447 120312
          126060 125988 125919 125855 125799 125755 125729 125724 125851 125892 125846 125753
          125631 125487 125328 125156 124975 124786 124591 124390 124185 123975 123762 123544
          123323 123098 122866 122628 122379 122113 121813 121430 121269 121123 120949 120777
          120615 120428 120249 120117 119988 119859 119730 119601 119471 119341 119211 119081
          124379 124326 124275 124227 124186 124154 124134 124125 124146 124137 124080 123990
          123875 123742 123597 123441 123277 123106 122928 122745 122557 122365 122168 121966
          121760 121547 121326 121094 120846 120574 120261 119881 119813 119714 119577 119434
          119292 119109 118958 118838 118718 118596 118473 118349 118225 118100 117975 117850
          122698 122661 122626 122594 122565 122542 122526 122518 122492 122430 122349 122250
          122136 122011 121877 121735 121586 121431 121271 121105 120934 120759 120579 120393
          120202 120004 119796 119576 119338 119075 118776 118429 118406 118330 118219 118100
          117972 117797 117671 117561 117449 117334 117217 117099 116980 116860 116740 116619
          121016 120996 120976 120956 120938 120922 120910 120903 120848 120743 120636 120524
          120409 120289 120164 120035 119901 119762 119618 119470 119316 119158 118995 118827
          118652 118470 118279 118076 117855 117612 117340 117040 117040 116975 116882 116778
          116656 116496 116388 116287 116182 116073 115962 115849 115735 115620 115504 115388
          119335 119330 119324 119317 119309 119299 119290 119283 119204 119059 118926 118803
          118685 118571 118456 118340 118221 118098 117971 117839 117703 117562 117416 117266
          117109 116946 116775 116592 116395 116179 115939 115706 115707 115647 115564 115471
          115349 115207 115112 115018 114918 114815 114709 114601 114492 114381 114269 114157
          117654 117665 117674 117680 117680 117676 117667 117658 117549 117362 117207 117076
          116960 116852 116750 116648 116545 116439 116328 116213 116094 115970 115843 115710
          115573 115430 115281 115123 114953 114769 114566 114400 114401 114342 114264 114178
          114052 113928 113842 113753 113659 113560 113459 113355 113249 113142 113034 112926
          115972 116002 116028 116047 116057 116056 116045 116029 115868 115634 115464 115334
          115225 115130 115042 114959 114878 114791 114699 114602 114501 114397 114288 114176
          114059 113939 113814 113684 113546 113399 113239 113119 113119 113057 112981 112898
          112767 112659 112579 112493 112403 112308 112210 112110 112008 111904 111800 111695
          114291 114342 114388 114424 114445 114447 114428 114390 114103 113841 113683 113569
          113478 113400 113400 113735 113748 113707 113653 113592 113526 113455 113380 113300
          113215 113129 113041 112952 112862 112770 112674 112569 111864 111792 111713 111626
          111491 111399 111322 111239 111151 111060 110965 110867 110768 110668 110566 110464
          112610 112687 112758 112815 112852 112861 112829 112725 112448 112274 112151 112057
          111979 111922 111951 111956 111957 111916 111863 111802 111735 111664 111589 111509
          111425 111338 111250 111162 111072 110980 110884 110779 110641 110542 110455 110350
          110225 110147 110071 109989 109903 109814 109722 109627 109530 109432 109332 109233
          110928 111039 111141 111226 111287 111315 111301 111233 111102 110983 110885 110803
          110731 110668 110626 110650 110643 110582 110510 110431 110348 110263 110175 110085
          109990 109894 109801 109707 109593 109459 109376 109301 109228 109164 109102 109039
          108973 108901 108825 108744 108659 108571 108481 108388 108293 108197 108099 108002
          109247 109400 109542 109662 109754 109811 109828 109804 109743 109672 109602 109537
          109476 109418 109383 109405 109398 109336 109263 109184 109102 109017 108931 108841
          108745 108650 108557 108461 108329 108223 108148 108076 108005 107937 107870 107803
          107733 107660 107583 107502 107419 107332 107242 107151 107057 106963 106867 106771
          107566 107772 107963 108127 108255 108346 108397 108411 108394 108359 108316 108268
          108218 108168 108142 108163 108157 108096 108023 107945 107864 107781 107695 107607
          107510 107415 107323 107221 107089 106994 106921 106850 106779 106709 106640 106569
          106497 106422 106345 106264 106181 106095 106006 105916 105823 105730 105635 105540
          105885 106160 106412 106626 106795 106921 107004 107049 107064 107056 107033 107001
          106961 106918 106902 106922 106919 106858 106786 106709 106628 106546 106461 106374
          106276 106181 106088 105979 105851 105766 105694 105623 105552 105481 105409 105337
          105264 105188 105110 105029 104946 104860 104772 104682 104591 104497 104403 104309
          104203 104573 104899 105168 105380 105537 105648 105718 105755 105767 105760 105740
          105709 105672 105663 105683 105683 105622 105550 105474 105395 105313 105229 105142
          105041 104946 104853 104733 104616 104538 104467 104396 104324 104252 104180 104107
          104032 103956 103877 103796 103713 103628 103540 103450 103359 103266 103172 103078
          102522 103028 103444 103769 104017 104201 104332 104420 104473 104497 104501 104488
          104464 104431 104424 104448 104451 104389 104318 104242 104164 104082 103999 103913
          103807 103710 103610 103485 103384 103311 103240 103169 103097 103025 102952 102878
          102803 102726 102647 102566 102482 102397 102310 102221 102129 102037 101942 101847
          100841 101574 102080 102447 102719 102918 103060 103157 103217 103249 103258 103249
          103228 103197 103184 103212 103223 103159 103088 103013 102935 102854 102771 102685
          102569 102471 102354 102238 102156 102085 102014 101942 101870 101798 101725 101650
          101575 101497 101418 101337 101254 101169 101082 100992 100901 100808 100713 100616
        </DataArray>
        <DataArray type="Float32" Name="pw" NumberOfComponents="1" format="ascii">
          152961 151896 151057 150353 149743 149201 148712 148266 147855 147473 147116 146779
          146459 146155 145862 145580 145307 145042 144783 144530 144281 144037 143797 143560
          143327 143096 142869 142644 142422 142204 141988 141775 141565 141359 141156 140956
          140759 140566 140375 140188 140004 139822 139642 139465 139290 139117 138946 138778
          151280 150443 149695 149035 148448 147921 147443 147004 146599 146222 145869 145535
          145219 144916 144625 144345 144073 143809 143551 143298 143051 142807 142567 142331
          142097 141867 141640 141415 141193 140974 140759 140546 140336 140130 139926 139726
          139530 139336 139146 138959 138775 138593 138414 138237 138062 137888 137717 137547
          149598 148901 148244 147642 147094 146593 146134 145710 145316 144948 144602 144275
          143963 143665 143378 143101 142832 142570 142314 142063 141816 141573 141334 141098
          140865 140635 140408 140183 139961 139742 139526 139313 139103 138897 138693 138494
          138297 138104 137914 137727 137543 137362 137183 137006 136832 136658 136487 136316
          147917 147317 146740 146197 145692 145223 144789 144385 144007 143652 143317 142999
          142695 142403 142122 141849 141584 141325 141071 140822 140577 140336 140098 139863
          139630 139400 139173 138948 138726 138507 138291 138078 137867 137661 137457 137257
          137061 136868 136679 136492 136309 136128 135950 135774 135600 135427 135256 135085
          146236 145712 145201 144713 144252 143820 143414 143033 142675 142336 142015 141708
          141414 141131 140857 140590 140329 140074 139824 139578 139335 139095 138858 138624
          138392 138163 137936 137711 137489 137269 137052 136839 136628 136421 136218 136018
          135822 135629 135440 135254 135072 134892 134715 134540 134367 134195 134024 133854
          144555 144093 143640 143203 142785 142389 142014 141659 141323 141004 140698 140405
          140123 139850 139584 139324 139069 138819 138573 138330 138090 137852 137617 137383
          137152 136923 136696 136471 136248 136028 135811 135597 135386 135178 134974 134774
          134578 134386 134198 134013 133832 133654 133478 133304 133132 132961 132792 132623
          142873 142465 142064 141673 141297 140937 140594 140267 139955 139656 139369 139092