<?xml version="1.0"?>
<VTKFile type="UnstructuredGrid" version="0.1" byte_order="LittleEndian">
  <UnstructuredGrid>
    <Piece NumberOfCells="4833" NumberOfPoints="5094">
      <CellData Scalars="Sn">
        <DataArray type="Float32" Name="Sn" NumberOfComponents="1" format="ascii">
          0 0 0 0 0 0 0 0 0 0 0 0
          0 0 0 0 0 0 0 0 0 0 0 0
          0 0 0 0 0 0 0 0 0 0 0 0
          0 0 0 0 0 0 0 0 0 0 0 0
          0 0 0 0 0 0 0 0 0 0 0 0
          0 0 0 0 0 0 0 0 0 0 0 0
          0 0 0 0 0 0 0 0 0 0 0 0
          -1.39531e-35 -4.65341e-36 0 0 0 0 0 0 0 0 0 0
          0 0 0 0 0 0 0 0 0 0 0 0
          0 0 0 0 0 0 0 0 0 0 0 0
          0 0 0 0 0 0 0 0 0 0 4.50171e-38 -6.61275e-32
          -5.65845e-28 -1.40539e-28 -8.80004e-36 0 0 0 0 0 0 0 0 0
          0 0 0 0 0 0 0 0 0 0 0 0
          0 0 0 0 0 0 0 0 0 0 0 0
          0 0 0 0 0 0 0 0 0 0 1.45742e-34 4.82873e-28
          2.47034e-21 8.39299e-23 -2.16759e-28 -6.52988e-36 0 0 0 0 0 0 0 0
          0 0 0 0 0 0 0 0 0 0 0 0
          0 0 0 0 0 0 0 0 0 0 0 0
          0 0 0 0 0 0 0 0 0 0 4.66689e-26 9.34436e-16
          3.25185e-12 5.48933e-13 9.07079e-23 -1.22088e-28 -2.39114e-36 0 0 0 0 0 0 0
          0 0 0 0 0 0 0 0 0 0 0 0
          0 0 0 0 0 0 0 0 0 0 0 0
          0 0 0 0 0 0 0 0 0 1.35499e-34 1.09399e-14 2.71741e-09
          1.9554e-07 7.71216e-08 4.60316e-13 1.07215e-22 -3.03705e-29 -4.4088e-37 0 0 0 0 0 0
          0 0 0 0 0 0 0 0 0 0 0 0
          0 0 0 0 0 0 0 0 0 0 0 0
          0 0 0 0 0 0 0 0 0 3.56601e-20 9.94611e-09 6.33413e-06
          6.33426e-06 7.74042e-06 6.37243e-06 5.94239e-05 5.94303e-05 6.57451e-05 6.61178e-05 3.68062e-05 3.68014e-05 4.01431e-05 4.06714e-05 5.32966e-08
          1.01526e-13 2.90815e-23 -3.09579e-30 -3.62992e-38 0 0 0 0 0 0 0 0
          0 0 0 0 0 0 0 0 0 0 0 0
          0 0 0 0 0 0 0 0 0 0 0 0
          0 0 0 0 0 1.689e-26 3.90731e-11 1.26054e-05 1.26111e-05 1.5879e-05 1.26052e-05 9.27493e-05
          9.27554e-05 9.99163e-05 9.88022e-05 0.000543522 0.000544787 0.000601797 0.000599272 0.00247506 0.00249777 0.00280035 0.00275961 0.000878536
          0.000880459 0.000996144 0.000972578 0.00119202 0.00119597 0.00132118 0.0013157 0.00117572 0.00117519 0.00125985 0.00127899 0.00354796
          0.00352476 0.00391666 0.00400904 0.00381363 0.00383852 0.00429239 0.00425639 0.000954997 0.000952378 0.000980916 0.00115011 2.26259e-05
          2.05061e-05 2.10536e-05 2.29518e-05 9.18615e-09 3.0565e-15 1.67975e-26 -8.17676e-32 0 0 0 0 0
          0 0 0 0 0 0 0 0 0 0 0 0
          0 0 0 0 0 0 0 0 0 0 0 0
          0 0 0 0 0 0 0 0 3.00311e-14 3.43705e-07 3.43926e-07 4.58418e-07
          3.43703e-07 1.75317e-05 1.75322e-05 1.82816e-05 1.81639e-05 0.000765278 0.000773241 0.000851798 0.000842471 0.00296271 0.00302509 0.00357445
          0.00317217 0.000278421 0.000279092 0.000349839 0.000283529 0.00358261 0.00363371 0.00403858 0.00395465 0.00625638 0.00636459 0.00709451
          0.00694263 0.0119414 0.012239 0.0137646 0.0131514 0.00768228 0.00790631 0.00911454 0.0083785 0.00837538 0.00846645 0.00942182
          0.00930076 0.00845311 0.0084063 0.00931696 0.00937572 0.0148836 0.0147818 0.0160553 0.0162174 0.0149608 0.0151478 0.0166406
          0.016445 0.00626425 0.00605888 0.00656637 0.00682669 0.0028001 0.00263981 0.00273493 0.00295203 0.00498423 0.00460897 0.00491781
          0.00539855 0.0108683 0.0104141 0.0112402 0.0117987 0.000394236 0.00038062 0.000381496 0.000484196 2.61139e-06 2.26508e-06 2.26517e-06
          2.53544e-06 1.21948e-10 7.44275e-19 -2.92334e-28 -7.65373e-36 0 0 0 0 0 0 0
          0 0 0 0 0 0 0 0 0 0 0 0
          0 0 0 0 0 0 0 0 0 0 0 0
          0 0 0 0 1.27178e-32 1.25026e-16 1.45228e-16 5.5589e-12 1.25026e-16 3.492e-09 3.492e-09 3.59572e-09
          3.57831e-09 0.000118783 0.000118914 0.000143405 0.000118851 0.000144056 0.00160544 0.00330113 0.000790269 2.71214e-06 2.71221e-06 3.40364e-06
          2.712e-06 0.000908747 0.0027313 0.00491835 0.00218514 0.00578188 0.00871293 0.0128075 0.00876955 0.0127882 0.0170941 0.0214061
          0.0168512 0.00459129 0.00796577 0.0117918 0.00720163 0.0130634 0.016347 0.0206472 0.0171614 0.0192339 0.0210651 0.024968
          0.0234408 0.0278765 0.0297386 0.0337196 0.0321163 0.0215266 0.0250498 0.0293324 0.025817 0.0230142 0.0231633 0.0249791
          0.0249816 0.0221372 0.0218498 0.0233219 0.0237442 0.0293818 0.028666 0.0301223 0.031598 0.031065 0.0311568 0.0334046
          0.0334304 0.0167427 0.0160214 0.0169866 0.0178642 0.0090791 0.00842435 0.00889072 0.00968332 0.0130717 0.0120208 0.0124837
          0.0136841 0.0224681 0.0213552 0.0223967 0.0236732 0.00369435 0.00335392 0.00344309 0.00380416 0.000586547 0.000523351 0.000524369
          0.000586259 0.000833305 0.000719282 0.000726605 0.000845293 0.00511045 0.00457638 0.0046716 0.00525124 5.64961e-06 5.10289e-06 5.10762e-06
          6.14903e-06 5.28313e-10 1.14579e-17 5.58874e-31 -2.26135e-34 0 0 0 0 0 0 0
          0 0 0 0 0 0 0 0 0 0 0 0
          0 0 0 0 0 0 0 0 0 0 0 0
          0 0 0 0 5.96509e-22 4.92427e-12 7.26673e-11 6.50912e-10 1.76786e-07 2.71357e-05 6.51096e-10 4.97941e-12
          1.85049e-06 0.000268815 0.00123273 3.70657e-05 0.00249631 0.00585273 0.00905658 0.00470185 0.00745888 0.0129244 0.0167829 0.0108103
          0.000481105 0.00299985 0.00528273 0.00172365 0.0107826 0.0160873 0.0202834 0.0147951 0.0212234 0.0259497 0.0302657 0.0255121
          0.0297265 0.0344783 0.03853 0.0338038 0.0188354 0.024457 0.028539 0.022849 0.0302733 0.0337621 0.0379449 0.0344612
          0.0365961 0.0386046 0.0428342 0.0407875 0.044989 0.0469497 0.0507612 0.0489287 0.0386815 0.042177 0.0461555 0.0426532
          0.039737 0.0399479 0.0438379 0.0438363 0.0383512 0.0344063 0.0368961 0.0418236 0.0452407 0.040699 0.043105 0.0482829
          0.0477543 0.0475132 0.0508843 0.0513855 0.0278808 0.0263978 0.0274799 0.0293199 0.0166324 0.0151711 0.0155197 0.0171851
          0.0193718 0.0172406 0.0167932 0.0199263 0.0333699 0.0311067 0.0315568 0.0351851 0.0064669 0.0057338 0.00576386 0.00653574
          0.00151461 0.00134896 0.00134292 0.0015046 0.00124003 0.00105123 0.00104441 0.00121663 0.00686396 0.00594555 0.00583469 0.00668222
          3.79952e-05 3.41804e-05 3.41734e-05 3.63927e-05 1.99867e-08 1.14608e-14 1.82279e-26 -1.05468e-33 0 0 0 0
          0 0 0 0 0 0 0 0 0 0 0 0
          0 0 0 0 0 0 0 0 0 0 0 0
          0 0 0 0 0 0 1.94369e-29 3.9771e-15 3.9771e-15 7.26524e-13 3.9771e-15 1.23958e-08
          2.36298e-08 0.000392898 0.00131077 5.71826e-06 0.000183562 0.00289751 0.00494811 0.000921964 1.09806e-06 1.09807e-06 1.34666e-06 1.09803e-06
          0.00357489 0.00803639 0.0113115 0.00570087 0.0144146 0.0206393 0.0244439 0.0180095 0.0216591 0.0282021 0.0319043 0.0253023
          0.00827646 0.0147804 0.0183223 0.0113276 0.0267961 0.0325073 0.036353 0.0306346 0.0377623 0.0424838 0.0462891 0.0415914
          0.0453268 0.0499914 0.0536094 0.0489799 0.0344002 0.0401121 0.043791 0.0380919 0.0466371 0.0501495 0.0538565 0.0504036
          0.0528512 0.0545168 0.0579874 0.056464 0.0599276 0.0613117 0.0644363 0.0632586 0.0540545 0.0574301 0.0609005 0.0576163
          0.0549399 0.0541699 0.0570857 0.0581892 0.0513561 0.0467721 0.0487123 0.0538436 0.0559573 0.0499866 0.0505992 0.0575535
          0.0612963 0.0597807 0.062043 0.0641042 0.0402647 0.0320687 0.0319692 0.0411512 0.022496 0.0130243 0.0114998 0.0216769
          0.0206739 0.0111024 0.00944944 0.0191897 0.0413406 0.0313622 0.0302531 0.0409614 0.00474253 0.00413322 0.00407435 0.0045481
          0.000772886 0.000686659 0.000683022 0.000761747 0.000364955 0.000310896 0.000310268 0.000359649 0.00377407 0.00329037 0.00324802 0.00359765
          1.01079e-05 9.11498e-06 9.11439e-06 9.31484e-06 1.5781e-09 8.82584e-17 4.50666e-29 -6.61257e-36 0 0 0 0
          0 0 0 0 0 0 0 0 0 0 0 0
          0 0 0 0 0 0 0 0 0 0 0 0
          0 0 0 0 0 0 1.06357e-22 1.77515e-12 2.32825e-11 1.85195e-09 1.85195e-09 1.85195e-09
          1.85195e-09 1.77516e-12 7.08731e-07 0.000161101 0.000767114 7.34436e-07 0.00273482 0.00770564 0.0108503 0.00476681 0.00702331 0.0140662
          0.0172296 0.00957382 1.12658e-05 0.00191164 0.00322657 0.00013608 0.014795 0.021972 0.0255531 0.018267 0.0289649 0.0355761
          0.0391912 0.0325738 0.0361473 0.0427904 0.0464139 0.0397226 0.02167 0.0290738 0.0325708 0.0250329 0.0417429 0.0474247
          0.0510228 0.0453517 0.0525878 0.0571795 0.0607179 0.0561657 0.0597572 0.0642604 0.0678285 0.0633943 0.0489621 0.0546325
          0.0582913 0.0526133 0.061121 0.0642923 0.0676056 0.06458 0.0664729 0.0673992 0.0701086 0.069548 0.072482 0.0725735
          0.0747557 0.0752452 0.0680186 0.0708513 0.0740158 0.0714413 0.0667025 0.0639774 0.065422 0.0688766 0.0587292 0.0506789
          0.0502297 0.0592796 0.0592755 0.0492444 0.0476314 0.0586644 0.0706888 0.0663981 0.0668548 0.0720989 0.0401043 0.0287962
          0.027029 0.0388185 0.0176891 0.00893496 0.0073462 0.0157197 0.0138564 0.00654398 0.00516624 0.0117659 0.0370724 0.0249958
          0.0226796 0.0348426 0.00275711 0.00240893 0.00237746 0.00260316 0.000271565 0.00024576 0.000245185 0.000268346 7.59967e-05 6.81254e-05
          6.80682e-05 7.48614e-05 0.00164546 0.00144117 0.00142465 0.00155811 1.39311e-06 1.26144e-06 1.26142e-06 1.27191e-06 3.57181e-11 6.26687e-20
          -4.46179e-31 3.34959e-38 0 0 0 0 0 0 0 0 0 0
          0 0 0 0 0 0 0 0 0 0 0 0
          0 0 0 0 0 0 0 0 0 0 0 0
          1.6658e-19 5.6425e-11 5.64584e-11 6.36678e-11 1.3952e-07 5.66257e-11 1.19063e-08 2.48811e-05 0.00023252 6.40278e-08 4.84683e-10 0.000928316
          0.0051274 0.00720404 0.00192454 0.0124302 0.0204209 0.0236375 0.0152934 0.0182154 0.0269355 0.0303962 0.0212569 0.00309524
          0.00957276 0.012125 0.00444699 0.0284202 0.0361011 0.039713 0.0318655 0.0433497 0.050107 0.053917 0.0470785 0.0509666
          0.0578966 0.062102 0.0550774 0.0354285 0.0434668 0.0474316 0.0391841 0.0563466 0.0620352 0.0658991 0.0602045 0.0671053
          0.0714387 0.0750955 0.0709128 0.0748337 0.0787927 0.0825012 0.0788713 0.0642322 0.0699169 0.074117 0.0684753 0.0748497
          0.0770809 0.0800002 0.0782226 0.0777979 0.0765989 0.0780171 0.0800696 0.081976 0.078907 0.0791411 0.0834025 0.0815272
          0.0827123 0.0851233 0.0846999 0.0730363 0.0667169 0.065885 0.0734034 0.0573906 0.0454199 0.0425149 0.0553675 0.0525574
          0.0390192 0.0349341 0.0489233 0.0730875 0.0642594 0.0617399 0.0719613 0.0321645 0.0201794 0.0174103 0.0290344 0.010105
          0.00468338 0.00375331 0.00832403 0.00666848 0.00277663 0.0019763 0.00520314 0.0255419 0.0144229 0.0115207 0.0218491 0.0016853
          0.000271204 7.89672e-05 0.001027 3.24119e-06 3.05944e-06 3.05927e-06 3.06678e-06 1.30326e-07 0.000527366 2.55865e-05 9.50297e-06 0.000198914
          3.13451e-10 2.84361e-10 2.84361e-10 2.84376e-10 3.8747e-18 -4.81142e-31 0 0 0 0 0 0
          0 0 0 0 0 0 0 0 0 0 0 0
          0 0 0 0 0 0 0 0 0 0 0 0
          0 0 0 0 0 3.50847e-22 4.11616e-12 4.11616e-12 1.71467e-11 4.11616e-12 9.38858e-07 1.06135e-05
          0.000867836 0.0014014 2.94903e-05 0.000217053 0.00210018 0.00246986 0.000220343 9.35318e-07 9.35347e-07 9.3463e-07 9.33876e-07 0.00602905
          0.0148446 0.017764 0.00783774 0.0245382 0.0341202 0.0382002 0.028132 0.032181 0.0427624 0.0479507 0.0368155 0.0101187
          0.0210724 0.0248334 0.0126734 0.0432208 0.0516872 0.0563212 0.0476316 0.0594824 0.0665941 0.0714342 0.0642594 0.0694941
          0.0766794 0.0823662 0.0752735 0.0525307 0.0614364 0.0671509 0.0580546 0.0729774 0.0785166 0.08311 0.0777728 0.0830063
          0.0861598 0.0896638 0.0871831 0.091292 0.0928571 0.0955347 0.0951532 0.0828742 0.0878499 0.0926199 0.0882456 0.0876406
          0.0871065 0.0885059 0.0902091 0.0842095 0.0785783 0.077068 0.0842394 0.0833279 0.0744699 0.070669 0.0813149 0.0922288
          0.0891462 0.0888461 0.0934998 0.069898 0.0582555 0.053774 0.0667814 0.0445056 0.030457 0.0256091 0.0393622 0.033678
          0.0206604 0.0157684 0.0276967 0.0625389 0.0483512 0.0421445 0.0571707 0.0180446 0.00862893 0.00644964 0.0141013 0.0036791
          0.00101986 0.000304274 0.00236921 0.00138536 0.000123765 9.77357e-06 0.000607144 0.0104804 0.00468013 0.00321159 0.00751013 3.89556e-05
          3.51551e-05 3.51394e-05 3.53718e-05 4.65318e-08 6.45231e-10 5.55861e-07 5.21584e-07 5.21581e-07 5.21665e-07 8.94954e-14 6.98075e-25 -9.99043e-36
          0 0 0 0 0 0 0 0 0 0 0 0
          0 0 0 0 0 0 0 0 0 0 0 0
          0 0 0 0 0 0 0 0 0 0 0 0
          0 0 0 0 1.61699e-21 1.61699e-21 1.61699e-21 1.61699e-21 0.000256746 0.00261648 0.0025249 0.00043652
          0.000649192 0.00212471 0.000884041 0.000498366 1.61774e-21 1.61774e-21 1.62849e-21 1.62109e-21 0.0155451 0.029278 0.0348522 0.0191207
          0.0422694 0.0539762 0.06115 0.0489374 0.0574687 0.0698969 0.0806516 0.0688606 0.0241903 0.0424172 0.0538402 0.0329879
          0.0643814 0.0735997 0.0809129 0.0717369 0.0816695 0.0884758 0.0948665 0.0886885 0.0961557 0.101171 0.106932 0.103531
          0.0803546 0.0891306 0.0979803 0.0902925 0.0937609 0.0972038 0.101297 0.0991471 0.0985163 0.0974676 0.0984371 0.101136
          0.102769 0.0982226 0.0966262 0.103159 0.104038 0.104637 0.106935 0.108122 0.0938229 0.0874338 0.084757 0.0930063
          0.0780623 0.0656133 0.0593523 0.0734766 0.0675512 0.0520914 0.0441952 0.0604194 0.0908827 0.0807017 0.0752276 0.0873382
          0.050792 0.0354243 0.0285817 0.0436598 0.0217126 0.0111369 0.00748109 0.0160782 0.0111267 0.00495695 0.00294082 0.00739283
          0.0361692 0.0220214 0.0160637 0.0287657 0.00508337 0.00186964 0.000598523 0.00303386 0.000150893 0.000137234 0.000137019 0.000137852
          1.61235e-06 1.51506e-06 1.51502e-06 1.51738e-06 0.00158757 0.000212646 4.53417e-05 0.000577157 4.21148e-07 3.82035e-07 3.82034e-07 3.8204e-07
          2.87244e-12 4.28717e-22 7.71166e-37 0 0 0 0 0 0 0 0 0
          0 0 0 0 0 0 0 0 0 0 0 0
          0 0 0 0 0 0 0 0 0 0 0 0
          0 0 0 1.2066e-24 2.25966e-12 1.69936e-10 0.000189309 0.000300912 7.71192e-10 2.61774e-05 0.000372558 0.000373845
          2.75625e-05 2.39662e-11 0.0622676 0.0733415 0.0906753 0.0824493 0.083905 0.0932385 0.105309 0.0985725 0.110651 0.115109
          0.122522 0.119637 0.0981741 0.105032 0.115372 0.109248 0.100911 0.106561 0.113984 0.110489 0.110197 0.111749
          0.115228 0.115632 0.119486 0.117113 0.117339 0.12165 0.118222 0.119765 0.123768 0.12397 0.111055 0.107901
          0.107318 0.112534 0.102087 0.0935317 0.0889588 0.0994382 0.095251 0.0830292 0.0759649 0.0897481 0.112384 0.105106
          0.101362 0.110608 0.0823394 0.0684179 0.0605311 0.0759578 0.0523952 0.0361436 0.0284342 0.0439604 0.0356697 0.0214761
          0.0155083 0.0280143 0.068415 0.0520139 0.043429 0.0601031 0.0218712 0.0109908 0.00730254 0.0157869 0.00486655 0.00152519
          0.000582655 0.0029286 0.00150977 0.000224849 7.39592e-05 0.000543092 0.0107388 0.00481223 0.00283949 0.00715719 0.00013479 1.46339e-06
          2.87527e-07 9.29282e-06 7.02671e-09 6.91934e-09 1.91164e-06 1.81213e-06 1.81206e-06 1.81434e-06 5.98181e-15 4.81598e-27 -4.41374e-37 0
          0 0 0 0 0 0 0 0 0 0 0 0
          0 0 0 0 0 0 0 0 0 0 0 0
          0 0 0 0 0 0 0 0 0 0 0 1.31858e-30
          1.32476e-14 4.70936e-12 2.0527e-12 1.32476e-14 5.25483e-06 5.56262e-06 5.50101e-06 5.25467e-06 0.000451017 0.000453967 0.000455091 0.000452892
          0.000557739 0.000560709 0.00056053 0.000556955 5.25481e-06 6.11746e-06 6.03709e-06 5.25459e-06 0.117162 0.122849 0.128398 0.123027
          0.126223 0.127905 0.131717 0.131072 0.134727 0.134381 0.136233 0.137586 0.12758 0.132691 0.136195 0.131333
          0.127927 0.126115 0.12706 0.130422 0.122226 0.116025 0.11341 0.121439 0.119566 0.10979 0.105454 0.116875
          0.131793 0.126892 0.125877 0.132329 0.107376 0.0963371 0.0903927 0.102976 0.0832294 0.0680993 0.0598686 0.0759887
          0.0683564 0.051734 0.0440818 0.0606845 0.0977429 0.0838791 0.0770312 0.0920007 0.0515398 0.0353126 0.0280444 0.043253
          0.0213226 0.0107265 0.00736449 0.0157012 0.0112149 0.00515269 0.0034552 0.00797337 0.0356512 0.0218099 0.0166119 0.0289576
          0.00483167 0.00154484 0.000648008 0.00304934 0.000127176 2.9399e-06 2.1146e-06 1.06651e-05 1.85318e-06 1.7668e-06 1.76674e-06 1.767e-06
          0.00173653 0.000224328 2.04578e-05 0.000767326 6.17817e-10 1.19619e-10 1.19619e-10 1.31869e-10 1.53782e-18 8.7699e-35 0 0
          0 0 0 0 0 0 0 0 0 0 0 0
          0 0 0 0 0 0 0 0 0 0 0 0
          0 0 0 0 0 0 0 0 0 0 0 0
          0 2.32675e-15 3.38419e-16 0 1.73618e-07 1.73618e-07 1.73618e-07 1.73617e-07 0.000276039 0.000485318 0.000492092 0.000276715
          0.000426214 0.000499157 0.00050485 0.000425646 1.73618e-07 4.54214e-07 4.04168e-07 1.73617e-07 0.134636 0.139219 0.141954 0.13769
          0.139921 0.137511 0.138373 0.141904 0.14364 0.138918 0.139205 0.145191 0.140633 0.144516 0.146972 0.143535
          0.132248 0.12423 0.122107 0.131702 0.113591 0.100652 0.0955758 0.10989 0.105899 0.0903794 0.0851425 0.101706
          0.130791 0.11962 0.116844 0.129579 0.0860194 0.0700738 0.0632208 0.0799252 0.0532891 0.0371558 0.031054 0.0464001
          0.0401452 0.0257699 0.0212479 0.034564 0.0738305 0.0566511 0.0504863 0.0678325 0.0232282 0.0123938 0.00915063 0.0184072
          0.00586155 0.00222702 0.00122271 0.00423005 0.00296621 0.000676576 0.000156793 0.00188064 0.0143607 0.00695497 0.00531978 0.011102
          0.000306954 1.60174e-05 1.03483e-05 5.78878e-05 3.31188e-08 1.666e-08 1.56892e-05 1.4601e-05 1.45978e-05 1.4631e-05 7.35657e-14 3.65049e-25
          0 0 0 0 0 0 0 6.39658e-38 0 0 0 0
          0 0 0 0 0 0 0 0 0 0 0 0
          0 0 0 0 0 0 0 0 0 0 0 0
          0 0 0 0 2.00021e-16 0 0 7.40127e-08 7.40127e-08 7.40127e-08 7.40127e-08 0.000100965
          0.000512098 0.000519443 0.000101564 0.0002723 0.000531668 0.000551775 0.000272132 7.40127e-08 7.40127e-08 7.40127e-08 7.40126e-08 0.146464
          0.149365 0.151717 0.149445 0.146593 0.13927 0.139132 0.147866 0.14902 0.138801 0.138278 0.150062 0.152512
          0.154039 0.156333 0.155641 0.128107 0.113829 0.110606 0.126396 0.0973708 0.0798911 0.0746577 0.0929383 0.0884358
          0.0694622 0.0643217 0.0838462 0.124458 0.107191 0.103585 0.122292 0.0620148 0.0447891 0.0395722 0.0564351 0.0296347
          0.0173953 0.0141016 0.0253002 0.0214943 0.0113869 0.00920845 0.0181333 0.051122 0.0348135 0.0304714 0.046082 0.00863159
          0.00405853 0.0029759 0.00690058 0.00116857 0.000105839 2.66756e-05 0.000569302 0.000269635 3.98354e-06 7.28813e-07 8.68861e-05 0.00558534
          0.00214322 0.00144932 0.00450796 4.60493e-07 4.44557e-07 4.44552e-07 4.44553e-07 8.50272e-09 8.4937e-09 9.25109e-09 7.71099e-15 5.89664e-27
          0 0 0 0 0 0 0 4.48748e-33 2.56996e-38 0 0 0
          0 0 0 0 0 0 0 0 0 0 0 0
          0 0 0 0 0 0 0 0 0 -1.92561e-35 0 4.61676e-34
          -1.09542e-36 2.30913e-24 5.50362e-33 9.85789e-22 2.28128e-10 2.30944e-05 0.000585006 0.000565701 2.22465e-05 5.76316e-05 0.000572754 0.000550324
          5.6896e-05 1.09092e-10 0.158742 0.158597 0.160855 0.161605 0.150998 0.137558 0.136624 0.151832 0.152559 0.135447
          0.133981 0.153148 0.164811 0.163197 0.16562 0.168233 0.119889 0.0997835 0.0957775 0.11723 0.0791615 0.0592501
          0.0542554 0.0743758 0.0694822 0.0493443 0.044528 0.0644797 0.114284 0.0915554 0.0870957 0.111014 0.0413073 0.0264987
          0.0228549 0.0367833 0.0151251 0.00759204 0.00629237 0.0124698 0.0101932 0.00517956 0.00417063 0.00833749 0.0324965 0.0195037
          0.0164108 0.0284418 0.00359928 0.000972223 0.00049312 0.00275531 3.58453e-05 4.47033e-06 4.41843e-06 5.16485e-06 3.76988e-06 3.65315e-06
          3.6529e-06 3.65299e-06 0.00203606 0.000333775 8.21656e-05 0.00132436 1.47099e-09 4.32252e-10 4.32252e-10 4.60877e-10 1.53705e-17 4.73139e-35
          0 0 0 0 0 0 0 5.88579e-28 1.77964e-33 0 0 0
          0 0 0 0 0 0 0 0 0 0 0 0
          7.30859e-36 4.07776e-30 2.11563e-36 9.22377e-35 3.14575e-34 -1.91175e-38 1.074e-35 7.24963e-34 1.3748e-31 5.49343e-23 6.47422e-26 3.0158e-19
          3.04542e-23 2.74487e-12 9.6363e-17 2.68845e-23 2.68845e-23 1.51724e-22 1.3063e-22 2.57878e-16 2.57878e-16 2.57878e-16 2.57878e-16 0.00013058
          0.000575112 0.000593971 0.000130984 0.000166993 0.000608781 0.000624752 0.000167016 4.12776e-16 4.12776e-16 4.50537e-15 3.36364e-15 0.172285
          0.168132 0.170657 0.176549 0.153551 0.132171 0.12996 0.153714 0.153579 0.127281 0.124051 0.153073 0.181037
          0.173178 0.175685 0.185853 0.107377 0.0823683 0.0773579 0.103333 0.0593801 0.039824 0.0352533 0.0542036 0.0489737
          0.0308368 0.0265922 0.0437136 0.0988417 0.0720542 0.0664478 0.0938545 0.024625 0.0135843 0.0110957 0.0210558 0.00691046
          0.00329756 0.00245572 0.00569636 0.00465721 0.00174104 0.00111445 0.00373194 0.0177358 0.00901931 0.00743401 0.01465 0.000860348
          5.50027e-05 8.69033e-06 0.00040667 1.72268e-07 3.25467e-08 0.000178083 1.58529e-06 3.34498e-07 4.69514e-05 1.12158e-12 4.09228e-23 0
          0 0 0 0 0 0 0 0 0 0 0 0
          0 0 0 0 0 0 0 0 0 0 5.59293e-37 3.16018e-23
          1.54182e-17 1.54182e-17 3.43052e-16 1.59198e-17 3.8777e-15 3.8777e-15 1.29489e-13 6.1752e-15 2.92758e-19 2.92758e-19 7.74852e-18 1.52831e-17
          2.28458e-18 2.28458e-18 1.41606e-17 1.87283e-17 1.81067e-18 1.81067e-18 1.47765e-17 1.04219e-17 1.13242e-18 1.13242e-18 1.16724e-17 9.08445e-18
          2.09564e-18 2.09564e-18 2.12106e-17 1.78423e-17 1.41493e-18 1.41493e-18 1.53053e-17 1.35221e-17 4.99452e-16 4.99452e-16 8.73654e-16 1.66839e-14
          8.08927e-12 8.08927e-12 3.96237e-10 4.55797e-10 3.09384e-13 3.09384e-13 8.56162e-13 9.98178e-12 5.18132e-10 5.18132e-10 1.48047e-08 1.50263e-08
          6.0145e-12 6.0145e-12 2.66472e-09 1.1209e-10 1.1939e-06 1.19391e-06 3.99721e-06 3.99525e-06 7.0451e-05 7.33398e-05 3.92941e-06 3.9277e-06
          7.23598e-05 6.54786e-05 7.73423e-09 7.73214e-09 1.98179e-08 1.98179e-08 2.64753e-07 3.01084e-07 2.21219e-08 2.208e-08 3.15779e-07 4.64324e-07
          9.62156e-12 9.62151e-12 1.02391e-10 1.8406e-10 2.61414e-08 3.37018e-06 0.000650726 0.000774185 6.84234e-06 7.47769e-05 0.000658938 0.0008331
          8.20115e-05 7.91798e-08 7.91795e-08 1.16496e-06 1.06708e-06 0.191071 0.178151 0.18053 0.196629 0.15209 0.120158 0.115453
          0.150471 0.147979 0.109745 0.102797 0.144269 0.20327 0.18275 0.184565 0.21081 0.0883159 0.0605298 0.054302
          0.0821443 0.0384472 0.0225375 0.0186816 0.0332031 0.0280204 0.0150238 0.0116738 0.0229558 0.0752537 0.0477813 0.041001
          0.0675633 0.0118665 0.00613143 0.00498137 0.00945243 0.00289622 0.000664643 0.000294429 0.00210565 0.00139299 0.000149624 9.29418e-06
          0.000707818 0.00755533 0.00392146 0.00291228 0.00600747 1.44935e-05 3.73859e-07 3.63483e-07 4.5067e-07 6.17506e-10 5.95803e-10 7.56061e-07
          7.41344e-07 7.4133e-07 7.41334e-07 1.05147e-16 2.04459e-30 0 0 0 0 0 0 0
          0 0 0 0 0 0 0 0 0 0 0 0
          0 0 0 1.48259e-22 3.62051e-18 5.50127e-17 9.41062e-09 1.12845e-08 4.93515e-05 2.61786e-07 5.56551e-13 1.35537e-12
          3.64386e-11 8.22923e-06 1.26508e-05 0.000923196 0.000842784 3.52055e-07 3.51891e-06 0.000728585 0.00036948 2.90941e-09 2.04862e-08 2.04862e-08
          2.43949e-07 2.04964e-07 0.000205796 0.000211371 0.00115024 0.00108912 1.86447e-05 2.35493e-05 0.00104172 0.000988323 5.04239e-08 5.04239e-08
          5.71258e-08 5.47875e-08 3.03087e-07 3.03081e-07 6.75676e-06 6.78732e-06 0.000587844 0.000592386 0.00136771 0.00132016 7.26259e-05 8.50367e-05
          0.00126824 0.00121143 6.35307e-09 6.35304e-09 1.49694e-08 1.47314e-08 3.37816e-09 3.37816e-09 1.42375e-07 1.29088e-07 0.000176999 0.000183686
          0.00151899 0.0014868 9.0812e-05 9.13898e-05 0.00145095 0.00141134 6.14474e-09 6.14474e-09 2.65012e-08 2.2784e-08 5.09736e-09 5.09736e-09
          3.70502e-08 3.2333e-08 0.000119118 0.000123961 0.00161817 0.00159722 0.000104463 0.000112576 0.00157387 0.00154796 3.99119e-09 3.99119e-09
          4.74647e-08 4.27402e-08 4.5539e-09 4.5539e-09 5.56707e-08 5.26351e-08 0.000137323 0.000140233 0.00168375 0.00166974 0.000129168 0.000133161
          0.00165422 0.00163716 3.36079e-09 3.36079e-09 6.5721e-08 6.11518e-08 3.65523e-09 3.65523e-09 7.48576e-08 7.13299e-08 0.000150508 0.000153101
          0.00173005 0.00171957 0.000144005 0.000146934 0.00170845 0.00169665 4.33615e-09 4.33615e-09 8.51342e-08 8.1612e-08 4.70533e-09 4.70533e-09
          9.38719e-08 9.08575e-08 0.000162636 0.000164651 0.0017695 0.0017599 0.000156994 0.000159443 0.00175012 0.00174027 3.57301e-09 3.57301e-09
          1.049e-07 1.00825e-07 3.68089e-09 3.68089e-09 1.11715e-07 1.09536e-07 0.000172046 0.000173661 0.00180719 0.00179799 0.000167942 0.000169917
          0.00178857 0.00177913 8.96259e-08 8.9629e-08 4.09698e-06 3.85429e-06 1.28035e-08 1.28043e-08 1.1424e-06 7.78622e-07 0.000301602 0.000358277
          0.00184239 0.00183393 0.000491912 0.000495016 0.00182519 0.00181635 1.11066e-05 1.11108e-05 0.00010752 0.000101901 1.03636e-05 1.03626e-05
          8.82986e-05 8.92569e-05 0.00130289 0.00129211 0.00187516 0.00186714 0.00133872 0.0013864 0.00185898 0.00185083 1.75601e-06 1.75509e-06
          5.36622e-05 5.52008e-05 4.2683e-07 4.2698e-07 1.42391e-05 1.33693e-05 0.000732663 0.000765702 0.00190857 0.00189997 0.00114622 0.0011257
          0.00189152 0.00188336 5.71529e-05 5.71694e-05 0.00018224 0.000176247 5.65607e-05 5.65555e-05 0.000170787 0.000171024 0.00154242 0.00153784
          0.00194616 0.00193652 0.00154228 0.00158607 0.00192689 0.00191765 5.47335e-06 5.4595e-06 0.000112753 0.00011364 4.24827e-06 5.40231e-05
          0.00013505 7.95661e-05 0.00132622 0.0013454 0.00197923 0.00197278 0.00149284 0.00148266 0.00196485 0.00195584 0.0012508 0.00129618
          0.00138982 0.00133916 0.00129617 0.00125654 0.00133806 0.00138062 0.00175373 0.00174058 0.00200648 0.00200001 0.0017992 0.0018251
          0.00199263 0.0019855 0.00020187 0.000153549 0.000264404 0.00031346 0.000151329 0.000151249 0.000253583 0.000254062 0.00155532 0.00154809
          0.00201685 0.0020158 0.00160636 0.00159534 0.00201418 0.00201122 6.51275e-06 6.35025e-06 9.86434e-05 0.000100109 4.55703e-06 4.80436e-06
          5.57574e-05 5.3997e-05 0.0011715 0.00119187 0.00198393 0.00200296 0.00145336 0.00143592 0.00201329 0.00201711 0.000268724 0.000269175
          0.000415463 0.000409468 0.000270508 0.000694269 0.000718976 0.000401689 0.00176564 0.00167847 0.00178432 0.0018756 0.00180105 0.00183303
          0.00192018 0.00195564 0.219564 0.185618 0.185232 0.229991 0.138847 0.0943128 0.0839176 0.13095 0.119407 0.0711419
          0.0553157 0.102084 0.242715 0.182057 0.173017 0.258741 0.0589974 0.0340139 0.0269015 0.049493 0.0180671 0.00880562
          0.0066365 0.0134103 0.00925157 0.00478094 0.0030426 0.0061189 0.0390441 0.0197936 0.0128584 0.0277254 0.00464663 0.00199095
          0.00112478 0.0033815 0.000307557 8.8882e-06 4.45851e-06 5.81066e-05 9.85841e-06 3.50776e-06 3.49553e-06 3.49874e-06 0.00217926 0.000477266
          7.45106e-05 0.00103081 7.24275e-09 9.3154e-10 9.31535e-10 1.93676e-09 2.11212e-16 7.89074e-30 0 0 0 0
          0 0 0 0 0 0 0 0 0 0 0 0
          0 0 0 0 0 1.33347e-22 1.06846e-12 6.21406e-12 1.06846e-12 1.06846e-12 2.47506e-07 2.47507e-07
          2.47416e-07 2.47396e-07 0.000212633 0.00217344 8.70094e-06 8.66222e-06 2.8583e-10 2.85758e-10 0.00571596 0.0159066 5.24437e-06 4.6816e-06
          0.0424515 0.075729 0.0029171 0.0010052 7.80178e-05 0.00126262 0.00117917 3.70334e-06 1.74785e-07 1.74785e-07 1.74788e-07 1.74787e-07
          0.114207 0.156334 0.00968695 0.00571107 0.200936 0.247532 0.030258 0.0177404 0.0096643 0.0174192 0.0167991 0.00934325
          0.00356807 0.00602953 0.00582159 0.00342176 0.294516 0.340128 0.0598864 0.0444768 0.382853 0.422108 0.0959702 0.0768542
          0.0395247 0.0461493 0.0420585 0.0367055 0.0250753 0.0324804 0.0306287 0.0239329 0.457334 0.48815 0.141604 0.117598
          0.514718 0.537437 0.196846 0.168088 0.0638732 0.06939 0.056457 0.0537896 0.0523653 0.0582387 0.0505531 0.0466641
          0.556824 0.573362 0.258953 0.227383 0.587512 0.599637 0.321571 0.290662 0.0864544 0.0926396 0.0632525 0.0619649
          0.0749152 0.080569 0.0604548 0.0586478 0.610054 0.618988 0.377615 0.350794 0.626674 0.633304 0.422869 0.40165
          0.112512 0.119212 0.0670653 0.066267 0.0991204 0.105779 0.0653727 0.0643752 0.639099 0.644239 0.458341 0.44158
          0.648923 0.653284 0.48848 0.47379 0.1399 0.147976 0.0700196 0.0691998 0.125868 0.132656 0.0684732 0.0677847
          0.657452 0.661472 0.516973 0.502804 0.665402 0.669236 0.544966 0.531051 0.181141 0.196381 0.0753296 0.0735792
          0.157282 0.16821 0.0721532 0.0709876 0.672989 0.676608 0.57157 0.558553 0.680092 0.68339 0.594893 0.583759
          0.255597 0.27777 0.0862768 0.083053 0.214073 0.234023 0.0800612 0.0774769 0.686516 0.689438 0.61367 0.604864
          0.692194 0.69478 0.628189 0.621406 0.339009 0.356065 0.097612 0.0954115 0.29952 0.320086 0.0926433 0.0895348
          0.697248 0.699581 0.6394 0.634155 0.701832 0.703997 0.648075 0.644019 0.395518 0.40477 0.0958126 0.0982863
          0.371175 0.384324 0.0992972 0.0989942 0.706132 0.708222 0.654735 0.651634 0.710321 0.712425 0.659748 0.657429
          0.421413 0.423506 0.073292 0.0803218 0.412123 0.417646 0.0866224 0.0918714 0.714586 0.716764 0.663378 0.661733
          0.718988 0.721187 0.665513 0.664671 0.420465 0.416242 0.0442044 0.0510367 0.424012 0.422999 0.0583488 0.0658657
          0.723323 0.725217 0.664892 0.665713 0.726754 0.7278 0.65786 0.662501 0.38562 0.3638 0.0205431 0.0260932
          0.409841 0.400222 0.031835 0.0378525 0.728536 0.729245 0.640357 0.650494 0.729816 0.729984 0.610773 0.627278
          0.25959 0.219901 0.00519502 0.00666641 0.333787 0.298144 0.00900592 0.0141685 0.729541 0.728421 0.565898 0.590364
          0.726702 0.724495 0.505588 0.537585 0.113159 0.0867383 0.00159122 0.0022884 0.180948 0.144721 0.00309226 0.00404008