<?xml version="1.0"?>
<VTKFile type="UnstructuredGrid" version="0.1" byte_order="LittleEndian">
  <UnstructuredGrid>
    <Piece NumberOfCells="5448" NumberOfPoints="5705">
      <CellData Scalars="S_w">
        <DataArray type="Float32" Name="S_w" NumberOfComponents="1" format="ascii">
          1 1 1 1 1 1 1 1 1 1 1 1
          1 1 1 1 1 1 1 1 1 1 1 1
          1 1 1 1 1 1 1 1 1 1 1 1
          1 1 1 1 1 1 1 1 1 1 1 1
          1 1 1 1 1 1 1 1 1 1 1 1
          1 1 1 1 1 1 1 1 1 1 1 1
          1 1 1 1 1 1 1 1 1 1 1 1
          1 1 1 1 1 1 1 1 1 1 1 1
          1 1 1 1 1 1 1 1 1 1 1 1
          1 1 1 1 1 1 1 1 1 1 1 1
          1 1 1 1 1 1 1 1 1 1 1 1
          1 1 1 1 1 1 1 1 1 1 1 1
          1 1 1 1 1 1 1 1 1 1 1 1
          1 1 1 1 1 1 1 1 1 1 1 1
          1 1 1 1 1 1 1 1 1 1 1 1
          1 1 1 1 1 1 1 1 1 1 1 1
          1 1 1 1 1 1 1 1 1 1 1 1
          1 1 1 1 1 1 1 1 1 1 1 1
          1 1 1 1 1 1 1 1 1 1 1 1
          1 1 1 1 1 1 1 1 1 1 1 1
          1 1 1 1 1 1 1 1 1 1 1 1
          1 1 1 1 1 1 1 1 1 1 1 1
          1 1 1 1 1 1 1 1 1 1 1 1
          1 1 1 1 1 1 1 1 1 1 1 1
          1 1 1 1 1 1 1 1 1 1 1 1
          1 1 1 1 1 1 1 1 1 1 1 1
          1 1 1 1 1 1 1 1 1 1 1 1
          1 1 1 1 1 1 1 1 1 1 1 1
          1 1 1 1 1 1 1 1 1 1 1 1
          1 1 1 1 1 1 1 1 1 1 1 1
          1 1 1 1 1 1 1 1 1 1 1 1
          1 1 1 1 1 1 1 1 1 1 1 1
          1 1 1 1 1 1 1 1 1 1 1 1
          1 1 1 1 1 1 1 1 1 1 1 1
          1 1 1 1 1 1 1 1 1 1 1 1
          1 1 1 1 1 1 1 1 1 1 1 1
          1 1 1 1 1 1 1 1 1 1 1 1
          1 1 1 1 1 1 1 1 1 1 1 1
          1 1 1 1 1 1 1 1 1 1 1 1
          1 1 1 1 1 1 1 1 1 1 1 1
          1 1 1 0.999971 0.999975 1 1 0.999994 0.999995 1 1 1
          1 0.999999 0.999999 1 1 1 0.999999 0.999999 1 0.999999 0.999932 0.99995
          0.999292 0.999172 0.998227 0.998632 0.999898 0.999896 0.999775 0.999817 0.999778 0.999761 0.999314 0.999451
          0.999503 0.999467 0.998697 0.998841 0.996933 0.996668 0.994667 0.995098 0.998007 0.997666 0.996058 0.996696
          1 1 1 1 1 1 1 1 1 1 1 1
          1 1 1 1 1 1 1 1 1 1 1 1
          1 1 1 1 1 1 1 1 1 1 1 1
          1 1 1 1 1 1 1 1 1 1 1 1
          1 1 1 1 1 1 1 1 1 1 1 1
          1 1 1 1 0.999999 0.999998 1 1 0.999983 0.999981 1 1
          1 1 1 0.999576 0.999598 0.998891 0.998805 0.999868 0.999889 0.999652 0.999452 0.997875
          0.998382 0.996963 0.996094 0.996763 0.996916 0.994933 0.994719 0.999999 1 0.999995 0.999975 1
          0.999997 1 0.999999 0.999971 0.999541 0.999765 0.99939 0.998628 1 1 1 1
          1 1 1 1 1 1 1 1 1 1 1 1
          1 1 1 1 1 1 1 1 1 1 1 1
          1 1 1 1 1 1 1 1 1 1 1 1
          1 1 1 1 1 1 1 1 1 1 1 1
          1 1 1 1 1 1 1 1 1 1 1 1
          1 1 1 1 1 1 1 1 1 0.999947 0.999976 1
          1 1 1 1 0.999899 0.999897 0.999813 0.999841 0.999196 0.999039 0.998093 0.998582
          1 1 0.999987 0.999991 0.999048 0.998845 0.997733 0.998284 0.996773 0.996063 0.994109 0.99522
          0.992489 0.990962 0.988034 0.990012 0.996332 0.995441 0.993485 0.994837 0.994192 0.993282 0.990597 0.991873
          0.992053 0.99145 0.988355 0.989109 0.985238 0.984441 0.981145 0.981995 0.988253 0.986755 0.983565 0.985226
          0.999672 0.999632 0.99909 0.999343 0.996808 0.995981 0.99423 0.995519 0.993127 0.991345 0.988803 0.99125
          0.997949 0.997422 0.996082 0.997043 0.9922 0.990323 0.98753 0.989893 0.986406 0.984242 0.981163 0.983543
          0.979818 0.977322 0.97425 0.976876 0.98647 0.98387 0.980967 0.983839 0.981326 0.979569 0.976358 0.978208
          0.978006 0.977145 0.973904 0.974779 0.970979 0.970123 0.967024 0.96786 0.974404 0.972521 0.969384 0.971317
          1 1 1 1 1 1 1 1 1 0.99945 0.999247 0.998528
          0.999013 0.997456 0.996784 0.995421 0.996548 1 0.999993 0.999929 0.999996 1 1 1
          1 1 1 1 1 0.999998 1 1 0.999787 0.999415 0.998928 0.999561
          0.994602 0.993024 0.991169 0.993344 0.991013 0.988271 0.986223 0.989367 0.998352 0.997704 0.996902 0.997671
          0.99504 0.993685 0.991697 0.993614 0.988132 0.985354 0.982686 0.985805 0.982549 0.979218 0.976508 0.980089
          0.991051 0.98854 0.986159 0.989125 0.980326 0.977298 0.974389 0.977596 0.973248 0.970566 0.967561 0.970323
          0.966825 0.964035 0.961113 0.963953 0.974148 0.970851 0.967983 0.971404 0.967668 0.965731 0.962716 0.96467
          0.964275 0.963485 0.960558 0.961299 0.957934 0.957268 0.954537 0.955122 0.961197 0.959263 0.956389 0.958309
          0.986209 0.982925 0.980482 0.984122 0.976859 0.97313 0.970434 0.974354 0.971191 0.967152 0.964456 0.968661
          0.981195 0.977309 0.974848 0.979037 0.968056 0.964572 0.961756 0.965335 0.960584 0.957733 0.95489 0.957771
          0.954512 0.951632 0.948815 0.951709 0.962079 0.95845 0.955641 0.959353 0.955013 0.953136 0.950362 0.952205
          0.951982 0.951508 0.948955 0.949304 0.946345 0.94616 0.943807 0.943802 0.949026 0.947247 0.94456 0.946268
          1 1 1 1 1 1 1 1 1 1 1 1
          1 1 1 1 1 1 1 1 1 1 1 1
          1 1 1 0.999865 0.999777 1 1 0.99945 0.99934 1 1 0.995971
          0.994895 0.993613 0.99516 0.986915 0.983374 0.981273 0.985273 0.982765 0.978417 0.97622 0.980998 0.993507
          0.991419 0.989856 0.992639 1 1 1 1 1 1 0.998904 0.998824 0.999999
          0.9999 0.99837 0.998151 0.999897 1 1 1 1 0.990846 0.987425 0.985817 0.989856
          0.978418 0.973295 0.970923 0.976493 0.973764 0.96781 0.965101 0.971557 0.987943 0.983359 0.98158 0.986857
          0.976138 0.971734 0.969226 0.973904 0.965532 0.961215 0.958475 0.962947 0.959787 0.955203 0.952331 0.957068
          0.970977 0.966096 0.963476 0.968623 0.956124 0.952364 0.949513 0.953347 0.94848 0.945603 0.942777 0.945643
          0.942393 0.939573 0.936683 0.939453 0.950076 0.946201 0.943227 0.947163 0.943172 0.941572 0.938958 0.940435
          0.941034 0.941278 0.939164 0.938639 0.936086 0.936961 0.935178 0.933894 0.937389 0.936086 0.933563 0.934656
          0.965591 0.960231 0.957374 0.963011 0.95376 0.948907 0.945787 0.950789 0.947183 0.94207 0.938557 0.943803
          0.959718 0.953846 0.950588 0.956754 0.943739 0.93978 0.936601 0.940588 0.936098 0.93343 0.930467 0.933003
          0.929506 0.92718 0.924182 0.926233 0.936895 0.932931 0.929464 0.933387 0.931657 0.930847 0.928492 0.928958
          0.931644 0.933428 0.932137 0.929778 0.928002 0.931048 0.9305 0.926683 0.926072 0.926054 0.924033 0.923514
          1 1 1 1 1 1 1 1 0.999801 0.997867 0.997745 0.999801
          0.999801 0.997503 0.997265 0.999803 1 1 1 1 0.98494 0.978981 0.976865 0.983708
          0.9685 0.96157 0.958305 0.965834 0.962129 0.954029 0.949773 0.958575 0.981509 0.973753 0.970918 0.979878
          1 1 0.999928 0.996889 0.997339 1 1 0.997717 0.999379 1 1 0.977135
          0.966773 0.962526 0.975122 0.953606 0.944131 0.93808 0.948312 0.940426 0.929808 0.920398 0.930594 0.97082
          0.955515 0.945666 0.964606 0.952988 0.946564 0.942691 0.949422 0.939706 0.934377 0.930314 0.935723 0.9309
          0.925501 0.92075 0.92606 0.94488 0.937895 0.933063 0.940314 0.929297 0.925498 0.921731 0.925339 0.922606
          0.920953 0.918093 0.919233 0.915651 0.915201 0.91287 0.912474 0.92079 0.917524 0.913609 0.916381 0.920917
          0.92211 0.920734 0.918756 0.925672 0.930377 0.930888 0.925233 0.925379 0.932075 0.933936 0.926209 0.916809
          0.919721 0.919423 0.915484 0.934456 0.927064 0.920841 0.928245 0.920254 0.915235 0.909896 0.914379 0.90765
          0.904125 0.899218 0.901396 0.920262 0.913258 0.90571 0.911742 0.911511 0.909486 0.905981 0.907023 0.909405
          0.910845 0.909672 0.907068 0.905322 0.909215 0.909783 0.904607 0.902564 0.902771 0.90065 0.899087 0.914722
          0.919806 0.921028 0.914784 0.927908 0.936685 0.940009 0.930329 0.933821 0.944304 0.948764 0.937825 0.915754
          0.923206 0.92618 0.917613 0.991495 0.991755 0.988651 0.988365 0.993243 0.994426 0.99198 0.990406 0.98669
          0.988436 0.985484 0.983562 0.984478 0.984807 0.981578 0.981187 0.996696 0.997987 0.996671 0.994789 0.999624
          0.99989 0.999752 0.998946 0.997531 0.99893 0.998232 0.996231 0.992046 0.994497 0.992586 0.989384 0.999999
          1 1 0.999997 1 1 0.99995 1 0.999996 0.999825 0.977253 0.97771 0.974568
          0.974037 0.979859 0.981958 0.979124 0.976822 0.973367 0.97585 0.973246 0.970553 0.970333 0.970948 0.968004
          0.96729 0.986203 0.989819 0.987499 0.983614 0.994363 0.996796 0.99584 0.992824 0.99078 0.994424 0.993444
          0.98908 0.980656 0.984788 0.982751 0.978284 0.999242 0.999776 0.999674 0.998729 0.999997 1 1
          0.999995 0.999964 1 0.999999 0.999944 0.997803 0.999099 0.998886 0.997222 1 1 1
          1 1 1 1 1 1 0.963863 0.964692 0.961997 0.961029 0.967436 0.970338
          0.96807 0.964917 0.962196 0.965611 0.963747 0.960024 0.957895 0.959023 0.956613 0.955299 0.975668 0.980427
          0.978793 0.973684 0.987192 0.992127 0.991277 0.985908 0.984567 0.990208 0.989655 0.98375 0.971588 0.977021
          0.975863 0.970065 0.996403 0.998316 0.998061 0.995909 0.99977 0.999898 0.999897 0.999718 0.999603 0.999895
          0.99989 0.999555 0.995258 0.99753 0.997371 0.994971 0.952475 0.954008 0.951907 0.950118 0.957742 0.961798
          0.960408 0.955968 0.954188 0.959046 0.95822 0.952896 0.947604 0.949694 0.947965 0.945528 0.968541 0.974682
          0.974057 0.967553 0.982959 0.98904 0.988873 0.98263 0.982413 0.988735 0.988935 0.982588 0.966672 0.973517
          0.973482 0.966301 0.994624 0.997072 0.997023 0.99455 0.999396 0.999789 0.999784 0.999377 0.999278 0.999687
          0.999692 0.999303 0.994482 0.996923 0.996973 0.994599 0.999999 1 1 1 1 1
          1 1 1 1 1 1 0.999998 1 1 0.999998 1 1
          0.999997 1 1 0.999997 1 1 1 1 1 1 1 1
          1 1 1 1 1 1 1 1 1 1 1 1
          1 1 1 1 1 1 0.943382 0.946226 0.944964 0.941659 0.951718 0.957546
          0.957362 0.951004 0.950536 0.957454 0.958019 0.950546 0.939979 0.94382 0.943169 0.938732 0.966154 0.97364
          0.97419 0.966447 0.982947 0.989246 0.989729 0.983572 0.984432 0.990378 0.991038 0.985439 0.967072 0.975023
          0.976116 0.968062 0.994776 0.997053 0.997172 0.995032 0.999409 0.99979 0.999792 0.999449 0.999512 0.999794
          0.999799 0.99956 0.995405 0.997402 0.997563 0.995753 0.937677 0.94279 0.942935 0.937096 0.950956 0.95899
          0.960356 0.951831 0.953256 0.962229 0.964354 0.955094 0.936895 0.943531 0.944671 0.937231 0.969474 0.977569
          0.97909 0.971118 0.98675 0.991916 0.992587 0.987999 0.989597 0.99358 0.99418 0.990834 0.973249 0.981043
          0.982797 0.975389 0.996297 0.997942 0.998099 0.996671 0.999727 0.999898 0.999899 0.999759 0.999825 0.9999
          0.9999 0.999839 0.997321 0.998558 0.998672 0.997651 0.999999 1 1 0.999999 1 1
          0.999999 1 1 0.999999 1 1 1 1 1 1 1 1
          1 1 1 1 1 1 0.93817 0.946443 0.948698 0.939678 0.957598 0.967051
          0.969725 0.960343 0.963788 0.97299 0.97586 0.967154 0.941997 0.95171 0.954978 0.944807 0.978035 0.985074
          0.986833 0.980394 0.992345 0.995184 0.995687 0.993301 0.994651 0.996688 0.99706 0.995385 0.983263 0.989161
          0.990595 0.985516 0.998323 0.999142 0.999201 0.998568 0.999973 1 1 0.99998 0.999995 1
          1 0.999996 0.999166 0.999587 0.999605 0.999297 0.948537 0.959019 0.962903 0.952494 0.971186 0.979362
          0.982045 0.974695 0.97883 0.985503 0.987684 0.981946 0.957316 0.967488 0.971351 0.961835 0.988336 0.992572
          0.993495 0.990199 0.996638 0.998035 0.998251 0.997161 0.998319 0.999143 0.999211 0.998616 0.99253 0.995115
          0.995741 0.993679 0.999755 0.999899 0.9999 0.99979 1 1 1 1 1 0.999975
          1 1 0.999982 1 1 1 1 1 1 1 1 1
          1 1 1 1 1 1 1 1 1 1 1 1
          1 1 1 1 1 1 1 1 1 1 1 1
          1 1 1 1 1 1 1 1 1 1 1 1
          1 1 1 1 1 1 1 1 1 1 1 1
          1 1 1 1 1 1 1 1 1 1 1 1
          1 1 1 1 1 1 1 1 1 1 1 1
          1 1 1 1 1 1 1 1 1 1 1 1
          1 1 1 1 1 1 1 1 1 1 1 1
          1 1 1 1 1 1 1 1 1 1 1 1
          1 1 1 1 1 1 1 1 1 1 1 1
          1 1 1 1 1 1 1 1 1 1 1 1
          1 1 1 1 1 1 1 1 1 1 1 1
          1 1 1 1 1 1 1 1 1 1 1 1
          1 1 1 1 1 1 1 1 1 1 1 1
          1 1 1 1 1 1 1 1 1 1 1 1
          1 1 1 1 1 1 1 1 1 1 1 1
          1 1 1 1 1 1 1 1 1 1 0.9995 0.999499
          0.999277 0.999399 1 1 0.99992 0.999972 1 1 1 1 1 1
          1 1 1 1 1 1 1 1 0.999998 0.999998 1 1
          0.999997 0.999997 0.998704 0.998703 0.998701 0.998702 0.998903 0.998901 0.9989 0.998901 1 1
          0.999996 0.999996 1 1 0.999995 0.999995 0.998505 0.998504 0.998501 0.998502 0.998604 0.998604
          0.998601 0.998602 1 1 0.999994 0.999994 1 1 0.999992 0.999992 0.998307 0.998307
          0.998302 0.998303 0.998406 0.998405 0.998401 0.998402 1 1 1 1 1 1
          1 1 1 1 1 1 1 1 1 1 1 1
          1 1 1 1 1 1 1 1 1 1 1 1
          1 1 1 1 1 0.999992 0.999992 1 1 0.999991 0.999991 0.998208
          0.998208 0.998202 0.998203 0.998307 0.998306 0.998302 0.998302 1 1 0.99999 0.99999 0.9999
          0.9999 0.99989 0.99989 0.998109 0.998108 0.998103 0.998103 0.99811 0.998109 0.998103 0.998104 0.9999
          0.9999 0.999888 0.999889 0.9999 0.9999 0.999888 0.999888 0.99801 0.99801 0.998004 0.998004 0.998011
          0.99801 0.998004 0.998005 1 1 1 1 1 1 1 1 1
          1 1 1 1 1 1 1 1 1 1 1 1
          1 1 1 1 1 1 1 1 1 0.9999 0.9999 0.999888
          0.999888 0.9999 0.9999 0.999887 0.999887 0.997912 0.997912 0.997905 0.997906 0.99801 0.99801 0.998003
          0.998004 0.9999 0.9999 0.999887 0.999887 0.9999 0.9999 0.999887 0.999887 0.997912 0.997911 0.997904
          0.997905 0.997912 0.997912 0.997905 0.997905 0.9999 0.9999 0.999885 0.999885 0.9999 0.9999 0.999884
          0.999885 0.997813 0.997813 0.997806 0.997806 0.997814 0.997813 0.997806 0.997807 1 1 1
          1 1 1 1 1 1 1 1 1 1 1 1
          1 1 1 1 1 1 1 1 1 1 1 1
          1 1 1 1 1 1 1 1 1 1 1 1
          1 1 1 1 1 1 1 1 1 1 1 1
          1 1 1 1 1 1 1 1 1 1 1 1
          1 1 1 1 1 1 1 1 1 1 1 1
          1 1 1 1 1 1 1 1 1 1 1 1
          1 1 1 1 1 1 1 1 1 1 1 1
          1 1 1 1 1 0.999899 0.999719 0.999831 0.999901 1 1 1
          1 1 0.996889 0.994799 0.997027 0.99768 0.985653 0.970675 0.991413 0.992947 0.998862 0.998345
          0.998482 0.998909 1 0.999992 0.999992 1 1 1 1 1 1 1
          0.999988 0.999991 1 0.998905 0.998491 0.998453 0.998877 0.998711 0.998287 0.998228 0.998662 1
          0.999983 0.999986 1 0.94041 0.906923 0.976972 0.980519 0.859381 0.811201 0.954374 0.961672 0.98608
          0.9827 0.984178 0.987136 0.99493 0.993489 0.993923 0.99525 0.755861 0.705879 0.920176 0.932728 0.655623
          0.613762 0.881198 0.898564 0.955155 0.950096 0.956071 0.959834 0.969303 0.964133 0.967434 0.971801 0.574156
          0.543402 0.834319 0.856782 0.51391 0.491903 0.778772 0.806021 0.93162 0.926622 0.941821 0.944039 0.942906
          0.938013 0.947843 0.950778 0.995342 0.994026 0.993971 0.995296 0.987417 0.984448 0.984233 0.987263 0.986979
          0.983892 0.983631 0.98679 0.995166 0.993844 0.993777 0.995103 0.972328 0.967973 0.96756 0.971994 0.960812
          0.957201 0.956838 0.960439 0.959841 0.956232 0.95564 0.959267 0.971468 0.96694 0.966373 0.971013 0.952504
          0.949865 0.949689 0.952254 0.946796 0.94501 0.945099 0.946774 0.946432 0.944828 0.944476 0.94602 0.951742
          0.949224 0.948726 0.951206 1 1 1 1 1 1 0.999969 0.999975 1
          0.998431 0.998007 0.99796 0.998393 0.998243 0.997807 0.99776 0.998205 1 0.999959 0.999966 1
          1 1 1 1 1 1 1 1 1 0.999946 0.999952 0.999999
          0.998058 0.997611 0.997565 0.998019 0.997873 0.997421 0.997373 0.997836 0.9999 0.999837 0.999829 0.9999
          0.994969 0.993656 0.993597 0.994909 0.986501 0.983279 0.983047 0.98635 0.98613 0.982747 0.982513 0.985992
          0.994784 0.993485 0.993429 0.994726 0.97042 0.965672 0.965073 0.969949 0.958574 0.954938 0.954317 0.957967
          0.957244 0.953591 0.952953 0.956613 0.969337 0.964339 0.963714 0.968849 0.950582 0.948148 0.947639 0.950027
          0.94555 0.944069 0.943704 0.945122 0.944648 0.943298 0.942962 0.944243 0.949396 0.947062 0.946557 0.948834
          0.994609 0.993322 0.993281 0.994569 0.985791 0.982214 0.981988 0.985683 0.985533 0.981711 0.98149 0.985453
          0.994498 0.993213 0.993177 0.994466 0.968217 0.96295 0.9623 0.967717 0.955865 0.952212 0.951571 0.95522
          0.954461 0.950829 0.950167 0.953783 0.967073 0.96151 0.960817 0.966545 0.948199 0.945987 0.945502 0.947647
          0.943803 0.942597 0.942283 0.943416 0.942996 0.941942 0.941654 0.94263 0.94703 0.944961 0.944484 0.946472
          0.469737 0.453813 0.717533 0.747339 0.436833 0.425171 0.656501 0.685562 0.908029 0.901761 0.933542 0.934951
          0.920296 0.914824 0.937244 0.938958 0.41215 0.403709 0.601646 0.627078 0.393728 0.387134 0.555943 0.576752
          0.878687 0.870677 0.927143 0.928378 0.894215 0.887081 0.930278 0.931545 0.378786 0.373274 0.519005 0.535649
          0.366353 0.361859 0.489214 0.502601 0.842911 0.83337 0.92067 0.922004 0.861508 0.85276 0.923975 0.925231
          0.943043 0.941894 0.942293 0.943312 0.940666 0.939946 0.94066 0.941245 0.941297 0.940776 0.940674 0.941148
          0.943179 0.942233 0.942015 0.942904 0.939163 0.938705 0.939746 0.940064 0.938188 0.937877 0.939248 0.939419
          0.939787 0.939659 0.939686 0.939794 0.940287 0.940023 0.940002 0.940234 0.937481 0.937242 0.938941 0.939041
          0.936918 0.936717 0.938752 0.938809 0.939411 0.939387 0.939472 0.939488 0.939531 0.939468 0.939533 0.939583
          0.356157 0.352452 0.46458 0.475694 0.347674 0.344541 0.44369 0.453114 0.799653 0.78746 0.912683 0.914562
          0.822576 0.811816 0.91699 0.91854 0.340467 0.337778 0.426045 0.433928 0.33428 0.331957 0.411525 0.417922
          0.74773 0.735274 0.902788 0.904939 0.774129 0.761166 0.907806 0.909946 0.328929 0.326913 0.399848 0.404921
          0.324313 0.322562 0.390658 0.394594 0.701966 0.693391 0.895516 0.89649 0.723019 0.71215 0.898363 0.900174
          0.936416 0.936203 0.938607 0.938654 0.935875 0.93562 0.938464 0.938516 0.939334 0.939324 0.939447 0.939449
          0.939358 0.939346 0.939452 0.939456 0.935262 0.93499 0.938322 0.938368 0.934664 0.934475 0.938311 0.938275
          0.939336 0.939416 0.939581 0.939493 0.939299 0.939298 0.939445 0.939437 0.934381 0.934476 0.938788 0.938481
          0.935009 0.935795 0.940567 0.93958 0.940928 0.942 0.942297 0.941168 0.939668 0.940024 0.940223 0.939849
          0.942587 0.941756 0.94153 0.942304 0.940968 0.940537 0.94041 0.940801 0.940625 0.940274 0.940165 0.940479
          0.942002 0.941287 0.941084 0.941744 0.940149 0.939944 0.93988 0.94006 0.939761 0.939668 0.939644 0.939723
          0.939685 0.939619 0.939593 0.939649 0.939966 0.93981 0.939759 0.939894 0.939592 0.939551 0.939539 0.939574
          0.939512 0.939503 0.939505 0.939509 0.939505 0.93955 0.93952 0.93951 0.939535 0.94147 0.940868 0.940696
          0.941241 0.940329 0.940051 0.939968 0.940211 0.940093 0.939883 0.939818 0.94 0.941002 0.940515 0.940372
          0.940803 0.939824 0.939709 0.93967 0.939768 0.939613 0.939567 0.939551 0.93959 0.939568 0.939538 0.939524
          0.939547 0.939713 0.939631 0.939601 0.93967 0.939523 0.939507 0.939502 0.939514 0.9395 0.939498 0.939507
          0.9395 0.939499 0.939501 0.939497 0.939495 0.939499 0.9395 0.939495 0.939494 0.939499 0.939499 0.939499
          0.939499 0.939495 0.939507 0.939514 0.939501 0.939558 0.939648 0.939656 0.939566 0.939566 0.939656 0.939653
          0.939563 0.939502 0.939515 0.939513 0.939501 0.939929 0.940316 0.940339 0.93994 0.941304 0.942494 0.942621
          0.941369 0.941435 0.942756 0.94288 0.941489 0.939942 0.940352 0.940363 0.939941 0.939498 0.939498 0.939497
          0.939497 0.939501 0.939513 0.939511 0.9395 0.939561 0.93965 0.939645 0.939558 0.939556 0.939641 0.939635
          0.939552 0.939499 0.93951 0.939508 0.939498 0.939938 0.940371 0.940377 0.939934 0.941551 0.943021 0.943153
          0.941602 0.941662 0.943305 0.943449 0.941712 0.939929 0.940382 0.940385 0.939922 1 1 1
          1 1 1 1 1 1 1 1 0.9999 0.999814 0.999814 0.9999
          0.997706 0.997247 0.997242 0.997702 0.997702 0.997243 0.997248 0.997704 0.9999 0.999815 0.999817 0.9999
          1 1 1 1 1 1 1 1 1 1 1 0.9999
          0.999817 0.999821 0.9999 0.997709 0.99726 0.997289 0.997728 0.997802 0.997374 0.99743 0.99784 0.9999
          0.999829 0.999835 0.9999 0.994408 0.993123 0.993112 0.994404 0.985346 0.981233 0.981014 0.985288 0.98521
          0.980762 0.980553 0.985188 0.994407 0.993107 0.993112 0.994413 0.965864 0.959975 0.959247 0.965316 0.952988
          0.949403 0.94873 0.952283 0.951459 0.947957 0.947271 0.950715 0.964613 0.958365 0.957577 0.964025 0.945848
          0.943952 0.943498 0.9453 0.942235 0.941344 0.941093 0.941903 0.941551 0.940827 0.940617 0.941257 0.944694
          0.943001 0.942576 0.944157 0.994428 0.993127 0.993162 0.994463 0.985166 0.980318 0.980105 0.985186 0.985229
          0.979869 0.979667 0.985344 0.994541 0.993236 0.993312 0.994609 0.963268 0.956618 0.955739 0.962613 0.949849
          0.946487 0.94579 0.949055 0.948135 0.945 0.944299 0.947281 0.961765 0.954667 0.953666 0.961012 0.943569
          0.942115 0.941736 0.943058 0.940954 0.940399 0.940231 0.940706 0.940456 0.940061 0.939934 0.940255 0.94251
          0.941334 0.941001 0.94203 1 1 1 1 1 1 1 1 1
          1 1 0.9999 0.999848 0.999855 0.9999 0.997985 0.997592 0.997673 0.998038 0.99826 0.997922
          0.998024 0.998325 0.9999 0.999871 0.999874 0.999901 1 1 1 1 1 1
          0.999981 0.999991 1 0.998638 0.998377 0.998512 0.998714 0.999209 0.999081 0.999181 0.999258 1
          1 1 1 0.994757 0.993461 0.9936 0.994874 0.985539 0.979468 0.979286 0.985806 0.986252
          0.979156 0.979057 0.986779 0.995141 0.993877 0.994104 0.995312 0.960031 0.952443 0.951272 0.959108 0.946301
          0.943516 0.942834 0.945386 0.944356 0.942094 0.94148 0.943409 0.957887 0.949843 0.948435 0.956629 0.941525
          0.940653 0.940386 0.941104 0.94006 0.93981 0.939721 0.939911 0.939772 0.939637 0.93958 0.939672 0.940682
          0.940121 0.939928 0.940346 0.995726 0.994567 0.994968 0.996004 0.987691 0.979174 0.979461 0.988653 0.990463
          0.980637 0.983223 0.992186 0.996806 0.995887 0.996592 0.997213 0.954918 0.946729 0.945064 0.952961 0.942387
          0.940848 0.940376 0.941497 0.940625 0.93994 0.93968 0.939988 0.950154 0.943115 0.941372 0.946402 0.94003
          0.939746 0.939632 0.939809 0.939583 0.939529 0.939503 0.939532 0.939491 0.939479 0.939471 0.939475 0.939623
          0.939533 0.939493 0.939529 0.940599 0.940222 0.9401 0.940428 0.939906 0.939754 0.939698 0.939826 0.939744
          0.939641 0.939604 0.939687 0.940253 0.939974 0.939878 0.940114 0.939628 0.939572 0.939555 0.939598 0.939525
          0.939507 0.939501 0.939514 0.939507 0.939499 0.939497 0.9395 0.939571 0.93954 0.939525 0.939548 0.939499
          0.939496 0.939494 0.939495 0.939975 0.93978 0.939716 0.939874 0.939633 0.939569 0.939548 0.939596 0.939564
          0.93953 0.939514 0.939535 0.939779 0.939655 0.939605 0.939702 0.939523 0.939506 0.939498 0.93951 0.939497
          0.939492 0.9395 0.939494 0.939492 0.939494 0.939492 0.939495 0.939496 0.939494 0.939494 0.939498 0.939507
          0.939504 0.939497 0.939549 0.939629 0.939621 0.939544 0.939539 0.939612 0.939602 0.939532 0.939496 0.939503
          0.9395 0.939495 0.939913 0.940386 0.940383 0.939902 0.941771 0.943615 0.943775 0.941819 0.941876 0.943958
          0.944133 0.941918 0.939888 0.940377 0.940365 0.939871 0.939492 0.939492 0.939489 0.93949 0.939494 0.939498
          0.939496 0.939493 0.939525 0.93959 0.939577 0.939516 0.939505 0.939561 0.939545 0.939499 0.939493 0.939849
          0.940346 0.940327 0.939834 0.941964 0.944327 0.944505 0.941986 0.941994 0.944689 0.944853 0.941967 0.939812
          0.940297 0.940246 0.939777 0.939628 0.939555 0.939529 0.93958 0.939507 0.939496 0.939491 0.939494 0.939489
          0.939536 0.939503 0.93949 0.939509 0.93949 0.939488 0.939485 0.939485 0.939486 0.939491 0.939483 0.939478
          0.93948 0.93948 0.939473 0.939474 0.939479 0.939479 0.939473 0.939473 0.939479 0.939478 0.939472 0.939472
          0.939486 0.93949 0.939497 0.939537 0.939523 0.939493 0.93949 0.939513 0.939502 0.939487 0.939486 0.93974
          0.940181 0.940106 0.939698 0.941912 0.945013 0.94515 0.941821 0.941687 0.945266 0.945328 0.941505 0.939655
          0.940019 0.939925 0.939613 0.939478 0.939479 0.939472 0.939472 0.93948 0.939483 0.939493 0.939485 0.939479
          0.939474 0.939477 0.939471 0.939471 0.939473 0.939569 0.939818 0.939721 0.939537 0.941244 0.945295 0.945096
          0.940931 0.940498 0.944511 0.943157 0.940045 0.939506 0.939619 0.939537 0.939485 1 1 1
          1 1 1 1 1 1 1 1 1 1 1 1
          1 1 1 1 1 1 1 1 1 1 1 1
          1 1 1 0.999857 0.999723 1 0.9999 0.99963 0.999586 0.9999 1 1
          1 1 0.935195 0.925803 0.910405 0.91711 0.915984 0.908313 0.897935 0.903277 0.892146 0.888869
          0.882603 0.884529 0.902197 0.896888 0.88794 0.892434 1 1 1 1 1 1
          1 1 0.9998 0.999559 0.999545 0.9998 0.9997 0.999532 0.999523 0.9997 1 1
          1 1 0.885132 0.880976 0.876191 0.880195 0.878521 0.877615 0.874269 0.874358 0.870908 0.871589
          0.869731 0.868305 0.87597 0.87211 0.868958 0.87267 0.901901 0.89769 0.891436 0.893795 0.895332 0.894734
          0.891742 0.890803 0.887294 0.889748 0.889177 0.88535 0.886821 0.886138 0.882726 0.882023 0.896312 0.89934
          0.899308 0.894868 0.904889 0.911353 0.913863 0.906249 0.908738 0.917435 0.921535 0.911942 0.894539 0.90036
          0.902431 0.895388 0.920597 0.930233 0.934724 0.924268 0.942878 0.954059 0.958883 0.947928 0.953776 0.964341
          0.968666 0.958907 0.929041 0.940155 0.945369 0.933997 0.878396 0.880353 0.879226 0.876141 0.884481 0.889621
          0.890974 0.884642 0.885585 0.893065 0.895564 0.887042 0.87461 0.8788 0.879045 0.873789 0.897297 0.90546
          0.908934 0.899863 0.91611 0.926518 0.93145 0.920469 0.925543 0.936977 0.941937 0.930363 0.903193 0.913067
          0.917207 0.906688 0.939784 0.951215 0.956172 0.945103 0.964556 0.973552 0.976939 0.968964 0.973808 0.980988
          0.983435 0.977194 0.950924 0.96155 0.965655 0.955781 1 1 1 1 1 1
          1 1 0.9997 0.999514 0.999507 0.9997 0.9997 0.999499 0.999492 0.9997 1 1
          1 1 0.869488 0.865973 0.863429 0.866718 0.865964 0.86817 0.867056 0.864045 0.862224 0.866097
          0.865412 0.86064 0.863873 0.860861 0.858548 0.861251 1 1 1 1 1 1
          1 1 0.9996 0.999483 0.999476 0.9996 0.9996 0.999468 0.999461 0.9996 1 1
          1 1 0.858478 0.856139 0.853906 0.855852 0.859096 0.864835 0.864471 0.857717 0.856364 0.864216
          0.864158 0.855144 0.853037 0.851545 0.849306 0.850295 0.873386 0.879728 0.880755 0.873348 0.889032 0.898559
          0.901637 0.891217 0.893804 0.905074 0.908401 0.896416 0.873596 0.882093 0.883624 0.874059 0.910689 0.92183
          0.926158 0.914545 0.935669 0.947269 0.951692 0.940367 0.945394 0.956407 0.960098 0.949627 0.918805 0.930842
          0.935031 0.922769 0.960965 0.970171 0.973326 0.964975 0.981053 0.986678 0.988365 0.983504 0.986489 0.990818
          0.99178 0.988202 0.969304 0.976978 0.979353 0.972476 0.874773 0.885431 0.887357 0.875634 0.899376 0.912029
          0.91549 0.902288 0.905543 0.919264 0.922824 0.908702 0.876754 0.889562 0.891861 0.878007 0.927088 0.939511
          0.943395 0.931029 0.954136 0.964115 0.967133 0.957813 0.961793 0.970558 0.973 0.964925 0.935305 0.94757
          0.951082 0.939125 0.976044 0.982335 0.984137 0.978516 0.990432 0.993326 0.993924 0.99154 0.993049 0.99509
          0.995502 0.993741 0.981436 0.986616 0.987945 0.983332 1 1 1 1 1 1
          1 1 1 1 1 1 1 1 1 1 1 1
          1 1 1 1 1 1 1 1 1 1 1 1
          1 1 1 1 1 1 1 1 1 1 1 1
          0.9999 0.9999 0.999884 0.999884 0.9999 0.9999 0.999884 0.999884 0.997813 0.997813 0.997806 0.997806
          0.997813 0.997813 0.997806 0.997806 0.9999 0.9999 0.999884 0.999884 0.9999 0.9999 0.999882 0.999882
          0.997716 0.997715 0.997708 0.997708 0.997813 0.997813 0.997806 0.997806 0.9999 0.9999 0.999882 0.999882
          0.9999 0.9999 0.999882 0.999882 0.997715 0.997715 0.997708 0.997708 0.997715 0.997715 0.997708 0.997708
          1 1 1 1 1 1 1 1 1 1 1 1
          1 1 1 1 1 1 1 1 1 1 1 1
          1 1 1 1 1 1 0.9999 0.9999 0.999882 0.999882 0.9999 0.9999
          0.999882 0.999882 0.997715 0.997715 0.997708 0.997708 0.997715 0.997715 0.997708 0.997708 0.9999 0.9999
          0.999882 0.999882 0.9999 0.9999 0.999882 0.999882 0.997715 0.997715 0.997708 0.997708 0.997715 0.997715
          0.997708 0.997708 0.9999 0.9999 0.999881 0.999882 0.9999 0.9999 0.999881 0.999881 0.997715 0.997715
          0.997708 0.997708 0.997715 0.997715 0.997708 0.997708 1 1 1 1 1 1
          1 1 0.9996 0.999453 0.999446 0.9996 0.9996 0.999438 0.99943 0.9996 1 1
          1 1 0.847318 0.84691 0.844609 0.844364 0.85396 0.864238 0.864526 0.852898 0.851903 0.865011
          0.86575 0.851047 0.841123 0.84213 0.839728 0.837842 1 1 1 1 1 1
          1 1 0.9995 0.99942 0.999412 0.9995 0.9995 0.999403 0.999393 0.9995 1 1
          1 1 0.834199 0.837134 0.834615 0.830442 0.850321 0.866783 0.868163 0.849796 0.849517 0.869995
          0.872324 0.849565 0.826217 0.831903 0.829288 0.821743 0.879562 0.894479 0.897183 0.881255 0.912225 0.926721
          0.930363 0.915648 0.919486 0.93437 0.938074 0.923216 0.883318 0.900262 0.903438 0.885561 0.943279 0.954918
          0.958071 0.946936 0.968402 0.975913 0.977917 0.971078 0.974164 0.980473 0.982145 0.976457 0.950951 0.961611
          0.964433 0.954417 0.985697 0.989909 0.990822 0.987153 0.994865 0.996423 0.996708 0.995354 0.996287 0.997482
          0.997677 0.996648 0.989101 0.992259 0.99285 0.990206 0.888276 0.907062 0.910793 0.891239 0.927422 0.942188
          0.945915 0.931483 0.936076 0.9501 0.953815 0.940466 0.894822 0.915076 0.919469 0.898734 0.958278 0.967708