<?xml version="1.0"?>
<VTKFile type="UnstructuredGrid" version="0.1" byte_order="LittleEndian">
  <UnstructuredGrid>
    <Piece NumberOfCells="1536" NumberOfPoints="1617">
      <CellData Scalars="porosity">
        <DataArray type="Float32" Name="porosity" NumberOfComponents="1" format="ascii">
          0.4 0.4 0.4 0.4 0.4 0.4 0.4 0.4 0.4 0.4 0.4 0.4
          0.4 0.4 0.4 0.4 0.4 0.4 0.4 0.4 0.4 0.4 0.4 0.4
          0.4 0.4 0.4 0.4 0.4 0.4 0.4 0.4 0.4 0.4 0.4 0.4
          0.4 0.4 0.4 0.4 0.4 0.4 0.4 0.4 0.4 0.4 0.4 0.4
          0.4 0.4 0.4 0.4 0.4 0.4 0.4 0.4 0.4 0.4 0.4 0.4
          0.4 0.4 0.4 0.4 0.4 0.4 0.4 0.4 0.4 0.4 0.4 0.4
          0.4 0.4 0.4 0.4 0.4 0.4 0.4 0.4 0.4 0.4 0.4 0.4
          0.4 0.4 0.4 0.4 0.4 0.4 0.4 0.4 0.4 0.4 0.4 0.4
          0.4 0.4 0.4 0.4 0.4 0.4 0.4 0.4 0.4 0.4 0.4 0.4
          0.4 0.4 0.4 0.4 0.4 0.4 0.4 0.4 0.4 0.4 0.4 0.4
          0.4 0.4 0.4 0.4 0.4 0.4 0.4 0.4 0.4 0.4 0.4 0.4
          0.4 0.4 0.4 0.4 0.4 0.4 0.4 0.4 0.4 0.4 0.4 0.4
          0.4 0.4 0.4 0.4 0.4 0.4 0.4 0.4 0.4 0.4 0.4 0.4
          0.4 0.4 0.4 0.4 0.4 0.4 0.4 0.4 0.4 0.4 0.4 0.4
          0.4 0.4 0.4 0.4 0.4 0.4 0.4 0.4 0.4 0.4 0.4 0.4
          0.4 0.4 0.4 0.4 0.4 0.4 0.4 0.4 0.4 0.4 0.4 0.4
          0.4 0.4 0.4 0.4 0.4 0.4 0.4 0.4 0.4 0.4 0.4 0.4
          0.4 0.4 0.4 0.4 0.4 0.4 0.4 0.4 0.4 0.4 0.4 0.4
          0.4 0.4 0.4 0.4 0.4 0.4 0.4 0.4 0.4 0.4 0.4 0.4
          0.4 0.4 0.4 0.4 0.4 0.4 0.4 0.4 0.4 0.4 0.4 0.4
          0.4 0.4 0.4 0.4 0.4 0.4 0.4 0.4 0.4 0.4 0.4 0.4
          0.4 0.4 0.4 0.4 0.4 0.4 0.4 0.4 0.4 0.4 0.4 0.4
          0.4 0.4 0.4 0.4 0.4 0.4 0.4 0.4 0.4 0.4 0.4 0.4
          0.4 0.4 0.4 0.4 0.4 0.4 0.4 0.4 0.4 0.4 0.4 0.4
          0.4 0.4 0.4 0.4 0.4 0.4 0.4 0.4 0.4 0.4 0.4 0.4
          0.4 0.4 0.4 0.4 0.4 0.4 0.4 0.4 0.4 0.4 0.4 0.4
          0.4 0.4 0.4 0.4 0.4 0.4 0.4 0.4 0.4 0.4 0.4 0.4
          0.4 0.4 0.4 0.4 0.4 0.4 0.4 0.4 0.4 0.4 0.4 0.4
          0.4 0.4 0.4 0.4 0.4 0.4 0.4 0.4 0.4 0.4 0.4 0.4
          0.4 0.4 0.4 0.4 0.4 0.4 0.4 0.4 0.4 0.4 0.4 0.4
          0.4 0.4 0.4 0.4 0.4 0.4 0.4 0.4 0.4 0.4 0.4 0.4
          0.4 0.4 0.4 0.4 0.4 0.4 0.4 0.4 0.4 0.4 0.4 0.4
          0.4 0.4 0.4 0.4 0.4 0.4 0.4 0.4 0.4 0.4 0.4 0.4
          0.4 0.4 0.4 0.4 0.4 0.4 0.4 0.4 0.4 0.4 0.4 0.4
          0.4 0.4 0.4 0.4 0.4 0.4 0.4 0.4 0.4 0.4 0.4 0.4
          0.4 0.4 0.4 0.4 0.4 0.4 0.4 0.4 0.4 0.4 0.4 0.4
          0.4 0.4 0.4 0.4 0.4 0.4 0.4 0.4 0.4 0.4 0.4 0.4
          0.4 0.4 0.4 0.4 0.4 0.4 0.4 0.4 0.4 0.4 0.4 0.4
          0.4 0.4 0.4 0.4 0.4 0.4 0.4 0.4 0.4 0.4 0.4 0.4
          0.4 0.4 0.4 0.4 0.4 0.4 0.4 0.4 0.4 0.4 0.4 0.4
          0.4 0.4 0.4 0.4 0.4 0.4 0.4 0.4 0.4 0.4 0.4 0.4
          0.4 0.4 0.4 0.4 0.4 0.4 0.4 0.4 0.4 0.4 0.4 0.4
          0.4 0.4 0.4 0.4 0.4 0.4 0.4 0.4 0.4 0.4 0.4 0.4
          0.4 0.4 0.4 0.4 0.4 0.4 0.4 0.4 0.4 0.4 0.4 0.4
          0.4 0.4 0.4 0.4 0.4 0.4 0.4 0.4 0.4 0.4 0.4 0.4
          0.4 0.4 0.4 0.4 0.4 0.4 0.4 0.4 0.4 0.4 0.4 0.4
          0.4 0.4 0.4 0.4 0.4 0.4 0.4 0.4 0.4 0.4 0.4 0.4
          0.4 0.4 0.4 0.4 0.4 0.4 0.4 0.4 0.4 0.4 0.4 0.4
          0.4 0.4 0.4 0.4 0.4 0.4 0.4 0.4 0.4 0.4 0.4 0.4
          0.4 0.4 0.4 0.4 0.4 0.4 0.4 0.4 0.4 0.4 0.4 0.4
          0.4 0.4 0.4 0.4 0.4 0.4 0.4 0.4 0.4 0.4 0.4 0.4
          0.4 0.4 0.4 0.4 0.4 0.4 0.4 0.4 0.4 0.4 0.4 0.4
          0.4 0.4 0.4 0.4 0.4 0.4 0.4 0.4 0.4 0.4 0.4 0.4
          0.4 0.4 0.4 0.4 0.4 0.4 0.4 0.4 0.4 0.4 0.4 0.4
          0.4 0.4 0.4 0.4 0.4 0.4 0.4 0.4 0.4 0.4 0.4 0.4
          0.4 0.4 0.4 0.4 0.4 0.4 0.4 0.4 0.4 0.4 0.4 0.4
          0.4 0.4 0.4 0.4 0.4 0.4 0.4 0.4 0.4 0.4 0.4 0.4
          0.4 0.4 0.4 0.4 0.4 0.4 0.4 0.4 0.4 0.4 0.4 0.4
          0.4 0.4 0.4 0.4 0.4 0.4 0.4 0.4 0.4 0.4 0.4 0.4
          0.4 0.4 0.4 0.4 0.4 0.4 0.4 0.4 0.4 0.4 0.4 0.4
          0.4 0.4 0.4 0.4 0.4 0.4 0.4 0.4 0.4 0.4 0.4 0.4
          0.4 0.4 0.4 0.4 0.4 0.4 0.4 0.4 0.4 0.4 0.4 0.4
          0.4 0.4 0.4 0.4 0.4 0.4 0.4 0.4 0.4 0.4 0.4 0.4
          0.4 0.4 0.4 0.4 0.4 0.4 0.4 0.4 0.4 0.4 0.4 0.4
          0.4 0.4 0.4 0.4 0.4 0.4 0.4 0.4 0.4 0.4 0.4 0.4
          0.4 0.4 0.4 0.4 0.4 0.4 0.4 0.4 0.4 0.4 0.4 0.4
          0.4 0.4 0.4 0.4 0.4 0.4 0.4 0.4 0.4 0.4 0.4 0.4
          0.4 0.4 0.4 0.4 0.4 0.4 0.4 0.4 0.4 0.4 0.4 0.4
          0.4 0.4 0.4 0.4 0.4 0.4 0.4 0.4 0.4 0.4 0.4 0.4
          0.4 0.4 0.4 0.4 0.4 0.4 0.4 0.4 0.4 0.4 0.4 0.4
          0.4 0.4 0.4 0.4 0.4 0.4 0.4 0.4 0.4 0.4 0.4 0.4
          0.4 0.4 0.4 0.4 0.4 0.4 0.4 0.4 0.4 0.4 0.4 0.4
          0.4 0.4 0.4 0.4 0.4 0.4 0.4 0.4 0.4 0.4 0.4 0.4
          0.4 0.4 0.4 0.4 0.4 0.4 0.4 0.4 0.4 0.4 0.4 0.4
          0.4 0.4 0.4 0.4 0.4 0.4 0.4 0.4 0.4 0.4 0.4 0.4
          0.4 0.4 0.4 0.4 0.4 0.4 0.4 0.4 0.4 0.4 0.4 0.4
          0.4 0.4 0.4 0.4 0.4 0.4 0.4 0.4 0.4 0.4 0.4 0.4
          0.4 0.4 0.4 0.4 0.4 0.4 0.4 0.4 0.4 0.4 0.4 0.4
          0.4 0.4 0.4 0.4 0.4 0.4 0.4 0.4 0.4 0.4 0.4 0.4
          0.4 0.4 0.4 0.4 0.4 0.4 0.4 0.4 0.4 0.4 0.4 0.4
          0.4 0.4 0.4 0.4 0.4 0.4 0.4 0.4 0.4 0.4 0.4 0.4
          0.4 0.4 0.4 0.4 0.4 0.4 0.4 0.4 0.4 0.4 0.4 0.4
          0.4 0.4 0.4 0.4 0.4 0.4 0.4 0.4 0.4 0.4 0.4 0.4
          0.4 0.4 0.4 0.4 0.4 0.4 0.4 0.4 0.4 0.4 0.4 0.4
          0.4 0.4 0.4 0.4 0.4 0.4 0.4 0.4 0.4 0.4 0.4 0.4
          0.4 0.4 0.4 0.4 0.4 0.4 0.4 0.4 0.4 0.4 0.4 0.4
          0.4 0.4 0.4 0.4 0.4 0.4 0.4 0.4 0.4 0.4 0.4 0.4
          0.4 0.4 0.4 0.4 0.4 0.4 0.4 0.4 0.4 0.4 0.4 0.4
          0.4 0.4 0.4 0.4 0.4 0.4 0.4 0.4 0.4 0.4 0.4 0.4
          0.4 0.4 0.4 0.4 0.4 0.4 0.4 0.4 0.4 0.4 0.4 0.4
          0.4 0.4 0.4 0.4 0.4 0.4 0.4 0.4 0.4 0.4 0.4 0.4
          0.4 0.4 0.4 0.4 0.4 0.4 0.4 0.4 0.4 0.4 0.4 0.4
          0.4 0.4 0.4 0.4 0.4 0.4 0.4 0.4 0.4 0.4 0.4 0.4
          0.4 0.4 0.4 0.4 0.4 0.4 0.4 0.4 0.4 0.4 0.4 0.4
          0.4 0.4 0.4 0.4 0.4 0.4 0.4 0.4 0.4 0.4 0.4 0.4
          0.4 0.4 0.4 0.4 0.4 0.4 0.4 0.4 0.4 0.4 0.4 0.4
          0.4 0.4 0.4 0.4 0.4 0.4 0.4 0.4 0.4 0.4 0.4 0.4
          0.4 0.4 0.4 0.4 0.4 0.4 0.4 0.4 0.4 0.4 0.4 0.4
          0.4 0.4 0.4 0.4 0.4 0.4 0.4 0.4 0.4 0.4 0.4 0.4
          0.4 0.4 0.4 0.4 0.4 0.4 0.4 0.4 0.4 0.4 0.4 0.4
          0.4 0.4 0.4 0.4 0.4 0.4 0.4 0.4 0.4 0.4 0.4 0.4
          0.4 0.4 0.4 0.4 0.4 0.4 0.4 0.4 0.4 0.4 0.4 0.4
          0.4 0.4 0.4 0.4 0.4 0.4 0.4 0.4 0.4 0.4 0.4 0.4
          0.4 0.4 0.4 0.4 0.4 0.4 0.4 0.4 0.4 0.4 0.4 0.4
          0.4 0.4 0.4 0.4 0.4 0.4 0.4 0.4 0.4 0.4 0.4 0.4
          0.4 0.4 0.4 0.4 0.4 0.4 0.4 0.4 0.4 0.4 0.4 0.4
          0.4 0.4 0.4 0.4 0.4 0.4 0.4 0.4 0.4 0.4 0.4 0.4
          0.4 0.4 0.4 0.4 0.4 0.4 0.4 0.4 0.4 0.4 0.4 0.4
          0.4 0.4 0.4 0.4 0.4 0.4 0.4 0.4 0.4 0.4 0.4 0.4
          0.4 0.4 0.4 0.4 0.4 0.4 0.4 0.4 0.4 0.4 0.4 0.4
          0.4 0.4 0.4 0.4 0.4 0.4 0.4 0.4 0.4 0.4 0.4 0.4
          0.4 0.4 0.4 0.4 0.4 0.4 0.4 0.4 0.4 0.4 0.4 0.4
          0.4 0.4 0.4 0.4 0.4 0.4 0.4 0.4 0.4 0.4 0.4 0.4
          0.4 0.4 0.4 0.4 0.4 0.4 0.4 0.4 0.4 0.4 0.4 0.4
          0.4 0.4 0.4 0.4 0.4 0.4 0.4 0.4 0.4 0.4 0.4 0.4
          0.4 0.4 0.4 0.4 0.4 0.4 0.4 0.4 0.4 0.4 0.4 0.4
          0.4 0.4 0.4 0.4 0.4 0.4 0.4 0.4 0.4 0.4 0.4 0.4
          0.4 0.4 0.4 0.4 0.4 0.4 0.4 0.4 0.4 0.4 0.4 0.4
          0.4 0.4 0.4 0.4 0.4 0.4 0.4 0.4 0.4 0.4 0.4 0.4
          0.4 0.4 0.4 0.4 0.4 0.4 0.4 0.4 0.4 0.4 0.4 0.4
          0.4 0.4 0.4 0.4 0.4 0.4 0.4 0.4 0.4 0.4 0.4 0.4
          0.4 0.4 0.4 0.4 0.4 0.4 0.4 0.4 0.4 0.4 0.4 0.4
          0.4 0.4 0.4 0.4 0.4 0.4 0.4 0.4 0.4 0.4 0.4 0.4
          0.4 0.4 0.4 0.4 0.4 0.4 0.4 0.4 0.4 0.4 0.4 0.4
          0.4 0.4 0.4 0.4 0.4 0.4 0.4 0.4 0.4 0.4 0.4 0.4
          0.4 0.4 0.4 0.4 0.4 0.4 0.4 0.4 0.4 0.4 0.4 0.4
          0.4 0.4 0.4 0.4 0.4 0.4 0.4 0.4 0.4 0.4 0.4 0.4
          0.4 0.4 0.4 0.4 0.4 0.4 0.4 0.4 0.4 0.4 0.4 0.4
        </DataArray>
        <DataArray type="Float32" Name="pc" NumberOfComponents="1" format="ascii">
          0 0 0 0 0 0 0 0 0 0 0 0
          0 0 0 0 0 0 0 0 0 0 0 0
          0 0 0 0 0 0 0 0 0 0 0 0
          0 0 0 0 0 0 0 0 0 0 0 0
          0 0 0 0 0 0 0 0 0 0 0 0
          0 0 0 0 0 0 0 0 0 0 0 0
          0 0 0 0 0 0 0 0 0 0 0 0
          0 0 0 0 0 0 0 0 0 0 0 0
          0 0 0 0 0 0 0 0 0 0 0 0
          0 0 0 0 0 0 0 0 0 0 0 0
          0 0 0 0 0 0 0 0 0 0 0 0
          0 0 0 0 0 0 0 0 0 0 0 0
          0 0 0 0 0 0 0 0 0 0 0 0
          0 0 0 0 0 0 0 0 0 0 0 0
          0 0 0 0 0 0 0 0 0 0 0 0
          0 0 0 0 0 0 0 0 0 0 0 0
          0 0 0 0 0 0 0 0 0 0 0 0
          0 0 0 0 0 0 0 0 0 0 0 0
          0 0 0 0 0 0 0 0 0 0 0 0
          0 0 0 0 0 0 0 0 0 0 0 0
          0 0 0 0 0 0 0 0 0 0 0 0
          0 0 0 0 0 0 0 0 0 0 0 0
          0 0 0 0 0 0 0 0 0 0 0 0
          0 0 0 0 0 0 0 0 0 0 0 0
          0 0 0 0 0 0 0 0 0 0 0 0
          0 0 0 0 0 0 0 0 0 0 0 0
          0 0 0 0 0 0 0 0 0 0 0 0
          0 0 0 0 0 0 0 0 0 0 0 0
          0 0 0 0 0 0 0 0 0 0 0 0
          0 0 0 0 0 0 0 0 0 0 0 0
          0 0 0 0 0 0 0 0 0 0 0 0
          0 0 0 0 0 0 0 0 0 0 0 0
          0 0 0 0 0 0 0 0 0 0 0 0
          0 0 0 0 0 0 0 0 0 0 0 0
          0 0 0 0 0 0 0 0 0 0 0 0
          0 0 0 0 0 0 0 0 0 0 0 0
          0 0 0 0 0 0 0 0 0 0 0 0
          0 0 0 0 0 0 0 0 0 0 0 0
          0 0 0 0 0 0 0 0 0 0 0 0
          0 0 0 0 0 0 0 0 0 0 0 0
          0 0 0 0 0 0 0 0 0 0 0 0
          0 0 0 0 0 0 0 0 0 0 0 0
          0 0 0 0 0 0 0 0 0 0 0 0
          0 0 0 0 0 0 0 0 0 0 0 0
          0 0 0 0 0 0 0 0 0 0 0 0
          0 0 0 0 0 0 0 0 0 0 0 0
          0 0 0 0 0 0 0 0 0 0 0 0
          0 0 0 0 0 0 0 0 0 0 0 0
          0 0 0 0 0 0 0 0 0 0 0 0
          0 0 0 0 0 0 0 0 0 0 0 0
          0 0 0 0 0 0 0 0 0 0 0 0
          0 0 0 0 0 0 0 0 0 0 0 0
          0 0 0 0 0 0 0 0 0 0 0 0
          0 0 0 0 0 0 0 0 0 0 0 0
          0 0 0 0 0 0 0 0 0 0 0 0
          0 0 0 0 0 0 0 0 0 0 0 0
          0 0 0 0 0 0 0 0 0 0 0 0
          0 0 0 0 0 0 0 0 0 0 0 0
          0 0 0 0 0 0 0 0 0 0 0 0
          0 0 0 0 0 0 0 0 0 0 0 0
          0 0 0 0 0 0 0 0 0 0 0 0
          0 0 0 0 0 0 0 0 0 0 0 0
          0 0 0 0 0 0 0 0 0 0 0 0
          0 0 0 0 0 0 0 0 0 0 0 0
          0 0 0 0 0 0 0 0 2529.62 2529.62 2529.62 2529.62
          2529.62 2529.62 2529.62 2529.62 2529.62 2529.62 2529.62 2529.62 2529.62 2529.62 2529.62 2529.62
          2529.62 2529.62 2529.62 2529.62 2529.62 2529.62 2529.62 2529.62 0 0 0 0
          0 0 0 0 0 0 0 0 0 0 0 0
          0 0 0 0 0 0 0 0 2529.62 2529.62 2529.62 2529.62
          2529.62 2529.62 2529.62 2504.84 2265.14 1840.31 1488.29 1318.91 1346.14 1577.57 1982.6 2382.07
          2525.63 2529.62 2529.62 2529.62 2529.62 2529.62 2529.62 2529.62 0 0 0 0
          0 0 0 0 0 0 0 0 0 0 0 0
          0 0 0 0 0 0 0 0 2529.62 2529.62 2529.62 2529.62
          2529.35 2294.54 1347.63 749.773 602.885 540.258 506.854 491.974 494.37 514.839 556.511 638.336
          877.683 1743.83 2474.99 2529.62 2529.62 2529.62 2529.62 2529.62 0 0 0 0
          0 0 0 0 0 0 0 0 0 0 0 0
          0 0 0 0 0 0 0 0 2529.62 2529.62 2529.62 2307.42
          1053.58 610.033 494.715 430.734 397.562 378.159 367.005 361.972 362.826 369.825 383.595 407.257
          449.497 530.517 699.16 1604.56 2509.61 2529.62 2529.62 2529.62 0 0 0 0
          0 0 0 0 0 0 0 0 0 0 0 0
          0 0 0 0 0 4.66667e-09 2.15337e-05 4.92964e-05 2529.62 2499.86 1358.46 613.46
          469.263 400.322 363.432 339.525 323.721 313.577 307.531 304.79 305.274 309.137 316.596 328.74
          347.528 376.035 422.178 518.569 763.801 2142.5 2529.62 2529.62 1.58191e-06 4.16176e-08 0 0
          0 0 0 0 0 0 0 0 0 0 0 0
          0 0 0 0 9.19749e-07 0.0093731 0.620283 0.841234 1939.87 737.635 499.025 403.138
          355.74 325.884 306.173 292.582 283.078 276.646 272.681 270.867 271.197 273.782 278.675 286.302
          297.43 313.394 337.061 373.815 436.457 581.137 1326.65 2505.93 0.135623 0.0222692 1.5534e-05 4.74643e-12
          0 0 0 0 0 0 0 0 0 0 0 0
          0 0 0 1.605e-05 0.175582 8.35025 35.2721 39.0918 552.783 433.421 368.642 328.941
          303.014 284.971 271.98 262.516 255.662 250.891 247.892 246.509 246.768 248.756 252.461 258.096
          266.064 277.045 292.236 313.666 345.596 397.03 499.367 752.501 20.742 10.9627 0.522094 0.000247998
          6.6521e-11 0 0 0 0 0 0 0 0 0 0 0
          0 4.74643e-12 9.93319e-05 0.621235 22.659 77.4527 109.854 113.859 387.174 346.096 312.357 288.171
          270.451 257.089 246.845 239.011 233.157 229.007 226.379 225.176 225.428 227.202 230.473 235.37
          242.124 251.081 262.801 278.231 299.123 328.59 372.793 437.014 102.32 84.6835 32.6193 1.84825
          0.000934299 3.06514e-10 0 0 0 0 0 0 0 0 0 0
          9.49285e-12 0.000145556 0.798379 30.8125 95.9018 127.187 147.523 158.921 149.007 157.199 164.5 170.608
          175.826 180.397 184.408 187.853 190.676 192.81 194.227 194.923 194.87 194.034 192.449 190.11
          187.037 183.289 178.908 173.874 168.028 161.05 152.503 142.254 148.123 131.988 105.493 44.8003
          2.39377 0.00110285 3.54035e-10 0 0 0 0 0 0 0 0 0
          4.01781e-05 0.417362 26.992 97.8123 132.582 157.311 176.074 189.989 199.725 209.522 218.14 225.684
          232.394 238.426 243.82 248.514 252.384 255.309 257.243 258.187 258.108 256.956 254.772 251.546
          247.317 242.207 236.33 229.722 222.296 213.825 203.969 192.407 179.956 162.506 139.166 107.588
          40.6734 1.29454 0.000290065 2.8507e-11 0 0 0 0 0 0 0 0
          0.0715066 14.2012 85.5941 128.58 156.79 178.772 196.287 210.405 222.121 232.443 241.617 249.882
          257.42 264.319 270.559 276.016 280.495 283.815 285.956 286.982 286.892 285.633 283.202 279.521
          274.607 268.653 261.855 254.322 246.037 236.86 226.524 214.656 200.808 183.816 162.467 135.349
          97.8884 23.2375 0.235408 9.94593e-06 0 0 0 0 0 0 0 0
          3.21768 56.1914 116.648 148.986 173.91 193.969 210.258 223.819 235.449 245.75 255.081 263.686
          271.716 279.221 286.137 292.272 297.309 300.925 303.162 304.203 304.122 302.861 300.338 296.342
          290.83 284.154 276.645 268.486 259.713 250.228 239.811 228.115 214.633 198.586 178.95 154.501
          123.194 70.2284 6.36469 0.00879614 1.81131e-08 0 0 0 0 0 0 0
          18.1679 94.0457 134.313 163.148 186.109 204.675 219.98 232.94 244.264 254.464 263.898 272.81
          281.352 289.577 297.404 304.566 310.526 314.569 316.902 317.941 317.874 316.649 314.052 309.625
          303.153 295.422 286.988 278.112 268.844 259.091 248.637 237.148 224.144 208.945 190.653 168.105
          140.025 103.319 26.8448 0.343491 2.04034e-05 0 0 0 0 0 0 0
          42.7781 112.007 146.393 173.033 194.576 212.091 226.685 239.204 250.311 260.493 270.113 279.443
          288.68 297.936 307.184 316.123 323.878 328.57 330.97 331.96 331.91 330.772 328.136 323.054
          314.729 305.186 295.327 285.434 275.501 265.37 254.786 243.396 230.726 216.137 198.78 177.569
          151.313 117.696 55.6195 2.92647 0.00153613 6.43922e-10 0 0 0 0 0 0
          63.174 121.327 153.959 179.404 200.019 216.87 231.013 243.272 254.282 264.534 274.414 284.251
          294.344 304.969 316.341 328.413 340.128 345.65 347.944 348.778 348.744 347.8 345.304 339.383
          326.979 314.267 302.293 291.058 280.304 269.706 258.908 247.508 235.014 220.8 204.045 183.73
          158.581 126.786 76.2426 8.13649 0.0155516 5.32534e-08 0 0 0 0 0 0
          73.4605 126.06 157.758 182.633 202.762 219.279 233.204 245.346 256.336 266.671 276.769 287.024
          297.868 309.859 323.829 341.143 364.081 370.149 371.922 372.446 372.425 371.828 369.893 363.426
          339.578 321.623 307.089 294.526 283.054 272.068 261.083 249.633 237.204 223.165 206.711 186.85
          162.321 131.541 86.5034 12.6536 0.0461824 4.26058e-07 0 0 0 0 0 0
        </DataArray>
        <DataArray type="Float32" Name="S_aq" NumberOfComponents="1" format="ascii">
          1 1 1 1 1 1 1 1 1 1 1 1
          1 1 1 1 1 1 1 1 1 1 1 1
          1 1 1 1 1 1 1 1 1 1 1 1
          1 1 1 1 1 1 1 1 1 1 1 1
          1 1 1 1 1 1 1 1 1 1 1 1
          1 1 1 1 1 1 1 1 1 1 1 1
          1 1 1 1 1 1 1 1 1 1 1 1
          1 1 1 1 1 1 1 1 1 1 1 1
          1 1 1 1 1 1 1 1 1 1 1 1
          1 1 1 1 1 1 1 1 1 1 1 1
          1 1 1 1 1 1 1 1 1 1 1 1
          1 1 1 1 1 1 1 1 1 1 1 1
          1 1 1 1 1 1 1 1 1 1 1 1
          1 1 1 1 1 1 1 1 1 1 1 1
          1 1 1 1 1 1 1 1 1 1 1 1
          1 1 1 1 1 1 1 1 1 1 1 1
          1 1 1 1 1 1 1 1 1 1 1 1
          1 1 1 1 1 1 1 1 1 1 1 1
          1 1 1 1 1 1 1 1 1 1 1 1
          1 1 1 1 1 1 1 1 1 1 1 1
          1 1 1 1 1 1 1 1 1 1 1 1
          1 1 1 1 1 1 1 1 1 1 1 1
          1 1 1 1 1 1 1 1 1 1 1 1
          1 1 1 1 1 1 1 1 1 1 1 1
          1 1 1 1 1 1 1 1 1 1 1 1
          1 1 1 1 1 1 1 1 1 1 1 1
          1 1 1 1 1 1 1 1 1 1 1 1
          1 1 1 1 1 1 1 1 1 1 1 1
          1 1 1 1 1 1 1 1 1 1 1 1
          1 1 1 1 1 1 1 1 1 1 1 1
          1 1 1 1 1 1 1 1 1 1 1 1
          1 1 1 1 1 1 1 1 1 1 1 1
          1 1 1 1 1 1 1 1 1 1 1 1
          1 1 1 1 1 1 1 1 1 1 1 1
          1 1 1 1 1 1 1 1 1 1 1 1
          1 1 1 1 1 1 1 1 1 1 1 1
          1 1 1 1 1 1 1 1 1 1 1 1
          1 1 1 1 1 1 1 1 1 1 1 1
          1 1 1 1 1 1 1 1 1 1 1 1
          1 1 1 1 1 1 1 1 1 1 1 1
          1 1 1 1 1 1 1 1 1 1 1 1
          1 1 1 1 1 1 1 1 1 1 1 1
          1 1 1 1 1 1 1 1 1 1 1 1
          1 1 1 1 1 1 1 1 1 1 1 1
          1 1 1 1 1 1 1 1 1 1 1 1
          1 1 1 1 1 1 1 1 1 1 1 1
          1 1 1 1 1 1 1 1 1 1 1 1
          1 1 1 1 1 1 1 1 1 1 1 1
          1 1 1 1 1 1 1 1 1 1 1 1
          1 1 1 1 1 1 1 1 1 1 1 1
          1 1 1 1 1 1 1 1 1 1 1 1
          1 1 1 1 1 1 1 1 1 1 1 1
          1 1 1 1 1 1 1 1 1 1 1 1
          1 1 1 1 1 1 1 1 1 1 1 1
          1 1 1 1 1 1 1 1 1 1 1 1
          1 1 1 1 1 1 1 1 1 1 1 1
          1 1 1 1 1 1 1 1 1 1 1 1
          1 1 1 1 1 1 1 1 1 1 1 1
          1 1 1 1 1 1 1 1 1 1 1 1
          1 1 1 1 1 1 1 1 1 1 1 1
          1 1 1 1 1 1 1 1 1 1 1 1
          1 1 1 1 1 1 1 1 1 1 1 1
          1 1 1 1 1 1 1 1 1 1 1 1
          1 1 1 1 1 1 1 1 1 1 1 1
          1 1 1 1 1 1 1 1 1 1 1 1
          1 1 1 1 1 1 1 1 1 1 1 1
          1 1 1 1 1 1 1 1 1 1 1 1
          1 1 1 1 1 1 1 1 1 1 1 1
          1 1 1 1 1 1 1 1 1 1 1 1
          1 1 1 0.999074 0.990115 0.974236 0.961078 0.954748 0.955765 0.964416 0.979554 0.994485
          0.999851 1 1 1 1 1 1 1 1 1 1 1
          1 1 1 1 1 1 1 1 1 1 1 1
          1 1 1 1 1 1 1 1 1 1 1 1
          0.99999 0.991213 0.955821 0.928357 0.902057 0.878909 0.860883 0.851075 0.852739 0.865658 0.88605 0.91103
          0.937875 0.97063 0.997958 1 1 1 1 1 1 1 1 1
          1 1 1 1 1 1 1 1 1 1 1 1
          1 1 1 1 1 1 1 1 1 1 1 0.991695
          0.94483 0.904059 0.852976 0.794206 0.747724 0.713478 0.691024 0.680175 0.68205 0.696902 0.723665 0.76276
          0.814998 0.874156 0.92204 0.965424 0.999252 1 1 1 1 1 1 1
          1 1 1 1 1 1 1 1 1 1 1 1
          1 1 1 1 1 1 1 1 1 0.998888 0.956226 0.904982
          0.833459 0.752137 0.68337 0.626022 0.581966 0.551074 0.531722 0.522727 0.524325 0.536931 0.56048 0.596498
          0.646443 0.709364 0.783502 0.867782 0.929781 0.985531 1 1 1 1 1 1
          1 1 1 1 1 1 1 1 1 1 1 1
          1 1 1 1 1 1 0.999972 0.999963 0.977957 0.927021 0.855878 0.75653
          0.666104 0.588288 0.527284 0.481072 0.44705 0.423383 0.408582 0.401764 0.403006 0.412703 0.430895 0.45873
          0.497913 0.550501 0.619482 0.704985 0.80092 0.895259 0.955037 0.999115 0.999994 0.999999 1 1
          1 1 1 1 1 1 1 1 1 1 1 1
          1 1 1 1 0.999992 0.99962 0.998243 0.998024 0.884493 0.797401 0.694452 0.597067
          0.516825 0.453924 0.405951 0.370127 0.343988 0.325803 0.314405 0.309164 0.310146 0.317685 0.331782 0.353279
          0.383612 0.424861 0.479857 0.551356 0.641628 0.746859 0.856103 0.928643 0.999019 0.999497 0.999977 1
          1 1 1 1 1 1 1 1 1 1 1 1
          1 1 1 0.999972 0.998921 0.995243 0.98927 0.987333 0.730114 0.64288 0.547227 0.465438
          0.400198 0.349436 0.310437 0.280998 0.259405 0.244385 0.235017 0.230771 0.231658 0.237938 0.24966 0.267518
          0.292633 0.326527 0.371214 0.429256 0.503702 0.596068 0.70294 0.801556 0.991877 0.994512 0.998392 0.999918
          1 1 1 1 1 1 1 1 1 1 1 1
          1 1 0.999964 0.998491 0.993064 0.978905 0.958689 0.942569 0.9568 0.94525 0.933259 0.921942
          0.911315 0.901276 0.8919 0.883428 0.876202 0.870569 0.866748 0.86485 0.864995 0.867272 0.871532 0.877671
          0.885469 0.894568 0.90462 0.915395 0.926868 0.93913 0.95211 0.964908 0.957932 0.975011 0.991042 0.997683
          0.999893 1 1 1 1 1 1 1 1 1 1 1
          1 0.999981 0.998696 0.992753 0.974495 0.945078 0.910787 0.877983 0.851339 0.821684 0.793495 0.767437
          0.743376 0.721178 0.700989 0.683235 0.668513 0.657359 0.649977 0.646376 0.646678 0.651072 0.659406 0.671704
          0.687773 0.707054 0.728945 0.753047 0.779285 0.807834 0.838827 0.871642 0.902273 0.936698 0.968217 0.990259
          0.997931 0.999942 1 1 1 1 1 1 1 1 1 1
          0.999997 0.999342 0.994411 0.977826 0.945874 0.904923 0.861084 0.818881 0.779889 0.743196 0.709268 0.678037
          0.649302 0.623011 0.599393 0.578959 0.562397 0.550266 0.542514 0.538824 0.539145 0.543681 0.552498 0.565982
          0.584212 0.606585 0.632389 0.661125 0.692619 0.726986 0.76447 0.805109 0.848198 0.893316 0.936765 0.971982
          0.99274 0.998892 0.99999 1 1 1 1 1 1 1 1 1
          0.999856 0.996942 0.985833 0.956827 0.91532 0.867449 0.819349 0.773988 0.732191 0.693704 0.658228 0.625419
          0.595041 0.567088 0.541862 0.520016 0.502503 0.490189 0.482683 0.479217 0.479487 0.483686 0.492173 0.505833
          0.525104 0.549035 0.576622 0.607214 0.640555 0.676722 0.716021 0.758808 0.805185 0.854607 0.904527 0.94927
          0.981778 0.995881 0.999712 1 1 1 1 1 1 1 1 1
          0.999148 0.993343 0.972943 0.935605 0.887766 0.836696 0.787248 0.741385 0.699316 0.66058 0.624613 0.590935
          0.559253 0.529547 0.502176 0.478016 0.458604 0.445815 0.438578 0.43539 0.435593 0.439357 0.447434 0.461498
          0.48271 0.509017 0.538801 0.571185 0.605861 0.642927 0.682768 0.72592 0.772852 0.823506 0.876262 0.926724
          0.967321 0.991642 0.998703 0.999985 1 1 1 1 1 1 1 1
          0.997806 0.988259 0.960085 0.917114 0.865798 0.813472 0.763898 0.718282 0.676405 0.637579 0.601072 0.566268
          0.532742 0.500354 0.469409 0.440982 0.417572 0.403987 0.397207 0.394445 0.394583 0.397763 0.405226 0.420003
          0.445315 0.475965 0.509347 0.544398 0.580877 0.619019 0.659354 0.702586 0.749426 0.800207 0.854054 0.907567
          0.953745 0.985235 0.996981 0.999869 1 1 1 1 1 1 1 1
          0.996438 0.983014 0.950051 0.903514 0.85049 0.79776 0.748386 0.703052 0.661275 0.622196 0.584933 0.548682
          0.512764 0.476681 0.440309 0.404435 0.372396 0.358238 0.352531 0.350482 0.350566 0.352886 0.359106 0.374352
          0.408545 0.446761 0.485588 0.524295 0.5631 0.60261 0.643625 0.687052 0.733791 0.784442 0.838597 0.893521
          0.943105 0.979208 0.995356 0.99963 0.999999 1 1 1 1 1 1 1
          0.995605 0.979748 0.944389 0.896114 0.84244 0.789634 0.740424 0.695232 0.653439 0.614085 0.576162 0.538673
          0.500587 0.460743 0.417717 0.369747 0.315224 0.302432 0.298815 0.297757 0.2978 0.299006 0.302957 0.316644
          0.373837 0.424257 0.469718 0.512128 0.553035 0.593718 0.635332 0.678982 0.725711 0.776266 0.830468 0.885934
          0.937011 0.975395 0.994308 0.999417 0.999998 1 1 1 1 1 1 1
        </DataArray>
        <DataArray type="Float32" Name="p_aq" NumberOfComponents="1" format="ascii">
          100004 100011 100018 100025 100031 100038 100045 100051 100057 100063 100068 100074
          100079 100083 100087 100091 100094 100097 100099 100101 100102 100103 100104 100104
          100103 100102 100101 100099 100096 100094 100091 100087 100084 100080 100075 100071
          100066 100061 100056 100050 100045 100039 100033 100027 100021 100015 100009 100003
          100004 100011 100018 100025 100032 100038 100045 100051 100057 100063 100069 100074
          100079 100083 100088 100091 100094 100097 100100 100101 100103 100104 100104 100104
          100103 100102 100101 100099 100097 100094 100091 100088 100084 100080 100076 100071
          100066 100061 100056 100050 100045 100039 100033 100027 100021 100015 100009 100003
          100004 100011 100018 100025 100032 100039 100045 100052 100058 100064 100069 100075
          100080 100084 100088 100092 100095 100098 100101 100102 100104 100105 100105 100105
          100104 100103 100102 100100 100098 100095 100092 100088 100085 100080 100076 100071
          100067 100061 100056 100051 100045 100039 100033 100028 100021 100015 100009 100003
          100004 100011 100018 100025 100032 100039 100046 100052 100059 100065 100070 100076
          100081 100085 100090 100093 100097 100100 100102 100104 100105 100106 100106 100106
          100106 100105 100103 100101 100099 100096 100093 100089 100085 100081 100077 100072
          100067 100062 100057 100051 100045 100040 100034 100028 100022 100016 100009 100003
          100004 100011 100018 100026 100033 100040 100047 100053 100060 100066 100072 100077
          100082 100087 100091 100095 100099 100101 100104 100106 100107 100108 100108 100108
          100108 100107 100105 100103 100100 100098 100094 100091 100087 100082 100078 100073
          100068 100063 100057 100052 100046 100040 100034 100028 100022 100016 100009 100003
          100004 100011 100019 100026 100034 100041 100048 100055 100061 100067 100073 100079
          100084 100089 100093 100097 100101 100104 100106 100108 100110 100111 100111 100111
          100110 100109 100107 100105 100102 100099 100096 100092 100088 100084 100079 100074
          100069 100064 100058 100053 100047 100041 100035 100028 100022 100016 100010 100003
          100004 100012 100019 100027 100034 100042 100049 100056 100063 100069 100075 100081
          100087 100092 100096 100100 100104 100107 100109 100111 100113 100114 100114 100114
          100113 100112 100110 100108 100105 100102 100098 100094 100090 100086 100081 100076
          100070 100065 100059 100053 100047 100041 100035 100029 100023 100016 100010 100003
          100004 100012 100020 100028 100036 100043 100051 100058 100065 100071 100078 100084
          100089 100094 100099 100103 100107 100110 100113 100115 100116 100117 100117 100117
          100116 100115 100113 100110 100108 100104 100101 100097 100092 100088 100083 100077
          100072 100066 100060 100054 100048 100042 100036 100029 100023 100016 100010 100003
          100004 100012 100021 100029 100037 100045 100052 100060 100067 100074 100080 100087
          100092 100098 100103 100107 100111 100114 100117 100119 100120 100121 100121 100121
          100120 100119 100116 100114 100111 100107 100104 100099 100095 100090 100085 100079
          100074 100068 100062 100056 100049 100043 100037 100030 100023 100017 100010 100003
          100004 100013 100021 100030 100038 100046 100054 100062 100069 100077 100083 100090
          100096 100102 100107 100111 100115 100119 100122 100124 100125 100126 100126 100126
          100125 100123 100121 100118 100115 100111 100107 100102 100097 100092 100087 100081
          100075 100069 100063 100057 100050 100044 100037 100031 100024 100017 100010 100003
          100004 100013 100022 100031 100039 100048 100056 100064 100072 100080 100087 100094
          100100 100106 100111 100116 100120 100124 100127 100129 100130 100131 100131 100131
          100130 100128 100125 100122 100119 100115 100110 100106 100101 100095 100089 100084
          100078 100071 100065 100058 100052 100045 100038 100031 100024 100017 100010 100004
          100005 100014 100023 100032 100041 100050 100059 100067 100075 100083 100091 100098
          100105 100111 100117 100122 100126 100130 100133 100135 100137 100137 100137 100137
          100135 100133 100130 100127 100123 100119 100114 100109 100104 100098 100092 100086
          100080 100073 100067 100060 100053 100046 100039 100032 100025 100018 100011 100004
          100005 100014 100024 100033 100043 100052 100061 100070 100079 100087 100095 100103
          100110 100116 100122 100128 100132 100136 100140 100142 100143 100144 100144 100143
          100142 100139 100136 100133 100128 100124 100119 100113 100108 100102 100095 100089
          100082 100075 100068 100062 100054 100047 100040 100033 100026 100018 100011 100004
          100005 100015 100025 100035 100045 100054 100064 100073 100082 100091 100100 100108
          100115 100122 100129 100135 100140 100144 100147 100150 100151 100152 100152 100150
          100149 100146 100143 100139 100134 100129 100123 100118 100111 100105 100098 100092
          100085 100078 100070 100063 100056 100049 100041 100034 100026 100019 100011 100004
          100005 100016 100026 100036 100046 100057 100067 100077 100086 100096 100105 100113
          100121 100129 100136 100142 100148 100152 100156 100158 100160 100160 100160 100159
          100156 100153 100150 100145 100140 100135 100129 100122 100116 100109 100102 100095
          100087 100080 100072 100065 100057 100050 100042 100035 100027 100019 100012 100004
          100005 100016 100027 100038 100048 100059 100070 100080 100090 100100 100110 100119
          100128 100136 100144 100151 100156 100161 100165 100168 100169 100170 100169 100168
          100165 100162 100157 100152 100147 100141 100134 100127 100120 100113 100105 100098
          100090 100082 100075 100067 100059 100051 100043 100035 100028 100020 100012 100004
          100006 100017 100028 100039 100051 100062 100073 100084 100095 100106 100116 100126
          100135 100144 100153 100160 100166 100171 100176 100178 100180 100180 100180 100178
          100175 100170 100166 100160 100154 100147 100140 100132 100125 100117 100109 100101
          100093 100085 100077 100069 100061 100052 100044 100036 100028 100020 100012 100004
          100006 100018 100029 100041 100053 100064 100076 100088 100100 100111 100122 100133
          100143 100153 100162 100170 100177 100183 100187 100190 100192 100192 100191 100189