<?xml version="1.0"?>
<VTKFile type="UnstructuredGrid" version="0.1" byte_order="LittleEndian">
  <UnstructuredGrid>
    <Piece NumberOfCells="2473" NumberOfPoints="2499">
      <CellData Scalars="Sn">
        <DataArray type="Float32" Name="Sn" NumberOfComponents="1" format="ascii">
          0 0 0 0 0 0 0 0 0 0 0 0
          0 0 0 0 0 0 0 0 0 0 0 0
          0 0 0 0 0 0 0 0 0 0 0 0
          0 0 0 0 0 0 0 0 0 0 0 0
          0 0 0 0 0 0 0 0 0 0 0 0
          0 0 0 0 0 0 0 0 0 0 0 0
          0 0 0 0 0 0 0 0 0 0 0 0
          0 0 0 0 0 0 0 0 0 0 0 0
          0 0 0 0 0 0 0 0 0 0 0 0
          0 0 0 0 0 0 0 0 0 0 0 0
          0 0 0 0 0 0 0 0 0 0 0 0
          0 0 0 0 0 0 0 0 0 0 0 0
          0 0 0 0 0 0 0 0 0 0 0 0
          0 0 0 0 0 0 0 0 0 0 0 0
          0 0 0 0 0 0 0 0 0 0 0 0
          0 0 0 0 0 0 0 0 0 0 0 0
          0 0 0 0 0 0 0 0 0 0 0 0
          0 0 0 0 0 0 0 0 0 0 0 0
          0 0 0 0 0 0 0 0 0 0 0 0
          0 0 0 0 0 0 0 0 0 0 0 0
          0 0 0 0 0 0 0 0 0 0 0 0
          0 0 0 0 0 0 0 0 0 0 0 0
          0 0 0 0 0 0 0 0 0 0 0 0
          0 0 0 0 0 0 0 0 0 0 0 0
          0 0 0 0 0 0 0 0 0 0 0 0
          0 0 0 0 0 0 0 0 0 0 0 0
          0 0 0 0 0 0 0 0 0 0 0 0
          0 0 0 0 0 0 0 0 0 0 0 0
          0 0 0 0 0 0 0 0 0 0 0 0
          0 0 0 0 0 0 0 0 0 0 0 0
          0 0 0 0 0 0 0 0 0 0 0 0
          0 0 0 0 0 0 0 0 0 0 0 0
          0 0 0 0 0 0 0 0 0 0 0 0
          0 0 0 0 0 0 0 0 0 0 0 0
          0 0 0 0 0 0 0 0 0 0 0 0
          0 0 0 0 0 0 0 0 0 0 0 0
          0 0 0 0 0 0 0 0 0 0 0 0
          0 0 0 0 0 0 0 0 0 0 0 0
          0 0 0 0 0 0 0 0 0 0 0 0
          0 0 0 0 0 0 0 0 0 0 0 0
          0 0 0 0 0 0 0 0 0 0 0 0
          0 0 0 0 0 0 0 0 0 0 0 0
          0 0 0 0 0 0 0 0 0 0 0 0
          0 0 0 0 0 0 0 0 0 0 0 0
          0 0 0 0 0 0 0 0 0 0 0 0
          0 0 0 0 0 0 0 0 0 0 0 0
          0 0 0 0 0 0 0 0 0 0 0 0
          0 0 0 0 0 0 0 0 0 0 0 0
          0 0 0 0 0 0 0 0 0 0 0 0
          0 0 0 0 0 0 0 0 0 0 0 0
          0 0 0 0 0 0 0 0 0 0 0 0
          0 0 0 0 0 0 0 0 0 0 0 0
          0 0 0 0 0 0 0 0 0 0 0 0
          0 0 0 0 0 0 0 0 0 0 0 0
          0 0 0 0 0 0 0 0 0 0 0 0
          0 0 0 0 0 0 0 0 0 0 0 0
          0 0 0 0 0 0 0 0 0 0 0 0
          0 0 0 0 0 0 0 0 0 0 0 0
          0 0 0 0 0 0 0 0 0 0 0 0
          0 0 0 0 0 0 0 0 0 0 0 0
          7.38178e-38 0 0 0 0 0 0 0 0 0 0 0
          0 0 0 0 0 0 0 0 0 0 0 0
          0 0 0 0 0 0 0 0 0 0 0 0
          0 0 0 0 0 0 2.73262e-38 0 0 0 0 0
          0 0 0 0 0 0 0 0 0 0 0 0
          0 0 0 0 0 0 0 0 0 0 0 0
          0 0 0 0 0 0 0 0 0 0 0 0
          0 0 0 0 0 0 0 0 0 0 0 0
          0 0 0 0 0 0 0 0 0 0 0 0
          0 0 0 0 0 0 0 0 0 0 0 0
          0 0 0 -3.09509e-34 0 0 0 0 0 0 0 0
          0 0 0 0 0 0 0 0 0 0 0 0
          0 0 0 0 0 0 0 0 0 0 0 0
          0 0 0 0 0 0 0 -2.37898e-37 0 0 0 0
          0 0 0 0 0 0 0 0 0 0 0 0
          0 0 0 0 0 0 0 0 0 0 0 0
          0 0 0 0 0 0 0 0 0 0 0 0
          0 0 0 0 0 0 0 0 0 0 0 0
          0 0 0 0 0 0 0 0 0 0 0 0
          0 0 0 0 0 0 0 0 0 0 0 0
          0 0 0 0 0 0 0 0 0 0 0 0
          0 0 0 0 0 0 0 0 0 0 0 0
          0 0 0 0 0 0 0 0 0 0 0 0
          0 0 0 0 0 0 0 0 0 0 0 0
          0 0 0 0 0 0 0 0 0 0 0 0
          0 0 0 0 0 0 0 0 0 0 0 0
          0 0 -3.34131e-34 0 0 0 0 1.18238e-38 -2.69249e-32 -2.84133e-31 -2.965e-31 -3.20385e-31
          -3.3092e-31 -1.65318e-31 -2.20771e-30 0 0 0 0 0 0 0 0 0
          0 0 0 0 0 0 0 0 0 0 0 0
          0 0 0 2.11858e-26 -2.80867e-33 0 0 3.41688e-38 -4.03625e-30 1.22404e-23 1.07095e-21 1.83432e-21
          2.35045e-21 2.18066e-21 0 0 0 0 0 0 0 0 0 0
          0 0 0 0 0 0 0 0 0 0 0 0
          0 0 0 0 0 0 0 0 0 0 0 0
          0 0 0 0 0 0 0 0 0 0 0 0
          0 0 0 0 0 0 0 0 0 0 0 0
          0 0 0 0 0 0 0 0 0 0 0 0
          0 0 0 0 0 0 0 0 0 0 0 0
          0 0 0 0 0 0 0 0 0 0 0 0
          0 0 0 0 0 0 0 0 0 0 0 0
          0 0 0 0 0 0 0 0 0 0 0 0
          0 0 0 0 0 0 0 0 0 0 0 0
          0 0 0 0 0 0 0 0 0 0 0 0
          0 0 0 0 0 0 0 0 0 0 0 0
          0 0 0 0 0 0 0 0 0 0 0 0
          0 0 0 0 1.51036e-18 3.55509e-09 1.22559e-11 6.10066e-22 2.97228e-12 4.79618e-24 3.29424e-14 1.05247e-29
          2.83136e-19 8.20945e-16 5.71903e-33 1.86059e-27 9.743e-15 2.13111e-37 -4.40531e-31 0 0 0 0 0
          0 0 0 0 -4.07284e-37 0 0 1.67812e-22 6.26838e-16 4.43586e-21 0 -5.08222e-31
          1.65802e-21 3.80876e-13 3.97324e-12 5.26552e-12 5.99882e-12 5.76651e-12 3.38061e-12 3.34207e-12 8.44095e-23 -9.52013e-31 0 6.38498e-23
          0 -2.37913e-32 -3.34541e-33 0 0 2.12038e-38 0 0 6.27726e-26 0 5.89008e-25 0
          0 0 0 0 0 0 -3.27684e-36 1.18485e-23 3.47217e-17 0 0 0
          0 0 1.09376e-36 7.66089e-38 0 0 0 0 0 0 -1.94389e-38 0
          0 -2.74694e-37 -5.1285e-34 0 -5.06541e-36 0 -2.16431e-34 9.43805e-21 2.60841e-21 -1.31681e-33 9.4228e-29 -8.09862e-32
          8.22913e-12 1.05961e-11 9.39092e-12 3.91021e-12 4.8908e-12 5.07303e-12 -3.60701e-32 3.26185e-13 2.34244e-12 3.26185e-13 6.25651e-07 6.25652e-07
          6.89021e-07 6.51602e-07 3.90665e-07 3.90665e-07 4.36137e-07 4.50767e-07 7.26512e-13 1.64146e-09 2.12767e-09 8.29378e-05 1.57932e-05 1.38048e-05
          5.51332e-06 7.96319e-22 8.82888e-22 -1.61625e-29 -3.02121e-38 0 0 6.14398e-16 0 0 2.22965e-17 0
          0 0 0 0 0.0274184 0.037339 0.0283075 0.0312022 0.0346117 0.0386428 0.0488626 0.0558649
          0.0458376 0.056946 0.0595749 0.0585816 0.0600256 0.0603458 0.0604953 0.0604019 0.0521066 0.0587467 0.0598731 0.0559144
          0.0590774 0.0602498 0.0600299 0.0591472 0.0603108 0.0602999 0.0605079 0.0605114 0.0605326 0.0605318 0.0604536 0.0604949
          0.060529 0.0605206 0.059096 0.060302 0.0603124 0.0590341 0.0602897 0.0603022 0.0605111 0.0605102 0.0605327 0.0605328
          0.0605122 0.0605115 0.0605328 0.0605329 0.0590099 0.0602837 0.0602954 0.0590034 0.0602814 0.0602925 0.0605097 0.0605092
          0.0605325 0.0605326 0.0605101 0.0605095 0.0605326 0.0605326 0.059006 0.0602812 0.060292 0.0590172 0.0602832 0.0602934
          0.0605098 0.0605096 0.0605326 0.0605326 0.0605096 0.0605093 0.0605325 0.0605326 0.0590442 0.0602891 0.0602975 0.0591032
          0.060301 0.0603062 0.0605114 0.0605116 0.0605328 0.0605328 0.0605103 0.0605104 0.0605327 0.0605327 0.059163 0.0603167
          0.0603178 0.0592532 0.0602953 0.0603303 0.0605134 0.0605073 0.0605318 0.0605329 0.0605128 0.0605131 0.060533 0.060533
          0.0578435 0.0597174 0.0600853 0.053831 0.0519365 0.0585359 0.0596777 0.0554218 0.0573636 0.0601783 0.060474 0.0603551
          0.0604858 0.0605249 0.00228851 0.0154263 0.0232996 0.0218048 0.0184741 0.00334639 0.0251386 0.00602137 0.00577556 0.0309762
          0.0240147 0.0267273 0.0084225 0 0 1.04144e-06 0.000453205 3.55059e-07 0.0399237 0.0429039 0.052821 0.0494449
          0.0665446 0.0665739 0.0802692 0.0803075 0.0658337 0.080222 0.0780485 0.0433585 0.0436053 0.0554531 0.0554669 0.0415577
          0.0376266 0.0493288 0.0532787 0.0644718 0.0607353 0.071904 0.075899 0.0675608 0.0669345 0.0789367 0.0802961 0.0327825
          0.0363818 0.0423806 0.0220284 0.0414837 0.0380591 0.0492323 0.055805 0.0514991 0.0613248 0.0670883 0.00718208 0.00349276
          0.0201913 0.000151986 3.65209e-09 0.0946493 0.0942031 0.109168 0.109129 0.0947304 0.0949231 0.110707 0.110151 0.125781
          0.12705 0.14499 0.142484 0.122293 0.123809 0.139188 0.13666 0.0944354 0.0922469 0.107094 0.110043 0.088311
          0.0835637 0.0963888 0.102189 0.116804 0.11011 0.12434 0.132418 0.126532 0.122697 0.139844 0.145068 0.0781353
          0.0718302 0.0827753 0.0899003 0.0632546 0.0556875 0.0661022 0.07465 0.0857995 0.0767063 0.0875274 0.0975038 0.102724
          0.0945659 0.10701 0.115879 0.0439171 0.0411712 0.052869 0.0213674 0.0422992 0.0311378 0.0486168 0.0662327 0.05719
          0.0664086 0.0771565 1.78717e-07 0.150686 0.155559 0.174037 0.166834 0.161098 0.165837 0.191571 0.18287 0.209312
          0.225438 0.273236 0.242643 0.183237 0.19493 0.219477 0.202595 0.167426 0.159757 0.184358 0.196747 0.149858
          0.139645 0.156639 0.170201 0.194916 0.175982 0.198182 0.225904 0.239542 0.216791 0.262622 0.311114 0.129531
          0.119506 0.132308 0.144055 0.10936 0.0987943 0.109943 0.121072 0.132773 0.120734 0.131164 0.144408 0.159744
          0.145566 0.159209 0.176643 0.0876768 0.0762807 0.0864122 0.0984352 0.0626248 0.0501125 0.0625698 0.0740435 0.0837703
          0.0710644 0.0769738 0.0923376 0.108847 0.0965173 0.105961 0.118609 5.17914e-16 0.221703 0.246587 0.264344 0.237256
          0.283863 0.34406 0.355559 0.302097 0.311558 0.357341 0.355481 0.317002 0.248567 0.275879 0.284028 0.257514
          0.454338 0.330867 0.340439 0.426316 0.264081 0.222552 0.237121 0.279056 0.285831 0.245577 0.250672 0.289192
          0.40162 0.341128 0.337793 0.382491 0.194016 0.172707 0.183968 0.206903 0.155633 0.141044 0.149918 0.165578
          0.17336 0.157062 0.161698 0.178853 0.215595 0.192307 0.198194 0.221409 0.127671 0.114515 0.121964 0.135735
          0.100549 0.0845485 0.0915537 0.107585 0.111997 0.0952635 0.0910469 0.110275 0.142094 0.127357 0.128218 0.145259
          0.0655878 0.0491696 0.0574329 0.0741854 0.027517 0.02845 0.0343668 0.0267216 0.0115826 0.0171664 0.0769339 0.0564448
          0.0442314 0.0697267 0.008472 7.75097e-05 0.00133354 3.55452e-08 0.263917 0.289883 0.294243 0.269355 0.320059 0.351782
          0.347024 0.321457 0.321176 0.341191 0.332735 0.318133 0.27187 0.296778 0.29673 0.271877 0.367507 0.332901
          0.327043 0.355239 0.290104 0.253644 0.254389 0.288866 0.284567 0.250865 0.236725 0.272922 0.344051 0.319576
          0.307229 0.330809 0.22491 0.201547 0.20089 0.225538 0.181235 0.161976 0.15279 0.177578 0.160142 0.122662
          0.0635856 0.115816 0.220406 0.191395 0.161636 0.200555 0.141762 0.118416 0.0887077 0.123969 0.0947966 0.0701792
          0.0330691 0.0605502 0.0297867 0.00872378 0.00457617 0.0799932 0.0557491 0.0185744 -2.34291e-30 0.261686 0.289436 0.262014
          0.234811 0.307394 0.31539 0.26902 0.272344 0.150382 0.130015 0.0428023 0.139073 0.160371 0.0574792 0.306819
          0.279501 0.209559 0.247935 0.240495 0.195466 0.105992 0.160578 0.0308112 0.00977293 0.00257101 0.096865 0.0595408
          0.0107781 0.148394 0.0993641 0.022238 0.0598428 0.0541204 0.027894 0.0049276 6.06124e-06 0.00479088 0.00172081 0
          0.00530756 0.000261037 0 9.19801e-24 0.000197667 -4.88165e-33 0 2.42737e-33 1.00504e-32 0 0 0
          0 0 0 0 0 0 0.0730087 0.0956087 0.113251 0.105633 0.123632 0.138511
          0.130177 0.0921835 0.00474744 0.00183187 0.0126486 0.0738693 0.0945719 0.111441 0.148422 0.163619 0.153997 0.17418
          0.190186 0.178503 0.129862 0.0348571 0.0406778 0.048416 0.0144229 0.00797992 0.0518909 0.0338072 0.0532384 0.000100233
          2.22948e-09 8.94881e-05 0.147607 0.200516 0.214474 0.201122 0.220993 0.23114 0.217355 0.160921 0.165623 0.233506
          0.239701 0.22568 0.234776 0.229773 0.217855 0.155618 0.0428748 0.0236908 0.00754196 0.00605463 4.24097e-06 0.000958813
          0.000195295 1.07847e-18 8.09847e-11 0.0995696 0.197325 0.1558 0.152728 0.0767097 0.0322889 3.23992e-07 6.77396e-13 0
          0.0456611 0.0660039 0.08632 0.071457 0.0819227 0.099717 0.106134 0.0886303 0.120219 0.13481 0.127097 0.137779
          0.148053 0.134273 0.0974038 0.11864 0.119585 0.100427 0.00657369 0.0206286 0.0126545 0.00580292 0.00426257 0.0160903
          0.0198311 0.0257922 0.0196913 0.0277081 0.0253878 0.00277921 0.00436346 0.0129909 0.0216432 0.0552281 0.064567 0.055498
          0.0659146 0.0716239 0.0584744 0.0162588 0.0900858 0.110875 0.0921059 0.123582 0.102919 0.0603988 4.77026e-12 3.73286e-07
          4.84875e-13 0.00687265 0.0115658 0.00836851 0.00940554 0.0133985 0.0127197 0.0201687 0.0206397 0.0245067 0.0241801 0.0161603
          0.019255 0.0235766 0.0206863 0.00981618 0.0136238 0.0134237 0.00995075 0.0137102 0.0135397 0.0205906 0.020734 0.0244125
          0.0242853 0.0205773 0.0207214 0.0244576 0.024349 0.010005 0.0137804 0.0136075 0.0101096 0.0138599 0.0136882 0.0206623
          0.0208249 0.0244499 0.0242908 0.0206147 0.0207723 0.0244187 0.0242702 0.0101307 0.0138995 0.0137385 0.0101837 0.0139344
          0.0137784 0.0207438 0.0209072 0.0245313 0.0243588 0.0207053 0.0208665 0.0244862 0.0243219 0.0101611 0.0139463 0.0137897
          0.0102079 0.0139953 0.0138227 0.0208591 0.0210689 0.0247578 0.0245204 0.0207826 0.0209584 0.024605 0.0244128 0.0101918
          0.0139797 0.0138664 0.0094235 0.0122364 0.0135588 0.0210093 0.0200642 0.0241175 0.0249694 0.021014 0.0212428 0.0250514
          0.0247479 1.20312e-07 4.12066e-07 4.78005e-07 5.12227e-07 5.02375e-07 3.79863e-07 4.327e-07 0.000115399 1.27664e-05 9.12958e-05 0.00163768
          0.000911857 0.00017412 0.00182576 0.00176302 0.000188146 0.00188751 0.00183959 0.000195254 0.00191131 0.00188567 0.00019411 0.00190964
          0.00188979 0.000170248 0.00169046 0.00189214 0.000678404 0.00231773 0.00788763 0.0113066 0.00914524 0.00397571 0.00666847 0.00236377
          0.0065161 0.0148568 0.015473 0.0164324 0.0231466 0.0262178 0.0275555 0.0265985 0.0268612 0.0277357 0.0271562 0.0272967
          0.0266107 0.0267164 0.0275224 0.0264993 0.0266308 0.027408 0.0268181 0.0269296 0.0264582 0.0266128 0.0273707 0.0264604
          0.0266284 0.0273712 0.0267814 0.0267821 0.0264814 0.0266585 0.0273891 0.0265158 0.026705 0.027423 0.0268241 0.026796
          0.0265772 0.026789 0.0274895 0.0267033 0.0269616 0.0276299 0.0270049 0.0268811 0.0269688 0.0273014 0.0279229 0.027287
          0.0262615 0.0282575 0.027612 0.0272671 0.0385827 0.0379505 0.0375827 0.0374054 0.0373344 0.0373145 0.0373212 0.0373518
          0.0374248 0.0375882 0.0379414 0.0386588 0.000396672 0.000629965 1.52198e-10 9.05228e-37 7.05962e-06 7.29115e-07 1.48218e-05 1.45628e-05
          4.60541e-05 7.0007e-05 1.47003e-05 1.45373e-05 1.45385e-05 0.00145859 6.90729e-05 0.00294421 7.24284e-19 4.07865e-18 3.41774e-12 3.72495e-10
          4.39283e-11 4.39283e-11 1.32587e-08 7.0314e-10 2.16092e-08 7.40917e-19 1.35637e-18 4.37231e-05 0 0 1.40782e-07 0
          2.69915e-07 4.41053e-07 2.40905e-07 3.13907e-05 0.000520158 0.000869451 0.000130543 0.00196105 0.00357709 0.00586999 0.00260369 3.37212e-05
          0.000210625 0.000324103 3.46851e-05 0 0 1.99186e-30 0 2.2224e-20 2.2224e-20 2.2224e-20 2.22241e-20 5.95386e-08
          2.693e-15 2.22247e-20 2.41769e-14 2.82924e-09 6.52546e-10 3.19862e-14 4.98284e-16 1.08679e-14 4.98284e-16 9.67793e-06 9.7152e-06 9.67431e-06
          8.58887e-05 0.000697177 3.83917e-05 9.68112e-06 9.68127e-06 9.66403e-06 9.66394e-06 7.9333e-13 1.73608e-17 1.61627e-09 1.67829e-08 5.39856e-09
          7.45669e-06 4.32728e-09 1.61888e-09 8.64233e-05 0.00255348 0.000372057 0.00342222 0.0056728 0.00439318 0.011275 0.0196359 0.00786793
          0.0129834 0.0139364 0.0344624 0.0544247 0.0768642 0.0508925 0.000206895 0.000427476 0.000468299 0.00249161 0.00758329 0.00598807
          0.0118186 0.00219865 0.0202661 0.0432512 0.0587608 0.0327044 0.00627315 0.0228197 0.0222594 0.0486534 5.46888e-37 5.46881e-37
          0 0 0 2.73111e-21 2.73111e-21 5.50819e-21 4.09172e-13 5.46223e-21 2.73111e-21 9.54861e-08 2.75026e-05 0.000699358
          1.94945e-06 0.000134439 0.000210929 0.000131631 0.00162152 0.00162465 0.000135179 0.000215845 0.000176444 0.009248 0.0140006 0.0107823
          0.0183338 5.75426e-36 1.00492e-18 7.10126e-19 2.51006e-09 5.02011e-09 1.83094e-06 5.03107e-09 1.36387e-07 8.55833e-09 0.000338678 0.000631672
          0.000710609 0.00494778 0 1.03709e-19 5.09022e-11 5.09022e-11 2.77828e-10 2.04379e-09 1.01806e-10 5.09022e-11 0 0
          2.13677e-23 -5.71901e-38 3.71748e-27 7.40318e-05 0.000102272 9.05847e-05 4.67767e-05 0.00161752 0.00162861 0.00159805 0.00159475 2.10825e-05
          1.34601e-05 8.53532e-06 8.53626e-06 7.03775e-10 6.40326e-09 1.76194e-09 7.03775e-10 0.000112368 0.000182294 0.000249453 4.22573e-05 4.21745e-05
          4.27132e-05 4.30453e-05 0.00013304 0.000116254 0.000156987 0.000189294 0.00100926 0.00124838 0.00200657 0.000106871 0.000100358 0.00106681
          7.51093e-05 0.00090837 0.000282319 0.000509337 6.57409e-06 0.000178617 0.00669861 0.0182363 0.0541485 0.0269218 0.00155135 0.00431212
          0.00158046 0.00225932 0.00150405 0.00147294 0.00146482 0.00142483 0.0104998 0.0393659 0.00893297 0.00619725 1.83343e-12 3.40903e-12
          7.64839e-06 3.55641e-06 1.31083e-05 3.67853e-06 3.61179e-06 3.5455e-06 3.54552e-06 3.54484e-06 0.00022138 8.62761e-05 8.56741e-05 0.000155019
          0.000273216 0.000878563 2.51195e-07 2.51164e-07 2.5117e-07 3.04214e-07 3.0577e-07 8.94196e-07 4.33174e-13 4.31414e-14 1.16584e-13 1.04986e-17
          2.0928e-18 2.0928e-18 2.0928e-18 2.0928e-18 2.0928e-18 2.0928e-18 2.0928e-18 0 0 0 4.37481e-08 3.30511e-08
          5.1887e-08 3.30508e-08 3.3267e-08 8.34295e-08 3.30607e-08 2.52209e-07 4.93812e-15 8.56365e-15 0 0 0.0128016 0.0145113
          0.0108375 0.0194878 0.00267201 0.00113753 0.00105286 0.00114748 0.00153243 0.00429762 1.40599e-05 2.37898e-06 9.71905e-06 0.0113344
          0.00451026
        </DataArray>
        <DataArray type="Float32" Name="Sw" NumberOfComponents="1" format="ascii">
          1 1 1 1 1 1 1 1 1 1 1 1
          1 1 1 1 1 1 1 1 1 1 1 1
          1 1 1 1 1 1 1 1 1 1 1 1
          1 1 1 1 1 1 1 1 1 1 1 1
          1 1 1 1 1 1 1 1 1 1 1 1
          1 1 1 1 1 1 1 1 1 1 1 1
          1 1 1 1 1 1 1 1 1 1 1 1
          1 1 1 1 1 1 1 1 1 1 1 1
          1 1 1 1 1 1 1 1 1 1 1 1
          1 1 1 1 1 1 1 1 1 1 1 1
          1 1 1 1 1 1 1 1 1 1 1 1
          1 1 1 1 1 1 1 1 1 1 1 1
          1 1 1 1 1 1 1 1 1 1 1 1
          1 1 1 1 1 1 1 1 1 1 1 1
          1 1 1 1 1 1 1 1 1 1 1 1
          1 1 1 1 1 1 1 1 1 1 1 1
          1 1 1 1 1 1 1 1 1 1 1 1
          1 1 1 1 1 1 1 1 1 1 1 1
          1 1 1 1 1 1 1 1 1 1 1 1
          1 1 1 1 1 1 1 1 1 1 1 1
          1 1 1 1 1 1 1 1 1 1 1 1
          1 1 1 1 1 1 1 1 1 1 1 1
          1 1 1 1 1 1 1 1 1 1 1 1
          1 1 1 1 1 1 1 1 1 1 1 1
          1 1 1 1 1 1 1 1 1 1 1 1
          1 1 1 1 1 1 1 1 1 1 1 1
          1 1 1 1 1 1 1 1 1 1 1 1
          1 1 1 1 1 1 1 1 1 1 1 1
          1 1 1 1 1 1 1 1 1 1 1 1
          1 1 1 1 1 1 1 1 1 1 1 1
          1 1 1 1 1 1 1 1 1 1 1 1
          1 1 1 1 1 1 1 1 1 1 1 1
          1 1 1 1 1 1 1 1 1 1 1 1
          1 1 1 1 1 1 1 1 1 1 1 1
          1 1 1 1 1 1 1 1 1 1 1 1
          1 1 1 1 1 1 1 1 1 1 1 1
          1 1 1 1 1 1 1 1 1 1 1 1
          1 1 1 1 1 1 1 1 1 1 1 1
          1 1 1 1 1 1 1 1 1 1 1 1
          1 1 1 1 1 1 1 1 1 1 1 1
          1 1 1 1 1 1 1 1 1 1 1 1
          1 1 1 1 1 1 1 1 1 1 1 1
          1 1 1 1 1 1 1 1 1 1 1 1
          1 1 1 1 1 1 1 1 1 1 1 1
          1 1 1 1 1 1 1 1 1 1 1 1
          1 1 1 1 1 1 1 1 1 1 1 1
          1 1 1 1 1 1 1 1 1 1 1 1
          1 1 1 1 1 1 1 1 1 1 1 1
          1 1 1 1 1 1 1 1 1 1 1 1
          1 1 1 1 1 1 1 1 1 1 1 1
          1 1 1 1 1 1 1 1 1 1 1 1
          1 1 1 1 1 1 1 1 1 1 1 1
          1 1 1 1 1 1 1 1 1 1 1 1
          1 1 1 1 1 1 1 1 1 1 1 1
          1 1 1 1 1 1 1 1 1 1 1 1
          1 1 1 1 1 1 1 1 1 1 1 1
          1 1 1 1 1 1 1 1 1 1 1 1
          1 1 1 1 1 1 1 1 1 1 1 1
          1 1 1 1 1 1 1 1 1 1 1 1
          1 1 1 1 1 1 1 1 1 1 1 1
          1 1 1 1 1 1 1 1 1 1 1 1
          1 1 1 1 1 1 1 1 1 1 1 1
          1 1 1 1 1 1 1 1 1 1 1 1
          1 1 1 1 1 1 1 1 1 1 1 1
          1 1 1 1 1 1 1 1 1 1 1 1
          1 1 1 1 1 1 1 1 1 1 1 1
          1 1 1 1 1 1 1 1 1 1 1 1
          1 1 1 1 1 1 1 1 1 1 1 1
          1 1 1 1 1 1 1 1 1 1 1 1
          1 1 1 1 1 1 1 1 1 1 1 1
          1 1 1 1 1 1 1 1 1 1 1 1
          1 1 1 1 1 1 1 1 1 1 1 1
          1 1 1 1 1 1 1 1 1 1 1 1
          1 1 1 1 1 1 1 1 1 1 1 1
          1 1 1 1 1 1 1 1 1 1 1 1
          1 1 1 1 1 1 1 1 1 1 1 1
          1 1 1 1 1 1 1 1 1 1 1 1
          1 1 1 1 1 1 1 1 1 1 1 1
          1 1 1 1 1 1 1 1 1 1 1 1
          1 1 1 1 1 1 1 1 1 1 1 1
          1 1 1 1 1 1 1 1 1 1 1 1
          1 1 1 1 1 1 1 1 1 1 1 1
          1 1 1 1 1 1 1 1 1 1 1 1
          1 1 1 1 1 1 1 1 1 1 1 1
          1 1 1 1 1 1 1 1 1 1 1 1
          1 1 1 1 1 1 1 1 1 1 1 1
          1 1 1 1 1 1 1 1 1 1 1 1
          1 1 1 1 1 1 1 1 1 1 1 1
          1 1 1 1 1 1 1 1 1 1 1 1
          1 1 1 1 1 1 1 1 1 1 1 1
          1 1 1 1 1 1 1 1 1 1 1 1
          1 1 1 1 1 1 1 1 1 1 1 1
          1 1 1 1 1 1 1 1 1 1 1 1
          1 1 1 1 1 1 1 1 1 1 1 1
          1 1 1 1 1 1 1 1 1 1 1 1
          1 1 1 1 1 1 1 1 1 1 1 1
          1 1 1 1 1 1 1 1 1 1 1 1
          1 1 1 1 1 1 1 1 1 1 1 1
          1 1 1 1 1 1 1 1 1 1 1 1
          1 1 1 1 1 1 1 1 1 1 1 1
          1 1 1 1 1 1 1 1 1 1 1 1
          1 1 1 1 1 1 1 1 1 1 1 1
          1 1 1 1 1 1 1 1 1 1 1 1
          1 1 1 1 1 1 1 1 1 1 1 1
          1 1 1 1 1 1 1 1 1 1 1 1
          1 1 1 1 1 1 1 1 1 1 1 1
          1 1 1 1 1 1 1 1 1 1 1 1
          1 1 1 1 1 1 1 1 1 1 1 1
          1 1 1 1 1 1 1 1 1 1 1 1
          1 1 1 1 1 1 1 1 1 1 1 1
          1 1 1 1 1 1 1 1 1 1 1 1
          1 1 1 1 1 1 1 1 1 1 1 1
          1 1 1 1 1 1 1 1 1 1 0.999999 0.999999
          0.999999 0.999999 1 1 1 1 1 1 1 0.999917 0.999984 0.999986
          0.999995 1 1 1 1 1 1 1 1 1 1 1
          1 1 1 1 0.972582 0.962661 0.971693 0.968798 0.965388 0.961357 0.951137 0.944135
          0.954162 0.943054 0.940425 0.941418 0.939974 0.939654 0.939505 0.939598 0.947893 0.941253 0.940127 0.944086
          0.940923 0.93975 0.93997 0.940853 0.939689 0.9397 0.939492 0.939489 0.939467 0.939468 0.939546 0.939505
          0.939471 0.939479 0.940904 0.939698 0.939688 0.940966 0.93971 0.939698 0.939489 0.93949 0.939467 0.939467
          0.939488 0.939488 0.939467 0.939467 0.94099 0.939716 0.939705 0.940997 0.939719 0.939707 0.93949 0.939491
          0.939467 0.939467 0.93949 0.93949 0.939467 0.939467 0.940994 0.939719 0.939708 0.940983 0.939717 0.939707
          0.93949 0.93949 0.939467 0.939467 0.93949 0.939491 0.939467 0.939467 0.940956 0.939711 0.939703 0.940897
          0.939699 0.939694 0.939489 0.939488 0.939467 0.939467 0.93949 0.93949 0.939467 0.939467 0.940837 0.939683
          0.939682 0.940747 0.939705 0.93967 0.939487 0.939493 0.939468 0.939467 0.939487 0.939487 0.939467 0.939467
          0.942156 0.940283 0.939915 0.946169 0.948063 0.941464 0.940322 0.944578 0.942636 0.939822 0.939526 0.939645
          0.939514 0.939475 0.997711 0.984574 0.9767 0.978195 0.981526 0.996654 0.974861 0.993979 0.994224 0.969024
          0.975985 0.973273 0.991578 1 1 0.999999 0.999547 1 0.960076 0.957096 0.947179 0.950555
          0.933455 0.933426 0.919731 0.919692 0.934166 0.919778 0.921951 0.956641 0.956395 0.944547 0.944533 0.958442
          0.962373 0.950671 0.946721 0.935528 0.939265 0.928096 0.924101 0.932439 0.933066 0.921063 0.919704 0.967218
          0.963618 0.957619 0.977972 0.958516 0.961941 0.950768 0.944195 0.948501 0.938675 0.932912 0.992818 0.996507
          0.979809 0.999848 1 0.905351 0.905797 0.890832 0.890871 0.90527 0.905077 0.889293 0.889849 0.874219
          0.87295 0.85501 0.857516 0.877707 0.876191 0.860812 0.86334 0.905565 0.907753 0.892906 0.889957 0.911689
          0.916436 0.903611 0.897811 0.883196 0.88989 0.87566 0.867582 0.873468 0.877303 0.860156 0.854932 0.921865
          0.92817 0.917225 0.9101 0.936745 0.944313 0.933898 0.92535 0.914201 0.923294 0.912473 0.902496 0.897276
          0.905434 0.89299 0.884121 0.956083 0.958829 0.947131 0.978633 0.957701 0.968862 0.951383 0.933767 0.94281
          0.933591 0.922844 1 0.849314 0.844441 0.825963 0.833166 0.838902 0.834163 0.808429 0.81713 0.790688
          0.774562 0.726764 0.757357 0.816763 0.80507 0.780523 0.797405 0.832574 0.840243 0.815642 0.803253 0.850142
          0.860355 0.843361 0.829799 0.805084 0.824018 0.801818 0.774096 0.760458 0.783209 0.737378 0.688886 0.870469
          0.880494 0.867692 0.855945 0.89064 0.901206 0.890057 0.878928 0.867227 0.879266 0.868836 0.855592 0.840256
          0.854434 0.840791 0.823357 0.912323 0.923719 0.913588 0.901565 0.937375 0.949888 0.93743 0.925956 0.91623
          0.928936 0.923026 0.907662 0.891153 0.903483 0.894039 0.881391 1 0.778297 0.753413 0.735656 0.762744
          0.716137 0.65594 0.644441 0.697903 0.688442 0.642659 0.644519 0.682998 0.751433 0.724121 0.715972 0.742486
          0.545662 0.669133 0.659561 0.573684 0.735919 0.777448 0.762879 0.720944 0.714169 0.754423 0.749328 0.710808
          0.59838 0.658872 0.662207 0.617509 0.805984 0.827294 0.816032 0.793097 0.844367 0.858956 0.850082 0.834422
          0.82664 0.842938 0.838302 0.821147 0.784405 0.807693 0.801806 0.778591 0.872329 0.885485 0.878036 0.864265
          0.899451 0.915451 0.908446 0.892415 0.888003 0.904736 0.908953 0.889725 0.857906 0.872643 0.871782 0.854741
          0.934412 0.95083 0.942567 0.925815 0.972483 0.97155 0.965633 0.973278 0.988417 0.982834 0.923066 0.943555
          0.955769 0.930273 0.991528 0.999923 0.998666 1 0.736083 0.710117 0.705757 0.730645 0.679941 0.648218
          0.652976 0.678543 0.678824 0.658809 0.667265 0.681867 0.72813 0.703222 0.70327 0.728123 0.632493 0.667099
          0.672957 0.644761 0.709896 0.746356 0.745611 0.711134 0.715433 0.749135 0.763275 0.727078 0.655949 0.680424
          0.692771 0.669191 0.77509 0.798453 0.79911 0.774462 0.818765 0.838024 0.84721 0.822422 0.839858 0.877338
          0.936414 0.884184 0.779594 0.808605 0.838364 0.799445 0.858238 0.881584 0.911292 0.876031 0.905203 0.929821
          0.966931 0.93945 0.970213 0.991276 0.995424 0.920007 0.944251 0.981426 1 0.738314 0.710564 0.737986
          0.765189 0.692606 0.68461 0.73098 0.727656 0.849618 0.869985 0.957198 0.860927 0.839629 0.942521 0.693181
          0.720499 0.790441 0.752065 0.759505 0.804534 0.894008 0.839422 0.969189 0.990227 0.997429 0.903135 0.940459
          0.989222 0.851606 0.900636 0.977762 0.940157 0.94588 0.972106 0.995072 0.999994 0.995209 0.998279 1
          0.994692 0.999739 1 1 0.999802 1 1 1 1 1 1 1
          1 1 1 1 1 1 0.926991 0.904391 0.886749 0.894367 0.876368 0.861489
          0.869823 0.907817 0.995253 0.998168 0.987351 0.926131 0.905428 0.888559 0.851578 0.836381 0.846003 0.82582
          0.809814 0.821497 0.870138 0.965143 0.959322 0.951584 0.985577 0.99202 0.948109 0.966193 0.946762 0.9999
          1 0.999911 0.852393 0.799484 0.785526 0.798878 0.779007 0.76886 0.782645 0.839078 0.834377 0.766495
          0.7603 0.77432 0.765224 0.770227 0.782145 0.844382 0.957125 0.976309 0.992458 0.993945 0.999996 0.999041
          0.999805 1 1 0.90043 0.802675 0.8442 0.847272 0.92329 0.967711 1 1 1
          0.954339 0.933996 0.91368 0.928543 0.918077 0.900283 0.893866 0.91137 0.879781 0.86519 0.872903 0.862221
          0.851947 0.865727 0.902596 0.88136 0.880415 0.899573 0.993426 0.979371 0.987345 0.994197 0.995737 0.98391
          0.980169 0.974208 0.980309 0.972292 0.974612 0.997221 0.995637 0.987009 0.978357 0.944772 0.935433 0.944502
          0.934085 0.928376 0.941526 0.983741 0.909914 0.889125 0.907894 0.876418 0.897081 0.939601 1 1
          1 0.993127 0.988434 0.991632 0.990594 0.986601 0.98728 0.979831 0.97936 0.975493 0.97582 0.98384
          0.980745 0.976423 0.979314 0.990184 0.986376 0.986576 0.990049 0.98629 0.98646 0.979409 0.979266 0.975587
          0.975715 0.979423 0.979279 0.975542 0.975651 0.989995 0.98622 0.986392 0.98989 0.98614 0.986312 0.979338
          0.979175 0.97555 0.975709 0.979385 0.979228 0.975581 0.97573 0.989869 0.9861 0.986261 0.989816 0.986066
          0.986222 0.979256 0.979093 0.975469 0.975641 0.979295 0.979133 0.975514 0.975678 0.989839 0.986054 0.98621
          0.989792 0.986005 0.986177 0.979141 0.978931 0.975242 0.97548 0.979217 0.979042 0.975395 0.975587 0.989808
          0.98602 0.986134 0.990577 0.987764 0.986441 0.978991 0.979936 0.975883 0.975031 0.978986 0.978757 0.974949
          0.975252 1 1 1 0.999999 1 1 1 0.999885 0.999987 0.999909 0.998362
          0.999088 0.999826 0.998174 0.998237 0.999812 0.998112 0.99816 0.999805 0.998089 0.998114 0.999806 0.99809
          0.99811 0.99983 0.99831 0.998108 0.999322 0.997682 0.992112 0.988693 0.990855 0.996024 0.993332 0.997636
          0.993484 0.985143 0.984527 0.983568 0.976853 0.973782 0.972444 0.973402 0.973139 0.972264 0.972844 0.972703
          0.973389 0.973284 0.972478 0.973501 0.973369 0.972592 0.973182 0.97307 0.973542 0.973387 0.972629 0.97354
          0.973372 0.972629 0.973219 0.973218 0.973519 0.973341 0.972611 0.973484 0.973295 0.972577 0.973176 0.973204
          0.973423 0.973211 0.97251 0.973297 0.973038 0.97237 0.972995 0.973119 0.973031 0.972699 0.972077 0.972713
          0.973738 0.971743 0.972388 0.972733 0.961417 0.962049 0.962417 0.962595 0.962666 0.962685 0.962679 0.962648
          0.962575 0.962412 0.962059 0.961341 0.999603 0.99937 1 1 0.999993 0.999999 0.999985 0.999985
          0.999954 0.99993 0.999985 0.999985 0.999985 0.998541 0.999931 0.997056 1 1 1 1
          1 1 1 1 1 1 1 0.999956 1 1 1 1
          1 1 1 0.999969 0.99948 0.999131 0.999869 0.998039 0.996423 0.99413 0.997396 0.999966
          0.999789 0.999676 0.999965 1 1 1 1 1 1 1 1 1
          1 1 1 1 1 1 1 1 1 0.99999 0.99999 0.99999
          0.999914 0.999303 0.999962 0.99999 0.99999 0.99999 0.99999 1 1 1 1 1
          0.999993 1 1 0.999914 0.997447 0.999628 0.996578 0.994327 0.995607 0.988725 0.980364 0.992132
          0.987017 0.986064 0.965538 0.945575 0.923136 0.949108 0.999793 0.999573 0.999532 0.997508 0.992417 0.994012
          0.988181 0.997801 0.979734 0.956749 0.941239 0.967296 0.993727 0.97718 0.977741 0.951347 1 1
          1 1 1 1 1 1 1 1 1 1 0.999973 0.999301
          0.999998 0.999866 0.999789 0.999868 0.998378 0.998375 0.999865 0.999784 0.999824 0.990752 0.985999 0.989218
          0.981666 1 1 1 1 1 0.999998 1 1 1 0.999661 0.999368
          0.999289 0.995052 1 1 1 1 1 1 1 1 1 1
          1 1 1 0.999926 0.999898 0.999909 0.999953 0.998383 0.998371 0.998402 0.998405 0.999979
          0.999987 0.999991 0.999991 1 1 1 1 0.999888 0.999818 0.999751 0.999958 0.999958