<?xml version="1.0"?>
<VTKFile type="UnstructuredGrid" version="0.1" byte_order="LittleEndian">
  <UnstructuredGrid>
    <Piece NumberOfCells="4833" NumberOfPoints="5094">
      <CellData Scalars="Sn">
        <DataArray type="Float32" Name="Sn" NumberOfComponents="1" format="ascii">
          0 0 0 0 0 0 0 0 0 0 0 0
          0 0 0 0 0 0 0 0 0 0 0 0
          0 0 0 0 0 0 0 0 0 0 0 0
          0 0 0 0 0 0 0 0 0 0 0 0
          0 0 0 0 0 0 0 0 0 0 0 0
          0 0 0 0 0 0 0 0 0 0 0 0
          0 0 0 0 0 0 0 0 0 0 0 0
          0 0 0 0 0 0 0 0 0 0 0 0
          0 0 0 0 0 0 0 0 0 0 0 0
          0 0 0 0 0 0 0 0 0 0 0 0
          0 0 0 0 0 0 0 0 0 0 0 0
          0 0 0 0 0 0 0 0 0 0 0 0
          0 0 0 0 0 0 0 0 0 0 0 0
          0 0 0 0 0 0 0 0 0 0 0 0
          0 0 0 0 0 0 0 0 0 0 0 0
          0 0 0 0 0 0 0 0 0 0 0 0
          0 0 0 0 0 0 0 0 0 0 0 0
          0 0 0 0 0 0 0 0 0 0 0 0
          0 0 0 0 0 0 0 0 0 0 0 0
          0 0 0 0 0 0 0 0 0 0 0 0
          0 0 0 0 0 0 0 0 0 0 0 0
          0 0 0 0 0 0 0 0 0 0 0 0
          0 0 0 0 0 0 0 0 0 0 0 0
          0 0 0 0 0 0 0 0 0 0 0 0
          0 0 0 0 0 0 0 0 0 0 0 0
          0 0 0 0 0 0 0 0 0 0 0 0
          0 0 0 0 0 0 0 0 0 0 0 0
          0 0 0 0 0 0 0 0 0 0 0 0
          0 0 0 0 0 0 0 0 0 0 0 0
          0 0 0 0 0 0 0 0 0 0 0 0
          0 0 0 0 0 0 0 0 0 0 0 0
          0 0 0 0 0 0 0 0 0 0 0 0
          0 0 0 0 0 0 0 0 0 0 0 0
          0 0 0 0 0 0 0 0 0 0 0 0
          0 0 0 0 0 0 0 0 0 0 0 0
          0 0 0 0 0 0 0 4.50178e-38 -6.61247e-32 0 1.4549e-34 4.82673e-28
          0 0 0 0 0 0 0 0 0 0 0 0
          0 0 0 0 0 0 0 0 0 0 0 0
          0 0 0 0 0 0 0 4.66657e-26 9.34436e-16 1.3774e-34 1.09399e-14 2.71741e-09
          0 0 0 0 0 1.689e-26 3.56601e-20 9.94611e-09 6.37243e-06 6.33413e-06 6.33426e-06 7.74042e-06
          3.90731e-11 1.26052e-05 1.26054e-05 1.26111e-05 1.5879e-05 0.000972578 0.000878536 0.000880459 0.000996144 9.88022e-05 9.27493e-05 9.27554e-05
          9.99163e-05 0.000599272 0.000543522 0.000544787 0.000601797 0.00275961 0.00247506 0.00249777 0.00280034 0 0 0
          -1.39521e-35 -4.65332e-36 0 0 0 0 0 0 0 -5.65826e-28 -1.40538e-28 -8.79988e-36
          2.47034e-21 8.39301e-23 -2.16757e-28 0 0 0 -6.52977e-36 0 0 0 0 0
          0 0 0 0 0 0 0 0 0 0 0 0
          0 0 0 0 0 0 0 0 0 3.25185e-12 5.48933e-13 9.07079e-23
          1.9554e-07 7.71216e-08 4.60316e-13 -1.22087e-28 -2.3911e-36 0 1.07214e-22 -3.03702e-29 -4.40873e-37 6.61178e-05 5.94239e-05 5.94303e-05
          6.57451e-05 4.06714e-05 3.68062e-05 3.68014e-05 4.01431e-05 5.32966e-08 0.00425639 0.00381363 0.00383852 0.00429239 0.0013157 0.00119202
          0.00119597 0.00132118 0.00127899 0.00117572 0.00117519 0.00125985 0.00400904 0.00354796 0.00352476 0.00391666 0.00115011 0.000954997
          0.000952378 0.000980916 2.29518e-05 2.26259e-05 2.05061e-05 2.10536e-05 1.01526e-13 2.90811e-23 -3.09577e-30 9.18615e-09 3.0565e-15 1.67974e-26
          0 0 0 0 0 0 0 0 0 0 0 0
          -3.62987e-38 0 0 -8.1767e-32 0 0 0 0 0 0 0 0
          0 0 0 0 0 0 0 0 0 0 0 0
          0 0 0 0 0 0 0 0 0 0 0 0
          0 0 3.00311e-14 0 1.27178e-32 1.25026e-16 1.25026e-16 1.45228e-16 5.5589e-12 3.43703e-07 3.43705e-07 3.43926e-07
          4.58418e-07 0.000283529 0.000278421 0.000279092 0.000349839 1.81639e-05 1.75317e-05 1.75322e-05 1.82816e-05 0.000842471 0.000765278 0.000773241
          0.000851798 0.00317217 0.00296271 0.00302509 0.00357445 0.0083785 0.00768228 0.00790631 0.00911454 0.00395465 0.00358261 0.00363371
          0.00403858 0.00694263 0.00625638 0.00636459 0.00709451 0.0131514 0.0119414 0.012239 0.0137646 2.712e-06 2.71214e-06 2.71221e-06
          3.40364e-06 3.57831e-09 3.492e-09 3.492e-09 3.59572e-09 0.000118851 0.000118783 0.000118914 0.000143405 0.000790269 0.000144056 0.00160544
          0.00330113 0.00720163 0.00459129 0.00796577 0.0117918 0.00218514 0.000908747 0.0027313 0.00491835 0.00876955 0.00578188 0.00871293
          0.0128075 0.0168512 0.0127882 0.0170941 0.0214061 0.025817 0.0215266 0.0250498 0.0293324 0.0171614 0.0130634 0.016347
          0.0206472 0.0234408 0.0192339 0.0210651 0.024968 0.0321163 0.0278765 0.0297386 0.0337196 0 5.96509e-22 4.97941e-12
          4.92427e-12 7.26673e-11 6.51096e-10 6.50912e-10 1.76786e-07 2.71357e-05 1.94369e-29 3.9771e-15 3.9771e-15 3.9771e-15 7.26524e-13 1.09803e-06
          1.09806e-06 1.09807e-06 1.34666e-06 1.23958e-08 5.71826e-06 2.36298e-08 0.000392898 0.00131077 0.000921964 0.000183562 0.00289751 0.00494811
          0.00172365 0.000481105 0.00299985 0.00528273 3.70657e-05 1.85049e-06 0.000268815 0.00123273 0.00470185 0.00249631 0.00585273 0.00905658
          0.0108103 0.00745888 0.0129244 0.0167829 0.022849 0.0188354 0.024457 0.028539 0.0147951 0.0107826 0.0160873 0.0202834
          0.0255121 0.0212234 0.0259497 0.0302657 0.0338038 0.0297265 0.0344783 0.03853 0.0426532 0.0386815 0.042177 0.0461555
          0.0344612 0.0302733 0.0337621 0.0379449 0.0407875 0.0365961 0.0386046 0.0428342 0.0489287 0.044989 0.0469497 0.0507612
          0.0113276 0.00827646 0.0147804 0.0183223 0.00570087 0.00357489 0.00803639 0.0113115 0.0180095 0.0144146 0.0206393 0.0244439
          0.0253023 0.0216591 0.0282021 0.0319043 0.0380919 0.0344002 0.0401121 0.043791 0.0306346 0.0267961 0.0325073 0.036353
          0.0415914 0.0377623 0.0424838 0.0462891 0.0489799 0.0453268 0.0499914 0.0536094 0.0576163 0.0540545 0.0574301 0.0609005
          0.0504036 0.0466371 0.0501495 0.0538565 0.056464 0.0528512 0.0545168 0.0579874 0.0632586 0.0599276 0.0613117 0.0644363
          0 0 0 0 0 0 0 0 0 0 0 0
          0 0 0 0 0 0 0 0 3.50847e-22 0 0 0
          1.06357e-22 1.77516e-12 1.77515e-12 2.32825e-11 1.85195e-09 1.85195e-09 1.85195e-09 1.85195e-09 0.00013608 1.12658e-05 0.00191164 0.00322657
          7.34436e-07 7.08731e-07 0.000161101 0.000767114 0.00476681 0.00273482 0.00770564 0.0108503 0.00957382 0.00702331 0.0140662 0.0172296
          1.6658e-19 4.84683e-10 5.6425e-11 5.66257e-11 5.64584e-11 6.36677e-11 1.3952e-07 6.40278e-08 1.19063e-08 2.48811e-05 0.00023252 0.00444699
          0.00309524 0.00957276 0.012125 0.00192454 0.000928316 0.0051274 0.00720404 0.0152934 0.0124302 0.0204209 0.0236375 0.0212569
          0.0182154 0.0269355 0.0303962 0.0250329 0.02167 0.0290738 0.0325708 0.018267 0.014795 0.021972 0.0255531 0.0325738
          0.0289649 0.0355761 0.0391912 0.0397226 0.0361473 0.0427904 0.0464139 0.0526133 0.0489621 0.0546325 0.0582913 0.0453517
          0.0417429 0.0474247 0.0510228 0.0561657 0.0525878 0.0571795 0.0607179 0.0633943 0.0597572 0.0642604 0.0678285 0.0714413
          0.0680186 0.0708513 0.0740158 0.06458 0.061121 0.0642923 0.0676056 0.069548 0.0664729 0.0673992 0.0701086 0.0752452
          0.072482 0.0725735 0.0747557 0.0391841 0.0354285 0.0434668 0.0474316 0.0318655 0.0284202 0.0361011 0.039713 0.0470785
          0.0433497 0.050107 0.053917 0.0550774 0.0509666 0.0578966 0.062102 0.0684753 0.0642322 0.0699169 0.074117 0.0602045
          0.0563466 0.0620352 0.0658991 0.0709128 0.0671053 0.0714387 0.0750955 0.0788713 0.0748337 0.0787927 0.0825012 0.0846999
          0.0815272 0.0827123 0.0851233 0.0782226 0.0748497 0.0770809 0.0800002 0.0800696 0.0777979 0.0765989 0.0780171 0.0834025
          0.081976 0.078907 0.0791411 4.11616e-12 4.11616e-12 4.11616e-12 1.71467e-11 9.33876e-07 9.35318e-07 9.35347e-07 9.3463e-07 9.38858e-07
          2.94903e-05 1.06135e-05 0.000867836 0.0014014 0.000220343 0.000217053 0.00210018 0.00246986 0.0126734 0.0101187 0.0210724 0.0248334
          0.00783774 0.00602905 0.0148446 0.017764 0.028132 0.0245382 0.0341202 0.0382002 0.0368155 0.032181 0.0427624 0.0479507
          0 0 0 0 1.62109e-21 1.61774e-21 1.61774e-21 1.62849e-21 1.61699e-21 1.61699e-21 1.61699e-21 1.61699e-21
          0.00043652 0.000256746 0.00261648 0.0025249 0.000498366 0.000649192 0.00212471 0.000884041 0.0329879 0.0241903 0.0424172 0.0538402
          0.0191207 0.0155451 0.029278 0.0348522 0.0489374 0.0422694 0.0539762 0.06115 0.0688606 0.0574687 0.0698969 0.0806516
          0.0580546 0.0525307 0.0614364 0.0671509 0.0476316 0.0432208 0.0516872 0.0563212 0.0642594 0.0594824 0.0665941 0.0714342
          0.0752735 0.0694941 0.0766794 0.0823662 0.0882456 0.0828742 0.0878499 0.0926199 0.0777728 0.0729774 0.0785166 0.08311
          0.0871831 0.0830063 0.0861598 0.0896638 0.0951532 0.091292 0.0928571 0.0955347 0.0934998 0.0922288 0.0891462 0.0888461
          0.0902091 0.0876406 0.0871065 0.0885059 0.0842394 0.0842095 0.0785783 0.077068 0.0813149 0.0833279 0.0744699 0.070669
          0.0902925 0.0803546 0.0891306 0.0979803 0.0717369 0.0643814 0.0735997 0.0809129 0.0886885 0.0816695 0.0884758 0.0948665
          0.103531 0.0961557 0.101171 0.106932 0.108122 0.104038 0.104637 0.106935 0.0991471 0.0937609 0.0972038 0.101297
          0.101136 0.0985163 0.0974676 0.0984371 0.103159 0.102769 0.0982226 0.0966262 0.0873382 0.0908827 0.0807017 0.0752276
          0.0930063 0.0938229 0.0874338 0.084757 0.0734766 0.0780623 0.0656133 0.0593523 0.0604194 0.0675512 0.0520914 0.0441952
          0.016445 0.0149608 0.0151478 0.0166406 0.00930076 0.00837538 0.00846645 0.00942182 0.00937572 0.00845311 0.0084063 0.00931696
          0.0162174 0.0148836 0.0147818 0.0160553 0.0117987 0.0108683 0.0104141 0.0112402 0.00682669 0.00626425 0.00605888 0.00656637
          0.00295203 0.0028001 0.00263981 0.00273493 0.00539855 0.00498423 0.00460897 0.00491781 0.000484196 0.000394236 0.00038062 0.000381496
          0.0334304 0.031065 0.0311568 0.0334046 0.0249816 0.0230142 0.0231633 0.0249791 0.0237442 0.0221372 0.0218498 0.0233219
          0.031598 0.0293818 0.028666 0.0301223 0.0236732 0.0224681 0.0213552 0.0223967 0.0178642 0.0167427 0.0160214 0.0169866
          0.00968332 0.0090791 0.00842435 0.00889072 0.0136841 0.0130717 0.0120208 0.0124837 0.00525124 0.00511045 0.00457638 0.0046716
          0.00380416 0.00369435 0.00335392 0.00344309 0.000586259 0.000586547 0.000523351 0.000524369 0.000845293 0.000833305 0.000719282 0.000726605
          2.53544e-06 2.61139e-06 2.26508e-06 2.26517e-06 1.21948e-10 7.44275e-19 6.14903e-06 5.64961e-06 5.10289e-06 5.10762e-06 5.28313e-10 1.14579e-17
          0.0513855 0.0477543 0.0475132 0.0508843 0.0438363 0.039737 0.0399479 0.0438379 0.0418236 0.0383512 0.0344063 0.0368961
          0.0482829 0.0452407 0.040699 0.043105 0.0351851 0.0333699 0.0311067 0.0315568 0.0293199 0.0278808 0.0263978 0.0274799
          0.0171851 0.0166324 0.0151711 0.0155197 0.0199263 0.0193718 0.0172406 0.0167932 0.00668222 0.00686396 0.00594555 0.00583469
          0.00653574 0.0064669 0.0057338 0.00576386 0.0015046 0.00151461 0.00134896 0.00134292 0.00121663 0.00124003 0.00105123 0.00104441
          0.0641042 0.0612963 0.0597807 0.062043 0.0581892 0.0549399 0.0541699 0.0570857 0.0538436 0.0513561 0.0467721 0.0487123
          0.0575535 0.0559573 0.0499866 0.0505992 0.0409614 0.0413406 0.0313622 0.0302531 0.0411512 0.0402647 0.0320687 0.0319692
          0.0216769 0.022496 0.0130243 0.0114998 0.0191897 0.0206739 0.0111024 0.00944944 0.00359765 0.00377407 0.00329037 0.00324802
          0.0045481 0.00474253 0.00413322 0.00407435 0.000761747 0.000772886 0.000686659 0.000683022 0.000359649 0.000364955 0.000310896 0.000310268
          3.63927e-05 3.79952e-05 3.41804e-05 3.41734e-05 1.99867e-08 1.14608e-14 9.31484e-06 1.01079e-05 9.11498e-06 9.11439e-06 1.5781e-09 8.82584e-17
          -2.92319e-28 -7.65349e-36 0 5.58856e-31 -2.26135e-34 0 0 0 0 0 0 0
          1.82297e-26 -1.05499e-33 0 4.51433e-29 -6.61376e-36 0 0 0 0 0 0 0
          0.0720989 0.0706888 0.0663981 0.0668548 0.0688766 0.0667025 0.0639774 0.065422 0.0592796 0.0587292 0.0506789 0.0502297
          0.0586644 0.0592755 0.0492444 0.0476314 0.0348426 0.0370724 0.0249958 0.0226796 0.0388185 0.0401043 0.0287962 0.027029
          0.0157197 0.0176891 0.00893496 0.0073462 0.0117659 0.0138564 0.00654398 0.00516624 0.00155811 0.00164546 0.00144117 0.00142465
          0.00260316 0.00275711 0.00240893 0.00237746 0.000268346 0.000271565 0.00024576 0.000245185 7.48614e-05 7.59967e-05 6.81254e-05 6.80682e-05
          0.0719613 0.0730875 0.0642594 0.0617399 0.0734034 0.0730363 0.0667169 0.065885 0.0553675 0.0573906 0.0454199 0.0425149
          0.0489233 0.0525574 0.0390192 0.0349341 0.0218491 0.0255419 0.0144229 0.0115207 0.0290344 0.0321645 0.0201794 0.0174103
          0.00832403 0.010105 0.00468338 0.00375331 0.00520314 0.00666848 0.00277663 0.0019763 0.000198914 0.000527366 2.55865e-05 9.50297e-06
          0.001027 0.0016853 0.000271204 7.89672e-05 3.06678e-06 3.24119e-06 3.05944e-06 3.05927e-06 1.30326e-07 1.27191e-06 1.39311e-06 1.26144e-06
          1.26142e-06 3.57181e-11 6.26687e-20 2.84376e-10 3.13451e-10 2.84361e-10 2.84361e-10 3.8747e-18 -4.81191e-31 0.0571707 0.0625389 0.0483512
          0.0421445 0.0667814 0.069898 0.0582555 0.053774 0.0393622 0.0445056 0.030457 0.0256091 0.0276967 0.033678 0.0206604
          0.0157684 0.00751013 0.0104804 0.00468013 0.00321159 0.0141013 0.0180446 0.00862893 0.00644964 0.00236921 0.0036791 0.00101986
          0.000304274 0.000607144 0.00138536 0.000123765 9.77357e-06 5.21665e-07 5.55861e-07 5.21584e-07 5.21581e-07 3.53718e-05 3.89556e-05 3.51551e-05
          3.51394e-05 4.65318e-08 6.45231e-10 0.0287657 0.0361692 0.0220214 0.0160637 0.0436598 0.050792 0.0354243 0.0285817 0.0160782
          0.0217126 0.0111369 0.00748109 0.00739283 0.0111267 0.00495695 0.00294082 0.000577157 0.00158757 0.000212646 4.53417e-05 0.00303386
          0.00508337 0.00186964 0.000598523 0.000137852 0.000150893 0.000137234 0.000137019 1.51738e-06 1.61235e-06 1.51506e-06 1.51502e-06 3.8204e-07
          4.21148e-07 3.82035e-07 3.82034e-07 8.94954e-14 6.98074e-25 -9.99083e-36 2.87244e-12 4.28717e-22 7.59733e-37 -4.46465e-31 3.34983e-38 0
          0 0 0 0 0 0 0 0 0 0 0 0
          0 0 0 0 0 0 0 0 0 0 0 0
          0 0 0 0 0 0 0 0 0 0 0 0
          0 0 0 0 0 0 0 0 0 0 0 0
          0 0 0 0 0 0 0 0 0 0 0 0
          0 0 0 0 0 0 0 0 0 0 0 0
          0 0 0 0 0 0 0 0 0 0 0 0
          0 0 0 0 0 0 0 0 0 0 0 0
          0 0 0 0 0 0 0 0 0 0 0 0
          0 0 0 0 0 0 0 0 0 0 0 0
          0 0 0 0 0 0 0 0 0 0 0 0
          0 0 0 0 0 0 0 0 0 0 0 0
          0 0 0 0 0 0 0 0 0 0 0 0
          0 0 0 0 0 0 0 0 0 0 0 0
          0 0 0 0 0 0 6.45881e-36 4.07771e-30 -2.28267e-36 0 2.84647e-37 3.16018e-23
          1.48259e-22 5.56551e-13 3.62051e-18 5.50127e-17 2.61786e-07 9.41062e-09 1.12845e-08 4.93515e-05 0.00036948 3.52055e-07 3.51891e-06 0.000728585
          1.35537e-12 3.64386e-11 0.000842784 8.22923e-06 1.26508e-05 0.000923196 1.59198e-17 1.54182e-17 1.54182e-17 3.43052e-16 6.1752e-15 3.8777e-15
          3.8777e-15 1.29489e-13 1.52831e-17 2.92758e-19 2.92758e-19 7.74852e-18 0.000988323 1.86447e-05 2.35493e-05 0.00104172 2.90941e-09 2.04964e-07
          2.04862e-08 2.04862e-08 2.43949e-07 0.00108912 0.000205796 0.000211371 0.00115024 0.00121143 7.26259e-05 8.50367e-05 0.00126824 5.47875e-08
          5.04239e-08 5.04239e-08 5.71258e-08 6.78732e-06 3.03087e-07 3.03081e-07 6.75676e-06 0.00132016 0.000587844 0.000592386 0.00136771 0.00141134
          9.0812e-05 9.13898e-05 0.00145095 1.47314e-08 6.35307e-09 6.35304e-09 1.49694e-08 1.29088e-07 3.37816e-09 3.37816e-09 1.42375e-07 0.0014868
          0.000176999 0.000183686 0.00151899 0 0 0 0 0 -1.66173e-38 0 0 0
          1.07692e-35 7.24718e-34 1.37513e-31 1.87283e-17 2.28458e-18 2.28458e-18 1.41606e-17 1.04219e-17 1.81067e-18 1.81067e-18 1.47765e-17 9.08445e-18
          1.13242e-18 1.13242e-18 1.16724e-17 0.00154796 0.000104463 0.000112576 0.00157387 2.2784e-08 6.14474e-09 6.14474e-09 2.65012e-08 3.2333e-08
          5.09736e-09 5.09736e-09 3.70502e-08 0.00159722 0.000119118 0.000123961 0.00161817 0.00163716 0.000129168 0.000133161 0.00165422 4.27402e-08
          3.99119e-09 3.99119e-09 4.74647e-08 5.26351e-08 4.5539e-09 4.5539e-09 5.56707e-08 0.00166974 0.000137323 0.000140233 0.00168375 0.00169665
          0.000144005 0.000146934 0.00170845 6.11518e-08 3.36079e-09 3.36079e-09 6.5721e-08 7.13299e-08 3.65523e-09 3.65523e-09 7.48576e-08 0.00171957
          0.000150508 0.000153101 0.00173005 1.78423e-17 2.09564e-18 2.09564e-18 2.12106e-17 1.35221e-17 1.41493e-18 1.41493e-18 1.53053e-17 1.66839e-14
          4.99452e-16 4.99452e-16 8.73654e-16 0.00174027 0.000156994 0.000159443 0.00175012 8.1612e-08 4.33615e-09 4.33615e-09 8.51342e-08 9.08575e-08
          4.70533e-09 4.70533e-09 9.38719e-08 0.0017599 0.000162636 0.000164651 0.0017695 0.00177913 0.000167942 0.000169917 0.00178857 1.00825e-07
          3.57301e-09 3.57301e-09 1.049e-07 1.09536e-07 3.68089e-09 3.68089e-09 1.11715e-07 0.00179799 0.000172046 0.000173661 0.00180719 0.00181635
          0.000491912 0.000495016 0.00182519 3.85429e-06 8.96259e-08 8.9629e-08 4.09698e-06 7.78622e-07 1.28035e-08 1.28043e-08 1.1424e-06 0.00183393
          0.000301602 0.000358277 0.00184239 0 0 0 0 0 0 0 0 0
          0 0 0 0 0 0 0 0 0 0 0 0
          0 0 0 0 0 0 0 0 0 0 0 1.33347e-22
          0 0 0 0 0 0 0 0 0 0 0 0
          0 0 0 0 0 0 0 0 0 0 0 0
          0 0 0 0 0 0 0 0 0 0 0 0
          0 0 0 0 0 0 0 0 0 0 0 0
          0 0 0 0 0 0 0 0 0 0 0 0
          0 0 0 1.06846e-12 1.06846e-12 6.21406e-12 1.06846e-12 2.85758e-10 2.47396e-07 2.47506e-07 2.47507e-07 2.47416e-07
          8.66222e-06 0.000212633 0.00217344 8.70094e-06 2.8583e-10 1.74787e-07 1.74785e-07 1.74785e-07 1.74788e-07 4.6816e-06 0.00571596 0.0159066
          5.24437e-06 0.0010052 0.0424515 0.075729 0.0029171 3.70334e-06 7.80178e-05 0.00126262 0.00117917 6.22746e-23 4.77476e-12 4.77476e-12
          5.2774e-12 4.85178e-12 1.8867e-07 1.88668e-07 1.88668e-07 1.8868e-07 4.77568e-07 4.77573e-07 4.77573e-07 4.7757e-07 1.35825e-05 0.00011194
          0.0013287 0.00134266 1.0323e-05 9.08676e-05 0.00143925 0.00149729 0.00342176 0.00356807 0.00602953 0.00582159 0.00571107 0.114207
          0.156335 0.00968695 0.0177404 0.200936 0.247532 0.030258 0.00934325 0.0096643 0.0174192 0.0167991 0.0239329 0.0250753
          0.0324804 0.0306287 0.0444768 0.294516 0.340128 0.0598864 0.0768542 0.382853 0.422108 0.0959702 0.0367055 0.0395247
          0.0461493 0.0420585 0.0466641 0.0523653 0.0582387 0.0505531 0.117598 0.457334 0.48815 0.141604 0.168088 0.514718
          0.537437 0.196846 0.0537896 0.0638732 0.06939 0.056457 0.00372913 0.00363594 0.00606166 0.00617278 0.00355414 0.00349398
          0.00588352 0.00596622 0.00980376 0.00954309 0.0170786 0.0174395 0.010375 0.010083 0.0178214 0.0182198 0.0258538 0.0252979
          0.032228 0.0328987 0.0247668 0.0242715 0.0309856 0.0315837 0.0376508 0.0370061 0.042222 0.0428582 0.0390749 0.0383508
          0.0435599 0.0442813 0.048529 0.0478537 0.0512916 0.0518909 0.0471935 0.0466121 0.0502124 0.0507032 0.0534681 0.0530927
          0.0553419 0.0555869 0.0544733 0.0539663 0.0559873 0.0563972 3.44915e-23 5.66503e-13 5.66503e-13 1.61231e-11 1.84008e-12 1.20502e-07
          1.20317e-07 4.09046e-07 1.20984e-07 4.94869e-07 4.95007e-07 8.95764e-07 4.94958e-07 0.000102514 0.000168347 0.00171471 0.00183903 0.000244526
          0.0002381 0.00199758 0.002128 1.12737e-20 8.78421e-12 8.78421e-12 6.18065e-11 3.17567e-11 4.4163e-07 4.41877e-07 8.38554e-07 4.54817e-07
          6.46558e-07 6.47e-07 1.13483e-06 6.46941e-07 0.000399282 0.000403975 0.00226826 0.00236597 0.000545287 0.000516125 0.00246649 0.00255199
          0.00424406 0.00412644 0.00658218 0.00670393 0.003996 0.00386704 0.00630809 0.00644729 0.0109597 0.0106716 0.0186305 0.0190398
          0.0114773 0.0112307 0.0194357 0.0198118 0.028219 0.0276165 0.0350332 0.035778 0.0270194 0.02643 0.033592 0.0343043
          0.0405799 0.0398186 0.0450165 0.0457632 0.0421498 0.0413572 0.0465199 0.0472853 0.051271 0.0505836 0.0536743 0.0542553
          0.0498962 0.0492106 0.0524897 0.0530849 0.0554659 0.0549743 0.0567977 0.0571851 0.056411 0.0559456 0.0575573 0.0579121
          0.00456994 0.00451262 0.00696603 0.00701555 0.00443816 0.0043508 0.00680969 0.00689686 0.0118845 0.0116959 0.0201665 0.0205008
          0.012173 0.0120433 0.0208167 0.0211161 0.0307439 0.0300857 0.0381295 0.0389641 0.0294492 0.0288286 0.0365403 0.0373229
          0.043783 0.0429581 0.0480584 0.0488385 0.0454886 0.044626 0.0496247 0.0504162 0.0539778 0.0533119 0.0559225 0.0564438
          0.0526373 0.0519562 0.0548255 0.0553821 0.0572889 0.0568596 0.0582475 0.0585615 0.0580793 0.0576963 0.0588522 0.0591179
          0.0586478 0.0749152 0.080569 0.0604548 0.227383 0.556824 0.573362 0.258953 0.290662 0.587512 0.599637 0.321571
          0.0619649 0.0864544 0.0926396 0.0632525 0.0643752 0.0991204 0.105779 0.0653727 0.350794 0.610054 0.618988 0.377615
          0.40165 0.626674 0.633304 0.422869 0.066267 0.112512 0.119212 0.0670653 0.0677847 0.125868 0.132656 0.0684732
          0.44158 0.639099 0.644239 0.458341 0.47379 0.648923 0.653284 0.48848 0.0691998 0.1399 0.147976 0.0700196
          0.0577863 0.0574695 0.058524 0.0587581 0.0571655 0.0570578 0.058339 0.0583088 0.0591143 0.0592784 0.0599584 0.0596672
          0.0594171 0.0592521 0.0597404 0.0598509 0.0601279 0.0600586 0.0602596 0.0602985 0.0600373 0.0604475 0.0607991 0.0602792
          0.0604346 0.0610524 0.06123 0.0605259 0.0604051 0.0603851 0.060452 0.0604546 0.060492 0.0604947 0.0605084 0.0604984
          0.0605809 0.0613551 0.0614477 0.0606067 0.0606274 0.0615372 0.0616338 0.0606439 0.0605114 0.0605214 0.0605278 0.060515
          0.0709876 0.157282 0.16821 0.0721532 0.502804 0.657452 0.661472 0.516973 0.531051 0.665402 0.669236 0.544966
          0.0735792 0.181141 0.196381 0.0753296 0.0774769 0.214073 0.234023 0.0800612 0.558553 0.672989 0.676608 0.57157
          0.583759 0.680092 0.68339 0.594893 0.083053 0.255597 0.27777 0.0862768 0.0895348 0.29952 0.320086 0.0926433
          0.604864 0.686516 0.689438 0.61367 0.621406 0.692194 0.69478 0.628189 0.0954115 0.339009 0.356065 0.097612
          0.0605223 0.0605357 0.0605402 0.0605243 0.0606628 0.0617491 0.0618866 0.0606818 0.0607046 0.0620566 0.0622657 0.0607303
          0.0605266 0.0605447 0.0605475 0.0605267 0.0605209 0.0605475 0.0605486 0.0605182 0.0607615 0.0625267 0.0628455 0.0608003
          0.0608409 0.0632125 0.0635575 0.0608395 0.0605043 0.0605422 0.0604905 0.060442 0.0602957 0.0603544 0.060056 0.0599797
          0.0607517 0.0638124 0.0638969 0.0605043 0.0599764 0.0636928 0.0630335 0.0589954 0.0593516 0.0594639 0.0583931 0.0582118
          0.0589193 0.058661 0.0593907 0.0595708 0.0583849 0.0580928 0.0589829 0.0591942 0.0597225 0.0595754 0.0599579 0.0600567
          0.0599785 0.0598574 0.0601469 0.0602263 0.0603751 0.0603217 0.0604128 0.0604461 0.0602616 0.0601973 0.0603401 0.060377
          0.0604553 0.0604321 0.0604654 0.0604745 0.0604673 0.0605113 0.0604969 0.0605134 0.0605164 0.0597496 0.0595747 0.0600081
          0.0601182 0.0593771 0.0591583 0.0597336 0.0598792 0.0601775 0.0600846 0.0602922 0.0603475 0.0603285 0.0602596 0.060398
          0.0604438 0.0604676 0.0604501 0.0604166 0.060457 0.0604693 0.0604939 0.0605112 0.0605169 0.0605247 0.0605227 0.060525
          0.0605261 0.0605175 0.0605154 0.0605039 0.0604992 0.0604339 0.0604416 0.0605067 0.0605017 0.0604382 0.0604466 0.0602895
          0.0602842 0.0599323 0.0599269 0.0602863 0.0602843 0.0599553 0.0599432 0.0592465 0.0592934 0.0580835 0.057963 0.0591638
          0.059203 0.0578435 0.0577244 0.0605269 0.0605242 0.0605197 0.0605105 0.0605048 0.0604451 0.0604557 0.0605162 0.0605117
          0.0604582 0.0604664 0.0603187 0.0603092 0.059928 0.0599321 0.0603025 0.0602915 0.0599231 0.0599258 0.0590961 0.0591277
          0.0576047 0.0574838 0.059035 0.0590652 0.0573586 0.0572273 1.34338e-22 5.96439e-13 5.96439e-13 1.01706e-11 7.81578e-12 1.66607e-07
          1.66903e-07 1.28719e-05 4.53773e-06 1.81326e-07 1.81782e-07 6.38296e-06 2.11822e-06 0.00080857 0.000737645 0.00263607 0.0026754 0.000903325
          0.000880113 0.00268568 0.00266224 1.10941e-23 1.00724e-13 1.00724e-13 5.08944e-11 7.60318e-11 2.30917e-06 1.54963e-07 1.89607e-05 3.34983e-06
          3.55024e-07 3.59475e-07 2.32606e-05 7.38061e-06 0.000906655 0.000941676 0.00261094 0.00251977 0.000756047 0.000857603 0.00239722 0.00223856
          0.00454548 0.00459429 0.00702734 0.00698352 0.00461459 0.00460705 0.0070435 0.00704731 0.0123402 0.0122723 0.021402 0.0216769
          0.0123887 0.0123785 0.0219416 0.0221961 0.033708 0.0329057 0.0416759 0.0426622 0.0321482 0.0314295 0.0398308 0.0407334
          0.047277 0.0463719 0.051212 0.0520107 0.0491545 0.0482045 0.0528103 0.053608 0.0565061 0.0559 0.0578721 0.0582964
          0.0552744 0.0546328 0.0569438 0.0574204 0.0587664 0.0584362 0.0593573 0.0595716 0.0593474 0.0590702 0.0597625 0.0599324
          0.00406146 0.00422756 0.00670481 0.00655717 0.00436266 0.00446896 0.00691592 0.00682337 0.0123125 0.0123676 0.0224435 0.0226852
          0.0120825 0.0122196 0.0229225 0.0231571 0.0374995 0.0364484 0.045923 0.0471269 0.0354721 0.0345612 0.043696 0.0447814
          0.0511166 0.0501258 0.0543995 0.0551792 0.0531466 0.0521245 0.0559407 0.0566782 0.0586246 0.0581518 0.0593619 0.0596377
          0.0576381 0.0570876 0.0586894 0.0590459 0.059812 0.0595961 0.0600819 0.0602059 0.0601417 0.0599924 0.0603002 0.0603712
          8.22119e-22 1.10544e-20 2.21491e-12 2.85195e-07 2.40751e-07 2.97741e-05 2.94475e-05 2.96805e-05 3.13354e-05 2.82257e-05 2.92273e-05 3.27225e-05
          2.94598e-05 0.000478122 0.000639156 0.00204916 0.00182456 0.000202334 0.000338547 0.00157103 0.00128347 1.89155e-21 -1.63169e-36 3.56861e-12
          3.81122e-07 0 3.68865e-05 3.8735e-05 3.93482e-05 3.93884e-05 3.92591e-05 8.58317e-05 0.000126792 0.000966135 0.000617804 4.42183e-05
          5.36254e-05 0.000297772 4.58913e-05 0.00300853 0.00334452 0.00587939 0.00553487 0.00362554 0.00386262 0.00637612 0.00615388 0.0116305
          0.0118915 0.0233912 0.0236254 0.0107786 0.011272 0.0238176 0.0238922 0.042832 0.0412509 0.0511888 0.0527169 0.0398738
          0.0386365 0.0484002 0.0497512 0.055215 0.0541789 0.0573844 0.0580503 0.0572528 0.056245 0.0586663 0.0592238 0.0600243
          0.0597524 0.0602178 0.0603327 0.0594299 0.0590526 0.0598744 0.0600687 0.0603671 0.0602673 0.0604282 0.0604775 0.0604814
          0.060434 0.0604926 0.0605059 0.000761032 0.00149576 0.00368193 0.00248736 0.00210722 0.00260347 0.00509225 0.004503 0.00915801
          0.010098 0.0237441 0.0231585 0.00600077 0.00789957 0.0216606 0.018031 0.0537409 0.0498241 0.0576174 0.0591489 0.0469501
          0.0446916 0.0543248 0.0559784 0.0590552 0.058207 0.0597064 0.060082 0.0602275 0.0597401 0.0603302 0.060469 0.060524
          0.0604873 0.060523 0.0605322 0.0604049 0.0602484 0.0604307 0.0604978 0.0605039 0.0605299 0.0602408 0.0601429 0.06034
          0.0603882 0.0600313 0.059901 0.0602081 0.0602817 0.0604219 0.0603794 0.06046 0.0604831 0.0604775 0.0604526 0.0604888
          0.0604965 0.0605099 0.0604955 0.0605155 0.0605201 0.0605267 0.0604802 0.060449 0.0604885 0.0604975 0.0604007 0.0603288
          0.0604346 0.0604734 0.0604905 0.0605115 0.0605184 0.0605321 0.060531 0.0605288 0.0605257 0.0605186 0.0605148 0.0604654
          0.0604754 0.0605228 0.0605194 0.0604784 0.0604859 0.0603589 0.0603461 0.0599541 0.0599672 0.0603366 0.0603237 0.0599353
          0.0599446 0.0589774 0.0590045 0.0570885 0.0569425 0.0589278 0.0589512 0.0567871 0.0566217 0.0605335 0.0605316 0.0605295
          0.0605243 0.0605217 0.0604869 0.0604956 0.0605263 0.0605244 0.0604997 0.0605062 0.0604182 0.0604005 0.0600287 0.0600589
          0.0603856 0.0603686 0.0599814 0.0600038 0.0588951 0.0589073 0.0564457 0.0562604 0.0588942 0.0588896 0.0560645 0.0558595
          0.0605163 0.060493 0.0605203 0.0605264 0.0605298 0.0605347 0.060526 0.0605344 0.0605358 0.060535 0.0605346 0.060532
          0.0605237 0.0605232 0.0605091 0.0605152 0.0605194 0.0604925 0.0604674 0.0601806 0.0602678 0.0604532 0.0604339 0.0600915
          0.060132 0.0589561 0.0589122 0.0556505 0.0554541 0.0591977 0.0590418 0.055297 0.0552145 0.0605359 0.0605359 0.0605355
          0.0605277 0.0605341 0.0605326 0.0605255 0.0604508 0.0605034 0.060517 0.0605007 0.0603181 0.0603965 0.0596017 0.0593608
          0.0551932 0.0553584 0.0601951 0.0598715 0.0558368 0.0570678 0 0 0 0 0 0
          0 0 0 0 0 1.31858e-30 0 0 0 0 0 0
          0 0 0 0 0 0 1.2066e-24 2.39662e-11 2.25966e-12 7.71192e-10 1.69936e-10 0.000189309
          0.000300912 2.75625e-05 2.61774e-05 0.000372558 0.000373845 0.109248 0.0981741 0.105032 0.115372 0.0824493 0.0622676 0.0733415
          0.0906753 0.0985725 0.083905 0.0932385 0.105309 0.119637 0.110651 0.115109 0.122522 1.32476e-14 1.32476e-14 4.70936e-12
          2.0527e-12 5.25459e-06 5.25481e-06 6.11746e-06 6.03709e-06 5.25467e-06 5.25483e-06 5.56262e-06 5.50101e-06 0.000452892 0.000451017 0.000453967
          0.000455091 0.000556955 0.000557739 0.000560709 0.00056053 0.131333 0.12758 0.132691 0.136195 0.123027 0.117162 0.122849
          0.128398 0.131072 0.126223 0.127905 0.131717 0.137586 0.134727 0.134381 0.136233 0.12397 0.118222 0.119765
          0.123768 0.110489 0.100911 0.106561 0.113984 0.115632 0.110197 0.111749 0.115228 0.12165 0.119486 0.117113
          0.117339 0.110608 0.112384 0.105106 0.101362 0.112534 0.111055 0.107901 0.107318 0.0994382 0.102087 0.0935317
          0.0889588 0.0897481 0.095251 0.0830292 0.0759649 0.0601031 0.068415 0.0520139 0.043429 0.0759578 0.0823394 0.0684179
          0.0605311 0.0439604 0.0523952 0.0361436 0.0284342 0.0280143 0.0356697 0.0214761 0.0155083 0.132329 0.131793 0.126892
          0.125877 0.130422 0.127927 0.126115 0.12706 0.121439 0.122226 0.116025 0.11341 0.116875 0.119566 0.10979
          0.105454 0.0920007 0.0977429 0.0838791 0.0770312 0.102976 0.107376 0.0963371 0.0903927 0.0759887 0.0832294 0.0680993
          0.0598686 0.0606845 0.0683564 0.051734 0.0440818 0.0289576 0.0356512 0.0218099 0.0166119 0.043253 0.0515398 0.0353126
          0.0280444 0.0157012 0.0213226 0.0107265 0.00736449 0.00797337 0.0112149 0.00515269 0.0034552 0 0 2.32675e-15