<?xml version="1.0"?>
<VTKFile type="UnstructuredGrid" version="0.1" byte_order="LittleEndian">
  <UnstructuredGrid>
    <Piece NumberOfCells="5457" NumberOfPoints="5718">
      <CellData Scalars="S_w">
        <DataArray type="Float32" Name="S_w" NumberOfComponents="1" format="ascii">
          1 1 1 1 1 1 1 1 1 1 1 1
          1 1 1 1 1 1 1 1 1 1 1 1
          1 1 1 1 1 1 1 1 1 1 1 1
          1 1 1 1 1 1 1 1 1 1 1 1
          1 1 1 1 1 1 1 1 1 1 1 1
          1 1 1 1 1 1 1 1 1 1 1 1
          1 1 1 1 1 1 1 1 1 1 1 1
          1 1 1 1 1 1 1 1 1 1 1 1
          1 1 1 1 1 1 1 1 1 1 1 1
          1 1 1 1 1 1 1 1 1 1 1 1
          1 1 1 1 1 1 1 1 1 1 1 1
          1 1 1 1 1 1 1 1 1 1 1 1
          1 1 1 1 1 1 1 1 1 1 1 1
          1 1 1 1 1 1 1 1 1 1 1 1
          1 1 1 1 1 1 1 1 1 1 1 1
          1 1 1 1 1 1 1 1 1 1 1 1
          1 1 1 1 1 1 1 1 1 1 1 1
          1 1 1 1 1 1 1 1 1 1 1 1
          1 1 1 1 1 1 1 1 1 1 1 1
          1 1 1 1 1 1 1 1 1 1 1 1
          1 1 1 1 1 1 1 1 1 1 1 1
          1 1 1 1 1 1 1 1 1 1 1 1
          1 1 1 1 1 1 1 1 1 1 1 1
          1 1 1 1 1 1 1 1 1 1 1 1
          1 1 1 1 1 1 1 1 1 1 1 1
          1 1 1 1 1 1 1 1 1 1 1 1
          1 1 1 1 1 1 1 1 1 1 1 1
          1 1 1 1 1 1 1 1 1 1 1 1
          1 1 1 1 1 1 1 1 1 1 1 1
          1 1 1 1 1 1 1 1 1 1 1 1
          1 1 1 1 1 1 1 1 1 1 1 1
          1 1 1 1 1 1 1 1 1 1 1 1
          1 1 1 1 1 1 1 1 1 1 1 1
          1 1 1 1 1 1 1 1 1 1 1 1
          1 1 1 1 1 1 1 1 1 1 1 1
          1 1 1 1 1 1 1 1 1 1 1 1
          1 1 1 1 1 1 1 1 1 1 1 1
          1 1 1 1 1 1 1 1 1 1 1 1
          1 1 1 1 1 1 1 1 1 1 1 1
          1 1 1 1 1 1 1 1 1 1 1 1
          1 1 1 0.999971 0.999975 1 1 0.999994 0.999995 1 1 1
          1 0.999999 0.999999 1 1 1 0.999999 0.999999 1 0.999999 0.999932 0.99995
          0.999292 0.999172 0.998229 0.998633 0.999898 0.999896 0.999775 0.999817 0.999778 0.999761 0.999315 0.999452
          0.999504 0.999468 0.998699 0.998842 0.996935 0.99667 0.99467 0.995102 0.998008 0.997667 0.996061 0.996698
          1 1 1 1 1 1 1 1 1 1 1 1
          1 1 1 1 1 1 1 1 1 1 1 1
          1 1 1 1 1 1 1 1 1 1 1 1
          1 1 1 1 1 1 1 1 1 1 1 1
          1 1 1 1 1 1 1 1 1 1 1 1
          1 1 1 1 0.999999 0.999998 1 1 0.999983 0.999981 1 1
          1 1 1 0.999576 0.999598 0.998892 0.998806 0.999868 0.999889 0.999652 0.999453 0.997876
          0.998382 0.996964 0.996095 0.996765 0.996917 0.994936 0.994722 0.999999 1 0.999995 0.999975 1
          0.999997 1 0.999999 0.999971 0.999541 0.999765 0.99939 0.998627 1 1 1 1
          1 1 1 1 1 1 1 1 1 1 1 1
          1 1 1 1 1 1 1 1 1 1 1 1
          1 1 1 1 1 1 1 1 1 1 1 1
          1 1 1 1 1 1 1 1 1 1 1 1
          1 1 1 1 1 1 1 1 1 1 1 1
          1 1 1 1 1 1 1 1 1 0.999947 0.999976 1
          1 1 1 1 0.999899 0.999897 0.999814 0.999841 0.999196 0.999039 0.998095 0.998583
          1 1 0.999987 0.999991 0.999048 0.998845 0.997734 0.998285 0.996775 0.996065 0.994113 0.995224
          0.992494 0.990968 0.988043 0.99002 0.996334 0.995444 0.99349 0.994841 0.994196 0.993287 0.990605 0.991879
          0.992058 0.991456 0.988362 0.989116 0.985247 0.98445 0.981155 0.982006 0.988261 0.986763 0.983575 0.985236
          0.999672 0.999632 0.999091 0.999343 0.996809 0.995984 0.994234 0.995521 0.993131 0.991351 0.988812 0.991256
          0.99795 0.997423 0.996084 0.997044 0.992206 0.99033 0.987539 0.989901 0.986415 0.984252 0.981175 0.983554
          0.979831 0.977336 0.974266 0.976891 0.986479 0.983881 0.98098 0.98385 0.981337 0.979581 0.976371 0.978222
          0.978018 0.977156 0.973916 0.974792 0.970994 0.970137 0.967038 0.967876 0.974419 0.972536 0.969401 0.971333
          1 1 1 1 1 1 1 1 1 0.99945 0.999249 0.99853
          0.999013 0.997456 0.996786 0.995424 0.996549 1 0.999994 0.99993 0.999996 1 1 1
          1 1 1 1 1 0.999998 1 1 0.999787 0.999417 0.998931 0.999561
          0.994603 0.993028 0.991175 0.993347 0.991017 0.988278 0.986233 0.989373 0.998352 0.997707 0.996906 0.997672
          0.995042 0.993688 0.991703 0.993617 0.98814 0.985364 0.982699 0.985815 0.982561 0.979232 0.976524 0.980103
          0.991057 0.988548 0.986169 0.989133 0.980339 0.977313 0.974406 0.977611 0.973265 0.970584 0.96758 0.970342
          0.966845 0.964056 0.961137 0.963976 0.974165 0.970869 0.968004 0.971423 0.967686 0.965749 0.962736 0.96469
          0.964292 0.963501 0.960575 0.961318 0.957954 0.957285 0.954555 0.955143 0.961218 0.959285 0.956412 0.958332
          0.986218 0.982937 0.980497 0.984133 0.976875 0.973149 0.970455 0.974372 0.971211 0.967175 0.964482 0.968684
          0.981207 0.977325 0.974867 0.979053 0.968077 0.964595 0.961782 0.965358 0.960608 0.957759 0.954918 0.957799
          0.954542 0.951662 0.948847 0.951741 0.962105 0.958478 0.955672 0.959382 0.955039 0.953161 0.950388 0.952233
          0.952005 0.951527 0.948975 0.949327 0.94637 0.94618 0.943826 0.943828 0.949055 0.947275 0.944589 0.946299
          1 1 1 1 1 1 1 1 1 1 1 1
          1 1 1 1 1 1 1 1 1 1 1 1
          1 1 1 0.999866 0.999778 1 1 0.999452 0.999343 1 1 0.995971
          0.994897 0.993616 0.995161 0.986924 0.983386 0.981288 0.985284 0.982777 0.978434 0.97624 0.981013 0.993509
          0.991424 0.989863 0.992642 1 1 1 1 1 1 0.998907 0.998828 0.999999
          0.9999 0.998375 0.998157 0.999897 1 1 1 1 0.990849 0.987434 0.985828 0.98986
          0.978435 0.973319 0.970951 0.976514 0.973789 0.967844 0.965141 0.971588 0.987949 0.983373 0.981598 0.986866
          0.976155 0.971755 0.969251 0.973924 0.965557 0.961244 0.958508 0.962976 0.959819 0.955239 0.952371 0.957105
          0.971 0.966124 0.963508 0.96865 0.956156 0.952398 0.949551 0.953383 0.948515 0.945638 0.942814 0.945682
          0.942435 0.939613 0.936726 0.939497 0.950115 0.946242 0.943272 0.947206 0.943205 0.941602 0.93899 0.940471
          0.94106 0.941297 0.939182 0.938665 0.936111 0.936977 0.935191 0.933918 0.937427 0.936118 0.933596 0.934695
          0.965622 0.960267 0.957416 0.963047 0.953802 0.948952 0.945837 0.950836 0.947236 0.942126 0.938619 0.943862
          0.95976 0.953894 0.950642 0.956802 0.943787 0.939829 0.936654 0.94064 0.936145 0.933475 0.930514 0.933054
          0.92956 0.927228 0.92423 0.926289 0.936953 0.932987 0.929524 0.93345 0.931696 0.930879 0.928522 0.928997
          0.931665 0.933437 0.932141 0.929796 0.928015 0.931045 0.93049 0.92669 0.926111 0.926081 0.924056 0.923551
          1 1 1 1 1 1 1 1 0.999801 0.997873 0.997752 0.999801
          0.999801 0.997511 0.997275 0.999804 1 1 1 1 0.984951 0.979004 0.976895 0.983723
          0.968536 0.961617 0.958361 0.965878 0.962183 0.954094 0.949849 0.95864 0.981528 0.973791 0.970967 0.979905
          1 1 0.99993 0.996901 0.997353 1 1 0.997732 0.999394 1 1 0.97717
          0.966834 0.962604 0.975171 0.953683 0.944218 0.938179 0.948404 0.940532 0.929919 0.920519 0.930714 0.970887
          0.95561 0.945781 0.964705 0.953043 0.946625 0.94276 0.949486 0.939771 0.934444 0.930387 0.935796 0.930979
          0.92558 0.920833 0.926147 0.944952 0.937973 0.933149 0.940396 0.929364 0.925561 0.921796 0.92541 0.922662
          0.920999 0.918136 0.919289 0.915704 0.915238 0.912898 0.912521 0.920864 0.917589 0.913673 0.916457 0.920949
          0.922126 0.920743 0.918783 0.925671 0.930359 0.93086 0.925223 0.925358 0.932039 0.93389 0.926178 0.916827
          0.91972 0.919412 0.915493 0.934548 0.927158 0.920942 0.928348 0.920346 0.915321 0.909981 0.914475 0.907744
          0.904203 0.899283 0.901482 0.920373 0.913364 0.905813 0.911857 0.911585 0.909544 0.906029 0.907091 0.909444
          0.910863 0.909677 0.907095 0.905335 0.909207 0.909761 0.904606 0.902622 0.902806 0.900671 0.89913 0.914719
          0.919783 0.920994 0.914768 0.927867 0.936632 0.939951 0.930278 0.933762 0.944243 0.948704 0.937762 0.915725
          0.923161 0.926127 0.917573 0.9915 0.991759 0.988656 0.988371 0.993245 0.994427 0.99198 0.990409 0.986694
          0.988437 0.985485 0.983566 0.984485 0.984813 0.981585 0.981196 0.996696 0.997986 0.99667 0.994788 0.999623
          0.99989 0.999752 0.998944 0.997528 0.998928 0.99823 0.996227 0.992044 0.994494 0.992582 0.989381 0.999999
          1 1 0.999997 1 1 0.99995 1 0.999996 0.999824 0.977263 0.977717 0.974576
          0.974048 0.979863 0.981959 0.979125 0.976826 0.973372 0.97585 0.973246 0.970557 0.970345 0.970956 0.968013
          0.967302 0.9862 0.989813 0.987492 0.98361 0.994358 0.996792 0.995835 0.992817 0.99077 0.994418 0.993436
          0.989068 0.980651 0.98478 0.982742 0.978278 0.99924 0.999776 0.999673 0.998726 0.999997 1 1
          0.999995 0.999964 1 0.999999 0.999944 0.997799 0.999098 0.998884 0.997217 1 1 1
          1 1 1 1 1 1 0.963875 0.964701 0.962006 0.961043 0.967439 0.970336
          0.968067 0.96492 0.962198 0.965607 0.963741 0.960025 0.957909 0.959032 0.956622 0.955313 0.975661 0.980416
          0.97878 0.973674 0.987179 0.992118 0.991265 0.985893 0.98455 0.990194 0.98964 0.983731 0.971576 0.977007
          0.975846 0.970052 0.996397 0.998314 0.998058 0.995902 0.99977 0.999898 0.999897 0.999718 0.999602 0.999894
          0.99989 0.999554 0.995251 0.997527 0.997368 0.994963 0.952489 0.954016 0.951913 0.950132 0.957741 0.96179
          0.960397 0.955966 0.954182 0.959032 0.958202 0.952887 0.947617 0.949699 0.947967 0.945539 0.968525 0.974663
          0.974035 0.967534 0.982939 0.989024 0.988856 0.982608 0.98239 0.988718 0.988919 0.982564 0.966651 0.973494
          0.973456 0.966276 0.994616 0.997068 0.997019 0.994541 0.999395 0.999789 0.999784 0.999376 0.999276 0.999687
          0.999692 0.999302 0.994474 0.99692 0.99697 0.99459 0.999999 1 1 1 1 1
          1 1 1 1 1 1 0.999998 1 1 0.999998 1 1
          0.999997 1 1 0.999997 1 1 1 1 1 1 1 1
          1 1 1 1 1 1 1 1 1 1 1 1
          1 1 1 1 1 1 0.943392 0.946225 0.94496 0.941666 0.951706 0.957525
          0.957338 0.950988 0.950515 0.957425 0.957987 0.95052 0.939983 0.943811 0.943156 0.938732 0.966126 0.973612
          0.974161 0.966416 0.982923 0.98923 0.989714 0.983548 0.984408 0.990365 0.991026 0.985416 0.967038 0.974994
          0.976087 0.968026 0.994768 0.99705 0.997169 0.995025 0.999408 0.99979 0.999792 0.999448 0.999511 0.999794
          0.999799 0.999559 0.995398 0.997399 0.997561 0.995747 0.937672 0.942771 0.942909 0.937084 0.950925 0.958953
          0.960316 0.951794 0.953214 0.962188 0.964312 0.955048 0.936876 0.943499 0.944632 0.937204 0.969437 0.97754
          0.979063 0.971081 0.986728 0.991906 0.99258 0.98798 0.98958 0.993574 0.994176 0.99082 0.973212 0.981018
          0.982774 0.975353 0.996292 0.997941 0.998098 0.996667 0.999726 0.999898 0.999899 0.999758 0.999825 0.9999
          0.9999 0.999839 0.997318 0.998558 0.998671 0.997648 0.999998 1 1 0.999999 1 1
          0.999999 1 1 0.999999 1 1 1 1 1 1 1 1
          1 1 1 1 1 1 0.938135 0.946399 0.948648 0.939635 0.957549 0.96701
          0.969685 0.960293 0.963739 0.972954 0.975829 0.967107 0.941947 0.951658 0.954925 0.944752 0.978002 0.985054
          0.986816 0.980365 0.992335 0.99518 0.995685 0.993294 0.994645 0.996686 0.997059 0.995381 0.983238 0.989148
          0.990585 0.985496 0.998321 0.999142 0.999201 0.998567 0.999973 1 1 0.99998 0.999995 1
          1 0.999996 0.999165 0.999587 0.999605 0.999296 0.948478 0.958967 0.962855 0.952434 0.971144 0.979335
          0.982024 0.974658 0.9788 0.985487 0.987673 0.981922 0.957258 0.967446 0.971316 0.961783 0.98832 0.992567
          0.993491 0.990187 0.996635 0.998034 0.998251 0.997159 0.998318 0.999143 0.999211 0.998615 0.992523 0.995112
          0.99574 0.993674 0.999755 0.999899 0.9999 0.99979 1 1 1 1 1 0.999975
          1 1 0.999982 1 1 1 1 1 1 1 1 1
          1 1 1 1 1 1 1 1 1 1 1 1
          1 1 1 1 1 1 1 1 1 1 1 1
          1 1 1 1 1 1 1 1 1 1 1 1
          1 1 1 1 1 1 1 1 1 1 1 1
          0.999965 0.999915 1 1 1 1 1 1 1 1 1 1
          1 1 1 1 1 1 1 1 1 1 1 1
          1 1 1 1 1 0.999918 1 0.999933 0.996948 0.997934 0.996905 0.999856
          0.984214 0.980406 0.996344 0.999978 0.997808 0.982022 0.999393 0.989795 0.950918 0.948564 0.943034 0.98098
          0.888543 0.869606 0.915298 0.903167 0.829946 0.950161 1 1 1 0.999924 1 1
          1 1 1 1 1 1 0.997956 0.999987 1 0.99071 0.999542 1
          1 1 1 1 1 1 1 1 1 1 1 1
          1 1 1 1 1 1 1 1 1 1 1 1
          1 1 1 1 1 1 1 1 1 1 1 1
          1 1 1 1 1 1 1 1 1 1 1 1
          1 1 1 1 1 1 1 1 1 1 1 1
          1 1 1 1 1 1 1 1 1 1 1 1
          1 1 1 1 1 1 1 1 1 1 1 1
          1 0.9995 0.999499 0.999278 0.9994 1 1 0.999921 0.999972 1 1 1
          1 1 1 1 1 1 1 1 1 1 1 0.999998
          0.999998 1 1 0.999997 0.999997 0.998704 0.998703 0.998701 0.998702 0.998903 0.998901 0.9989
          0.998901 1 1 0.999996 0.999996 1 1 0.999995 0.999995 0.998505 0.998504 0.998501
          0.998502 0.998604 0.998604 0.998601 0.998602 1 1 0.999994 0.999994 1 1 0.999992
          0.999992 0.998307 0.998307 0.998302 0.998303 0.998406 0.998405 0.998401 0.998402 1 1 1
          1 1 1 1 1 1 1 1 1 1 1 1
          1 1 1 1 1 1 1 1 1 1 1 1
          1 1 1 1 1 1 1 1 0.999992 0.999992 1 1
          0.999991 0.999991 0.998208 0.998208 0.998202 0.998203 0.998307 0.998306 0.998302 0.998302 1 1
          0.99999 0.99999 0.9999 0.9999 0.99989 0.99989 0.998109 0.998108 0.998103 0.998103 0.99811 0.998109
          0.998103 0.998104 0.9999 0.9999 0.999888 0.999889 0.9999 0.9999 0.999888 0.999888 0.99801 0.99801
          0.998004 0.998004 0.998011 0.99801 0.998004 0.998005 1 1 1 1 1 1
          1 1 1 1 1 1 1 1 1 1 1 1
          1 1 1 1 1 1 1 1 1 1 1 1
          0.9999 0.9999 0.999888 0.999888 0.9999 0.9999 0.999887 0.999887 0.997912 0.997912 0.997905 0.997906
          0.99801 0.99801 0.998003 0.998004 0.9999 0.9999 0.999887 0.999887 0.9999 0.9999 0.999887 0.999887
          0.997912 0.997911 0.997904 0.997905 0.997912 0.997912 0.997905 0.997905 0.9999 0.9999 0.999885 0.999885
          0.9999 0.9999 0.999884 0.999885 0.997813 0.997813 0.997806 0.997806 0.997814 0.997813 0.997806 0.997807
          0.998744 0.984803 0.931938 1 0.999957 0.996739 0.863411 0.777546 0.866896 0.938881 0.675772 0.823781
          0.916655 0.808915 0.907082 0.998281 0.996743 0.996063 1 1 1 1 1 1
          1 1 1 1 1 1 0.977545 0.997214 0.999904 0.999983 1 1
          1 1 1 1 1 1 1 1 1 1 1 1
          1 1 1 1 1 1 1 1 1 1 1 1
          1 1 1 1 1 1 1 1 1 1 1 1
          1 1 1 1 1 1 1 1 1 1 1 1
          1 1 1 1 1 1 1 1 1 1 1 1
          1 1 1 1 1 1 1 1 1 1 1 1
          1 1 0.999899 0.99972 0.999832 0.999901 1 1 1 1 1 0.996888
          0.994792 0.997027 0.99768 0.985615 0.970552 0.991407 0.992946 0.998862 0.998345 0.998482 0.998909 1
          0.999992 0.999992 1 1 1 1 1 1 1 0.999988 0.999991 1
          0.998905 0.998491 0.998452 0.998877 0.998711 0.998286 0.998228 0.998662 1 0.999983 0.999986 1
          0.940188 0.906538 0.976945 0.980506 0.858864 0.810561 0.9543 0.96163 0.986076 0.982683 0.984165 0.987133
          0.99493 0.993486 0.993921 0.99525 0.755169 0.705186 0.920004 0.93261 0.654994 0.613185 0.880857 0.898315
          0.955119 0.95005 0.956052 0.959815 0.969288 0.964109 0.967422 0.971793 0.573665 0.543015 0.833741 0.856327
          0.513618 0.491702 0.777952 0.805317 0.931526 0.926507 0.941797 0.944015 0.942845 0.937938 0.947821 0.950756
          0.995342 0.994024 0.993968 0.995296 0.987415 0.984434 0.984218 0.98726 0.986976 0.983876 0.983612 0.986787
          0.995166 0.993841 0.993774 0.995103 0.97232 0.967961 0.967547 0.971986 0.960795 0.957184 0.956821 0.960421
          0.959822 0.956214 0.95562 0.959246 0.971459 0.966926 0.966357 0.971003 0.952486 0.949849 0.949673 0.952236
          0.946781 0.944997 0.945087 0.946759 0.946417 0.944817 0.944464 0.946005 0.951723 0.949208 0.94871 0.951186
          1 1 1 1 1 1 0.999969 0.999975 1 0.998431 0.998006 0.997959
          0.998393 0.998243 0.997806 0.997759 0.998205 1 0.999959 0.999965 1 1 1 1
          1 1 1 1 1 1 0.999946 0.999952 0.999999 0.998058 0.99761 0.997563
          0.998019 0.997873 0.997419 0.997372 0.997835 0.9999 0.999836 0.999828 0.9999 0.994969 0.993652 0.993593
          0.994908 0.986497 0.983259 0.983024 0.986346 0.986124 0.982722 0.982486 0.985986 0.994783 0.99348 0.993423
          0.994726 0.970409 0.965655 0.965054 0.969936 0.958552 0.954917 0.954295 0.957943 0.957218 0.953568 0.952929
          0.956586 0.969323 0.964319 0.963692 0.968833 0.950562 0.948131 0.947621 0.950006 0.945535 0.944058 0.943692
          0.945107 0.944633 0.943287 0.942951 0.944228 0.949374 0.947045 0.946539 0.948812 0.994608 0.993316 0.993274
          0.994569 0.985784 0.982184 0.981956 0.985677 0.985526 0.981676 0.981452 0.985445 0.994497 0.993206 0.993169
          0.994465 0.9682 0.962927 0.962275 0.967698 0.955837 0.952187 0.951545 0.95519 0.95443 0.950802 0.95014
          0.953751 0.967053 0.961483 0.960788 0.966523 0.948176 0.94597 0.945484 0.947624 0.943789 0.942587 0.942274
          0.943402 0.942983 0.941933 0.941645 0.942616 0.947006 0.944944 0.944466 0.946449 0.46961 0.453751 0.716558
          0.746425 0.436824 0.425208 0.655512 0.684559 0.907824 0.901521 0.933511 0.934922 0.920154 0.914654 0.937218
          0.938932 0.412225 0.403818 0.600768 0.626129 0.393864 0.387293 0.555232 0.575951 0.878325 0.870272 0.927097
          0.928336 0.893937 0.886762 0.93024 0.931511 0.378964 0.373469 0.51846 0.535019 0.366562 0.362079 0.488814
          0.502129 0.842387 0.832812 0.920605 0.921943 0.861062 0.852273 0.923919 0.925179 0.943031 0.941884 0.942285
          0.943302 0.940657 0.939938 0.940655 0.941238 0.941291 0.940772 0.94067 0.941143 0.943169 0.942225 0.942008
          0.942895 0.939155 0.938699 0.939744 0.94006 0.938181 0.93787 0.939246 0.939417 0.939786 0.939658 0.939685
          0.939793 0.940284 0.940021 0.94 0.940232 0.937474 0.937235 0.93894 0.93904 0.93691 0.936709 0.938751
          0.938807 0.93941 0.939386 0.939472 0.939487 0.939531 0.939467 0.939532 0.939583 0.356386 0.352689 0.4643
          0.475355 0.347917 0.344788 0.443506 0.452884 0.79901 0.786798 0.912596 0.91448 0.821986 0.811197 0.916914
          0.91847 0.340718 0.338032 0.42594 0.433785 0.334535 0.332213 0.41148 0.417848 0.747059 0.734621 0.90268
          0.904834 0.773455 0.760489 0.907706 0.909852 0.329187 0.32717 0.399851 0.404902 0.32457 0.322818 0.390699
          0.394617 0.70141 0.692878 0.895417 0.896384 0.722391 0.711556 0.898255 0.900065 0.936408 0.936194 0.938606
          0.938653 0.935866 0.93561 0.938463 0.938515 0.939334 0.939323 0.939447 0.939449 0.939357 0.939345 0.939452
          0.939456 0.935252 0.934979 0.938321 0.938366 0.934653 0.934464 0.93831 0.938273 0.939336 0.939417 0.939582
          0.939494 0.939299 0.939298 0.939445 0.939437 0.93437 0.934466 0.938789 0.938481 0.935003 0.935792 0.940574
          0.939584 0.940933 0.942008 0.942306 0.941173 0.939669 0.940026 0.940225 0.93985 0.942577 0.941749 0.941524
          0.942296 0.940963 0.940533 0.940407 0.940796 0.940621 0.940271 0.940162 0.940475 0.941994 0.941281 0.941079
          0.941736 0.940147 0.939943 0.939878 0.940058 0.93976 0.939668 0.939644 0.939722 0.939684 0.939618 0.939593
          0.939649 0.939964 0.939808 0.939758 0.939892 0.939591 0.93955 0.939539 0.939573 0.939512 0.939502 0.939505
          0.939508 0.939505 0.93955 0.93952 0.93951 0.939534 0.941462 0.940863 0.940691 0.941234 0.940325 0.940049
          0.939966 0.940208 0.940091 0.939881 0.939817 0.939997 0.940995 0.940511 0.940368 0.940797 0.939822 0.939708
          0.939669 0.939767 0.939613 0.939566 0.939551 0.939589 0.939567 0.939537 0.939523 0.939547 0.939712 0.93963
          0.939601 0.93967 0.939523 0.939507 0.939502 0.939514 0.9395 0.939498 0.939507 0.9395 0.939499 0.939501
          0.939497 0.939495 0.939499 0.9395 0.939495 0.939494 0.939499 0.939499 0.939499 0.939499 0.939495 0.939507
          0.939515 0.939501 0.939558 0.939649 0.939657 0.939566 0.939566 0.939656 0.939653 0.939563 0.939502 0.939515
          0.939513 0.939501 0.93993 0.940319 0.940342 0.939942 0.94131 0.942504 0.942631 0.941375 0.941441 0.942766
          0.942891 0.941495 0.939944 0.940356 0.940366 0.939943 0.939498 0.939498 0.939497 0.939497 0.939501 0.939513
          0.939511 0.9395 0.939562 0.93965 0.939646 0.939558 0.939556 0.939641 0.939635 0.939552 0.939499 0.93951
          0.939508 0.939498 0.93994 0.940374 0.940381 0.939936 0.941558 0.943032 0.943165 0.941609 0.94167 0.943317
          0.943462 0.941719 0.93993 0.940386 0.940388 0.939923 1 1 1 1 1 1
          1 1 1 1 1 0.9999 0.999813 0.999814 0.9999 0.997706 0.997245 0.99724
          0.997702 0.997702 0.997242 0.997246 0.997704 0.9999 0.999815 0.999816 0.9999 1 1 1
          1 1 1 1 1 1 1 1 0.9999 0.999817 0.99982 0.9999
          0.997709 0.997258 0.997287 0.997728 0.997802 0.997372 0.997428 0.997839 0.9999 0.999829 0.999834 0.9999
          0.994407 0.993115 0.993103 0.994403 0.985338 0.981191 0.98097 0.985279 0.985201 0.980715 0.980502 0.985178
          0.994406 0.993098 0.993102 0.994412 0.96584 0.959944 0.959214 0.96529 0.952955 0.949375 0.948702 0.952248
          0.951423 0.947928 0.947242 0.950679 0.964585 0.958331 0.957541 0.963996 0.945825 0.943935 0.943482 0.945277
          0.942223 0.941336 0.941085 0.941891 0.941541 0.940821 0.940611 0.941248 0.944671 0.942985 0.942562 0.944135
          0.994427 0.993117 0.993152 0.994462 0.985156 0.980264 0.980047 0.985176 0.985218 0.979809 0.979604 0.985333
          0.99454 0.993226 0.993302 0.994607 0.963237 0.956581 0.9557 0.96258 0.949812 0.946459 0.945763 0.949018
          0.948099 0.944975 0.944275 0.947246 0.961731 0.954627 0.953626 0.960977 0.943548 0.942102 0.941724 0.943038
          0.940945 0.940393 0.940226 0.940698 0.940449 0.940058 0.939932 0.94025 0.942493 0.941323 0.940992 0.942014
          1 1 1 1 1 1 1 1 1 1 1 0.9999
          0.999848 0.999854 0.9999 0.997985 0.99759 0.997671 0.998038 0.99826 0.99792 0.998022 0.998325 0.9999
          0.99987 0.999874 0.999901 1 1 1 1 1 1 0.999981 0.999991 1
          0.998638 0.998376 0.99851 0.998714 0.999209 0.99908 0.99918 0.999258 1 1 1 1
          0.994756 0.993451 0.99359 0.994873 0.985529 0.979402 0.979217 0.985796 0.986242 0.979086 0.978986 0.98677
          0.99514 0.993867 0.994096 0.995311 0.959994 0.952403 0.951234 0.959071 0.946268 0.943495 0.942815 0.945355
          0.944329 0.942078 0.941467 0.943386 0.957851 0.949806 0.948401 0.956595 0.941511 0.940646 0.940381 0.941093
          0.940056 0.939808 0.93972 0.939908 0.93977 0.939636 0.93958 0.93967 0.940673 0.940117 0.939925 0.940339
          0.995725 0.994559 0.994961 0.996003 0.987681 0.979104 0.979397 0.988641 0.990445 0.980584 0.983182 0.992175
          0.996805 0.99588 0.996588 0.997213 0.954886 0.9467 0.94504 0.952933 0.942368 0.940839 0.94037 0.941484
          0.940617 0.939937 0.939679 0.939984 0.950132 0.943098 0.941363 0.946388 0.940026 0.939744 0.939631 0.939806
          0.939582 0.939528 0.939503 0.939531 0.939491 0.939479 0.939471 0.939474 0.939622 0.939533 0.939493 0.939529
          0.940593 0.940219 0.940098 0.940423 0.939904 0.939752 0.939697 0.939824 0.939742 0.93964 0.939603 0.939685
          0.940249 0.939972 0.939876 0.940111 0.939627 0.939572 0.939555 0.939598 0.939525 0.939507 0.939501 0.939514
          0.939506 0.939499 0.939497 0.9395 0.939571 0.93954 0.939525 0.939547 0.939498 0.939496 0.939494 0.939495
          0.939972 0.939779 0.939715 0.939872 0.939632 0.939569 0.939548 0.939595 0.939563 0.93953 0.939514 0.939535
          0.939777 0.939654 0.939604 0.939701 0.939522 0.939505 0.939498 0.939509 0.939496 0.939492 0.9395 0.939494
          0.939492 0.939494 0.939492 0.939495 0.939496 0.939494 0.939494 0.939498 0.939507 0.939504 0.939497 0.939549
          0.939629 0.939621 0.939544 0.939539 0.939613 0.939602 0.939532 0.939496 0.939503 0.9395 0.939495 0.939915
          0.940389 0.940386 0.939903 0.941779 0.943628 0.943789 0.941827 0.941884 0.943972 0.944148 0.941926 0.93989
          0.94038 0.940368 0.939873 0.939492 0.939492 0.939489 0.93949 0.939494 0.939498 0.939496 0.939493 0.939525
          0.939591 0.939578 0.939516 0.939505 0.939561 0.939545 0.939499 0.939493 0.939851 0.940349 0.940331 0.939835
          0.941972 0.944343 0.944521 0.941995 0.942002 0.944706 0.94487 0.941975 0.939813 0.9403 0.940249 0.939778
          0.939627 0.939554 0.939528 0.939579 0.939507 0.939496 0.939491 0.939494 0.939489 0.939535 0.939502 0.93949
          0.939509 0.93949 0.939488 0.939485 0.939485 0.939486 0.939491 0.939483 0.939478 0.93948 0.93948 0.939473
          0.939474 0.939479 0.939479 0.939473 0.939473 0.939479 0.939478 0.939472 0.939472 0.939486 0.93949 0.939497
          0.939538 0.939523 0.939493 0.93949 0.939513 0.939502 0.939487 0.939486 0.939741 0.940184 0.940109 0.939699
          0.94192 0.94503 0.945167 0.941828 0.941694 0.945282 0.945344 0.941511 0.939655 0.940021 0.939927 0.939614
          0.939478 0.939479 0.939472 0.939472 0.93948 0.939483 0.939493 0.939485 0.939479 0.939474 0.939477 0.939471
          0.939471 0.939473 0.939569 0.939819 0.939721 0.939537 0.941248 0.94531 0.945109 0.940935 0.9405 0.944521
          0.943163 0.940046 0.939506 0.93962 0.939537 0.939485 1 1 1 1 1 1
          1 1 1 1 1 1 1 1 1 1 1 1
          1 1 1 1 1 1 1 1 1 1 1 1
          0.999858 0.999724 1 0.9999 0.999631 0.999587 0.9999 1 1 1 1 0.935308
          0.925925 0.910531 0.917233 0.916108 0.908433 0.898043 0.903398 0.892247 0.888958 0.882675 0.884612 0.902313
          0.896998 0.888031 0.892529 1 1 1 1 1 1 1 1 0.9998
          0.999559 0.999545 0.9998 0.9997 0.999532 0.999524 0.9997 1 1 1 1 0.885212
          0.881052 0.876258 0.880267 0.87859 0.877675 0.87432 0.874418 0.870963 0.871633 0.869772 0.868357 0.876036
          0.872172 0.869018 0.872734 0.902009 0.89778 0.89151 0.893887 0.895402 0.894784 0.891776 0.890858 0.887332
          0.889767 0.889183 0.885374 0.886895 0.886196 0.882768 0.882082 0.89634 0.899346 0.8993 0.894881 0.904874
          0.91132 0.91382 0.906221 0.9087 0.917385 0.921481 0.911898 0.894537 0.90034 0.902401 0.895374 0.920547
          0.930174 0.934663 0.924212 0.942814 0.954004 0.958834 0.947867 0.953721 0.9643 0.968635 0.95886 0.928981
          0.940095 0.945314 0.933938 0.878442 0.880384 0.879248 0.876179 0.884494 0.889617 0.890963 0.884647 0.885585
          0.893049 0.895547 0.88704 0.874642 0.878817 0.879059 0.873817 0.897275 0.905424 0.908896 0.899836 0.916063
          0.926464 0.931399 0.920422 0.925498 0.936931 0.941898 0.930321 0.903164 0.913029 0.917171 0.906659 0.939728
          0.951168 0.956133 0.945053 0.964518 0.973528 0.976922 0.968934 0.973786 0.980976 0.983426 0.977178 0.950882
          0.961519 0.965632 0.955747 1 1 1 1 1 1 1 1 0.9997
          0.999515 0.999508 0.9997 0.9997 0.9995 0.999493 0.9997 1 1 1 1 0.869551
          0.866032 0.863489 0.866783 0.866015 0.868211 0.867097 0.864097 0.862278 0.866139 0.865457 0.860697 0.86394
          0.860923 0.858613 0.86132 1 1 1 1 1 1 1 1 0.9996
          0.999483 0.999476 0.9996 0.9996 0.999468 0.999461 0.9996 1 1 1 1 0.85855
          0.856207 0.853979 0.855928 0.859155 0.864882 0.864522 0.857781 0.856433 0.864271 0.864218 0.855218 0.853118
          0.851622 0.849389 0.850381 0.873413 0.87974 0.880767 0.873375 0.889029 0.898542 0.901622 0.891214 0.893803
          0.905062 0.908392 0.896417 0.873625 0.882106 0.88364 0.874089 0.910662 0.921797 0.926129 0.91452 0.935632
          0.947236 0.951665 0.940336 0.945369 0.956387 0.960082 0.949607 0.918784 0.930817 0.93501 0.922751 0.960938
          0.970153 0.973313 0.964954 0.98104 0.986672 0.988361 0.983495 0.986483 0.990815 0.991778 0.988198 0.969288
          0.976969 0.979347 0.972464 0.874807 0.88545 0.887378 0.87567 0.89938 0.912023 0.915486 0.902296 0.905554
          0.919264 0.922827 0.908715 0.876795 0.889586 0.891889 0.878052 0.927074 0.939494 0.943383 0.931019 0.95412
          0.964103 0.967124 0.957801 0.961785 0.970552 0.972996 0.964919 0.935298 0.947562 0.951076 0.939122 0.976036
          0.982331 0.984134 0.97851 0.990429 0.993325 0.993923 0.991538 0.993048 0.99509 0.995502 0.99374 0.981432
          0.986614 0.987944 0.983329 1 1 1 1 1 1 1 1 1
          1 1 1 1 1 1 1 1 1 1 1 1
          1 1 1 1 1 1 1 1 1 1 1 1
          1 1 1 1 1 1 1 1 1 0.9999 0.9999 0.999884
          0.999884 0.9999 0.9999 0.999884 0.999884 0.997813 0.997813 0.997806 0.997806 0.997813 0.997813 0.997806
          0.997806 0.9999 0.9999 0.999884 0.999884 0.9999 0.9999 0.999882 0.999882 0.997716 0.997715 0.997708
          0.997708 0.997813 0.997813 0.997806 0.997806 0.9999 0.9999 0.999882 0.999882 0.9999 0.9999 0.999882
          0.999882 0.997715 0.997715 0.997708 0.997708 0.997715 0.997715 0.997708 0.997708 1 1 1
          1 1 1 1 1 1 1 1 1 1 1 1
          1 1 1 1 1 1 1 1 1 1 1 1
          1 1 1 0.9999 0.9999 0.999882 0.999882 0.9999 0.9999 0.999882 0.999882 0.997715
          0.997715 0.997708 0.997708 0.997715 0.997715 0.997708 0.997708 0.9999 0.9999 0.999882 0.999882 0.9999
          0.9999 0.999882 0.999882 0.997715 0.997715 0.997708 0.997708 0.997715 0.997715 0.997708 0.997708 0.9999
          0.9999 0.999881 0.999882 0.9999 0.9999 0.999881 0.999881 0.997715 0.997715 0.997708 0.997708 0.997715
          0.997715 0.997708 0.997708 1 1 1 1 1 1 1 1 0.9996
          0.999453 0.999446 0.9996 0.9996 0.999438 0.99943 0.9996 1 1 1 1 0.84741
          0.846999 0.844704 0.844462 0.854039 0.864303 0.864597 0.852984 0.851996 0.865088 0.865832 0.851148 0.841228
          0.842233 0.839839 0.837955 1 1 1 1 1 1 1 1 0.9995
          0.99942 0.999412 0.9995 0.9995 0.999403 0.999393 0.9995 1 1 1 1 0.834322
          0.837254 0.834744 0.830574 0.85043 0.866871 0.868257 0.849912 0.849642 0.870095 0.872429 0.849698 0.82636
          0.832043 0.829439 0.821898 0.879611 0.89451 0.897217 0.881308 0.912242 0.926726 0.93037 0.915667 0.919508
          0.93438 0.938085 0.92324 0.883376 0.900299 0.903478 0.885623 0.943279 0.954915 0.95807 0.946937 0.968398
          0.97591 0.977915 0.971075 0.974163 0.980472 0.982144 0.976456 0.950954 0.961611 0.964434 0.954422 0.985696