<?xml version="1.0"?>
<VTKFile type="UnstructuredGrid" version="0.1" byte_order="LittleEndian">
  <UnstructuredGrid>
    <Piece NumberOfCells="4833" NumberOfPoints="5094">
      <CellData Scalars="Sn">
        <DataArray type="Float32" Name="Sn" NumberOfComponents="1" format="ascii">
          0 0 0 0 0 0 0 0 0 0 0 0
          0 0 0 0 0 0 0 0 0 0 0 0
          0 0 0 0 0 0 0 0 0 0 0 0
          0 0 0 0 0 0 0 0 0 0 0 0
          0 0 0 0 0 0 0 0 0 0 0 0
          0 0 0 0 0 0 0 0 0 0 0 0
          0 0 0 0 0 0 0 0 0 0 0 0
          -1.41529e-35 -4.78864e-36 0 0 0 0 0 0 0 0 0 0
          0 0 0 0 0 0 0 0 0 0 0 0
          0 0 0 0 0 0 0 0 0 0 0 0
          0 0 0 0 0 0 0 0 0 0 4.65258e-38 -6.78197e-32
          -5.81246e-28 -1.45066e-28 -9.0645e-36 0 0 0 0 0 0 0 0 0
          0 0 0 0 0 0 0 0 0 0 0 0
          0 0 0 0 0 0 0 0 0 0 0 0
          0 0 0 0 0 0 0 0 0 0 1.49973e-34 4.84793e-28
          2.64769e-21 9.00025e-23 -2.23944e-28 -6.7324e-36 0 0 0 0 0 0 0 0
          0 0 0 0 0 0 0 0 0 0 0 0
          0 0 0 0 0 0 0 0 0 0 0 0
          0 0 0 0 0 0 0 0 0 0 5.08549e-26 9.78565e-16
          3.37216e-12 5.69594e-13 9.72998e-23 -1.26264e-28 -2.46774e-36 0 0 0 0 0 0 0
          0 0 0 0 0 0 0 0 0 0 0 0
          0 0 0 0 0 0 0 0 0 0 0 0
          0 0 0 0 0 0 0 0 0 1.43664e-34 1.13783e-14 2.78393e-09
          1.99299e-07 7.86298e-08 4.78106e-13 1.11208e-22 -3.14484e-29 -4.55521e-37 0 0 0 0 0 0
          0 0 0 0 0 0 0 0 0 0 0 0
          0 0 0 0 0 0 0 0 0 0 0 0
          0 0 0 0 0 0 0 0 0 3.75897e-20 1.01531e-08 6.41492e-06
          6.41506e-06 7.83896e-06 6.45397e-06 6.00192e-05 6.00257e-05 6.64086e-05 6.67783e-05 3.71815e-05 3.71766e-05 4.0553e-05 4.10867e-05 5.43868e-08
          1.05546e-13 2.99079e-23 -3.21075e-30 -3.75605e-38 0 0 0 0 0 0 0 0
          0 0 0 0 0 0 0 0 0 0 0 0
          0 0 0 0 0 0 0 0 0 0 0 0
          0 0 0 0 0 1.79888e-26 3.99938e-11 1.27421e-05 1.27479e-05 1.60519e-05 1.27419e-05 9.36942e-05
          9.37005e-05 0.000100935 9.9809e-05 0.000547022 0.000548303 0.000605687 0.000603132 0.00248351 0.00250636 0.00280999 0.00276903 0.000883123
          0.00088507 0.00100139 0.000977646 0.00119788 0.00120186 0.00132769 0.00132216 0.0011821 0.00118157 0.0012667 0.00128594 0.00355908
          0.00353576 0.00392885 0.00402156 0.00382435 0.00384937 0.00430448 0.00426832 0.000960021 0.000957375 0.00098613 0.00115608 2.28776e-05
          2.07352e-05 2.12897e-05 2.32091e-05 9.38454e-09 3.1837e-15 1.71167e-26 -8.49593e-32 0 0 0 0 0
          0 0 0 0 0 0 0 0 0 0 0 0
          0 0 0 0 0 0 0 0 0 0 0 0
          0 0 0 0 0 0 0 0 3.0968e-14 3.49282e-07 3.49509e-07 4.65784e-07
          3.4928e-07 1.77761e-05 1.77766e-05 1.85362e-05 1.84169e-05 0.000769527 0.000777584 0.00085658 0.000847138 0.00297145 0.00303413 0.00358493
          0.00318166 0.000280374 0.000281054 0.000352248 0.000285545 0.00359294 0.00364433 0.00405028 0.00396596 0.00627008 0.00637862 0.00710996
          0.00695767 0.0119606 0.0122588 0.0137859 0.0131717 0.0076969 0.00792156 0.00913182 0.0083944 0.00839193 0.00848327 0.00944028
          0.0093189 0.00847146 0.0084247 0.00933715 0.0093958 0.0149061 0.0148043 0.0160792 0.0162413 0.0149813 0.0151687 0.0166628
          0.0164669 0.00628053 0.00607463 0.0065835 0.00684441 0.00281136 0.00265039 0.0027459 0.00296389 0.0049981 0.00462181 0.00493155
          0.00541351 0.0108905 0.0104358 0.011263 0.0118221 0.000396872 0.000383145 0.000384031 0.00048734 2.64532e-06 2.29448e-06 2.29457e-06
          2.56841e-06 1.24986e-10 7.80042e-19 -2.93639e-28 -8.21825e-36 0 0 0 0 0 0 0
          0 0 0 0 0 0 0 0 0 0 0 0
          0 0 0 0 0 0 0 0 0 0 0 0
          0 0 0 0 1.27182e-32 1.33356e-16 1.54912e-16 5.75866e-12 1.33357e-16 3.61273e-09 3.61273e-09 3.72018e-09
          3.70214e-09 0.000119784 0.000119917 0.000144606 0.000119853 0.000145532 0.00161186 0.0033094 0.0007944 2.76273e-06 2.7628e-06 3.46707e-06
          2.76259e-06 0.000914456 0.00273988 0.00492916 0.00219294 0.00579483 0.00872927 0.0128261 0.00878552 0.0128061 0.0171128 0.0214242
          0.0168687 0.00460213 0.00797981 0.0118082 0.00721444 0.0130829 0.0163678 0.0206676 0.0171809 0.0192555 0.0210878 0.0249906
          0.0234622 0.0278973 0.0297604 0.0337407 0.0321362 0.0215459 0.0250697 0.0293514 0.0258355 0.0230371 0.0231863 0.0250029
          0.0250052 0.022162 0.0218745 0.0233475 0.0237698 0.0294068 0.0286909 0.0301479 0.0316234 0.0310875 0.0311796 0.0334279
          0.0334531 0.016767 0.0160449 0.0170109 0.0178896 0.00909945 0.00844332 0.00891071 0.00970491 0.0130951 0.0120429 0.0125065
          0.0137083 0.0224935 0.0213797 0.0224221 0.0236995 0.00370585 0.00336427 0.00345373 0.00381598 0.000590247 0.000526648 0.00052767
          0.000589966 0.000837404 0.000722834 0.000730197 0.000849461 0.00512271 0.00458728 0.00468267 0.00526375 5.71881e-06 5.16533e-06 5.17011e-06
          6.22171e-06 5.40714e-10 1.19764e-17 6.05974e-31 -2.37898e-34 0 0 0 0 0 0 0
          0 0 0 0 0 0 0 0 0 0 0 0
          0 0 0 0 0 0 0 0 0 0 0 0
          0 0 0 0 6.36998e-22 5.09661e-12 7.5759e-11 6.76812e-10 1.81391e-07 2.75025e-05 6.77006e-10 5.15447e-12
          1.89164e-06 0.000271366 0.00123804 3.76096e-05 0.00250376 0.00586341 0.00906991 0.00471132 0.00747016 0.0129381 0.0167956 0.0108229
          0.000484647 0.00300744 0.00529176 0.00173021 0.0107982 0.0161035 0.0202987 0.0148099 0.0212403 0.025967 0.0302815 0.0255278
          0.0297407 0.0344925 0.0385425 0.0338163 0.0188494 0.0244712 0.0285516 0.0228618 0.0302908 0.0337799 0.0379613 0.0344772
          0.0366148 0.0386243 0.0428524 0.0408046 0.0450046 0.0469665 0.0507766 0.0489429 0.0386958 0.0421918 0.0461688 0.042666
          0.0397579 0.0399703 0.0438593 0.0438559 0.0383752 0.0344322 0.0369218 0.041847 0.0452632 0.0407239 0.0431297 0.0483046
          0.0477727 0.0475334 0.0509035 0.0514027 0.0279073 0.0264234 0.0275059 0.0293469 0.0166572 0.0151945 0.0155433 0.0172103
          0.0193962 0.0172629 0.0168149 0.0199509 0.0333963 0.031132 0.0315825 0.0352117 0.00647975 0.00574508 0.00577509 0.00654857
          0.00151998 0.00135373 0.00134765 0.00150992 0.00124414 0.00105474 0.00104788 0.00122066 0.00687576 0.00595565 0.00584453 0.00669358
          3.82597e-05 3.44178e-05 3.44108e-05 3.66449e-05 2.02528e-08 1.17535e-14 1.90028e-26 -1.07747e-33 0 0 0 0
          0 0 0 0 0 0 0 0 0 0 0 0
          0 0 0 0 0 0 0 0 0 0 0 0
          0 0 0 0 0 0 2.1753e-29 4.1734e-15 4.1734e-15 7.49645e-13 4.1734e-15 1.27136e-08
          2.43376e-08 0.000395624 0.00131495 5.82054e-06 0.000185237 0.00290313 0.00495413 0.00092542 1.11616e-06 1.11617e-06 1.36879e-06 1.11613e-06
          0.00358279 0.00804667 0.0113222 0.005709 0.0144262 0.0206509 0.024454 0.01802 0.0216683 0.0282108 0.0319116 0.0253102
          0.00828494 0.0147899 0.0183307 0.0113361 0.0268074 0.0325183 0.0363625 0.0306444 0.0377732 0.0424947 0.0462986 0.0416008
          0.0453348 0.0499996 0.0536163 0.0489867 0.0344085 0.0401202 0.0437977 0.0380988 0.0466483 0.0501613 0.0538671 0.0504134
          0.052864 0.054531 0.0580004 0.0564755 0.059938 0.0613236 0.0644473 0.063268 0.054063 0.0574394 0.0609087 0.0576238
          0.0549559 0.054188 0.0571028 0.0582041 0.051377 0.0467957 0.0487351 0.0538636 0.0559765 0.0500087 0.0506208 0.0575721
          0.0613102 0.059797 0.0620585 0.0641172 0.0402899 0.0320945 0.0319943 0.0411758 0.0225199 0.013044 0.0115177 0.0216998
          0.0206958 0.011119 0.00946384 0.0192106 0.0413646 0.0313864 0.0302764 0.0409847 0.00475257 0.00414207 0.004083 0.00455773
          0.000776238 0.000689633 0.000685968 0.000765037 0.000366829 0.00031251 0.000311876 0.000361494 0.00378228 0.00329762 0.0032551 0.00360547
          1.01931e-05 9.1917e-06 9.1911e-06 9.39357e-06 1.60353e-09 9.09902e-17 4.60117e-29 -6.77473e-36 0 0 0 0
          0 0 0 0 0 0 0 0 0 0 0 0
          0 0 0 0 0 0 0 0 0 0 0 0
          0 0 0 0 0 0 1.14524e-22 1.84526e-12 2.42073e-11 1.96419e-09 1.96419e-09 1.96419e-09
          1.96419e-09 1.84526e-12 7.23344e-07 0.000162445 0.000769814 7.50631e-07 0.00274035 0.00771237 0.0108573 0.0047726 0.00702905 0.0140721
          0.0172344 0.00957923 1.16255e-05 0.00191539 0.00323098 0.000137273 0.0148025 0.0219791 0.025559 0.0182735 0.0289714 0.0355822
          0.0391961 0.0325791 0.0361514 0.0427943 0.0464169 0.0397258 0.0216753 0.0290785 0.0325744 0.025037 0.0417486 0.0474303
          0.0510274 0.0453563 0.0525934 0.0571855 0.0607229 0.0561704 0.0597611 0.0642647 0.0678321 0.0633975 0.0489657 0.0546362
          0.0582942 0.0526162 0.0611275 0.0642995 0.0676121 0.0645856 0.0664814 0.0674093 0.070118 0.0695558 0.0724891 0.0725823
          0.074764 0.0752518 0.0680234 0.0708571 0.074021 0.0714456 0.0667147 0.0639923 0.0654364 0.0688882 0.0587472 0.0506999
          0.0502502 0.0592972 0.0592927 0.0492644 0.0476509 0.0586812 0.0706999 0.0664121 0.0668684 0.0721096 0.0401269 0.0288187
          0.0270504 0.0388403 0.017709 0.00894811 0.00735678 0.0157384 0.0138734 0.00655342 0.0051744 0.0117813 0.0370935 0.025016
          0.0226985 0.0348627 0.00276349 0.00241457 0.00238297 0.00260919 0.000272955 0.000247016 0.000246436 0.000269717 7.65132e-05 6.85941e-05
          6.85362e-05 7.53711e-05 0.00164988 0.00144507 0.00142847 0.00156237 1.40687e-06 1.2739e-06 1.27388e-06 1.28451e-06 3.63937e-11 6.49487e-20
          -4.52078e-31 3.37835e-38 0 0 0 0 0 0 0 0 0 0
          0 0 0 0 0 0 0 0 0 0 0 0
          0 0 0 0 0 0 0 0 0 0 0 0
          1.76727e-19 5.82002e-11 5.82352e-11 6.60721e-11 1.45755e-07 5.84108e-11 1.2212e-08 2.54488e-05 0.00023344 6.56816e-08 4.99937e-10 0.000931804
          0.00513175 0.00720812 0.00192836 0.0124347 0.0204246 0.0236403 0.0152968 0.0182179 0.0269374 0.0303974 0.0212585 0.0030993
          0.00957606 0.0121274 0.00445023 0.0284233 0.0361038 0.0397149 0.0318677 0.043352 0.0501092 0.0539185 0.0470802 0.0509677
          0.0578976 0.0621026 0.0550779 0.03543 0.043468 0.0474323 0.039185 0.0563488 0.0620374 0.0659008 0.0602061 0.0671078
          0.0714418 0.075098 0.0709148 0.0748354 0.0787948 0.082503 0.0788725 0.0642333 0.0699182 0.0741179 0.068476 0.0748534
          0.0770856 0.0800045 0.0782259 0.077804 0.0766069 0.0780248 0.0800754 0.0819815 0.0789145 0.0791485 0.0834078 0.0815301
          0.0827163 0.0851271 0.0847025 0.0730467 0.0667302 0.0658982 0.0734136 0.0574071 0.0454388 0.042533 0.0553837 0.0525732
          0.0390365 0.0349504 0.0489386 0.0730975 0.0642724 0.0617528 0.0719713 0.0321836 0.020197 0.0174268 0.0290524 0.0101185
          0.00469111 0.00375999 0.00833436 0.00667672 0.00278231 0.00198111 0.00520995 0.0255585 0.0144375 0.0115331 0.0218642 0.00168988
          0.000272776 7.96257e-05 0.0010305 3.2786e-06 3.09468e-06 3.0945e-06 3.10214e-06 1.3262e-07 0.000529645 2.58358e-05 9.60987e-06 0.000200109
          3.20383e-10 2.9065e-10 2.9065e-10 2.90665e-10 4.03978e-18 -4.95473e-31 0 0 0 0 0 0
          0 0 0 0 0 0 0 0 0 0 0 0
          0 0 0 0 0 0 0 0 0 0 0 0
          0 0 0 0 0 3.72253e-22 4.24587e-12 4.24587e-12 1.76867e-11 4.24587e-12 9.54247e-07 1.07574e-05
          0.000869119 0.00140226 2.98003e-05 0.000218101 0.0021007 0.00247006 0.000221547 9.50616e-07 9.50645e-07 9.49906e-07 9.49128e-07 0.00603142
          0.0148462 0.017765 0.00783943 0.0245392 0.0341208 0.0382004 0.0281324 0.032181 0.0427622 0.0479501 0.0368152 0.0101199
          0.0210728 0.0248334 0.0126738 0.0432212 0.0516875 0.0563211 0.0476316 0.0594825 0.0665943 0.0714341 0.0642592 0.0694936
          0.076679 0.0823656 0.0752728 0.0525304 0.0614359 0.0671502 0.0580539 0.0729777 0.0785172 0.0831103 0.0777729 0.0830073
          0.0861614 0.0896652 0.0871838 0.0912925 0.0928584 0.0955359 0.0951537 0.0828739 0.08785 0.0926198 0.0882452 0.087643
          0.0871101 0.0885095 0.0902114 0.0842148 0.0785857 0.0770754 0.0842447 0.0833332 0.0744774 0.0706766 0.0813202 0.092231
          0.0891498 0.0888497 0.093502 0.069908 0.0582682 0.0537865 0.0667914 0.0445202 0.030472 0.0256224 0.039376 0.0336907
          0.020672 0.0157784 0.0277079 0.0625489 0.0483632 0.0421558 0.0571805 0.0180583 0.00863804 0.00645634 0.014113 0.00368436
          0.00102254 0.000305479 0.0023732 0.00138824 0.000124345 9.85887e-06 0.000608848 0.0104897 0.00468542 0.0032157 0.0075163 3.91613e-05
          3.53388e-05 3.53228e-05 3.55572e-05 4.70092e-08 6.62611e-10 5.60912e-07 5.26314e-07 5.26311e-07 5.26397e-07 9.12595e-14 7.24537e-25 -1.06499e-35
          0 0 0 0 0 0 0 0 0 0 0 0
          0 0 0 0 0 0 0 0 0 0 0 0
          0 0 0 0 0 0 0 0 0 0 0 0
          0 0 0 0 1.68341e-21 1.68341e-21 1.68341e-21 1.68341e-21 0.000258734 0.00261654 0.00252488 0.000438678
          0.000650758 0.00212465 0.00088397 0.00049944 1.68423e-21 1.68423e-21 1.69603e-21 1.68791e-21 0.0155451 0.0292776 0.0348516 0.0191204
          0.0422688 0.0539754 0.061149 0.0489366 0.0574676 0.0698957 0.0806502 0.0688593 0.0241897 0.0424163 0.0538391 0.032987
          0.0643805 0.0735988 0.0809117 0.0717358 0.0816685 0.088475 0.0948655 0.0886874 0.0961545 0.10117 0.106931 0.103529
          0.0803533 0.0891292 0.0979788 0.090291 0.0937603 0.0972036 0.101296 0.0991464 0.0985167 0.0974687 0.0984383 0.101136
          0.102769 0.0982238 0.0966275 0.103159 0.104037 0.104636 0.106934 0.108121 0.0938251 0.0874375 0.0847607 0.0930086
          0.0780679 0.0656209 0.05936 0.0734822 0.067557 0.0520989 0.0442023 0.0604252 0.0908851 0.0807057 0.0752317 0.0873407
          0.0508016 0.0354347 0.0285909 0.0436688 0.0217222 0.0111446 0.00748604 0.0160865 0.0111331 0.00496055 0.00294338 0.00739691
          0.0361775 0.0220294 0.0160705 0.0287732 0.00508765 0.00187221 0.000599785 0.00303687 0.000151311 0.00013761 0.000137393 0.00013823
          1.62257e-06 1.52466e-06 1.52461e-06 1.527e-06 0.00158961 0.000213301 4.55785e-05 0.000578301 4.23357e-07 3.84039e-07 3.84037e-07 3.84043e-07
          2.90123e-12 4.36982e-22 7.80213e-37 0 0 0 0 0 0 0 0 0
          0 0 0 0 0 0 0 0 0 0 0 0
          0 0 0 0 0 0 0 0 0 0 0 0
          0 0 0 1.32608e-24 2.36395e-12 1.73283e-10 0.000189481 0.000300907 7.87616e-10 2.64158e-05 0.000372554 0.000373841
          2.78081e-05 2.50742e-11 0.0622664 0.0733402 0.0906737 0.0824478 0.0839035 0.0932368 0.105307 0.0985707 0.110649 0.115107
          0.12252 0.119635 0.0981723 0.10503 0.11537 0.109246 0.100909 0.106559 0.113982 0.110488 0.110195 0.111748
          0.115227 0.115631 0.119484 0.117111 0.117338 0.121649 0.11822 0.119763 0.123766 0.123968 0.111054 0.107901
          0.107318 0.112533 0.102088 0.093533 0.0889603 0.0994386 0.0952515 0.0830307 0.0759666 0.0897487 0.112383 0.105106
          0.101362 0.110607 0.0823421 0.0684221 0.0605354 0.0759606 0.052401 0.0361502 0.0284401 0.0439659 0.0356748 0.0214812
          0.0155128 0.0280189 0.0684179 0.0520182 0.0434331 0.0601061 0.0218777 0.0109961 0.00730585 0.0157923 0.0048695 0.00152698
          0.000583648 0.00293074 0.00151119 0.000225359 7.41958e-05 0.000543921 0.010743 0.00481468 0.00284132 0.0071599 0.000135149 1.47262e-06
          2.90609e-07 9.33309e-06 7.14143e-09 7.03256e-09 1.92023e-06 1.82024e-06 1.82017e-06 1.82246e-06 6.17006e-15 5.03209e-27 -6.16117e-38 0
          0 0 0 0 0 0 0 0 0 0 0 0
          0 0 0 0 0 0 0 0 0 0 0 0
          0 0 0 0 0 0 0 0 0 0 0 1.51746e-30
          1.4103e-14 4.9312e-12 2.15226e-12 1.4103e-14 5.37078e-06 5.6818e-06 5.61995e-06 5.3706e-06 0.00045191 0.000454869 0.000455996 0.000453791
          0.000558346 0.00056132 0.000561136 0.000557561 5.37076e-06 6.23719e-06 6.15663e-06 5.37052e-06 0.11716 0.122847 0.128396 0.123024
          0.126221 0.127903 0.131715 0.13107 0.134725 0.134379 0.13623 0.137583 0.127578 0.132688 0.136192 0.13133
          0.127925 0.126113 0.127058 0.130419 0.122224 0.116024 0.113409 0.121437 0.119564 0.109788 0.105453 0.116873
          0.13179 0.12689 0.125875 0.132326 0.107375 0.0963368 0.0903924 0.102975 0.08323 0.068101 0.0598703 0.0759894
          0.0683571 0.0517357 0.0440835 0.0606852 0.0977419 0.0838789 0.0770309 0.0919997 0.0515427 0.0353164 0.028048 0.0432558
          0.0213266 0.01073 0.00736684 0.0157048 0.0112179 0.00515457 0.00345676 0.00797551 0.0356539 0.0218131 0.0166148 0.0289601
          0.00483378 0.00154627 0.000648908 0.00305101 0.00012746 2.95651e-06 2.12757e-06 1.07096e-05 1.85879e-06 1.77213e-06 1.77207e-06 1.77233e-06
          0.00173776 0.000224677 2.05152e-05 0.000768089 6.2463e-10 1.21024e-10 1.21024e-10 1.33346e-10 1.57247e-18 9.09892e-35 0 0
          0 0 0 0 0 0 0 0 0 0 0 0
          0 0 0 0 0 0 0 0 0 0 0 0
          0 0 0 0 0 0 0 0 0 0 0 0
          0 2.59536e-15 3.77347e-16 0 1.83073e-07 1.83073e-07 1.83073e-07 1.83073e-07 0.000277745 0.000485314 0.000492088 0.000278421
          0.000427522 0.000499152 0.000504846 0.00042695 1.83073e-07 4.68942e-07 4.18563e-07 1.83073e-07 0.134634 0.139217 0.141951 0.137688
          0.139918 0.137508 0.13837 0.141901 0.143637 0.138915 0.139202 0.145188 0.14063 0.144513 0.146969 0.143533
          0.132245 0.124227 0.122104 0.131699 0.113589 0.100651 0.0955742 0.109887 0.105897 0.0903778 0.0851409 0.101704
          0.130788 0.119618 0.116842 0.129577 0.0860184 0.0700736 0.0632207 0.0799242 0.0532898 0.0371575 0.0310557 0.0464008
          0.040146 0.0257715 0.0212495 0.0345648 0.0738296 0.056651 0.0504862 0.0678316 0.0232306 0.0123963 0.00915263 0.0184094
          0.00586324 0.00222835 0.0012237 0.00423149 0.00296742 0.000677193 0.000157026 0.00188164 0.0143627 0.00695646 0.00532105 0.0111037
          0.000307381 1.6071e-05 1.0386e-05 5.80251e-05 3.34389e-08 1.6869e-08 1.57185e-05 1.46281e-05 1.46249e-05 1.46581e-05 7.51022e-14 3.80541e-25
          0 0 0 0 0 0 0 0 0 0 0 0
          0 0 0 0 0 0 0 0 0 0 0 0
          0 0 0 0 0 0 0 0 0 0 0 0
          0 0 0 0 2.20547e-16 0 0 7.76014e-08 7.76014e-08 7.76014e-08 7.76014e-08 0.000102599
          0.000512093 0.000519438 0.000103205 0.000274261 0.000531663 0.000551771 0.00027409 7.76014e-08 7.76014e-08 7.76014e-08 7.76014e-08 0.146461
          0.149362 0.151714 0.149442 0.14659 0.139267 0.139129 0.147862 0.149017 0.138798 0.138275 0.150059 0.152509
          0.154036 0.156329 0.155638 0.128104 0.113827 0.110604 0.126393 0.0973686 0.0798896 0.0746562 0.0929362 0.0884337
          0.0694607 0.0643203 0.0838441 0.124455 0.107189 0.103582 0.122289 0.0620139 0.0447891 0.0395722 0.0564343 0.0296355
          0.0173968 0.014103 0.025301 0.0214952 0.0113882 0.00920958 0.0181342 0.0511212 0.0348136 0.0304715 0.0460813 0.00863297
          0.00405967 0.00297692 0.00690172 0.00116935 0.000106033 2.67565e-05 0.000569827 0.000269932 3.99554e-06 7.33378e-07 8.70135e-05 0.00558637
          0.00214414 0.00145011 0.00450893 4.62212e-07 4.46216e-07 4.46212e-07 4.46213e-07 8.55608e-09 8.547e-09 9.30896e-09 7.80356e-15 6.06765e-27
          0 0 0 0 0 0 0 0 0 0 0 0
          0 0 0 0 0 0 0 0 0 0 0 0
          0 0 0 0 0 0 0 0 0 -1.9256e-35 0 4.61475e-34
          -1.09335e-36 2.30224e-24 5.51125e-33 1.07155e-21 2.37467e-10 2.35052e-05 0.000585002 0.000565697 2.26573e-05 5.81829e-05 0.00057275 0.000550319
          5.74479e-05 1.14704e-10 0.158739 0.158594 0.160852 0.161601 0.150994 0.137554 0.136621 0.151829 0.152556 0.135444
          0.133977 0.153144 0.164808 0.163194 0.165616 0.16823 0.119886 0.099781 0.0957749 0.117227 0.0791595 0.0592488
          0.0542541 0.0743738 0.0694803 0.0493432 0.044527 0.0644779 0.114281 0.0915529 0.0870933 0.111011 0.0413067 0.0264989
          0.0228552 0.0367828 0.015126 0.00759298 0.00629323 0.0124707 0.010194 0.00518038 0.00417145 0.0083382 0.0324961 0.019504
          0.0164113 0.0284415 0.0036002 0.000972894 0.000493559 0.00275619 3.59116e-05 4.48217e-06 4.43008e-06 5.1804e-06 3.77882e-06 3.66178e-06
          3.66152e-06 3.66162e-06 0.00203689 0.000334154 8.2337e-05 0.0013251 1.47843e-09 4.34431e-10 4.34431e-10 4.63186e-10 1.55187e-17 4.77072e-35
          0 0 0 0 0 0 0 0 0 0 0 0
          0 0 0 0 0 0 0 0 0 0 0 0
          6.19312e-36 4.09815e-30 1.20107e-35 -8.39754e-35 3.14574e-34 -1.92782e-38 1.07331e-35 7.25119e-34 1.37504e-31 5.4933e-23 6.47407e-26 3.01573e-19
          3.04133e-23 2.74092e-12 9.59364e-17 2.67533e-23 2.67533e-23 1.50992e-22 1.30001e-22 2.57018e-16 2.57018e-16 2.57018e-16 2.57018e-16 0.000131195
          0.000575107 0.000593966 0.000131598 0.000167464 0.000608776 0.000624747 0.000167486 4.11359e-16 4.11359e-16 4.48862e-15 3.35116e-15 0.172281
          0.168128 0.170653 0.176545 0.153547 0.132167 0.129956 0.15371 0.153575 0.127278 0.124047 0.153069 0.181033
          0.173174 0.17568 0.185849 0.107374 0.082366 0.0773556 0.10333 0.0593784 0.0398231 0.0352524 0.054202 0.0489723
          0.0308361 0.0265917 0.0437123 0.0988388 0.072052 0.0664457 0.0938516 0.0246248 0.0135848 0.0110962 0.0210557 0.00691112
          0.00329839 0.00245653 0.00569701 0.00465788 0.0017418 0.00111514 0.00373263 0.0177358 0.00901979 0.00743447 0.0146501 0.000860975
          5.5118e-05 8.72961e-06 0.000407084 1.73374e-07 3.30473e-08 0.000178308 1.59137e-06 3.37248e-07 4.70355e-05 1.13862e-12 4.22081e-23 0
          0 0 0 0 0 0 0 0 0 0 0 0
          0 0 0 0 0 0 0 0 0 0 1.59858e-34 3.1912e-23
          1.47668e-17 1.47668e-17 3.35423e-16 1.52545e-17 3.8777e-15 3.8777e-15 1.30902e-13 6.19425e-15 2.92758e-19 2.92758e-19 7.78896e-18 1.48965e-17
          2.28342e-18 2.28342e-18 1.41309e-17 1.87722e-17 1.80373e-18 1.80373e-18 1.47291e-17 1.03845e-17 1.12777e-18 1.12777e-18 1.16384e-17 9.0515e-18
          2.09091e-18 2.09091e-18 2.118e-17 1.78068e-17 1.41448e-18 1.41448e-18 1.52993e-17 1.3515e-17 4.99452e-16 4.99452e-16 8.73633e-16 1.66822e-14
          8.08927e-12 8.08927e-12 3.96224e-10 4.55781e-10 3.09384e-13 3.09384e-13 8.56142e-13 9.98146e-12 5.18132e-10 5.18132e-10 1.48033e-08 1.50248e-08
          6.0106e-12 6.0106e-12 2.6608e-09 1.12036e-10 1.19308e-06 1.19309e-06 3.99389e-06 3.99193e-06 7.04062e-05 7.32921e-05 3.92609e-06 3.92438e-06
          7.23126e-05 6.54368e-05 7.71767e-09 7.71557e-09 1.97696e-08 1.97696e-08 2.64162e-07 3.00422e-07 2.20684e-08 2.20266e-08 3.15086e-07 4.63359e-07
          9.59928e-12 9.59923e-12 1.02178e-10 1.83786e-10 2.60938e-08 3.37044e-06 0.000650721 0.000774854 6.86323e-06 7.48943e-05 0.000658933 0.000833606
          8.21444e-05 7.90514e-08 7.90511e-08 1.163e-06 1.06526e-06 0.191067 0.178147 0.180525 0.196625 0.152086 0.120154 0.11545
          0.150467 0.147975 0.109742 0.102794 0.144265 0.203265 0.182745 0.184561 0.210805 0.0883132 0.0605278 0.0543003
          0.0821417 0.0384461 0.022537 0.0186813 0.0332021 0.0280196 0.0150236 0.0116737 0.0229552 0.0752512 0.0477797 0.0409996
          0.0675611 0.0118667 0.00613191 0.00498188 0.00945267 0.00289694 0.000665232 0.000294789 0.00210638 0.00139367 0.000149838 9.32494e-06
          0.00070837 0.00755558 0.00392201 0.00291288 0.00600775 1.45294e-05 3.76104e-07 3.65677e-07 4.53114e-07 6.30087e-10 6.08126e-10 7.58304e-07
          7.43539e-07 7.43525e-07 7.43529e-07 1.09317e-16 2.04443e-30 0 0 0 0 0 0 0
          0 0 0 0 0 0 0 0 0 0 0 0
          0 0 0 1.67684e-22 3.42243e-18 5.97792e-17 9.84887e-09 1.17594e-08 4.97509e-05 2.695e-07 5.93665e-13 1.3699e-12
          3.65999e-11 8.24422e-06 1.26698e-05 0.000923225 0.000842841 3.577e-07 3.53402e-06 0.000728841 0.000370472 2.90947e-09 2.02128e-08 2.02128e-08
          2.51364e-07 2.04413e-07 0.000205216 0.000210849 0.00115022 0.0010891 1.86548e-05 2.35498e-05 0.00104172 0.000988334 5.03085e-08 5.03085e-08
          5.69952e-08 5.46614e-08 3.03092e-07 3.03088e-07 6.89479e-06 6.89739e-06 0.000588032 0.000592597 0.00136767 0.00132012 7.25563e-05 8.49616e-05
          0.0012682 0.0012114 6.28451e-09 6.28449e-09 1.48784e-08 1.46298e-08 3.37816e-09 3.37816e-09 1.43207e-07 1.33247e-07 0.000177242 0.000183849
          0.00151896 0.00148677 9.06696e-05 9.12964e-05 0.00145091 0.0014113 6.15295e-09 6.15295e-09 2.65161e-08 2.28208e-08 5.09142e-09 5.09142e-09
          3.70251e-08 3.23184e-08 0.000119104 0.000123935 0.00161815 0.0015972 0.00010453 0.00011259 0.00157385 0.00154794 3.98428e-09 3.98428e-09
          4.74327e-08 4.27107e-08 4.54693e-09 4.54693e-09 5.56346e-08 5.26029e-08 0.000137297 0.000140204 0.00168373 0.00166972 0.000129141 0.000133134
          0.00165421 0.00163714 3.35471e-09 3.35471e-09 6.56853e-08 6.11142e-08 3.65006e-09 3.65006e-09 7.48302e-08 7.12983e-08 0.000150486 0.000153083
          0.00173004 0.00171956 0.000143975 0.000146907 0.00170844 0.00169663 4.33183e-09 4.33183e-09 8.51241e-08 8.15979e-08 4.70205e-09 4.70205e-09
          9.38675e-08 9.08514e-08 0.000162633 0.000164648 0.00176949 0.00175989 0.000156985 0.000159437 0.00175011 0.00174026 3.57222e-09 3.57223e-09
          1.04893e-07 1.00819e-07 3.68028e-09 3.68028e-09 1.11704e-07 1.09527e-07 0.000172042 0.000173657 0.00180718 0.00179799 0.00016794 0.000169914
          0.00178856 0.00177913 8.96259e-08 8.9629e-08 4.09676e-06 3.85407e-06 1.28035e-08 1.28043e-08 1.1423e-06 7.78552e-07 0.000301594 0.000358267
          0.00184238 0.00183393 0.000491908 0.000495011 0.00182518 0.00181634 1.11066e-05 1.11108e-05 0.000107518 0.0001019 1.03636e-05 1.03626e-05
          8.82973e-05 8.92557e-05 0.00130289 0.0012921 0.00187516 0.00186714 0.00133871 0.0013864 0.00185897 0.00185082 1.75601e-06 1.75509e-06
          5.36612e-05 5.51998e-05 4.2683e-07 4.2698e-07 1.42381e-05 1.33688e-05 0.000732655 0.000765681 0.00190857 0.00189996 0.00114622 0.00112569
          0.00189151 0.00188335 5.71512e-05 5.71677e-05 0.000182214 0.000176224 5.65593e-05 5.65541e-05 0.000170766 0.000171002 0.00154233 0.00153775
          0.00194616 0.00193651 0.00154219 0.00158597 0.00192688 0.00191764 5.47215e-06 5.4583e-06 0.000112733 0.00011362 4.24687e-06 5.3986e-05
          0.000134996 7.95493e-05 0.00132613 0.00134531 0.00197922 0.00197277 0.00149276 0.00148258 0.00196484 0.00195583 0.00125053 0.00129588
          0.0013895 0.00133887 0.00129587 0.00125626 0.00133777 0.00138031 0.00175364 0.00174049 0.00200647 0.00199999 0.00179913 0.00182503
          0.00199262 0.00198549 0.000201699 0.000153404 0.000264275 0.000313304 0.000151187 0.000151106 0.00025346 0.000253939 0.00155536 0.00154814
          0.00201684 0.00201578 0.00160637 0.00159536 0.00201417 0.00201121 6.50799e-06 6.34587e-06 9.86592e-05 0.000100124 4.55254e-06 4.79922e-06
          5.57624e-05 5.40023e-05 0.00117157 0.00119195 0.00198392 0.00200295 0.00145346 0.00143602 0.00201327 0.0020171 0.000268537 0.000268987
          0.000415332 0.000409334 0.000270321 0.000694263 0.000718979 0.000401564 0.00176585 0.00167866 0.00178431 0.00187559 0.00180121 0.0018332
          0.00192016 0.00195562 0.219559 0.185613 0.185227 0.229986 0.138842 0.0943097 0.0839148 0.130946 0.119403 0.0711395
          0.0553138 0.102081 0.242709 0.182052 0.173011 0.258734 0.0589954 0.0340128 0.0269006 0.0494913 0.0180666 0.00880563
          0.00663657 0.0134099 0.00925139 0.00478106 0.00304278 0.00611885 0.0390427 0.019793 0.012858 0.0277244 0.00464696 0.0019916
          0.00112542 0.00338189 0.000307934 8.92676e-06 4.48416e-06 5.82255e-05 9.89118e-06 3.52186e-06 3.50955e-06 3.51278e-06 0.00217969 0.000477767
          7.46926e-05 0.00103128 7.31133e-09 9.39592e-10 9.39587e-10 1.95254e-09 2.14672e-16 7.88967e-30 0 0 0 0
          0 0 0 0 0 0 0 0 0 0 0 0
          0 0 0 0 0 1.5084e-22 1.13985e-12 6.62834e-12 1.13985e-12 1.13985e-12 2.56018e-07 2.56019e-07
          2.55923e-07 2.55901e-07 0.000215454 0.00217946 8.96271e-06 8.9217e-06 2.76244e-10 2.76172e-10 0.00572152 0.0159206 5.16552e-06 4.60199e-06
          0.042468 0.0757427 0.00291802 0.0010067 7.8032e-05 0.00126228 0.00117862 3.70627e-06 1.74934e-07 1.74934e-07 1.74937e-07 1.74936e-07
          0.114214 0.156332 0.00968062 0.0057101 0.200923 0.24751 0.0302337 0.0177239 0.00965035 0.0174002 0.0167805 0.00932853
          0.00356627 0.00602526 0.00581677 0.00341961 0.294487 0.340094 0.0598635 0.0444527 0.382818 0.422075 0.0959465 0.0768316
          0.0395139 0.0461403 0.0420516 0.0366965 0.0250588 0.0324669 0.0306169 0.0239176 0.457303 0.488123 0.141577 0.117572
          0.514694 0.537417 0.196814 0.168058 0.0638668 0.0693837 0.0564543 0.0537862 0.0523576 0.0582319 0.0505489 0.0466588
          0.556806 0.573347 0.258918 0.227349 0.587499 0.599625 0.321535 0.290626 0.0864473 0.0926319 0.0632509 0.0619632
          0.0749089 0.0805624 0.0604528 0.0586455 0.610043 0.618978 0.377581 0.350759 0.626665 0.633295 0.422838 0.401617
          0.112501 0.119201 0.0670639 0.0662656 0.0991119 0.10577 0.0653713 0.0643738 0.639092 0.644232 0.458313 0.441551
          0.648916 0.653278 0.488455 0.473764 0.139885 0.147961 0.0700178 0.0691982 0.125856 0.132642 0.0684716 0.0677832
          0.657447 0.661466 0.516952 0.502781 0.665397 0.669232 0.544947 0.531031 0.181121 0.196359 0.0753271 0.0735769
          0.157266 0.168192 0.0721512 0.0709857 0.672984 0.676605 0.571555 0.558537 0.680088 0.683387 0.59488 0.583746
          0.25557 0.277742 0.0862725 0.0830493 0.21405 0.233998 0.080058 0.0774741 0.686514 0.689435 0.61366 0.604853
          0.692192 0.694778 0.628181 0.621396 0.33898 0.356036 0.0976054 0.0954056 0.299491 0.320057 0.092638 0.08953
          0.697245 0.699579 0.639392 0.634147 0.70183 0.703995 0.648068 0.644012 0.395489 0.404741 0.0957993 0.0982757
          0.371146 0.384295 0.0992884 0.0989867 0.70613 0.708219 0.654727 0.651627 0.710319 0.712423 0.65974 0.657421
          0.42138 0.42347 0.07326 0.0802948 0.412093 0.417614 0.0866007 0.0918545 0.714583 0.716761 0.663368 0.661723
          0.718985 0.721184 0.665501 0.66466 0.42042 0.416195 0.0441779 0.0510047 0.423973 0.422957 0.0583133 0.0658304
          0.72332 0.725214 0.66488 0.665702 0.726751 0.727796 0.657847 0.662488 0.385573 0.363754 0.0205328 0.0260792
          0.409794 0.400174 0.0318179 0.0378313 0.728533 0.729241 0.640342 0.65048 0.729812 0.72998 0.610756 0.627262
          0.259551 0.219865 0.00519391 0.00666475 0.333742 0.298101 0.009002 0.0141612 0.729537 0.728416 0.565878 0.590345
          0.726697 0.72449 0.505565 0.537563 0.113137 0.0867218 0.0015908 0.00228787 0.180917 0.144695 0.00309161 0.00403926