<?xml version="1.0"?>
<VTKFile type="UnstructuredGrid" version="0.1" byte_order="LittleEndian">
  <UnstructuredGrid>
    <Piece NumberOfCells="5448" NumberOfPoints="5705">
      <CellData Scalars="S_w">
        <DataArray type="Float32" Name="S_w" NumberOfComponents="1" format="ascii">
          1 1 1 1 1 1 1 1 1 1 1 1
          1 1 1 1 1 1 1 1 1 1 1 1
          1 1 1 1 1 1 1 1 1 1 1 1
          1 1 1 1 1 1 1 1 1 1 1 1
          1 1 1 1 1 1 1 1 1 1 1 1
          1 1 1 1 1 1 1 1 1 1 1 1
          1 1 1 1 1 1 1 1 1 1 1 1
          1 1 1 1 1 1 1 1 1 1 1 1
          1 1 1 1 1 1 1 1 1 1 1 1
          1 1 1 1 1 1 1 1 1 1 1 1
          1 1 1 1 1 1 1 1 1 1 1 1
          1 1 1 1 1 1 1 1 1 1 1 1
          1 1 1 1 1 1 1 1 1 1 1 1
          1 1 1 1 1 1 1 1 1 1 1 1
          1 1 1 1 1 1 1 1 1 1 1 1
          1 1 1 1 1 1 1 1 1 1 1 1
          1 1 1 1 1 1 1 1 1 1 1 1
          1 1 1 1 1 1 1 1 1 1 1 1
          1 1 1 1 1 1 1 1 1 1 1 1
          1 1 1 1 1 1 1 1 1 1 1 1
          1 1 1 1 1 1 1 1 1 1 1 1
          1 1 1 1 1 1 1 1 1 1 1 1
          1 1 1 1 1 1 1 1 1 1 1 1
          1 1 1 1 1 1 1 1 1 1 1 1
          1 1 1 1 1 1 1 1 1 1 1 1
          1 1 1 1 1 1 1 1 1 1 1 1
          1 1 1 1 1 1 1 1 1 1 1 1
          1 1 1 1 1 1 1 1 1 1 1 1
          1 1 1 1 1 1 1 1 1 1 1 1
          1 1 1 1 1 1 1 1 1 1 1 1
          1 1 1 1 1 1 1 1 1 1 1 1
          1 1 1 1 1 1 1 1 1 1 1 1
          1 1 1 1 1 1 1 1 1 1 1 1
          1 1 1 1 1 1 1 1 1 1 1 1
          1 1 1 1 1 1 1 1 1 1 1 1
          1 1 1 1 1 1 1 1 1 1 1 1
          1 1 1 1 1 1 1 1 1 1 1 1
          1 1 1 1 1 1 1 1 1 1 1 1
          1 1 1 1 1 1 1 1 1 1 1 1
          1 1 1 1 1 1 1 1 1 1 1 1
          1 1 1 0.999975 0.999977 1 1 0.999994 0.999995 1 1 1
          1 0.999999 0.999999 1 1 1 0.999999 0.999999 1 1 0.999937 0.999953
          0.999302 0.999194 0.998291 0.998668 0.999898 0.999896 0.999782 0.99982 0.99978 0.999766 0.99935 0.999472
          0.999518 0.999489 0.998775 0.998901 0.997032 0.996789 0.994856 0.99526 0.998053 0.997738 0.996188 0.99679
          1 1 1 1 1 1 1 1 1 1 1 1
          1 1 1 1 1 1 1 1 1 1 1 1
          1 1 1 1 1 1 1 1 1 1 1 1
          1 1 1 1 1 1 1 1 1 1 1 1
          1 1 1 1 1 1 1 1 1 1 1 1
          1 1 1 1 0.999999 0.999998 1 1 0.999985 0.999984 1 1
          1 1 1 0.999597 0.999615 0.998963 0.998887 0.999872 0.999891 0.999672 0.999495 0.997968
          0.998438 0.997077 0.996253 0.996893 0.997034 0.995122 0.994919 0.999999 1 0.999995 0.999977 1
          0.999998 1 0.999999 0.999974 0.999563 0.999769 0.999417 0.998698 1 1 1 1
          1 1 1 1 1 1 1 1 1 1 1 1
          1 1 1 1 1 1 1 1 1 1 1 1
          1 1 1 1 1 1 1 1 1 1 1 1
          1 1 1 1 1 1 1 1 1 1 1 1
          1 1 1 1 1 1 1 1 1 1 1 1
          1 1 1 1 1 1 1 1 1 0.999938 0.999971 1
          1 1 1 1 0.999899 0.999898 0.999818 0.999843 0.999205 0.999057 0.998137 0.998602
          1 1 0.999987 0.99999 0.999059 0.99887 0.997793 0.998318 0.996827 0.996153 0.994247 0.995314
          0.99261 0.991141 0.98825 0.990183 0.99638 0.995522 0.993603 0.994912 0.994319 0.993454 0.990839 0.992058
          0.992264 0.991695 0.988654 0.989384 0.985523 0.984748 0.981477 0.982308 0.988473 0.987012 0.983851 0.985474
          0.999676 0.999637 0.999114 0.999358 0.996837 0.996037 0.994312 0.995566 0.993175 0.991442 0.98892 0.991309
          0.997961 0.99745 0.996118 0.997043 0.992291 0.990473 0.987701 0.990018 0.986583 0.984464 0.981408 0.983745
          0.980023 0.977569 0.974514 0.9771 0.986595 0.984044 0.981159 0.983983 0.98158 0.97986 0.976667 0.978485
          0.978322 0.977479 0.974253 0.975112 0.971313 0.970471 0.967381 0.968206 0.974682 0.972831 0.969709 0.971611
          1 1 1 1 1 1 1 1 1 0.999453 0.999223 0.99854
          0.999024 0.997481 0.996818 0.995474 0.996573 1 0.999999 0.999928 0.999996 1 1 1
          1 1 1 1 1 0.999999 1 1 0.999789 0.999451 0.998993 0.999575
          0.994639 0.993094 0.991267 0.993405 0.991077 0.988361 0.986298 0.989424 0.998373 0.997763 0.99695 0.997695
          0.995059 0.993731 0.991777 0.993659 0.988201 0.985473 0.982831 0.985905 0.982669 0.979373 0.976683 0.980233
          0.991126 0.988646 0.986288 0.989228 0.980475 0.977493 0.974602 0.977767 0.973475 0.970832 0.967841 0.970566
          0.967072 0.964317 0.961408 0.964214 0.974328 0.971068 0.968215 0.971601 0.967964 0.966055 0.963052 0.964978
          0.96462 0.96384 0.960919 0.961653 0.958286 0.957624 0.954894 0.95548 0.961507 0.959599 0.956733 0.95863
          0.986322 0.983059 0.980624 0.984246 0.977008 0.973307 0.970617 0.97451 0.971335 0.967326 0.964627 0.968796
          0.9813 0.977435 0.97496 0.979124 0.968255 0.964806 0.961998 0.965542 0.960846 0.958029 0.955195 0.958044
          0.954785 0.951938 0.949128 0.951988 0.962282 0.95869 0.955885 0.959558 0.955336 0.95348 0.950713 0.952537
          0.952337 0.951857 0.949299 0.94966 0.946695 0.946489 0.944121 0.944147 0.949357 0.947595 0.94491 0.946605
          1 1 1 1 1 1 1 1 1 1 1 1
          1 1 1 1 1 1 1 1 1 1 1 1
          1 1 1 0.999888 0.999747 1 1 0.99941 0.99919 1 1 0.995992
          0.994925 0.99363 0.995175 0.986928 0.983407 0.981272 0.985241 0.982676 0.978375 0.976159 0.980877 0.993498
          0.991398 0.989797 0.992599 1 1 1 1 1 1 0.998828 0.998627 0.999999
          0.9999 0.998288 0.998119 0.999898 1 1 1 1 0.990796 0.987349 0.985734 0.989773
          0.978289 0.973231 0.970883 0.976383 0.973703 0.967813 0.965164 0.971562 0.987902 0.983315 0.981583 0.986846
          0.976185 0.971816 0.96929 0.973921 0.965646 0.961373 0.958631 0.963051 0.959878 0.955353 0.952489 0.957164
          0.970962 0.966139 0.963518 0.968598 0.956322 0.952607 0.949761 0.953547 0.94876 0.945917 0.943096 0.94593
          0.942683 0.939893 0.937009 0.939752 0.950276 0.946451 0.943489 0.947373 0.943508 0.941916 0.939298 0.940774
          0.941365 0.941569 0.939428 0.938956 0.93638 0.937187 0.935362 0.934161 0.937724 0.936414 0.933878 0.934988
          0.965567 0.960279 0.957449 0.963015 0.953865 0.949076 0.94598 0.950919 0.947345 0.942289 0.93881 0.944006
          0.959762 0.953956 0.950746 0.956855 0.94396 0.940051 0.936889 0.940831 0.936403 0.933755 0.930792 0.933318
          0.929825 0.927496 0.924485 0.926554 0.937159 0.933231 0.92978 0.933677 0.931979 0.931139 0.928756 0.929267
          0.931873 0.933558 0.932207 0.929962 0.92813 0.931048 0.930425 0.926747 0.926358 0.926278 0.92421 0.923769
          1 1 1 1 1 1 1 1 0.999801 0.997839 0.997705 0.999801
          0.999801 0.997505 0.997428 0.999804 1 1 1 1 0.984948 0.979031 0.976982 0.983751
          0.968574 0.961697 0.958505 0.965989 0.96237 0.954293 0.950087 0.958889 0.981639 0.973962 0.971231 0.980156
          1 1 1 0.997352 0.997419 1 1 0.99768 0.998858 1 1 0.977502
          0.9671 0.962636 0.975146 0.953914 0.944438 0.938325 0.948496 0.940441 0.929963 0.920497 0.930488 0.970514
          0.955353 0.94521 0.963636 0.953147 0.946771 0.942951 0.949646 0.939949 0.93466 0.930629 0.936009 0.931217
          0.925834 0.92109 0.9264 0.945156 0.938196 0.933394 0.940629 0.929607 0.92582 0.922054 0.925666 0.922918
          0.921228 0.91833 0.919527 0.915906 0.91538 0.912976 0.912673 0.92112 0.91783 0.913882 0.9167 0.921126
          0.922224 0.920777 0.918908 0.925662 0.930224 0.930656 0.925143 0.925206 0.931773 0.933574 0.925956 0.916888
          0.919683 0.919299 0.91548 0.934772 0.927397 0.921156 0.928533 0.92059 0.915558 0.910177 0.914691 0.907907
          0.90433 0.899323 0.901573 0.920497 0.913529 0.905924 0.911934 0.911791 0.909698 0.906109 0.907239 0.909526
          0.910862 0.90959 0.907093 0.905237 0.90903 0.909497 0.904407 0.902687 0.902793 0.900554 0.899097 0.914626
          0.919596 0.920739 0.914593 0.927585 0.936284 0.939593 0.929951 0.93341 0.9439 0.948399 0.937409 0.915473
          0.922851 0.925778 0.917253 0.991751 0.992001 0.988953 0.988675 0.993451 0.994581 0.992192 0.990686 0.986972
          0.988678 0.985735 0.983863 0.984794 0.985114 0.981907 0.981527 0.996799 0.998038 0.99675 0.994928 0.999642
          0.999891 0.99976 0.998984 0.997563 0.998934 0.998223 0.996258 0.992207 0.99458 0.992681 0.989572 1
          1 1 0.999997 1 1 0.999948 1 0.999994 0.999802 0.977593 0.978037 0.974907
          0.974391 0.980159 0.982207 0.979382 0.977132 0.973672 0.976102 0.973498 0.970859 0.970684 0.971282 0.968343
          0.967648 0.986386 0.98993 0.987624 0.983808 0.994393 0.996794 0.99586 0.992877 0.990859 0.994462 0.993494
          0.98917 0.980848 0.984916 0.982881 0.978476 0.999226 0.999775 0.999678 0.998738 0.999998 1 1
          0.999996 0.999968 1 0.999999 0.999945 0.997829 0.999111 0.9989 0.997258 1 1 1
          1 1 1 1 1 1 0.964215 0.965023 0.962324 0.961384 0.967729 0.970573
          0.968289 0.965201 0.962455 0.965798 0.963899 0.960259 0.95824 0.959334 0.956911 0.955639 0.975842 0.98054
          0.978882 0.973836 0.987271 0.992178 0.991317 0.985964 0.98458 0.990216 0.989622 0.983712 0.9717 0.977068
          0.975859 0.970131 0.996441 0.998335 0.998083 0.995943 0.999778 0.999899 0.999898 0.999729 0.999613 0.999895
          0.999891 0.99956 0.995274 0.997543 0.997373 0.994962 0.952799 0.954281 0.952152 0.950427 0.957939 0.961899
          0.960455 0.956123 0.954288 0.959027 0.95813 0.952937 0.947888 0.949901 0.948129 0.945784 0.968546 0.974615
          0.973924 0.967491 0.982859 0.988956 0.988741 0.982466 0.982186 0.988558 0.988724 0.982305 0.966535 0.973314
          0.973212 0.966087 0.994587 0.99706 0.996997 0.994484 0.999395 0.999789 0.999784 0.99937 0.999264 0.999686
          0.999691 0.999286 0.994391 0.996887 0.996929 0.994489 1 1 1 1 1 1
          1 1 1 1 1 1 0.999998 1 1 0.999998 1 1
          0.999997 1 1 0.999997 1 1 1 1 1 1 1 1
          1 1 1 1 1 1 1 1 1 1 1 1
          1 1 1 1 1 1 0.9436 0.946336 0.945016 0.941833 0.95169 0.95738
          0.95712 0.950903 0.950356 0.957136 0.957632 0.950286 0.940099 0.943803 0.94308 0.938793 0.965863 0.973307
          0.973806 0.966084 0.982617 0.989011 0.989483 0.983208 0.984049 0.990136 0.990817 0.985052 0.966645 0.974602
          0.975674 0.967584 0.994655 0.997005 0.997123 0.994906 0.999392 0.999789 0.999791 0.99943 0.999494 0.999794
          0.999798 0.999544 0.995281 0.997355 0.997521 0.995637 0.937669 0.942625 0.942691 0.937014 0.950619 0.958544
          0.959866 0.951424 0.952791 0.961716 0.963839 0.954589 0.936734 0.943214 0.944288 0.936992 0.968963 0.977124
          0.978661 0.970593 0.986375 0.991728 0.992431 0.987656 0.989296 0.993455 0.994083 0.990587 0.97273 0.980644
          0.98244 0.974897 0.996194 0.997908 0.998072 0.996583 0.999714 0.999898 0.999898 0.999748 0.999819 0.999899
          0.999901 0.999836 0.99725 0.99854 0.99866 0.997597 0.999999 1 1 0.999999 1 1
          0.999999 1 1 0.999999 1 1 1 1 1 1 1 1
          1 1 1 1 1 1 0.937856 0.946009 0.948232 0.939301 0.957075 0.966557
          0.969275 0.959828 0.963306 0.972601 0.975545 0.966728 0.941572 0.951238 0.954525 0.944358 0.977588 0.984763
          0.986582 0.980008 0.992163 0.995108 0.995628 0.993161 0.994547 0.996645 0.997032 0.995312 0.982945 0.988971
          0.990465 0.985272 0.998281 0.999136 0.999196 0.998534 0.999974 1 1 0.999978 0.999995 1
          1 0.999995 0.999141 0.999584 0.999603 0.999277 0.948089 0.95861 0.962558 0.952075 0.970831 0.97912
          0.981873 0.974418 0.978628 0.985387 0.987615 0.981812 0.956949 0.967217 0.971155 0.961539 0.988158 0.992497
          0.993451 0.990083 0.996591 0.998019 0.998245 0.997133 0.998304 0.999141 0.999209 0.998606 0.992467 0.99509
          0.995728 0.993644 0.999746 0.999899 0.9999 0.999787 1 1 1 1 1 0.999976
          1 1 0.99998 1 1 1 1 1 1 1 1 1
          1 1 1 1 1 1 1 1 1 1 1 1
          1 1 1 1 1 1 1 1 1 1 1 1
          1 1 1 1 1 1 1 1 1 1 1 1
          1 1 1 1 1 1 1 1 1 1 1 1
          1 1 1 1 1 1 1 1 1 1 1 1
          1 1 1 1 1 1 1 1 1 1 1 1
          1 1 1 1 1 1 1 1 1 1 1 1
          1 1 1 1 1 1 1 1 1 1 1 1
          1 1 1 1 1 1 1 1 1 1 1 1
          1 1 1 1 1 1 1 1 1 1 1 1
          1 1 1 1 1 1 1 1 1 1 1 1
          1 1 1 1 1 1 1 1 1 1 1 1
          1 1 1 1 1 1 1 1 1 1 1 1
          1 1 1 1 1 1 1 1 1 1 1 1
          1 1 1 1 1 1 1 1 1 1 1 1
          1 1 1 1 1 1 1 1 1 1 1 1
          1 1 1 1 1 1 1 1 1 1 0.9995 0.999499
          0.999296 0.999408 1 1 0.999929 0.999974 1 1 1 1 1 1
          1 1 1 1 1 1 1 1 0.999998 0.999998 1 1
          0.999997 0.999997 0.998704 0.998703 0.998701 0.998702 0.998903 0.998901 0.9989 0.998902 1 1
          0.999996 0.999996 1 1 0.999995 0.999995 0.998505 0.998504 0.998501 0.998502 0.998604 0.998604
          0.998601 0.998602 1 1 0.999994 0.999994 1 1 0.999993 0.999993 0.998307 0.998307
          0.998302 0.998303 0.998406 0.998405 0.998401 0.998402 1 1 1 1 1 1
          1 1 1 1 1 1 1 1 1 1 1 1
          1 1 1 1 1 1 1 1 1 1 1 1
          1 1 1 1 1 0.999993 0.999993 1 1 0.999991 0.999991 0.998208
          0.998208 0.998202 0.998203 0.998307 0.998306 0.998302 0.998302 1 1 0.99999 0.99999 0.9999
          0.9999 0.99989 0.99989 0.998109 0.998108 0.998103 0.998103 0.99811 0.998109 0.998103 0.998104 0.9999
          0.9999 0.999889 0.999889 0.9999 0.9999 0.999889 0.999889 0.99801 0.99801 0.998004 0.998004 0.998011
          0.99801 0.998004 0.998005 1 1 1 1 1 1 1 1 1
          1 1 1 1 1 1 1 1 1 1 1 1
          1 1 1 1 1 1 1 1 1 0.9999 0.9999 0.999889
          0.999889 0.9999 0.9999 0.999887 0.999887 0.997912 0.997912 0.997905 0.997906 0.99801 0.99801 0.998004
          0.998004 0.9999 0.9999 0.999887 0.999887 0.9999 0.9999 0.999887 0.999887 0.997912 0.997911 0.997905
          0.997905 0.997912 0.997912 0.997905 0.997905 0.9999 0.9999 0.999885 0.999885 0.9999 0.9999 0.999885
          0.999885 0.997813 0.997813 0.997806 0.997806 0.997814 0.997813 0.997807 0.997807 1 1 1
          1 1 1 1 1 1 1 1 1 1 1 1
          1 1 1 1 1 1 1 1 1 1 1 1
          1 1 1 1 1 1 1 1 1 1 1 1
          1 1 1 1 1 1 1 1 1 1 1 1
          1 1 1 1 1 1 1 1 1 1 1 1
          1 1 1 1 1 1 1 1 1 1 1 1
          1 1 1 1 1 1 1 1 1 1 1 1
          1 1 1 1 1 1 1 1 1 1 1 1
          1 1 1 1 1 0.999899 0.999715 0.999827 0.999901 1 1 1
          1 1 0.996918 0.995025 0.997057 0.997687 0.986619 0.973505 0.991588 0.99299 0.998863 0.998376
          0.998513 0.99891 1 0.999994 0.999995 1 1 1 1 1 1 1
          0.999995 0.999994 1 0.998906 0.998527 0.998487 0.998878 0.998712 0.998319 0.998256 0.998663 1
          0.999989 0.999987 1 0.94486 0.913747 0.977472 0.980723 0.867452 0.820008 0.955105 0.96213 0.986168
          0.983083 0.984515 0.987208 0.994945 0.993602 0.994026 0.995263 0.764444 0.713718 0.921192 0.93369 0.662322
          0.619931 0.882323 0.8997 0.95545 0.950342 0.956269 0.960074 0.969478 0.96436 0.967617 0.971938 0.579796
          0.548489 0.835298 0.857913 0.518695 0.496418 0.779252 0.806813 0.931724 0.926625 0.941893 0.944153 0.943138
          0.938175 0.947984 0.950964 0.995355 0.99413 0.994073 0.995309 0.98749 0.984779 0.984552 0.987333 0.987044
          0.98419 0.983901 0.986849 0.995178 0.993941 0.993865 0.995114 0.972462 0.968152 0.96773 0.972123 0.961043
          0.957391 0.957015 0.960656 0.960039 0.956392 0.955781 0.959443 0.971586 0.967097 0.966514 0.97112 0.952683
          0.950004 0.949817 0.952419 0.946915 0.945097 0.945181 0.946883 0.946529 0.944901 0.944539 0.946104 0.951891
          0.949338 0.948825 0.951335 1 1 1 1 1 1 0.999977 0.999974 1
          0.998432 0.998029 0.997977 0.998395 0.998243 0.997819 0.997767 0.998206 1 0.999965 0.999962 1
          1 1 1 1 1 1 1 1 1 0.99995 0.999944 0.999999
          0.998059 0.997615 0.997566 0.99802 0.997874 0.997424 0.997379 0.997836 0.9999 0.999837 0.999833 0.9999
          0.994978 0.993732 0.99366 0.994917 0.98655 0.983515 0.983247 0.98639 0.98616 0.982909 0.982638 0.986014
          0.994789 0.993534 0.993465 0.994731 0.970511 0.965793 0.965174 0.970024 0.958725 0.955057 0.954413 0.958091
          0.957338 0.953662 0.953 0.956678 0.969394 0.964417 0.963767 0.968887 0.950691 0.948231 0.947705 0.950114
          0.94562 0.944122 0.943747 0.945179 0.944691 0.943333 0.942989 0.944274 0.949461 0.947111 0.94659 0.948877
          0.994612 0.993348 0.993299 0.994571 0.985805 0.982301 0.982038 0.98569 0.985532 0.981723 0.981461 0.985444
          0.9945 0.993226 0.993186 0.994467 0.968235 0.962977 0.9623 0.967714 0.9559 0.952233 0.951565 0.955223
          0.954431 0.950797 0.95011 0.95372 0.967046 0.96148 0.960756 0.966492 0.948219 0.946004 0.945504 0.947646
          0.943823 0.942617 0.942298 0.943426 0.942998 0.941953 0.941664 0.942625 0.947007 0.944949 0.944459 0.94643
          0.474194 0.458159 0.717292 0.747494 0.441164 0.429305 0.655424 0.684934 0.907589 0.901069 0.933475 0.934924
          0.920192 0.914566 0.937249 0.939001 0.41603 0.407066 0.599472 0.62551 0.396599 0.3897 0.552424 0.573903
          0.876671 0.867865 0.926825 0.928155 0.893212 0.885642 0.930118 0.931439 0.381349 0.375941 0.514452 0.531544
          0.369217 0.364895 0.484333 0.497762 0.83634 0.825292 0.91961 0.921179 0.857676 0.84764 0.923359 0.924789
          0.943111 0.941938 0.942339 0.943377 0.940695 0.939958 0.940681 0.941278 0.941327 0.940794 0.940688 0.941174
          0.943237 0.942274 0.942051 0.942955 0.939164 0.938694 0.939751 0.940077 0.938167 0.937841 0.939245 0.93942
          0.939788 0.939658 0.939683 0.939793 0.940298 0.940027 0.940004 0.940242 0.937429 0.937163 0.93893 0.939036
          0.936805 0.936564 0.938722 0.93879 0.939407 0.939379 0.939469 0.939487 0.93953 0.939465 0.93953 0.939581
          0.359396 0.355862 0.460445 0.47103 0.351283 0.348323 0.441319 0.449756 0.789072 0.777268 0.911194 0.91304
          0.813193 0.801522 0.915546 0.917263 0.344441 0.341906 0.425826 0.432631 0.338562 0.336352 0.413163 0.418695
          0.741957 0.731429 0.902202 0.904065 0.764987 0.753564 0.906671 0.908592 0.333434 0.331488 0.402812 0.407291
          0.328958 0.327248 0.394536 0.39806 0.703434 0.696415 0.896073 0.896758 0.721058 0.711966 0.898349 0.899874
          0.936229 0.935993 0.938563 0.938615 0.93566 0.935422 0.938426 0.938472 0.93932 0.939312 0.939439 0.939442
          0.939346 0.939332 0.939445 0.939451 0.935097 0.934867 0.938306 0.93834 0.934581 0.934428 0.938308 0.938266
          0.939331 0.939412 0.939573 0.939485 0.93929 0.939292 0.939438 0.93943 0.934366 0.93449 0.938793 0.938483
          0.935052 0.935864 0.940579 0.93959 0.940927 0.942 0.942293 0.941162 0.939664 0.940022 0.940216 0.939841
          0.94263 0.941786 0.941556 0.94234 0.940988 0.940548 0.940418 0.940818 0.940638 0.940278 0.940166 0.940488
          0.942032 0.941308 0.941101 0.941768 0.940154 0.939944 0.939877 0.940062 0.939758 0.939664 0.939639 0.939718
          0.939679 0.939614 0.939588 0.939643 0.939964 0.939805 0.939752 0.93989 0.939587 0.939547 0.939534 0.939568
          0.939511 0.9395 0.939501 0.939507 0.9395 0.939545 0.939517 0.939509 0.939532 0.941489 0.940881 0.940706
          0.941257 0.940334 0.940049 0.939961 0.940213 0.94009 0.939871 0.939801 0.939992 0.941016 0.940522 0.940377
          0.940816 0.939816 0.9397 0.939658 0.939757 0.939605 0.939561 0.939544 0.939579 0.939555 0.939529 0.939512
          0.939532 0.939697 0.939614 0.939581 0.939649 0.93952 0.939504 0.9395 0.939511 0.939496 0.939494 0.939504
          0.939496 0.939494 0.939497 0.939494 0.939491 0.939495 0.939497 0.939489 0.939488 0.939492 0.939493 0.939491
          0.939495 0.939488 0.939497 0.939502 0.939492 0.939546 0.939636 0.939642 0.93955 0.939548 0.93964 0.939637
          0.939544 0.939491 0.939499 0.939495 0.939488 0.939918 0.940308 0.94033 0.939928 0.941297 0.942488 0.942613
          0.94136 0.941427 0.942749 0.942875 0.941484 0.93993 0.940345 0.940358 0.939931 0.939493 0.939488 0.939483
          0.93949 0.939484 0.93949 0.939484 0.93948 0.939539 0.939634 0.93963 0.939533 0.939526 0.939625 0.93962
          0.939518 0.939474 0.939477 0.939467 0.939467 0.939931 0.940371 0.940383 0.939931 0.941552 0.943019 0.943156
          0.941609 0.941676 0.943311 0.943458 0.941732 0.93993 0.940395 0.940404 0.939928 1 1 1
          1 1 1 1 1 1 1 1 0.9999 0.999819 0.999818 0.9999
          0.997706 0.997252 0.997245 0.997702 0.997702 0.997244 0.997245 0.997703 0.9999 0.999817 0.999817 0.9999
          1 1 1 1 1 1 1 1 1 1 1 0.9999
          0.999817 0.999818 0.9999 0.997708 0.997252 0.997277 0.997727 0.997801 0.997358 0.997409 0.997837 0.9999
          0.999826 0.999829 0.9999 0.994408 0.993124 0.993103 0.994403 0.985326 0.981155 0.980882 0.985256 0.985165
          0.980566 0.980286 0.985128 0.994404 0.993086 0.993077 0.994408 0.965781 0.959879 0.959115 0.9652 0.952891
          0.949321 0.948623 0.952151 0.951293 0.947827 0.947121 0.950516 0.964461 0.958194 0.957366 0.963835 0.945787
          0.943917 0.943457 0.945223 0.942227 0.941355 0.941109 0.941894 0.941545 0.940852 0.940654 0.941258 0.944603
          0.942954 0.942529 0.944055 0.994421 0.993076 0.993094 0.994453 0.985091 0.979973 0.979676 0.985095 0.985122
          0.979352 0.979063 0.985222 0.99453 0.993152 0.993213 0.994596 0.963037 0.956367 0.95545 0.962341 0.949619
          0.94632 0.945611 0.948797 0.947856 0.944814 0.944112 0.946987 0.961452 0.954341 0.95331 0.960662 0.94346
          0.942069 0.941696 0.942946 0.940966 0.940453 0.940309 0.940733 0.940504 0.940171 0.940087 0.94033 0.9424
          0.941302 0.94098 0.941925 1 1 1 1 1 1 1 1 1
          1 1 0.9999 0.999843 0.999847 0.9999 0.997983 0.997568 0.997647 0.998036 0.998259 0.997896
          0.997998 0.998324 0.9999 0.999864 0.99987 0.999901 1 1 1 1 1 1
          0.999982 0.999985 1 0.998637 0.998352 0.998484 0.998711 0.999208 0.999057 0.999161 0.999255 1
          0.999998 0.999999 1 0.994743 0.993349 0.993477 0.994858 0.985403 0.978777 0.978515 0.985655 0.986082
          0.978317 0.978177 0.98658 0.995126 0.993745 0.993966 0.995296 0.959648 0.952064 0.950879 0.9587 0.946002
          0.943336 0.942668 0.945093 0.944081 0.941948 0.94136 0.943165 0.957466 0.949449 0.948057 0.956209 0.941431
          0.940647 0.940398 0.941024 0.940167 0.940022 0.940017 0.940059 0.939967 0.940055 0.940178 0.939919 0.940619
          0.940149 0.93997 0.940301 0.99571 0.994422 0.994824 0.995989 0.987433 0.978294 0.978627 0.988344 0.990166
          0.979876 0.982624 0.99201 0.996795 0.99576 0.996507 0.997209 0.954517 0.946386 0.944777 0.9526 0.942184
          0.940758 0.940316 0.941347 0.940532 0.939908 0.939668 0.939947 0.949859 0.942907 0.941262 0.946212 0.940001
          0.939797 0.939685 0.939793 0.939883 0.940401 0.94081 0.939875 0.939847 0.941496 0.942582 0.93976 0.939618
          0.939578 0.93952 0.939528 0.940613 0.940226 0.940102 0.940446 0.939894 0.93973 0.939667 0.939807 0.939718
          0.939602 0.939556 0.939652 0.940277 0.939974 0.939874 0.940145 0.939601 0.939548 0.939526 0.939565 0.939508
          0.939495 0.939488 0.939497 0.939488 0.939484 0.939479 0.93948 0.939532 0.939506 0.939487 0.939502 0.939491
          0.939492 0.939489 0.939488 0.940014 0.939771 0.939695 0.939922 0.939587 0.939511 0.939476 0.939535 0.939483
          0.939442 0.939405 0.93943 0.939835 0.939616 0.939538 0.939763 0.939472 0.939465 0.939455 0.939455 0.939475
          0.93947 0.939441 0.939447 0.939438 0.939431 0.939487 0.939487 0.939478 0.939471 0.939483 0.939458 0.939456
          0.939441 0.939447 0.939509 0.939615 0.93961 0.939498 0.939487 0.939605 0.939603 0.939475 0.939431 0.939423
          0.9394 0.939411 0.939926 0.940411 0.940416 0.939922 0.941796 0.943624 0.943781 0.941848 0.941905 0.943958
          0.944123 0.941946 0.939917 0.940417 0.940412 0.939911 0.939477 0.939463 0.939457 0.939469 0.939384 0.939372
          0.939336 0.939346 0.939464 0.939602 0.939607 0.939455 0.939452 0.939617 0.939647 0.939467 0.939289 0.939903
          0.9404 0.940391 0.939904 0.941988 0.944306 0.944474 0.942007 0.942017 0.944653 0.944818 0.942 0.939907
          0.940374 0.940346 0.939911 0.939689 0.939444 0.939354 0.939631 0.939373 0.939364 0.939333 0.939331 0.939298
          0.939556 0.939237 0.939093 0.939459 0.939428 0.939468 0.939468 0.939424 0.939483 0.939293 0.938909 0.938672
          0.938999 0.939264 0.939304 0.938389 0.939429 0.939468 0.939468 0.939446 0.939477 0.939478 0.939472 0.939472
          0.939456 0.939171 0.939488 0.939691 0.939755 0.939545 0.939628 0.939839 0.939946 0.939798 0.938975 0.939912
          0.940301 0.940247 0.939919 0.941958 0.944988 0.945138 0.941881 0.941755 0.945268 0.945341 0.941574 0.939917
          0.940171 0.940078 0.939911 0.939474 0.939404 0.939412 0.93947 0.938647 0.94005 0.940066 0.940182 0.940521
          0.941239 0.94023 0.940102 0.942551 0.938065 0.939881 0.939956 0.939833 0.939837 0.941303 0.945315 0.94512
          0.940978 0.940527 0.944533 0.943171 0.940058 0.93975 0.939694 0.939571 0.939627 1 1 1
          1 1 1 1 1 1 1 1 1 1 1 1
          1 1 1 1 1 1 1 1 1 1 1 1
          1 1 1 0.999842 0.999697 1 0.9999 0.999631 0.999598 0.9999 1 1
          1 1 0.934808 0.925629 0.910408 0.91697 0.915979 0.908425 0.898038 0.903351 0.892224 0.888907
          0.88252 0.884531 0.902328 0.896995 0.888041 0.892694 1 1 1 1 1 1
          1 1 0.9998 0.999574 0.999557 0.9998 0.9997 0.999542 0.99953 0.9997 1 1
          1 1 0.88534 0.880963 0.875993 0.880224 0.878376 0.877362 0.873816 0.874019 0.87035 0.870918
          0.868834 0.867513 0.875756 0.871688 0.868291 0.87218 0.902051 0.897821 0.891465 0.893878 0.895403 0.894718
          0.891586 0.890748 0.887085 0.889434 0.888697 0.884967 0.886796 0.88603 0.88245 0.881848 0.896192 0.899116
          0.898952 0.894606 0.904573 0.910976 0.913411 0.905825 0.908224 0.916928 0.920996 0.911357 0.894126 0.899878
          0.901835 0.894828 0.920176 0.929809 0.934305 0.923807 0.942485 0.953756 0.958654 0.947585 0.953501 0.964189
          0.968584 0.95871 0.928565 0.939769 0.945038 0.933535 0.878037 0.879888 0.878562 0.875578 0.883914 0.888975
          0.890172 0.88389 0.884656 0.892125 0.894506 0.885947 0.873833 0.877936 0.877985 0.872795 0.896602 0.904776
          0.90819 0.899054 0.915479 0.925973 0.930923 0.919812 0.924882 0.936487 0.941498 0.929717 0.902295 0.912283
          0.916401 0.905727 0.93936 0.950952 0.955977 0.944735 0.964436 0.973528 0.976952 0.968906 0.973802 0.981028
          0.98348 0.977216 0.950621 0.961419 0.965571 0.955541 1 1 1 1 1 1
          1 1 0.9997 0.999519 0.999509 0.9997 0.9997 0.999499 0.999489 0.9997 1 1
          1 1 0.868713 0.865049 0.86224 0.865644 0.864929 0.867042 0.865691 0.862759 0.860678 0.864489
          0.863552 0.858822 0.862495 0.859397 0.856795 0.859553 1 1 1 1 1 1
          1 1 0.9996 0.999478 0.999469 0.9996 0.9996 0.999459 0.99945 0.9996 1 1
          1 1 0.856452 0.854084 0.851532 0.853476 0.85699 0.86271 0.862068 0.855308 0.853632 0.86152
          0.86115 0.852066 0.850297 0.848832 0.846233 0.847167 0.872174 0.878478 0.87932 0.871918 0.887785 0.897402
          0.9004 0.889831 0.89229 0.903776 0.907061 0.894786 0.871946 0.880478 0.881834 0.872183 0.909686 0.921018
          0.925356 0.913511 0.935055 0.946888 0.951369 0.9398 0.944881 0.956142 0.959882 0.949172 0.917755 0.930066
          0.934292 0.921714 0.960786 0.970126 0.973301 0.964844 0.981096 0.986728 0.988402 0.983549 0.986541 0.990852
          0.991801 0.988247 0.969216 0.976973 0.979353 0.972416 0.872667 0.883468 0.885224 0.87329 0.897639 0.910653
          0.914087 0.900457 0.903628 0.917846 0.921402 0.906717 0.874164 0.887261 0.889396 0.875162 0.926039 0.938819
          0.94276 0.930001 0.953742 0.963946 0.966999 0.957477 0.961516 0.970461 0.972929 0.964702 0.93431 0.946998
          0.950575 0.938178 0.976012 0.982345 0.984144 0.978497 0.990476 0.993345 0.993935 0.991569 0.993073 0.995099
          0.995505 0.993754 0.981436 0.986629 0.987952 0.983337 1 1 1 1 1 1
          1 1 1 1 1 1 1 1 1 1 1 1
          1 1 1 1 1 1 1 1 1 1 1 1
          1 1 1 1 1 1 1 1 1 1 1 1
          0.9999 0.9999 0.999885 0.999885 0.9999 0.9999 0.999885 0.999885 0.997813 0.997813 0.997806 0.997806
          0.997813 0.997813 0.997806 0.997806 0.9999 0.9999 0.999884 0.999885 0.9999 0.9999 0.999882 0.999882
          0.997716 0.997715 0.997708 0.997708 0.997813 0.997813 0.997806 0.997806 0.9999 0.9999 0.999882 0.999882
          0.9999 0.9999 0.999882 0.999882 0.997715 0.997715 0.997708 0.997708 0.997715 0.997715 0.997708 0.997708
          1 1 1 1 1 1 1 1 1 1 1 1
          1 1 1 1 1 1 1 1 1 1 1 1
          1 1 1 1 1 1 0.9999 0.9999 0.999882 0.999882 0.9999 0.9999
          0.999882 0.999882 0.997715 0.997715 0.997708 0.997708 0.997715 0.997715 0.997708 0.997708 0.9999 0.9999
          0.999882 0.999882 0.9999 0.9999 0.999882 0.999882 0.997715 0.997715 0.997708 0.997708 0.997715 0.997715
          0.997708 0.997708 0.9999 0.9999 0.999882 0.999882 0.9999 0.9999 0.999881 0.999882 0.997715 0.997715
          0.997708 0.997708 0.997715 0.997715 0.997708 0.997708 1 1 1 1 1 1
          1 1 0.9996 0.99944 0.999431 0.9996 0.9996 0.999421 0.999411 0.9996 1 1
          1 1 0.843786 0.843453 0.84074 0.840397 0.850511 0.860899 0.860834 0.84905 0.847623 0.860942
          0.861278 0.8463 0.836702 0.83782 0.834942 0.832936 1 1 1 1 1 1
          1 1 0.9995 0.9994 0.99939 0.9995 0.9995 0.99938 0.999369 0.9995 1 1
          1 1 0.828789 0.831834 0.828753 0.82449 0.845063 0.861883 0.862809 0.843981 0.843094 0.864166
          0.866005 0.842477 0.8197 0.825429 0.822134 0.81462 0.876452 0.891851 0.894399 0.877872 0.910175 0.925308
          0.928976 0.913544 0.917341 0.933024 0.936785 0.921048 0.879652 0.897329 0.900372 0.881607 0.94239 0.954481
          0.957702 0.946115 0.968234 0.975871 0.977895 0.970957 0.974093 0.980475 0.98216 0.976423 0.950207 0.96131
          0.964192 0.953756 0.985716 0.989921 0.99083 0.987177 0.994876 0.996425 0.996706 0.995359 0.996294 0.997483
          0.997677 0.996657 0.989139 0.992272 0.992863 0.99025 0.88403 0.90388 0.907521 0.886705 0.925247 0.94097
          0.944783 0.929327 0.933965 0.949067 0.952892 0.938441 0.890007 0.911733 0.916101 0.893669 0.957703 0.967526
          0.970097 0.961052 0.97923 0.98449 0.985903 0.981207 0.983708 0.987992 0.989124 0.985373 0.964848 0.9732