<?xml version="1.0"?>
<VTKFile type="UnstructuredGrid" version="0.1" byte_order="LittleEndian">
  <UnstructuredGrid>
    <Piece NumberOfCells="4547" NumberOfPoints="2360">
      <PointData Scalars="Sn">
        <DataArray type="Float32" Name="Sn" NumberOfComponents="1" format="ascii">
          0 0 0 0 0 0 0 0 0 0 0 0
          0 0 0 0 0 0 0 0 0 0 0 0
          0 0 0 0 0 0 0 0 0 0 0 0
          0 0 0 0 0 0 0 0 0 0 0 0
          0 0 0 0 0 0 0 0 0 0 0 0
          0 0 0 0 0 0 0 0 0 0 0 0
          0 0 0 0 0 0 0 0 0 0 0 0
          0 0 0 0 0 0 0 0 0 0 0 0
          0 0 0 0 0 0 0 0 0 0 0 0
          0 0 0 0 0 0 0 0 0 0 0 0
          0 0 0 0 0 0 0 0 0 0 0 0
          0 0 0 0 0 0 0 0 0 0 0 0
          0 0 0 0 0 0 0 0 0 0 0 0
          0 0 0 0 0 0 0 0 0 0 0 0
          0 0 0 0 0 0 0 0 0 0 0 0
          0 0 0 0 0 0 0 0 0 0 0 0
          0 0 0 0 0 0 0 0 0 0 0 0
          0 0 0 0 0 0 0 0 0 0 0 0
          0 0 0 0 0 0 0 0 0 0 0 0
          0 0 0 0 0 0 0 0 0 0 0 0
          0 0 0 0 0 0 0 0 0 0 0 0
          0 0 0 0 0 0 0 0 0 0 0 0
          0 0 0 0 0 0 0 0 0 0 0 0
          0 0 0 0 0 0 0 0 0 0 0 0
          0 0 0 0 0 0 0 0 0 0 0 0
          0 0 0 0 0 0 0 0 0 0 0 0
          0 0 0 0 0 0 0 0 0 0 0 0
          0 -8.09941e-38 -3.93012e-37 -9.28349e-37 -8.9112e-37 -9.84582e-38 0 0 0 0 0 0
          0 0 0 0 0 0 0 0 0 0 0 0
          0 0 0 0 0 0 0 0 0 0 0 0
          0 0 0 0 0 0 0 0 0 0 0 3.45661e-37
          -1.56443e-34 -3.98017e-32 -8.42463e-31 -6.42337e-30 -2.08987e-29 -2.53432e-29 -2.59601e-30 -4.67975e-34 0 0 0 0
          0 0 0 0 0 0 0 0 0 0 0 0
          0 0 0 0 0 0 0 0 0 0 0 0
          0 0 0 0 0 0 0 0 0 0 0 0
          2.62314e-36 -8.08214e-33 -1.67687e-30 1.26811e-27 3.73091e-25 6.09693e-24 2.03079e-23 8.25573e-24 -1.49625e-27 -1.29874e-31 3.97163e-38 0
          0 0 0 0 0 0 0 0 0 0 0 0
          0 0 0 0 0 0 0 0 0 0 0 0
          0 0 0 0 0 0 0 0 0 0 0 0
          6.5297e-37 -5.04389e-35 6.37894e-30 1.2341e-21 2.82616e-17 3.37348e-15 7.2057e-14 2.84656e-13 1.96773e-13 8.9198e-17 3.05237e-26 -3.60861e-31
          5.41063e-38 0 0 0 0 0 0 0 0 0 0 0
          0 0 0 0 0 0 0 0 0 0 0 0
          0 0 0 0 0 0 0 0 0 0 0 0
          0 1.67957e-37 -2.66991e-31 1.58766e-27 1.90475e-16 4.19882e-12 8.4195e-10 8.37968e-09 5.10279e-08 5.52862e-08 9.92862e-10 1.23639e-14
          8.19164e-26 -3.74829e-31 3.6689e-38 0 0 0 0 0 0 0 0 0
          0 0 0 0 0 0 0 0 0 0 0 0
          0 0 0 0 0 0 0 0 0 0 0 0
          0 0 0 -6.56118e-31 2.23712e-19 3.57291e-15 2.25631e-09 3.35399e-07 5.76848e-06 7.13009e-08 4.10996e-05 1.62851e-07
          4.56283e-05 4.92611e-06 1.32313e-08 1.68028e-14 4.59737e-26 -1.72584e-31 1.24288e-38 0 0 0 0 0
          0 0 0 0 0 0 0 0 0 0 0 0
          0 0 0 0 0 0 0 0 0 0 0 0
          0 0 0 0 0 0 8.3991e-38 3.04274e-20 6.59887e-11 9.08634e-09 9.40538e-06 6.20303e-06
          0.000227203 5.13983e-05 0.00122939 0.000127637 0.00152158 0.000108355 0.000486104 1.87702e-05 1.06349e-08 5.76746e-15 1.89037e-27 -3.04166e-32
          0 0 0 0 0 0 0 0 0 0 0 0
          0 0 0 0 0 0 0 0 0 0 0 0
          0 0 0 0 0 0 0 0 0 0 0 0
          6.32822e-23 3.30177e-11 1.48609e-06 9.14134e-06 5.16984e-05 0.000175909 0.00196442 0.000447882 0.00133462 0.00675614 0.00401676 0.00303908
          0.00829972 0.00269456 0.00426745 0.000740408 0.000631613 6.66835e-06 1.20249e-09 8.60164e-17 -6.32418e-28 -3.9927e-34 0 0
          0 0 0 0 0 0 0 0 0 0 0 0
          0 0 0 0 0 0 0 0 0 0 0 0
          0 0 0 0 0 0 0 0 0 4.84055e-26 1.33112e-12 1.47576e-06
          5.9139e-07 0.000113233 3.10364e-05 0.000993165 2.86106e-05 0.00478137 0.00212076 0.00999117 0.00382746 0.0129788 0.00910301 0.020735
          0.015493 0.0133689 0.0200876 0.0212387 0.010373 0.0117414 0.00411166 0.00287113 0.000337975 0.00010234 1.50698e-07 8.84845e-13
          9.0969e-23 -8.41204e-30 -1.88608e-37 0 0 0 0 0 0 0 0 0
          0 0 0 2.20091e-38 3.00737e-38 0 0 0 0 0 0 0
          0 0 0 9.86954e-38 6.69917e-37 -5.45247e-38 -4.80777e-37 1.92428e-38 1.22757e-37 0 0 0
          0 0 3.2371e-14 2.80836e-07 2.80833e-07 6.04255e-08 0.00131496 0.000231756 0.00361236 0.000177492 0.0160012 0.00798413
          0.0251992 0.012595 0.0289486 0.0240299 0.0378581 0.0330353 0.0286827 0.0303019 0.0347579 0.0371191 0.0217963 0.0187374
          0.0266209 0.0084311 0.00564663 0.00123214 0.000414781 7.64243e-06 2.04072e-06 1.52935e-10 2.61866e-18 -1.71732e-27 -4.30304e-35 0
          0 0 0 0 0 0 0 0 0 0 0 0
          -5.3324e-38 -1.50141e-38 0 0 0 0 0 0 0 0 0 0
          -1.03145e-36 2.26568e-37 7.48184e-37 -1.86128e-37 -1.90058e-37 4.80411e-38 0 0 0 0 0 4.11691e-08
          4.11691e-08 1.03779e-12 0.00093903 4.74417e-05 0.000290046 4.76865e-05 0.0357775 0.0220556 0.0508741 0.0438749 0.0463089 0.0441821
          0.0540471 0.0541323 0.0405541 0.044638 0.0446472 0.0500908 0.0243997 0.0327253 0.025631 0.035085 0.0129053 0.00640373
          0.0135365 0.00171716 0.000611034 1.70294e-05 5.52376e-06 2.02681e-09 9.21944e-10 1.17074e-16 5.80888e-30 -3.8761e-33 0 0
          0 0 0 0 0 0 0 0 0 0 0 0
          0 0 0 0 0 0 0 0 0 0 0 0
          0 0 0 0 0 0 0 0 0 7.74752e-32 5.06718e-31 3.51543e-31
          2.00139e-15 0.000397719 7.15283e-06 0.000762179 7.15841e-06 0.0620343 0.0596655 0.0702498 0.070775 0.0607391 0.06269 0.0660375
          0.0694515 0.0486385 0.0557969 0.0501702 0.059522 0.0277949 0.0377312 0.0272536 0.038419 0.00846654 0.0159724 0.00707345
          0.015108 0.00201582 0.00027021 0.00162126 7.03068e-06 1.64846e-06 9.55424e-10 1.15164e-10 2.30241e-18 5.43793e-35 1.12945e-35 0
          0 0 0 0 0 0 0 0 0 0 0 0
          0 0 0 0 0 0 0 0 0 0 0 0
          0 0 0 0 0 0 0 0 0 -1.73872e-37 7.86894e-24 2.00139e-15
          1.38349e-11 0.000631608 5.93712e-07 0.000965681 6.75164e-07 0.0767782 0.0746454 0.0827612 0.0866428 0.0702505 0.0750465 0.0735596
          0.0797602 0.0518144 0.0624478 0.0525318 0.0641936 0.0281413 0.039546 0.0253291 0.0387704 0.00783674 0.0148742 0.00606087
          0.013343 0.00071244 0.00190503 0.000101677 0.00144942 8.16946e-06 1.96941e-07 1.04023e-10 2.66475e-12 1.29386e-21 1.21443e-35 0
          0 0 0 0 0 0 0 0 0 0 0 0
          0 0 0 0 0 0 0 0 0 0 0 0
          0 0 0 0 0 0 0 0 0 0 -6.03738e-36 7.16302e-21
          1.38038e-11 3.22097e-12 0.000764681 1.72722e-06 0.00110971 2.00008e-06 0.0873961 0.0855499 0.0923337 0.0992571 0.0760207 0.0836459
          0.0778072 0.0869872 0.0521275 0.0653281 0.0512935 0.0653854 0.0241332 0.0380954 0.0225589 0.0359922 0.00677289 0.0127623
          0.00368774 0.0106705 0.000236904 0.00101277 2.12014e-05 0.000527232 8.9941e-07 1.32837e-08 1.8949e-14 9.49688e-26 4.94559e-36 0
          0 0 0 0 0 0 0 0 0 0 0 0
          -5.90671e-38 -1.72084e-37 0 0 0 0 0 0 0 0 0 0
          0 0 0 0 -2.17852e-38 0 0 0 -1.66623e-38 0 0 7.83373e-18
          4.85621e-10 0.000864997 1.70428e-06 0.00122898 2.39255e-06 0.095852 0.0946117 0.100314 0.110484 0.0787822 0.0896558 0.0793003
          0.0919689 0.049267 0.0650496 0.047003 0.0634318 0.0201037 0.034012 0.0177175 0.0306945 0.00311827 0.00954225 0.00187251
          0.00737997 0.000129678 0.000302788 4.18551e-06 0.000205478 2.31975e-07 7.26335e-10 7.58303e-17 1.77564e-30 0 0 0
          0 0 0 0 0 0 0 0 0 0 0 0
          4.46252e-37 -1.90623e-37 0 0 0 0 0 -2.02923e-37 1.03382e-32 1.78975e-30 4.39566e-29 3.65597e-28
          1.3563e-27 2.8102e-27 3.76744e-27 2.72161e-27 1.44008e-27 5.2528e-26 2.5377e-25 1.24368e-25 2.5536e-29 1.06207e-28 1.72276e-17 1.30973e-08
          0.000955657 1.41052e-05 0.00133973 1.55965e-05 0.103245 0.103211 0.1077 0.121962 0.0787239 0.0937398 0.0778307 0.0950499
          0.0433405 0.0615746 0.039733 0.0579442 0.0146034 0.0276977 0.0115492 0.0233622 0.00142266 0.00584129 0.000478945 0.00402105
          1.86821e-05 4.56256e-05 2.081e-07 2.38733e-05 5.93927e-09 2.70861e-12 1.78741e-21 -7.04813e-36 0 0 0 0
          0 0 0 0 0 0 0 0 0 0 0 0
          -2.44594e-38 0 0 5.35481e-25 5.44252e-23 1.73675e-19 9.00284e-18 1.94401e-17 1.2852e-15 1.32348e-14 4.52804e-14 9.0245e-14
          1.29144e-13 1.49342e-13 1.28833e-13 2.70865e-14 2.01502e-13 1.06144e-12 7.63651e-13 5.75369e-15 2.64017e-14 3.74712e-16 8.90273e-10 0.00107961
          0.000106934 0.0015631 0.000110335 0.110447 0.11265 0.115252 0.137461 0.0750752 0.095868 0.0720401 0.0954042 0.0342945
          0.054198 0.029029 0.0478136 0.00833854 0.0194344 0.00571462 0.0144245 0.000380637 0.00241353 3.43944e-05 0.00134349 1.684e-06
          3.37319e-06 6.17679e-10 1.71659e-06 5.55566e-11 4.93644e-17 -5.21705e-30 1.19271e-36 0 0 0 0 0
          0 0 0 0 0 0 0 0 0 0 0 0
          0 3.88462e-24 5.34767e-12 2.27905e-11 4.05659e-11 5.31185e-09 5.02953e-10 1.95073e-08 1.15478e-07 2.18913e-07 3.04154e-07 3.54719e-07
          3.72769e-07 3.59922e-07 1.71543e-07 3.09331e-08 8.74354e-07 7.90019e-07 1.17193e-08 1.73943e-07 1.05429e-08 6.10773e-08 0.00114324 6.52949e-06
          0.00158481 1.08854e-05 0.117304 0.124297 0.12239 0.155231 0.0653818 0.094344 0.0582365 0.0893001 0.0220741 0.0413492
          0.0150857 0.0314322 0.0036061 0.00996003 0.00131694 0.00600912 0.000220262 0.000387653 1.87308e-07 7.78393e-05 5.87428e-07 3.20296e-12
          2.51499e-21 -1.88136e-31 1.70767e-37 0 0 0 0 0 0 0 0 0
          0 0 0 0 0 0 0 3.05457e-37 1.86448e-18 1.50715e-11 2.69514e-12 2.31571e-05
          3.16837e-10 1.66965e-06 3.50048e-07 0.00101893 0.000170417 1.08174e-05 4.57115e-06 0.00144549 0.00113723 2.24553e-05 1.34452e-05 0.00163873
          0.00136587 3.61508e-05 2.45668e-05 0.00180178 0.00155384 4.94021e-05 3.69605e-05 0.00193867 0.00172576 6.19237e-05 4.93929e-05 0.00204827
          0.00187385 7.33507e-05 6.15458e-05 0.00213451 0.0019953 8.33774e-05 7.24063e-05 0.00220724 0.00209016 9.27473e-05 8.18979e-05 0.00228683
          0.00216207 0.000101271 9.03603e-05 0.00235412 0.00222892 0.000108579 9.77234e-05 0.00241497 0.00228802 0.000113955 0.000103286 0.00247043
          0.00234218 0.000116269 0.000106507 0.00252082 0.00239212 0.000117388 0.000108877 0.00256713 0.00243842 0.000117291 0.000109609 0.00261126
          0.00248215 0.000108717 0.000102981 0.00266326 0.00252561 0.000107822 0.000100819 0.00271544 0.00257011 0.00010632 9.96428e-05 0.00276505
          0.00261074 0.000106859 9.87979e-05 0.00278609 0.00264435 0.00157075 0.000104024 0.0028119 0.00262178 0.121585 0.14368 0.124048
          0.21006 0.0438289 0.0830312 0.0262631 0.0610886 0.00872251 0.0207608 0.00383533 0.0109319 0.00057247 0.00273524 8.13948e-05
          0.00104922 1.02173e-05 6.07818e-08 2.44666e-06 7.89901e-13 1.86237e-22 -3.01901e-32 0 0 0 0 0
          0 0 0 0 0 0 0 0 0 0 0 0
          8.71656e-36 5.03084e-19 1.29344e-09 0.00127541 1.41325e-05 5.04075e-05 5.10191e-06 0.0317794 0.0066265 0.00407354 0.00101517 0.133281
          0.0506134 0.0133153 0.00806172 0.259839 0.138231 0.0271223 0.0203223 0.386704 0.261797 0.0450731 0.0373105 0.489141
          0.39234 0.0672644 0.0595274 0.556396 0.488221 0.0935766 0.0868309 0.598093 0.550586 0.124201 0.119387 0.62422
          0.588601 0.158268 0.154904 0.642853 0.610479 0.209169 0.194647 0.656738 0.625846 0.255499 0.238972 0.667709
          0.637939 0.291949 0.277172 0.676281 0.647567 0.315421 0.304973 0.682661 0.654926 0.322162 0.318823 0.686857
          0.659877 0.308914 0.314915 0.688738 0.662191 0.276097 0.291388 0.688768 0.660148 0.228271 0.250058 0.685257
          0.654338 0.168985 0.192792 0.671905 0.641727 0.0980567 0.120922 0.633248 0.613468 0.0364299 0.0663625 0.48302
          0.508899 0.00781659 0.0205575 0.0719433 0.177005 0.00106486 0.00421333 0.0103257 0.0271102 0.000433218 0.00193151 0.00154606
          0.0034601 7.51697e-05 0.00105422 4.09344e-05 0.000151839 5.16231e-08 3.96912e-05 1.48218e-07 1.5237e-13 4.66875e-24 1.7952e-38 0
          0 0 0 0 0 0 0 0 0 0 0 0
          0 0 0 0 0 4.92861e-37 3.30822e-19 6.68663e-11 4.32132e-05 3.61761e-06 4.67273e-05 0.00363036
          0.00107954 0.00368457 0.000923246 0.0112696 0.00716254 0.011121 0.0068069 0.0218691 0.0163855 0.0216226 0.0159577 0.0339285
          0.0277772 0.0335988 0.0274859 0.0455521 0.0397257 0.0446579 0.0393972 0.0549849 0.0502248 0.0527873 0.0491982 0.0616876
          0.0580661 0.0575695 0.0556256 0.0662485 0.0632826 0.0598435 0.0590219 0.0701576 0.0668504 0.0606877 0.0604904 0.0728461
          0.0695705 0.0604519 0.0608438 0.0730624 0.070669 0.0583353 0.0598762 0.0686406 0.0684432 0.0526036 0.0561954 0.0579406
          0.0608035 0.042263 0.0480986 0.0422828 0.0474634 0.0290894 0.0358488 0.0257643 0.0314492 0.0166153 0.0225475 0.0114305
          0.0167524 0.00697301 0.0112614 0.00211298 0.00547259 0.00075767 0.00340153 5.82684e-05 9.67334e-05 1.73666e-05 3.31305e-05 0.00062815
          0.000673119 3.01088e-05 0.00049426 1.21053e-05 4.26214e-05 1.0134e-08 1.19088e-05 3.85501e-09 1.64732e-08 1.34414e-14 2.71718e-12 2.71939e-12
          6.57502e-22 6.40393e-15 6.40393e-15 3.95138e-27 4.7553e-24 0 0 0 0 0 0 0
          0 0 0 0 0 0 0 0 0 0 0 0
          0 0 0 6.49963e-38 5.69716e-18 5.4156e-11 4.31744e-05 7.87914e-07 3.49293e-05 0.00344082 0.00103037 0.00336488
          0.00082228 0.0106355 0.00674617 0.0104114 0.00627994 0.0214083 0.015827 0.0213754 0.0153293 0.0339435 0.0277011 0.0344319
          0.0277341 0.0453798 0.0399997 0.0462153 0.0406834 0.0534236 0.0498681 0.0541909 0.0507626 0.0578192 0.0560045 0.0582787
          0.0566629 0.0596888 0.0589742 0.0598714 0.0592936 0.0602206 0.0600647 0.0602597 0.0601675 0.0597862 0.0601316 0.0597816
          0.0601632 0.0574914 0.0589503 0.057404 0.058976 0.0513799 0.0549976 0.0509194 0.0548402 0.0404242 0.0464565 0.039273
          0.0456406 0.0268668 0.0337947 0.0252011 0.0321355 0.0146347 0.0205077 0.0130511 0.0185717 0.00571243 0.00976771 0.00477984
          0.00822121 0.000545316 0.00259206 0.0001781 0.00182425 2.96592e-07 1.08925e-05 3.61739e-09 3.26252e-06 7.17325e-20 1.18848e-11 1.91095e-15
          4.00343e-27 1.02389e-27 0 0 0 0 0 0 0 0 0 0
          0 0 0 0 0 0 0 0 0 0 0 0
          0 0 0 2.72699e-38 5.72712e-20 2.77739e-10 2.87591e-05 6.9324e-07 1.38335e-05 0.00298923 0.000813487 0.00275148
          0.000583951 0.0096762 0.00603324 0.0092551 0.00540949 0.0209798 0.0150256 0.0207876 0.0142381 0.0348305 0.0279254 0.0353576
          0.0278377 0.0471464 0.0414449 0.0481087 0.0422555 0.0550309 0.0516617 0.0558348 0.0526666 0.0587461 0.057292 0.0591634
          0.057928 0.0600566 0.0595929 0.0602102 0.059856 0.0603341 0.0602771 0.0603929 0.0603619 0.0598667 0.0602219 0.0599363
          0.0602876 0.0574672 0.0590303 0.0574977 0.0591527 0.0505294 0.0546976 0.050097 0.0546413 0.0379012 0.044848 0.0365444
          0.0438884 0.0231597 0.0305663 0.0212327 0.0285362 0.0111891 0.016791 0.00956693 0.0146475 0.0037231 0.00703631 0.00279956
          0.0056716 0.000156533 0.00113307 1.29174e-05 0.000665708 1.12371e-06 7.73168e-10 4.51394e-17 -1.51686e-35 0 0 0
          0 0 0 0 0 0 0 0 0 0 0 0
          0 0 0 0 0 0 0 0 0 0 0 5.06508e-23
          3.45202e-11 1.01198e-05 2.07325e-06 2.01464e-06 0.00224739 0.000460066 0.00185353 0.000285529 0.00825405 0.00494769 0.00759564 0.00416487
          0.0200822 0.0136763 0.0196241 0.0124347 0.0357836 0.0279416 0.0363667 0.0276292 0.0492176 0.0431498 0.050352 0.0441697
          0.0566882 0.0536552 0.057485 0.0547708 0.05954 0.0585064 0.0598592 0.0590542 0.0603307 0.0600753 0.060424 0.0602427
          0.0604402 0.0604255 0.0604796 0.0600357 0.0603394 0.0601169 0.0603919 0.0576385 0.0592485 0.0577399 0.0594222 0.0496492
          0.0545368 0.0491503 0.0545597 0.0347352 0.0429014 0.0329483 0.0415918 0.0187902 0.0265803 0.016474 0.0239441 0.00772517
          0.0126516 0.00621897 0.0102704 0.00189606 0.00450447 0.00101024 0.00329411 7.35312e-05 0.000225835 9.93679e-08 7.95274e-05 2.23275e-07
          3.66199e-13 1.93396e-23 3.28324e-38 0 0 0 0 0 0 0 0 0
          0 0 0 0 0 0 0 0 0 0 0 0
          0 0 0 0 0 0 4.66428e-13 1.52688e-06 1.21628e-06 1.22951e-07 0.00129438 0.000132575
          0.000794927 6.38796e-05 0.00635086 0.00347148 0.00533564 0.00257607 0.018365 0.0114924 0.0174007 0.00955284 0.0368387 0.027559
          0.0375175 0.0267338 0.0517257 0.0452883 0.0531131 0.0467193 0.058289 0.0558476 0.0590076 0.0570358 0.0601117 0.0595294
          0.0603071 0.0599184 0.0604721 0.0603701 0.0605112 0.0604484 0.0605023 0.0605144 0.060224 0.0604303 0.0603138 0.060472
          0.0580043 0.0595682 0.0582282 0.0597978 0.0486041 0.0545309 0.0480021 0.054745 0.0303667 0.0402526 0.0277968 0.0382097
          0.0135644 0.0213885 0.0107715 0.0178572 0.00465038 0.00818444 0.00319173 0.00601602 0.000512074 0.00217089 0.000102986 0.00127199
          1.03126e-05 1.89566e-09 1.36988e-06 1.04309e-15 5.16571e-28 0 0 0 0 0 0 0
          0 0 0 0 0 0 0 0 0 0 0 0
          0 0 0 0 0 0 0 0 0 0 5.6537e-08 0.000432301
          2.54183e-05 0.000191786 1.74559e-05 0.00389032 0.00169973 0.00236687 0.00104026 0.0149659 0.0080456 0.0128108 0.00547918 0.0380759
          0.0262232 0.0389473 0.0237692 0.0548601 0.0482797 0.056584 0.0507279 0.059628 0.0581421 0.0601256 0.0591889 0.0604289
          0.0602234 0.0605068 0.0603977 0.060498 0.0605283 0.060531 0.0604083 0.0604986 0.0604839 0.0586977 0.0599969 0.0591279
          0.060235 0.0472674 0.0549132 0.0464756 0.055708 0.0236961 0.0361077 0.0194127 0.0319604 0.00756517 0.0143195 0.0046628
          0.00956461 0.00197161 0.00402137 0.000827037 0.00239969 6.41061e-05 0.000434911 7.76268e-07 0.000115641 4.39365e-07 7.23631e-11 1.41763e-18
          -2.28111e-34 0 0 0 0 0 0 0 0 0 0 0
          0 0 0 0 0 0 0 0 0 0 0 0
          0 0 0 0 0 0 0 9.72592e-05 1.70064e-05 2.80225e-05 0.00118745 0.000523658
          0.000240959 0.00023188 0.0073948 0.00267968 0.000773374 0.000384468 0.0396487 0.0216216 0.041005 0.00143852 0.0584849 0.0533886
          0.060179 0.0592859 0.0603911 0.0600639 0.0605212 0.0604918 0.0604968 0.0605337 0.0605352 0.0605357 0.0605163 0.060532
          0.0605343 0.059803 0.0604319 0.0604148 0.0605257 0.0451672 0.0565145 0.0438492 0.0597233 0.0118238 0.0274154 0.0019284
          0.0042752 0.00240348 0.00475007 0.000487276 0.000431769 0.000366125 0.000943383 7.82997e-05 0.000137596 2.24103e-05 1.85534e-07 7.97138e-07
          1.54651e-11 1.03e-19 -4.97876e-35 0 0 0 0 0 0 0 0 0
          0 0 0 0 0 0 0 0
        </DataArray>
        <DataArray type="Float32" Name="Sw" NumberOfComponents="1" format="ascii">
          1 1 1 1 1 1 1 1 1 1 1 1
          1 1 1 1 1 1 1 1 1 1 1 1
          1 1 1 1 1 1 1 1 1 1 1 1
          1 1 1 1 1 1 1 1 1 1 1 1
          1 1 1 1 1 1 1 1 1 1 1 1
          1 1 1 1 1 1 1 1 1 1 1 1
          1 1 1 1 1 1 1 1 1 1 1 1
          1 1 1 1 1 1 1 1 1 1 1 1
          1 1 1 1 1 1 1 1 1 1 1 1
          1 1 1 1 1 1 1 1 1 1 1 1
          1 1 1 1 1 1 1 1 1 1 1 1
          1 1 1 1 1 1 1 1 1 1 1 1
          1 1 1 1 1 1 1 1 1 1 1 1
          1 1 1 1 1 1 1 1 1 1 1 1
          1 1 1 1 1 1 1 1 1 1 1 1
          1 1 1 1 1 1 1 1 1 1 1 1
          1 1 1 1 1 1 1 1 1 1 1 1
          1 1 1 1 1 1 1 1 1 1 1 1
          1 1 1 1 1 1 1 1 1 1 1 1
          1 1 1 1 1 1 1 1 1 1 1 1
          1 1 1 1 1 1 1 1 1 1 1 1
          1 1 1 1 1 1 1 1 1 1 1 1
          1 1 1 1 1 1 1 1 1 1 1 1
          1 1 1 1 1 1 1 1 1 1 1 1
          1 1 1 1 1 1 1 1 1 1 1 1
          1 1 1 1 1 1 1 1 1 1 1 1
          1 1 1 1 1 1 1 1 1 1 1 1
          1 1 1 1 1 1 1 1 1 1 1 1
          1 1 1 1 1 1 1 1 1 1 1 1
          1 1 1 1 1 1 1 1 1 1 1 1
          1 1 1 1 1 1 1 1 1 1 1 1
          1 1 1 1 1 1 1 1 1 1 1 1
          1 1 1 1 1 1 1 1 1 1 1 1
          1 1 1 1 1 1 1 1 1 1 1 1
          1 1 1 1 1 1 1 1 1 1 1 1
          1 1 1 1 1 1 1 1 1 1 1 1
          1 1 1 1 1 1 1 1 1 1 1 1
          1 1 1 1 1 1 1 1 1 1 1 1
          1 1 1 1 1 1 1 1 1 1 1 1
          1 1 1 1 1 1 1 1 1 1 1 1
          1 1 1 1 1 1 1 1 1 1 1 1
          1 1 1 1 1 1 1 1 1 1 1 1
          1 1 1 1 1 1 1 1 1 1 1 1
          1 1 1 1 1 1 1 1 1 1 1 1
          1 1 1 1 1 1 1 1 1 1 1 1
          1 1 1 1 1 1 1 1 1 1 1 1
          1 1 1 1 1 1 1 1 1 1 1 1
          1 1 1 1 1 1 1 1 0.999994 1 0.999959 1
          0.999954 0.999995 1 1 1 1 1 1 1 1 1 1
          1 1 1 1 1 1 1 1 1 1 1 1
          1 1 1 1 1 1 1 1 1 1 1 1
          1 1 1 1 1 1 1 1 1 1 0.999991 0.999994
          0.999773 0.999949 0.998771 0.999872 0.998478 0.999892 0.999514 0.999981 1 1 1 1
          1 1 1 1 1 1 1 1 1 1 1 1
          1 1 1 1 1 1 1 1 1 1 1 1
          1 1 1 1 1 1 1 1 1 1 1 1
          1 1 0.999999 0.999991 0.999948 0.999824 0.998036 0.999552 0.998665 0.993244 0.995983 0.996961
          0.9917 0.997305 0.995733 0.99926 0.999368 0.999993 1 1 1 1 1 1
          1 1 1 1 1 1 1 1 1 1 1 1
          1 1 1 1 1 1 1 1 1 1 1 1
          1 1 1 1 1 1 1 1 1 1 1 0.999999
          0.999999 0.999887 0.999969 0.999007 0.999971 0.995219 0.997879 0.990009 0.996173 0.987021 0.990897 0.979265
          0.984507 0.986631 0.979912 0.978761 0.989627 0.988259 0.995888 0.997129 0.999662 0.999898 1 1
          1 1 1 1 1 1 1 1 1 1 1 1
          1 1 1 1 1 1 1 1 1 1 1 1
          1 1 1 1 1 1 1 1 1 1 1 1
          1 1 1 1 1 1 0.998685 0.999768 0.996388 0.999822 0.983999 0.992016
          0.974801 0.987405 0.971051 0.97597 0.962142 0.966965 0.971317 0.969698 0.965242 0.962881 0.978204 0.981263
          0.973379 0.991569 0.994353 0.998768 0.999585 0.999992 0.999998 1 1 1 1 1
          1 1 1 1 1 1 1 1 1 1 1 1
          1 1 1 1 1 1 1 1 1 1 1 1
          1 1 1 1 1 1 1 1 1 1 1 1
          1 1 0.999061 0.999953 0.99971 0.999952 0.964223 0.977944 0.949126 0.956125 0.953691 0.955818
          0.945953 0.945868 0.959446 0.955362 0.955353 0.949909 0.9756 0.967275 0.974369 0.964915 0.987095 0.993596
          0.986463 0.998283 0.999389 0.999983 0.999994 1 1 1 1 1 1 1
          1 1 1 1 1 1 1 1 1 1 1 1
          1 1 1 1 1 1 1 1 1 1 1 1
          1 1 1 1 1 1 1 1 1 1 1 1
          1 0.999602 0.999993 0.999238 0.999993 0.937966 0.940335 0.92975 0.929225 0.939261 0.93731 0.933963
          0.930548 0.951361 0.944203 0.94983 0.940478 0.972205 0.962269 0.972746 0.961581 0.991533 0.984028 0.992927
          0.984892 0.997984 0.99973 0.998379 0.999993 0.999998 1 1 1 1 1 1
          1 1 1 1 1 1 1 1 1 1 1 1
          1 1 1 1 1 1 1 1 1 1 1 1
          1 1 1 1 1 1 1 1 1 1 1 1
          1 0.999368 0.999999 0.999034 0.999999 0.923222 0.925355 0.917239 0.913357 0.92975 0.924954 0.92644
          0.92024 0.948186 0.937552 0.947468 0.935806 0.971859 0.960454 0.974671 0.96123 0.992163 0.985126 0.993939
          0.986657 0.999288 0.998095 0.999898 0.998551 0.999992 1 1 1 1 1 1
          1 1 1 1 1 1 1 1 1 1 1 1
          1 1 1 1 1 1 1 1 1 1 1 1
          1 1 1 1 1 1 1 1 1 1 1 1
          1 1 0.999235 0.999998 0.99889 0.999998 0.912604 0.91445 0.907666 0.900743 0.923979 0.916354
          0.922193 0.913013 0.947873 0.934672 0.948707 0.934615 0.975867 0.961905 0.977441 0.964008 0.993227 0.987238
          0.996312 0.98933 0.999763 0.998987 0.999979 0.999473 0.999999 1 1 1 1 1
          1 1 1 1 1 1 1 1 1 1 1 1
          1 1 1 1 1 1 1 1 1 1 1 1
          1 1 1 1 1 1 1 1 1 1 1 1
          1 0.999135 0.999998 0.998771 0.999998 0.904148 0.905388 0.899686 0.889516 0.921218 0.910344 0.9207
          0.908031 0.950733 0.93495 0.952997 0.936568 0.979896 0.965988 0.982283 0.969305 0.996882 0.990458 0.998127
          0.99262 0.99987 0.999697 0.999996 0.999795 1 1 1 1 1 1 1
          1 1 1 1 1 1 1 1 1 1 1 1
          1 1 1 1 1 1 1 1 1 1 1 1
          1 1 1 1 1 1 1 1 1 1 1 1
          0.999044 0.999986 0.99866 0.999984 0.896755 0.896789 0.8923 0.878038 0.921276 0.90626 0.922169 0.90495
          0.956659 0.938425 0.960267 0.942056 0.985397 0.972302 0.988451 0.976638 0.998577 0.994159 0.999521 0.995979
          0.999981 0.999954 1 0.999976 1 1 1 1 1 1 1 1
          1 1 1 1 1 1 1 1 1 1 1 1
          1 1 1 1 1 1 1 1 1 1 1 1
          1 1 1 1 1 1 1 1 1 1 1 0.99892
          0.999893 0.998437 0.99989 0.889553 0.88735 0.884748 0.862539 0.924925 0.904132 0.92796 0.904596 0.965705
          0.945802 0.970971 0.952186 0.991661 0.980566 0.994285 0.985575 0.999619 0.997586 0.999966 0.998657 0.999998
          0.999997 1 0.999998 1 1 1 1 1 1 1 1 1
          1 1 1 1 1 1 1 1 1 1 1 1
          1 1 1 1 1 1 1 1 1 1 1 1
          1 1 1 1 0.999999 0.999999 1 1 1 1 0.998857 0.999993
          0.998415 0.999989 0.882696 0.875703 0.87761 0.844769 0.934618 0.905656 0.941763 0.9107 0.977926 0.958651
          0.984914 0.968568 0.996394 0.99004 0.998683 0.993991 0.99978 0.999612 1 0.999922 0.999999 1
          1 1 1 1 1 1 1 1 1 1 1 1
          1 1 1 1 1 1 1 1 1 1 1 0.999977
          1 0.999998 1 0.998981 0.99983 0.999989 0.999995 0.998555 0.998863 0.999978 0.999987 0.998361
          0.998634 0.999964 0.999975 0.998198 0.998446 0.999951 0.999963 0.998061 0.998274 0.999938 0.999951 0.997952
          0.998126 0.999927 0.999938 0.997865 0.998005 0.999917 0.999928 0.997793 0.99791 0.999907 0.999918 0.997713
          0.997838 0.999899 0.99991 0.997646 0.997771 0.999891 0.999902 0.997585 0.997712 0.999886 0.999897 0.99753
          0.997658 0.999884 0.999893 0.997479 0.997608 0.999883 0.999891 0.997433 0.997562 0.999883 0.99989 0.997389
          0.997518 0.999891 0.999897 0.997337 0.997474 0.999892 0.999899 0.997285 0.99743 0.999894 0.9999 0.997235
          0.997389 0.999893 0.999901 0.997214 0.997356 0.998429 0.999896 0.997188 0.997378 0.878415 0.85632 0.875952
          0.78994 0.956171 0.916969 0.973737 0.938911 0.991278 0.979239 0.996165 0.989068 0.999428 0.997265 0.999919
          0.998951 0.99999 1 0.999998 1 1 1 1 1 1 1 1
          1 1 1 1 1 1 1 1 1 1 1 1
          1 1 1 0.998725 0.999986 0.99995 0.999995 0.968221 0.993374 0.995926 0.998985 0.866719
          0.949387 0.986685 0.991938 0.740161 0.861769 0.972878 0.979678 0.613296 0.738203 0.954927 0.962689 0.510859
          0.60766 0.932736 0.940473 0.443604 0.511779 0.906423 0.913169 0.401907 0.449414 0.875799 0.880613 0.37578
          0.411399 0.841732 0.845096 0.357147 0.389521 0.790831 0.805353 0.343262 0.374154 0.744501 0.761028 0.332291
          0.362061 0.70805 0.722828 0.323719 0.352433 0.684579 0.695027 0.317339 0.345074 0.677838 0.681177 0.313143
          0.340123 0.691086 0.685085 0.311262 0.337809 0.723903 0.708612 0.311232 0.339852 0.77173 0.749942 0.314743
          0.345662 0.831015 0.807208 0.328095 0.358273 0.901943 0.879078 0.366752 0.386533 0.96357 0.933638 0.51698
          0.491101 0.992183 0.979442 0.928057 0.822995 0.998935 0.995787 0.989674 0.97289 0.999567 0.998069 0.998454
          0.99654 0.999925 0.998946 0.999959 0.999848 1 0.99996 1 1 1 1 1
          1 1 1 1 1 1 1 1 1 1 1 1
          1 1 1 1 1 1 1 1 0.999957 0.999996 0.999953 0.99637
          0.99892 0.996315 0.999077 0.98873 0.992837 0.988879 0.993193 0.978131 0.983615 0.978377 0.984042 0.966071
          0.972223 0.966401 0.972514 0.954448 0.960274 0.955342 0.960603 0.945015 0.949775 0.947213 0.950802 0.938312
          0.941934 0.94243 0.944374 0.933752 0.936717 0.940157 0.940978 0.929842 0.93315 0.939312 0.93951 0.927154
          0.93043 0.939548 0.939156 0.926938 0.929331 0.941665 0.940124 0.931359 0.931557 0.947396 0.943805 0.942059
          0.939196 0.957737 0.951901 0.957717 0.952537 0.970911 0.964151 0.974236 0.968551 0.983385 0.977452 0.98857
          0.983248 0.993027 0.988739 0.997887 0.994527 0.999242 0.996598 0.999942 0.999903 0.999983 0.999967 0.999372
          0.999327 0.99997 0.999506 0.999988 0.999957 1 0.999988 1 1 1 1 1
          1 1 1 1 1 1 1 1 1 1 1 1
          1 1 1 1 1 1 1 1 1 1 1 1
          1 1 1 1 1 1 0.999957 0.999999 0.999965 0.996559 0.99897 0.996635
          0.999178 0.989365 0.993254 0.989589 0.99372 0.978592 0.984173 0.978625 0.984671 0.966056 0.972299 0.965568
          0.972266 0.95462 0.96 0.953785 0.959317 0.946576 0.950132 0.945809 0.949237 0.942181 0.943995 0.941721
          0.943337 0.940311 0.941026 0.940129 0.940706 0.939779 0.939935 0.93974 0.939833 0.940214 0.939868 0.940218
          0.939837 0.942509 0.94105 0.942596 0.941024 0.94862 0.945002 0.949081 0.94516 0.959576 0.953544 0.960727
          0.954359 0.973133 0.966205 0.974799 0.967865 0.985365 0.979492 0.986949 0.981428 0.994288 0.990232 0.99522
          0.991779 0.999455 0.997408 0.999822 0.998176 1 0.999989 1 0.999997 1 1 1
          1 1 1 1 1 1 1 1 1 1 1 1
          1 1 1 1 1 1 1 1 1 1 1 1
          1 1 1 1 1 1 0.999971 0.999999 0.999986 0.997011 0.999187 0.997249
          0.999416 0.990324 0.993967 0.990745 0.994591 0.97902 0.984974 0.979212 0.985762 0.965169 0.972075 0.964642
          0.972162 0.952854 0.958555 0.951891 0.957744 0.944969 0.948338 0.944165 0.947333 0.941254 0.942708 0.940837
          0.942072 0.939943 0.940407 0.93979 0.940144 0.939666 0.939723 0.939607 0.939638 0.940133 0.939778 0.940064
          0.939712 0.942533 0.94097 0.942502 0.940847 0.949471 0.945302 0.949903 0.945359 0.962099 0.955152 0.963456
          0.956112 0.97684 0.969434 0.978767 0.971464 0.988811 0.983209 0.990433 0.985353 0.996277 0.992964 0.9972
          0.994328 0.999843 0.998867 0.999987 0.999334 0.999999 1 1 1 1 1 1
          1 1 1 1 1 1 1 1 1 1 1 1
          1 1 1 1 1 1 1 1 1 1 1 1
          1 0.99999 0.999998 0.999998 0.997753 0.99954 0.998146 0.999714 0.991746 0.995052 0.992404 0.995835
          0.979918 0.986324 0.980376 0.987565 0.964216 0.972058 0.963633 0.972371 0.950782 0.95685 0.949648 0.95583
          0.943312 0.946345 0.942515 0.945229 0.94046 0.941494 0.940141 0.940946 0.939669 0.939925 0.939576 0.939757
          0.93956 0.939574 0.93952 0.939964 0.939661 0.939883 0.939608 0.942362 0.940752 0.94226 0.940578 0.950351
          0.945463 0.95085 0.94544 0.965265 0.957099 0.967052 0.958408 0.98121 0.97342 0.983526 0.976056 0.992275
          0.987348 0.993781 0.98973 0.998104 0.995495 0.99899 0.996706 0.999926 0.999774 1 0.99992 1
          1 1 1 1 1 1 1 1 1 1 1 1
          1 1 1 1 1 1 1 1 1 1 1 1
          1 1 1 1 1 1 1 0.999998 0.999999 1 0.998706 0.999867
          0.999205 0.999936 0.993649 0.996529 0.994664 0.997424 0.981635 0.988508 0.982599 0.990447 0.963161 0.972441
          0.962483 0.973266 0.948274 0.954712 0.946887 0.953281 0.941711 0.944152 0.940992 0.942964 0.939888 0.940471