<?xml version="1.0"?>
<VTKFile type="UnstructuredGrid" version="0.1" byte_order="LittleEndian">
  <UnstructuredGrid>
    <Piece NumberOfCells="4096" NumberOfPoints="4225">
      <CellData Scalars="p" Vectors="velocity">
        <DataArray type="Float32" Name="p" NumberOfComponents="1" format="ascii">
          99997.5 99997.5 99997.5 99997.5 99997.5 99997.4 99997.4 99997.4 99997.4 99997.3 99997.3 99997.3
          99997.3 99997.3 99997.3 99997.3 99997.3 99997.3 99997.3 99997.3 99997.3 99997.4 99997.4 99997.4
          99997.5 99997.5 99997.6 99997.6 99997.7 99997.7 99997.8 99997.8 99997.9 99997.9 99998 99998
          99998.1 99998.1 99998.1 99998.2 99998.2 99998.3 99998.3 99998.3 99998.3 99998.4 99998.4 99998.4
          99998.4 99998.4 99998.4 99998.4 99998.4 99998.4 99998.3 99998.3 99998.3 99998.3 99998.2 99998.2
          99998.2 99998.2 99998.2 99998.2 99997.5 99997.5 99997.5 99997.5 99997.5 99997.4 99997.4 99997.4
          99997.4 99997.4 99997.3 99997.3 99997.3 99997.3 99997.3 99997.3 99997.3 99997.3 99997.3 99997.4
          99997.4 99997.4 99997.4 99997.5 99997.5 99997.5 99997.6 99997.6 99997.7 99997.7 99997.8 99997.8
          99997.9 99997.9 99998 99998 99998 99998.1 99998.1 99998.2 99998.2 99998.2 99998.3 99998.3
          99998.3 99998.3 99998.3 99998.4 99998.4 99998.4 99998.4 99998.4 99998.3 99998.3 99998.3 99998.3
          99998.3 99998.2 99998.2 99998.2 99998.2 99998.2 99998.2 99998.2 99997.5 99997.5 99997.5 99997.5
          99997.5 99997.5 99997.4 99997.4 99997.4 99997.4 99997.4 99997.4 99997.3 99997.3 99997.3 99997.3
          99997.3 99997.4 99997.4 99997.4 99997.4 99997.4 99997.5 99997.5 99997.5 99997.6 99997.6 99997.6
          99997.7 99997.7 99997.8 99997.8 99997.9 99997.9 99997.9 99998 99998 99998.1 99998.1 99998.1
          99998.2 99998.2 99998.2 99998.3 99998.3 99998.3 99998.3 99998.3 99998.3 99998.3 99998.3 99998.3
          99998.3 99998.3 99998.3 99998.3 99998.3 99998.2 99998.2 99998.2 99998.2 99998.2 99998.2 99998.2
          99997.5 99997.5 99997.5 99997.5 99997.5 99997.5 99997.4 99997.4 99997.4 99997.4 99997.4 99997.4
          99997.4 99997.4 99997.4 99997.4 99997.4 99997.4 99997.4 99997.4 99997.4 99997.5 99997.5 99997.5
          99997.5 99997.6 99997.6 99997.6 99997.7 99997.7 99997.8 99997.8 99997.9 99997.9 99997.9 99998
          99998 99998.1 99998.1 99998.1 99998.2 99998.2 99998.2 99998.2 99998.3 99998.3 99998.3 99998.3
          99998.3 99998.3 99998.3 99998.3 99998.3 99998.3 99998.3 99998.2 99998.2 99998.2 99998.2 99998.2
          99998.2 99998.2 99998.1 99998.1 99997.5 99997.5 99997.5 99997.5 99997.5 99997.5 99997.5 99997.4
          99997.4 99997.4 99997.4 99997.4 99997.4 99997.4 99997.4 99997.4 99997.4 99997.4 99997.4 99997.4
          99997.5 99997.5 99997.5 99997.5 99997.6 99997.6 99997.6 99997.7 99997.7 99997.7 99997.8 99997.8
          99997.9 99997.9 99997.9 99998 99998 99998 99998.1 99998.1 99998.1 99998.2 99998.2 99998.2
          99998.2 99998.2 99998.3 99998.3 99998.3 99998.3 99998.3 99998.3 99998.3 99998.3 99998.2 99998.2
          99998.2 99998.2 99998.2 99998.2 99998.2 99998.1 99998.1 99998.1 99997.6 99997.6 99997.5 99997.5
          99997.5 99997.5 99997.5 99997.5 99997.5 99997.4 99997.4 99997.4 99997.4 99997.4 99997.4 99997.4
          99997.4 99997.4 99997.4 99997.5 99997.5 99997.5 99997.5 99997.5 99997.6 99997.6 99997.6 99997.7
          99997.7 99997.7 99997.8 99997.8 99997.9 99997.9 99997.9 99998 99998 99998 99998.1 99998.1
          99998.1 99998.2 99998.2 99998.2 99998.2 99998.2 99998.2 99998.3 99998.3 99998.3 99998.3 99998.3
          99998.2 99998.2 99998.2 99998.2 99998.2 99998.2 99998.2 99998.2 99998.1 99998.1 99998.1 99998.1
          99997.6 99997.6 99997.6 99997.5 99997.5 99997.5 99997.5 99997.5 99997.5 99997.5 99997.4 99997.4
          99997.4 99997.4 99997.4 99997.4 99997.4 99997.4 99997.5 99997.5 99997.5 99997.5 99997.5 99997.6
          99997.6 99997.6 99997.6 99997.7 99997.7 99997.7 99997.8 99997.8 99997.9 99997.9 99997.9 99998
          99998 99998 99998.1 99998.1 99998.1 99998.1 99998.2 99998.2 99998.2 99998.2 99998.2 99998.2
          99998.2 99998.2 99998.2 99998.2 99998.2 99998.2 99998.2 99998.2 99998.2 99998.2 99998.2 99998.1
          99998.1 99998.1 99998.1 99998.1 99997.6 99997.6 99997.6 99997.6 99997.5 99997.5 99997.5 99997.5
          99997.5 99997.5 99997.5 99997.4 99997.4 99997.4 99997.4 99997.4 99997.4 99997.5 99997.5 99997.5
          99997.5 99997.5 99997.5 99997.6 99997.6 99997.6 99997.6 99997.7 99997.7 99997.8 99997.8 99997.8
          99997.9 99997.9 99997.9 99998 99998 99998 99998.1 99998.1 99998.1 99998.1 99998.2 99998.2
          99998.2 99998.2 99998.2 99998.2 99998.2 99998.2 99998.2 99998.2 99998.2 99998.2 99998.2 99998.2
          99998.2 99998.2 99998.1 99998.1 99998.1 99998.1 99998.1 99998 99997.6 99997.6 99997.6 99997.6
          99997.6 99997.5 99997.5 99997.5 99997.5 99997.5 99997.5 99997.5 99997.5 99997.4 99997.4 99997.4
          99997.5 99997.5 99997.5 99997.5 99997.5 99997.5 99997.5 99997.6 99997.6 99997.6 99997.7 99997.7
          99997.7 99997.8 99997.8 99997.8 99997.9 99997.9 99997.9 99998 99998 99998 99998 99998.1
          99998.1 99998.1 99998.1 99998.2 99998.2 99998.2 99998.2 99998.2 99998.2 99998.2 99998.2 99998.2
          99998.2 99998.2 99998.2 99998.2 99998.2 99998.1 99998.1 99998.1 99998.1 99998.1 99998 99998
          99997.7 99997.6 99997.6 99997.6 99997.6 99997.6 99997.5 99997.5 99997.5 99997.5 99997.5 99997.5
          99997.5 99997.5 99997.5 99997.5 99997.5 99997.5 99997.5 99997.5 99997.5 99997.5 99997.6 99997.6
          99997.6 99997.6 99997.7 99997.7 99997.7 99997.8 99997.8 99997.8 99997.9 99997.9 99997.9 99998
          99998 99998 99998 99998.1 99998.1 99998.1 99998.1 99998.2 99998.2 99998.2 99998.2 99998.2
          99998.2 99998.2 99998.2 99998.2 99998.2 99998.2 99998.2 99998.2 99998.2 99998.1 99998.1 99998.1
          99998.1 99998 99998 99998 99997.7 99997.7 99997.6 99997.6 99997.6 99997.6 99997.5 99997.5
          99997.5 99997.5 99997.5 99997.5 99997.5 99997.5 99997.5 99997.5 99997.5 99997.5 99997.5 99997.5
          99997.5 99997.5 99997.6 99997.6 99997.6 99997.6 99997.7 99997.7 99997.7 99997.8 99997.8 99997.8
          99997.9 99997.9 99997.9 99997.9 99998 99998 99998 99998.1 99998.1 99998.1 99998.1 99998.2
          99998.2 99998.2 99998.2 99998.2 99998.2 99998.2 99998.2 99998.2 99998.2 99998.2 99998.2 99998.2
          99998.1 99998.1 99998.1 99998.1 99998.1 99998 99998 99998 99997.7 99997.7 99997.7 99997.6
          99997.6 99997.6 99997.5 99997.5 99997.5 99997.5 99997.5 99997.5 99997.5 99997.5 99997.5 99997.5
          99997.5 99997.5 99997.5 99997.5 99997.5 99997.5 99997.6 99997.6 99997.6 99997.6 99997.7 99997.7
          99997.7 99997.8 99997.8 99997.8 99997.9 99997.9 99997.9 99997.9 99998 99998 99998 99998.1
          99998.1 99998.1 99998.1 99998.1 99998.2 99998.2 99998.2 99998.2 99998.2 99998.2 99998.2 99998.2
          99998.2 99998.2 99998.2 99998.2 99998.1 99998.1 99998.1 99998.1 99998 99998 99998 99997.9
          99997.7 99997.7 99997.7 99997.6 99997.6 99997.6 99997.6 99997.5 99997.5 99997.5 99997.5 99997.5
          99997.5 99997.5 99997.5 99997.5 99997.5 99997.5 99997.5 99997.5 99997.5 99997.5 99997.6 99997.6
          99997.6 99997.6 99997.7 99997.7 99997.7 99997.8 99997.8 99997.8 99997.9 99997.9 99997.9 99997.9
          99998 99998 99998 99998.1 99998.1 99998.1 99998.1 99998.2 99998.2 99998.2 99998.2 99998.2
          99998.2 99998.2 99998.2 99998.2 99998.2 99998.2 99998.2 99998.2 99998.1 99998.1 99998.1 99998.1
          99998 99998 99998 99997.9 99997.8 99997.7 99997.7 99997.6 99997.6 99997.6 99997.6 99997.5
          99997.5 99997.5 99997.5 99997.5 99997.5 99997.5 99997.5 99997.5 99997.5 99997.5 99997.5 99997.5
          99997.5 99997.5 99997.6 99997.6 99997.6 99997.6 99997.7 99997.7 99997.7 99997.8 99997.8 99997.8
          99997.9 99997.9 99997.9 99997.9 99998 99998 99998 99998.1 99998.1 99998.1 99998.1 99998.2
          99998.2 99998.2 99998.2 99998.2 99998.2 99998.2 99998.2 99998.2 99998.2 99998.2 99998.2 99998.2
          99998.1 99998.1 99998.1 99998.1 99998 99998 99998 99997.9 99997.8 99997.7 99997.7 99997.6
          99997.6 99997.6 99997.6 99997.5 99997.5 99997.5 99997.5 99997.5 99997.5 99997.5 99997.4 99997.5
          99997.5 99997.5 99997.5 99997.5 99997.5 99997.5 99997.5 99997.6 99997.6 99997.6 99997.7 99997.7
          99997.7 99997.8 99997.8 99997.8 99997.9 99997.9 99997.9 99998 99998 99998 99998 99998.1
          99998.1 99998.1 99998.1 99998.2 99998.2 99998.2 99998.2 99998.2 99998.2 99998.2 99998.2 99998.2
          99998.2 99998.2 99998.2 99998.2 99998.1 99998.1 99998.1 99998.1 99998 99998 99997.9 99997.9
          99997.8 99997.7 99997.7 99997.6 99997.6 99997.6 99997.5 99997.5 99997.5 99997.5 99997.5 99997.5
          99997.4 99997.4 99997.4 99997.4 99997.4 99997.5 99997.5 99997.5 99997.5 99997.5 99997.5 99997.6
          99997.6 99997.6 99997.6 99997.7 99997.7 99997.8 99997.8 99997.8 99997.9 99997.9 99997.9 99998
          99998 99998 99998 99998.1 99998.1 99998.1 99998.1 99998.2 99998.2 99998.2 99998.2 99998.2
          99998.2 99998.2 99998.2 99998.2 99998.2 99998.2 99998.2 99998.2 99998.1 99998.1 99998.1 99998.1
          99998 99998 99997.9 99997.9 99997.8 99997.7 99997.7 99997.6 99997.6 99997.6 99997.5 99997.5
          99997.5 99997.5 99997.5 99997.4 99997.4 99997.4 99997.4 99997.4 99997.4 99997.4 99997.5 99997.5
          99997.5 99997.5 99997.5 99997.6 99997.6 99997.6 99997.6 99997.7 99997.7 99997.7 99997.8 99997.8
          99997.9 99997.9 99997.9 99998 99998 99998 99998.1 99998.1 99998.1 99998.1 99998.2 99998.2
          99998.2 99998.2 99998.2 99998.2 99998.2 99998.2 99998.2 99998.2 99998.2 99998.2 99998.2 99998.2
          99998.2 99998.1 99998.1 99998.1 99998 99998 99997.9 99997.9 99997.8 99997.7 99997.7 99997.6
          99997.6 99997.6 99997.5 99997.5 99997.5 99997.5 99997.4 99997.4 99997.4 99997.4 99997.4 99997.4
          99997.4 99997.4 99997.4 99997.5 99997.5 99997.5 99997.5 99997.5 99997.6 99997.6 99997.6 99997.7
          99997.7 99997.7 99997.8 99997.8 99997.9 99997.9 99997.9 99998 99998 99998 99998.1 99998.1
          99998.1 99998.1 99998.2 99998.2 99998.2 99998.2 99998.2 99998.2 99998.3 99998.3 99998.3 99998.3
          99998.2 99998.2 99998.2 99998.2 99998.2 99998.1 99998.1 99998.1 99998 99998 99997.9 99997.9
          99997.8 99997.7 99997.7 99997.6 99997.6 99997.5 99997.5 99997.5 99997.5 99997.4 99997.4 99997.4
          99997.4 99997.4 99997.4 99997.4 99997.4 99997.4 99997.4 99997.4 99997.5 99997.5 99997.5 99997.5
          99997.6 99997.6 99997.6 99997.7 99997.7 99997.7 99997.8 99997.8 99997.9 99997.9 99997.9 99998
          99998 99998 99998.1 99998.1 99998.1 99998.2 99998.2 99998.2 99998.2 99998.2 99998.3 99998.3
          99998.3 99998.3 99998.3 99998.3 99998.3 99998.2 99998.2 99998.2 99998.2 99998.2 99998.1 99998.1
          99998 99998 99997.9 99997.9 99997.8 99997.7 99997.7 99997.6 99997.6 99997.5 99997.5 99997.5
          99997.4 99997.4 99997.4 99997.4 99997.4 99997.4 99997.4 99997.4 99997.4 99997.4 99997.4 99997.4
          99997.4 99997.5 99997.5 99997.5 99997.5 99997.6 99997.6 99997.6 99997.7 99997.7 99997.8 99997.8
          99997.9 99997.9 99997.9 99998 99998 99998 99998.1 99998.1 99998.1 99998.2 99998.2 99998.2
          99998.2 99998.3 99998.3 99998.3 99998.3 99998.3 99998.3 99998.3 99998.3 99998.3 99998.3 99998.2
          99998.2 99998.2 99998.1 99998.1 99998 99998 99997.9 99997.9 99997.8 99997.7 99997.6 99997.6
          99997.5 99997.5 99997.5 99997.4 99997.4 99997.4 99997.4 99997.3 99997.3 99997.3 99997.3 99997.3
          99997.3 99997.4 99997.4 99997.4 99997.4 99997.4 99997.5 99997.5 99997.5 99997.6 99997.6 99997.6
          99997.7 99997.7 99997.8 99997.8 99997.9 99997.9 99997.9 99998 99998 99998.1 99998.1 99998.1
          99998.2 99998.2 99998.2 99998.2 99998.3 99998.3 99998.3 99998.3 99998.3 99998.3 99998.3 99998.3
          99998.3 99998.3 99998.3 99998.3 99998.2 99998.2 99998.2 99998.1 99998.1 99998 99998 99997.9
          99997.8 99997.7 99997.6 99997.6 99997.5 99997.5 99997.4 99997.4 99997.4 99997.3 99997.3 99997.3
          99997.3 99997.3 99997.3 99997.3 99997.3 99997.3 99997.3 99997.4 99997.4 99997.4 99997.4 99997.5
          99997.5 99997.5 99997.6 99997.6 99997.7 99997.7 99997.8 99997.8 99997.9 99997.9 99997.9 99998
          99998 99998.1 99998.1 99998.1 99998.2 99998.2 99998.2 99998.3 99998.3 99998.3 99998.3 99998.4
          99998.4 99998.4 99998.4 99998.4 99998.4 99998.3 99998.3 99998.3 99998.3 99998.2 99998.2 99998.1
          99998.1 99998 99998 99997.9 99997.7 99997.7 99997.6 99997.5 99997.5 99997.4 99997.4 99997.4
          99997.3 99997.3 99997.3 99997.3 99997.3 99997.3 99997.3 99997.3 99997.3 99997.3 99997.3 99997.3
          99997.4 99997.4 99997.4 99997.5 99997.5 99997.5 99997.6 99997.6 99997.7 99997.7 99997.8 99997.8
          99997.9 99997.9 99997.9 99998 99998 99998.1 99998.1 99998.2 99998.2 99998.2 99998.3 99998.3
          99998.3 99998.4 99998.4 99998.4 99998.4 99998.4 99998.4 99998.4 99998.4 99998.4 99998.4 99998.3
          99998.3 99998.3 99998.2 99998.2 99998.1 99998.1 99998 99997.9 99997.7 99997.6 99997.6 99997.5
          99997.4 99997.4 99997.4 99997.3 99997.3 99997.2 99997.2 99997.2 99997.2 99997.2 99997.2 99997.2
          99997.2 99997.2 99997.3 99997.3 99997.3 99997.4 99997.4 99997.4 99997.5 99997.5 99997.6 99997.6
          99997.6 99997.7 99997.8 99997.8 99997.9 99997.9 99998 99998 99998 99998.1 99998.1 99998.2
          99998.2 99998.3 99998.3 99998.3 99998.4 99998.4 99998.4 99998.4 99998.4 99998.4 99998.5 99998.5
          99998.4 99998.4 99998.4 99998.4 99998.4 99998.3 99998.3 99998.2 99998.2 99998.1 99998 99997.9
          99997.7 99997.6 99997.5 99997.5 99997.4 99997.3 99997.3 99997.3 99997.2 99997.2 99997.2 99997.2
          99997.2 99997.2 99997.2 99997.2 99997.2 99997.2 99997.2 99997.3 99997.3 99997.3 99997.4 99997.4
          99997.4 99997.5 99997.5 99997.6 99997.6 99997.7 99997.7 99997.8 99997.9 99997.9 99998 99998
          99998.1 99998.1 99998.2 99998.2 99998.2 99998.3 99998.3 99998.4 99998.4 99998.4 99998.5 99998.5
          99998.5 99998.5 99998.5 99998.5 99998.5 99998.5 99998.5 99998.4 99998.4 99998.4 99998.3 99998.3
          99998.2 99998.1 99998.1 99998 99997.6 99997.6 99997.5 99997.4 99997.3 99997.3 99997.2 99997.2
          99997.2 99997.1 99997.1 99997.1 99997.1 99997.1 99997.1 99997.1 99997.1 99997.2 99997.2 99997.2
          99997.2 99997.3 99997.3 99997.4 99997.4 99997.5 99997.5 99997.6 99997.6 99997.7 99997.7 99997.8
          99997.9 99997.9 99998 99998 99998.1 99998.1 99998.2 99998.2 99998.3 99998.3 99998.4 99998.4
          99998.4 99998.5 99998.5 99998.5 99998.5 99998.5 99998.6 99998.6 99998.5 99998.5 99998.5 99998.5
          99998.5 99998.4 99998.4 99998.3 99998.2 99998.2 99998.1 99998 99997.6 99997.5 99997.4 99997.4
          99997.3 99997.2 99997.2 99997.1 99997.1 99997.1 99997.1 99997 99997 99997 99997 99997.1
          99997.1 99997.1 99997.1 99997.2 99997.2 99997.2 99997.3 99997.3 99997.4 99997.4 99997.5 99997.6
          99997.6 99997.7 99997.7 99997.8 99997.9 99997.9 99998 99998 99998.1 99998.1 99998.2 99998.3
          99998.3 99998.4 99998.4 99998.4 99998.5 99998.5 99998.5 99998.6 99998.6 99998.6 99998.6 99998.6
          99998.6 99998.6 99998.6 99998.6 99998.5 99998.5 99998.4 99998.4 99998.3 99998.2 99998.1 99998.1
          99997.5 99997.4 99997.4 99997.3 99997.2 99997.2 99997.1 99997.1 99997 99997 99997 99997
          99997 99997 99997 99997 99997 99997 99997.1 99997.1 99997.2 99997.2 99997.2 99997.3
          99997.4 99997.4 99997.5 99997.5 99997.6 99997.7 99997.7 99997.8 99997.9 99997.9 99998 99998
          99998.1 99998.2 99998.2 99998.3 99998.3 99998.4 99998.4 99998.5 99998.5 99998.6 99998.6 99998.6
          99998.7 99998.7 99998.7 99998.7 99998.7 99998.7 99998.7 99998.6 99998.6 99998.5 99998.5 99998.4
          99998.4 99998.3 99998.2 99998.1 99997.5 99997.4 99997.3 99997.2 99997.1 99997.1 99997 99997
          99996.9 99996.9 99996.9 99996.9 99996.9 99996.9 99996.9 99996.9 99997 99997 99997 99997.1
          99997.1 99997.2 99997.2 99997.3 99997.3 99997.4 99997.4 99997.5 99997.6 99997.6 99997.7 99997.8
          99997.9 99997.9 99998 99998.1 99998.1 99998.2 99998.2 99998.3 99998.4 99998.4 99998.5 99998.5
          99998.6 99998.6 99998.7 99998.7 99998.7 99998.7 99998.8 99998.8 99998.8 99998.8 99998.7 99998.7
          99998.7 99998.6 99998.6 99998.5 99998.4 99998.4 99998.3 99998.2 99997.4 99997.3 99997.2 99997.1
          99997.1 99997 99996.9 99996.9 99996.9 99996.8 99996.8 99996.8 99996.8 99996.8 99996.8 99996.9
          99996.9 99996.9 99997 99997 99997 99997.1 99997.2 99997.2 99997.3 99997.3 99997.4 99997.5
          99997.6 99997.6 99997.7 99997.8 99997.9 99997.9 99998 99998.1 99998.1 99998.2 99998.3 99998.4
          99998.4 99998.5 99998.5 99998.6 99998.6 99998.7 99998.7 99998.8 99998.8 99998.8 99998.8 99998.8
          99998.8 99998.8 99998.8 99998.8 99998.8 99998.7 99998.7 99998.6 99998.5 99998.4 99998.3 99998.2
          99997.3 99997.2 99997.1 99997 99997 99996.9 99996.8 99996.8 99996.8 99996.7 99996.7 99996.7
          99996.7 99996.7 99996.8 99996.8 99996.8 99996.8 99996.9 99996.9 99997 99997 99997.1 99997.2
          99997.2 99997.3 99997.4 99997.5 99997.5 99997.6 99997.7 99997.8 99997.9 99997.9 99998 99998.1
          99998.2 99998.2 99998.3 99998.4 99998.5 99998.5 99998.6 99998.6 99998.7 99998.8 99998.8 99998.8
          99998.9 99998.9 99998.9 99998.9 99998.9 99998.9 99998.9 99998.9 99998.9 99998.8 99998.8 99998.7
          99998.6 99998.5 99998.4 99998.3 99997.2 99997.1 99997 99996.9 99996.9 99996.8 99996.7 99996.7
          99996.6 99996.6 99996.6 99996.6 99996.6 99996.6 99996.7 99996.7 99996.7 99996.8 99996.8 99996.9
          99996.9 99997 99997.1 99997.1 99997.2 99997.3 99997.4 99997.4 99997.5 99997.6 99997.7 99997.8
          99997.9 99997.9 99998 99998.1 99998.2 99998.3 99998.3 99998.4 99998.5 99998.6 99998.6 99998.7
          99998.8 99998.8 99998.9 99998.9 99999 99999 99999 99999 99999 99999 99999 99999
          99999 99998.9 99998.9 99998.8 99998.7 99998.6 99998.5 99998.4 99997.1 99997 99996.9 99996.8
          99996.7 99996.7 99996.6 99996.6 99996.5 99996.5 99996.5 99996.5 99996.5 99996.5 99996.6 99996.6
          99996.6 99996.7 99996.7 99996.8 99996.9 99996.9 99997 99997.1 99997.2 99997.2 99997.3 99997.4
          99997.5 99997.6 99997.7 99997.8 99997.9 99997.9 99998 99998.1 99998.2 99998.3 99998.4 99998.5
          99998.5 99998.6 99998.7 99998.8 99998.8 99998.9 99999 99999 99999.1 99999.1 99999.1 99999.1
          99999.1 99999.1 99999.1 99999.1 99999.1 99999 99999 99998.9 99998.8 99998.7 99998.6 99998.5
          99997 99996.9 99996.8 99996.7 99996.6 99996.5 99996.5 99996.4 99996.4 99996.4 99996.4 99996.4
          99996.4 99996.4 99996.4 99996.5 99996.5 99996.6 99996.6 99996.7 99996.8 99996.9 99996.9 99997
          99997.1 99997.2 99997.3 99997.4 99997.5 99997.6 99997.7 99997.8 99997.8 99997.9 99998 99998.1
          99998.2 99998.3 99998.4 99998.5 99998.6 99998.7 99998.8 99998.8 99998.9 99999 99999 99999.1
          99999.2 99999.2 99999.2 99999.3 99999.3 99999.3 99999.3 99999.2 99999.2 99999.2 99999.1 99999
          99999 99998.9 99998.8 99998.6 99996.9 99996.8 99996.6 99996.5 99996.5 99996.4 99996.3 99996.3
          99996.2 99996.2 99996.2 99996.2 99996.3 99996.3 99996.3 99996.4 99996.4 99996.5 99996.6 99996.6
          99996.7 99996.8 99996.9 99997 99997.1 99997.1 99997.2 99997.3 99997.4 99997.5 99997.6 99997.7
          99997.8 99997.9 99998.1 99998.2 99998.2 99998.4 99998.5 99998.5 99998.6 99998.7 99998.8 99998.9
          99999 99999.1 99999.1 99999.2 99999.3 99999.3 99999.4 99999.4 99999.4 99999.4 99999.4 99999.4
          99999.4 99999.3 99999.3 99999.2 99999.1 99999 99998.9 99998.8 99996.8 99996.6 99996.5 99996.4
          99996.3 99996.2 99996.2 99996.1 99996.1 99996.1 99996.1 99996.1 99996.1 99996.2 99996.2 99996.3
          99996.3 99996.4 99996.5 99996.5 99996.6 99996.7 99996.8 99996.9 99997 99997.1 99997.2 99997.3
          99997.4 99997.5 99997.6 99997.7 99997.8 99998 99998.1 99998.2 99998.3 99998.4 99998.5 99998.6
          99998.7 99998.8 99998.9 99999 99999.1 99999.2 99999.2 99999.3 99999.4 99999.4 99999.5 99999.5
          99999.5 99999.6 99999.6 99999.5 99999.5 99999.5 99999.4 99999.4 99999.3 99999.1 99999 99998.9
          99996.6 99996.4 99996.3 99996.2 99996.1 99996 99996 99995.9 99995.9 99995.9 99995.9 99995.9
          99996 99996 99996.1 99996.1 99996.2 99996.3 99996.4 99996.4 99996.5 99996.6 99996.7 99996.8
          99996.9 99997.1 99997.2 99997.3 99997.4 99997.5 99997.6 99997.7 99997.8 99998 99998.1 99998.2
          99998.3 99998.4 99998.5 99998.6 99998.8 99998.9 99999 99999.1 99999.2 99999.3 99999.3 99999.4
          99999.5 99999.6 99999.6 99999.7 99999.7 99999.7 99999.7 99999.7 99999.7 99999.7 99999.6 99999.5
          99999.4 99999.3 99999.2 99999 99996.4 99996.3 99996.1 99996 99995.9 99995.9 99995.8 99995.8
          99995.7 99995.7 99995.7 99995.8 99995.8 99995.9 99995.9 99996 99996.1 99996.2 99996.2 99996.3
          99996.4 99996.6 99996.7 99996.8 99996.9 99997 99997.1 99997.2 99997.4 99997.5 99997.6 99997.7
          99997.8 99998 99998.1 99998.2 99998.3 99998.5 99998.6 99998.7 99998.8 99998.9 99999 99999.1
          99999.3 99999.4 99999.5 99999.5 99999.6 99999.7 99999.8 99999.8 99999.9 99999.9 99999.9 99999.9
          99999.9 99999.9 99999.8 99999.7 99999.6 99999.5 99999.4 99999.2 99996.2 99996.1 99995.9 99995.8
          99995.7 99995.6 99995.6 99995.5 99995.5 99995.5 99995.6 99995.6 99995.6 99995.7 99995.8 99995.9
          99995.9 99996 99996.1 99996.2 99996.4 99996.5 99996.6 99996.7 99996.8 99997 99997.1 99997.2
          99997.3 99997.5 99997.6 99997.7 99997.8 99998 99998.1 99998.2 99998.4 99998.5 99998.6 99998.7
          99998.9 99999 99999.1 99999.2 99999.4 99999.5 99999.6 99999.7 99999.8 99999.9 99999.9 100000
          100000 100000 100000 100000 100000 100000 100000 99999.9 99999.8 99999.7 99999.6 99999.4
          99996 99995.8 99995.7 99995.6 99995.5 99995.4 99995.3 99995.3 99995.3 99995.3 99995.4 99995.4
          99995.5 99995.5 99995.6 99995.7 99995.8 99995.9 99996 99996.1 99996.3 99996.4 99996.5 99996.6
          99996.8 99996.9 99997 99997.2 99997.3 99997.4 99997.6 99997.7 99997.8 99998 99998.1 99998.2
          99998.4 99998.5 99998.7 99998.8 99998.9 99999.1 99999.2 99999.3 99999.5 99999.6 99999.7 99999.8
          99999.9 100000 100000 100000 100000 100000 100000 100000 100000 100000 100000 100000
          100000 99999.9 99999.8 99999.6 99995.8 99995.6 99995.4 99995.3 99995.2 99995.1 99995.1 99995.1
          99995.1 99995.1 99995.1 99995.2 99995.3 99995.3 99995.4 99995.5 99995.6 99995.8 99995.9 99996
          99996.2 99996.3 99996.4 99996.6 99996.7 99996.8 99997 99997.1 99997.3 99997.4 99997.6 99997.7
          99997.8 99998 99998.1 99998.3 99998.4 99998.6 99998.7 99998.9 99999 99999.1 99999.3 99999.4
          99999.6 99999.7 99999.8 100000 100000 100000 100000 100000 100000 100001 100001 100001
          100001 100001 100000 100000 100000 100000 100000 99999.9 99995.5 99995.3 99995.2 99995
          99994.9 99994.9 99994.8 99994.8 99994.8 99994.8 99994.9 99995 99995 99995.1 99995.2 99995.4
          99995.5 99995.6 99995.8 99995.9 99996 99996.2 99996.3 99996.5 99996.6 99996.8 99996.9 99997.1
          99997.2 99997.4 99997.5 99997.7 99997.8 99998 99998.1 99998.3 99998.4 99998.6 99998.8 99998.9
          99999.1 99999.2 99999.4 99999.5 99999.7 99999.8 100000 100000 100000 100000 100000 100001
          100001 100001 100001 100001 100001 100001 100001 100001 100001 100000 100000 100000
          99995.2 99995 99994.8 99994.7 99994.6 99994.5 99994.5 99994.5 99994.5 99994.6 99994.6 99994.7
          99994.8 99994.9 99995.1 99995.2 99995.3 99995.5 99995.6 99995.8 99995.9 99996.1 99996.3 99996.4
          99996.6 99996.7 99996.9 99997.1 99997.2 99997.4 99997.5 99997.7 99997.8 99998 99998.2 99998.3
          99998.5 99998.6 99998.8 99999 99999.1 99999.3 99999.5 99999.6 99999.8 99999.9 100000 100000
          100000 100001 100001 100001 100001 100001 100001 100001 100001 100001 100001 100001
          100001 100001 100001 100000 99994.9 99994.7 99994.5 99994.4 99994.3 99994.2 99994.2 99994.2
          99994.2 99994.3 99994.4 99994.5 99994.6 99994.7 99994.9 99995 99995.2 99995.3 99995.5 99995.7
          99995.8 99996 99996.2 99996.3 99996.5 99996.7 99996.9 99997 99997.2 99997.3 99997.5 99997.7
          99997.8 99998 99998.2 99998.3 99998.5 99998.7 99998.8 99999 99999.2 99999.4 99999.5 99999.7
          99999.9 100000 100000 100000 100001 100001 100001 100001 100001 100001 100001 100001
          100001 100001 100001 100001 100001 100001 100001 100001 99994.5 99994.3 99994.1 99994
          99993.9 99993.8 99993.8 99993.8 99993.9 99994 99994.1 99994.2 99994.3 99994.5 99994.6 99994.8
          99995 99995.2 99995.4 99995.5 99995.7 99995.9 99996.1 99996.3 99996.5 99996.6 99996.8 99997
          99997.1 99997.3 99997.5 99997.7 99997.8 99998 99998.2 99998.4 99998.5 99998.7 99998.9 99999.1
          99999.3 99999.4 99999.6 99999.8 100000 100000 100000 100001 100001 100001 100001 100001
          100001 100002 100002 100002 100002 100002 100002 100002 100002 100002 100001 100001
          99994.1 99993.9 99993.7 99993.5 99993.4 99993.4 99993.4 99993.4 99993.5 99993.6 99993.7 99993.9
          99994.1 99994.2 99994.4 99994.6 99994.8 99995 99995.2 99995.4 99995.6 99995.8 99996 99996.2
          99996.4 99996.6 99996.8 99996.9 99997.1 99997.3 99997.5 99997.7 99997.8 99998 99998.2 99998.4
          99998.6 99998.8 99998.9 99999.1 99999.3 99999.5 99999.7 99999.9 100000 100000 100001 100001
          100001 100001 100001 100002 100002 100002 100002 100002 100002 100002 100002 100002
          100002 100002 100002 100002 99993.7 99993.4 99993.2 99993 99993 99992.9 99992.9 99993
          99993.1 99993.2 99993.4 99993.6 99993.8 99994 99994.2 99994.4 99994.6 99994.9 99995.1 99995.3
          99995.5 99995.7 99995.9 99996.1 99996.3 99996.5 99996.7 99996.9 99997.1 99997.3 99997.5 99997.7
          99997.8 99998 99998.2 99998.4 99998.6 99998.8 99999 99999.2 99999.4 99999.6 99999.8 100000
          100000 100000 100001 100001 100001 100001 100002 100002 100002 100002 100002 100003
          100003 100003 100003 100003 100003 100002 100002 100002 99993.2 99992.9 99992.7 99992.5
          99992.4 99992.4 99992.5 99992.5 99992.7 99992.9 99993.1 99993.3 99993.5 99993.7 99994 99994.2
          99994.5 99994.7 99995 99995.2 99995.4 99995.6 99995.9 99996.1 99996.3 99996.5 99996.7 99996.9
          99997.1 99997.3 99997.5 99997.6 99997.8 99998 99998.2 99998.4 99998.6 99998.8 99999 99999.2
          99999.4 99999.7 99999.9 100000 100000 100001 100001 100001 100001 100002 100002 100002
          100002 100003 100003 100003 100003 100003 100003 100003 100003 100003 100003 100002
          99992.6 99992.3 99992 99991.9 99991.8 99991.8 99991.9 99992 99992.2 99992.4 99992.7 99992.9
          99993.2 99993.5 99993.8 99994 99994.3 99994.6 99994.8 99995.1 99995.3 99995.6 99995.8 99996
          99996.2 99996.4 99996.7 99996.9 99997.1 99997.2 99997.4 99997.6 99997.8 99998 99998.2 99998.4
          99998.6 99998.8 99999 99999.3 99999.5 99999.7 100000 100000 100000 100001 100001 100001
          100002 100002 100002 100002 100003 100003 100003 100003 100004 100004 100004 100004
          100004 100004 100003 100003 99991.9 99991.6 99991.3 99991.2 99991.1 99991.2 99991.3 99991.5
          99991.7 99992 99992.3 99992.6 99992.9 99993.2 99993.5 99993.8 99994.1 99994.4 99994.7 99995
          99995.2 99995.5 99995.7 99996 99996.2 99996.4 99996.6 99996.8 99997 99997.2 99997.4 99997.6
          99997.8 99998 99998.2 99998.4 99998.6 99998.9 99999.1 99999.3 99999.5 99999.8 100000 100000
          100001 100001 100001 100001 100002 100002 100002 100003 100003 100003 100004 100004
          100004 100004 100004 100005 100004 100004 100004 100004 99991.2 99990.8 99990.5 99990.4
          99990.4 99990.5 99990.6 99990.9 99991.2 99991.5 99991.9 99992.2 99992.6 99993 99993.3 99993.7
          99994 99994.3 99994.6 99994.9 99995.2 99995.4 99995.7 99995.9 99996.2 99996.4 99996.6 99996.8
          99997 99997.2 99997.4 99997.6 99997.8 99998 99998.2 99998.5 99998.7 99998.9 99999.1 99999.3
          99999.6 99999.8 100000 100000 100001 100001 100001 100002 100002 100002 100003 100003
          100003 100004 100004 100004 100005 100005 100005 100005 100005 100005 100005 100005
          99990.3 99989.9 99989.6 99989.5 99989.5 99989.7 99989.9 99990.2 99990.6 99991 99991.5 99991.9
          99992.3 99992.7 99993.1 99993.5 99993.8 99994.2 99994.5 99994.8 99995.1 99995.4 99995.6 99995.9
          99996.1 99996.4 99996.6 99996.8 99997 99997.2 99997.4 99997.6 99997.8 99998 99998.2 99998.5
          99998.7 99998.9 99999.1 99999.4 99999.6 99999.9 100000 100000 100001 100001 100001 100002
          100002 100002 100003 100003 100004 100004 100005 100005 100005 100006 100006 100006
          100006 100006 100006 100005 99989.3 99988.8 99988.5 99988.4 99988.5 99988.8 99989.1 99989.5
          99990 99990.5 99991 99991.5 99992 99992.5 99992.9 99993.3 99993.7 99994.1 99994.4 99994.8
          99995.1 99995.4 99995.6 99995.9 99996.1 99996.4 99996.6 99996.8 99997 99997.2 99997.4 99997.6
          99997.8 99998 99998.2 99998.5 99998.7 99998.9 99999.1 99999.4 99999.6 99999.9 100000 100000
          100001 100001 100001 100002 100002 100003 100003 100004 100004 100005 100005 100006
          100006 100007 100007 100007 100007 100007 100007 100006 99988 99987.5 99987.2 99987.2
          99987.4 99987.8 99988.2 99988.8 99989.4 99990 99990.6 99991.2 99991.7 99992.3 99992.8 99993.2
          99993.6 99994 99994.4 99994.7 99995 99995.3 99995.6 99995.9 99996.1 99996.4 99996.6 99996.8
          99997 99997.2 99997.4 99997.6 99997.8 99998 99998.2 99998.5 99998.7 99998.9 99999.1 99999.4
          99999.6 99999.9 100000 100000 100001 100001 100002 100002 100002 100003 100003 100004
          100004 100005 100006 100006 100007 100007 100008 100008 100009 100009 100008 100008