<?xml version="1.0"?>
<VTKFile type="UnstructuredGrid" version="0.1" byte_order="LittleEndian">
  <UnstructuredGrid>
    <Piece NumberOfCells="484" NumberOfPoints="533">
      <CellData Scalars="porosity">
        <DataArray type="Float32" Name="porosity" NumberOfComponents="1" format="ascii">
          0.3 0.3 0.3 0.3 0.3 0.3 0.3 0.3 0.3 0.3 0.3 0.3
          0.3 0.3 0.3 0.3 0.3 0.3 0.3 0.3 0.3 0.3 0.3 0.3
          0.3 0.3 0.3 0.3 0.3 0.3 0.3 0.3 0.3 0.3 0.3 0.3
          0.3 0.3 0.3 0.3 0.3 0.3 0.3 0.3 0.3 0.3 0.3 0.3
          0.3 0.3 0.3 0.3 0.3 0.3 0.3 0.3 0.3 0.3 0.3 0.3
          0.3 0.3 0.3 0.3 0.3 0.3 0.3 0.3 0.3 0.3 0.3 0.3
          0.3 0.3 0.3 0.3 0.3 0.3 0.3 0.3 0.3 0.3 0.3 0.3
          0.3 0.3 0.3 0.3 0.3 0.3 0.3 0.3 0.3 0.3 0.3 0.3
          0.3 0.3 0.3 0.3 0.3 0.3 0.3 0.3 0.3 0.3 0.3 0.3
          0.3 0.3 0.3 0.3 0.3 0.3 0.3 0.3 0.3 0.3 0.3 0.3
          0.3 0.3 0.3 0.3 0.3 0.3 0.3 0.3 0.3 0.3 0.3 0.3
          0.3 0.3 0.3 0.3 0.3 0.3 0.3 0.3 0.3 0.3 0.3 0.3
          0.3 0.3 0.3 0.3 0.3 0.3 0.3 0.3 0.3 0.3 0.3 0.3
          0.3 0.3 0.3 0.3 0.3 0.3 0.3 0.3 0.3 0.3 0.3 0.3
          0.3 0.3 0.3 0.3 0.3 0.3 0.3 0.3 0.3 0.3 0.3 0.3
          0.3 0.3 0.3 0.3 0.3 0.3 0.3 0.3 0.3 0.3 0.3 0.3
          0.3 0.3 0.3 0.3 0.3 0.3 0.3 0.3 0.3 0.3 0.3 0.3
          0.3 0.3 0.3 0.3 0.3 0.3 0.3 0.3 0.3 0.3 0.3 0.3
          0.3 0.3 0.3 0.3 0.3 0.3 0.3 0.3 0.3 0.3 0.3 0.3
          0.3 0.3 0.3 0.3 0.3 0.3 0.3 0.3 0.3 0.3 0.3 0.3
          0.3 0.3 0.3 0.3 0.3 0.3 0.3 0.3 0.3 0.3 0.3 0.3
          0.3 0.3 0.3 0.3 0.3 0.3 0.3 0.3 0.3 0.3 0.3 0.3
          0.3 0.3 0.3 0.3 0.3 0.3 0.3 0.3 0.3 0.3 0.3 0.3
          0.3 0.3 0.3 0.3 0.3 0.3 0.3 0.3 0.3 0.3 0.3 0.3
          0.3 0.3 0.3 0.3 0.3 0.3 0.3 0.3 0.3 0.3 0.3 0.3
          0.3 0.3 0.3 0.3 0.3 0.3 0.3 0.3 0.3 0.3 0.3 0.3
          0.3 0.3 0.3 0.3 0.3 0.3 0.3 0.3 0.3 0.3 0.3 0.3
          0.3 0.3 0.3 0.3 0.3 0.3 0.3 0.3 0.3 0.3 0.3 0.3
          0.3 0.3 0.3 0.3 0.3 0.3 0.3 0.3 0.3 0.3 0.3 0.3
          0.3 0.3 0.3 0.3 0.3 0.3 0.3 0.3 0.3 0.3 0.3 0.3
          0.3 0.3 0.3 0.3 0.3 0.3 0.3 0.3 0.3 0.3 0.3 0.3
          0.3 0.3 0.3 0.3 0.3 0.3 0.3 0.3 0.3 0.3 0.3 0.3
          0.3 0.3 0.3 0.3 0.3 0.3 0.3 0.3 0.3 0.3 0.3 0.3
          0.3 0.3 0.3 0.3 0.3 0.3 0.3 0.3 0.3 0.3 0.3 0.3
          0.3 0.3 0.3 0.3 0.3 0.3 0.3 0.3 0.3 0.3 0.3 0.3
          0.3 0.3 0.3 0.3 0.3 0.3 0.3 0.3 0.3 0.3 0.3 0.3
          0.3 0.3 0.3 0.3 0.3 0.3 0.3 0.3 0.3 0.3 0.3 0.3
          0.3 0.3 0.3 0.3 0.3 0.3 0.3 0.3 0.3 0.3 0.3 0.3
          0.3 0.3 0.3 0.3 0.3 0.3 0.3 0.3 0.3 0.3 0.3 0.3
          0.3 0.3 0.3 0.3 0.3 0.3 0.3 0.3 0.3 0.3 0.3 0.3
          0.3 0.3 0.3 0.3
        </DataArray>
        <DataArray type="Float32" Name="pc" NumberOfComponents="1" format="ascii">
          1.6362 1.62659 1.61918 1.61413 1.71018 1.71018 1.61413 1.61918 1.62659 1.6362 1.63664 1.62234
          1.60995 1.59963 1.59476 4.46405 13.7218 13.7218 4.46405 1.59476 1.59963 1.60995 1.62234 1.63664
          1.62982 1.61293 1.59775 1.58445 1.69849 9.16156 26.311 47.2968 47.2968 26.311 9.16156 1.69849
          1.58445 1.59775 1.61293 1.62982 1.62753 1.60817 1.59032 1.57409 2.16957 13.9334 38.1653 65.83
          88.9713 88.9713 65.83 38.1653 13.9334 2.16957 1.57409 1.59032 1.60817 1.62753 1.62982 1.60817
          1.58781 1.56884 2.62071 17.5959 47.3391 79.3062 104.335 121.442 121.442 104.335 79.3062 47.3391
          17.5959 2.62071 1.56884 1.58781 1.60817 1.62982 1.63664 1.61293 1.59032 1.56884 2.78407 19.5339
          53.056 87.9233 113.74 130.781 142.403 142.403 130.781 113.74 87.9233 53.056 19.5339 2.78407
          1.56884 1.59032 1.61293 1.63664 1.62234 1.59775 1.57409 2.62071 19.5339 54.9949 92.0897 118.797
          136.063 147.962 156.955 156.955 147.962 136.063 118.797 92.0897 54.9949 19.5339 2.62071 1.57409
          1.59775 1.62234 1.6362 1.60995 1.58445 2.16957 17.5959 53.056 92.0897 120.39 138.477 150.971
          160.573 168.606 168.606 160.573 150.971 138.477 120.39 92.0897 53.056 17.5959 2.16957 1.58445
          1.60995 1.6362 1.62659 1.59963 1.69849 13.9334 47.3391 87.9233 118.797 138.477 151.93 162.293
          171.12 179.293 179.293 171.12 162.293 151.93 138.477 118.797 87.9233 47.3391 13.9334 1.69849
          1.59963 1.62659 1.61918 1.59476 9.16156 38.1653 79.3062 113.74 136.063 150.971 162.293 171.944
          181.061 190.534 190.534 181.061 171.944 162.293 150.971 136.063 113.74 79.3062 38.1653 9.16156
          1.59476 1.61918 1.61413 4.46405 26.311 65.83 104.335 130.781 147.962 160.573 171.12 181.061
          191.607 204.371 204.371 191.607 181.061 171.12 160.573 147.962 130.781 104.335 65.83 26.311
          4.46405 1.61413 1.71018 13.7218 47.2968 88.9713 121.442 142.403 156.955 168.606 179.293 190.534
          204.371 225.875 225.875 204.371 190.534 179.293 168.606 156.955 142.403 121.442 88.9713 47.2968
          13.7218 1.71018 1.71018 13.7218 47.2968 88.9713 121.442 142.403 156.955 168.606 179.293 190.534
          204.371 225.875 225.875 204.371 190.534 179.293 168.606 156.955 142.403 121.442 88.9713 47.2968
          13.7218 1.71018 1.61413 4.46405 26.311 65.83 104.335 130.781 147.962 160.573 171.12 181.061
          191.607 204.371 204.371 191.607 181.061 171.12 160.573 147.962 130.781 104.335 65.83 26.311
          4.46405 1.61413 1.61918 1.59476 9.16156 38.1653 79.3062 113.74 136.063 150.971 162.293 171.944
          181.061 190.534 190.534 181.061 171.944 162.293 150.971 136.063 113.74 79.3062 38.1653 9.16156
          1.59476 1.61918 1.62659 1.59963 1.69849 13.9334 47.3391 87.9233 118.797 138.477 151.93 162.293
          171.12 179.293 179.293 171.12 162.293 151.93 138.477 118.797 87.9233 47.3391 13.9334 1.69849
          1.59963 1.62659 1.6362 1.60995 1.58445 2.16957 17.5959 53.056 92.0897 120.39 138.477 150.971
          160.573 168.606 168.606 160.573 150.971 138.477 120.39 92.0897 53.056 17.5959 2.16957 1.58445
          1.60995 1.6362 1.62234 1.59775 1.57409 2.62071 19.5339 54.9949 92.0897 118.797 136.063 147.962
          156.955 156.955 147.962 136.063 118.797 92.0897 54.9949 19.5339 2.62071 1.57409 1.59775 1.62234
          1.63664 1.61293 1.59032 1.56884 2.78407 19.5339 53.056 87.9233 113.74 130.781 142.403 142.403
          130.781 113.74 87.9233 53.056 19.5339 2.78407 1.56884 1.59032 1.61293 1.63664 1.62982 1.60817
          1.58781 1.56884 2.62071 17.5959 47.3391 79.3062 104.335 121.442 121.442 104.335 79.3062 47.3391
          17.5959 2.62071 1.56884 1.58781 1.60817 1.62982 1.62753 1.60817 1.59032 1.57409 2.16957 13.9334
          38.1653 65.83 88.9713 88.9713 65.83 38.1653 13.9334 2.16957 1.57409 1.59032 1.60817 1.62753
          1.62982 1.61293 1.59775 1.58445 1.69849 9.16156 26.311 47.2968 47.2968 26.311 9.16156 1.69849
          1.58445 1.59775 1.61293 1.62982 1.63664 1.62234 1.60995 1.59963 1.59476 4.46405 13.7218 13.7218
          4.46405 1.59476 1.59963 1.60995 1.62234 1.63664 1.6362 1.62659 1.61918 1.61413 1.71018 1.71018
          1.61413 1.61918 1.62659 1.6362
        </DataArray>
        <DataArray type="Float32" Name="S_w" NumberOfComponents="1" format="ascii">
          1 1 1 1 1 1 1 1 1 1 1 1
          1 1 1 1 0.999999 0.999999 1 1 1 1 1 1
          1 1 1 1 1 1 0.999987 0.999793 0.999793 0.999987 1 1
          1 1 1 1 1 1 1 1 1 0.999999 0.999924 0.999022
          0.995984 0.995984 0.999022 0.999924 0.999999 1 1 1 1 1 1 1
          1 1 1 0.999998 0.999792 0.997656 0.991555 0.98294 0.98294 0.991555 0.997656 0.999792
          0.999998 1 1 1 1 1 1 1 1 1 1 0.999997
          0.999645 0.996201 0.987394 0.976037 0.964742 0.964742 0.976037 0.987394 0.996201 0.999645 0.999997 1
          1 1 1 1 1 1 1 1 0.999997 0.99958 0.995282 0.984587
          0.971304 0.958136 0.945622 0.945622 0.958136 0.971304 0.984587 0.995282 0.99958 0.999997 1 1
          1 1 1 1 1 1 0.999998 0.999645 0.995282 0.98361 0.968923 0.954207
          0.939914 0.925782 0.925782 0.939914 0.954207 0.968923 0.98361 0.995282 0.999645 0.999998 1 1
          1 1 1 1 1 0.999999 0.999792 0.996201 0.984587 0.968923 0.952902 0.937058
          0.920937 0.903764 0.903764 0.920937 0.937058 0.952902 0.968923 0.984587 0.996201 0.999792 0.999999 1
          1 1 1 1 1 0.999924 0.997656 0.987394 0.971304 0.954207 0.937058 0.919305
          0.89976 0.876569 0.876569 0.89976 0.919305 0.937058 0.954207 0.971304 0.987394 0.997656 0.999924 1
          1 1 1 1 0.999987 0.999022 0.991555 0.976037 0.958136 0.939914 0.920937 0.89976
          0.873761 0.837617 0.837617 0.873761 0.89976 0.920937 0.939914 0.958136 0.976037 0.991555 0.999022 0.999987
          1 1 1 0.999999 0.999793 0.995984 0.98294 0.964742 0.945622 0.925782 0.903764 0.876569
          0.837617 0.766764 0.766764 0.837617 0.876569 0.903764 0.925782 0.945622 0.964742 0.98294 0.995984 0.999793
          0.999999 1 1 0.999999 0.999793 0.995984 0.98294 0.964742 0.945622 0.925782 0.903764 0.876569
          0.837617 0.766764 0.766764 0.837617 0.876569 0.903764 0.925782 0.945622 0.964742 0.98294 0.995984 0.999793
          0.999999 1 1 1 0.999987 0.999022 0.991555 0.976037 0.958136 0.939914 0.920937 0.89976
          0.873761 0.837617 0.837617 0.873761 0.89976 0.920937 0.939914 0.958136 0.976037 0.991555 0.999022 0.999987
          1 1 1 1 1 0.999924 0.997656 0.987394 0.971304 0.954207 0.937058 0.919305
          0.89976 0.876569 0.876569 0.89976 0.919305 0.937058 0.954207 0.971304 0.987394 0.997656 0.999924 1
          1 1 1 1 1 0.999999 0.999792 0.996201 0.984587 0.968923 0.952902 0.937058
          0.920937 0.903764 0.903764 0.920937 0.937058 0.952902 0.968923 0.984587 0.996201 0.999792 0.999999 1
          1 1 1 1 1 1 0.999998 0.999645 0.995282 0.98361 0.968923 0.954207
          0.939914 0.925782 0.925782 0.939914 0.954207 0.968923 0.98361 0.995282 0.999645 0.999998 1 1
          1 1 1 1 1 1 0.999997 0.99958 0.995282 0.984587 0.971304 0.958136
          0.945622 0.945622 0.958136 0.971304 0.984587 0.995282 0.99958 0.999997 1 1 1 1
          1 1 1 1 1 0.999997 0.999645 0.996201 0.987394 0.976037 0.964742 0.964742
          0.976037 0.987394 0.996201 0.999645 0.999997 1 1 1 1 1 1 1
          1 1 1 0.999998 0.999792 0.997656 0.991555 0.98294 0.98294 0.991555 0.997656 0.999792
          0.999998 1 1 1 1 1 1 1 1 1 1 0.999999
          0.999924 0.999022 0.995984 0.995984 0.999022 0.999924 0.999999 1 1 1 1 1
          1 1 1 1 1 1 0.999987 0.999793 0.999793 0.999987 1 1
          1 1 1 1 1 1 1 1 1 1 0.999999 0.999999
          1 1 1 1 1 1 1 1 1 1 1 1
          1 1 1 1
        </DataArray>
        <DataArray type="Float32" Name="p_w" NumberOfComponents="1" format="ascii">
          3.55303e+06 3.65278e+06 3.73199e+06 3.7872e+06 3.81555e+06 3.81555e+06 3.7872e+06 3.73199e+06 3.65278e+06 3.55303e+06 3.54852e+06 3.69791e+06
          3.83361e+06 3.95121e+06 4.04586e+06 4.11259e+06 4.14704e+06 4.14704e+06 4.11259e+06 4.04586e+06 3.95121e+06 3.83361e+06 3.69791e+06 3.54852e+06
          3.61882e+06 3.80041e+06 3.97308e+06 4.1323e+06 4.2726e+06 4.38764e+06 4.47039e+06 4.51416e+06 4.51416e+06 4.47039e+06 4.38764e+06 4.2726e+06
          4.1323e+06 3.97308e+06 3.80041e+06 3.61882e+06 3.64279e+06 3.85354e+06 4.0612e+06 4.26172e+06 4.44989e+06 4.61927e+06 4.7623e+06 4.87152e+06
          4.9364e+06 4.9364e+06 4.87152e+06 4.7623e+06 4.61927e+06 4.44989e+06 4.26172e+06 4.0612e+06 3.85354e+06 3.64279e+06 3.61882e+06 3.85354e+06
          4.09135e+06 4.32915e+06 4.56269e+06 4.78632e+06 4.99369e+06 5.17992e+06 5.33359e+06 5.42721e+06 5.42721e+06 5.33359e+06 5.17992e+06 4.99369e+06
          4.78632e+06 4.56269e+06 4.32915e+06 4.09135e+06 3.85354e+06 3.61882e+06 3.54852e+06 3.80041e+06 4.0612e+06 4.32915e+06 4.60137e+06 4.87362e+06
          5.1414e+06 5.40312e+06 5.64571e+06 5.8357e+06 5.94183e+06 5.94183e+06 5.8357e+06 5.64571e+06 5.40312e+06 5.1414e+06 4.87362e+06 4.60137e+06
          4.32915e+06 4.0612e+06 3.80041e+06 3.54852e+06 3.69791e+06 3.97308e+06 4.26172e+06 4.56269e+06 4.87362e+06 5.19208e+06 5.51964e+06 5.84228e+06
          6.12097e+06 6.3233e+06 6.43055e+06 6.43055e+06 6.3233e+06 6.12097e+06 5.84228e+06 5.51964e+06 5.19208e+06 4.87362e+06 4.56269e+06 4.26172e+06
          3.97308e+06 3.69791e+06 3.55303e+06 3.83361e+06 4.1323e+06 4.44989e+06 4.78632e+06 5.1414e+06 5.51964e+06 5.90925e+06 6.26732e+06 6.55872e+06
          6.76489e+06 6.87356e+06 6.87356e+06 6.76489e+06 6.55872e+06 6.26732e+06 5.90925e+06 5.51964e+06 5.1414e+06 4.78632e+06 4.44989e+06 4.1323e+06
          3.83361e+06 3.55303e+06 3.65278e+06 3.95121e+06 4.2726e+06 4.61927e+06 4.99369e+06 5.40312e+06 5.84228e+06 6.26732e+06 6.63858e+06 6.93708e+06
          7.15146e+06 7.26789e+06 7.26789e+06 7.15146e+06 6.93708e+06 6.63858e+06 6.26732e+06 5.84228e+06 5.40312e+06 4.99369e+06 4.61927e+06 4.2726e+06
          3.95121e+06 3.65278e+06 3.73199e+06 4.04586e+06 4.38764e+06 4.7623e+06 5.17992e+06 5.64571e+06 6.12097e+06 6.55872e+06 6.93708e+06 7.24748e+06
          7.48033e+06 7.61548e+06 7.61548e+06 7.48033e+06 7.24748e+06 6.93708e+06 6.55872e+06 6.12097e+06 5.64571e+06 5.17992e+06 4.7623e+06 4.38764e+06
          4.04586e+06 3.73199e+06 3.7872e+06 4.11259e+06 4.47039e+06 4.87152e+06 5.33359e+06 5.8357e+06 6.3233e+06 6.76489e+06 7.15146e+06 7.48033e+06
          7.74414e+06 7.91703e+06 7.91703e+06 7.74414e+06 7.48033e+06 7.15146e+06 6.76489e+06 6.3233e+06 5.8357e+06 5.33359e+06 4.87152e+06 4.47039e+06
          4.11259e+06 3.7872e+06 3.81555e+06 4.14704e+06 4.51416e+06 4.9364e+06 5.42721e+06 5.94183e+06 6.43055e+06 6.87356e+06 7.26789e+06 7.61548e+06
          7.91703e+06 8.16396e+06 8.16396e+06 7.91703e+06 7.61548e+06 7.26789e+06 6.87356e+06 6.43055e+06 5.94183e+06 5.42721e+06 4.9364e+06 4.51416e+06
          4.14704e+06 3.81555e+06 3.81555e+06 4.14704e+06 4.51416e+06 4.9364e+06 5.42721e+06 5.94183e+06 6.43055e+06 6.87356e+06 7.26789e+06 7.61548e+06
          7.91703e+06 8.16396e+06 8.16396e+06 7.91703e+06 7.61548e+06 7.26789e+06 6.87356e+06 6.43055e+06 5.94183e+06 5.42721e+06 4.9364e+06 4.51416e+06
          4.14704e+06 3.81555e+06 3.7872e+06 4.11259e+06 4.47039e+06 4.87152e+06 5.33359e+06 5.8357e+06 6.3233e+06 6.76489e+06 7.15146e+06 7.48033e+06
          7.74414e+06 7.91703e+06 7.91703e+06 7.74414e+06 7.48033e+06 7.15146e+06 6.76489e+06 6.3233e+06 5.8357e+06 5.33359e+06 4.87152e+06 4.47039e+06
          4.11259e+06 3.7872e+06 3.73199e+06 4.04586e+06 4.38764e+06 4.7623e+06 5.17992e+06 5.64571e+06 6.12097e+06 6.55872e+06 6.93708e+06 7.24748e+06
          7.48033e+06 7.61548e+06 7.61548e+06 7.48033e+06 7.24748e+06 6.93708e+06 6.55872e+06 6.12097e+06 5.64571e+06 5.17992e+06 4.7623e+06 4.38764e+06
          4.04586e+06 3.73199e+06 3.65278e+06 3.95121e+06 4.2726e+06 4.61927e+06 4.99369e+06 5.40312e+06 5.84228e+06 6.26732e+06 6.63858e+06 6.93708e+06
          7.15146e+06 7.26789e+06 7.26789e+06 7.15146e+06 6.93708e+06 6.63858e+06 6.26732e+06 5.84228e+06 5.40312e+06 4.99369e+06 4.61927e+06 4.2726e+06
          3.95121e+06 3.65278e+06 3.55303e+06 3.83361e+06 4.1323e+06 4.44989e+06 4.78632e+06 5.1414e+06 5.51964e+06 5.90925e+06 6.26732e+06 6.55872e+06
          6.76489e+06 6.87356e+06 6.87356e+06 6.76489e+06 6.55872e+06 6.26732e+06 5.90925e+06 5.51964e+06 5.1414e+06 4.78632e+06 4.44989e+06 4.1323e+06
          3.83361e+06 3.55303e+06 3.69791e+06 3.97308e+06 4.26172e+06 4.56269e+06 4.87362e+06 5.19208e+06 5.51964e+06 5.84228e+06 6.12097e+06 6.3233e+06
          6.43055e+06 6.43055e+06 6.3233e+06 6.12097e+06 5.84228e+06 5.51964e+06 5.19208e+06 4.87362e+06 4.56269e+06 4.26172e+06 3.97308e+06 3.69791e+06
          3.54852e+06 3.80041e+06 4.0612e+06 4.32915e+06 4.60137e+06 4.87362e+06 5.1414e+06 5.40312e+06 5.64571e+06 5.8357e+06 5.94183e+06 5.94183e+06
          5.8357e+06 5.64571e+06 5.40312e+06 5.1414e+06 4.87362e+06 4.60137e+06 4.32915e+06 4.0612e+06 3.80041e+06 3.54852e+06 3.61882e+06 3.85354e+06
          4.09135e+06 4.32915e+06 4.56269e+06 4.78632e+06 4.99369e+06 5.17992e+06 5.33359e+06 5.42721e+06 5.42721e+06 5.33359e+06 5.17992e+06 4.99369e+06
          4.78632e+06 4.56269e+06 4.32915e+06 4.09135e+06 3.85354e+06 3.61882e+06 3.64279e+06 3.85354e+06 4.0612e+06 4.26172e+06 4.44989e+06 4.61927e+06
          4.7623e+06 4.87152e+06 4.9364e+06 4.9364e+06 4.87152e+06 4.7623e+06 4.61927e+06 4.44989e+06 4.26172e+06 4.0612e+06 3.85354e+06 3.64279e+06
          3.61882e+06 3.80041e+06 3.97308e+06 4.1323e+06 4.2726e+06 4.38764e+06 4.47039e+06 4.51416e+06 4.51416e+06 4.47039e+06 4.38764e+06 4.2726e+06
          4.1323e+06 3.97308e+06 3.80041e+06 3.61882e+06 3.54852e+06 3.69791e+06 3.83361e+06 3.95121e+06 4.04586e+06 4.11259e+06 4.14704e+06 4.14704e+06
          4.11259e+06 4.04586e+06 3.95121e+06 3.83361e+06 3.69791e+06 3.54852e+06 3.55303e+06 3.65278e+06 3.73199e+06 3.7872e+06 3.81555e+06 3.81555e+06
          3.7872e+06 3.73199e+06 3.65278e+06 3.55303e+06
        </DataArray>
        <DataArray type="Float32" Name="rhoW" NumberOfComponents="1" format="ascii">
          1000 1000 1000 1000 1000 1000 1000 1000 1000 1000 1000 1000
          1000 1000 1000 1000 1000 1000 1000 1000 1000 1000 1000 1000
          1000 1000 1000 1000 1000 1000 1000 1000 1000 1000 1000 1000
          1000 1000 1000 1000 1000 1000 1000 1000 1000 1000 1000 1000
          1000 1000 1000 1000 1000 1000 1000 1000 1000 1000 1000 1000
          1000 1000 1000 1000 1000 1000 1000 1000 1000 1000 1000 1000
          1000 1000 1000 1000 1000 1000 1000 1000 1000 1000 1000 1000
          1000 1000 1000 1000 1000 1000 1000 1000 1000 1000 1000 1000
          1000 1000 1000 1000 1000 1000 1000 1000 1000 1000 1000 1000
          1000 1000 1000 1000 1000 1000 1000 1000 1000 1000 1000 1000
          1000 1000 1000 1000 1000 1000 1000 1000 1000 1000 1000 1000
          1000 1000 1000 1000 1000 1000 1000 1000 1000 1000 1000 1000
          1000 1000 1000 1000 1000 1000 1000 1000 1000 1000 1000 1000
          1000 1000 1000 1000 1000 1000 1000 1000 1000 1000 1000 1000
          1000 1000 1000 1000 1000 1000 1000 1000 1000 1000 1000 1000
          1000 1000 1000 1000 1000 1000 1000 1000 1000 1000 1000 1000
          1000 1000 1000 1000 1000 1000 1000 1000 1000 1000 1000 1000
          1000 1000 1000 1000 1000 1000 1000 1000 1000 1000 1000 1000
          1000 1000 1000 1000 1000 1000 1000 1000 1000 1000 1000 1000
          1000 1000 1000 1000 1000 1000 1000 1000 1000 1000 1000 1000
          1000 1000 1000 1000 1000 1000 1000 1000 1000 1000 1000 1000
          1000 1000 1000 1000 1000 1000 1000 1000 1000 1000 1000 1000
          1000 1000 1000 1000 1000 1000 1000 1000 1000 1000 1000 1000
          1000 1000 1000 1000 1000 1000 1000 1000 1000 1000 1000 1000
          1000 1000 1000 1000 1000 1000 1000 1000 1000 1000 1000 1000
          1000 1000 1000 1000 1000 1000 1000 1000 1000 1000 1000 1000
          1000 1000 1000 1000 1000 1000 1000 1000 1000 1000 1000 1000
          1000 1000 1000 1000 1000 1000 1000 1000 1000 1000 1000 1000
          1000 1000 1000 1000 1000 1000 1000 1000 1000 1000 1000 1000
          1000 1000 1000 1000 1000 1000 1000 1000 1000 1000 1000 1000
          1000 1000 1000 1000 1000 1000 1000 1000 1000 1000 1000 1000
          1000 1000 1000 1000 1000 1000 1000 1000 1000 1000 1000 1000
          1000 1000 1000 1000 1000 1000 1000 1000 1000 1000 1000 1000
          1000 1000 1000 1000 1000 1000 1000 1000 1000 1000 1000 1000
          1000 1000 1000 1000 1000 1000 1000 1000 1000 1000 1000 1000
          1000 1000 1000 1000 1000 1000 1000 1000 1000 1000 1000 1000
          1000 1000 1000 1000 1000 1000 1000 1000 1000 1000 1000 1000
          1000 1000 1000 1000 1000 1000 1000 1000 1000 1000 1000 1000
          1000 1000 1000 1000 1000 1000 1000 1000 1000 1000 1000 1000
          1000 1000 1000 1000 1000 1000 1000 1000 1000 1000 1000 1000
          1000 1000 1000 1000
        </DataArray>
        <DataArray type="Float32" Name="mobW" NumberOfComponents="1" format="ascii">
          1000 1000 1000 1000 1000 1000 1000 1000 1000 1000 1000 1000
          1000 1000 1000 1000 999.967 999.967 1000 1000 1000 1000 1000 1000
          1000 1000 1000 1000 1000 999.993 999.632 996.73 996.73 999.632 999.993 1000
          1000 1000 1000 1000 1000 1000 1000 1000 1000 999.965 998.53 988.777
          965.578 965.578 988.777 998.53 999.965 1000 1000 1000 1000 1000 1000 1000
          1000 1000 1000 999.917 996.72 977.539 938.087 892.682 892.682 938.087 977.539 996.72
          999.917 1000 1000 1000 1000 1000 1000 1000 1000 1000 1000 999.878
          994.981 967.057 915.225 860.46 812.7 812.7 860.46 915.225 967.057 994.981 999.878 1000
          1000 1000 1000 1000 1000 1000 1000 1000 999.878 994.262 960.898 900.826
          839.809 786.892 741.325 741.325 786.892 839.809 900.826 960.898 994.262 999.878 1000 1000
          1000 1000 1000 1000 1000 1000 999.917 994.981 960.898 895.972 829.781 772.153
          721.759 676.089 676.089 721.759 772.153 829.781 895.972 960.898 994.981 999.917 1000 1000
          1000 1000 1000 1000 1000 999.965 996.72 967.057 900.826 829.781 767.35 712.228
          661.239 611.501 611.501 661.239 712.228 767.35 829.781 900.826 967.057 996.72 999.965 1000
          1000 1000 1000 1000 999.993 998.53 977.539 915.225 839.809 772.153 712.228 656.321
          600.499 540.655 540.655 600.499 656.321 712.228 772.153 839.809 915.225 977.539 998.53 999.993
          1000 1000 1000 1000 999.632 988.777 938.087 860.46 786.892 721.759 661.239 600.499
          533.824 452.851 452.851 533.824 600.499 661.239 721.759 786.892 860.46 938.087 988.777 999.632
          1000 1000 1000 999.967 996.73 965.578 892.682 812.7 741.325 676.089 611.501 540.655
          452.851 324.878 324.878 452.851 540.655 611.501 676.089 741.325 812.7 892.682 965.578 996.73
          999.967 1000 1000 999.967 996.73 965.578 892.682 812.7 741.325 676.089 611.501 540.655
          452.851 324.878 324.878 452.851 540.655 611.501 676.089 741.325 812.7 892.682 965.578 996.73
          999.967 1000 1000 1000 999.632 988.777 938.087 860.46 786.892 721.759 661.239 600.499
          533.824 452.851 452.851 533.824 600.499 661.239 721.759 786.892 860.46 938.087 988.777 999.632
          1000 1000 1000 1000 999.993 998.53 977.539 915.225 839.809 772.153 712.228 656.321
          600.499 540.655 540.655 600.499 656.321 712.228 772.153 839.809 915.225 977.539 998.53 999.993
          1000 1000 1000 1000 1000 999.965 996.72 967.057 900.826 829.781 767.35 712.228
          661.239 611.501 611.501 661.239 712.228 767.35 829.781 900.826 967.057 996.72 999.965 1000
          1000 1000 1000 1000 1000 1000 999.917 994.981 960.898 895.972 829.781 772.153
          721.759 676.089 676.089 721.759 772.153 829.781 895.972 960.898 994.981 999.917 1000 1000
          1000 1000 1000 1000 1000 1000 999.878 994.262 960.898 900.826 839.809 786.892
          741.325 741.325 786.892 839.809 900.826 960.898 994.262 999.878 1000 1000 1000 1000
          1000 1000 1000 1000 1000 999.878 994.981 967.057 915.225 860.46 812.7 812.7
          860.46 915.225 967.057 994.981 999.878 1000 1000 1000 1000 1000 1000 1000
          1000 1000 1000 999.917 996.72 977.539 938.087 892.682 892.682 938.087 977.539 996.72
          999.917 1000 1000 1000 1000 1000 1000 1000 1000 1000 1000 999.965
          998.53 988.777 965.578 965.578 988.777 998.53 999.965 1000 1000 1000 1000 1000
          1000 1000 1000 1000 1000 999.993 999.632 996.73 996.73 999.632 999.993 1000
          1000 1000 1000 1000 1000 1000 1000 1000 1000 1000 999.967 999.967
          1000 1000 1000 1000 1000 1000 1000 1000 1000 1000 1000 1000
          1000 1000 1000 1000
        </DataArray>
        <DataArray type="Float32" Name="S_n" NumberOfComponents="1" format="ascii">
          2.8145e-11 2.73765e-11 2.67954e-11 2.64051e-11 3.46472e-11 3.46472e-11 2.64051e-11 2.67954e-11 2.73765e-11 2.8145e-11 2.81808e-11 2.70424e-11
          2.60851e-11 2.53087e-11 2.49487e-11 3.14847e-09 6.16888e-07 6.16888e-07 3.14847e-09 2.49487e-11 2.53087e-11 2.60851e-11 2.70424e-11 2.81808e-11
          2.76333e-11 2.6313e-11 2.51694e-11 2.41997e-11 3.35482e-11 9.23913e-08 1.31528e-05 0.000207004 0.000207004 1.31528e-05 9.23913e-08 3.35482e-11
          2.41997e-11 2.51694e-11 2.6313e-11 2.76333e-11 2.74515e-11 2.59502e-11 2.46233e-11 2.34648e-11 1.06006e-10 6.62885e-07 7.55404e-05 0.000978271
          0.0040157 0.0040157 0.000978271 7.55404e-05 6.62885e-07 1.06006e-10 2.34648e-11 2.46233e-11 2.59502e-11 2.74515e-11 2.76333e-11 2.59502e-11
          2.44419e-11 2.30993e-11 2.576e-10 1.98523e-06 0.000207875 0.00234369 0.00844502 0.0170599 0.0170599 0.00844502 0.00234369 0.000207875
          1.98523e-06 2.576e-10 2.30993e-11 2.44419e-11 2.59502e-11 2.76333e-11 2.81808e-11 2.6313e-11 2.46233e-11 2.30993e-11 3.42271e-10 3.24399e-06
          0.000355176 0.00379918 0.0126062 0.023963 0.0352576 0.0352576 0.023963 0.0126062 0.00379918 0.000355176 3.24399e-06 3.42271e-10
          2.30993e-11 2.46233e-11 2.6313e-11 2.81808e-11 2.70424e-11 2.51694e-11 2.34648e-11 2.576e-10 3.24399e-06 0.000420409 0.0047175 0.0154134
          0.0286957 0.0418639 0.0543777 0.0543777 0.0418639 0.0286957 0.0154134 0.0047175 0.000420409 3.24399e-06 2.576e-10 2.34648e-11
          2.51694e-11 2.70424e-11 2.8145e-11 2.60851e-11 2.41997e-11 1.06006e-10 1.98523e-06 0.000355176 0.0047175 0.0163899 0.0310774 0.0457928
          0.0600863 0.0742176 0.0742176 0.0600863 0.0457928 0.0310774 0.0163899 0.0047175 0.000355176 1.98523e-06 1.06006e-10 2.41997e-11
          2.60851e-11 2.8145e-11 2.73765e-11 2.53087e-11 3.35482e-11 6.62885e-07 0.000207875 0.00379918 0.0154134 0.0310774 0.0470976 0.0629416
          0.0790631 0.0962363 0.0962363 0.0790631 0.0629416 0.0470976 0.0310774 0.0154134 0.00379918 0.000207875 6.62885e-07 3.35482e-11
          2.53087e-11 2.73765e-11 2.67954e-11 2.49487e-11 9.23913e-08 7.55404e-05 0.00234369 0.0126062 0.0286957 0.0457928 0.0629416 0.0806954
          0.10024 0.123431 0.123431 0.10024 0.0806954 0.0629416 0.0457928 0.0286957 0.0126062 0.00234369 7.55404e-05 9.23913e-08
          2.49487e-11 2.67954e-11 2.64051e-11 3.14847e-09 1.31528e-05 0.000978271 0.00844502 0.023963 0.0418639 0.0600863 0.0790631 0.10024
          0.126239 0.162383 0.162383 0.126239 0.10024 0.0790631 0.0600863 0.0418639 0.023963 0.00844502 0.000978271 1.31528e-05
          3.14847e-09 2.64051e-11 3.46472e-11 6.16888e-07 0.000207004 0.0040157 0.0170599 0.0352576 0.0543777 0.0742176 0.0962363 0.123431
          0.162383 0.233236 0.233236 0.162383 0.123431 0.0962363 0.0742176 0.0543777 0.0352576 0.0170599 0.0040157 0.000207004
          6.16888e-07 3.46472e-11 3.46472e-11 6.16888e-07 0.000207004 0.0040157 0.0170599 0.0352576 0.0543777 0.0742176 0.0962363 0.123431
          0.162383 0.233236 0.233236 0.162383 0.123431 0.0962363 0.0742176 0.0543777 0.0352576 0.0170599 0.0040157 0.000207004
          6.16888e-07 3.46472e-11 2.64051e-11 3.14847e-09 1.31528e-05 0.000978271 0.00844502 0.023963 0.0418639 0.0600863 0.0790631 0.10024
          0.126239 0.162383 0.162383 0.126239 0.10024 0.0790631 0.0600863 0.0418639 0.023963 0.00844502 0.000978271 1.31528e-05
          3.14847e-09 2.64051e-11 2.67954e-11 2.49487e-11 9.23913e-08 7.55404e-05 0.00234369 0.0126062 0.0286957 0.0457928 0.0629416 0.0806954
          0.10024 0.123431 0.123431 0.10024 0.0806954 0.0629416 0.0457928 0.0286957 0.0126062 0.00234369 7.55404e-05 9.23913e-08
          2.49487e-11 2.67954e-11 2.73765e-11 2.53087e-11 3.35482e-11 6.62885e-07 0.000207875 0.00379918 0.0154134 0.0310774 0.0470976 0.0629416
          0.0790631 0.0962363 0.0962363 0.0790631 0.0629416 0.0470976 0.0310774 0.0154134 0.00379918 0.000207875 6.62885e-07 3.35482e-11
          2.53087e-11 2.73765e-11 2.8145e-11 2.60851e-11 2.41997e-11 1.06006e-10 1.98523e-06 0.000355176 0.0047175 0.0163899 0.0310774 0.0457928
          0.0600863 0.0742176 0.0742176 0.0600863 0.0457928 0.0310774 0.0163899 0.0047175 0.000355176 1.98523e-06 1.06006e-10 2.41997e-11
          2.60851e-11 2.8145e-11 2.70424e-11 2.51694e-11 2.34648e-11 2.576e-10 3.24399e-06 0.000420409 0.0047175 0.0154134 0.0286957 0.0418639
          0.0543777 0.0543777 0.0418639 0.0286957 0.0154134 0.0047175 0.000420409 3.24399e-06 2.576e-10 2.34648e-11 2.51694e-11 2.70424e-11
          2.81808e-11 2.6313e-11 2.46233e-11 2.30993e-11 3.42271e-10 3.24399e-06 0.000355176 0.00379918 0.0126062 0.023963 0.0352576 0.0352576
          0.023963 0.0126062 0.00379918 0.000355176 3.24399e-06 3.42271e-10 2.30993e-11 2.46233e-11 2.6313e-11 2.81808e-11 2.76333e-11 2.59502e-11
          2.44419e-11 2.30993e-11 2.576e-10 1.98523e-06 0.000207875 0.00234369 0.00844502 0.0170599 0.0170599 0.00844502 0.00234369 0.000207875
          1.98523e-06 2.576e-10 2.30993e-11 2.44419e-11 2.59502e-11 2.76333e-11 2.74515e-11 2.59502e-11 2.46233e-11 2.34648e-11 1.06006e-10 6.62885e-07
          7.55404e-05 0.000978271 0.0040157 0.0040157 0.000978271 7.55404e-05 6.62885e-07 1.06006e-10 2.34648e-11 2.46233e-11 2.59502e-11 2.74515e-11
          2.76333e-11 2.6313e-11 2.51694e-11 2.41997e-11 3.35482e-11 9.23913e-08 1.31528e-05 0.000207004 0.000207004 1.31528e-05 9.23913e-08 3.35482e-11
          2.41997e-11 2.51694e-11 2.6313e-11 2.76333e-11 2.81808e-11 2.70424e-11 2.60851e-11 2.53087e-11 2.49487e-11 3.14847e-09 6.16888e-07 6.16888e-07
          3.14847e-09 2.49487e-11 2.53087e-11 2.60851e-11 2.70424e-11 2.81808e-11 2.8145e-11 2.73765e-11 2.67954e-11 2.64051e-11 3.46472e-11 3.46472e-11
          2.64051e-11 2.67954e-11 2.73765e-11 2.8145e-11
        </DataArray>
        <DataArray type="Float32" Name="p_n" NumberOfComponents="1" format="ascii">
          3.55303e+06 3.65278e+06 3.732e+06 3.7872e+06 3.81556e+06 3.81556e+06 3.7872e+06 3.732e+06 3.65278e+06 3.55303e+06 3.54852e+06 3.69791e+06
          3.83361e+06 3.95121e+06 4.04586e+06 4.11259e+06 4.14706e+06 4.14706e+06 4.11259e+06 4.04586e+06 3.95121e+06 3.83361e+06 3.69791e+06 3.54852e+06
          3.61883e+06 3.80041e+06 3.97308e+06 4.1323e+06 4.2726e+06 4.38765e+06 4.47042e+06 4.51421e+06 4.51421e+06 4.47042e+06 4.38765e+06 4.2726e+06
          4.1323e+06 3.97308e+06 3.80041e+06 3.61883e+06 3.64279e+06 3.85354e+06 4.0612e+06 4.26172e+06 4.44989e+06 4.61928e+06 4.76234e+06 4.87159e+06