<?xml version="1.0"?>
<VTKFile type="UnstructuredGrid" version="0.1" byte_order="LittleEndian">
  <UnstructuredGrid>
    <Piece NumberOfCells="384" NumberOfPoints="425">
      <CellData Scalars="S_gas">
        <DataArray type="Float32" Name="S_gas" NumberOfComponents="1" format="ascii">
          0.164716 0.162215 0.161231 0.160743 0.160501 0.160379 0.160307 0.160243 0.16014 0.159925 0.159441 0.15835
          0.155881 0.150352 0.139995 0.12839 0.124611 0.131639 0.145596 0.16298 0.182878 0.206514 0.237739 0.288432
          0.19856 0.197331 0.196711 0.196397 0.19624 0.196159 0.196112 0.196068 0.195997 0.195846 0.195507 0.19475
          0.193113 0.189806 0.184191 0.177559 0.173616 0.175184 0.182312 0.193874 0.209263 0.229197 0.256774 0.302874
          0.199749 0.199347 0.199079 0.198916 0.198824 0.198772 0.198739 0.198705 0.198646 0.198517 0.19822 0.197546
          0.196076 0.193127 0.188236 0.182632 0.179463 0.181091 0.187702 0.198555 0.213312 0.232806 0.260305 0.306977
          0.199863 0.199664 0.199519 0.199424 0.199367 0.199333 0.19931 0.199286 0.199242 0.199141 0.198901 0.198339
          0.197088 0.194508 0.190055 0.184552 0.180917 0.181876 0.187992 0.198674 0.213613 0.233706 0.262529 0.312501
          0.199882 0.199815 0.199748 0.199698 0.199665 0.199645 0.199632 0.199619 0.199594 0.199531 0.19937 0.198969
          0.198051 0.195951 0.192065 0.186554 0.181618 0.180345 0.184122 0.192596 0.205095 0.221547 0.243064 0.273004
          0.199928 0.199904 0.199874 0.19985 0.199834 0.199824 0.199819 0.199817 0.199812 0.199793 0.199726 0.19953
          0.199366 0.197797 0.194619 0.189489 0.183501 0.179551 0.180082 0.185431 0.194918 0.207827 0.224091 0.244537
          0.199969 0.19996 0.199948 0.199937 0.199929 0.199926 0.199927 0.199933 0.199945 0.199965 0.199987 0.200042
          0.203936 0.202928 0.200434 0.195961 0.189368 0.18231 0.178241 0.179514 0.185705 0.195518 0.207914 0.222773
          0.200005 0.200002 0.199997 0.199993 0.19999 0.19999 0.199994 0.200004 0.200025 0.200064 0.200132 0.2005
          0.233661 0.23407 0.232692 0.230136 0.225802 0.218818 0.2084 0.194677 0.178472 0.185767 0.195039 0.205922
          0.200049 0.200048 0.200046 0.200044 0.200044 0.200045 0.20005 0.20006 0.200079 0.200112 0.200162 0.200217
          0.200057 0.200055 0.200049 0.200036 0.200013 0.19998 0.199927 0.199643 0.173236 0.179804 0.186317 0.193795
          0.200117 0.200117 0.200116 0.200115 0.200116 0.200117 0.200121 0.200129 0.200143 0.200164 0.200192 0.200217
          0.200001 0.2 0.2 0.2 0.2 0.2 0.199999 0.199873 0.177264 0.180022 0.183104 0.187204
          0.200238 0.200238 0.200238 0.200238 0.200238 0.200239 0.200242 0.200247 0.200255 0.200268 0.200282 0.200292
          0.200001 0.2 0.2 0.2 0.2 0.2 0.2 0.199933 0.184862 0.184958 0.185343 0.186658
          0.200459 0.200459 0.200459 0.200459 0.200459 0.20046 0.200462 0.200465 0.200469 0.200475 0.200482 0.200486
          0.200002 0.2 0.2 0.2 0.2 0.2 0.2 0.199968 0.191647 0.191196 0.190682 0.190584
          0.200874 0.200874 0.200874 0.200874 0.200874 0.200875 0.200876 0.200878 0.20088 0.200882 0.200885 0.200886
          0.200003 0.2 0.2 0.2 0.2 0.2 0.2 0.199987 0.196174 0.195881 0.195491 0.19525
          0.20187 0.20187 0.20187 0.201871 0.201871 0.201871 0.201871 0.201872 0.201873 0.201874 0.201875 0.201874
          0.200006 0.2 0.2 0.2 0.2 0.2 0.2 0.199999 0.199452 0.199315 0.199125 0.198991
          0.206321 0.206321 0.206321 0.206321 0.206322 0.206322 0.206322 0.206322 0.206323 0.206323 0.206322 0.20632
          0.200012 0.2 0.2 0.2 0.2 0.2 0.2 0.200008 0.205013 0.204952 0.204864 0.2048
          0.236349 0.236349 0.236349 0.236349 0.236349 0.236349 0.236349 0.236349 0.236349 0.236349 0.236349 0.236341
          0.200067 0.200046 0.200046 0.200046 0.200046 0.200046 0.200046 0.200064 0.235723 0.235704 0.235668 0.235641
        </DataArray>
        <DataArray type="Float32" Name="S_liq" NumberOfComponents="1" format="ascii">
          0.835284 0.837785 0.838769 0.839257 0.839499 0.839621 0.839693 0.839757 0.83986 0.840075 0.840559 0.84165
          0.844119 0.849648 0.860005 0.87161 0.875389 0.868361 0.854404 0.83702 0.817122 0.793486 0.762261 0.711568
          0.80144 0.802669 0.803289 0.803603 0.80376 0.803841 0.803888 0.803932 0.804003 0.804154 0.804493 0.80525
          0.806887 0.810194 0.815809 0.822441 0.826384 0.824816 0.817688 0.806126 0.790737 0.770803 0.743226 0.697126
          0.800251 0.800653 0.800921 0.801084 0.801176 0.801228 0.801261 0.801295 0.801354 0.801483 0.80178 0.802454
          0.803924 0.806873 0.811764 0.817368 0.820537 0.818909 0.812298 0.801445 0.786688 0.767194 0.739695 0.693023
          0.800137 0.800336 0.800481 0.800576 0.800633 0.800667 0.80069 0.800714 0.800758 0.800859 0.801099 0.801661
          0.802912 0.805492 0.809945 0.815448 0.819083 0.818124 0.812008 0.801326 0.786387 0.766294 0.737471 0.687499
          0.800118 0.800185 0.800252 0.800302 0.800335 0.800355 0.800368 0.800381 0.800406 0.800469 0.80063 0.801031
          0.801949 0.804049 0.807935 0.813446 0.818382 0.819655 0.815878 0.807404 0.794905 0.778453 0.756936 0.726996
          0.800072 0.800096 0.800126 0.80015 0.800166 0.800176 0.800181 0.800183 0.800188 0.800207 0.800274 0.80047
          0.800634 0.802203 0.805381 0.810511 0.816499 0.820449 0.819918 0.814569 0.805082 0.792173 0.775909 0.755463
          0.800031 0.80004 0.800052 0.800063 0.800071 0.800074 0.800073 0.800067 0.800055 0.800035 0.800013 0.799958
          0.796064 0.797072 0.799566 0.804039 0.810632 0.81769 0.821759 0.820486 0.814295 0.804482 0.792086 0.777227
          0.799995 0.799998 0.800003 0.800007 0.80001 0.80001 0.800006 0.799996 0.799975 0.799936 0.799868 0.7995
          0.766339 0.76593 0.767308 0.769864 0.774198 0.781182 0.7916 0.805323 0.821528 0.814233 0.804961 0.794078
          0.799951 0.799952 0.799954 0.799956 0.799956 0.799955 0.79995 0.79994 0.799921 0.799888 0.799838 0.799783
          0.799943 0.799945 0.799951 0.799964 0.799987 0.80002 0.800073 0.800357 0.826764 0.820196 0.813683 0.806205
          0.799883 0.799883 0.799884 0.799885 0.799884 0.799883 0.799879 0.799871 0.799857 0.799836 0.799808 0.799783
          0.799999 0.8 0.8 0.8 0.8 0.8 0.8 0.800127 0.822736 0.819978 0.816896 0.812796
          0.799762 0.799762 0.799762 0.799762 0.799762 0.799761 0.799758 0.799753 0.799745 0.799733 0.799718 0.799708
          0.799999 0.8 0.8 0.8 0.8 0.8 0.8 0.800067 0.815138 0.815042 0.814657 0.813342
          0.799541 0.799541 0.799541 0.799541 0.799541 0.79954 0.799538 0.799535 0.799531 0.799525 0.799518 0.799514
          0.799998 0.8 0.8 0.8 0.8 0.8 0.8 0.800032 0.808353 0.808804 0.809318 0.809416
          0.799126 0.799126 0.799126 0.799126 0.799126 0.799125 0.799124 0.799123 0.79912 0.799118 0.799115 0.799114
          0.799997 0.8 0.8 0.8 0.8 0.8 0.8 0.800013 0.803826 0.804119 0.804509 0.80475
          0.79813 0.79813 0.79813 0.798129 0.798129 0.798129 0.798129 0.798128 0.798127 0.798126 0.798125 0.798126
          0.799994 0.8 0.8 0.8 0.8 0.8 0.8 0.800001 0.800548 0.800685 0.800875 0.801009
          0.793679 0.793679 0.793679 0.793679 0.793678 0.793678 0.793678 0.793678 0.793677 0.793677 0.793678 0.79368
          0.799988 0.8 0.8 0.8 0.8 0.8 0.8 0.799992 0.794987 0.795048 0.795136 0.7952
          0.763651 0.763651 0.763651 0.763651 0.763651 0.763651 0.763651 0.763651 0.763651 0.763651 0.763651 0.763659
          0.799933 0.799954 0.799954 0.799954 0.799954 0.799954 0.799954 0.799936 0.764277 0.764296 0.764332 0.764359
        </DataArray>
        <DataArray type="Float32" Name="p_gas" NumberOfComponents="1" format="ascii">
          103625 107218 108988 109864 110296 110513 110639 110750 110928 111302 112139 114012
          118121 126914 145060 179326 233840 305121 384931 465781 542818 613042 673856 721002
          101308 103171 104290 104911 105241 105417 105524 105626 105795 106159 106984 108853
          113001 121905 139954 172959 224561 292384 369456 448573 524550 594042 654323 701157
          100638 101667 102357 102773 103008 103140 103225 103311 103460 103786 104542 106275
          110158 118524 135443 166228 214354 278059 351233 427046 500219 567200 625240 670589
          100344 100876 101258 101506 101655 101743 101802 101865 101978 102237 102855 104311
          107632 114863 129566 156588 199643 257928 326145 397633 466833 529825 583687 625273
          100301 100479 100655 100785 100869 100921 100955 100990 101057 101223 101649 102715
          105265 111020 122884 145030 181376 232460 294192 360148 424289 481942 528981 559632
          100187 100250 100326 100388 100431 100456 100470 100478 100494 100552 100748 101340
          102970 107197 116221 133312 162136 204425 257759 316412 374035 425526 466263 490739
          100085 100108 100140 100167 100187 100196 100195 100181 100152 100110 100074 100147
          100680 103580 110335 123231 145125 178207 221748 271149 320001 364066 398868 419231
          99996.8 100006 100018 100030 100037 100037 100028 100002 99949.8 99850.1 99668.8 99337.2
          98724.9 100847 106444 117067 134505 160035 193599 232485 268079 301921 330104 346936
          99897.4 99900.7 99905.5 99909.6 99911.1 99907.8 99896.4 99870.9 99821.4 99734.6 99600.6 99445.9
          99953 99958.9 99980.5 100030 100126 100290 100536 101432 225214 243870 264101 277201
          99746.6 99747.8 99749.4 99750.6 99749.9 99746 99736.2 99716.6 99681.3 99625 99549.9 99481.7
          99997.4 99999.9 99999.9 100000 100000 100000 100001 100335 181374 192305 205749 215054
          99482.9 99483.3 99483.8 99483.8 99482.7 99479.5 99472.6 99459.7 99438.2 99406.8 99369.5 99340.5
          99997.3 100000 100000 100000 100000 100000 100000 100171 147121 152917 160625 166232
          99010.8 99010.9 99011 99010.7 99009.8 99007.6 99003.2 98995.7 98984 98968.3 98951.3 98939.9
          99995.6 100000 100000 100000 100000 100000 100000 100081 124553 127178 130849 133590
          98187.2 98187.2 98187.1 98186.9 98186.2 98184.9 98182.4 98178.4 98172.7 98165.6 98159 98155.9
          99991.9 100000 100000 100000 100000 100000 100000 100032 111078 112140 113650 114769
          96821.9 96821.9 96821.8 96821.6 96821.2 96820.5 96819.2 96817.4 96815 96812.5 96811.1 96812.6
          99984.5 100000 100000 100000 100000 100000 100000 100003 103087 103488 104060 104477
          94768.1 94768.1 94768 94767.9 94767.7 94767.3 94766.8 94766 94765.4 94765.3 94766.7 94771.3
          99971.2 99999.9 99999.9 99999.9 99999.9 99999.9 99999.9 99980.1 97832.4 97975.5 98182.2 98331.9
          92516.5 92516.5 92516.5 92516.4 92516.2 92516 92515.8 92515.6 92515.8 92516.8 92519.5 92525.5
          99931 99978.8 99978.9 99978.9 99978.9 99978.9 99978.8 99936.1 94276.9 94330.8 94411.6 94470.1
        </DataArray>
        <DataArray type="Float32" Name="p_liq" NumberOfComponents="1" format="ascii">
          92403.2 96017.9 97797 98677.2 99111.4 99329.7 99455.5 99567.9 99746.4 100122 100964 102846
          106977 115817 134050 168412 222956 294180 373875 454574 531432 601432 661928 708497
          89775.3 91649.5 92774.7 93398.7 93730.1 93906.4 94014 94116.5 94286.5 94651.3 95479.8 97356
          101520 110455 128557 161622 213260 281068 358076 437084 512913 582203 642187 688471
          89093.6 90126.7 90819.1 91236.5 91472.7 91605.1 91690.3 91776.5 91925.5 92253.6 93011.7 94751.5
          98648.1 107043 124008 154845 203000 266690 339803 415513 488541 555323 613065 657851
          88798.6 89332.6 89716.1 89964.8 90114.5 90202.8 90262.1 90324.7 90438.2 90698.2 91319 92780.4
          96112.6 103369 118113 145187 188275 246551 314712 386099 455152 517939 571487 612463
          88755.1 88934.1 89110.7 89241.1 89325.6 89377.3 89411.7 89447 89513.9 89680.1 90107.7 91177.8
          93736.3 99512.1 111413 133610 170002 221097 282795 348671 412692 470182 516996 547311
          88640.3 88704 88780 88842.5 88885.4 88911.1 88924.8 88933 88948.8 89006.7 89203.2 89797.4
          91429.4 95671.4 104725 121865 150744 193070 246399 305003 362537 413902 454477 478738
          88538.2 88561.7 88593.2 88621.1 88640.3 88649.6 88648.4 88634.7 88606 88563 88527.5 88599.1
          89095.2 92005 98783.5 111723 133679 166826 210405 259795 308589 352562 387244 407459
          88449.8 88458.6 88471.2 88482.6 88489.7 88490.1 88480.6 88455.2 88402.5 88302.5 88120.5 87785.4
          86839.7 88957.8 94568.5 105219 122702 148302 181971 220989 256734 290508 318604 335331
          88350 88353.2 88358 88362.2 88363.6 88360.3 88348.9 88323.3 88273.7 88186.5 88052 87896.8
          88405.4 88411.3 88433 88483.1 88578.7 88743 88989.2 89888 213916 232512 252683 265713
          88198.5 88199.7 88201.3 88202.4 88201.8 88197.9 88188.1 88168.3 88132.9 88076.4 88001 87932.6
          88450.4 88452.9 88452.9 88453 88453.1 88453.4 88454.3 88789.5 170040 180945 194361 203628
          87933.6 87934 87934.5 87934.5 87933.4 87930.2 87923.2 87910.3 87888.7 87857.3 87819.8 87790.7
          88450.3 88453 88453 88453 88453 88453 88453.2 88624.7 135717 141512 149217 154811
          87459.4 87459.5 87459.5 87459.3 87458.3 87456.1 87451.8 87444.2 87432.5 87416.7 87399.6 87388.2
          88448.6 88453 88453 88453 88453 88453 88453.1 88534.1 113086 115714 119390 122133
          86631.8 86631.8 86631.7 86631.4 86630.8 86629.4 86627 86623 86617.2 86610.1 86603.4 86600.4
          88444.8 88453 88453 88453 88453 88453 88453 88485.2 99567.8 100632 102146 103268
          85256.9 85256.8 85256.8 85256.6 85256.2 85255.4 85254.2 85252.3 85249.9 85247.4 85246 85247.5
          88437.4 88453 88453 88453 88453 88453 88453 88456.2 91545.6 91947.5 92521.1 92940.2
          83159.8 83159.8 83159.7 83159.6 83159.4 83159 83158.4 83157.7 83157 83156.9 83158.4 83163
          88424.1 88452.9 88452.9 88452.9 88452.9 88452.9 88452.9 88433 86236.8 86380.5 86588.1 86738.4
          80603 80603 80602.9 80602.9 80602.7 80602.5 80602.3 80602.1 80602.2 80603.2 80606 80612
          88383.4 88431.3 88431.4 88431.4 88431.4 88431.4 88431.3 88388.4 82370 82424.1 82505.3 82564.1
        </DataArray>
        <DataArray type="Float32" Name="rho_liq" NumberOfComponents="1" format="ascii">
          997.044 997.046 997.047 997.047 997.047 997.047 997.047 997.047 997.048 997.048 997.048 997.049
          997.051 997.055 997.063 997.078 997.103 997.135 997.171 997.207 997.242 997.273 997.301 997.322
          997.043 997.044 997.044 997.045 997.045 997.045 997.045 997.045 997.045 997.045 997.046 997.047
          997.048 997.052 997.061 997.075 997.099 997.129 997.164 997.199 997.234 997.265 997.292 997.313
          997.043 997.043 997.044 997.044 997.044 997.044 997.044 997.044 997.044 997.044 997.044 997.045
          997.047 997.051 997.058 997.072 997.094 997.123 997.156 997.19 997.223 997.253 997.279 997.299
          997.043 997.043 997.043 997.043 997.043 997.043 997.043 997.043 997.043 997.043 997.044 997.044
          997.046 997.049 997.056 997.068 997.087 997.114 997.144 997.176 997.208 997.236 997.26 997.278
          997.043 997.043 997.043 997.043 997.043 997.043 997.043 997.043 997.043 997.043 997.043 997.044
          997.045 997.047 997.053 997.063 997.079 997.102 997.13 997.16 997.188 997.214 997.235 997.249
          997.043 997.043 997.043 997.043 997.043 997.043 997.043 997.043 997.043 997.043 997.043 997.043
          997.044 997.046 997.05 997.057 997.07 997.09 997.114 997.14 997.166 997.189 997.207 997.218
          997.042 997.043 997.043 997.043 997.043 997.043 997.043 997.043 997.043 997.043 997.042 997.043
          997.043 997.044 997.047 997.053 997.063 997.078 997.097 997.12 997.142 997.161 997.177 997.186
          997.042 997.042 997.042 997.042 997.042 997.042 997.042 997.042 997.042 997.042 997.042 997.042
          997.042 997.043 997.045 997.05 997.058 997.069 997.085 997.102 997.118 997.133 997.146 997.154
          997.042 997.042 997.042 997.042 997.042 997.042 997.042 997.042 997.042 997.042 997.042 997.042
          997.042 997.042 997.042 997.042 997.043 997.043 997.043 997.043 997.099 997.107 997.116 997.122
          997.042 997.042 997.042 997.042 997.042 997.042 997.042 997.042 997.042 997.042 997.042 997.042
          997.042 997.042 997.042 997.042 997.042 997.042 997.042 997.043 997.079 997.084 997.09 997.094
          997.042 997.042 997.042 997.042 997.042 997.042 997.042 997.042 997.042 997.042 997.042 997.042
          997.042 997.042 997.042 997.042 997.042 997.042 997.042 997.043 997.064 997.066 997.07 997.072
          997.042 997.042 997.042 997.042 997.042 997.042 997.042 997.042 997.042 997.042 997.042 997.042
          997.042 997.042 997.042 997.042 997.042 997.042 997.042 997.042 997.054 997.055 997.056 997.058
          997.042 997.042 997.042 997.042 997.042 997.042 997.042 997.042 997.042 997.042 997.042 997.042
          997.042 997.042 997.042 997.042 997.042 997.042 997.042 997.042 997.047 997.048 997.049 997.049
          997.041 997.041 997.041 997.041 997.041 997.041 997.041 997.041 997.041 997.041 997.041 997.041
          997.042 997.042 997.042 997.042 997.042 997.042 997.042 997.042 997.044 997.044 997.044 997.044
          997.04 997.04 997.04 997.04 997.04 997.04 997.04 997.04 997.04 997.04 997.04 997.04
          997.042 997.042 997.042 997.042 997.042 997.042 997.042 997.042 997.042 997.042 997.042 997.042
          997.039 997.039 997.039 997.039 997.039 997.039 997.039 997.039 997.039 997.039 997.039 997.039
          997.042 997.042 997.042 997.042 997.042 997.042 997.042 997.042 997.04 997.04 997.04 997.04
        </DataArray>
        <DataArray type="Float32" Name="rho_gas" NumberOfComponents="1" format="ascii">
          1.15823 1.19882 1.21883 1.22873 1.23361 1.23607 1.23748 1.23875 1.24075 1.24498 1.25444 1.2756
          1.32204 1.4214 1.62646 2.01368 2.62971 3.43523 4.33712 5.25076 6.12131 6.91488 7.6021 8.13488
          1.13205 1.1531 1.16574 1.17276 1.17649 1.17847 1.17968 1.18084 1.18275 1.18686 1.19618 1.2173
          1.26418 1.3648 1.56877 1.94173 2.52487 3.29129 4.16224 5.05629 5.91488 6.70016 7.38137 7.91062
          1.12447 1.13611 1.1439 1.1486 1.15126 1.15275 1.15371 1.15468 1.15636 1.16005 1.16858 1.18817
          1.23205 1.3266 1.51779 1.86567 2.40952 3.12942 3.95631 4.81304 5.63992 6.39684 7.05272 7.56519
          1.12115 1.12717 1.13148 1.13428 1.13597 1.13696 1.13763 1.13834 1.13961 1.14254 1.14953 1.16598
          1.2035 1.28522 1.45137 1.75674 2.24328 2.90192 3.6728 4.48065 5.26264 5.97448 6.58315 7.0531
          1.12066 1.12268 1.12467 1.12613 1.12709 1.12767 1.12806 1.12845 1.12921 1.13108 1.13589 1.14794
          1.17675 1.2418 1.37587 1.62612 2.03685 2.61412 3.31173 4.05705 4.78188 5.43339 5.96495 6.31132
          1.11937 1.12009 1.12094 1.12165 1.12213 1.12242 1.12257 1.12267 1.12285 1.1235 1.12571 1.1324
          1.15083 1.1986 1.30057 1.49371 1.81942 2.29732 2.90001 3.56282 4.21399 4.79585 5.25621 5.53279
          1.11822 1.11849 1.11884 1.11916 1.11937 1.11948 1.11946 1.11931 1.11899 1.1185 1.1181 1.11892
          1.12495 1.15772 1.23405 1.37978 1.6272 2.00104 2.49307 3.05133 3.60338 4.10133 4.49461 4.72473
          1.11723 1.11733 1.11747 1.1176 1.11768 1.11768 1.11757 1.11729 1.11669 1.11557 1.11352 1.10977
          1.10285 1.12684 1.19008 1.31013 1.50719 1.79568 2.17498 2.61441 3.01663 3.39906 3.71754 3.90775
          1.1161 1.11614 1.11619 1.11624 1.11626 1.11622 1.11609 1.1158 1.11524 1.11426 1.11275 1.111
          1.11673 1.1168 1.11704 1.11761 1.11868 1.12054 1.12331 1.13344 2.53224 2.74306 2.97168 3.11972
          1.1144 1.11441 1.11443 1.11444 1.11444 1.11439 1.11428 1.11406 1.11366 1.11302 1.11218 1.11141
          1.11723 1.11726 1.11726 1.11726 1.11726 1.11727 1.11728 1.12105 2.03683 2.16035 2.31228 2.41743
          1.11142 1.11142 1.11143 1.11143 1.11142 1.11138 1.1113 1.11116 1.11091 1.11056 1.11014 1.10981
          1.11723 1.11726 1.11726 1.11726 1.11726 1.11726 1.11727 1.1192 1.64976 1.71524 1.80236 1.86572
          1.10608 1.10609 1.10609 1.10608 1.10607 1.10605 1.106 1.10591 1.10578 1.1056 1.10541 1.10528
          1.11721 1.11726 1.11726 1.11726 1.11726 1.11726 1.11726 1.11818 1.39473 1.42438 1.46587 1.49685
          1.09678 1.09678 1.09678 1.09677 1.09677 1.09675 1.09672 1.09668 1.09661 1.09653 1.09646 1.09642
          1.11717 1.11726 1.11726 1.11726 1.11726 1.11726 1.11726 1.11762 1.24245 1.25445 1.27151 1.28416
          1.08135 1.08135 1.08135 1.08135 1.08134 1.08133 1.08132 1.0813 1.08127 1.08124 1.08123 1.08124
          1.11709 1.11726 1.11726 1.11726 1.11726 1.11726 1.11726 1.1173 1.15215 1.15668 1.16314 1.16786
          1.05814 1.05814 1.05814 1.05814 1.05813 1.05813 1.05812 1.05812 1.05811 1.05811 1.05812 1.05818
          1.11694 1.11726 1.11726 1.11726 1.11726 1.11726 1.11726 1.11704 1.09277 1.09438 1.09672 1.09841
          1.0327 1.0327 1.03269 1.03269 1.03269 1.03269 1.03269 1.03269 1.03269 1.0327 1.03273 1.0328
          1.11648 1.11702 1.11702 1.11702 1.11702 1.11702 1.11702 1.11654 1.05259 1.0532 1.05411 1.05477
        </DataArray>
        <DataArray type="Float32" Name="mob_liq" NumberOfComponents="1" format="ascii">
          446.797 453.875 456.682 458.078 458.773 459.125 459.33 459.515 459.81 460.43 461.823 464.977
          472.176 488.6 520.511 558.1 570.773 547.389 503.086 451.728 397.879 340.341 274.176 187.886
          358.929 361.872 363.362 364.118 364.499 364.694 364.809 364.915 365.086 365.451 366.273 368.111
          372.11 380.288 394.48 411.751 422.29 418.082 399.33 370.266 334.074 291.217 238.891 167.55
          356.099 357.052 357.692 358.078 358.298 358.422 358.501 358.582 358.722 359.03 359.74 361.356
          364.896 372.076 384.217 398.492 406.739 402.492 385.574 358.958 325.009 283.92 232.738 162.086
          355.827 356.3 356.644 356.869 357.006 357.087 357.141 357.199 357.303 357.543 358.116 359.456
          362.456 368.7 379.666 393.558 402.941 400.454 384.841 358.673 324.34 282.12 228.924 154.942
          355.782 355.942 356.102 356.22 356.297 356.345 356.376 356.407 356.467 356.615 356.998 357.954
          360.145 365.196 374.687 388.459 401.117 404.435 394.666 373.394 343.597 307.14 263.931 211.592
          355.674 355.732 355.801 355.858 355.897 355.92 355.932 355.938 355.949 355.993 356.153 356.618
          357.009 360.753 368.429 381.077 396.251 406.509 405.123 391.322 367.717 337.33 301.772 261.146
          355.577 355.599 355.627 355.653 355.67 355.678 355.677 355.662 355.633 355.586 355.535 355.403
          346.265 348.615 354.476 365.173 381.382 399.325 409.954 406.609 390.627 366.261 337.13 304.542
          355.49 355.498 355.51 355.52 355.526 355.527 355.517 355.493 355.444 355.352 355.191 354.319
          282.192 281.377 284.129 289.283 298.185 312.961 336.013 368.295 409.348 390.467 367.42 341.687
          355.387 355.39 355.395 355.398 355.4 355.396 355.385 355.362 355.316 355.237 355.12 354.989
          355.367 355.372 355.387 355.419 355.473 355.551 355.675 356.351 423.313 405.848 389.068 370.45
          355.226 355.227 355.228 355.229 355.229 355.225 355.216 355.198 355.165 355.114 355.047 354.989
          355.5 355.503 355.503 355.503 355.503 355.503 355.504 355.803 412.535 405.274 397.277 386.82
          354.939 354.94 354.94 354.94 354.939 354.936 354.93 354.918 354.898 354.869 354.836 354.81
          355.5 355.503 355.503 355.503 355.503 355.503 355.503 355.661 392.764 392.52 391.538 388.197
          354.417 354.418 354.418 354.417 354.416 354.414 354.41 354.403 354.393 354.378 354.363 354.353
          355.499 355.503 355.503 355.503 355.503 355.503 355.503 355.579 375.718 376.833 378.107 378.352
          353.436 353.436 353.436 353.436 353.435 353.434 353.431 353.428 353.422 353.416 353.41 353.408
          355.495 355.503 355.503 355.503 355.503 355.503 355.503 355.534 364.658 365.367 366.31 366.895
          351.091 351.091 351.091 351.09 351.09 351.089 351.088 351.086 351.084 351.082 351.081 351.083
          355.488 355.503 355.503 355.503 355.503 355.503 355.503 355.506 356.805 357.129 357.582 357.9
          340.756 340.756 340.756 340.756 340.756 340.755 340.755 340.754 340.753 340.753 340.754 340.76
          355.475 355.503 355.503 355.503 355.503 355.503 355.503 355.484 343.769 343.91 344.115 344.262
          276.872 276.872 276.872 276.872 276.872 276.872 276.872 276.871 276.871 276.872 276.873 276.888
          355.345 355.393 355.393 355.393 355.393 355.393 355.393 355.35 278.104 278.142 278.213 278.265
        </DataArray>
        <DataArray type="Float32" Name="mob_gas" NumberOfComponents="1" format="ascii">
          888.639 850.251 835.447 828.169 824.57 822.751 821.694 820.741 819.224 816.041 808.931 793.045
          757.814 682.603 554.977 431.488 395.51 464.054 621.888 861.872 1200.81 1700.34 2535.95 4360.15
          1519.95 1493.2 1479.84 1473.1 1469.72 1468 1466.98 1466.04 1464.52 1461.3 1454.07 1438.02
          1403.7 1335.94 1225.72 1103.18 1034.15 1061.26 1190.17 1419.59 1765.65 2286.56 3150.51 4992.86
          1546.11 1537.25 1531.33 1527.77 1525.74 1524.61 1523.87 1523.13 1521.85 1519.02 1512.53 1497.87
          1466.21 1403.99 1304.52 1196.17 1137.52 1167.42 1293.93 1519.85 1864.68 2389.99 3273.66 5182.07
          1548.64 1544.23 1541.03 1538.94 1537.68 1536.93 1536.42 1535.89 1534.92 1532.7 1527.42 1515.12
          1487.96 1432.92 1340.98 1232.62 1164.19 1182 1299.69 1522.45 1872.18 2416.22 3352.72 5443.55
          1549.06 1547.56 1546.08 1544.98 1544.26 1543.82 1543.53 1543.23 1542.68 1541.31 1537.75 1528.91
          1508.84 1463.55 1382 1271.38 1177.2 1153.65 1224.41 1392.96 1667.22 2076.68 2699.61 3740.73
          1550.07 1549.53 1548.89 1548.36 1547.99 1547.77 1547.66 1547.61 1547.51 1547.09 1545.6 1541.28
          1537.65 1503.32 1435.27 1329.57 1212.59 1139.12 1148.82 1249.55 1441.58 1731.33 2145.08 2746.02
          1550.98 1550.78 1550.51 1550.27 1550.11 1550.03 1550.05 1550.18 1550.46 1550.89 1551.37 1552.6
          1640.48 1617.43 1561.31 1463.76 1327.13 1190.12 1115.4 1138.45 1254.84 1454.3 1733.4 2109.47
          1551.79 1551.71 1551.61 1551.51 1551.45 1551.45 1551.53 1551.76 1552.22 1553.08 1554.59 1562.78
          2414.89 2426.88 2386.66 2313.2 2191.88 2004.86 1744.98 1436.49 1119.56 1256.05 1444.15 1686.46
          1552.75 1552.72 1552.68 1552.65 1552.64 1552.67 1552.77 1552.99 1553.42 1554.16 1555.25 1556.48
          1552.94 1552.89 1552.75 1552.46 1551.95 1551.22 1550.06 1543.76 1027.66 1143.74 1266.75 1417.93
          1554.26 1554.25 1554.24 1554.23 1554.24 1554.27 1554.36 1554.53 1554.83 1555.31 1555.94 1556.49
          1551.69 1551.67 1551.67 1551.67 1551.67 1551.67 1551.66 1548.86 1097.91 1147.74 1205.07 1284.13
          1556.95 1556.95 1556.94 1556.94 1556.95 1556.98 1557.04 1557.15 1557.34 1557.61 1557.92 1558.16
          1551.69 1551.67 1551.67 1551.67 1551.67 1551.67 1551.67 1550.19 1238.58 1240.42 1247.84 1273.42
          1561.85 1561.85 1561.85 1561.86 1561.86 1561.88 1561.92 1561.99 1562.09 1562.22 1562.37 1562.46
          1551.71 1551.67 1551.67 1551.67 1551.67 1551.67 1551.67 1550.96 1373.41 1364.18 1353.7 1351.7
          1571.12 1571.12 1571.12 1571.12 1571.13 1571.14 1571.16 1571.2 1571.25 1571.31 1571.36 1571.39
          1551.74 1551.67 1551.67 1551.67 1551.67 1551.67 1551.67 1551.38 1468.32 1462.05 1453.75 1448.62
          1593.48 1593.48 1593.48 1593.48 1593.48 1593.49 1593.5 1593.52 1593.54 1593.56 1593.57 1593.56
          1551.81 1551.67 1551.67 1551.67 1551.67 1551.67 1551.67 1551.64 1539.54 1536.54 1532.35 1529.41
          1695.81 1695.81 1695.81 1695.81 1695.81 1695.81 1695.82 1695.83 1695.84 1695.84 1695.83 1695.77
          1551.93 1551.67 1551.67 1551.67 1551.67 1551.67 1551.67 1551.85 1665.32 1663.91 1661.86 1660.39
          2494.28 2494.28 2494.28 2494.28 2494.28 2494.28 2494.29 2494.29 2494.29 2494.29 2494.27 2494.04
          1553.14 1552.7 1552.7 1552.7 1552.7 1552.7 1552.7 1553.1 2475.65 2475.08 2474 2473.22
        </DataArray>
        <DataArray type="Float32" Name="X^H2O_liq" NumberOfComponents="1" format="ascii">
          0.999982 0.999981 0.999981 0.999981 0.999981 0.999981 0.999981 0.999981 0.999981 0.999981 0.99998 0.99998
          0.999979 0.999978 0.999974 0.999968 0.999958 0.999946 0.999931 0.999917 0.999903 0.99989 0.999879 0.999871
          0.999982 0.999982 0.999982 0.999982 0.999982 0.999982 0.999982 0.999982 0.999982 0.999981 0.999981 0.999981
          0.99998 0.999979 0.999975 0.999969 0.99996 0.999948 0.999934 0.99992 0.999906 0.999894 0.999883 0.999874
          0.999982 0.999982 0.999982 0.999982 0.999982 0.999982 0.999982 0.999982 0.999982 0.999982 0.999982 0.999981
          0.999981 0.999979 0.999976 0.999971 0.999962 0.99995 0.999937 0.999924 0.99991 0.999898 0.999888 0.99988
          0.999982 0.999982 0.999982 0.999982 0.999982 0.999982 0.999982 0.999982 0.999982 0.999982 0.999982 0.999982
          0.999981 0.99998 0.999977 0.999972 0.999965 0.999954 0.999942 0.999929 0.999916 0.999905 0.999895 0.999888
          0.999982 0.999982 0.999982 0.999982 0.999982 0.999982 0.999982 0.999982 0.999982 0.999982 0.999982 0.999982
          0.999982 0.999981 0.999978 0.999974 0.999968 0.999959 0.999948 0.999936 0.999924 0.999914 0.999905 0.9999
          0.999983 0.999983 0.999982 0.999982 0.999982 0.999982 0.999982 0.999982 0.999982 0.999982 0.999982 0.999982
          0.999982 0.999981 0.99998 0.999977 0.999971 0.999964 0.999954 0.999944 0.999933 0.999924 0.999917 0.999912
          0.999983 0.999983 0.999983 0.999983 0.999983 0.999983 0.999983 0.999983 0.999983 0.999983 0.999983 0.999983
          0.999982 0.999982 0.999981 0.999978 0.999974 0.999968 0.999961 0.999952 0.999943 0.999935 0.999929 0.999925
          0.999983 0.999983 0.999983 0.999983 0.999983 0.999983 0.999983 0.999983 0.999983 0.999983 0.999983 0.999983
          0.999983 0.999982 0.999981 0.999979 0.999976 0.999972 0.999966 0.999959 0.999952 0.999946 0.999941 0.999938
          0.999983 0.999983 0.999983 0.999983 0.999983 0.999983 0.999983 0.999983 0.999983 0.999983 0.999983 0.999983