<?xml version="1.0"?>
<VTKFile type="UnstructuredGrid" version="0.1" byte_order="LittleEndian">
  <UnstructuredGrid>
    <Piece NumberOfCells="384" NumberOfPoints="425">
      <CellData Scalars="S_w">
        <DataArray type="Float32" Name="S_w" NumberOfComponents="1" format="ascii">
          0 0 0 0 0 0 0 0 0 0 0 0
          0 0 0 0 0 0 0 0 0 0.00631723 0.593811 1
          0 0 0 0 0 0 0 0 0 0 0 0
          0 0 0 0 0 0 0 0 0 0.00530125 0.551013 1
          0 0 0 0 0 0 0 0 0 0 0 0
          0 0 0 0 0 0 0 0 0 0.00477608 0.552429 1
          0 0 0 0 0 0 0 0 0 0 0 0
          0 0 0 0 0 0 0 0 0 0.0033783 0.521077 1
          0 0 0 0 0 0 0 0 0 0 0 0
          0 0 0 0 0 0 0 0 0 0 0.000822995 0.427866
          0 0 0 0 0 0 0 0 0 0 0 0
          0 0 0 0 0 0 0 0 0 0 0 0
          0 0 0 0 0 0 0 0 0 0 0 0
          0 0 0 0 0 0 0 0 0 0 0 0
          0 0 0 0 0 0 0 0 0 0 0 0
          0 0 0 0 0 0 0 0 0 0 0 0
          0 0 0 0 0 0 0 0 0 0 0 0
          0 0 0 0 0 0 0 0 0 0 0 0
          0 0 0 0 0 0 0 0 0 0 0 0
          0 0 0 0 0 0 0 0 0 0 0 0
          0 0 0 0 0 0 0 0 0 0 0 0
          0 0 0 0 0 0 0 0 0 0 0 0
          0 0 0 0 0 0 0 0 0 0 0 0
          0 0 0 0 0 0 0 0 0 0 0 0
          0 0 0 0 0 0 0 0 0 0 0 0
          0 0 0 0 0 0 0 0 0 0 0 0
          0 0 0 0 0 0 0 0 0 0 0 0
          0 0 0 0 0 0 0 0 0 0 0 0
          0 0 0 0 0 0 0 0 0 0 0 0
          0 0 0 0 0 0 0 0 0 0 0 0
          0 0 0 0 0 0 0 0 0 0 0 0
          0 0 0 0 0 0 0 0 0 0 0 0
        </DataArray>
        <DataArray type="Float32" Name="S_n" NumberOfComponents="1" format="ascii">
          1 1 1 1 1 1 1 1 1 1 1 1
          1 1 1 1 1 1 1 1 1 0.993683 0.406189 0
          1 1 1 1 1 1 1 1 1 1 1 1
          1 1 1 1 1 1 1 1 1 0.994699 0.448987 0
          1 1 1 1 1 1 1 1 1 1 1 1
          1 1 1 1 1 1 1 1 1 0.995224 0.447571 0
          1 1 1 1 1 1 1 1 1 1 1 1
          1 1 1 1 1 1 1 1 1 0.996622 0.478923 0
          1 1 1 1 1 1 1 1 1 1 1 1
          1 1 1 1 1 1 1 1 1 1 0.999177 0.572134
          1 1 1 1 1 1 1 1 1 1 1 1
          1 1 1 1 1 1 1 1 1 1 1 1
          1 1 1 1 1 1 1 1 1 1 1 1
          1 1 1 1 1 1 1 1 1 1 1 1
          1 1 1 1 1 1 1 1 1 1 1 1
          1 1 1 1 1 1 1 1 1 1 1 1
          1 1 1 1 1 1 1 1 1 1 1 1
          1 1 1 1 1 1 1 1 1 1 1 1
          1 1 1 1 1 1 1 1 1 1 1 1
          1 1 1 1 1 1 1 1 1 1 1 1
          1 1 1 1 1 1 1 1 1 1 1 1
          1 1 1 1 1 1 1 1 1 1 1 1
          1 1 1 1 1 1 1 1 1 1 1 1
          1 1 1 1 1 1 1 1 1 1 1 1
          1 1 1 1 1 1 1 1 1 1 1 1
          1 1 1 1 1 1 1 1 1 1 1 1
          1 1 1 1 1 1 1 1 1 1 1 1
          1 1 1 1 1 1 1 1 1 1 1 1
          1 1 1 1 1 1 1 1 1 1 1 1
          1 1 1 1 1 1 1 1 1 1 1 1
          1 1 1 1 1 1 1 1 1 1 1 1
          1 1 1 1 1 1 1 1 1 1 1 1
        </DataArray>
        <DataArray type="Float32" Name="p_w" NumberOfComponents="1" format="ascii">
          100000 100031 100048 100056 100004 100001 100001 100018 100566 100599 100665 100769
          100917 101115 101375 101709 102134 102670 103342 104183 105235 106538 110397 200000
          100000 100018 100030 100036 100002 100000 100000 100015 100534 100566 100631 100733
          100876 101069 101322 101645 102055 102570 103213 104014 105012 106253 109633 200000
          100000 100010 100018 100022 100001 100000 100000 100014 100498 100528 100590 100687
          100824 101006 101244 101548 101930 102406 102994 103718 104608 105704 108697 200000
          100000 100005 100009 100012 100001 100000 100000 100012 100458 100487 100545 100635
          100761 100930 101148 101424 101768 102190 102704 103322 104058 104930 107074 200000
          99998.1 100000 100002 100004 100000 100000 100000 100011 100416 100442 100495 100577
          100691 100843 101038 101282 101581 101944 102373 102872 103434 104031 104582 105276
          99994 99994.9 99996 99996.6 100000 100000 100000 100010 100372 100396 100443 100516
          100617 100750 100920 101130 101384 101685 102033 102421 102835 103238 103559 103673
          99988.6 99989 99989.5 99989.9 99999.8 100000 100000 100008 100328 100348 100390 100453
          100541 100656 100800 100977 101187 101431 101706 102003 102305 102584 102796 102896
          99982.2 99982.4 99982.6 99982.9 99999.5 100000 100000 100007 100283 100301 100336 100391
          100466 100563 100683 100829 101000 101195 101409 101633 101854 102051 102198 102274
          99974.6 99974.8 99975 99975.1 99999.3 100000 100000 100006 100239 100254 100284 100330
          100393 100474 100573 100692 100829 100982 101147 101316 101478 101619 101723 101778
          99965.9 99966.1 99966.3 99966.4 99999 100000 100000 100005 100196 100209 100234 100273
          100325 100392 100472 100568 100676 100796 100922 101049 101168 101271 101346 101385
          99955.8 99956 99956.3 99956.6 99998.6 100000 100000 100003 100154 100165 100187 100219
          100262 100316 100382 100458 100544 100637 100733 100829 100918 100993 101047 101076
          99944 99944.4 99945 99945.6 99998.1 100000 100000 100002 100114 100123 100142 100169
          100205 100249 100303 100364 100431 100504 100578 100651 100718 100773 100813 100834
          99930.2 99930.9 99932.1 99933.4 99997.6 99999.9 100000 100001 100075 100084 100100 100123
          100153 100191 100234 100284 100338 100396 100454 100510 100561 100603 100633 100649
          99913.9 99915.1 99917.6 99920.6 99995.1 99998.4 99998.7 99998.7 100035 100045 100061 100082
          100108 100140 100176 100218 100263 100309 100356 100401 100442 100475 100498 100510
          99894.4 99896.4 99900.8 99909.1 99926.4 99941.4 99956.2 99972.5 99992.8 100008 100025 100044
          100068 100097 100129 100165 100204 100244 100284 100322 100355 100383 100402 100412
          99871.1 99873.4 99878.5 99887.2 99900.2 99914.1 99928.4 99943.6 99960.1 99975.9 99992.7 100012
          100035 100061 100092 100125 100161 100198 100234 100268 100299 100324 100341 100351
        </DataArray>
        <DataArray type="Float32" Name="p_n" NumberOfComponents="1" format="ascii">
          100000 100031 100048 100056 100004 100001 100001 100018 100566 100599 100665 100769
          100917 101115 101375 101709 102134 102670 103342 104183 105235 106538 110397 200000
          100000 100018 100030 100036 100002 100000 100000 100015 100534 100566 100631 100733
          100876 101069 101322 101645 102055 102570 103213 104014 105012 106253 109633 200000
          100000 100010 100018 100022 100001 100000 100000 100014 100498 100528 100590 100687
          100824 101006 101244 101548 101930 102406 102994 103718 104608 105704 108697 200000
          100000 100005 100009 100012 100001 100000 100000 100012 100458 100487 100545 100635
          100761 100930 101148 101424 101768 102190 102704 103322 104058 104930 107074 200000
          99998.1 100000 100002 100004 100000 100000 100000 100011 100416 100442 100495 100577
          100691 100843 101038 101282 101581 101944 102373 102872 103434 104031 104582 105276
          99994 99994.9 99996 99996.6 100000 100000 100000 100010 100372 100396 100443 100516
          100617 100750 100920 101130 101384 101685 102033 102421 102835 103238 103559 103673
          99988.6 99989 99989.5 99989.9 99999.8 100000 100000 100008 100328 100348 100390 100453
          100541 100656 100800 100977 101187 101431 101706 102003 102305 102584 102796 102896
          99982.2 99982.4 99982.6 99982.9 99999.5 100000 100000 100007 100283 100301 100336 100391
          100466 100563 100683 100829 101000 101195 101409 101633 101854 102051 102198 102274
          99974.6 99974.8 99975 99975.1 99999.3 100000 100000 100006 100239 100254 100284 100330
          100393 100474 100573 100692 100829 100982 101147 101316 101478 101619 101723 101778
          99965.9 99966.1 99966.3 99966.4 99999 100000 100000 100005 100196 100209 100234 100273
          100325 100392 100472 100568 100676 100796 100922 101049 101168 101271 101346 101385
          99955.8 99956 99956.3 99956.6 99998.6 100000 100000 100003 100154 100165 100187 100219
          100262 100316 100382 100458 100544 100637 100733 100829 100918 100993 101047 101076
          99944 99944.4 99945 99945.6 99998.1 100000 100000 100002 100114 100123 100142 100169
          100205 100249 100303 100364 100431 100504 100578 100651 100718 100773 100813 100834
          99930.2 99930.9 99932.1 99933.4 99997.6 99999.9 100000 100001 100075 100084 100100 100123
          100153 100191 100234 100284 100338 100396 100454 100510 100561 100603 100633 100649
          99913.9 99915.1 99917.6 99920.6 99995.1 99998.4 99998.7 99998.7 100035 100045 100061 100082
          100108 100140 100176 100218 100263 100309 100356 100401 100442 100475 100498 100510
          99894.4 99896.4 99900.8 99909.1 99926.4 99941.4 99956.2 99972.5 99992.8 100008 100025 100044
          100068 100097 100129 100165 100204 100244 100284 100322 100355 100383 100402 100412
          99871.1 99873.4 99878.5 99887.2 99900.2 99914.1 99928.4 99943.6 99960.1 99975.9 99992.7 100012
          100035 100061 100092 100125 100161 100198 100234 100268 100299 100324 100341 100351
        </DataArray>
        <DataArray type="Float32" Name="rho_w" NumberOfComponents="1" format="ascii">
          997.048 997.048 997.048 997.048 997.048 997.048 997.048 997.048 997.048 997.048 997.048 997.048
          997.048 997.048 997.048 997.048 997.049 997.049 997.049 997.05 997.05 997.051 997.052 997.093
          997.048 997.048 997.048 997.048 997.048 997.048 997.048 997.048 997.048 997.048 997.048 997.048
          997.048 997.048 997.048 997.048 997.049 997.049 997.049 997.049 997.05 997.05 997.052 997.093
          997.048 997.048 997.048 997.048 997.048 997.048 997.048 997.048 997.048 997.048 997.048 997.048
          997.048 997.048 997.048 997.048 997.049 997.049 997.049 997.049 997.05 997.05 997.052 997.093
          997.048 997.048 997.048 997.048 997.048 997.048 997.048 997.048 997.048 997.048 997.048 997.048
          997.048 997.048 997.048 997.048 997.048 997.049 997.049 997.049 997.049 997.05 997.051 997.093
          997.048 997.048 997.048 997.048 997.048 997.048 997.048 997.048 997.048 997.048 997.048 997.048
          997.048 997.048 997.048 997.048 997.048 997.049 997.049 997.049 997.049 997.049 997.05 997.05
          997.048 997.048 997.048 997.048 997.048 997.048 997.048 997.048 997.048 997.048 997.048 997.048
          997.048 997.048 997.048 997.048 997.048 997.048 997.049 997.049 997.049 997.049 997.049 997.049
          997.048 997.048 997.048 997.048 997.048 997.048 997.048 997.048 997.048 997.048 997.048 997.048
          997.048 997.048 997.048 997.048 997.048 997.048 997.048 997.049 997.049 997.049 997.049 997.049
          997.048 997.048 997.048 997.048 997.048 997.048 997.048 997.048 997.048 997.048 997.048 997.048
          997.048 997.048 997.048 997.048 997.048 997.048 997.048 997.048 997.049 997.049 997.049 997.049
          997.048 997.048 997.048 997.048 997.048 997.048 997.048 997.048 997.048 997.048 997.048 997.048
          997.048 997.048 997.048 997.048 997.048 997.048 997.048 997.048 997.048 997.048 997.048 997.048
          997.048 997.048 997.048 997.048 997.048 997.048 997.048 997.048 997.048 997.048 997.048 997.048
          997.048 997.048 997.048 997.048 997.048 997.048 997.048 997.048 997.048 997.048 997.048 997.048
          997.048 997.048 997.048 997.048 997.048 997.048 997.048 997.048 997.048 997.048 997.048 997.048
          997.048 997.048 997.048 997.048 997.048 997.048 997.048 997.048 997.048 997.048 997.048 997.048
          997.048 997.048 997.048 997.048 997.048 997.048 997.048 997.048 997.048 997.048 997.048 997.048
          997.048 997.048 997.048 997.048 997.048 997.048 997.048 997.048 997.048 997.048 997.048 997.048
          997.048 997.048 997.048 997.048 997.048 997.048 997.048 997.048 997.048 997.048 997.048 997.048
          997.048 997.048 997.048 997.048 997.048 997.048 997.048 997.048 997.048 997.048 997.048 997.048
          997.048 997.048 997.048 997.048 997.048 997.048 997.048 997.048 997.048 997.048 997.048 997.048
          997.048 997.048 997.048 997.048 997.048 997.048 997.048 997.048 997.048 997.048 997.048 997.048
          997.048 997.048 997.048 997.048 997.048 997.048 997.048 997.048 997.048 997.048 997.048 997.048
          997.048 997.048 997.048 997.048 997.048 997.048 997.048 997.048 997.048 997.048 997.048 997.048
          997.048 997.048 997.048 997.048 997.048 997.048 997.048 997.048 997.048 997.048 997.048 997.048
          997.048 997.048 997.048 997.048 997.048 997.048 997.048 997.048 997.048 997.048 997.048 997.048
        </DataArray>
        <DataArray type="Float32" Name="rho_n" NumberOfComponents="1" format="ascii">
          1.12601 1.12636 1.12656 1.12664 1.12606 1.12602 1.12602 1.12621 1.13238 1.13275 1.13351 1.13468
          1.13634 1.13857 1.1415 1.14526 1.15005 1.15608 1.1636 1.17268 1.182 1.19114 1.23476 1.45345
          1.12601 1.12621 1.12635 1.12642 1.12603 1.12601 1.12602 1.12619 1.13202 1.13239 1.13312 1.13426
          1.13588 1.13805 1.14089 1.14454 1.14915 1.15495 1.16216 1.17082 1.17972 1.18792 1.22612 1.45345
          1.12601 1.12613 1.12621 1.12626 1.12603 1.12601 1.12602 1.12617 1.13162 1.13196 1.13266 1.13375
          1.13529 1.13735 1.14002 1.14344 1.14774 1.1531 1.15969 1.16754 1.17543 1.18172 1.21554 1.45345
          1.12601 1.12607 1.12612 1.12614 1.12602 1.12601 1.12601 1.12615 1.13117 1.1315 1.13215 1.13316
          1.13459 1.13648 1.13894 1.14205 1.14592 1.15068 1.15644 1.16319 1.16972 1.17297 1.1972 1.45345
          1.12599 1.12601 1.12604 1.12605 1.12602 1.12601 1.12601 1.12614 1.1307 1.13099 1.13159 1.13251
          1.1338 1.13551 1.1377 1.14044 1.14382 1.1479 1.15273 1.15831 1.16427 1.16875 1.16904 1.17688
          1.12595 1.12596 1.12597 1.12598 1.12601 1.12601 1.12601 1.12612 1.13021 1.13047 1.131 1.13182
          1.13296 1.13446 1.13637 1.13873 1.1416 1.14498 1.1489 1.15327 1.15789 1.16208 1.16419 1.16527
          1.12589 1.12589 1.1259 1.1259 1.12601 1.12601 1.12601 1.12611 1.1297 1.12993 1.1304 1.13112
          1.13211 1.1334 1.13502 1.13701 1.13938 1.14213 1.14522 1.14857 1.15197 1.15507 1.15729 1.15837
          1.12581 1.12581 1.12582 1.12582 1.12601 1.12601 1.12601 1.12609 1.1292 1.1294 1.1298 1.13041
          1.13126 1.13235 1.13371 1.13535 1.13727 1.13947 1.14187 1.1444 1.14689 1.1491 1.15075 1.15159
          1.12573 1.12573 1.12573 1.12573 1.12601 1.12601 1.12601 1.12608 1.1287 1.12887 1.12921 1.12973
          1.13044 1.13135 1.13247 1.1338 1.13534 1.13707 1.13892 1.14083 1.14265 1.14424 1.14541 1.14603
          1.12563 1.12563 1.12563 1.12564 1.126 1.12601 1.12601 1.12606 1.12822 1.12836 1.12865 1.12909
          1.12967 1.13042 1.13133 1.13241 1.13363 1.13497 1.13639 1.13782 1.13917 1.14032 1.14116 1.14161
          1.12552 1.12552 1.12552 1.12552 1.126 1.12601 1.12601 1.12605 1.12775 1.12787 1.12811 1.12848
          1.12896 1.12958 1.13031 1.13117 1.13214 1.13318 1.13427 1.13535 1.13635 1.13719 1.1378 1.13812
          1.12538 1.12539 1.12539 1.1254 1.12599 1.12601 1.12601 1.12604 1.1273 1.1274 1.12761 1.12792
          1.12832 1.12882 1.12942 1.13011 1.13087 1.13169 1.13253 1.13335 1.13409 1.13472 1.13517 1.13541
          1.12523 1.12524 1.12525 1.12526 1.12599 1.12601 1.12601 1.12602 1.12685 1.12695 1.12714 1.1274
          1.12774 1.12816 1.12865 1.12921 1.12982 1.13047 1.13112 1.13176 1.13233 1.1328 1.13314 1.13332
          1.12504 1.12506 1.12509 1.12512 1.12596 1.12599 1.126 1.126 1.12641 1.12652 1.1267 1.12693
          1.12723 1.12759 1.128 1.12847 1.12897 1.1295 1.13003 1.13053 1.13098 1.13136 1.13162 1.13176
          1.12482 1.12485 1.1249 1.12499 1.12518 1.12535 1.12552 1.1257 1.12593 1.1261 1.12629 1.12651
          1.12678 1.1271 1.12747 1.12787 1.12831 1.12876 1.12921 1.12963 1.13001 1.13032 1.13054 1.13066
          1.12456 1.12459 1.12464 1.12474 1.12489 1.12505 1.12521 1.12538 1.12556 1.12574 1.12593 1.12615
          1.12641 1.12671 1.12705 1.12742 1.12782 1.12824 1.12865 1.12904 1.12938 1.12966 1.12986 1.12996
        </DataArray>
        <DataArray type="Float32" Name="lambda_w" NumberOfComponents="1" format="ascii">
          0 0 0 0 0 0 0 0 0 0 0 0
          0 0 0 0 0 0 0 0 0 0.40486 673.043 1123.58
          0 0 0 0 0 0 0 0 0 0 0 0
          0 0 0 0 0 0 0 0 0 0.284394 622.285 1123.58
          0 0 0 0 0 0 0 0 0 0 0 0
          0 0 0 0 0 0 0 0 0 0.230539 623.965 1123.58
          0 0 0 0 0 0 0 0 0 0 0 0
          0 0 0 0 0 0 0 0 0 0.114947 586.782 1123.58
          0 0 0 0 0 0 0 0 0 0 0 0
          0 0 0 0 0 0 0 0 0 0 0.00677851 476.234
          0 0 0 0 0 0 0 0 0 0 0 0
          0 0 0 0 0 0 0 0 0 0 0 0
          0 0 0 0 0 0 0 0 0 0 0 0
          0 0 0 0 0 0 0 0 0 0 0 0
          0 0 0 0 0 0 0 0 0 0 0 0
          0 0 0 0 0 0 0 0 0 0 0 0
          0 0 0 0 0 0 0 0 0 0 0 0
          0 0 0 0 0 0 0 0 0 0 0 0
          0 0 0 0 0 0 0 0 0 0 0 0
          0 0 0 0 0 0 0 0 0 0 0 0
          0 0 0 0 0 0 0 0 0 0 0 0
          0 0 0 0 0 0 0 0 0 0 0 0
          0 0 0 0 0 0 0 0 0 0 0 0
          0 0 0 0 0 0 0 0 0 0 0 0
          0 0 0 0 0 0 0 0 0 0 0 0
          0 0 0 0 0 0 0 0 0 0 0 0
          0 0 0 0 0 0 0 0 0 0 0 0
          0 0 0 0 0 0 0 0 0 0 0 0
          0 0 0 0 0 0 0 0 0 0 0 0
          0 0 0 0 0 0 0 0 0 0 0 0
          0 0 0 0 0 0 0 0 0 0 0 0
          0 0 0 0 0 0 0 0 0 0 0 0
        </DataArray>
        <DataArray type="Float32" Name="lambda_n" NumberOfComponents="1" format="ascii">
          56746.7 56746.7 56746.7 56746.7 56746.7 56746.7 56746.7 56746.7 56746.7 56746.7 56746.7 56746.7
          56746.7 56746.7 56746.7 56746.7 56746.7 56746.7 56746.7 56746.7 56746.7 56726.3 22754.1 0
          56746.7 56746.7 56746.7 56746.7 56746.7 56746.7 56746.7 56746.7 56746.7 56746.7 56746.7 56746.7
          56746.7 56746.7 56746.7 56746.7 56746.7 56746.7 56746.7 56746.7 56746.7 56732.4 25317.7 0
          56746.7 56746.7 56746.7 56746.7 56746.7 56746.7 56746.7 56746.7 56746.7 56746.7 56746.7 56746.7
          56746.7 56746.7 56746.7 56746.7 56746.7 56746.7 56746.7 56746.7 56746.7 56735.1 25232.9 0
          56746.7 56746.7 56746.7 56746.7 56746.7 56746.7 56746.7 56746.7 56746.7 56746.7 56746.7 56746.7
          56746.7 56746.7 56746.7 56746.7 56746.7 56746.7 56746.7 56746.7 56746.7 56740.9 27110.9 0
          56746.7 56746.7 56746.7 56746.7 56746.7 56746.7 56746.7 56746.7 56746.7 56746.7 56746.7 56746.7
          56746.7 56746.7 56746.7 56746.7 56746.7 56746.7 56746.7 56746.7 56746.7 56746.7 56746.4 32694.2
          56746.7 56746.7 56746.7 56746.7 56746.7 56746.7 56746.7 56746.7 56746.7 56746.7 56746.7 56746.7
          56746.7 56746.7 56746.7 56746.7 56746.7 56746.7 56746.7 56746.7 56746.7 56746.7 56746.7 56746.7
          56746.7 56746.7 56746.7 56746.7 56746.7 56746.7 56746.7 56746.7 56746.7 56746.7 56746.7 56746.7
          56746.7 56746.7 56746.7 56746.7 56746.7 56746.7 56746.7 56746.7 56746.7 56746.7 56746.7 56746.7
          56746.7 56746.7 56746.7 56746.7 56746.7 56746.7 56746.7 56746.7 56746.7 56746.7 56746.7 56746.7
          56746.7 56746.7 56746.7 56746.7 56746.7 56746.7 56746.7 56746.7 56746.7 56746.7 56746.7 56746.7
          56746.7 56746.7 56746.7 56746.7 56746.7 56746.7 56746.7 56746.7 56746.7 56746.7 56746.7 56746.7
          56746.7 56746.7 56746.7 56746.7 56746.7 56746.7 56746.7 56746.7 56746.7 56746.7 56746.7 56746.7
          56746.7 56746.7 56746.7 56746.7 56746.7 56746.7 56746.7 56746.7 56746.7 56746.7 56746.7 56746.7
          56746.7 56746.7 56746.7 56746.7 56746.7 56746.7 56746.7 56746.7 56746.7 56746.7 56746.7 56746.7
          56746.7 56746.7 56746.7 56746.7 56746.7 56746.7 56746.7 56746.7 56746.7 56746.7 56746.7 56746.7
          56746.7 56746.7 56746.7 56746.7 56746.7 56746.7 56746.7 56746.7 56746.7 56746.7 56746.7 56746.7
          56746.7 56746.7 56746.7 56746.7 56746.7 56746.7 56746.7 56746.7 56746.7 56746.7 56746.7 56746.7
          56746.7 56746.7 56746.7 56746.7 56746.7 56746.7 56746.7 56746.7 56746.7 56746.7 56746.7 56746.7
          56746.7 56746.7 56746.7 56746.7 56746.7 56746.7 56746.7 56746.7 56746.7 56746.7 56746.7 56746.7
          56746.7 56746.7 56746.7 56746.7 56746.7 56746.7 56746.7 56746.7 56746.7 56746.7 56746.7 56746.7
          56746.7 56746.7 56746.7 56746.7 56746.7 56746.7 56746.7 56746.7 56746.7 56746.7 56746.7 56746.7
          56746.7 56746.7 56746.7 56746.7 56746.7 56746.7 56746.7 56746.7 56746.7 56746.7 56746.7 56746.7
          56746.7 56746.7 56746.7 56746.7 56746.7 56746.7 56746.7 56746.7 56746.7 56746.7 56746.7 56746.7
          56746.7 56746.7 56746.7 56746.7 56746.7 56746.7 56746.7 56746.7 56746.7 56746.7 56746.7 56746.7
          56746.7 56746.7 56746.7 56746.7 56746.7 56746.7 56746.7 56746.7 56746.7 56746.7 56746.7 56746.7
          56746.7 56746.7 56746.7 56746.7 56746.7 56746.7 56746.7 56746.7 56746.7 56746.7 56746.7 56746.7
        </DataArray>
        <DataArray type="Float32" Name="porosity" NumberOfComponents="1" format="ascii">
          0.3 0.3 0.3 0.3 0.3 0.3 0.3 0.3 0.3 0.3 0.3 0.3
          0.3 0.3 0.3 0.3 0.3 0.3 0.3 0.3 0.3 0.3 0.3 0.3
          0.3 0.3 0.3 0.3 0.3 0.3 0.3 0.3 0.3 0.3 0.3 0.3
          0.3 0.3 0.3 0.3 0.3 0.3 0.3 0.3 0.3 0.3 0.3 0.3
          0.3 0.3 0.3 0.3 0.3 0.3 0.3 0.3 0.3 0.3 0.3 0.3
          0.3 0.3 0.3 0.3 0.3 0.3 0.3 0.3 0.3 0.3 0.3 0.3
          0.3 0.3 0.3 0.3 0.3 0.3 0.3 0.3 0.3 0.3 0.3 0.3
          0.3 0.3 0.3 0.3 0.3 0.3 0.3 0.3 0.3 0.3 0.3 0.3
          0.3 0.3 0.3 0.3 0.3 0.3 0.3 0.3 0.3 0.3 0.3 0.3
          0.3 0.3 0.3 0.3 0.3 0.3 0.3 0.3 0.3 0.3 0.3 0.3
          0.3 0.3 0.3 0.3 0.3 0.3 0.3 0.3 0.3 0.3 0.3 0.3
          0.3 0.3 0.3 0.3 0.3 0.3 0.3 0.3 0.3 0.3 0.3 0.3
          0.3 0.3 0.3 0.3 0.3 0.3 0.3 0.3 0.3 0.3 0.3 0.3
          0.3 0.3 0.3 0.3 0.3 0.3 0.3 0.3 0.3 0.3 0.3 0.3
          0.3 0.3 0.3 0.3 0.3 0.3 0.3 0.3 0.3 0.3 0.3 0.3
          0.3 0.3 0.3 0.3 0.3 0.3 0.3 0.3 0.3 0.3 0.3 0.3
          0.3 0.3 0.3 0.3 0.3 0.3 0.3 0.3 0.3 0.3 0.3 0.3
          0.3 0.3 0.3 0.3 0.3 0.3 0.3 0.3 0.3 0.3 0.3 0.3
          0.3 0.3 0.3 0.3 0.3 0.3 0.3 0.3 0.3 0.3 0.3 0.3
          0.3 0.3 0.3 0.3 0.3 0.3 0.3 0.3 0.3 0.3 0.3 0.3
          0.3 0.3 0.3 0.3 0.3 0.3 0.3 0.3 0.3 0.3 0.3 0.3
          0.3 0.3 0.3 0.3 0.3 0.3 0.3 0.3 0.3 0.3 0.3 0.3
          0.3 0.3 0.3 0.3 0.3 0.3 0.3 0.3 0.3 0.3 0.3 0.3
          0.3 0.3 0.3 0.3 0.3 0.3 0.3 0.3 0.3 0.3 0.3 0.3
          0.3 0.3 0.3 0.3 0.3 0.3 0.3 0.3 0.3 0.3 0.3 0.3
          0.3 0.3 0.3 0.3 0.3 0.3 0.3 0.3 0.3 0.3 0.3 0.3
          0.3 0.3 0.3 0.3 0.3 0.3 0.3 0.3 0.3 0.3 0.3 0.3
          0.3 0.3 0.3 0.3 0.3 0.3 0.3 0.3 0.3 0.3 0.3 0.3
          0.3 0.3 0.3 0.3 0.3 0.3 0.3 0.3 0.3 0.3 0.3 0.3
          0.3 0.3 0.3 0.3 0.3 0.3 0.3 0.3 0.3 0.3 0.3 0.3
          0.3 0.3 0.3 0.3 0.3 0.3 0.3 0.3 0.3 0.3 0.3 0.3
          0.3 0.3 0.3 0.3 0.3 0.3 0.3 0.3 0.3 0.3 0.3 0.3
        </DataArray>
        <DataArray type="Float32" Name="x_w^H2O" NumberOfComponents="1" format="ascii">
          0.315483 0.315581 0.315634 0.315658 0.315494 0.315485 0.315486 0.315538 0.317267 0.317371 0.317582 0.31791
          0.318375 0.319001 0.319821 0.320876 0.32223 0.324157 0.329498 0.363222 0.563231 0.999988 0.999988 1
          0.315483 0.315539 0.315577 0.315595 0.315488 0.315483 0.315483 0.315531 0.317166 0.317268 0.317473 0.317794
          0.318247 0.318856 0.319652 0.320673 0.321977 0.3238 0.328636 0.359262 0.545216 0.999988 0.999988 1
          0.315483 0.315515 0.315538 0.315551 0.315486 0.315483 0.315483 0.315526 0.317053 0.31715 0.317345 0.317651
          0.318081 0.318658 0.319408 0.320366 0.321578 0.323219 0.32722 0.352959 0.522692 0.999988 0.999988 1
          0.315483 0.315498 0.315511 0.315519 0.315485 0.315483 0.315483 0.315522 0.316928 0.317019 0.317201 0.317485
          0.317884 0.318416 0.319104 0.319975 0.321063 0.322472 0.325401 0.343842 0.483352 0.999988 0.999988 1
          0.315477 0.315483 0.31549 0.315494 0.315484 0.315483 0.315483 0.315518 0.316796 0.316878 0.317045 0.317303
          0.317664 0.318143 0.318756 0.319526 0.320472 0.321625 0.323176 0.327565 0.35788 0.5356 0.999988 0.999988
          0.315464 0.315466 0.31547 0.315472 0.315483 0.315483 0.315483 0.315513 0.316657 0.316731 0.31688 0.31711
          0.31743 0.31785 0.318385 0.319047 0.319848 0.320799 0.321913 0.323417 0.328043 0.35598 0.474824 0.491131
          0.315447 0.315448 0.31545 0.315451 0.315482 0.315483 0.315483 0.315509 0.316516 0.316581 0.316712 0.316912
          0.31719 0.317552 0.318007 0.318564 0.319228 0.319998 0.320866 0.321822 0.323029 0.326327 0.340488 0.34502
          0.315426 0.315427 0.315428 0.315429 0.315481 0.315483 0.315483 0.315505 0.316375 0.316431 0.316544 0.316716
          0.316952 0.317258 0.317639 0.318098 0.318638 0.319252 0.319926 0.320636 0.321346 0.322116 0.323535 0.324224
          0.315403 0.315403 0.315404 0.315404 0.31548 0.315483 0.315483 0.315501 0.316236 0.316284 0.316379 0.316525
          0.316723 0.316978 0.317292 0.317665 0.318097 0.31858 0.3191 0.319633 0.320145 0.320596 0.320972 0.321174
          0.315375 0.315376 0.315376 0.315377 0.315479 0.315483 0.315483 0.315497 0.3161 0.316141 0.316221 0.316343
          0.316508 0.316718 0.316973 0.317274 0.317616 0.317993 0.318391 0.318792 0.319169 0.319491 0.319729 0.319855
          0.315343 0.315344 0.315345 0.315346 0.315478 0.315483 0.315483 0.315493 0.315969 0.316004 0.316071 0.316173
          0.316309 0.316481 0.316688 0.316928 0.317198 0.317491 0.317796 0.318098 0.318378 0.318614 0.318786 0.318876
          0.315306 0.315307 0.315309 0.315311 0.315477 0.315483 0.315483 0.315489 0.315842 0.315872 0.31593 0.316015
          0.316129 0.316269 0.316437 0.31663 0.316844 0.317073 0.317307 0.317537 0.317747 0.317922 0.318048 0.318114
          0.315262 0.315265 0.315269 0.315272 0.315475 0.315482 0.315483 0.315485 0.315718 0.315746 0.315797 0.315871
          0.315967 0.316084 0.316221 0.316378 0.316549 0.31673 0.316914 0.317091 0.317252 0.317385 0.31748 0.317529
          0.315211 0.315215 0.315223 0.315232 0.315467 0.315477 0.315479 0.315478 0.315594 0.315624 0.315674 0.31574
          0.315823 0.315923 0.316039 0.31617 0.316311 0.316459 0.316607 0.316749 0.316876 0.31698 0.317054 0.317093
          0.31515 0.315156 0.31517 0.315196 0.31525 0.315298 0.315344 0.315396 0.31546 0.315508 0.31556 0.315623
          0.315699 0.315788 0.31589 0.316003 0.316125 0.316252 0.316378 0.316497 0.316603 0.31669 0.316752 0.316783
          0.315076 0.315083 0.315099 0.315127 0.315168 0.315212 0.315257 0.315305 0.315357 0.315406 0.315459 0.315521
          0.315593 0.315677 0.315772 0.315877 0.31599 0.316106 0.316221 0.31633 0.316426 0.316504 0.31656 0.316589
        </DataArray>
        <DataArray type="Float32" Name="x_w^N2" NumberOfComponents="1" format="ascii">
          1.14721e-05 1.14757e-05 1.14776e-05 1.14785e-05 1.14725e-05 1.14722e-05 1.14722e-05 1.14741e-05 1.1537e-05 1.15408e-05 1.15484e-05 1.15604e-05
          1.15773e-05 1.16001e-05 1.16299e-05 1.16682e-05 1.1717e-05 1.17783e-05 1.18543e-05 1.19393e-05 1.19877e-05 1.19783e-05 1.24255e-05 0
          1.14721e-05 1.14741e-05 1.14755e-05 1.14762e-05 1.14723e-05 1.14721e-05 1.14721e-05 1.14739e-05 1.15333e-05 1.1537e-05 1.15445e-05 1.15561e-05
          1.15726e-05 1.15948e-05 1.16237e-05 1.16608e-05 1.17079e-05 1.17669e-05 1.18396e-05 1.19212e-05 1.19685e-05 1.19453e-05 1.23369e-05 0
          1.14721e-05 1.14733e-05 1.14741e-05 1.14746e-05 1.14722e-05 1.14721e-05 1.14721e-05 1.14737e-05 1.15292e-05 1.15327e-05 1.15398e-05 1.1551e-05
          1.15666e-05 1.15876e-05 1.16149e-05 1.16497e-05 1.16935e-05 1.1748e-05 1.18147e-05 1.18891e-05 1.19299e-05 1.18817e-05 1.22284e-05 0
          1.14721e-05 1.14727e-05 1.14732e-05 1.14734e-05 1.14722e-05 1.14721e-05 1.14721e-05 1.14735e-05 1.15247e-05 1.1528e-05 1.15346e-05 1.15449e-05
          1.15594e-05 1.15788e-05 1.16038e-05 1.16355e-05 1.16749e-05 1.17234e-05 1.17818e-05 1.18466e-05 1.18807e-05 1.1792e-05 1.20404e-05 0
          1.14719e-05 1.14721e-05 1.14724e-05 1.14725e-05 1.14721e-05 1.14721e-05 1.14721e-05 1.14734e-05 1.15199e-05 1.15229e-05 1.15289e-05 1.15383e-05
          1.15514e-05 1.15688e-05 1.15912e-05 1.16191e-05 1.16535e-05 1.16951e-05 1.17443e-05 1.18005e-05 1.18544e-05 1.18584e-05 1.17516e-05 1.18321e-05
          1.14714e-05 1.14715e-05 1.14716e-05 1.14717e-05 1.14721e-05 1.14721e-05 1.14721e-05 1.14732e-05 1.15148e-05 1.15175e-05 1.15229e-05 1.15313e-05
          1.15429e-05 1.15582e-05 1.15776e-05 1.16017e-05 1.16309e-05 1.16654e-05 1.17053e-05 1.17498e-05 1.1796e-05 1.18324e-05 1.1826e-05 1.18332e-05
          1.14708e-05 1.14708e-05 1.14709e-05 1.1471e-05 1.14721e-05 1.14721e-05 1.14721e-05 1.14731e-05 1.15097e-05 1.15121e-05 1.15168e-05 1.15241e-05
          1.15342e-05 1.15473e-05 1.15639e-05 1.15842e-05 1.16083e-05 1.16363e-05 1.16678e-05 1.17019e-05 1.17365e-05 1.17675e-05 1.17869e-05 1.17969e-05
          1.14701e-05 1.14701e-05 1.14701e-05 1.14701e-05 1.14721e-05 1.14721e-05 1.14721e-05 1.14729e-05 1.15046e-05 1.15066e-05 1.15107e-05 1.1517e-05
          1.15255e-05 1.15367e-05 1.15505e-05 1.15672e-05 1.15868e-05 1.16092e-05 1.16337e-05 1.16595e-05 1.16848e-05 1.17073e-05 1.17238e-05 1.17324e-05
          1.14692e-05 1.14692e-05 1.14692e-05 1.14693e-05 1.1472e-05 1.14721e-05 1.14721e-05 1.14728e-05 1.14995e-05 1.15012e-05 1.15047e-05 1.151e-05
          1.15172e-05 1.15265e-05 1.15379e-05 1.15515e-05 1.15672e-05 1.15847e-05 1.16036e-05 1.1623e-05 1.16416e-05 1.16578e-05 1.16698e-05 1.1676e-05
          1.14682e-05 1.14682e-05 1.14682e-05 1.14683e-05 1.1472e-05 1.14721e-05 1.14721e-05 1.14726e-05 1.14946e-05 1.1496e-05 1.1499e-05 1.15034e-05
          1.15094e-05 1.1517e-05 1.15263e-05 1.15372e-05 1.15497e-05 1.15634e-05 1.15779e-05 1.15924e-05 1.16062e-05 1.16179e-05 1.16265e-05 1.1631e-05
          1.1467e-05 1.14671e-05 1.14671e-05 1.14671e-05 1.14719e-05 1.14721e-05 1.14721e-05 1.14725e-05 1.14898e-05 1.14911e-05 1.14935e-05 1.14972e-05
          1.15022e-05 1.15084e-05 1.15159e-05 1.15247e-05 1.15345e-05 1.15452e-05 1.15562e-05 1.15672e-05 1.15774e-05 1.1586e-05 1.15922e-05 1.15955e-05