<?xml version="1.0"?>
<VTKFile type="UnstructuredGrid" version="0.1" byte_order="LittleEndian">
  <UnstructuredGrid>
    <Piece NumberOfCells="384" NumberOfPoints="425">
      <PointData Scalars="S_liq">
        <DataArray type="Float32" Name="S_liq" NumberOfComponents="1" format="ascii">
          0 0 0 0 0 0 0 0 0 0 0 0
          0 0 0 0 0 0 0 0 0 0 0 0
          0 0 0 0 0 0 0 0 0 0 0 0
          0 0 0 0 0 0 0 0 0.00697046 0.00530561 0.640507 0.553483
          1 1 0 0 0 0 0 0 0 0 0 0
          0 0 0 0 0 0 0 0 0 0 0 0
          0.00459632 0.557731 1 0 0 0 0 0 0 0 0 0
          0 0 0 0 0 0 0 0 0 0 0 0
          0 0.00245922 0.560556 1 0 0 0 0 0 0 0 0
          0 0 0 0 0 0 0 0 0 0 0 0
          0 0 0 0.473976 1 0 0 0 0 0 0 0
          0 0 0 0 0 0 0 0 0 0 0 0
          0 0 0 0 0.00777403 0.291762 0 0 0 0 0 0
          0 0 0 0 0 0 0 0 0 0 0 0
          0 0 0 0 0 0 0 0 0 0 0 0
          0 0 0 0 0 0 0 0 0 0 0 0
          0 0 0 0 0 0 0 0 0 0 0 0
          0 0 0 0 0 0 0 0 0 0 0 0
          0 0 0 0 0 0 0 0 0 0 0 0
          0 0 0 0 0 0 0 0 0 0 0 0
          0 0 0 0 0 0 0 0 0 0 0 0
          0 0 0 0 0 0 0 0 0 0 0 0
          0 0 0 0 0 0 0 0 0 0 0 0
          0 0 0 0 0 0 0 0 0 0 0 0
          0 0 0 0 0 0 0 0 0 0 0 0
          0 0 0 0 0 0 0 0 0 0 0 0
          0 0 0 0 0 0 0 0 0 0 0 0
          0 0 0 0 0 0 0 0 0 0 0 0
          0 0 0 0 0 0 0 0 0 0 0 0
          0 0 0 0 0 0 0 0 0 0 0 0
          0 0 0 0 0 0 0 0 0 0 0 0
          0 0 0 0 0 0 0 0 0 0 0 0
          0 0 0 0 0 0 0 0 0 0 0 0
          0 0 0 0 0 0 0 0 0 0 0 0
          0 0 0 0 0 0 0 0 0 0 0 0
          0 0 0 0 0
        </DataArray>
        <DataArray type="Float32" Name="S_gas" NumberOfComponents="1" format="ascii">
          1 1 1 1 1 1 1 1 1 1 1 1
          1 1 1 1 1 1 1 1 1 1 1 1
          1 1 1 1 1 1 1 1 1 1 1 1
          1 1 1 1 1 1 1 1 0.99303 0.994694 0.359493 0.446517
          0 0 1 1 1 1 1 1 1 1 1 1
          1 1 1 1 1 1 1 1 1 1 1 1
          0.995404 0.442269 0 1 1 1 1 1 1 1 1 1
          1 1 1 1 1 1 1 1 1 1 1 1
          1 0.997541 0.439444 0 1 1 1 1 1 1 1 1
          1 1 1 1 1 1 1 1 1 1 1 1
          1 1 1 0.526024 0 1 1 1 1 1 1 1
          1 1 1 1 1 1 1 1 1 1 1 1
          1 1 1 1 0.992226 0.708238 1 1 1 1 1 1
          1 1 1 1 1 1 1 1 1 1 1 1
          1 1 1 1 1 1 1 1 1 1 1 1
          1 1 1 1 1 1 1 1 1 1 1 1
          1 1 1 1 1 1 1 1 1 1 1 1
          1 1 1 1 1 1 1 1 1 1 1 1
          1 1 1 1 1 1 1 1 1 1 1 1
          1 1 1 1 1 1 1 1 1 1 1 1
          1 1 1 1 1 1 1 1 1 1 1 1
          1 1 1 1 1 1 1 1 1 1 1 1
          1 1 1 1 1 1 1 1 1 1 1 1
          1 1 1 1 1 1 1 1 1 1 1 1
          1 1 1 1 1 1 1 1 1 1 1 1
          1 1 1 1 1 1 1 1 1 1 1 1
          1 1 1 1 1 1 1 1 1 1 1 1
          1 1 1 1 1 1 1 1 1 1 1 1
          1 1 1 1 1 1 1 1 1 1 1 1
          1 1 1 1 1 1 1 1 1 1 1 1
          1 1 1 1 1 1 1 1 1 1 1 1
          1 1 1 1 1 1 1 1 1 1 1 1
          1 1 1 1 1 1 1 1 1 1 1 1
          1 1 1 1 1 1 1 1 1 1 1 1
          1 1 1 1 1 1 1 1 1 1 1 1
          1 1 1 1 1
        </DataArray>
        <DataArray type="Float32" Name="p_liq" NumberOfComponents="1" format="ascii">
          100000 100043 100000 100023 100062 100039 100072 100046 100005 100002 100002 100000
          100002 100000 100002 100000 100018 100015 100575 100543 100604 100574 100667 100637
          100767 100736 100908 100875 101097 101063 101344 101306 101659 101618 102057 102010
          102555 102499 103176 103108 103954 103864 104938 104815 106126 106074 110658 109555
          200000 200000 100000 100013 100023 100028 100001 100000 100000 100000 100014 100510
          100540 100602 100698 100833 101015 101251 101551 101927 102394 102968 103665 104507
          105548 108683 200000 100000 100007 100013 100016 100001 100000 100000 100000 100013
          100474 100503 100562 100654 100783 100955 101178 101461 101814 102248 102775 103401
          104109 104776 106974 200000 100000 100002 100005 100007 100000 100000 100000 100000
          100011 100436 100463 100519 100605 100725 100885 101092 101353 101676 102071 102547
          103112 103759 104411 102566 200000 99997.2 99997.8 99998.9 99999.7 100000 100000 100000
          100000 100010 100396 100422 100473 100552 100662 100808 100996 101230 101520 101871
          102293 102797 103419 104319 107917 97970.6 99992.1 99992.3 99992.8 99993.1 99999.9 100000
          100000 100000 100009 100356 100378 100425 100496 100595 100726 100892 101099 101351
          101654 102014 102440 102954 103620 103568 103084 99985.9 99986 99986.2 99986.4 99999.7
          100000 100000 100000 100008 100314 100334 100375 100439 100526 100641 100785 100963
          101178 101431 101724 102055 102409 102691 102775 102757 99978.7 99978.8 99978.9 99979
          99999.4 100000 100000 100000 100006 100272 100290 100326 100381 100457 100556 100679
          100829 101007 101212 101442 101686 101920 102100 102197 102223 99970.4 99970.4 99970.6
          99970.7 99999.1 100000 100000 100000 100005 100231 100247 100278 100325 100390 100474
          100577 100701 100845 101008 101184 101362 101526 101655 101733 101758 99960.8 99960.8
          99961 99961.2 99998.8 100000 100000 100000 100004 100191 100204 100231 100271 100326
          100396 100482 100583 100698 100825 100959 101091 101210 101303 101362 101382 99949.7
          99949.7 99949.9 99950.1 99998.4 100000 100000 100000 100003 100151 100163 100186 100220
          100266 100325 100395 100477 100569 100668 100770 100869 100956 101025 101069 101084
          99936.8 99936.9 99937.1 99937.4 99997.8 100000 100000 100000 100002 100112 100123 100143
          100172 100212 100260 100318 100385 100458 100536 100615 100690 100756 100808 100841
          100852 99921.9 99922.2 99922.5 99922.7 99997.2 99999.9 100000 100000 100001 100074 100084
          100102 100128 100162 100204 100252 100307 100367 100430 100492 100551 100602 100642
          100667 100675 99904.5 99905.2 99906.9 99905.7 99994.8 99997.8 99998.3 99998.5 99998.4 100035
          100046 100065 100089 100119 100155 100197 100244 100295 100347 100398 100446 100488
          100520 100540 100547 99883.7 99884.9 99889 99901 99908.8 99925.2 99940.3 99955.9 99974
          99992.9 100011 100030 100054 100082 100115 100153 100195 100241 100287 100332 100374
          100410 100437 100455 100461 99858.5 99860 99865.2 99873.7 99884.6 99897.9 99912.7 99928.3
          99945.1 99962.7 99980.8 100000 100023 100051 100083 100120 100161 100204 100248 100292
          100331 100365 100392 100408 100414
        </DataArray>
        <DataArray type="Float32" Name="p_gas" NumberOfComponents="1" format="ascii">
          100000 100043 100000 100023 100062 100039 100072 100046 100005 100002 100002 100000
          100002 100000 100002 100000 100018 100015 100575 100543 100604 100574 100667 100637
          100767 100736 100908 100875 101097 101063 101344 101306 101659 101618 102057 102010
          102555 102499 103176 103108 103954 103864 104938 104815 106126 106074 110658 109555
          200000 200000 100000 100013 100023 100028 100001 100000 100000 100000 100014 100510
          100540 100602 100698 100833 101015 101251 101551 101927 102394 102968 103665 104507
          105548 108683 200000 100000 100007 100013 100016 100001 100000 100000 100000 100013
          100474 100503 100562 100654 100783 100955 101178 101461 101814 102248 102775 103401
          104109 104776 106974 200000 100000 100002 100005 100007 100000 100000 100000 100000
          100011 100436 100463 100519 100605 100725 100885 101092 101353 101676 102071 102547
          103112 103759 104411 102566 200000 99997.2 99997.8 99998.9 99999.7 100000 100000 100000
          100000 100010 100396 100422 100473 100552 100662 100808 100996 101230 101520 101871
          102293 102797 103419 104319 107917 97970.6 99992.1 99992.3 99992.8 99993.1 99999.9 100000
          100000 100000 100009 100356 100378 100425 100496 100595 100726 100892 101099 101351
          101654 102014 102440 102954 103620 103568 103084 99985.9 99986 99986.2 99986.4 99999.7
          100000 100000 100000 100008 100314 100334 100375 100439 100526 100641 100785 100963
          101178 101431 101724 102055 102409 102691 102775 102757 99978.7 99978.8 99978.9 99979
          99999.4 100000 100000 100000 100006 100272 100290 100326 100381 100457 100556 100679
          100829 101007 101212 101442 101686 101920 102100 102197 102223 99970.4 99970.4 99970.6
          99970.7 99999.1 100000 100000 100000 100005 100231 100247 100278 100325 100390 100474
          100577 100701 100845 101008 101184 101362 101526 101655 101733 101758 99960.8 99960.8
          99961 99961.2 99998.8 100000 100000 100000 100004 100191 100204 100231 100271 100326
          100396 100482 100583 100698 100825 100959 101091 101210 101303 101362 101382 99949.7
          99949.7 99949.9 99950.1 99998.4 100000 100000 100000 100003 100151 100163 100186 100220
          100266 100325 100395 100477 100569 100668 100770 100869 100956 101025 101069 101084
          99936.8 99936.9 99937.1 99937.4 99997.8 100000 100000 100000 100002 100112 100123 100143
          100172 100212 100260 100318 100385 100458 100536 100615 100690 100756 100808 100841
          100852 99921.9 99922.2 99922.5 99922.7 99997.2 99999.9 100000 100000 100001 100074 100084
          100102 100128 100162 100204 100252 100307 100367 100430 100492 100551 100602 100642
          100667 100675 99904.5 99905.2 99906.9 99905.7 99994.8 99997.8 99998.3 99998.5 99998.4 100035
          100046 100065 100089 100119 100155 100197 100244 100295 100347 100398 100446 100488
          100520 100540 100547 99883.7 99884.9 99889 99901 99908.8 99925.2 99940.3 99955.9 99974
          99992.9 100011 100030 100054 100082 100115 100153 100195 100241 100287 100332 100374
          100410 100437 100455 100461 99858.5 99860 99865.2 99873.7 99884.6 99897.9 99912.7 99928.3
          99945.1 99962.7 99980.8 100000 100023 100051 100083 100120 100161 100204 100248 100292
          100331 100365 100392 100408 100414
        </DataArray>
        <DataArray type="Float32" Name="rho_liq" NumberOfComponents="1" format="ascii">
          997.048 997.048 997.048 997.048 997.048 997.048 997.048 997.048 997.048 997.048 997.048 997.048
          997.048 997.048 997.048 997.048 997.048 997.048 997.048 997.048 997.048 997.048 997.048 997.048
          997.048 997.048 997.048 997.048 997.048 997.048 997.048 997.048 997.048 997.048 997.049 997.049
          997.049 997.049 997.049 997.049 997.049 997.049 997.05 997.05 997.05 997.05 997.052 997.052
          997.093 997.093 997.048 997.048 997.048 997.048 997.048 997.048 997.048 997.048 997.048 997.048
          997.048 997.048 997.048 997.048 997.048 997.048 997.048 997.049 997.049 997.049 997.049 997.05
          997.05 997.052 997.093 997.048 997.048 997.048 997.048 997.048 997.048 997.048 997.048 997.048
          997.048 997.048 997.048 997.048 997.048 997.048 997.048 997.048 997.048 997.049 997.049 997.049
          997.049 997.05 997.051 997.093 997.048 997.048 997.048 997.048 997.048 997.048 997.048 997.048
          997.048 997.048 997.048 997.048 997.048 997.048 997.048 997.048 997.048 997.048 997.049 997.049
          997.049 997.049 997.05 997.049 997.093 997.048 997.048 997.048 997.048 997.048 997.048 997.048
          997.048 997.048 997.048 997.048 997.048 997.048 997.048 997.048 997.048 997.048 997.048 997.049
          997.049 997.049 997.049 997.05 997.051 997.047 997.048 997.048 997.048 997.048 997.048 997.048
          997.048 997.048 997.048 997.048 997.048 997.048 997.048 997.048 997.048 997.048 997.048 997.048
          997.048 997.049 997.049 997.049 997.049 997.049 997.049 997.048 997.048 997.048 997.048 997.048
          997.048 997.048 997.048 997.048 997.048 997.048 997.048 997.048 997.048 997.048 997.048 997.048
          997.048 997.048 997.048 997.049 997.049 997.049 997.049 997.049 997.048 997.048 997.048 997.048
          997.048 997.048 997.048 997.048 997.048 997.048 997.048 997.048 997.048 997.048 997.048 997.048
          997.048 997.048 997.048 997.048 997.048 997.049 997.049 997.049 997.049 997.048 997.048 997.048
          997.048 997.048 997.048 997.048 997.048 997.048 997.048 997.048 997.048 997.048 997.048 997.048
          997.048 997.048 997.048 997.048 997.048 997.048 997.048 997.048 997.048 997.048 997.048 997.048
          997.048 997.048 997.048 997.048 997.048 997.048 997.048 997.048 997.048 997.048 997.048 997.048
          997.048 997.048 997.048 997.048 997.048 997.048 997.048 997.048 997.048 997.048 997.048 997.048
          997.048 997.048 997.048 997.048 997.048 997.048 997.048 997.048 997.048 997.048 997.048 997.048
          997.048 997.048 997.048 997.048 997.048 997.048 997.048 997.048 997.048 997.048 997.048 997.048
          997.048 997.048 997.048 997.048 997.048 997.048 997.048 997.048 997.048 997.048 997.048 997.048
          997.048 997.048 997.048 997.048 997.048 997.048 997.048 997.048 997.048 997.048 997.048 997.048
          997.048 997.048 997.048 997.048 997.048 997.048 997.048 997.048 997.048 997.048 997.048 997.048
          997.048 997.048 997.048 997.048 997.048 997.048 997.048 997.048 997.048 997.048 997.048 997.048
          997.048 997.048 997.048 997.048 997.048 997.048 997.048 997.048 997.048 997.048 997.048 997.048
          997.048 997.048 997.048 997.048 997.048 997.048 997.048 997.048 997.048 997.048 997.048 997.048
          997.048 997.048 997.048 997.048 997.048 997.048 997.048 997.048 997.048 997.048 997.048 997.048
          997.048 997.048 997.048 997.048 997.048 997.048 997.048 997.048 997.048 997.048 997.048 997.048
          997.048 997.048 997.048 997.048 997.048 997.048 997.048 997.048 997.048 997.048 997.048 997.048
          997.048 997.048 997.048 997.048 997.048 997.048 997.048 997.048 997.048 997.048 997.048 997.048
          997.048 997.048 997.048 997.048 997.048
        </DataArray>
        <DataArray type="Float32" Name="rho_gas" NumberOfComponents="1" format="ascii">
          1.12601 1.12649 1.12601 1.12627 1.12671 1.12645 1.12682 1.12653 1.12607 1.12604 1.12603 1.12601
          1.12603 1.12601 1.12603 1.12602 1.12622 1.12619 1.13249 1.13213 1.13281 1.13248 1.13353 1.13318
          1.13465 1.1343 1.13624 1.13587 1.13837 1.13798 1.14115 1.14072 1.14469 1.14423 1.14917 1.14864
          1.15478 1.15415 1.16174 1.16097 1.17012 1.16914 1.17872 1.17755 1.18648 1.1859 1.2377 1.22523
          0.0230353 0.0230353 1.12601 1.12616 1.12627 1.12633 1.12603 1.12601 1.12601 1.12602 1.12617 1.13175
          1.13209 1.13279 1.13387 1.1354 1.13744 1.14009 1.14347 1.14771 1.15297 1.15941 1.167 1.17451
          1.17996 1.21538 0.0230353 1.12601 1.12609 1.12616 1.12619 1.12602 1.12601 1.12601 1.12601 1.12616
          1.13135 1.13168 1.13234 1.13337 1.13483 1.13677 1.13928 1.14246 1.14644 1.15133 1.15725 1.16415
          1.17079 1.17123 1.19608 0.0230353 1.12601 1.12604 1.12607 1.12609 1.12602 1.12601 1.12601 1.12601
          1.12614 1.13092 1.13123 1.13185 1.13282 1.13418 1.13598 1.13831 1.14125 1.14488 1.14933 1.15469
          1.16101 1.168 1.17345 1.14626 0.0230353 1.12598 1.12599 1.126 1.12601 1.12601 1.12601 1.12601
          1.12601 1.12613 1.13048 1.13076 1.13133 1.13222 1.13347 1.13511 1.13722 1.13987 1.14312 1.14708
          1.15182 1.15744 1.16366 1.16886 1.20672 1.09433 1.12592 1.12593 1.12593 1.12594 1.12601 1.12601
          1.12601 1.12601 1.12611 1.13002 1.13027 1.13079 1.1316 1.13271 1.13418 1.13606 1.13839 1.14123
          1.14464 1.14869 1.15347 1.15908 1.16538 1.16152 1.15854 1.12585 1.12586 1.12586 1.12586 1.12601
          1.12601 1.12601 1.12601 1.1261 1.12955 1.12978 1.13024 1.13095 1.13194 1.13323 1.13486 1.13686
          1.13928 1.14213 1.14543 1.14915 1.15312 1.15613 1.15661 1.15685 1.12577 1.12577 1.12578 1.12578
          1.12601 1.12601 1.12601 1.12601 1.12609 1.12908 1.12928 1.12969 1.13031 1.13116 1.13227 1.13366
          1.13535 1.13735 1.13966 1.14225 1.14499 1.14763 1.14965 1.1507 1.15102 1.12568 1.12568 1.12568
          1.12568 1.126 1.12601 1.12601 1.12601 1.12607 1.12861 1.12879 1.12914 1.12968 1.13041 1.13135
          1.13251 1.13391 1.13553 1.13736 1.13934 1.14135 1.1432 1.14464 1.14552 1.14581 1.12557 1.12557
          1.12557 1.12558 1.126 1.12601 1.12601 1.12601 1.12606 1.12816 1.12831 1.12861 1.12907 1.12969
          1.13047 1.13144 1.13258 1.13387 1.13531 1.13681 1.1383 1.13963 1.14069 1.14135 1.14158 1.12545
          1.12545 1.12545 1.12545 1.12599 1.12601 1.12601 1.12601 1.12605 1.12771 1.12784 1.1281 1.12849
          1.12901 1.12967 1.13046 1.13138 1.13242 1.13353 1.13468 1.13579 1.13678 1.13756 1.13805 1.13822
          1.1253 1.1253 1.12531 1.12531 1.12599 1.12601 1.12601 1.12601 1.12603 1.12728 1.12739 1.12762
          1.12795 1.1284 1.12894 1.1296 1.13035 1.13117 1.13205 1.13294 1.13379 1.13453 1.13511 1.13548
          1.1356 1.12513 1.12514 1.12514 1.12514 1.12598 1.12601 1.12601 1.12601 1.12602 1.12685 1.12696
          1.12716 1.12746 1.12784 1.12831 1.12885 1.12947 1.13015 1.13085 1.13156 1.13222 1.13279 1.13324
          1.13352 1.13362 1.12494 1.12495 1.12497 1.12495 1.12596 1.12599 1.12599 1.126 1.126 1.1264
          1.12653 1.12674 1.12701 1.12735 1.12776 1.12824 1.12876 1.12933 1.12992 1.1305 1.13104 1.1315
          1.13186 1.13209 1.13217 1.1247 1.12472 1.12476 1.1249 1.12499 1.12517 1.12534 1.12552 1.12572
          1.12593 1.12614 1.12636 1.12662 1.12693 1.12731 1.12774 1.12821 1.12872 1.12924 1.12975 1.13022
          1.13063 1.13094 1.13113 1.1312 1.12442 1.12444 1.1245 1.12459 1.12471 1.12486 1.12503 1.12521
          1.12539 1.12559 1.1258 1.12602 1.12628 1.12659 1.12695 1.12737 1.12782 1.12831 1.12881 1.1293
          1.12974 1.13013 1.13042 1.13061 1.13067
        </DataArray>
        <DataArray type="Float32" Name="mob_liq" NumberOfComponents="1" format="ascii">
          0 0 0 0 0 0 0 0 0 0 0 0
          0 0 0 0 0 0 0 0 0 0 0 0
          0 0 0 0 0 0 0 0 0 0 0 0
          0 0 0 0 0 0 0 0 0.493711 0.284866 728.424 625.215
          1123.58 1123.58 0 0 0 0 0 0 0 0 0 0
          0 0 0 0 0 0 0 0 0 0 0 0
          0.213417 630.253 1123.58 0 0 0 0 0 0 0 0 0
          0 0 0 0 0 0 0 0 0 0 0 0
          0 0.0607722 633.603 1123.58 0 0 0 0 0 0 0 0
          0 0 0 0 0 0 0 0 0 0 0 0
          0 0 0 530.92 1123.58 0 0 0 0 0 0 0
          0 0 0 0 0 0 0 0 0 0 0 0
          0 0 0 0 0.615318 314.816 0 0 0 0 0 0
          0 0 0 0 0 0 0 0 0 0 0 0
          0 0 0 0 0 0 0 0 0 0 0 0
          0 0 0 0 0 0 0 0 0 0 0 0
          0 0 0 0 0 0 0 0 0 0 0 0
          0 0 0 0 0 0 0 0 0 0 0 0
          0 0 0 0 0 0 0 0 0 0 0 0
          0 0 0 0 0 0 0 0 0 0 0 0
          0 0 0 0 0 0 0 0 0 0 0 0
          0 0 0 0 0 0 0 0 0 0 0 0
          0 0 0 0 0 0 0 0 0 0 0 0
          0 0 0 0 0 0 0 0 0 0 0 0
          0 0 0 0 0 0 0 0 0 0 0 0
          0 0 0 0 0 0 0 0 0 0 0 0
          0 0 0 0 0 0 0 0 0 0 0 0
          0 0 0 0 0 0 0 0 0 0 0 0
          0 0 0 0 0 0 0 0 0 0 0 0
          0 0 0 0 0 0 0 0 0 0 0 0
          0 0 0 0 0 0 0 0 0 0 0 0
          0 0 0 0 0 0 0 0 0 0 0 0
          0 0 0 0 0 0 0 0 0 0 0 0
          0 0 0 0 0 0 0 0 0 0 0 0
          0 0 0 0 0 0 0 0 0 0 0 0
          0 0 0 0 0
        </DataArray>
        <DataArray type="Float32" Name="mob_gas" NumberOfComponents="1" format="ascii">
          56746.7 56746.7 56746.7 56746.7 56746.7 56746.7 56746.7 56746.7 56746.7 56746.7 56746.7 56746.7
          56746.7 56746.7 56746.7 56746.7 56746.7 56746.7 56746.7 56746.7 56746.7 56746.7 56746.7 56746.7
          56746.7 56746.7 56746.7 56746.7 56746.7 56746.7 56746.7 56746.7 56746.7 56746.7 56746.7 56746.7
          56746.7 56746.7 56746.7 56746.7 56746.7 56746.7 56746.7 56746.7 56721.8 56732.4 19957.1 25169.8
          0 0 56746.7 56746.7 56746.7 56746.7 56746.7 56746.7 56746.7 56746.7 56746.7 56746.7
          56746.7 56746.7 56746.7 56746.7 56746.7 56746.7 56746.7 56746.7 56746.7 56746.7 56746.7 56746.7
          56736 24915.3 0 56746.7 56746.7 56746.7 56746.7 56746.7 56746.7 56746.7 56746.7 56746.7
          56746.7 56746.7 56746.7 56746.7 56746.7 56746.7 56746.7 56746.7 56746.7 56746.7 56746.7 56746.7
          56746.7 56743.7 24746.1 0 56746.7 56746.7 56746.7 56746.7 56746.7 56746.7 56746.7 56746.7
          56746.7 56746.7 56746.7 56746.7 56746.7 56746.7 56746.7 56746.7 56746.7 56746.7 56746.7 56746.7
          56746.7 56746.7 56746.7 29932.2 0 56746.7 56746.7 56746.7 56746.7 56746.7 56746.7 56746.7
          56746.7 56746.7 56746.7 56746.7 56746.7 56746.7 56746.7 56746.7 56746.7 56746.7 56746.7 56746.7
          56746.7 56746.7 56746.7 56746.7 56715.7 40846.7 56746.7 56746.7 56746.7 56746.7 56746.7 56746.7
          56746.7 56746.7 56746.7 56746.7 56746.7 56746.7 56746.7 56746.7 56746.7 56746.7 56746.7 56746.7
          56746.7 56746.7 56746.7 56746.7 56746.7 56746.7 56746.7 56746.7 56746.7 56746.7 56746.7 56746.7
          56746.7 56746.7 56746.7 56746.7 56746.7 56746.7 56746.7 56746.7 56746.7 56746.7 56746.7 56746.7
          56746.7 56746.7 56746.7 56746.7 56746.7 56746.7 56746.7 56746.7 56746.7 56746.7 56746.7 56746.7
          56746.7 56746.7 56746.7 56746.7 56746.7 56746.7 56746.7 56746.7 56746.7 56746.7 56746.7 56746.7
          56746.7 56746.7 56746.7 56746.7 56746.7 56746.7 56746.7 56746.7 56746.7 56746.7 56746.7 56746.7
          56746.7 56746.7 56746.7 56746.7 56746.7 56746.7 56746.7 56746.7 56746.7 56746.7 56746.7 56746.7
          56746.7 56746.7 56746.7 56746.7 56746.7 56746.7 56746.7 56746.7 56746.7 56746.7 56746.7 56746.7
          56746.7 56746.7 56746.7 56746.7 56746.7 56746.7 56746.7 56746.7 56746.7 56746.7 56746.7 56746.7
          56746.7 56746.7 56746.7 56746.7 56746.7 56746.7 56746.7 56746.7 56746.7 56746.7 56746.7 56746.7
          56746.7 56746.7 56746.7 56746.7 56746.7 56746.7 56746.7 56746.7 56746.7 56746.7 56746.7 56746.7
          56746.7 56746.7 56746.7 56746.7 56746.7 56746.7 56746.7 56746.7 56746.7 56746.7 56746.7 56746.7
          56746.7 56746.7 56746.7 56746.7 56746.7 56746.7 56746.7 56746.7 56746.7 56746.7 56746.7 56746.7
          56746.7 56746.7 56746.7 56746.7 56746.7 56746.7 56746.7 56746.7 56746.7 56746.7 56746.7 56746.7
          56746.7 56746.7 56746.7 56746.7 56746.7 56746.7 56746.7 56746.7 56746.7 56746.7 56746.7 56746.7
          56746.7 56746.7 56746.7 56746.7 56746.7 56746.7 56746.7 56746.7 56746.7 56746.7 56746.7 56746.7
          56746.7 56746.7 56746.7 56746.7 56746.7 56746.7 56746.7 56746.7 56746.7 56746.7 56746.7 56746.7
          56746.7 56746.7 56746.7 56746.7 56746.7 56746.7 56746.7 56746.7 56746.7 56746.7 56746.7 56746.7
          56746.7 56746.7 56746.7 56746.7 56746.7 56746.7 56746.7 56746.7 56746.7 56746.7 56746.7 56746.7
          56746.7 56746.7 56746.7 56746.7 56746.7 56746.7 56746.7 56746.7 56746.7 56746.7 56746.7 56746.7
          56746.7 56746.7 56746.7 56746.7 56746.7 56746.7 56746.7 56746.7 56746.7 56746.7 56746.7 56746.7
          56746.7 56746.7 56746.7 56746.7 56746.7 56746.7 56746.7 56746.7 56746.7 56746.7 56746.7 56746.7
          56746.7 56746.7 56746.7 56746.7 56746.7
        </DataArray>
        <DataArray type="Float32" Name="porosity" NumberOfComponents="1" format="ascii">
          0.3 0.3 0.3 0.3 0.3 0.3 0.3 0.3 0.3 0.3 0.3 0.3
          0.3 0.3 0.3 0.3 0.3 0.3 0.3 0.3 0.3 0.3 0.3 0.3
          0.3 0.3 0.3 0.3 0.3 0.3 0.3 0.3 0.3 0.3 0.3 0.3
          0.3 0.3 0.3 0.3 0.3 0.3 0.3 0.3 0.3 0.3 0.3 0.3
          0.3 0.3 0.3 0.3 0.3 0.3 0.3 0.3 0.3 0.3 0.3 0.3
          0.3 0.3 0.3 0.3 0.3 0.3 0.3 0.3 0.3 0.3 0.3 0.3
          0.3 0.3 0.3 0.3 0.3 0.3 0.3 0.3 0.3 0.3 0.3 0.3
          0.3 0.3 0.3 0.3 0.3 0.3 0.3 0.3 0.3 0.3 0.3 0.3
          0.3 0.3 0.3 0.3 0.3 0.3 0.3 0.3 0.3 0.3 0.3 0.3
          0.3 0.3 0.3 0.3 0.3 0.3 0.3 0.3 0.3 0.3 0.3 0.3
          0.3 0.3 0.3 0.3 0.3 0.3 0.3 0.3 0.3 0.3 0.3 0.3
          0.3 0.3 0.3 0.3 0.3 0.3 0.3 0.3 0.3 0.3 0.3 0.3
          0.3 0.3 0.3 0.3 0.3 0.3 0.3 0.3 0.3 0.3 0.3 0.3
          0.3 0.3 0.3 0.3 0.3 0.3 0.3 0.3 0.3 0.3 0.3 0.3
          0.3 0.3 0.3 0.3 0.3 0.3 0.3 0.3 0.3 0.3 0.3 0.3
          0.3 0.3 0.3 0.3 0.3 0.3 0.3 0.3 0.3 0.3 0.3 0.3
          0.3 0.3 0.3 0.3 0.3 0.3 0.3 0.3 0.3 0.3 0.3 0.3
          0.3 0.3 0.3 0.3 0.3 0.3 0.3 0.3 0.3 0.3 0.3 0.3
          0.3 0.3 0.3 0.3 0.3 0.3 0.3 0.3 0.3 0.3 0.3 0.3
          0.3 0.3 0.3 0.3 0.3 0.3 0.3 0.3 0.3 0.3 0.3 0.3
          0.3 0.3 0.3 0.3 0.3 0.3 0.3 0.3 0.3 0.3 0.3 0.3
          0.3 0.3 0.3 0.3 0.3 0.3 0.3 0.3 0.3 0.3 0.3 0.3
          0.3 0.3 0.3 0.3 0.3 0.3 0.3 0.3 0.3 0.3 0.3 0.3
          0.3 0.3 0.3 0.3 0.3 0.3 0.3 0.3 0.3 0.3 0.3 0.3
          0.3 0.3 0.3 0.3 0.3 0.3 0.3 0.3 0.3 0.3 0.3 0.3
          0.3 0.3 0.3 0.3 0.3 0.3 0.3 0.3 0.3 0.3 0.3 0.3
          0.3 0.3 0.3 0.3 0.3 0.3 0.3 0.3 0.3 0.3 0.3 0.3
          0.3 0.3 0.3 0.3 0.3 0.3 0.3 0.3 0.3 0.3 0.3 0.3
          0.3 0.3 0.3 0.3 0.3 0.3 0.3 0.3 0.3 0.3 0.3 0.3
          0.3 0.3 0.3 0.3 0.3 0.3 0.3 0.3 0.3 0.3 0.3 0.3
          0.3 0.3 0.3 0.3 0.3 0.3 0.3 0.3 0.3 0.3 0.3 0.3
          0.3 0.3 0.3 0.3 0.3 0.3 0.3 0.3 0.3 0.3 0.3 0.3
          0.3 0.3 0.3 0.3 0.3 0.3 0.3 0.3 0.3 0.3 0.3 0.3
          0.3 0.3 0.3 0.3 0.3 0.3 0.3 0.3 0.3 0.3 0.3 0.3
          0.3 0.3 0.3 0.3 0.3 0.3 0.3 0.3 0.3 0.3 0.3 0.3
          0.3 0.3 0.3 0.3 0.3
        </DataArray>
        <DataArray type="Float32" Name="x^H2O_liq" NumberOfComponents="1" format="ascii">
          0.315483 0.315617 0.315483 0.315555 0.315678 0.315604 0.31571 0.315627 0.315498 0.31549 0.315488 0.315483
          0.315488 0.315483 0.315488 0.315483 0.31554 0.315531 0.317297 0.317197 0.317388 0.317293 0.317587 0.317492
          0.317902 0.317803 0.318347 0.318244 0.318944 0.318835 0.319722 0.319604 0.320717 0.320586 0.321983 0.321833
          0.323758 0.323558 0.328624 0.328079 0.360478 0.357314 0.558178 0.540524 0.999988 0.999988 0.999988 0.999988
          1 1 0.315483 0.315524 0.315555 0.315571 0.315487 0.315483 0.315483 0.315483 0.315527 0.317091
          0.317186 0.31738 0.317684 0.318111 0.318684 0.319428 0.320375 0.321569 0.323166 0.326835 0.349655 0.50657
          0.999988 0.999988 1 0.315483 0.315505 0.315523 0.315532 0.315485 0.315483 0.315483 0.315483 0.315522
          0.316978 0.31707 0.317255 0.317545 0.317952 0.318496 0.3192 0.320092 0.321208 0.322639 0.325271 0.339069
          0.44488 0.999988 0.999988 1 0.315483 0.31549 0.315499 0.315504 0.315484 0.315483 0.315483 0.315483
          0.315518 0.316858 0.316945 0.317119 0.31739 0.31777 0.318276 0.318928 0.31975 0.320771 0.322033 0.323783
          0.328431 0.354608 0.503441 0.999988 1 0.315474 0.315476 0.315479 0.315482 0.315483 0.315483 0.315483
          0.315483 0.315514 0.316733 0.316813 0.316974 0.317223 0.317571 0.318032 0.318623 0.319364 0.320277 0.321401
          0.323069 0.330022 0.392323 0.782363 0.999988 0.999989 0.315458 0.315458 0.31546 0.315461 0.315482 0.315483
          0.315483 0.315483 0.31551 0.316604 0.316676 0.316822 0.317047 0.31736 0.317772 0.318297 0.318949 0.319746
          0.320707 0.321928 0.324569 0.34028 0.436112 0.691888 0.4977 0.315438 0.315438 0.315439 0.31544 0.315482
          0.315483 0.315483 0.315483 0.315507 0.316473 0.316538 0.316667 0.316867 0.317143 0.317504 0.31796 0.318522
          0.319199 0.319998 0.320935 0.322144 0.325028 0.338751 0.375679 0.340537 0.315415 0.315416 0.315416 0.315417
          0.315481 0.315483 0.315483 0.315483 0.315503 0.316342 0.316398 0.316512 0.316686 0.316926 0.317237 0.317626
          0.318099 0.318659 0.319307 0.320032 0.320817 0.321707 0.323331 0.326564 0.323968 0.315389 0.315389 0.31539
          0.31539 0.31548 0.315483 0.315483 0.315483 0.315499 0.316212 0.316261 0.316359 0.316509 0.316714 0.316977
          0.317303 0.317694 0.318149 0.318662 0.319217 0.319781 0.320308 0.320773 0.321177 0.321129 0.315359 0.315359
          0.315359 0.31536 0.315479 0.315483 0.315483 0.315483 0.315496 0.316084 0.316126 0.316211 0.316338 0.316512
          0.316732 0.317002 0.317321 0.317685 0.318086 0.318508 0.318924 0.319299 0.319597 0.319789 0.319848 0.315324
          0.315324 0.315324 0.315325 0.315477 0.315483 0.315483 0.315483 0.315492 0.315959 0.315996 0.316068 0.316177
          0.316323 0.316507 0.316729 0.316987 0.317277 0.31759 0.317912 0.318223 0.3185 0.318717 0.318855 0.318903
          0.315283 0.315284 0.315284 0.315285 0.315476 0.315483 0.315483 0.315483 0.315488 0.315837 0.315869 0.315933
          0.316026 0.31615 0.316304 0.316487 0.316697 0.316929 0.317175 0.317423 0.31766 0.317868 0.318031 0.318134
          0.31817 0.315236 0.315237 0.315238 0.315239 0.315474 0.315482 0.315483 0.315483 0.315484 0.315716 0.315747
          0.315805 0.315888 0.315995 0.316125 0.316279 0.316452 0.316641 0.316838 0.317035 0.31722 0.317381 0.317506
          0.317586 0.317613 0.315181 0.315183 0.315189 0.315185 0.315466 0.315476 0.315477 0.315478 0.315478 0.315592
          0.315629 0.315686 0.315762 0.315858 0.315973 0.316105 0.316253 0.316413 0.316577 0.31674 0.316891 0.317021
          0.317122 0.317186 0.317207 0.315116 0.315119 0.315132 0.31517 0.315195 0.315247 0.315294 0.315343 0.315401
          0.31546 0.315518 0.315578 0.315652 0.315741 0.315846 0.315966 0.316099 0.316242 0.316387 0.31653 0.316662
          0.316775 0.316862 0.316917 0.316936 0.315036 0.315041 0.315057 0.315084 0.315118 0.31516 0.315207 0.315256
          0.315309 0.315365 0.315422 0.315484 0.315557 0.315643 0.315745 0.315862 0.31599 0.316127 0.316266 0.316402
          0.316528 0.316636 0.316718 0.31677 0.316788
        </DataArray>
        <DataArray type="Float32" Name="x^N2_liq" NumberOfComponents="1" format="ascii">
          1.14721e-05 1.1477e-05 1.14721e-05 1.14747e-05 1.14792e-05 1.14765e-05 1.14804e-05 1.14774e-05 1.14727e-05 1.14724e-05 1.14723e-05 1.14721e-05
          1.14723e-05 1.14721e-05 1.14723e-05 1.14721e-05 1.14742e-05 1.14739e-05 1.15381e-05 1.15344e-05 1.15414e-05 1.15379e-05 1.15486e-05 1.15452e-05
          1.15601e-05 1.15565e-05 1.15763e-05 1.15725e-05 1.1598e-05 1.1594e-05 1.16263e-05 1.1622e-05 1.16624e-05 1.16577e-05 1.17081e-05 1.17027e-05