<?xml version="1.0"?>
<VTKFile type="UnstructuredGrid" version="0.1" byte_order="LittleEndian">
  <UnstructuredGrid>
    <Piece NumberOfCells="384" NumberOfPoints="425">
      <CellData Scalars="S_w">
        <DataArray type="Float32" Name="S_w" NumberOfComponents="1" format="ascii">
          0 0 0 0 0 0 0 0 0 0 0 0
          0 0 0 0 0 0 0 0 0 0.00607688 0.593617 1
          0 0 0 0 0 0 0 0 0 0 0 0
          0 0 0 0 0 0 0 0 0 0.0051283 0.551467 1
          0 0 0 0 0 0 0 0 0 0 0 0
          0 0 0 0 0 0 0 0 0 0.00462848 0.552946 1
          0 0 0 0 0 0 0 0 0 0 0 0
          0 0 0 0 0 0 0 0 0 0.00329107 0.52197 1
          0 0 0 0 0 0 0 0 0 0 0 0
          0 0 0 0 0 0 0 0 0 0 0.000793555 0.428009
          0 0 0 0 0 0 0 0 0 0 0 0
          0 0 0 0 0 0 0 0 0 0 0 0
          0 0 0 0 0 0 0 0 0 0 0 0
          0 0 0 0 0 0 0 0 0 0 0 0
          0 0 0 0 0 0 0 0 0 0 0 0
          0 0 0 0 0 0 0 0 0 0 0 0
          0 0 0 0 0 0 0 0 0 0 0 0
          0 0 0 0 0 0 0 0 0 0 0 0
          0 0 0 0 0 0 0 0 0 0 0 0
          0 0 0 0 0 0 0 0 0 0 0 0
          0 0 0 0 0 0 0 0 0 0 0 0
          0 0 0 0 0 0 0 0 0 0 0 0
          0 0 0 0 0 0 0 0 0 0 0 0
          0 0 0 0 0 0 0 0 0 0 0 0
          0 0 0 0 0 0 0 0 0 0 0 0
          0 0 0 0 0 0 0 0 0 0 0 0
          0 0 0 0 0 0 0 0 0 0 0 0
          0 0 0 0 0 0 0 0 0 0 0 0
          0 0 0 0 0 0 0 0 0 0 0 0
          0 0 0 0 0 0 0 0 0 0 0 0
          0 0 0 0 0 0 0 0 0 0 0 0
          0 0 0 0 0 0 0 0 0 0 0 0
        </DataArray>
        <DataArray type="Float32" Name="S_n" NumberOfComponents="1" format="ascii">
          1 1 1 1 1 1 1 1 1 1 1 1
          1 1 1 1 1 1 1 1 1 0.993923 0.406383 0
          1 1 1 1 1 1 1 1 1 1 1 1
          1 1 1 1 1 1 1 1 1 0.994872 0.448533 0
          1 1 1 1 1 1 1 1 1 1 1 1
          1 1 1 1 1 1 1 1 1 0.995372 0.447054 0
          1 1 1 1 1 1 1 1 1 1 1 1
          1 1 1 1 1 1 1 1 1 0.996709 0.47803 0
          1 1 1 1 1 1 1 1 1 1 1 1
          1 1 1 1 1 1 1 1 1 1 0.999206 0.571991
          1 1 1 1 1 1 1 1 1 1 1 1
          1 1 1 1 1 1 1 1 1 1 1 1
          1 1 1 1 1 1 1 1 1 1 1 1
          1 1 1 1 1 1 1 1 1 1 1 1
          1 1 1 1 1 1 1 1 1 1 1 1
          1 1 1 1 1 1 1 1 1 1 1 1
          1 1 1 1 1 1 1 1 1 1 1 1
          1 1 1 1 1 1 1 1 1 1 1 1
          1 1 1 1 1 1 1 1 1 1 1 1
          1 1 1 1 1 1 1 1 1 1 1 1
          1 1 1 1 1 1 1 1 1 1 1 1
          1 1 1 1 1 1 1 1 1 1 1 1
          1 1 1 1 1 1 1 1 1 1 1 1
          1 1 1 1 1 1 1 1 1 1 1 1
          1 1 1 1 1 1 1 1 1 1 1 1
          1 1 1 1 1 1 1 1 1 1 1 1
          1 1 1 1 1 1 1 1 1 1 1 1
          1 1 1 1 1 1 1 1 1 1 1 1
          1 1 1 1 1 1 1 1 1 1 1 1
          1 1 1 1 1 1 1 1 1 1 1 1
          1 1 1 1 1 1 1 1 1 1 1 1
          1 1 1 1 1 1 1 1 1 1 1 1
        </DataArray>
        <DataArray type="Float32" Name="p_w" NumberOfComponents="1" format="ascii">
          100000 100031 100048 100056 100004 100001 100001 100017 100563 100596 100663 100769
          100918 101118 101380 101717 102145 102683 103359 104202 105256 106560 110413 200000
          100000 100018 100030 100036 100002 100000 100000 100015 100531 100563 100629 100732
          100877 101072 101326 101652 102065 102583 103229 104033 105033 106274 109652 200000
          100000 100010 100018 100022 100001 100000 100000 100013 100495 100526 100588 100686
          100824 101009 101248 101554 101939 102417 103009 103735 104627 105724 108716 200000
          100000 100005 100009 100012 100001 100000 100000 100012 100455 100484 100542 100633
          100761 100931 101151 101430 101776 102201 102718 103338 104076 104948 107092 200000
          99998.1 100000 100002 100004 100000 100000 100000 100011 100413 100439 100493 100575
          100691 100844 101040 101286 101588 101953 102385 102886 103449 104048 104598 105290
          99993.9 99994.8 99995.9 99996.6 100000 100000 100000 100009 100369 100392 100440 100514
          100616 100751 100922 101133 101389 101692 102042 102433 102848 103252 103573 103687
          99988.5 99988.9 99989.4 99989.8 99999.8 100000 100000 100008 100324 100345 100386 100451
          100539 100655 100801 100979 101191 101437 101714 102012 102316 102596 102808 102909
          99981.9 99982.1 99982.4 99982.6 99999.5 100000 100000 100007 100279 100297 100333 100388
          100464 100561 100683 100830 101003 101199 101414 101640 101862 102060 102208 102284
          99974.3 99974.5 99974.6 99974.8 99999.3 100000 100000 100005 100234 100250 100280 100327
          100390 100472 100572 100692 100830 100984 101150 101320 101484 101625 101730 101785
          99965.5 99965.6 99965.8 99966 99999 100000 100000 100004 100191 100204 100230 100269
          100322 100389 100471 100567 100676 100797 100924 101052 101172 101275 101350 101390
          99955.2 99955.4 99955.8 99956 99998.6 100000 100000 100003 100150 100161 100182 100215
          100258 100313 100379 100456 100543 100636 100734 100830 100920 100995 101050 101079
          99943.3 99943.6 99944.2 99944.8 99998.1 100000 100000 100002 100109 100119 100137 100164
          100201 100246 100299 100361 100429 100502 100577 100651 100718 100774 100814 100835
          99929.3 99930 99931.2 99932.4 99997.6 99999.9 100000 100001 100070 100079 100095 100119
          100149 100186 100230 100280 100335 100393 100452 100508 100560 100602 100632 100648
          99912.8 99914.1 99916.4 99919.3 99995 99998.3 99998.6 99998.3 100031 100040 100056 100077
          100103 100135 100172 100214 100259 100306 100353 100399 100439 100473 100496 100509
          99893.3 99895.2 99899.4 99907.4 99924.2 99938.7 99952.9 99968.7 99988.5 100003 100020 100040
          100064 100092 100125 100161 100200 100240 100280 100318 100352 100380 100400 100410
          99869.9 99872.1 99877 99885.4 99898 99911.4 99925.1 99939.9 99955.9 99971.4 99988 100007
          100030 100057 100087 100121 100156 100194 100230 100265 100296 100321 100339 100348
        </DataArray>
        <DataArray type="Float32" Name="p_n" NumberOfComponents="1" format="ascii">
          100000 100031 100048 100056 100004 100001 100001 100017 100563 100596 100663 100769
          100918 101118 101380 101717 102145 102683 103359 104202 105256 106560 110413 200000
          100000 100018 100030 100036 100002 100000 100000 100015 100531 100563 100629 100732
          100877 101072 101326 101652 102065 102583 103229 104033 105033 106274 109652 200000
          100000 100010 100018 100022 100001 100000 100000 100013 100495 100526 100588 100686
          100824 101009 101248 101554 101939 102417 103009 103735 104627 105724 108716 200000
          100000 100005 100009 100012 100001 100000 100000 100012 100455 100484 100542 100633
          100761 100931 101151 101430 101776 102201 102718 103338 104076 104948 107092 200000
          99998.1 100000 100002 100004 100000 100000 100000 100011 100413 100439 100493 100575
          100691 100844 101040 101286 101588 101953 102385 102886 103449 104048 104598 105290
          99993.9 99994.8 99995.9 99996.6 100000 100000 100000 100009 100369 100392 100440 100514
          100616 100751 100922 101133 101389 101692 102042 102433 102848 103252 103573 103687
          99988.5 99988.9 99989.4 99989.8 99999.8 100000 100000 100008 100324 100345 100386 100451
          100539 100655 100801 100979 101191 101437 101714 102012 102316 102596 102808 102909
          99981.9 99982.1 99982.4 99982.6 99999.5 100000 100000 100007 100279 100297 100333 100388
          100464 100561 100683 100830 101003 101199 101414 101640 101862 102060 102208 102284
          99974.3 99974.5 99974.6 99974.8 99999.3 100000 100000 100005 100234 100250 100280 100327
          100390 100472 100572 100692 100830 100984 101150 101320 101484 101625 101730 101785
          99965.5 99965.6 99965.8 99966 99999 100000 100000 100004 100191 100204 100230 100269
          100322 100389 100471 100567 100676 100797 100924 101052 101172 101275 101350 101390
          99955.2 99955.4 99955.8 99956 99998.6 100000 100000 100003 100150 100161 100182 100215
          100258 100313 100379 100456 100543 100636 100734 100830 100920 100995 101050 101079
          99943.3 99943.6 99944.2 99944.8 99998.1 100000 100000 100002 100109 100119 100137 100164
          100201 100246 100299 100361 100429 100502 100577 100651 100718 100774 100814 100835
          99929.3 99930 99931.2 99932.4 99997.6 99999.9 100000 100001 100070 100079 100095 100119
          100149 100186 100230 100280 100335 100393 100452 100508 100560 100602 100632 100648
          99912.8 99914.1 99916.4 99919.3 99995 99998.3 99998.6 99998.3 100031 100040 100056 100077
          100103 100135 100172 100214 100259 100306 100353 100399 100439 100473 100496 100509
          99893.3 99895.2 99899.4 99907.4 99924.2 99938.7 99952.9 99968.7 99988.5 100003 100020 100040
          100064 100092 100125 100161 100200 100240 100280 100318 100352 100380 100400 100410
          99869.9 99872.1 99877 99885.4 99898 99911.4 99925.1 99939.9 99955.9 99971.4 99988 100007
          100030 100057 100087 100121 100156 100194 100230 100265 100296 100321 100339 100348
        </DataArray>
        <DataArray type="Float32" Name="rho_w" NumberOfComponents="1" format="ascii">
          997.048 997.048 997.048 997.048 997.048 997.048 997.048 997.048 997.048 997.048 997.048 997.048
          997.048 997.048 997.048 997.048 997.049 997.049 997.049 997.05 997.05 997.051 997.052 997.093
          997.048 997.048 997.048 997.048 997.048 997.048 997.048 997.048 997.048 997.048 997.048 997.048
          997.048 997.048 997.048 997.048 997.049 997.049 997.049 997.049 997.05 997.05 997.052 997.093
          997.048 997.048 997.048 997.048 997.048 997.048 997.048 997.048 997.048 997.048 997.048 997.048
          997.048 997.048 997.048 997.048 997.049 997.049 997.049 997.049 997.05 997.05 997.052 997.093
          997.048 997.048 997.048 997.048 997.048 997.048 997.048 997.048 997.048 997.048 997.048 997.048
          997.048 997.048 997.048 997.048 997.048 997.049 997.049 997.049 997.049 997.05 997.051 997.093
          997.048 997.048 997.048 997.048 997.048 997.048 997.048 997.048 997.048 997.048 997.048 997.048
          997.048 997.048 997.048 997.048 997.048 997.049 997.049 997.049 997.049 997.049 997.05 997.05
          997.048 997.048 997.048 997.048 997.048 997.048 997.048 997.048 997.048 997.048 997.048 997.048
          997.048 997.048 997.048 997.048 997.048 997.048 997.049 997.049 997.049 997.049 997.049 997.049
          997.048 997.048 997.048 997.048 997.048 997.048 997.048 997.048 997.048 997.048 997.048 997.048
          997.048 997.048 997.048 997.048 997.048 997.048 997.048 997.049 997.049 997.049 997.049 997.049
          997.048 997.048 997.048 997.048 997.048 997.048 997.048 997.048 997.048 997.048 997.048 997.048
          997.048 997.048 997.048 997.048 997.048 997.048 997.048 997.048 997.049 997.049 997.049 997.049
          997.048 997.048 997.048 997.048 997.048 997.048 997.048 997.048 997.048 997.048 997.048 997.048
          997.048 997.048 997.048 997.048 997.048 997.048 997.048 997.048 997.048 997.048 997.048 997.048
          997.048 997.048 997.048 997.048 997.048 997.048 997.048 997.048 997.048 997.048 997.048 997.048
          997.048 997.048 997.048 997.048 997.048 997.048 997.048 997.048 997.048 997.048 997.048 997.048
          997.048 997.048 997.048 997.048 997.048 997.048 997.048 997.048 997.048 997.048 997.048 997.048
          997.048 997.048 997.048 997.048 997.048 997.048 997.048 997.048 997.048 997.048 997.048 997.048
          997.048 997.048 997.048 997.048 997.048 997.048 997.048 997.048 997.048 997.048 997.048 997.048
          997.048 997.048 997.048 997.048 997.048 997.048 997.048 997.048 997.048 997.048 997.048 997.048
          997.048 997.048 997.048 997.048 997.048 997.048 997.048 997.048 997.048 997.048 997.048 997.048
          997.048 997.048 997.048 997.048 997.048 997.048 997.048 997.048 997.048 997.048 997.048 997.048
          997.048 997.048 997.048 997.048 997.048 997.048 997.048 997.048 997.048 997.048 997.048 997.048
          997.048 997.048 997.048 997.048 997.048 997.048 997.048 997.048 997.048 997.048 997.048 997.048
          997.048 997.048 997.048 997.048 997.048 997.048 997.048 997.048 997.048 997.048 997.048 997.048
          997.048 997.048 997.048 997.048 997.048 997.048 997.048 997.048 997.048 997.048 997.048 997.048
          997.048 997.048 997.048 997.048 997.048 997.048 997.048 997.048 997.048 997.048 997.048 997.048
          997.048 997.048 997.048 997.048 997.048 997.048 997.048 997.048 997.048 997.048 997.048 997.048
        </DataArray>
        <DataArray type="Float32" Name="rho_n" NumberOfComponents="1" format="ascii">
          1.12601 1.12636 1.12656 1.12664 1.12606 1.12602 1.12602 1.12621 1.13235 1.13273 1.13348 1.13467
          1.13635 1.1386 1.14155 1.14535 1.15016 1.15622 1.16378 1.17286 1.18222 1.19139 1.23493 1.45345
          1.12601 1.12621 1.12635 1.12642 1.12603 1.12601 1.12602 1.12618 1.13199 1.13235 1.1331 1.13425
          1.13589 1.13808 1.14095 1.14462 1.14926 1.15509 1.16233 1.171 1.1799 1.18816 1.22633 1.45345
          1.12601 1.12613 1.12621 1.12626 1.12603 1.12601 1.12602 1.12616 1.13158 1.13193 1.13264 1.13374
          1.13529 1.13737 1.14007 1.14351 1.14785 1.15323 1.15986 1.16771 1.17558 1.18194 1.21575 1.45345
          1.12601 1.12607 1.12612 1.12614 1.12602 1.12601 1.12601 1.12615 1.13114 1.13146 1.13212 1.13315
          1.13458 1.1365 1.13898 1.14211 1.14601 1.1508 1.15659 1.16334 1.16983 1.17318 1.19741 1.45345
          1.12599 1.12601 1.12604 1.12605 1.12602 1.12601 1.12601 1.12613 1.13066 1.13096 1.13156 1.13249
          1.13379 1.13552 1.13773 1.1405 1.1439 1.148 1.15286 1.15846 1.16438 1.16874 1.16922 1.17704
          1.12595 1.12595 1.12597 1.12597 1.12601 1.12601 1.12601 1.12612 1.13016 1.13043 1.13097 1.1318
          1.13295 1.13447 1.13639 1.13877 1.14166 1.14507 1.14901 1.1534 1.15802 1.16217 1.16423 1.16534
          1.12588 1.12589 1.12589 1.1259 1.12601 1.12601 1.12601 1.1261 1.12966 1.12989 1.13036 1.13109
          1.13209 1.13339 1.13503 1.13704 1.13943 1.1422 1.14531 1.14867 1.15209 1.15519 1.15739 1.15847
          1.12581 1.12581 1.12582 1.12582 1.12601 1.12601 1.12601 1.12609 1.12915 1.12935 1.12976 1.13038
          1.13123 1.13234 1.13371 1.13536 1.1373 1.13951 1.14194 1.14448 1.14698 1.14921 1.15085 1.1517
          1.12572 1.12573 1.12573 1.12573 1.12601 1.12601 1.12601 1.12607 1.12865 1.12883 1.12917 1.12969
          1.13041 1.13133 1.13246 1.1338 1.13536 1.1371 1.13897 1.14088 1.14272 1.14432 1.1455 1.14612
          1.12562 1.12563 1.12563 1.12563 1.126 1.12601 1.12601 1.12606 1.12817 1.12831 1.1286 1.12904
          1.12964 1.13039 1.13131 1.13239 1.13363 1.13498 1.13642 1.13786 1.13921 1.14037 1.14122 1.14167
          1.12551 1.12551 1.12551 1.12552 1.126 1.12601 1.12601 1.12605 1.1277 1.12782 1.12806 1.12843
          1.12892 1.12954 1.13028 1.13115 1.13212 1.13318 1.13428 1.13536 1.13637 1.13722 1.13783 1.13816
          1.12537 1.12538 1.12539 1.12539 1.12599 1.12601 1.12601 1.12603 1.12724 1.12735 1.12756 1.12787
          1.12827 1.12878 1.12938 1.13008 1.13085 1.13167 1.13252 1.13334 1.1341 1.13473 1.13518 1.13542
          1.12522 1.12522 1.12524 1.12525 1.12599 1.12601 1.12601 1.12602 1.1268 1.1269 1.12708 1.12735
          1.12769 1.12811 1.12861 1.12917 1.12979 1.13044 1.1311 1.13174 1.13231 1.13279 1.13313 1.13331
          1.12503 1.12505 1.12507 1.12511 1.12596 1.12599 1.126 1.12599 1.12636 1.12647 1.12664 1.12688
          1.12718 1.12754 1.12795 1.12842 1.12893 1.12946 1.12999 1.1305 1.13096 1.13134 1.1316 1.13174
          1.12481 1.12483 1.12488 1.12497 1.12516 1.12532 1.12548 1.12566 1.12588 1.12605 1.12624 1.12646
          1.12673 1.12705 1.12742 1.12782 1.12826 1.12872 1.12917 1.1296 1.12998 1.13029 1.13051 1.13063
          1.12455 1.12457 1.12463 1.12472 1.12486 1.12502 1.12517 1.12534 1.12552 1.12569 1.12588 1.12609
          1.12635 1.12665 1.12699 1.12737 1.12778 1.12819 1.12861 1.129 1.12934 1.12963 1.12983 1.12993
        </DataArray>
        <DataArray type="Float32" Name="lambda_w" NumberOfComponents="1" format="ascii">
          0 0 0 0 0 0 0 0 0 0 0 0
          0 0 0 0 0 0 0 0 0 0.374418 672.813 1123.58
          0 0 0 0 0 0 0 0 0 0 0 0
          0 0 0 0 0 0 0 0 0 0.266027 622.824 1123.58
          0 0 0 0 0 0 0 0 0 0 0 0
          0 0 0 0 0 0 0 0 0 0.216431 624.578 1123.58
          0 0 0 0 0 0 0 0 0 0 0 0
          0 0 0 0 0 0 0 0 0 0.109064 587.84 1123.58
          0 0 0 0 0 0 0 0 0 0 0 0
          0 0 0 0 0 0 0 0 0 0 0.00630176 476.404
          0 0 0 0 0 0 0 0 0 0 0 0
          0 0 0 0 0 0 0 0 0 0 0 0
          0 0 0 0 0 0 0 0 0 0 0 0
          0 0 0 0 0 0 0 0 0 0 0 0
          0 0 0 0 0 0 0 0 0 0 0 0
          0 0 0 0 0 0 0 0 0 0 0 0
          0 0 0 0 0 0 0 0 0 0 0 0
          0 0 0 0 0 0 0 0 0 0 0 0
          0 0 0 0 0 0 0 0 0 0 0 0
          0 0 0 0 0 0 0 0 0 0 0 0
          0 0 0 0 0 0 0 0 0 0 0 0
          0 0 0 0 0 0 0 0 0 0 0 0
          0 0 0 0 0 0 0 0 0 0 0 0
          0 0 0 0 0 0 0 0 0 0 0 0
          0 0 0 0 0 0 0 0 0 0 0 0
          0 0 0 0 0 0 0 0 0 0 0 0
          0 0 0 0 0 0 0 0 0 0 0 0
          0 0 0 0 0 0 0 0 0 0 0 0
          0 0 0 0 0 0 0 0 0 0 0 0
          0 0 0 0 0 0 0 0 0 0 0 0
          0 0 0 0 0 0 0 0 0 0 0 0
          0 0 0 0 0 0 0 0 0 0 0 0
        </DataArray>
        <DataArray type="Float32" Name="lambda_n" NumberOfComponents="1" format="ascii">
          56746.7 56746.7 56746.7 56746.7 56746.7 56746.7 56746.7 56746.7 56746.7 56746.7 56746.7 56746.7
          56746.7 56746.7 56746.7 56746.7 56746.7 56746.7 56746.7 56746.7 56746.7 56727.8 22765.8 0
          56746.7 56746.7 56746.7 56746.7 56746.7 56746.7 56746.7 56746.7 56746.7 56746.7 56746.7 56746.7
          56746.7 56746.7 56746.7 56746.7 56746.7 56746.7 56746.7 56746.7 56746.7 56733.3 25290.5 0
          56746.7 56746.7 56746.7 56746.7 56746.7 56746.7 56746.7 56746.7 56746.7 56746.7 56746.7 56746.7
          56746.7 56746.7 56746.7 56746.7 56746.7 56746.7 56746.7 56746.7 56746.7 56735.8 25201.9 0
          56746.7 56746.7 56746.7 56746.7 56746.7 56746.7 56746.7 56746.7 56746.7 56746.7 56746.7 56746.7
          56746.7 56746.7 56746.7 56746.7 56746.7 56746.7 56746.7 56746.7 56746.7 56741.2 27057.4 0
          56746.7 56746.7 56746.7 56746.7 56746.7 56746.7 56746.7 56746.7 56746.7 56746.7 56746.7 56746.7
          56746.7 56746.7 56746.7 56746.7 56746.7 56746.7 56746.7 56746.7 56746.7 56746.7 56746.4 32685.6
          56746.7 56746.7 56746.7 56746.7 56746.7 56746.7 56746.7 56746.7 56746.7 56746.7 56746.7 56746.7
          56746.7 56746.7 56746.7 56746.7 56746.7 56746.7 56746.7 56746.7 56746.7 56746.7 56746.7 56746.7
          56746.7 56746.7 56746.7 56746.7 56746.7 56746.7 56746.7 56746.7 56746.7 56746.7 56746.7 56746.7
          56746.7 56746.7 56746.7 56746.7 56746.7 56746.7 56746.7 56746.7 56746.7 56746.7 56746.7 56746.7
          56746.7 56746.7 56746.7 56746.7 56746.7 56746.7 56746.7 56746.7 56746.7 56746.7 56746.7 56746.7
          56746.7 56746.7 56746.7 56746.7 56746.7 56746.7 56746.7 56746.7 56746.7 56746.7 56746.7 56746.7
          56746.7 56746.7 56746.7 56746.7 56746.7 56746.7 56746.7 56746.7 56746.7 56746.7 56746.7 56746.7
          56746.7 56746.7 56746.7 56746.7 56746.7 56746.7 56746.7 56746.7 56746.7 56746.7 56746.7 56746.7
          56746.7 56746.7 56746.7 56746.7 56746.7 56746.7 56746.7 56746.7 56746.7 56746.7 56746.7 56746.7
          56746.7 56746.7 56746.7 56746.7 56746.7 56746.7 56746.7 56746.7 56746.7 56746.7 56746.7 56746.7
          56746.7 56746.7 56746.7 56746.7 56746.7 56746.7 56746.7 56746.7 56746.7 56746.7 56746.7 56746.7
          56746.7 56746.7 56746.7 56746.7 56746.7 56746.7 56746.7 56746.7 56746.7 56746.7 56746.7 56746.7
          56746.7 56746.7 56746.7 56746.7 56746.7 56746.7 56746.7 56746.7 56746.7 56746.7 56746.7 56746.7
          56746.7 56746.7 56746.7 56746.7 56746.7 56746.7 56746.7 56746.7 56746.7 56746.7 56746.7 56746.7
          56746.7 56746.7 56746.7 56746.7 56746.7 56746.7 56746.7 56746.7 56746.7 56746.7 56746.7 56746.7
          56746.7 56746.7 56746.7 56746.7 56746.7 56746.7 56746.7 56746.7 56746.7 56746.7 56746.7 56746.7
          56746.7 56746.7 56746.7 56746.7 56746.7 56746.7 56746.7 56746.7 56746.7 56746.7 56746.7 56746.7
          56746.7 56746.7 56746.7 56746.7 56746.7 56746.7 56746.7 56746.7 56746.7 56746.7 56746.7 56746.7
          56746.7 56746.7 56746.7 56746.7 56746.7 56746.7 56746.7 56746.7 56746.7 56746.7 56746.7 56746.7
          56746.7 56746.7 56746.7 56746.7 56746.7 56746.7 56746.7 56746.7 56746.7 56746.7 56746.7 56746.7
          56746.7 56746.7 56746.7 56746.7 56746.7 56746.7 56746.7 56746.7 56746.7 56746.7 56746.7 56746.7
          56746.7 56746.7 56746.7 56746.7 56746.7 56746.7 56746.7 56746.7 56746.7 56746.7 56746.7 56746.7
        </DataArray>
        <DataArray type="Float32" Name="porosity" NumberOfComponents="1" format="ascii">
          0.3 0.3 0.3 0.3 0.3 0.3 0.3 0.3 0.3 0.3 0.3 0.3
          0.3 0.3 0.3 0.3 0.3 0.3 0.3 0.3 0.3 0.3 0.3 0.3
          0.3 0.3 0.3 0.3 0.3 0.3 0.3 0.3 0.3 0.3 0.3 0.3
          0.3 0.3 0.3 0.3 0.3 0.3 0.3 0.3 0.3 0.3 0.3 0.3
          0.3 0.3 0.3 0.3 0.3 0.3 0.3 0.3 0.3 0.3 0.3 0.3
          0.3 0.3 0.3 0.3 0.3 0.3 0.3 0.3 0.3 0.3 0.3 0.3
          0.3 0.3 0.3 0.3 0.3 0.3 0.3 0.3 0.3 0.3 0.3 0.3
          0.3 0.3 0.3 0.3 0.3 0.3 0.3 0.3 0.3 0.3 0.3 0.3
          0.3 0.3 0.3 0.3 0.3 0.3 0.3 0.3 0.3 0.3 0.3 0.3
          0.3 0.3 0.3 0.3 0.3 0.3 0.3 0.3 0.3 0.3 0.3 0.3
          0.3 0.3 0.3 0.3 0.3 0.3 0.3 0.3 0.3 0.3 0.3 0.3
          0.3 0.3 0.3 0.3 0.3 0.3 0.3 0.3 0.3 0.3 0.3 0.3
          0.3 0.3 0.3 0.3 0.3 0.3 0.3 0.3 0.3 0.3 0.3 0.3
          0.3 0.3 0.3 0.3 0.3 0.3 0.3 0.3 0.3 0.3 0.3 0.3
          0.3 0.3 0.3 0.3 0.3 0.3 0.3 0.3 0.3 0.3 0.3 0.3
          0.3 0.3 0.3 0.3 0.3 0.3 0.3 0.3 0.3 0.3 0.3 0.3
          0.3 0.3 0.3 0.3 0.3 0.3 0.3 0.3 0.3 0.3 0.3 0.3
          0.3 0.3 0.3 0.3 0.3 0.3 0.3 0.3 0.3 0.3 0.3 0.3
          0.3 0.3 0.3 0.3 0.3 0.3 0.3 0.3 0.3 0.3 0.3 0.3
          0.3 0.3 0.3 0.3 0.3 0.3 0.3 0.3 0.3 0.3 0.3 0.3
          0.3 0.3 0.3 0.3 0.3 0.3 0.3 0.3 0.3 0.3 0.3 0.3
          0.3 0.3 0.3 0.3 0.3 0.3 0.3 0.3 0.3 0.3 0.3 0.3
          0.3 0.3 0.3 0.3 0.3 0.3 0.3 0.3 0.3 0.3 0.3 0.3
          0.3 0.3 0.3 0.3 0.3 0.3 0.3 0.3 0.3 0.3 0.3 0.3
          0.3 0.3 0.3 0.3 0.3 0.3 0.3 0.3 0.3 0.3 0.3 0.3
          0.3 0.3 0.3 0.3 0.3 0.3 0.3 0.3 0.3 0.3 0.3 0.3
          0.3 0.3 0.3 0.3 0.3 0.3 0.3 0.3 0.3 0.3 0.3 0.3
          0.3 0.3 0.3 0.3 0.3 0.3 0.3 0.3 0.3 0.3 0.3 0.3
          0.3 0.3 0.3 0.3 0.3 0.3 0.3 0.3 0.3 0.3 0.3 0.3
          0.3 0.3 0.3 0.3 0.3 0.3 0.3 0.3 0.3 0.3 0.3 0.3
          0.3 0.3 0.3 0.3 0.3 0.3 0.3 0.3 0.3 0.3 0.3 0.3
          0.3 0.3 0.3 0.3 0.3 0.3 0.3 0.3 0.3 0.3 0.3 0.3
        </DataArray>
        <DataArray type="Float32" Name="x_w^H2O" NumberOfComponents="1" format="ascii">
          0.315483 0.315581 0.315634 0.315658 0.315494 0.315485 0.315486 0.315536 0.317258 0.317363 0.317576 0.317908
          0.318377 0.31901 0.319836 0.3209 0.322265 0.324245 0.329966 0.365354 0.56475 0.999988 0.999988 1
          0.315483 0.315539 0.315577 0.315595 0.315488 0.315483 0.315483 0.315529 0.317157 0.317259 0.317467 0.317791
          0.318249 0.318863 0.319666 0.320696 0.322011 0.323886 0.329111 0.361668 0.549105 0.999988 0.999988 1
          0.315483 0.315515 0.315538 0.315551 0.315486 0.315483 0.315483 0.315525 0.317043 0.317141 0.317339 0.317647
          0.318082 0.318664 0.319421 0.320387 0.321609 0.323295 0.327662 0.355447 0.528019 0.999988 0.999988 1
          0.315483 0.315498 0.315511 0.315519 0.315485 0.315483 0.315483 0.31552 0.316918 0.317009 0.317194 0.317481
          0.317884 0.318421 0.319115 0.319993 0.32109 0.322534 0.325772 0.3463 0.490892 0.999988 0.999988 1
          0.315477 0.315483 0.31549 0.315494 0.315484 0.315483 0.315483 0.315516 0.316785 0.316868 0.317037 0.317297
          0.317662 0.318145 0.318765 0.31954 0.320494 0.32166 0.323302 0.3285 0.363485 0.551702 0.999988 0.999988
          0.315463 0.315466 0.31547 0.315472 0.315483 0.315483 0.315483 0.315512 0.316646 0.31672 0.316871 0.317103
          0.317426 0.317851 0.31839 0.319058 0.319866 0.320824 0.321955 0.323596 0.329263 0.361799 0.484438 0.498412
          0.315446 0.315447 0.315449 0.31545 0.315482 0.315483 0.315483 0.315508 0.316504 0.316569 0.316701 0.316904
          0.317184 0.31755 0.31801 0.318571 0.31924 0.320017 0.320891 0.321865 0.323202 0.327252 0.343142 0.347924
          0.315426 0.315426 0.315427 0.315428 0.315481 0.315483 0.315483 0.315503 0.316362 0.316419 0.316532 0.316706
          0.316945 0.317254 0.317638 0.318102 0.318646 0.319265 0.319944 0.320659 0.321384 0.322227 0.323883 0.324667
          0.315402 0.315402 0.315403 0.315403 0.31548 0.315483 0.315483 0.3155 0.316222 0.31627 0.316367 0.316514
          0.316714 0.316972 0.317288 0.317665 0.318101 0.318588 0.319112 0.319648 0.320164 0.320623 0.321019 0.321232
          0.315374 0.315374 0.315375 0.315375 0.315479 0.315483 0.315483 0.315496 0.316086 0.316127 0.316208 0.316331
          0.316498 0.316709 0.316967 0.31727 0.317616 0.317996 0.318397 0.318801 0.319181 0.319506 0.319746 0.319873
          0.315341 0.315342 0.315343 0.315344 0.315478 0.315483 0.315483 0.315492 0.315955 0.315989 0.316057 0.31616
          0.316297 0.316471 0.316679 0.316922 0.317194 0.31749 0.317798 0.318102 0.318384 0.318622 0.318794 0.318885
          0.315304 0.315305 0.315307 0.315308 0.315477 0.315483 0.315483 0.315488 0.315827 0.315857 0.315915 0.316002
          0.316116 0.316258 0.316427 0.316621 0.316837 0.317067 0.317304 0.317536 0.317747 0.317924 0.318051 0.318117
          0.31526 0.315262 0.315266 0.315269 0.315475 0.315482 0.315483 0.315485 0.315704 0.315731 0.315783 0.315857
          0.315953 0.31607 0.316209 0.316367 0.31654 0.316722 0.316908 0.317086 0.317248 0.317382 0.317478 0.317528
          0.315208 0.315212 0.315219 0.315228 0.315467 0.315477 0.315478 0.315477 0.315579 0.31561 0.315659 0.315725
          0.315809 0.315909 0.316026 0.316157 0.316299 0.316448 0.316598 0.316741 0.316869 0.316974 0.317048 0.317087
          0.315146 0.315152 0.315165 0.315191 0.315243 0.315289 0.315334 0.315384 0.315446 0.315493 0.315545 0.315608
          0.315684 0.315773 0.315876 0.31599 0.316113 0.31624 0.316367 0.316487 0.316594 0.316682 0.316744 0.316776
          0.315072 0.315079 0.315095 0.315121 0.315161 0.315203 0.315246 0.315293 0.315344 0.315392 0.315445 0.315505
          0.315577 0.315661 0.315757 0.315863 0.315976 0.316093 0.316209 0.316319 0.316416 0.316495 0.316551 0.31658
        </DataArray>
        <DataArray type="Float32" Name="x_w^N2" NumberOfComponents="1" format="ascii">
          1.14721e-05 1.14757e-05 1.14776e-05 1.14785e-05 1.14725e-05 1.14722e-05 1.14722e-05 1.14741e-05 1.15367e-05 1.15405e-05 1.15482e-05 1.15603e-05
          1.15774e-05 1.16004e-05 1.16304e-05 1.16691e-05 1.17181e-05 1.17798e-05 1.1856e-05 1.19408e-05 1.19896e-05 1.19808e-05 1.24273e-05 0
          1.14721e-05 1.14742e-05 1.14755e-05 1.14762e-05 1.14723e-05 1.14721e-05 1.14721e-05 1.14738e-05 1.1533e-05 1.15367e-05 1.15443e-05 1.1556e-05
          1.15727e-05 1.1595e-05 1.16242e-05 1.16616e-05 1.1709e-05 1.17683e-05 1.18413e-05 1.19225e-05 1.19695e-05 1.19477e-05 1.23391e-05 0
          1.14721e-05 1.14733e-05 1.14741e-05 1.14746e-05 1.14722e-05 1.14721e-05 1.14721e-05 1.14736e-05 1.15288e-05 1.15324e-05 1.15396e-05 1.15508e-05
          1.15666e-05 1.15878e-05 1.16153e-05 1.16504e-05 1.16945e-05 1.17494e-05 1.18163e-05 1.18902e-05 1.19302e-05 1.18839e-05 1.22307e-05 0
          1.14721e-05 1.14727e-05 1.14732e-05 1.14734e-05 1.14722e-05 1.14721e-05 1.14721e-05 1.14735e-05 1.15243e-05 1.15276e-05 1.15343e-05 1.15448e-05
          1.15594e-05 1.1579e-05 1.16042e-05 1.16361e-05 1.16758e-05 1.17246e-05 1.17832e-05 1.18476e-05 1.188e-05 1.17941e-05 1.20426e-05 0
          1.14719e-05 1.14721e-05 1.14724e-05 1.14725e-05 1.14721e-05 1.14721e-05 1.14721e-05 1.14733e-05 1.15195e-05 1.15225e-05 1.15286e-05 1.15381e-05
          1.15514e-05 1.15689e-05 1.15915e-05 1.16197e-05 1.16543e-05 1.16961e-05 1.17456e-05 1.18018e-05 1.18542e-05 1.18544e-05 1.17534e-05 1.18336e-05
          1.14714e-05 1.14715e-05 1.14716e-05 1.14717e-05 1.14721e-05 1.14721e-05 1.14721e-05 1.14732e-05 1.15144e-05 1.15171e-05 1.15226e-05 1.1531e-05
          1.15428e-05 1.15582e-05 1.15778e-05 1.16021e-05 1.16315e-05 1.16663e-05 1.17064e-05 1.17511e-05 1.17971e-05 1.1832e-05 1.18241e-05 1.18321e-05
          1.14708e-05 1.14708e-05 1.14709e-05 1.14709e-05 1.14721e-05 1.14721e-05 1.14721e-05 1.1473e-05 1.15092e-05 1.15116e-05 1.15164e-05 1.15238e-05
          1.1534e-05 1.15473e-05 1.1564e-05 1.15844e-05 1.16088e-05 1.1637e-05 1.16687e-05 1.1703e-05 1.17377e-05 1.17686e-05 1.17874e-05 1.17973e-05
          1.147e-05 1.14701e-05 1.14701e-05 1.14701e-05 1.14721e-05 1.14721e-05 1.14721e-05 1.14729e-05 1.15041e-05 1.15061e-05 1.15103e-05 1.15166e-05
          1.15253e-05 1.15365e-05 1.15505e-05 1.15674e-05 1.15871e-05 1.16096e-05 1.16343e-05 1.16603e-05 1.16857e-05 1.17083e-05 1.17249e-05 1.17334e-05
          1.14692e-05 1.14692e-05 1.14692e-05 1.14692e-05 1.1472e-05 1.14721e-05 1.14721e-05 1.14727e-05 1.1499e-05 1.15008e-05 1.15043e-05 1.15096e-05
          1.15169e-05 1.15263e-05 1.15378e-05 1.15515e-05 1.15673e-05 1.1585e-05 1.16041e-05 1.16236e-05 1.16423e-05 1.16586e-05 1.16706e-05 1.16769e-05
          1.14681e-05 1.14682e-05 1.14682e-05 1.14682e-05 1.1472e-05 1.14721e-05 1.14721e-05 1.14726e-05 1.14941e-05 1.14955e-05 1.14985e-05 1.1503e-05
          1.1509e-05 1.15167e-05 1.15261e-05 1.15371e-05 1.15497e-05 1.15635e-05 1.15781e-05 1.15928e-05 1.16066e-05 1.16184e-05 1.1627e-05 1.16316e-05
          1.1467e-05 1.1467e-05 1.1467e-05 1.14671e-05 1.14719e-05 1.14721e-05 1.14721e-05 1.14725e-05 1.14893e-05 1.14905e-05 1.1493e-05 1.14967e-05
          1.15017e-05 1.1508e-05 1.15156e-05 1.15244e-05 1.15344e-05 1.15451e-05 1.15563e-05 1.15674e-05 1.15776e-05 1.15863e-05 1.15925e-05 1.15958e-05