<?xml version="1.0"?>
<VTKFile type="UnstructuredGrid" version="0.1" byte_order="LittleEndian">
  <UnstructuredGrid>
    <Piece NumberOfCells="384" NumberOfPoints="425">
      <CellData Scalars="S_w">
        <DataArray type="Float32" Name="S_w" NumberOfComponents="1" format="ascii">
          0 0 0 0 0 0 0 0 0 0 0 0
          0 0 0 0 0 0 0 0 0 0.00631326 0.593514 1
          0 0 0 0 0 0 0 0 0 0 0 0
          0 0 0 0 0 0 0 0 0 0.00529458 0.551056 1
          0 0 0 0 0 0 0 0 0 0 0 0
          0 0 0 0 0 0 0 0 0 0.00476778 0.552509 1
          0 0 0 0 0 0 0 0 0 0 0 0
          0 0 0 0 0 0 0 0 0 0.00336947 0.521376 1
          0 0 0 0 0 0 0 0 0 0 0 0
          0 0 0 0 0 0 0 0 0 0 0.000818962 0.427886
          0 0 0 0 0 0 0 0 0 0 0 0
          0 0 0 0 0 0 0 0 0 0 0 0
          0 0 0 0 0 0 0 0 0 0 0 0
          0 0 0 0 0 0 0 0 0 0 0 0
          0 0 0 0 0 0 0 0 0 0 0 0
          0 0 0 0 0 0 0 0 0 0 0 0
          0 0 0 0 0 0 0 0 0 0 0 0
          0 0 0 0 0 0 0 0 0 0 0 0
          0 0 0 0 0 0 0 0 0 0 0 0
          0 0 0 0 0 0 0 0 0 0 0 0
          0 0 0 0 0 0 0 0 0 0 0 0
          0 0 0 0 0 0 0 0 0 0 0 0
          0 0 0 0 0 0 0 0 0 0 0 0
          0 0 0 0 0 0 0 0 0 0 0 0
          0 0 0 0 0 0 0 0 0 0 0 0
          0 0 0 0 0 0 0 0 0 0 0 0
          0 0 0 0 0 0 0 0 0 0 0 0
          0 0 0 0 0 0 0 0 0 0 0 0
          0 0 0 0 0 0 0 0 0 0 0 0
          0 0 0 0 0 0 0 0 0 0 0 0
          0 0 0 0 0 0 0 0 0 0 0 0
          0 0 0 0 0 0 0 0 0 0 0 0
        </DataArray>
        <DataArray type="Float32" Name="S_n" NumberOfComponents="1" format="ascii">
          1 1 1 1 1 1 1 1 1 1 1 1
          1 1 1 1 1 1 1 1 1 0.993687 0.406486 0
          1 1 1 1 1 1 1 1 1 1 1 1
          1 1 1 1 1 1 1 1 1 0.994705 0.448944 0
          1 1 1 1 1 1 1 1 1 1 1 1
          1 1 1 1 1 1 1 1 1 0.995232 0.447491 0
          1 1 1 1 1 1 1 1 1 1 1 1
          1 1 1 1 1 1 1 1 1 0.996631 0.478623 0
          1 1 1 1 1 1 1 1 1 1 1 1
          1 1 1 1 1 1 1 1 1 1 0.999181 0.572114
          1 1 1 1 1 1 1 1 1 1 1 1
          1 1 1 1 1 1 1 1 1 1 1 1
          1 1 1 1 1 1 1 1 1 1 1 1
          1 1 1 1 1 1 1 1 1 1 1 1
          1 1 1 1 1 1 1 1 1 1 1 1
          1 1 1 1 1 1 1 1 1 1 1 1
          1 1 1 1 1 1 1 1 1 1 1 1
          1 1 1 1 1 1 1 1 1 1 1 1
          1 1 1 1 1 1 1 1 1 1 1 1
          1 1 1 1 1 1 1 1 1 1 1 1
          1 1 1 1 1 1 1 1 1 1 1 1
          1 1 1 1 1 1 1 1 1 1 1 1
          1 1 1 1 1 1 1 1 1 1 1 1
          1 1 1 1 1 1 1 1 1 1 1 1
          1 1 1 1 1 1 1 1 1 1 1 1
          1 1 1 1 1 1 1 1 1 1 1 1
          1 1 1 1 1 1 1 1 1 1 1 1
          1 1 1 1 1 1 1 1 1 1 1 1
          1 1 1 1 1 1 1 1 1 1 1 1
          1 1 1 1 1 1 1 1 1 1 1 1
          1 1 1 1 1 1 1 1 1 1 1 1
          1 1 1 1 1 1 1 1 1 1 1 1
        </DataArray>
        <DataArray type="Float32" Name="p_w" NumberOfComponents="1" format="ascii">
          100000 100031 100048 100056 100004 100001 100001 100017 100565 100598 100665 100770
          100918 101117 101378 101714 102140 102677 103351 104193 105245 106548 110393 200000
          100000 100018 100030 100036 100002 100000 100000 100015 100533 100565 100631 100733
          100877 101071 101324 101649 102060 102577 103222 104024 105023 106263 109633 200000
          100000 100010 100018 100022 100001 100000 100000 100014 100497 100528 100590 100687
          100824 101008 101247 101551 101935 102412 103002 103727 104618 105714 108698 200000
          100000 100005 100009 100012 100001 100000 100000 100012 100457 100486 100544 100635
          100762 100931 101150 101427 101772 102196 102711 103330 104067 104940 107079 200000
          99998.1 100000 100002 100004 100000 100000 100000 100011 100415 100442 100495 100577
          100692 100844 101040 101284 101585 101949 102380 102880 103442 104040 104590 105281
          99994 99994.8 99995.9 99996.6 100000 100000 100000 100010 100371 100395 100442 100515
          100617 100751 100921 101132 101387 101689 102038 102427 102842 103245 103566 103680
          99988.5 99988.9 99989.5 99989.8 99999.8 100000 100000 100008 100326 100347 100389 100453
          100541 100656 100801 100978 101190 101435 101710 102008 102311 102590 102802 102903
          99982.1 99982.3 99982.5 99982.8 99999.5 100000 100000 100007 100282 100299 100335 100390
          100465 100563 100684 100830 101002 101197 101412 101637 101859 102056 102203 102279
          99974.5 99974.6 99974.8 99975 99999.3 100000 100000 100006 100237 100253 100283 100329
          100393 100474 100573 100692 100830 100984 101149 101318 101481 101622 101727 101782
          99965.7 99965.9 99966.1 99966.2 99999 100000 100000 100004 100194 100207 100233 100272
          100324 100391 100472 100568 100677 100797 100923 101051 101171 101273 101348 101388
          99955.5 99955.8 99956.1 99956.4 99998.6 100000 100000 100003 100153 100164 100185 100217
          100261 100316 100381 100458 100544 100637 100734 100830 100919 100994 101049 101077
          99943.7 99944.1 99944.7 99945.2 99998.1 100000 100000 100002 100112 100122 100140 100167
          100203 100248 100302 100363 100431 100504 100579 100652 100718 100774 100814 100835
          99929.8 99930.5 99931.8 99933 99997.6 99999.9 100000 100001 100073 100082 100098 100122
          100152 100189 100233 100283 100337 100395 100453 100510 100561 100603 100633 100649
          99913.4 99914.7 99917.1 99920.1 99995 99998.3 99998.7 99998.5 100034 100043 100059 100080
          100106 100138 100175 100217 100261 100308 100356 100401 100441 100474 100498 100510
          99894 99895.9 99900.3 99908.4 99925.5 99940.3 99955 99971 99991.2 100006 100023 100043
          100067 100095 100128 100164 100202 100243 100283 100321 100355 100382 100402 100412
          99870.6 99872.9 99877.9 99886.5 99899.4 99913 99927.1 99942.2 99958.6 99974.2 99990.9 100010
          100033 100060 100090 100124 100159 100196 100233 100268 100298 100323 100341 100350
        </DataArray>
        <DataArray type="Float32" Name="p_n" NumberOfComponents="1" format="ascii">
          100000 100031 100048 100056 100004 100001 100001 100017 100565 100598 100665 100770
          100918 101117 101378 101714 102140 102677 103351 104193 105245 106548 110393 200000
          100000 100018 100030 100036 100002 100000 100000 100015 100533 100565 100631 100733
          100877 101071 101324 101649 102060 102577 103222 104024 105023 106263 109633 200000
          100000 100010 100018 100022 100001 100000 100000 100014 100497 100528 100590 100687
          100824 101008 101247 101551 101935 102412 103002 103727 104618 105714 108698 200000
          100000 100005 100009 100012 100001 100000 100000 100012 100457 100486 100544 100635
          100762 100931 101150 101427 101772 102196 102711 103330 104067 104940 107079 200000
          99998.1 100000 100002 100004 100000 100000 100000 100011 100415 100442 100495 100577
          100692 100844 101040 101284 101585 101949 102380 102880 103442 104040 104590 105281
          99994 99994.8 99995.9 99996.6 100000 100000 100000 100010 100371 100395 100442 100515
          100617 100751 100921 101132 101387 101689 102038 102427 102842 103245 103566 103680
          99988.5 99988.9 99989.5 99989.8 99999.8 100000 100000 100008 100326 100347 100389 100453
          100541 100656 100801 100978 101190 101435 101710 102008 102311 102590 102802 102903
          99982.1 99982.3 99982.5 99982.8 99999.5 100000 100000 100007 100282 100299 100335 100390
          100465 100563 100684 100830 101002 101197 101412 101637 101859 102056 102203 102279
          99974.5 99974.6 99974.8 99975 99999.3 100000 100000 100006 100237 100253 100283 100329
          100393 100474 100573 100692 100830 100984 101149 101318 101481 101622 101727 101782
          99965.7 99965.9 99966.1 99966.2 99999 100000 100000 100004 100194 100207 100233 100272
          100324 100391 100472 100568 100677 100797 100923 101051 101171 101273 101348 101388
          99955.5 99955.8 99956.1 99956.4 99998.6 100000 100000 100003 100153 100164 100185 100217
          100261 100316 100381 100458 100544 100637 100734 100830 100919 100994 101049 101077
          99943.7 99944.1 99944.7 99945.2 99998.1 100000 100000 100002 100112 100122 100140 100167
          100203 100248 100302 100363 100431 100504 100579 100652 100718 100774 100814 100835
          99929.8 99930.5 99931.8 99933 99997.6 99999.9 100000 100001 100073 100082 100098 100122
          100152 100189 100233 100283 100337 100395 100453 100510 100561 100603 100633 100649
          99913.4 99914.7 99917.1 99920.1 99995 99998.3 99998.7 99998.5 100034 100043 100059 100080
          100106 100138 100175 100217 100261 100308 100356 100401 100441 100474 100498 100510
          99894 99895.9 99900.3 99908.4 99925.5 99940.3 99955 99971 99991.2 100006 100023 100043
          100067 100095 100128 100164 100202 100243 100283 100321 100355 100382 100402 100412
          99870.6 99872.9 99877.9 99886.5 99899.4 99913 99927.1 99942.2 99958.6 99974.2 99990.9 100010
          100033 100060 100090 100124 100159 100196 100233 100268 100298 100323 100341 100350
        </DataArray>
        <DataArray type="Float32" Name="rho_w" NumberOfComponents="1" format="ascii">
          997.048 997.048 997.048 997.048 997.048 997.048 997.048 997.048 997.048 997.048 997.048 997.048
          997.048 997.048 997.048 997.048 997.049 997.049 997.049 997.05 997.05 997.051 997.052 997.093
          997.048 997.048 997.048 997.048 997.048 997.048 997.048 997.048 997.048 997.048 997.048 997.048
          997.048 997.048 997.048 997.048 997.049 997.049 997.049 997.049 997.05 997.05 997.052 997.093
          997.048 997.048 997.048 997.048 997.048 997.048 997.048 997.048 997.048 997.048 997.048 997.048
          997.048 997.048 997.048 997.048 997.049 997.049 997.049 997.049 997.05 997.05 997.052 997.093
          997.048 997.048 997.048 997.048 997.048 997.048 997.048 997.048 997.048 997.048 997.048 997.048
          997.048 997.048 997.048 997.048 997.048 997.049 997.049 997.049 997.049 997.05 997.051 997.093
          997.048 997.048 997.048 997.048 997.048 997.048 997.048 997.048 997.048 997.048 997.048 997.048
          997.048 997.048 997.048 997.048 997.048 997.049 997.049 997.049 997.049 997.049 997.05 997.05
          997.048 997.048 997.048 997.048 997.048 997.048 997.048 997.048 997.048 997.048 997.048 997.048
          997.048 997.048 997.048 997.048 997.048 997.048 997.049 997.049 997.049 997.049 997.049 997.049
          997.048 997.048 997.048 997.048 997.048 997.048 997.048 997.048 997.048 997.048 997.048 997.048
          997.048 997.048 997.048 997.048 997.048 997.048 997.048 997.049 997.049 997.049 997.049 997.049
          997.048 997.048 997.048 997.048 997.048 997.048 997.048 997.048 997.048 997.048 997.048 997.048
          997.048 997.048 997.048 997.048 997.048 997.048 997.048 997.048 997.049 997.049 997.049 997.049
          997.048 997.048 997.048 997.048 997.048 997.048 997.048 997.048 997.048 997.048 997.048 997.048
          997.048 997.048 997.048 997.048 997.048 997.048 997.048 997.048 997.048 997.048 997.048 997.048
          997.048 997.048 997.048 997.048 997.048 997.048 997.048 997.048 997.048 997.048 997.048 997.048
          997.048 997.048 997.048 997.048 997.048 997.048 997.048 997.048 997.048 997.048 997.048 997.048
          997.048 997.048 997.048 997.048 997.048 997.048 997.048 997.048 997.048 997.048 997.048 997.048
          997.048 997.048 997.048 997.048 997.048 997.048 997.048 997.048 997.048 997.048 997.048 997.048
          997.048 997.048 997.048 997.048 997.048 997.048 997.048 997.048 997.048 997.048 997.048 997.048
          997.048 997.048 997.048 997.048 997.048 997.048 997.048 997.048 997.048 997.048 997.048 997.048
          997.048 997.048 997.048 997.048 997.048 997.048 997.048 997.048 997.048 997.048 997.048 997.048
          997.048 997.048 997.048 997.048 997.048 997.048 997.048 997.048 997.048 997.048 997.048 997.048
          997.048 997.048 997.048 997.048 997.048 997.048 997.048 997.048 997.048 997.048 997.048 997.048
          997.048 997.048 997.048 997.048 997.048 997.048 997.048 997.048 997.048 997.048 997.048 997.048
          997.048 997.048 997.048 997.048 997.048 997.048 997.048 997.048 997.048 997.048 997.048 997.048
          997.048 997.048 997.048 997.048 997.048 997.048 997.048 997.048 997.048 997.048 997.048 997.048
          997.048 997.048 997.048 997.048 997.048 997.048 997.048 997.048 997.048 997.048 997.048 997.048
          997.048 997.048 997.048 997.048 997.048 997.048 997.048 997.048 997.048 997.048 997.048 997.048
        </DataArray>
        <DataArray type="Float32" Name="rho_n" NumberOfComponents="1" format="ascii">
          1.12601 1.12636 1.12656 1.12664 1.12606 1.12602 1.12602 1.12621 1.13238 1.13275 1.1335 1.13468
          1.13635 1.13859 1.14153 1.14531 1.15011 1.15615 1.16369 1.17275 1.18204 1.19126 1.2347 1.45345
          1.12601 1.12621 1.12635 1.12642 1.12603 1.12601 1.12602 1.12618 1.13201 1.13238 1.13311 1.13426
          1.13589 1.13807 1.14092 1.14458 1.14921 1.15503 1.16224 1.17089 1.17975 1.18804 1.22611 1.45345
          1.12601 1.12613 1.12621 1.12626 1.12603 1.12601 1.12602 1.12617 1.13161 1.13196 1.13266 1.13375
          1.1353 1.13736 1.14005 1.14348 1.1478 1.15317 1.15978 1.16761 1.17545 1.18183 1.21556 1.45345
          1.12601 1.12607 1.12612 1.12614 1.12602 1.12601 1.12601 1.12615 1.13116 1.13149 1.13214 1.13316
          1.13459 1.1365 1.13896 1.14208 1.14597 1.15074 1.15652 1.16325 1.16972 1.17309 1.19726 1.45345
          1.12599 1.12601 1.12604 1.12605 1.12602 1.12601 1.12601 1.12614 1.13069 1.13098 1.13158 1.13251
          1.1338 1.13552 1.13772 1.14047 1.14386 1.14795 1.1528 1.15839 1.16429 1.16865 1.16913 1.17694
          1.12595 1.12596 1.12597 1.12598 1.12601 1.12601 1.12601 1.12612 1.13019 1.13046 1.13099 1.13182
          1.13296 1.13447 1.13639 1.13876 1.14163 1.14503 1.14896 1.15334 1.15795 1.16209 1.16416 1.16526
          1.12588 1.12589 1.12589 1.1259 1.12601 1.12601 1.12601 1.12611 1.12969 1.12992 1.13039 1.13111
          1.1321 1.1334 1.13503 1.13703 1.13941 1.14217 1.14527 1.14862 1.15203 1.15513 1.15732 1.1584
          1.12581 1.12581 1.12582 1.12582 1.12601 1.12601 1.12601 1.12609 1.12918 1.12938 1.12979 1.13041
          1.13125 1.13235 1.13372 1.13536 1.13729 1.13949 1.14191 1.14445 1.14694 1.14916 1.1508 1.15165
          1.12573 1.12573 1.12573 1.12573 1.12601 1.12601 1.12601 1.12608 1.12869 1.12886 1.1292 1.12972
          1.13043 1.13135 1.13247 1.13381 1.13536 1.13709 1.13895 1.14086 1.14269 1.14428 1.14546 1.14608
          1.12563 1.12563 1.12563 1.12563 1.126 1.12601 1.12601 1.12606 1.1282 1.12835 1.12863 1.12907
          1.12966 1.13041 1.13133 1.13241 1.13363 1.13498 1.13641 1.13785 1.1392 1.14035 1.1412 1.14164
          1.12551 1.12552 1.12552 1.12552 1.126 1.12601 1.12601 1.12605 1.12773 1.12785 1.1281 1.12846
          1.12895 1.12957 1.13031 1.13117 1.13214 1.13319 1.13428 1.13536 1.13636 1.13721 1.13782 1.13815
          1.12538 1.12538 1.12539 1.1254 1.12599 1.12601 1.12601 1.12604 1.12728 1.12738 1.12759 1.1279
          1.1283 1.12881 1.12941 1.1301 1.13087 1.13169 1.13253 1.13335 1.1341 1.13473 1.13518 1.13542
          1.12522 1.12523 1.12524 1.12526 1.12599 1.12601 1.12601 1.12602 1.12684 1.12693 1.12712 1.12738
          1.12772 1.12814 1.12864 1.1292 1.12981 1.13046 1.13112 1.13175 1.13233 1.1328 1.13314 1.13332
          1.12504 1.12505 1.12508 1.12511 1.12596 1.12599 1.126 1.126 1.12639 1.1265 1.12668 1.12691
          1.12721 1.12757 1.12798 1.12845 1.12896 1.12949 1.13002 1.13053 1.13098 1.13135 1.13162 1.13176
          1.12482 1.12484 1.12489 1.12498 1.12517 1.12534 1.12551 1.12569 1.12591 1.12608 1.12627 1.12649
          1.12677 1.12708 1.12745 1.12786 1.12829 1.12875 1.1292 1.12963 1.13001 1.13032 1.13054 1.13065
          1.12456 1.12458 1.12464 1.12473 1.12488 1.12503 1.12519 1.12536 1.12555 1.12572 1.12591 1.12613
          1.12639 1.12669 1.12703 1.1274 1.12781 1.12822 1.12864 1.12903 1.12937 1.12965 1.12985 1.12995
        </DataArray>
        <DataArray type="Float32" Name="lambda_w" NumberOfComponents="1" format="ascii">
          0 0 0 0 0 0 0 0 0 0 0 0
          0 0 0 0 0 0 0 0 0 0.404348 672.691 1123.58
          0 0 0 0 0 0 0 0 0 0 0 0
          0 0 0 0 0 0 0 0 0 0.283675 622.336 1123.58
          0 0 0 0 0 0 0 0 0 0 0 0
          0 0 0 0 0 0 0 0 0 0.229734 624.059 1123.58
          0 0 0 0 0 0 0 0 0 0 0 0
          0 0 0 0 0 0 0 0 0 0.114344 587.136 1123.58
          0 0 0 0 0 0 0 0 0 0 0 0
          0 0 0 0 0 0 0 0 0 0 0.00671216 476.257
          0 0 0 0 0 0 0 0 0 0 0 0
          0 0 0 0 0 0 0 0 0 0 0 0
          0 0 0 0 0 0 0 0 0 0 0 0
          0 0 0 0 0 0 0 0 0 0 0 0
          0 0 0 0 0 0 0 0 0 0 0 0
          0 0 0 0 0 0 0 0 0 0 0 0
          0 0 0 0 0 0 0 0 0 0 0 0
          0 0 0 0 0 0 0 0 0 0 0 0
          0 0 0 0 0 0 0 0 0 0 0 0
          0 0 0 0 0 0 0 0 0 0 0 0
          0 0 0 0 0 0 0 0 0 0 0 0
          0 0 0 0 0 0 0 0 0 0 0 0
          0 0 0 0 0 0 0 0 0 0 0 0
          0 0 0 0 0 0 0 0 0 0 0 0
          0 0 0 0 0 0 0 0 0 0 0 0
          0 0 0 0 0 0 0 0 0 0 0 0
          0 0 0 0 0 0 0 0 0 0 0 0
          0 0 0 0 0 0 0 0 0 0 0 0
          0 0 0 0 0 0 0 0 0 0 0 0
          0 0 0 0 0 0 0 0 0 0 0 0
          0 0 0 0 0 0 0 0 0 0 0 0
          0 0 0 0 0 0 0 0 0 0 0 0
        </DataArray>
        <DataArray type="Float32" Name="lambda_n" NumberOfComponents="1" format="ascii">
          56746.7 56746.7 56746.7 56746.7 56746.7 56746.7 56746.7 56746.7 56746.7 56746.7 56746.7 56746.7
          56746.7 56746.7 56746.7 56746.7 56746.7 56746.7 56746.7 56746.7 56746.7 56726.3 22772 0
          56746.7 56746.7 56746.7 56746.7 56746.7 56746.7 56746.7 56746.7 56746.7 56746.7 56746.7 56746.7
          56746.7 56746.7 56746.7 56746.7 56746.7 56746.7 56746.7 56746.7 56746.7 56732.4 25315.2 0
          56746.7 56746.7 56746.7 56746.7 56746.7 56746.7 56746.7 56746.7 56746.7 56746.7 56746.7 56746.7
          56746.7 56746.7 56746.7 56746.7 56746.7 56746.7 56746.7 56746.7 56746.7 56735.1 25228.1 0
          56746.7 56746.7 56746.7 56746.7 56746.7 56746.7 56746.7 56746.7 56746.7 56746.7 56746.7 56746.7
          56746.7 56746.7 56746.7 56746.7 56746.7 56746.7 56746.7 56746.7 56746.7 56741 27092.9 0
          56746.7 56746.7 56746.7 56746.7 56746.7 56746.7 56746.7 56746.7 56746.7 56746.7 56746.7 56746.7
          56746.7 56746.7 56746.7 56746.7 56746.7 56746.7 56746.7 56746.7 56746.7 56746.7 56746.4 32693
          56746.7 56746.7 56746.7 56746.7 56746.7 56746.7 56746.7 56746.7 56746.7 56746.7 56746.7 56746.7
          56746.7 56746.7 56746.7 56746.7 56746.7 56746.7 56746.7 56746.7 56746.7 56746.7 56746.7 56746.7
          56746.7 56746.7 56746.7 56746.7 56746.7 56746.7 56746.7 56746.7 56746.7 56746.7 56746.7 56746.7
          56746.7 56746.7 56746.7 56746.7 56746.7 56746.7 56746.7 56746.7 56746.7 56746.7 56746.7 56746.7
          56746.7 56746.7 56746.7 56746.7 56746.7 56746.7 56746.7 56746.7 56746.7 56746.7 56746.7 56746.7
          56746.7 56746.7 56746.7 56746.7 56746.7 56746.7 56746.7 56746.7 56746.7 56746.7 56746.7 56746.7
          56746.7 56746.7 56746.7 56746.7 56746.7 56746.7 56746.7 56746.7 56746.7 56746.7 56746.7 56746.7
          56746.7 56746.7 56746.7 56746.7 56746.7 56746.7 56746.7 56746.7 56746.7 56746.7 56746.7 56746.7
          56746.7 56746.7 56746.7 56746.7 56746.7 56746.7 56746.7 56746.7 56746.7 56746.7 56746.7 56746.7
          56746.7 56746.7 56746.7 56746.7 56746.7 56746.7 56746.7 56746.7 56746.7 56746.7 56746.7 56746.7
          56746.7 56746.7 56746.7 56746.7 56746.7 56746.7 56746.7 56746.7 56746.7 56746.7 56746.7 56746.7
          56746.7 56746.7 56746.7 56746.7 56746.7 56746.7 56746.7 56746.7 56746.7 56746.7 56746.7 56746.7
          56746.7 56746.7 56746.7 56746.7 56746.7 56746.7 56746.7 56746.7 56746.7 56746.7 56746.7 56746.7
          56746.7 56746.7 56746.7 56746.7 56746.7 56746.7 56746.7 56746.7 56746.7 56746.7 56746.7 56746.7
          56746.7 56746.7 56746.7 56746.7 56746.7 56746.7 56746.7 56746.7 56746.7 56746.7 56746.7 56746.7
          56746.7 56746.7 56746.7 56746.7 56746.7 56746.7 56746.7 56746.7 56746.7 56746.7 56746.7 56746.7
          56746.7 56746.7 56746.7 56746.7 56746.7 56746.7 56746.7 56746.7 56746.7 56746.7 56746.7 56746.7
          56746.7 56746.7 56746.7 56746.7 56746.7 56746.7 56746.7 56746.7 56746.7 56746.7 56746.7 56746.7
          56746.7 56746.7 56746.7 56746.7 56746.7 56746.7 56746.7 56746.7 56746.7 56746.7 56746.7 56746.7
          56746.7 56746.7 56746.7 56746.7 56746.7 56746.7 56746.7 56746.7 56746.7 56746.7 56746.7 56746.7
          56746.7 56746.7 56746.7 56746.7 56746.7 56746.7 56746.7 56746.7 56746.7 56746.7 56746.7 56746.7
          56746.7 56746.7 56746.7 56746.7 56746.7 56746.7 56746.7 56746.7 56746.7 56746.7 56746.7 56746.7
        </DataArray>
        <DataArray type="Float32" Name="porosity" NumberOfComponents="1" format="ascii">
          0.3 0.3 0.3 0.3 0.3 0.3 0.3 0.3 0.3 0.3 0.3 0.3
          0.3 0.3 0.3 0.3 0.3 0.3 0.3 0.3 0.3 0.3 0.3 0.3
          0.3 0.3 0.3 0.3 0.3 0.3 0.3 0.3 0.3 0.3 0.3 0.3
          0.3 0.3 0.3 0.3 0.3 0.3 0.3 0.3 0.3 0.3 0.3 0.3
          0.3 0.3 0.3 0.3 0.3 0.3 0.3 0.3 0.3 0.3 0.3 0.3
          0.3 0.3 0.3 0.3 0.3 0.3 0.3 0.3 0.3 0.3 0.3 0.3
          0.3 0.3 0.3 0.3 0.3 0.3 0.3 0.3 0.3 0.3 0.3 0.3
          0.3 0.3 0.3 0.3 0.3 0.3 0.3 0.3 0.3 0.3 0.3 0.3
          0.3 0.3 0.3 0.3 0.3 0.3 0.3 0.3 0.3 0.3 0.3 0.3
          0.3 0.3 0.3 0.3 0.3 0.3 0.3 0.3 0.3 0.3 0.3 0.3
          0.3 0.3 0.3 0.3 0.3 0.3 0.3 0.3 0.3 0.3 0.3 0.3
          0.3 0.3 0.3 0.3 0.3 0.3 0.3 0.3 0.3 0.3 0.3 0.3
          0.3 0.3 0.3 0.3 0.3 0.3 0.3 0.3 0.3 0.3 0.3 0.3
          0.3 0.3 0.3 0.3 0.3 0.3 0.3 0.3 0.3 0.3 0.3 0.3
          0.3 0.3 0.3 0.3 0.3 0.3 0.3 0.3 0.3 0.3 0.3 0.3
          0.3 0.3 0.3 0.3 0.3 0.3 0.3 0.3 0.3 0.3 0.3 0.3
          0.3 0.3 0.3 0.3 0.3 0.3 0.3 0.3 0.3 0.3 0.3 0.3
          0.3 0.3 0.3 0.3 0.3 0.3 0.3 0.3 0.3 0.3 0.3 0.3
          0.3 0.3 0.3 0.3 0.3 0.3 0.3 0.3 0.3 0.3 0.3 0.3
          0.3 0.3 0.3 0.3 0.3 0.3 0.3 0.3 0.3 0.3 0.3 0.3
          0.3 0.3 0.3 0.3 0.3 0.3 0.3 0.3 0.3 0.3 0.3 0.3
          0.3 0.3 0.3 0.3 0.3 0.3 0.3 0.3 0.3 0.3 0.3 0.3
          0.3 0.3 0.3 0.3 0.3 0.3 0.3 0.3 0.3 0.3 0.3 0.3
          0.3 0.3 0.3 0.3 0.3 0.3 0.3 0.3 0.3 0.3 0.3 0.3
          0.3 0.3 0.3 0.3 0.3 0.3 0.3 0.3 0.3 0.3 0.3 0.3
          0.3 0.3 0.3 0.3 0.3 0.3 0.3 0.3 0.3 0.3 0.3 0.3
          0.3 0.3 0.3 0.3 0.3 0.3 0.3 0.3 0.3 0.3 0.3 0.3
          0.3 0.3 0.3 0.3 0.3 0.3 0.3 0.3 0.3 0.3 0.3 0.3
          0.3 0.3 0.3 0.3 0.3 0.3 0.3 0.3 0.3 0.3 0.3 0.3
          0.3 0.3 0.3 0.3 0.3 0.3 0.3 0.3 0.3 0.3 0.3 0.3
          0.3 0.3 0.3 0.3 0.3 0.3 0.3 0.3 0.3 0.3 0.3 0.3
          0.3 0.3 0.3 0.3 0.3 0.3 0.3 0.3 0.3 0.3 0.3 0.3
        </DataArray>
        <DataArray type="Float32" Name="x_w^H2O" NumberOfComponents="1" format="ascii">
          0.315483 0.315581 0.315634 0.315658 0.315494 0.315485 0.315486 0.315537 0.317265 0.317369 0.317581 0.317911
          0.318378 0.319007 0.31983 0.32089 0.322253 0.324253 0.330141 0.366382 0.569863 0.999988 0.999988 1
          0.315483 0.315539 0.315577 0.315595 0.315488 0.315483 0.315483 0.31553 0.317164 0.317266 0.317472 0.317794
          0.318249 0.318861 0.31966 0.320686 0.321999 0.323889 0.329246 0.362399 0.552233 0.999988 0.999988 1
          0.315483 0.315514 0.315538 0.315551 0.315486 0.315483 0.315483 0.315526 0.31705 0.317147 0.317344 0.317651
          0.318083 0.318663 0.319416 0.320378 0.321597 0.323294 0.327759 0.355986 0.530204 0.999988 0.999988 1
          0.315483 0.315498 0.315511 0.315519 0.315485 0.315483 0.315483 0.315521 0.316926 0.317016 0.3172 0.317485
          0.317886 0.31842 0.319111 0.319985 0.321079 0.322527 0.325825 0.346613 0.491802 0.999988 0.999988 1
          0.315477 0.315483 0.31549 0.315494 0.315484 0.315483 0.315483 0.315517 0.316792 0.316875 0.317043 0.317302
          0.317665 0.318146 0.318762 0.319534 0.320484 0.321649 0.323307 0.328621 0.363891 0.551536 0.999988 0.999988
          0.315464 0.315466 0.31547 0.315472 0.315483 0.315483 0.315483 0.315513 0.316654 0.316728 0.316878 0.317109
          0.31743 0.317852 0.318389 0.319054 0.319859 0.320813 0.321945 0.323611 0.329408 0.362132 0.4843 0.498191
          0.315446 0.315448 0.315449 0.315451 0.315482 0.315483 0.315483 0.315508 0.316512 0.316578 0.316709 0.31691
          0.317189 0.317553 0.31801 0.318569 0.319236 0.320009 0.320881 0.321856 0.323216 0.32736 0.343345 0.348081
          0.315426 0.315427 0.315428 0.315428 0.315481 0.315483 0.315483 0.315504 0.316371 0.316427 0.31654 0.316713
          0.316951 0.317258 0.31764 0.318102 0.318643 0.319259 0.319937 0.320649 0.321375 0.322233 0.323926 0.324711
          0.315402 0.315403 0.315403 0.315404 0.31548 0.315483 0.315483 0.3155 0.316231 0.316279 0.316375 0.316522
          0.316721 0.316977 0.317292 0.317667 0.318101 0.318585 0.319107 0.319642 0.320156 0.320615 0.321015 0.321229
          0.315374 0.315375 0.315376 0.315376 0.315479 0.315483 0.315483 0.315496 0.316095 0.316136 0.316217 0.316339
          0.316505 0.316716 0.316972 0.317274 0.317618 0.317996 0.318396 0.318798 0.319176 0.3195 0.31974 0.319867
          0.315342 0.315343 0.315344 0.315345 0.315478 0.315483 0.315483 0.315493 0.315964 0.315998 0.316067 0.316169
          0.316306 0.316478 0.316686 0.316927 0.317198 0.317493 0.317799 0.318102 0.318383 0.318619 0.318792 0.318882
          0.315305 0.315306 0.315308 0.31531 0.315477 0.315483 0.315483 0.315489 0.315837 0.315867 0.315925 0.316011
          0.316124 0.316266 0.316434 0.316628 0.316842 0.317072 0.317308 0.317538 0.317749 0.317924 0.318051 0.318117
          0.315261 0.315263 0.315267 0.315271 0.315475 0.315482 0.315483 0.315485 0.315713 0.315741 0.315792 0.315866
          0.315962 0.316079 0.316218 0.316375 0.316547 0.316729 0.316913 0.317091 0.317252 0.317385 0.317481 0.31753
          0.31521 0.315214 0.315221 0.31523 0.315467 0.315477 0.315478 0.315478 0.315588 0.315619 0.315668 0.315735
          0.315818 0.315919 0.316035 0.316166 0.316308 0.316456 0.316605 0.316747 0.316874 0.316979 0.317053 0.317092
          0.315148 0.315154 0.315168 0.315194 0.315248 0.315294 0.31534 0.315391 0.315455 0.315503 0.315555 0.315618
          0.315693 0.315783 0.315885 0.315999 0.316121 0.316248 0.316375 0.316495 0.316601 0.316688 0.31675 0.316782
          0.315074 0.315082 0.315097 0.315124 0.315165 0.315208 0.315253 0.3153 0.315352 0.315401 0.315454 0.315515
          0.315587 0.315671 0.315767 0.315872 0.315985 0.316102 0.316218 0.316327 0.316423 0.316502 0.316558 0.316587
        </DataArray>
        <DataArray type="Float32" Name="x_w^N2" NumberOfComponents="1" format="ascii">
          1.14721e-05 1.14757e-05 1.14776e-05 1.14785e-05 1.14725e-05 1.14722e-05 1.14722e-05 1.14741e-05 1.15369e-05 1.15407e-05 1.15484e-05 1.15604e-05
          1.15774e-05 1.16003e-05 1.16302e-05 1.16687e-05 1.17176e-05 1.17791e-05 1.1855e-05 1.19393e-05 1.19865e-05 1.19795e-05 1.2425e-05 0
          1.14721e-05 1.14741e-05 1.14755e-05 1.14762e-05 1.14723e-05 1.14721e-05 1.14721e-05 1.14738e-05 1.15332e-05 1.1537e-05 1.15445e-05 1.15562e-05
          1.15727e-05 1.1595e-05 1.1624e-05 1.16613e-05 1.17085e-05 1.17676e-05 1.18404e-05 1.19212e-05 1.19672e-05 1.19464e-05 1.23369e-05 0
          1.14721e-05 1.14733e-05 1.14741e-05 1.14746e-05 1.14722e-05 1.14721e-05 1.14721e-05 1.14737e-05 1.15291e-05 1.15326e-05 1.15398e-05 1.1551e-05
          1.15667e-05 1.15877e-05 1.16151e-05 1.16501e-05 1.16941e-05 1.17487e-05 1.18154e-05 1.18891e-05 1.19284e-05 1.18828e-05 1.22286e-05 0
          1.14721e-05 1.14727e-05 1.14732e-05 1.14734e-05 1.14722e-05 1.14721e-05 1.14721e-05 1.14735e-05 1.15246e-05 1.15279e-05 1.15346e-05 1.15449e-05
          1.15595e-05 1.15789e-05 1.1604e-05 1.16358e-05 1.16754e-05 1.1724e-05 1.17825e-05 1.18466e-05 1.18787e-05 1.17931e-05 1.2041e-05 0
          1.14719e-05 1.14721e-05 1.14724e-05 1.14725e-05 1.14721e-05 1.14721e-05 1.14721e-05 1.14734e-05 1.15197e-05 1.15228e-05 1.15288e-05 1.15383e-05
          1.15515e-05 1.1569e-05 1.15914e-05 1.16194e-05 1.1654e-05 1.16956e-05 1.1745e-05 1.1801e-05 1.18532e-05 1.18536e-05 1.17526e-05 1.18327e-05
          1.14714e-05 1.14715e-05 1.14716e-05 1.14717e-05 1.14721e-05 1.14721e-05 1.14721e-05 1.14732e-05 1.15147e-05 1.15174e-05 1.15228e-05 1.15312e-05
          1.15429e-05 1.15583e-05 1.15778e-05 1.1602e-05 1.16312e-05 1.16659e-05 1.17059e-05 1.17504e-05 1.17963e-05 1.18311e-05 1.18234e-05 1.18314e-05
          1.14708e-05 1.14708e-05 1.14709e-05 1.14709e-05 1.14721e-05 1.14721e-05 1.14721e-05 1.1473e-05 1.15096e-05 1.15119e-05 1.15167e-05 1.1524e-05
          1.15342e-05 1.15474e-05 1.1564e-05 1.15844e-05 1.16086e-05 1.16367e-05 1.16683e-05 1.17025e-05 1.17371e-05 1.17679e-05 1.17866e-05 1.17965e-05
          1.147e-05 1.14701e-05 1.14701e-05 1.14701e-05 1.14721e-05 1.14721e-05 1.14721e-05 1.14729e-05 1.15044e-05 1.15065e-05 1.15106e-05 1.15169e-05
          1.15255e-05 1.15367e-05 1.15506e-05 1.15674e-05 1.1587e-05 1.16095e-05 1.16341e-05 1.16599e-05 1.16853e-05 1.17078e-05 1.17243e-05 1.17328e-05
          1.14692e-05 1.14692e-05 1.14692e-05 1.14692e-05 1.1472e-05 1.14721e-05 1.14721e-05 1.14728e-05 1.14993e-05 1.15011e-05 1.15046e-05 1.15099e-05
          1.15171e-05 1.15264e-05 1.15379e-05 1.15515e-05 1.15673e-05 1.15849e-05 1.16039e-05 1.16234e-05 1.1642e-05 1.16582e-05 1.16702e-05 1.16765e-05
          1.14682e-05 1.14682e-05 1.14682e-05 1.14682e-05 1.1472e-05 1.14721e-05 1.14721e-05 1.14726e-05 1.14944e-05 1.14959e-05 1.14988e-05 1.15033e-05
          1.15093e-05 1.15169e-05 1.15263e-05 1.15373e-05 1.15498e-05 1.15635e-05 1.1578e-05 1.15927e-05 1.16064e-05 1.16182e-05 1.16268e-05 1.16313e-05
          1.1467e-05 1.1467e-05 1.14671e-05 1.14671e-05 1.14719e-05 1.14721e-05 1.14721e-05 1.14725e-05 1.14896e-05 1.14909e-05 1.14933e-05 1.14971e-05
          1.1502e-05 1.15083e-05 1.15159e-05 1.15246e-05 1.15345e-05 1.15452e-05 1.15563e-05 1.15674e-05 1.15776e-05 1.15862e-05 1.15924e-05 1.15957e-05