<?xml version="1.0"?>
<VTKFile type="UnstructuredGrid" version="0.1" byte_order="LittleEndian">
  <UnstructuredGrid>
    <Piece NumberOfCells="384" NumberOfPoints="425">
      <CellData Scalars="S_w">
        <DataArray type="Float32" Name="S_w" NumberOfComponents="1" format="ascii">
          0 0 0 0 0 0 0 0 0 0 0 0
          0 0 0 0 0 0 0 0 0 0.00604961 0.593706 1
          0 0 0 0 0 0 0 0 0 0 0 0
          0 0 0 0 0 0 0 0 0 0.00511037 0.551482 1
          0 0 0 0 0 0 0 0 0 0 0 0
          0 0 0 0 0 0 0 0 0 0.00461441 0.552951 1
          0 0 0 0 0 0 0 0 0 0 0 0
          0 0 0 0 0 0 0 0 0 0.00328423 0.521924 1
          0 0 0 0 0 0 0 0 0 0 0 0
          0 0 0 0 0 0 0 0 0 0 0.000792044 0.427996
          0 0 0 0 0 0 0 0 0 0 0 0
          0 0 0 0 0 0 0 0 0 0 0 0
          0 0 0 0 0 0 0 0 0 0 0 0
          0 0 0 0 0 0 0 0 0 0 0 0
          0 0 0 0 0 0 0 0 0 0 0 0
          0 0 0 0 0 0 0 0 0 0 0 0
          0 0 0 0 0 0 0 0 0 0 0 0
          0 0 0 0 0 0 0 0 0 0 0 0
          0 0 0 0 0 0 0 0 0 0 0 0
          0 0 0 0 0 0 0 0 0 0 0 0
          0 0 0 0 0 0 0 0 0 0 0 0
          0 0 0 0 0 0 0 0 0 0 0 0
          0 0 0 0 0 0 0 0 0 0 0 0
          0 0 0 0 0 0 0 0 0 0 0 0
          0 0 0 0 0 0 0 0 0 0 0 0
          0 0 0 0 0 0 0 0 0 0 0 0
          0 0 0 0 0 0 0 0 0 0 0 0
          0 0 0 0 0 0 0 0 0 0 0 0
          0 0 0 0 0 0 0 0 0 0 0 0
          0 0 0 0 0 0 0 0 0 0 0 0
          0 0 0 0 0 0 0 0 0 0 0 0
          0 0 0 0 0 0 0 0 0 0 0 0
        </DataArray>
        <DataArray type="Float32" Name="S_n" NumberOfComponents="1" format="ascii">
          1 1 1 1 1 1 1 1 1 1 1 1
          1 1 1 1 1 1 1 1 1 0.99395 0.406294 0
          1 1 1 1 1 1 1 1 1 1 1 1
          1 1 1 1 1 1 1 1 1 0.99489 0.448518 0
          1 1 1 1 1 1 1 1 1 1 1 1
          1 1 1 1 1 1 1 1 1 0.995386 0.447049 0
          1 1 1 1 1 1 1 1 1 1 1 1
          1 1 1 1 1 1 1 1 1 0.996716 0.478076 0
          1 1 1 1 1 1 1 1 1 1 1 1
          1 1 1 1 1 1 1 1 1 1 0.999208 0.572004
          1 1 1 1 1 1 1 1 1 1 1 1
          1 1 1 1 1 1 1 1 1 1 1 1
          1 1 1 1 1 1 1 1 1 1 1 1
          1 1 1 1 1 1 1 1 1 1 1 1
          1 1 1 1 1 1 1 1 1 1 1 1
          1 1 1 1 1 1 1 1 1 1 1 1
          1 1 1 1 1 1 1 1 1 1 1 1
          1 1 1 1 1 1 1 1 1 1 1 1
          1 1 1 1 1 1 1 1 1 1 1 1
          1 1 1 1 1 1 1 1 1 1 1 1
          1 1 1 1 1 1 1 1 1 1 1 1
          1 1 1 1 1 1 1 1 1 1 1 1
          1 1 1 1 1 1 1 1 1 1 1 1
          1 1 1 1 1 1 1 1 1 1 1 1
          1 1 1 1 1 1 1 1 1 1 1 1
          1 1 1 1 1 1 1 1 1 1 1 1
          1 1 1 1 1 1 1 1 1 1 1 1
          1 1 1 1 1 1 1 1 1 1 1 1
          1 1 1 1 1 1 1 1 1 1 1 1
          1 1 1 1 1 1 1 1 1 1 1 1
          1 1 1 1 1 1 1 1 1 1 1 1
          1 1 1 1 1 1 1 1 1 1 1 1
        </DataArray>
        <DataArray type="Float32" Name="p_w" NumberOfComponents="1" format="ascii">
          100000 100031 100048 100056 100004 100001 100001 100017 100563 100596 100663 100769
          100917 101118 101380 101716 102144 102683 103358 104202 105256 106563 110424 200000
          100000 100018 100030 100036 100002 100000 100000 100015 100531 100563 100629 100732
          100877 101071 101326 101652 102064 102582 103228 104032 105033 106277 109660 200000
          100000 100010 100018 100022 100001 100000 100000 100013 100495 100526 100588 100686
          100824 101008 101248 101554 101938 102417 103008 103735 104627 105726 108723 200000
          100000 100005 100009 100012 100001 100000 100000 100012 100455 100484 100542 100633
          100761 100931 101151 101429 101775 102201 102717 103337 104076 104951 107098 200000
          99998.1 100000 100002 100004 100000 100000 100000 100011 100413 100439 100493 100575
          100691 100844 101040 101286 101588 101952 102384 102886 103449 104049 104600 105294
          99994 99994.8 99995.9 99996.6 100000 100000 100000 100009 100369 100392 100440 100514
          100616 100751 100922 101133 101389 101692 102042 102433 102848 103252 103574 103688
          99988.5 99988.9 99989.4 99989.8 99999.8 100000 100000 100008 100324 100345 100386 100451
          100539 100655 100801 100979 101191 101437 101713 102012 102316 102595 102808 102909
          99982 99982.2 99982.5 99982.7 99999.5 100000 100000 100007 100279 100297 100333 100388
          100464 100561 100683 100830 101003 101199 101414 101640 101862 102060 102208 102284
          99974.4 99974.5 99974.7 99974.9 99999.3 100000 100000 100005 100235 100250 100280 100327
          100391 100472 100572 100692 100830 100984 101150 101320 101483 101625 101730 101785
          99965.5 99965.7 99965.9 99966.1 99999 100000 100000 100004 100191 100204 100230 100269
          100322 100389 100471 100567 100676 100797 100924 101052 101172 101275 101350 101390
          99955.3 99955.5 99955.8 99956.1 99998.6 100000 100000 100003 100150 100161 100182 100215
          100258 100313 100379 100456 100543 100636 100734 100830 100920 100995 101050 101078
          99943.4 99943.7 99944.3 99944.9 99998.2 100000 100000 100002 100110 100119 100137 100165
          100201 100246 100299 100361 100429 100502 100577 100651 100718 100774 100814 100835
          99929.4 99930.1 99931.3 99932.5 99997.6 99999.9 100000 100001 100070 100079 100095 100119
          100149 100186 100230 100280 100335 100393 100452 100508 100560 100602 100632 100648
          99912.9 99914.2 99916.6 99919.5 99995 99998.3 99998.6 99998.4 100031 100041 100056 100077
          100104 100135 100172 100214 100259 100306 100354 100399 100439 100473 100496 100509
          99893.4 99895.3 99899.6 99907.6 99924.3 99938.9 99953.2 99968.9 99988.7 100004 100020 100040
          100064 100092 100125 100161 100200 100240 100280 100318 100352 100380 100400 100410
          99870 99872.2 99877.1 99885.5 99898.2 99911.6 99925.3 99940.1 99956.2 99971.6 99988.2 100007
          100030 100057 100087 100121 100157 100194 100230 100265 100296 100321 100339 100348
        </DataArray>
        <DataArray type="Float32" Name="p_n" NumberOfComponents="1" format="ascii">
          100000 100031 100048 100056 100004 100001 100001 100017 100563 100596 100663 100769
          100917 101118 101380 101716 102144 102683 103358 104202 105256 106563 110424 200000
          100000 100018 100030 100036 100002 100000 100000 100015 100531 100563 100629 100732
          100877 101071 101326 101652 102064 102582 103228 104032 105033 106277 109660 200000
          100000 100010 100018 100022 100001 100000 100000 100013 100495 100526 100588 100686
          100824 101008 101248 101554 101938 102417 103008 103735 104627 105726 108723 200000
          100000 100005 100009 100012 100001 100000 100000 100012 100455 100484 100542 100633
          100761 100931 101151 101429 101775 102201 102717 103337 104076 104951 107098 200000
          99998.1 100000 100002 100004 100000 100000 100000 100011 100413 100439 100493 100575
          100691 100844 101040 101286 101588 101952 102384 102886 103449 104049 104600 105294
          99994 99994.8 99995.9 99996.6 100000 100000 100000 100009 100369 100392 100440 100514
          100616 100751 100922 101133 101389 101692 102042 102433 102848 103252 103574 103688
          99988.5 99988.9 99989.4 99989.8 99999.8 100000 100000 100008 100324 100345 100386 100451
          100539 100655 100801 100979 101191 101437 101713 102012 102316 102595 102808 102909
          99982 99982.2 99982.5 99982.7 99999.5 100000 100000 100007 100279 100297 100333 100388
          100464 100561 100683 100830 101003 101199 101414 101640 101862 102060 102208 102284
          99974.4 99974.5 99974.7 99974.9 99999.3 100000 100000 100005 100235 100250 100280 100327
          100391 100472 100572 100692 100830 100984 101150 101320 101483 101625 101730 101785
          99965.5 99965.7 99965.9 99966.1 99999 100000 100000 100004 100191 100204 100230 100269
          100322 100389 100471 100567 100676 100797 100924 101052 101172 101275 101350 101390
          99955.3 99955.5 99955.8 99956.1 99998.6 100000 100000 100003 100150 100161 100182 100215
          100258 100313 100379 100456 100543 100636 100734 100830 100920 100995 101050 101078
          99943.4 99943.7 99944.3 99944.9 99998.2 100000 100000 100002 100110 100119 100137 100165
          100201 100246 100299 100361 100429 100502 100577 100651 100718 100774 100814 100835
          99929.4 99930.1 99931.3 99932.5 99997.6 99999.9 100000 100001 100070 100079 100095 100119
          100149 100186 100230 100280 100335 100393 100452 100508 100560 100602 100632 100648
          99912.9 99914.2 99916.6 99919.5 99995 99998.3 99998.6 99998.4 100031 100041 100056 100077
          100104 100135 100172 100214 100259 100306 100354 100399 100439 100473 100496 100509
          99893.4 99895.3 99899.6 99907.6 99924.3 99938.9 99953.2 99968.9 99988.7 100004 100020 100040
          100064 100092 100125 100161 100200 100240 100280 100318 100352 100380 100400 100410
          99870 99872.2 99877.1 99885.5 99898.2 99911.6 99925.3 99940.1 99956.2 99971.6 99988.2 100007
          100030 100057 100087 100121 100157 100194 100230 100265 100296 100321 100339 100348
        </DataArray>
        <DataArray type="Float32" Name="rho_w" NumberOfComponents="1" format="ascii">
          997.048 997.048 997.048 997.048 997.048 997.048 997.048 997.048 997.048 997.048 997.048 997.048
          997.048 997.048 997.048 997.048 997.049 997.049 997.049 997.05 997.05 997.051 997.052 997.093
          997.048 997.048 997.048 997.048 997.048 997.048 997.048 997.048 997.048 997.048 997.048 997.048
          997.048 997.048 997.048 997.048 997.049 997.049 997.049 997.049 997.05 997.05 997.052 997.093
          997.048 997.048 997.048 997.048 997.048 997.048 997.048 997.048 997.048 997.048 997.048 997.048
          997.048 997.048 997.048 997.048 997.049 997.049 997.049 997.049 997.05 997.05 997.052 997.093
          997.048 997.048 997.048 997.048 997.048 997.048 997.048 997.048 997.048 997.048 997.048 997.048
          997.048 997.048 997.048 997.048 997.048 997.049 997.049 997.049 997.049 997.05 997.051 997.093
          997.048 997.048 997.048 997.048 997.048 997.048 997.048 997.048 997.048 997.048 997.048 997.048
          997.048 997.048 997.048 997.048 997.048 997.049 997.049 997.049 997.049 997.049 997.05 997.05
          997.048 997.048 997.048 997.048 997.048 997.048 997.048 997.048 997.048 997.048 997.048 997.048
          997.048 997.048 997.048 997.048 997.048 997.048 997.049 997.049 997.049 997.049 997.049 997.049
          997.048 997.048 997.048 997.048 997.048 997.048 997.048 997.048 997.048 997.048 997.048 997.048
          997.048 997.048 997.048 997.048 997.048 997.048 997.048 997.049 997.049 997.049 997.049 997.049
          997.048 997.048 997.048 997.048 997.048 997.048 997.048 997.048 997.048 997.048 997.048 997.048
          997.048 997.048 997.048 997.048 997.048 997.048 997.048 997.048 997.049 997.049 997.049 997.049
          997.048 997.048 997.048 997.048 997.048 997.048 997.048 997.048 997.048 997.048 997.048 997.048
          997.048 997.048 997.048 997.048 997.048 997.048 997.048 997.048 997.048 997.048 997.048 997.048
          997.048 997.048 997.048 997.048 997.048 997.048 997.048 997.048 997.048 997.048 997.048 997.048
          997.048 997.048 997.048 997.048 997.048 997.048 997.048 997.048 997.048 997.048 997.048 997.048
          997.048 997.048 997.048 997.048 997.048 997.048 997.048 997.048 997.048 997.048 997.048 997.048
          997.048 997.048 997.048 997.048 997.048 997.048 997.048 997.048 997.048 997.048 997.048 997.048
          997.048 997.048 997.048 997.048 997.048 997.048 997.048 997.048 997.048 997.048 997.048 997.048
          997.048 997.048 997.048 997.048 997.048 997.048 997.048 997.048 997.048 997.048 997.048 997.048
          997.048 997.048 997.048 997.048 997.048 997.048 997.048 997.048 997.048 997.048 997.048 997.048
          997.048 997.048 997.048 997.048 997.048 997.048 997.048 997.048 997.048 997.048 997.048 997.048
          997.048 997.048 997.048 997.048 997.048 997.048 997.048 997.048 997.048 997.048 997.048 997.048
          997.048 997.048 997.048 997.048 997.048 997.048 997.048 997.048 997.048 997.048 997.048 997.048
          997.048 997.048 997.048 997.048 997.048 997.048 997.048 997.048 997.048 997.048 997.048 997.048
          997.048 997.048 997.048 997.048 997.048 997.048 997.048 997.048 997.048 997.048 997.048 997.048
          997.048 997.048 997.048 997.048 997.048 997.048 997.048 997.048 997.048 997.048 997.048 997.048
          997.048 997.048 997.048 997.048 997.048 997.048 997.048 997.048 997.048 997.048 997.048 997.048
        </DataArray>
        <DataArray type="Float32" Name="rho_n" NumberOfComponents="1" format="ascii">
          1.12601 1.12636 1.12656 1.12664 1.12606 1.12602 1.12602 1.12621 1.13235 1.13273 1.13348 1.13467
          1.13634 1.1386 1.14155 1.14534 1.15015 1.15622 1.16377 1.17285 1.1822 1.19142 1.23506 1.45345
          1.12601 1.12621 1.12635 1.12642 1.12603 1.12601 1.12602 1.12618 1.13199 1.13235 1.1331 1.13425
          1.13588 1.13808 1.14094 1.14461 1.14926 1.15509 1.16232 1.17098 1.17988 1.18819 1.22643 1.45345
          1.12601 1.12613 1.12621 1.12626 1.12603 1.12601 1.12602 1.12616 1.13158 1.13193 1.13264 1.13374
          1.13529 1.13737 1.14007 1.14351 1.14784 1.15323 1.15985 1.1677 1.17556 1.18197 1.21584 1.45345
          1.12601 1.12607 1.12612 1.12614 1.12602 1.12601 1.12601 1.12615 1.13114 1.13146 1.13212 1.13315
          1.13458 1.1365 1.13897 1.14211 1.146 1.15079 1.15658 1.16333 1.16981 1.17321 1.19747 1.45345
          1.12599 1.12601 1.12604 1.12605 1.12602 1.12601 1.12601 1.12613 1.13066 1.13096 1.13156 1.13249
          1.13379 1.13552 1.13773 1.14049 1.14389 1.148 1.15286 1.15845 1.16437 1.16873 1.16925 1.17708
          1.12595 1.12596 1.12597 1.12597 1.12601 1.12601 1.12601 1.12612 1.13016 1.13043 1.13097 1.1318
          1.13295 1.13446 1.13639 1.13877 1.14165 1.14507 1.149 1.1534 1.15802 1.16217 1.16425 1.16535
          1.12588 1.12589 1.12589 1.1259 1.12601 1.12601 1.12601 1.1261 1.12966 1.12989 1.13036 1.13109
          1.13209 1.13339 1.13503 1.13704 1.13942 1.14219 1.14531 1.14867 1.15208 1.15519 1.1574 1.15847
          1.12581 1.12581 1.12582 1.12582 1.12601 1.12601 1.12601 1.12609 1.12915 1.12936 1.12976 1.13038
          1.13123 1.13234 1.13371 1.13536 1.1373 1.13951 1.14193 1.14448 1.14698 1.1492 1.15085 1.1517
          1.12572 1.12573 1.12573 1.12573 1.12601 1.12601 1.12601 1.12607 1.12865 1.12883 1.12917 1.1297
          1.13041 1.13133 1.13246 1.1338 1.13536 1.13709 1.13896 1.14088 1.14272 1.14431 1.14549 1.14611
          1.12563 1.12563 1.12563 1.12563 1.126 1.12601 1.12601 1.12606 1.12817 1.12831 1.1286 1.12904
          1.12964 1.13039 1.13131 1.13239 1.13363 1.13498 1.13642 1.13786 1.13921 1.14037 1.14122 1.14167
          1.12551 1.12551 1.12552 1.12552 1.126 1.12601 1.12601 1.12605 1.1277 1.12782 1.12807 1.12843
          1.12892 1.12954 1.13029 1.13115 1.13212 1.13318 1.13428 1.13536 1.13637 1.13722 1.13783 1.13816
          1.12538 1.12538 1.12539 1.12539 1.12599 1.12601 1.12601 1.12603 1.12725 1.12735 1.12756 1.12787
          1.12827 1.12878 1.12938 1.13008 1.13085 1.13167 1.13252 1.13334 1.1341 1.13473 1.13518 1.13542
          1.12522 1.12523 1.12524 1.12525 1.12599 1.12601 1.12601 1.12602 1.1268 1.1269 1.12709 1.12735
          1.12769 1.12811 1.12861 1.12917 1.12979 1.13044 1.1311 1.13174 1.13231 1.13279 1.13313 1.13331
          1.12503 1.12505 1.12507 1.12511 1.12596 1.12599 1.126 1.12599 1.12636 1.12647 1.12665 1.12688
          1.12718 1.12754 1.12795 1.12842 1.12893 1.12946 1.12999 1.1305 1.13096 1.13134 1.1316 1.13174
          1.12481 1.12483 1.12488 1.12497 1.12516 1.12532 1.12549 1.12566 1.12589 1.12605 1.12624 1.12646
          1.12673 1.12705 1.12742 1.12782 1.12826 1.12872 1.12917 1.1296 1.12998 1.13029 1.13051 1.13063
          1.12455 1.12457 1.12463 1.12472 1.12487 1.12502 1.12517 1.12534 1.12552 1.12569 1.12588 1.1261
          1.12635 1.12665 1.127 1.12737 1.12778 1.12819 1.12861 1.129 1.12934 1.12963 1.12983 1.12993
        </DataArray>
        <DataArray type="Float32" Name="lambda_w" NumberOfComponents="1" format="ascii">
          0 0 0 0 0 0 0 0 0 0 0 0
          0 0 0 0 0 0 0 0 0 0.37104 672.919 1123.58
          0 0 0 0 0 0 0 0 0 0 0 0
          0 0 0 0 0 0 0 0 0 0.264159 622.842 1123.58
          0 0 0 0 0 0 0 0 0 0 0 0
          0 0 0 0 0 0 0 0 0 0.21511 624.584 1123.58
          0 0 0 0 0 0 0 0 0 0 0 0
          0 0 0 0 0 0 0 0 0 0.108609 587.786 1123.58
          0 0 0 0 0 0 0 0 0 0 0 0
          0 0 0 0 0 0 0 0 0 0 0.00627776 476.388
          0 0 0 0 0 0 0 0 0 0 0 0
          0 0 0 0 0 0 0 0 0 0 0 0
          0 0 0 0 0 0 0 0 0 0 0 0
          0 0 0 0 0 0 0 0 0 0 0 0
          0 0 0 0 0 0 0 0 0 0 0 0
          0 0 0 0 0 0 0 0 0 0 0 0
          0 0 0 0 0 0 0 0 0 0 0 0
          0 0 0 0 0 0 0 0 0 0 0 0
          0 0 0 0 0 0 0 0 0 0 0 0
          0 0 0 0 0 0 0 0 0 0 0 0
          0 0 0 0 0 0 0 0 0 0 0 0
          0 0 0 0 0 0 0 0 0 0 0 0
          0 0 0 0 0 0 0 0 0 0 0 0
          0 0 0 0 0 0 0 0 0 0 0 0
          0 0 0 0 0 0 0 0 0 0 0 0
          0 0 0 0 0 0 0 0 0 0 0 0
          0 0 0 0 0 0 0 0 0 0 0 0
          0 0 0 0 0 0 0 0 0 0 0 0
          0 0 0 0 0 0 0 0 0 0 0 0
          0 0 0 0 0 0 0 0 0 0 0 0
          0 0 0 0 0 0 0 0 0 0 0 0
          0 0 0 0 0 0 0 0 0 0 0 0
        </DataArray>
        <DataArray type="Float32" Name="lambda_n" NumberOfComponents="1" format="ascii">
          56746.7 56746.7 56746.7 56746.7 56746.7 56746.7 56746.7 56746.7 56746.7 56746.7 56746.7 56746.7
          56746.7 56746.7 56746.7 56746.7 56746.7 56746.7 56746.7 56746.7 56746.7 56728 22760.4 0
          56746.7 56746.7 56746.7 56746.7 56746.7 56746.7 56746.7 56746.7 56746.7 56746.7 56746.7 56746.7
          56746.7 56746.7 56746.7 56746.7 56746.7 56746.7 56746.7 56746.7 56746.7 56733.4 25289.6 0
          56746.7 56746.7 56746.7 56746.7 56746.7 56746.7 56746.7 56746.7 56746.7 56746.7 56746.7 56746.7
          56746.7 56746.7 56746.7 56746.7 56746.7 56746.7 56746.7 56746.7 56746.7 56735.9 25201.6 0
          56746.7 56746.7 56746.7 56746.7 56746.7 56746.7 56746.7 56746.7 56746.7 56746.7 56746.7 56746.7
          56746.7 56746.7 56746.7 56746.7 56746.7 56746.7 56746.7 56746.7 56746.7 56741.3 27060.1 0
          56746.7 56746.7 56746.7 56746.7 56746.7 56746.7 56746.7 56746.7 56746.7 56746.7 56746.7 56746.7
          56746.7 56746.7 56746.7 56746.7 56746.7 56746.7 56746.7 56746.7 56746.7 56746.7 56746.4 32686.4
          56746.7 56746.7 56746.7 56746.7 56746.7 56746.7 56746.7 56746.7 56746.7 56746.7 56746.7 56746.7
          56746.7 56746.7 56746.7 56746.7 56746.7 56746.7 56746.7 56746.7 56746.7 56746.7 56746.7 56746.7
          56746.7 56746.7 56746.7 56746.7 56746.7 56746.7 56746.7 56746.7 56746.7 56746.7 56746.7 56746.7
          56746.7 56746.7 56746.7 56746.7 56746.7 56746.7 56746.7 56746.7 56746.7 56746.7 56746.7 56746.7
          56746.7 56746.7 56746.7 56746.7 56746.7 56746.7 56746.7 56746.7 56746.7 56746.7 56746.7 56746.7
          56746.7 56746.7 56746.7 56746.7 56746.7 56746.7 56746.7 56746.7 56746.7 56746.7 56746.7 56746.7
          56746.7 56746.7 56746.7 56746.7 56746.7 56746.7 56746.7 56746.7 56746.7 56746.7 56746.7 56746.7
          56746.7 56746.7 56746.7 56746.7 56746.7 56746.7 56746.7 56746.7 56746.7 56746.7 56746.7 56746.7
          56746.7 56746.7 56746.7 56746.7 56746.7 56746.7 56746.7 56746.7 56746.7 56746.7 56746.7 56746.7
          56746.7 56746.7 56746.7 56746.7 56746.7 56746.7 56746.7 56746.7 56746.7 56746.7 56746.7 56746.7
          56746.7 56746.7 56746.7 56746.7 56746.7 56746.7 56746.7 56746.7 56746.7 56746.7 56746.7 56746.7
          56746.7 56746.7 56746.7 56746.7 56746.7 56746.7 56746.7 56746.7 56746.7 56746.7 56746.7 56746.7
          56746.7 56746.7 56746.7 56746.7 56746.7 56746.7 56746.7 56746.7 56746.7 56746.7 56746.7 56746.7
          56746.7 56746.7 56746.7 56746.7 56746.7 56746.7 56746.7 56746.7 56746.7 56746.7 56746.7 56746.7
          56746.7 56746.7 56746.7 56746.7 56746.7 56746.7 56746.7 56746.7 56746.7 56746.7 56746.7 56746.7
          56746.7 56746.7 56746.7 56746.7 56746.7 56746.7 56746.7 56746.7 56746.7 56746.7 56746.7 56746.7
          56746.7 56746.7 56746.7 56746.7 56746.7 56746.7 56746.7 56746.7 56746.7 56746.7 56746.7 56746.7
          56746.7 56746.7 56746.7 56746.7 56746.7 56746.7 56746.7 56746.7 56746.7 56746.7 56746.7 56746.7
          56746.7 56746.7 56746.7 56746.7 56746.7 56746.7 56746.7 56746.7 56746.7 56746.7 56746.7 56746.7
          56746.7 56746.7 56746.7 56746.7 56746.7 56746.7 56746.7 56746.7 56746.7 56746.7 56746.7 56746.7
          56746.7 56746.7 56746.7 56746.7 56746.7 56746.7 56746.7 56746.7 56746.7 56746.7 56746.7 56746.7
          56746.7 56746.7 56746.7 56746.7 56746.7 56746.7 56746.7 56746.7 56746.7 56746.7 56746.7 56746.7
        </DataArray>
        <DataArray type="Float32" Name="porosity" NumberOfComponents="1" format="ascii">
          0.3 0.3 0.3 0.3 0.3 0.3 0.3 0.3 0.3 0.3 0.3 0.3
          0.3 0.3 0.3 0.3 0.3 0.3 0.3 0.3 0.3 0.3 0.3 0.3
          0.3 0.3 0.3 0.3 0.3 0.3 0.3 0.3 0.3 0.3 0.3 0.3
          0.3 0.3 0.3 0.3 0.3 0.3 0.3 0.3 0.3 0.3 0.3 0.3
          0.3 0.3 0.3 0.3 0.3 0.3 0.3 0.3 0.3 0.3 0.3 0.3
          0.3 0.3 0.3 0.3 0.3 0.3 0.3 0.3 0.3 0.3 0.3 0.3
          0.3 0.3 0.3 0.3 0.3 0.3 0.3 0.3 0.3 0.3 0.3 0.3
          0.3 0.3 0.3 0.3 0.3 0.3 0.3 0.3 0.3 0.3 0.3 0.3
          0.3 0.3 0.3 0.3 0.3 0.3 0.3 0.3 0.3 0.3 0.3 0.3
          0.3 0.3 0.3 0.3 0.3 0.3 0.3 0.3 0.3 0.3 0.3 0.3
          0.3 0.3 0.3 0.3 0.3 0.3 0.3 0.3 0.3 0.3 0.3 0.3
          0.3 0.3 0.3 0.3 0.3 0.3 0.3 0.3 0.3 0.3 0.3 0.3
          0.3 0.3 0.3 0.3 0.3 0.3 0.3 0.3 0.3 0.3 0.3 0.3
          0.3 0.3 0.3 0.3 0.3 0.3 0.3 0.3 0.3 0.3 0.3 0.3
          0.3 0.3 0.3 0.3 0.3 0.3 0.3 0.3 0.3 0.3 0.3 0.3
          0.3 0.3 0.3 0.3 0.3 0.3 0.3 0.3 0.3 0.3 0.3 0.3
          0.3 0.3 0.3 0.3 0.3 0.3 0.3 0.3 0.3 0.3 0.3 0.3
          0.3 0.3 0.3 0.3 0.3 0.3 0.3 0.3 0.3 0.3 0.3 0.3
          0.3 0.3 0.3 0.3 0.3 0.3 0.3 0.3 0.3 0.3 0.3 0.3
          0.3 0.3 0.3 0.3 0.3 0.3 0.3 0.3 0.3 0.3 0.3 0.3
          0.3 0.3 0.3 0.3 0.3 0.3 0.3 0.3 0.3 0.3 0.3 0.3
          0.3 0.3 0.3 0.3 0.3 0.3 0.3 0.3 0.3 0.3 0.3 0.3
          0.3 0.3 0.3 0.3 0.3 0.3 0.3 0.3 0.3 0.3 0.3 0.3
          0.3 0.3 0.3 0.3 0.3 0.3 0.3 0.3 0.3 0.3 0.3 0.3
          0.3 0.3 0.3 0.3 0.3 0.3 0.3 0.3 0.3 0.3 0.3 0.3
          0.3 0.3 0.3 0.3 0.3 0.3 0.3 0.3 0.3 0.3 0.3 0.3
          0.3 0.3 0.3 0.3 0.3 0.3 0.3 0.3 0.3 0.3 0.3 0.3
          0.3 0.3 0.3 0.3 0.3 0.3 0.3 0.3 0.3 0.3 0.3 0.3
          0.3 0.3 0.3 0.3 0.3 0.3 0.3 0.3 0.3 0.3 0.3 0.3
          0.3 0.3 0.3 0.3 0.3 0.3 0.3 0.3 0.3 0.3 0.3 0.3
          0.3 0.3 0.3 0.3 0.3 0.3 0.3 0.3 0.3 0.3 0.3 0.3
          0.3 0.3 0.3 0.3 0.3 0.3 0.3 0.3 0.3 0.3 0.3 0.3
        </DataArray>
        <DataArray type="Float32" Name="x_w^H2O" NumberOfComponents="1" format="ascii">
          0.315483 0.315581 0.315635 0.315658 0.315494 0.315485 0.315486 0.315537 0.317258 0.317363 0.317576 0.317907
          0.318377 0.319009 0.319835 0.320898 0.322265 0.324255 0.330065 0.365981 0.566359 0.999988 0.999988 1
          0.315483 0.315539 0.315577 0.315595 0.315488 0.315483 0.315483 0.315529 0.317157 0.317259 0.317467 0.317791
          0.318248 0.318863 0.319665 0.320694 0.32201 0.323894 0.3292 0.362267 0.550938 0.999988 0.999988 1
          0.315483 0.315515 0.315539 0.315551 0.315486 0.315483 0.315483 0.315525 0.317043 0.317141 0.317339 0.317647
          0.318082 0.318664 0.31942 0.320385 0.321608 0.323301 0.327737 0.355999 0.529993 0.999988 0.999988 1
          0.315483 0.315498 0.315511 0.315519 0.315485 0.315483 0.315483 0.31552 0.316918 0.317009 0.317194 0.317481
          0.317884 0.31842 0.319114 0.319992 0.321089 0.322536 0.325808 0.346604 0.492238 0.999988 0.999988 1
          0.315477 0.315483 0.31549 0.315494 0.315484 0.315483 0.315483 0.315516 0.316785 0.316868 0.317037 0.317297
          0.317662 0.318145 0.318764 0.319539 0.320493 0.32166 0.323308 0.328564 0.363844 0.55258 0.999988 0.999988
          0.315464 0.315466 0.31547 0.315472 0.315483 0.315483 0.315483 0.315512 0.316646 0.316721 0.316871 0.317103
          0.317426 0.317851 0.31839 0.319057 0.319865 0.320823 0.321955 0.323605 0.32932 0.361953 0.484238 0.498633
          0.315446 0.315448 0.315449 0.31545 0.315482 0.315483 0.315483 0.315508 0.316504 0.31657 0.316702 0.316904
          0.317184 0.31755 0.318009 0.318571 0.31924 0.320016 0.320891 0.321865 0.323209 0.327275 0.343099 0.347981
          0.315426 0.315426 0.315427 0.315428 0.315481 0.315483 0.315483 0.315504 0.316362 0.316419 0.316533 0.316706
          0.316945 0.317254 0.317638 0.318102 0.318645 0.319264 0.319943 0.320658 0.321384 0.32223 0.323884 0.324677
          0.315402 0.315402 0.315403 0.315403 0.31548 0.315483 0.315483 0.3155 0.316223 0.316271 0.316367 0.316514
          0.316715 0.316972 0.317288 0.317665 0.318101 0.318587 0.319111 0.319648 0.320164 0.320623 0.32102 0.321233
          0.315374 0.315374 0.315375 0.315376 0.315479 0.315483 0.315483 0.315496 0.316087 0.316127 0.316209 0.316332
          0.316498 0.316709 0.316967 0.31727 0.317616 0.317995 0.318397 0.318801 0.31918 0.319505 0.319746 0.319873
          0.315342 0.315342 0.315343 0.315344 0.315478 0.315483 0.315483 0.315492 0.315955 0.31599 0.316058 0.31616
          0.316298 0.316471 0.31668 0.316922 0.317194 0.31749 0.317797 0.318102 0.318384 0.318621 0.318794 0.318885
          0.315304 0.315305 0.315307 0.315309 0.315477 0.315483 0.315483 0.315488 0.315828 0.315858 0.315916 0.316002
          0.316116 0.316258 0.316427 0.316621 0.316837 0.317067 0.317304 0.317536 0.317747 0.317923 0.318051 0.318117
          0.31526 0.315262 0.315266 0.31527 0.315475 0.315482 0.315483 0.315485 0.315704 0.315732 0.315783 0.315857
          0.315953 0.316071 0.31621 0.316367 0.31654 0.316722 0.316908 0.317086 0.317248 0.317382 0.317478 0.317528
          0.315208 0.315212 0.315219 0.315228 0.315467 0.315477 0.315478 0.315477 0.31558 0.315611 0.31566 0.315726
          0.315809 0.31591 0.316026 0.316157 0.3163 0.316448 0.316598 0.316741 0.316869 0.316974 0.317048 0.317087
          0.315146 0.315152 0.315166 0.315191 0.315244 0.31529 0.315335 0.315385 0.315447 0.315494 0.315546 0.315609
          0.315684 0.315774 0.315876 0.31599 0.316113 0.31624 0.316367 0.316487 0.316594 0.316682 0.316744 0.316776
          0.315072 0.31508 0.315095 0.315121 0.315161 0.315204 0.315247 0.315294 0.315344 0.315393 0.315445 0.315506
          0.315578 0.315662 0.315758 0.315863 0.315977 0.316093 0.316209 0.316319 0.316416 0.316495 0.316551 0.31658
        </DataArray>
        <DataArray type="Float32" Name="x_w^N2" NumberOfComponents="1" format="ascii">
          1.14721e-05 1.14757e-05 1.14776e-05 1.14785e-05 1.14725e-05 1.14722e-05 1.14722e-05 1.14741e-05 1.15367e-05 1.15405e-05 1.15482e-05 1.15603e-05
          1.15774e-05 1.16003e-05 1.16304e-05 1.1669e-05 1.17181e-05 1.17798e-05 1.18559e-05 1.19405e-05 1.1989e-05 1.19812e-05 1.24286e-05 0
          1.14721e-05 1.14742e-05 1.14755e-05 1.14762e-05 1.14723e-05 1.14721e-05 1.14721e-05 1.14738e-05 1.1533e-05 1.15367e-05 1.15443e-05 1.1556e-05
          1.15727e-05 1.1595e-05 1.16242e-05 1.16616e-05 1.17089e-05 1.17682e-05 1.18412e-05 1.19222e-05 1.19689e-05 1.1948e-05 1.23401e-05 0
          1.14721e-05 1.14733e-05 1.14741e-05 1.14746e-05 1.14722e-05 1.14721e-05 1.14721e-05 1.14736e-05 1.15288e-05 1.15324e-05 1.15396e-05 1.15508e-05
          1.15666e-05 1.15878e-05 1.16153e-05 1.16504e-05 1.16945e-05 1.17493e-05 1.18162e-05 1.189e-05 1.19295e-05 1.18843e-05 1.22315e-05 0
          1.14721e-05 1.14727e-05 1.14732e-05 1.14734e-05 1.14722e-05 1.14721e-05 1.14721e-05 1.14735e-05 1.15243e-05 1.15276e-05 1.15343e-05 1.15448e-05
          1.15594e-05 1.15789e-05 1.16042e-05 1.16361e-05 1.16758e-05 1.17245e-05 1.17832e-05 1.18474e-05 1.18795e-05 1.17943e-05 1.20432e-05 0
          1.14719e-05 1.14721e-05 1.14724e-05 1.14725e-05 1.14721e-05 1.14721e-05 1.14721e-05 1.14733e-05 1.15195e-05 1.15225e-05 1.15286e-05 1.15381e-05
          1.15514e-05 1.15689e-05 1.15914e-05 1.16196e-05 1.16543e-05 1.16961e-05 1.17455e-05 1.18017e-05 1.1854e-05 1.18542e-05 1.17538e-05 1.18341e-05
          1.14714e-05 1.14715e-05 1.14716e-05 1.14717e-05 1.14721e-05 1.14721e-05 1.14721e-05 1.14732e-05 1.15144e-05 1.15171e-05 1.15226e-05 1.1531e-05
          1.15428e-05 1.15582e-05 1.15778e-05 1.16021e-05 1.16315e-05 1.16662e-05 1.17063e-05 1.1751e-05 1.17971e-05 1.18319e-05 1.18243e-05 1.18322e-05
          1.14708e-05 1.14708e-05 1.14709e-05 1.14709e-05 1.14721e-05 1.14721e-05 1.14721e-05 1.1473e-05 1.15093e-05 1.15116e-05 1.15164e-05 1.15238e-05
          1.1534e-05 1.15473e-05 1.1564e-05 1.15844e-05 1.16087e-05 1.1637e-05 1.16687e-05 1.17029e-05 1.17376e-05 1.17685e-05 1.17874e-05 1.17973e-05
          1.147e-05 1.14701e-05 1.14701e-05 1.14701e-05 1.14721e-05 1.14721e-05 1.14721e-05 1.14729e-05 1.15041e-05 1.15062e-05 1.15103e-05 1.15166e-05
          1.15253e-05 1.15365e-05 1.15505e-05 1.15674e-05 1.15871e-05 1.16096e-05 1.16343e-05 1.16602e-05 1.16857e-05 1.17083e-05 1.17249e-05 1.17334e-05
          1.14692e-05 1.14692e-05 1.14692e-05 1.14692e-05 1.1472e-05 1.14721e-05 1.14721e-05 1.14727e-05 1.1499e-05 1.15008e-05 1.15043e-05 1.15096e-05
          1.15169e-05 1.15263e-05 1.15378e-05 1.15515e-05 1.15673e-05 1.1585e-05 1.16041e-05 1.16236e-05 1.16423e-05 1.16586e-05 1.16706e-05 1.16769e-05
          1.14682e-05 1.14682e-05 1.14682e-05 1.14682e-05 1.1472e-05 1.14721e-05 1.14721e-05 1.14726e-05 1.14941e-05 1.14956e-05 1.14985e-05 1.1503e-05
          1.1509e-05 1.15167e-05 1.15261e-05 1.15371e-05 1.15497e-05 1.15635e-05 1.15781e-05 1.15928e-05 1.16066e-05 1.16184e-05 1.1627e-05 1.16316e-05
          1.1467e-05 1.1467e-05 1.1467e-05 1.14671e-05 1.14719e-05 1.14721e-05 1.14721e-05 1.14725e-05 1.14893e-05 1.14905e-05 1.1493e-05 1.14968e-05
          1.15018e-05 1.1508e-05 1.15156e-05 1.15244e-05 1.15344e-05 1.15451e-05 1.15563e-05 1.15674e-05 1.15776e-05 1.15862e-05 1.15925e-05 1.15958e-05