<?xml version="1.0"?>
<VTKFile type="UnstructuredGrid" version="0.1" byte_order="LittleEndian">
  <UnstructuredGrid>
    <Piece NumberOfCells="384" NumberOfPoints="425">
      <PointData Scalars="S_w">
        <DataArray type="Float32" Name="S_w" NumberOfComponents="1" format="ascii">
          0 0 0 0 0 0 0 0 0 0 0 0
          0 0 0 0 0 0 0 0 0 0 0 0
          0 0 0 0 0 0 0 0 0 0 0 0
          0 0 0 0 0 0 0 0 0.00770583 0.0057342 0.641428 0.552406
          1 1 0 0 0 0 0 0 0 0 0 0
          0 0 0 0 0 0 0 0 0 0 0 0
          0.00495454 0.556659 1 0 0 0 0 0 0 0 0 0
          0 0 0 0 0 0 0 0 0 0 0 0
          0 0.00270553 0.55936 1 0 0 0 0 0 0 0 0
          0 0 0 0 0 0 0 0 0 0 0 0
          0 0 0 0.472713 1 0 0 0 0 0 0 0
          0 0 0 0 0 0 0 0 0 0 0 0
          0 0 0 0 0.00804625 0.291123 0 0 0 0 0 0
          0 0 0 0 0 0 0 0 0 0 0 0
          0 0 0 0 0 0 0 0 0 0 0 0
          0 0 0 0 0 0 0 0 0 0 0 0
          0 0 0 0 0 0 0 0 0 0 0 0
          0 0 0 0 0 0 0 0 0 0 0 0
          0 0 0 0 0 0 0 0 0 0 0 0
          0 0 0 0 0 0 0 0 0 0 0 0
          0 0 0 0 0 0 0 0 0 0 0 0
          0 0 0 0 0 0 0 0 0 0 0 0
          0 0 0 0 0 0 0 0 0 0 0 0
          0 0 0 0 0 0 0 0 0 0 0 0
          0 0 0 0 0 0 0 0 0 0 0 0
          0 0 0 0 0 0 0 0 0 0 0 0
          0 0 0 0 0 0 0 0 0 0 0 0
          0 0 0 0 0 0 0 0 0 0 0 0
          0 0 0 0 0 0 0 0 0 0 0 0
          0 0 0 0 0 0 0 0 0 0 0 0
          0 0 0 0 0 0 0 0 0 0 0 0
          0 0 0 0 0 0 0 0 0 0 0 0
          0 0 0 0 0 0 0 0 0 0 0 0
          0 0 0 0 0 0 0 0 0 0 0 0
          0 0 0 0 0 0 0 0 0 0 0 0
          0 0 0 0 0
        </DataArray>
        <DataArray type="Float32" Name="S_n" NumberOfComponents="1" format="ascii">
          1 1 1 1 1 1 1 1 1 1 1 1
          1 1 1 1 1 1 1 1 1 1 1 1
          1 1 1 1 1 1 1 1 1 1 1 1
          1 1 1 1 1 1 1 1 0.992294 0.994266 0.358572 0.447594
          0 0 1 1 1 1 1 1 1 1 1 1
          1 1 1 1 1 1 1 1 1 1 1 1
          0.995045 0.443341 0 1 1 1 1 1 1 1 1 1
          1 1 1 1 1 1 1 1 1 1 1 1
          1 0.997294 0.44064 0 1 1 1 1 1 1 1 1
          1 1 1 1 1 1 1 1 1 1 1 1
          1 1 1 0.527287 0 1 1 1 1 1 1 1
          1 1 1 1 1 1 1 1 1 1 1 1
          1 1 1 1 0.991954 0.708877 1 1 1 1 1 1
          1 1 1 1 1 1 1 1 1 1 1 1
          1 1 1 1 1 1 1 1 1 1 1 1
          1 1 1 1 1 1 1 1 1 1 1 1
          1 1 1 1 1 1 1 1 1 1 1 1
          1 1 1 1 1 1 1 1 1 1 1 1
          1 1 1 1 1 1 1 1 1 1 1 1
          1 1 1 1 1 1 1 1 1 1 1 1
          1 1 1 1 1 1 1 1 1 1 1 1
          1 1 1 1 1 1 1 1 1 1 1 1
          1 1 1 1 1 1 1 1 1 1 1 1
          1 1 1 1 1 1 1 1 1 1 1 1
          1 1 1 1 1 1 1 1 1 1 1 1
          1 1 1 1 1 1 1 1 1 1 1 1
          1 1 1 1 1 1 1 1 1 1 1 1
          1 1 1 1 1 1 1 1 1 1 1 1
          1 1 1 1 1 1 1 1 1 1 1 1
          1 1 1 1 1 1 1 1 1 1 1 1
          1 1 1 1 1 1 1 1 1 1 1 1
          1 1 1 1 1 1 1 1 1 1 1 1
          1 1 1 1 1 1 1 1 1 1 1 1
          1 1 1 1 1 1 1 1 1 1 1 1
          1 1 1 1 1 1 1 1 1 1 1 1
          1 1 1 1 1
        </DataArray>
        <DataArray type="Float32" Name="p_w" NumberOfComponents="1" format="ascii">
          100000 100043 100000 100023 100062 100038 100072 100046 100005 100002 100002 100000
          100002 100000 100002 100000 100019 100017 100583 100551 100611 100581 100673 100643
          100772 100740 100911 100878 101097 101063 101341 101304 101653 101611 102046 102000
          102540 102485 103157 103089 103931 103841 104911 104788 106091 106041 110619 109506
          200000 200000 100000 100013 100023 100028 100001 100000 100000 100000 100015 100518
          100547 100608 100703 100836 101015 101248 101545 101918 102381 102950 103644 104481
          105517 108636 200000 100000 100007 100013 100016 100001 100000 100000 100000 100014
          100482 100511 100569 100659 100786 100956 101176 101456 101805 102236 102759 103381
          104085 104747 106931 200000 100000 100002 100005 100007 100000 100000 100000 100000
          100012 100444 100471 100526 100610 100729 100887 101091 101348 101668 102060 102533
          103094 103738 104384 102533 200000 99997.2 99997.8 99999 99999.7 100000 100000 100000
          100000 100011 100405 100430 100480 100557 100666 100810 100995 101227 101513 101861
          102280 102782 103400 104300 107901 97945.8 99992.2 99992.4 99992.9 99993.2 99999.9 100000
          100000 100000 100010 100364 100387 100432 100502 100600 100728 100893 101097 101346
          101647 102004 102427 102939 103604 103551 103066 99986.1 99986.2 99986.4 99986.6 99999.6
          100000 100000 100000 100008 100323 100343 100383 100445 100532 100644 100787 100963
          101175 101425 101716 102045 102397 102678 102761 102742 99979 99979.1 99979.2 99979.4
          99999.4 100000 100000 100000 100007 100281 100299 100334 100389 100463 100560 100682
          100830 101005 101208 101436 101678 101910 102089 102185 102211 99970.9 99970.9 99971
          99971.2 99999.1 100000 100000 100000 100006 100240 100255 100286 100333 100397 100479
          100581 100703 100845 101006 101180 101356 101519 101646 101724 101749 99961.5 99961.5
          99961.6 99961.8 99998.8 100000 100000 100000 100005 100200 100213 100239 100279 100333
          100402 100486 100586 100700 100825 100957 101088 101205 101298 101356 101376 99950.6
          99950.6 99950.8 99951 99998.3 100000 100000 100000 100004 100160 100172 100194 100228
          100274 100331 100401 100481 100572 100670 100770 100868 100954 101022 101066 101080
          99938 99938.1 99938.3 99938.5 99997.8 100000 100000 100000 100002 100121 100132 100151
          100181 100220 100268 100325 100390 100463 100540 100617 100691 100756 100807 100840
          100851 99923.3 99923.6 99924 99924.2 99997.2 99999.9 100000 100000 100001 100083 100093
          100111 100137 100171 100212 100260 100314 100373 100434 100496 100554 100604 100643
          100668 100676 99906.1 99906.8 99908.7 99907.7 99994.9 99997.9 99998.4 99998.7 99999 100044
          100055 100073 100097 100128 100163 100205 100251 100301 100353 100403 100450 100491
          100523 100542 100549 99885.4 99886.7 99891 99903.3 99912.3 99929.7 99945.8 99962.4 99981.6
          100000 100020 100039 100062 100090 100124 100161 100203 100247 100293 100338 100379
          100414 100441 100458 100464 99860.3 99861.9 99867.3 99876.4 99888.1 99902.4 99918.2 99934.7
          99952.3 99970.5 99989.1 100009 100032 100060 100092 100128 100168 100211 100255 100297
          100337 100370 100396 100412 100418
        </DataArray>
        <DataArray type="Float32" Name="p_n" NumberOfComponents="1" format="ascii">
          100000 100043 100000 100023 100062 100038 100072 100046 100005 100002 100002 100000
          100002 100000 100002 100000 100019 100017 100583 100551 100611 100581 100673 100643
          100772 100740 100911 100878 101097 101063 101341 101304 101653 101611 102046 102000
          102540 102485 103157 103089 103931 103841 104911 104788 106091 106041 110619 109506
          200000 200000 100000 100013 100023 100028 100001 100000 100000 100000 100015 100518
          100547 100608 100703 100836 101015 101248 101545 101918 102381 102950 103644 104481
          105517 108636 200000 100000 100007 100013 100016 100001 100000 100000 100000 100014
          100482 100511 100569 100659 100786 100956 101176 101456 101805 102236 102759 103381
          104085 104747 106931 200000 100000 100002 100005 100007 100000 100000 100000 100000
          100012 100444 100471 100526 100610 100729 100887 101091 101348 101668 102060 102533
          103094 103738 104384 102533 200000 99997.2 99997.8 99999 99999.7 100000 100000 100000
          100000 100011 100405 100430 100480 100557 100666 100810 100995 101227 101513 101861
          102280 102782 103400 104300 107901 97945.8 99992.2 99992.4 99992.9 99993.2 99999.9 100000
          100000 100000 100010 100364 100387 100432 100502 100600 100728 100893 101097 101346
          101647 102004 102427 102939 103604 103551 103066 99986.1 99986.2 99986.4 99986.6 99999.6
          100000 100000 100000 100008 100323 100343 100383 100445 100532 100644 100787 100963
          101175 101425 101716 102045 102397 102678 102761 102742 99979 99979.1 99979.2 99979.4
          99999.4 100000 100000 100000 100007 100281 100299 100334 100389 100463 100560 100682
          100830 101005 101208 101436 101678 101910 102089 102185 102211 99970.9 99970.9 99971
          99971.2 99999.1 100000 100000 100000 100006 100240 100255 100286 100333 100397 100479
          100581 100703 100845 101006 101180 101356 101519 101646 101724 101749 99961.5 99961.5
          99961.6 99961.8 99998.8 100000 100000 100000 100005 100200 100213 100239 100279 100333
          100402 100486 100586 100700 100825 100957 101088 101205 101298 101356 101376 99950.6
          99950.6 99950.8 99951 99998.3 100000 100000 100000 100004 100160 100172 100194 100228
          100274 100331 100401 100481 100572 100670 100770 100868 100954 101022 101066 101080
          99938 99938.1 99938.3 99938.5 99997.8 100000 100000 100000 100002 100121 100132 100151
          100181 100220 100268 100325 100390 100463 100540 100617 100691 100756 100807 100840
          100851 99923.3 99923.6 99924 99924.2 99997.2 99999.9 100000 100000 100001 100083 100093
          100111 100137 100171 100212 100260 100314 100373 100434 100496 100554 100604 100643
          100668 100676 99906.1 99906.8 99908.7 99907.7 99994.9 99997.9 99998.4 99998.7 99999 100044
          100055 100073 100097 100128 100163 100205 100251 100301 100353 100403 100450 100491
          100523 100542 100549 99885.4 99886.7 99891 99903.3 99912.3 99929.7 99945.8 99962.4 99981.6
          100000 100020 100039 100062 100090 100124 100161 100203 100247 100293 100338 100379
          100414 100441 100458 100464 99860.3 99861.9 99867.3 99876.4 99888.1 99902.4 99918.2 99934.7
          99952.3 99970.5 99989.1 100009 100032 100060 100092 100128 100168 100211 100255 100297
          100337 100370 100396 100412 100418
        </DataArray>
        <DataArray type="Float32" Name="rho_w" NumberOfComponents="1" format="ascii">
          997.048 997.048 997.048 997.048 997.048 997.048 997.048 997.048 997.048 997.048 997.048 997.048
          997.048 997.048 997.048 997.048 997.048 997.048 997.048 997.048 997.048 997.048 997.048 997.048
          997.048 997.048 997.048 997.048 997.048 997.048 997.048 997.048 997.048 997.048 997.049 997.049
          997.049 997.049 997.049 997.049 997.049 997.049 997.05 997.05 997.05 997.05 997.052 997.052
          997.093 997.093 997.048 997.048 997.048 997.048 997.048 997.048 997.048 997.048 997.048 997.048
          997.048 997.048 997.048 997.048 997.048 997.048 997.048 997.049 997.049 997.049 997.049 997.05
          997.05 997.052 997.093 997.048 997.048 997.048 997.048 997.048 997.048 997.048 997.048 997.048
          997.048 997.048 997.048 997.048 997.048 997.048 997.048 997.048 997.048 997.049 997.049 997.049
          997.049 997.05 997.051 997.093 997.048 997.048 997.048 997.048 997.048 997.048 997.048 997.048
          997.048 997.048 997.048 997.048 997.048 997.048 997.048 997.048 997.048 997.048 997.049 997.049
          997.049 997.049 997.05 997.049 997.093 997.048 997.048 997.048 997.048 997.048 997.048 997.048
          997.048 997.048 997.048 997.048 997.048 997.048 997.048 997.048 997.048 997.048 997.048 997.049
          997.049 997.049 997.049 997.05 997.051 997.047 997.048 997.048 997.048 997.048 997.048 997.048
          997.048 997.048 997.048 997.048 997.048 997.048 997.048 997.048 997.048 997.048 997.048 997.048
          997.048 997.049 997.049 997.049 997.049 997.049 997.049 997.048 997.048 997.048 997.048 997.048
          997.048 997.048 997.048 997.048 997.048 997.048 997.048 997.048 997.048 997.048 997.048 997.048
          997.048 997.048 997.048 997.049 997.049 997.049 997.049 997.049 997.048 997.048 997.048 997.048
          997.048 997.048 997.048 997.048 997.048 997.048 997.048 997.048 997.048 997.048 997.048 997.048
          997.048 997.048 997.048 997.048 997.048 997.049 997.049 997.049 997.049 997.048 997.048 997.048
          997.048 997.048 997.048 997.048 997.048 997.048 997.048 997.048 997.048 997.048 997.048 997.048
          997.048 997.048 997.048 997.048 997.048 997.048 997.048 997.048 997.048 997.048 997.048 997.048
          997.048 997.048 997.048 997.048 997.048 997.048 997.048 997.048 997.048 997.048 997.048 997.048
          997.048 997.048 997.048 997.048 997.048 997.048 997.048 997.048 997.048 997.048 997.048 997.048
          997.048 997.048 997.048 997.048 997.048 997.048 997.048 997.048 997.048 997.048 997.048 997.048
          997.048 997.048 997.048 997.048 997.048 997.048 997.048 997.048 997.048 997.048 997.048 997.048
          997.048 997.048 997.048 997.048 997.048 997.048 997.048 997.048 997.048 997.048 997.048 997.048
          997.048 997.048 997.048 997.048 997.048 997.048 997.048 997.048 997.048 997.048 997.048 997.048
          997.048 997.048 997.048 997.048 997.048 997.048 997.048 997.048 997.048 997.048 997.048 997.048
          997.048 997.048 997.048 997.048 997.048 997.048 997.048 997.048 997.048 997.048 997.048 997.048
          997.048 997.048 997.048 997.048 997.048 997.048 997.048 997.048 997.048 997.048 997.048 997.048
          997.048 997.048 997.048 997.048 997.048 997.048 997.048 997.048 997.048 997.048 997.048 997.048
          997.048 997.048 997.048 997.048 997.048 997.048 997.048 997.048 997.048 997.048 997.048 997.048
          997.048 997.048 997.048 997.048 997.048 997.048 997.048 997.048 997.048 997.048 997.048 997.048
          997.048 997.048 997.048 997.048 997.048 997.048 997.048 997.048 997.048 997.048 997.048 997.048
          997.048 997.048 997.048 997.048 997.048 997.048 997.048 997.048 997.048 997.048 997.048 997.048
          997.048 997.048 997.048 997.048 997.048
        </DataArray>
        <DataArray type="Float32" Name="rho_n" NumberOfComponents="1" format="ascii">
          1.12601 1.12649 1.12601 1.12627 1.12671 1.12645 1.12682 1.12653 1.12607 1.12604 1.12603 1.12601
          1.12603 1.12601 1.12603 1.12602 1.12623 1.1262 1.13258 1.13222 1.1329 1.13256 1.1336 1.13326
          1.1347 1.13435 1.13627 1.1359 1.13837 1.13798 1.14111 1.14069 1.14462 1.14416 1.14906 1.14853
          1.15461 1.15399 1.16152 1.16076 1.16982 1.16886 1.17818 1.17712 1.18609 1.18553 1.23726 1.22469
          1.45345 1.45345 1.12601 1.12616 1.12627 1.12633 1.12603 1.12601 1.12601 1.12602 1.12618 1.13184
          1.13218 1.13286 1.13392 1.13543 1.13745 1.14007 1.14341 1.1476 1.15282 1.15921 1.16673 1.17413
          1.17961 1.21485 1.45345 1.12601 1.12609 1.12616 1.12619 1.12602 1.12601 1.12601 1.12602 1.12617
          1.13144 1.13176 1.13242 1.13343 1.13486 1.13678 1.13926 1.14241 1.14634 1.15119 1.15706 1.16391
          1.17049 1.1709 1.19558 1.45345 1.12601 1.12604 1.12607 1.12609 1.12602 1.12601 1.12601 1.12602
          1.12615 1.13102 1.13132 1.13193 1.13288 1.13422 1.136 1.1383 1.1412 1.1448 1.14921 1.15453
          1.1608 1.16773 1.17311 1.14589 1.45345 1.12598 1.12599 1.126 1.12601 1.12601 1.12601 1.12601
          1.12601 1.12614 1.13057 1.13085 1.13141 1.13229 1.13351 1.13514 1.13722 1.13983 1.14305 1.14697
          1.15168 1.15726 1.16343 1.16846 1.20655 1.09405 1.12593 1.12593 1.12593 1.12594 1.12601 1.12601
          1.12601 1.12601 1.12612 1.13011 1.13037 1.13088 1.13167 1.13277 1.13422 1.13606 1.13836 1.14117
          1.14456 1.14857 1.15332 1.1589 1.16516 1.16137 1.15834 1.12586 1.12586 1.12586 1.12586 1.12601
          1.12601 1.12601 1.12601 1.12611 1.12965 1.12987 1.13033 1.13103 1.132 1.13327 1.13488 1.13685
          1.13924 1.14206 1.14533 1.14903 1.15297 1.15596 1.15644 1.15667 1.12578 1.12578 1.12578 1.12578
          1.12601 1.12601 1.12601 1.12601 1.12609 1.12918 1.12938 1.12978 1.13039 1.13123 1.13232 1.13369
          1.13536 1.13733 1.13962 1.14218 1.1449 1.14752 1.14952 1.15056 1.15088 1.12569 1.12569 1.12569
          1.12569 1.126 1.12601 1.12601 1.12601 1.12608 1.12872 1.12889 1.12923 1.12976 1.13048 1.13141
          1.13255 1.13393 1.13553 1.13734 1.1393 1.14129 1.14312 1.14455 1.14542 1.14571 1.12558 1.12558
          1.12558 1.12558 1.126 1.12601 1.12601 1.12601 1.12607 1.12826 1.12841 1.12871 1.12916 1.12977
          1.13054 1.13149 1.13261 1.13389 1.13531 1.13679 1.13826 1.13958 1.14062 1.14128 1.1415 1.12546
          1.12546 1.12546 1.12546 1.12599 1.12601 1.12601 1.12601 1.12605 1.12782 1.12794 1.1282 1.12858
          1.1291 1.12975 1.13053 1.13143 1.13245 1.13356 1.13469 1.13578 1.13676 1.13752 1.13801 1.13818
          1.12531 1.12532 1.12532 1.12532 1.12599 1.12601 1.12601 1.12601 1.12604 1.12738 1.12749 1.12772
          1.12805 1.12849 1.12903 1.12967 1.13041 1.13123 1.13209 1.13297 1.1338 1.13453 1.1351 1.13547
          1.13559 1.12515 1.12515 1.12516 1.12516 1.12598 1.12601 1.12601 1.12601 1.12603 1.12695 1.12706
          1.12726 1.12756 1.12793 1.1284 1.12894 1.12955 1.13021 1.13091 1.1316 1.13225 1.13281 1.13325
          1.13353 1.13363 1.12496 1.12496 1.12499 1.12497 1.12596 1.12599 1.126 1.126 1.126 1.1265
          1.12663 1.12684 1.12711 1.12745 1.12785 1.12832 1.12884 1.1294 1.12998 1.13055 1.13109 1.13154
          1.1319 1.13212 1.1322 1.12472 1.12474 1.12479 1.12492 1.12503 1.12522 1.1254 1.12559 1.12581
          1.12602 1.12623 1.12645 1.12672 1.12703 1.1274 1.12783 1.1283 1.1288 1.12931 1.12981 1.13028
          1.13068 1.13098 1.13117 1.13124 1.12444 1.12446 1.12452 1.12462 1.12475 1.12491 1.12509 1.12528
          1.12548 1.12568 1.12589 1.12612 1.12638 1.12669 1.12705 1.12746 1.12791 1.12839 1.12888 1.12936
          1.1298 1.13018 1.13047 1.13065 1.13072
        </DataArray>
        <DataArray type="Float32" Name="lambda_w" NumberOfComponents="1" format="ascii">
          0 0 0 0 0 0 0 0 0 0 0 0
          0 0 0 0 0 0 0 0 0 0 0 0
          0 0 0 0 0 0 0 0 0 0 0 0
          0 0 0 0 0 0 0 0 0.604467 0.333099 729.517 623.938
          1123.58 1123.58 0 0 0 0 0 0 0 0 0 0
          0 0 0 0 0 0 0 0 0 0 0 0
          0.248199 628.982 1123.58 0 0 0 0 0 0 0 0 0
          0 0 0 0 0 0 0 0 0 0 0 0
          0 0.0736 632.185 1123.58 0 0 0 0 0 0 0 0
          0 0 0 0 0 0 0 0 0 0 0 0
          0 0 0 529.422 1123.58 0 0 0 0 0 0 0
          0 0 0 0 0 0 0 0 0 0 0 0
          0 0 0 0 0.659604 314.058 0 0 0 0 0 0
          0 0 0 0 0 0 0 0 0 0 0 0
          0 0 0 0 0 0 0 0 0 0 0 0
          0 0 0 0 0 0 0 0 0 0 0 0
          0 0 0 0 0 0 0 0 0 0 0 0
          0 0 0 0 0 0 0 0 0 0 0 0
          0 0 0 0 0 0 0 0 0 0 0 0
          0 0 0 0 0 0 0 0 0 0 0 0
          0 0 0 0 0 0 0 0 0 0 0 0
          0 0 0 0 0 0 0 0 0 0 0 0
          0 0 0 0 0 0 0 0 0 0 0 0
          0 0 0 0 0 0 0 0 0 0 0 0
          0 0 0 0 0 0 0 0 0 0 0 0
          0 0 0 0 0 0 0 0 0 0 0 0
          0 0 0 0 0 0 0 0 0 0 0 0
          0 0 0 0 0 0 0 0 0 0 0 0
          0 0 0 0 0 0 0 0 0 0 0 0
          0 0 0 0 0 0 0 0 0 0 0 0
          0 0 0 0 0 0 0 0 0 0 0 0
          0 0 0 0 0 0 0 0 0 0 0 0
          0 0 0 0 0 0 0 0 0 0 0 0
          0 0 0 0 0 0 0 0 0 0 0 0
          0 0 0 0 0 0 0 0 0 0 0 0
          0 0 0 0 0
        </DataArray>
        <DataArray type="Float32" Name="lambda_n" NumberOfComponents="1" format="ascii">
          56746.7 56746.7 56746.7 56746.7 56746.7 56746.7 56746.7 56746.7 56746.7 56746.7 56746.7 56746.7
          56746.7 56746.7 56746.7 56746.7 56746.7 56746.7 56746.7 56746.7 56746.7 56746.7 56746.7 56746.7
          56746.7 56746.7 56746.7 56746.7 56746.7 56746.7 56746.7 56746.7 56746.7 56746.7 56746.7 56746.7
          56746.7 56746.7 56746.7 56746.7 56746.7 56746.7 56746.7 56746.7 56716.2 56729.9 19901.9 25234.3
          0 0 56746.7 56746.7 56746.7 56746.7 56746.7 56746.7 56746.7 56746.7 56746.7 56746.7
          56746.7 56746.7 56746.7 56746.7 56746.7 56746.7 56746.7 56746.7 56746.7 56746.7 56746.7 56746.7
          56734.2 24979.5 0 56746.7 56746.7 56746.7 56746.7 56746.7 56746.7 56746.7 56746.7 56746.7
          56746.7 56746.7 56746.7 56746.7 56746.7 56746.7 56746.7 56746.7 56746.7 56746.7 56746.7 56746.7
          56746.7 56743 24817.7 0 56746.7 56746.7 56746.7 56746.7 56746.7 56746.7 56746.7 56746.7
          56746.7 56746.7 56746.7 56746.7 56746.7 56746.7 56746.7 56746.7 56746.7 56746.7 56746.7 56746.7
          56746.7 56746.7 56746.7 30007.8 0 56746.7 56746.7 56746.7 56746.7 56746.7 56746.7 56746.7
          56746.7 56746.7 56746.7 56746.7 56746.7 56746.7 56746.7 56746.7 56746.7 56746.7 56746.7 56746.7
          56746.7 56746.7 56746.7 56746.7 56713.4 40885 56746.7 56746.7 56746.7 56746.7 56746.7 56746.7
          56746.7 56746.7 56746.7 56746.7 56746.7 56746.7 56746.7 56746.7 56746.7 56746.7 56746.7 56746.7
          56746.7 56746.7 56746.7 56746.7 56746.7 56746.7 56746.7 56746.7 56746.7 56746.7 56746.7 56746.7
          56746.7 56746.7 56746.7 56746.7 56746.7 56746.7 56746.7 56746.7 56746.7 56746.7 56746.7 56746.7
          56746.7 56746.7 56746.7 56746.7 56746.7 56746.7 56746.7 56746.7 56746.7 56746.7 56746.7 56746.7
          56746.7 56746.7 56746.7 56746.7 56746.7 56746.7 56746.7 56746.7 56746.7 56746.7 56746.7 56746.7
          56746.7 56746.7 56746.7 56746.7 56746.7 56746.7 56746.7 56746.7 56746.7 56746.7 56746.7 56746.7
          56746.7 56746.7 56746.7 56746.7 56746.7 56746.7 56746.7 56746.7 56746.7 56746.7 56746.7 56746.7
          56746.7 56746.7 56746.7 56746.7 56746.7 56746.7 56746.7 56746.7 56746.7 56746.7 56746.7 56746.7
          56746.7 56746.7 56746.7 56746.7 56746.7 56746.7 56746.7 56746.7 56746.7 56746.7 56746.7 56746.7
          56746.7 56746.7 56746.7 56746.7 56746.7 56746.7 56746.7 56746.7 56746.7 56746.7 56746.7 56746.7
          56746.7 56746.7 56746.7 56746.7 56746.7 56746.7 56746.7 56746.7 56746.7 56746.7 56746.7 56746.7
          56746.7 56746.7 56746.7 56746.7 56746.7 56746.7 56746.7 56746.7 56746.7 56746.7 56746.7 56746.7
          56746.7 56746.7 56746.7 56746.7 56746.7 56746.7 56746.7 56746.7 56746.7 56746.7 56746.7 56746.7
          56746.7 56746.7 56746.7 56746.7 56746.7 56746.7 56746.7 56746.7 56746.7 56746.7 56746.7 56746.7
          56746.7 56746.7 56746.7 56746.7 56746.7 56746.7 56746.7 56746.7 56746.7 56746.7 56746.7 56746.7
          56746.7 56746.7 56746.7 56746.7 56746.7 56746.7 56746.7 56746.7 56746.7 56746.7 56746.7 56746.7
          56746.7 56746.7 56746.7 56746.7 56746.7 56746.7 56746.7 56746.7 56746.7 56746.7 56746.7 56746.7
          56746.7 56746.7 56746.7 56746.7 56746.7 56746.7 56746.7 56746.7 56746.7 56746.7 56746.7 56746.7
          56746.7 56746.7 56746.7 56746.7 56746.7 56746.7 56746.7 56746.7 56746.7 56746.7 56746.7 56746.7
          56746.7 56746.7 56746.7 56746.7 56746.7 56746.7 56746.7 56746.7 56746.7 56746.7 56746.7 56746.7
          56746.7 56746.7 56746.7 56746.7 56746.7 56746.7 56746.7 56746.7 56746.7 56746.7 56746.7 56746.7
          56746.7 56746.7 56746.7 56746.7 56746.7 56746.7 56746.7 56746.7 56746.7 56746.7 56746.7 56746.7
          56746.7 56746.7 56746.7 56746.7 56746.7
        </DataArray>
        <DataArray type="Float32" Name="porosity" NumberOfComponents="1" format="ascii">
          0.3 0.3 0.3 0.3 0.3 0.3 0.3 0.3 0.3 0.3 0.3 0.3
          0.3 0.3 0.3 0.3 0.3 0.3 0.3 0.3 0.3 0.3 0.3 0.3
          0.3 0.3 0.3 0.3 0.3 0.3 0.3 0.3 0.3 0.3 0.3 0.3
          0.3 0.3 0.3 0.3 0.3 0.3 0.3 0.3 0.3 0.3 0.3 0.3
          0.3 0.3 0.3 0.3 0.3 0.3 0.3 0.3 0.3 0.3 0.3 0.3
          0.3 0.3 0.3 0.3 0.3 0.3 0.3 0.3 0.3 0.3 0.3 0.3
          0.3 0.3 0.3 0.3 0.3 0.3 0.3 0.3 0.3 0.3 0.3 0.3
          0.3 0.3 0.3 0.3 0.3 0.3 0.3 0.3 0.3 0.3 0.3 0.3
          0.3 0.3 0.3 0.3 0.3 0.3 0.3 0.3 0.3 0.3 0.3 0.3
          0.3 0.3 0.3 0.3 0.3 0.3 0.3 0.3 0.3 0.3 0.3 0.3
          0.3 0.3 0.3 0.3 0.3 0.3 0.3 0.3 0.3 0.3 0.3 0.3
          0.3 0.3 0.3 0.3 0.3 0.3 0.3 0.3 0.3 0.3 0.3 0.3
          0.3 0.3 0.3 0.3 0.3 0.3 0.3 0.3 0.3 0.3 0.3 0.3
          0.3 0.3 0.3 0.3 0.3 0.3 0.3 0.3 0.3 0.3 0.3 0.3
          0.3 0.3 0.3 0.3 0.3 0.3 0.3 0.3 0.3 0.3 0.3 0.3
          0.3 0.3 0.3 0.3 0.3 0.3 0.3 0.3 0.3 0.3 0.3 0.3
          0.3 0.3 0.3 0.3 0.3 0.3 0.3 0.3 0.3 0.3 0.3 0.3
          0.3 0.3 0.3 0.3 0.3 0.3 0.3 0.3 0.3 0.3 0.3 0.3
          0.3 0.3 0.3 0.3 0.3 0.3 0.3 0.3 0.3 0.3 0.3 0.3
          0.3 0.3 0.3 0.3 0.3 0.3 0.3 0.3 0.3 0.3 0.3 0.3
          0.3 0.3 0.3 0.3 0.3 0.3 0.3 0.3 0.3 0.3 0.3 0.3
          0.3 0.3 0.3 0.3 0.3 0.3 0.3 0.3 0.3 0.3 0.3 0.3
          0.3 0.3 0.3 0.3 0.3 0.3 0.3 0.3 0.3 0.3 0.3 0.3
          0.3 0.3 0.3 0.3 0.3 0.3 0.3 0.3 0.3 0.3 0.3 0.3
          0.3 0.3 0.3 0.3 0.3 0.3 0.3 0.3 0.3 0.3 0.3 0.3
          0.3 0.3 0.3 0.3 0.3 0.3 0.3 0.3 0.3 0.3 0.3 0.3
          0.3 0.3 0.3 0.3 0.3 0.3 0.3 0.3 0.3 0.3 0.3 0.3
          0.3 0.3 0.3 0.3 0.3 0.3 0.3 0.3 0.3 0.3 0.3 0.3
          0.3 0.3 0.3 0.3 0.3 0.3 0.3 0.3 0.3 0.3 0.3 0.3
          0.3 0.3 0.3 0.3 0.3 0.3 0.3 0.3 0.3 0.3 0.3 0.3
          0.3 0.3 0.3 0.3 0.3 0.3 0.3 0.3 0.3 0.3 0.3 0.3
          0.3 0.3 0.3 0.3 0.3 0.3 0.3 0.3 0.3 0.3 0.3 0.3
          0.3 0.3 0.3 0.3 0.3 0.3 0.3 0.3 0.3 0.3 0.3 0.3
          0.3 0.3 0.3 0.3 0.3 0.3 0.3 0.3 0.3 0.3 0.3 0.3
          0.3 0.3 0.3 0.3 0.3 0.3 0.3 0.3 0.3 0.3 0.3 0.3
          0.3 0.3 0.3 0.3 0.3
        </DataArray>
        <DataArray type="Float32" Name="x_w^H2O" NumberOfComponents="1" format="ascii">
          0.315483 0.315617 0.315483 0.315554 0.315677 0.315604 0.315709 0.315627 0.315498 0.31549 0.315488 0.315483
          0.315488 0.315483 0.315488 0.315483 0.315543 0.315535 0.317322 0.317221 0.317411 0.317316 0.317607 0.317512
          0.317917 0.317818 0.318355 0.318253 0.318945 0.318835 0.319713 0.319595 0.320697 0.320567 0.321956 0.321806
          0.323779 0.323568 0.329124 0.328467 0.363873 0.359691 0.575911 0.550322 0.999988 0.999988 0.999988 0.999988
          1 1 0.315483 0.315524 0.315555 0.31557 0.315487 0.315483 0.315483 0.315483 0.31553 0.317116
          0.31721 0.317401 0.317699 0.318121 0.318686 0.31942 0.320356 0.321542 0.32316 0.327089 0.351281 0.512939
          0.999988 0.999988 1 0.315483 0.315505 0.315523 0.315532 0.315485 0.315483 0.315483 0.315483 0.315526
          0.317003 0.317093 0.317276 0.317561 0.317962 0.318499 0.319193 0.320075 0.321182 0.322618 0.325383 0.339902
          0.447359 0.999988 0.999988 1 0.315483 0.31549 0.315499 0.315504 0.315484 0.315483 0.315483 0.315483
          0.315521 0.316884 0.316969 0.317141 0.317407 0.317782 0.318281 0.318924 0.319737 0.320747 0.322004 0.323794
          0.328735 0.355979 0.506736 0.999988 1 0.315474 0.315476 0.315479 0.315482 0.315483 0.315483 0.315483
          0.315483 0.315517 0.316759 0.316838 0.316996 0.317241 0.317584 0.318039 0.318622 0.319354 0.320258 0.321376
          0.323085 0.330412 0.394645 0.795998 0.999988 0.999989 0.315458 0.315459 0.31546 0.315461 0.315482 0.315483
          0.315483 0.315483 0.315513 0.316631 0.316702 0.316845 0.317067 0.317375 0.317781 0.318299 0.318943 0.319731
          0.320684 0.321914 0.324693 0.341124 0.438742 0.688287 0.497058 0.315439 0.315439 0.31544 0.31544 0.315481
          0.315483 0.315483 0.315483 0.315509 0.3165 0.316564 0.316691 0.316888 0.31716 0.317515 0.317965 0.31852
          0.319189 0.31998 0.320912 0.322144 0.3252 0.339479 0.375748 0.340857 0.315416 0.315417 0.315417 0.315417
          0.315481 0.315483 0.315483 0.315483 0.315505 0.316369 0.316425 0.316537 0.316708 0.316944 0.317251 0.317634
          0.318101 0.318654 0.319295 0.320013 0.320795 0.321707 0.32343 0.326721 0.324038 0.315391 0.315391 0.315391
          0.315392 0.31548 0.315483 0.315483 0.315483 0.315502 0.31624 0.316288 0.316385 0.316533 0.316734 0.316994
          0.317315 0.317701 0.31815 0.318656 0.319205 0.319763 0.320288 0.320762 0.321179 0.321116 0.315361 0.315361
          0.315362 0.315362 0.315479 0.315483 0.315483 0.315483 0.315498 0.316112 0.316154 0.316237 0.316363 0.316534
          0.316752 0.317017 0.317332 0.317691 0.318087 0.318503 0.318914 0.319285 0.31958 0.319772 0.319829 0.315327
          0.315327 0.315327 0.315328 0.315477 0.315483 0.315483 0.315483 0.315494 0.315987 0.316024 0.316095 0.316203
          0.316347 0.316528 0.316747 0.317001 0.317287 0.317596 0.317913 0.31822 0.318493 0.318708 0.318845 0.318891
          0.315287 0.315287 0.315288 0.315289 0.315476 0.315482 0.315483 0.315483 0.31549 0.315866 0.315898 0.31596
          0.316053 0.316175 0.316327 0.316508 0.316714 0.316943 0.317185 0.317431 0.317664 0.317869 0.318029 0.318131
          0.318166 0.315241 0.315242 0.315243 0.315244 0.315474 0.315482 0.315483 0.315483 0.315486 0.315745 0.315775
          0.315833 0.315915 0.316021 0.31615 0.316302 0.316473 0.316659 0.316853 0.317047 0.317229 0.317388 0.317511
          0.317589 0.317616 0.315186 0.315189 0.315195 0.315191 0.315466 0.315476 0.315478 0.315479 0.31548 0.31562
          0.315656 0.315714 0.31579 0.315885 0.315998 0.316129 0.316276 0.316433 0.316595 0.316755 0.316904 0.317032
          0.317131 0.317194 0.317216 0.315121 0.315125 0.315139 0.315178 0.315206 0.315261 0.315312 0.315364 0.315425
          0.315484 0.315544 0.315606 0.315679 0.315768 0.315872 0.315991 0.316123 0.316263 0.316407 0.316548 0.316677
          0.316789 0.316874 0.316928 0.316947 0.315042 0.315047 0.315064 0.315093 0.315129 0.315175 0.315225 0.315277
          0.315332 0.315389 0.315448 0.315511 0.315584 0.315671 0.315772 0.315887 0.316014 0.316149 0.316286 0.316421
          0.316544 0.31665 0.316731 0.316783 0.3168
        </DataArray>
        <DataArray type="Float32" Name="x_w^N2" NumberOfComponents="1" format="ascii">
          1.14721e-05 1.1477e-05 1.14721e-05 1.14747e-05 1.14792e-05 1.14765e-05 1.14804e-05 1.14774e-05 1.14727e-05 1.14724e-05 1.14723e-05 1.14721e-05
          1.14723e-05 1.14721e-05 1.14723e-05 1.14721e-05 1.14743e-05 1.1474e-05 1.1539e-05 1.15353e-05 1.15422e-05 1.15388e-05 1.15494e-05 1.15459e-05
          1.15606e-05 1.1557e-05 1.15766e-05 1.15728e-05 1.1598e-05 1.1594e-05 1.16259e-05 1.16217e-05 1.16617e-05 1.1657e-05 1.17069e-05 1.17015e-05