<?xml version="1.0"?>
<VTKFile type="UnstructuredGrid" version="0.1" byte_order="LittleEndian">
  <UnstructuredGrid>
    <Piece NumberOfCells="384" NumberOfPoints="425">
      <PointData Scalars="S_w">
        <DataArray type="Float32" Name="S_w" NumberOfComponents="1" format="ascii">
          0 0 0 0 0 0 0 0 0 0 0 0
          0 0 0 0 0 0 0 0 0 0 0 0
          0 0 0 0 0 0 0 0 0 0 0 0
          0 0 0 0 0 0 0 0 0.00702047 0.00533631 0.640719 0.553386
          1 1 0 0 0 0 0 0 0 0 0 0
          0 0 0 0 0 0 0 0 0 0 0 0
          0.00462187 0.557644 1 0 0 0 0 0 0 0 0 0
          0 0 0 0 0 0 0 0 0 0 0 0
          0 0.00247546 0.56045 1 0 0 0 0 0 0 0 0
          0 0 0 0 0 0 0 0 0 0 0 0
          0 0 0 0.473827 1 0 0 0 0 0 0 0
          0 0 0 0 0 0 0 0 0 0 0 0
          0 0 0 0 0.00780742 0.291695 0 0 0 0 0 0
          0 0 0 0 0 0 0 0 0 0 0 0
          0 0 0 0 0 0 0 0 0 0 0 0
          0 0 0 0 0 0 0 0 0 0 0 0
          0 0 0 0 0 0 0 0 0 0 0 0
          0 0 0 0 0 0 0 0 0 0 0 0
          0 0 0 0 0 0 0 0 0 0 0 0
          0 0 0 0 0 0 0 0 0 0 0 0
          0 0 0 0 0 0 0 0 0 0 0 0
          0 0 0 0 0 0 0 0 0 0 0 0
          0 0 0 0 0 0 0 0 0 0 0 0
          0 0 0 0 0 0 0 0 0 0 0 0
          0 0 0 0 0 0 0 0 0 0 0 0
          0 0 0 0 0 0 0 0 0 0 0 0
          0 0 0 0 0 0 0 0 0 0 0 0
          0 0 0 0 0 0 0 0 0 0 0 0
          0 0 0 0 0 0 0 0 0 0 0 0
          0 0 0 0 0 0 0 0 0 0 0 0
          0 0 0 0 0 0 0 0 0 0 0 0
          0 0 0 0 0 0 0 0 0 0 0 0
          0 0 0 0 0 0 0 0 0 0 0 0
          0 0 0 0 0 0 0 0 0 0 0 0
          0 0 0 0 0 0 0 0 0 0 0 0
          0 0 0 0 0
        </DataArray>
        <DataArray type="Float32" Name="S_n" NumberOfComponents="1" format="ascii">
          1 1 1 1 1 1 1 1 1 1 1 1
          1 1 1 1 1 1 1 1 1 1 1 1
          1 1 1 1 1 1 1 1 1 1 1 1
          1 1 1 1 1 1 1 1 0.99298 0.994664 0.359281 0.446614
          0 0 1 1 1 1 1 1 1 1 1 1
          1 1 1 1 1 1 1 1 1 1 1 1
          0.995378 0.442356 0 1 1 1 1 1 1 1 1 1
          1 1 1 1 1 1 1 1 1 1 1 1
          1 0.997525 0.43955 0 1 1 1 1 1 1 1 1
          1 1 1 1 1 1 1 1 1 1 1 1
          1 1 1 0.526173 0 1 1 1 1 1 1 1
          1 1 1 1 1 1 1 1 1 1 1 1
          1 1 1 1 0.992193 0.708305 1 1 1 1 1 1
          1 1 1 1 1 1 1 1 1 1 1 1
          1 1 1 1 1 1 1 1 1 1 1 1
          1 1 1 1 1 1 1 1 1 1 1 1
          1 1 1 1 1 1 1 1 1 1 1 1
          1 1 1 1 1 1 1 1 1 1 1 1
          1 1 1 1 1 1 1 1 1 1 1 1
          1 1 1 1 1 1 1 1 1 1 1 1
          1 1 1 1 1 1 1 1 1 1 1 1
          1 1 1 1 1 1 1 1 1 1 1 1
          1 1 1 1 1 1 1 1 1 1 1 1
          1 1 1 1 1 1 1 1 1 1 1 1
          1 1 1 1 1 1 1 1 1 1 1 1
          1 1 1 1 1 1 1 1 1 1 1 1
          1 1 1 1 1 1 1 1 1 1 1 1
          1 1 1 1 1 1 1 1 1 1 1 1
          1 1 1 1 1 1 1 1 1 1 1 1
          1 1 1 1 1 1 1 1 1 1 1 1
          1 1 1 1 1 1 1 1 1 1 1 1
          1 1 1 1 1 1 1 1 1 1 1 1
          1 1 1 1 1 1 1 1 1 1 1 1
          1 1 1 1 1 1 1 1 1 1 1 1
          1 1 1 1 1 1 1 1 1 1 1 1
          1 1 1 1 1
        </DataArray>
        <DataArray type="Float32" Name="p_w" NumberOfComponents="1" format="ascii">
          100000 100043 100000 100023 100062 100039 100072 100046 100005 100002 100002 100000
          100002 100000 100002 100000 100018 100016 100576 100544 100605 100575 100668 100637
          100767 100736 100908 100875 101097 101063 101344 101306 101658 101617 102056 102009
          102553 102498 103174 103106 103952 103862 104937 104813 106124 106072 110667 109558
          200000 200000 100000 100013 100023 100028 100001 100000 100000 100000 100014 100511
          100541 100602 100698 100834 101015 101250 101550 101926 102393 102966 103663 104505
          105545 108684 200000 100000 100007 100013 100016 100001 100000 100000 100000 100013
          100475 100504 100563 100654 100783 100955 101178 101460 101813 102247 102774 103399
          104107 104773 106974 200000 100000 100002 100005 100007 100000 100000 100000 100000
          100011 100437 100464 100519 100605 100726 100886 101092 101352 101675 102070 102546
          103110 103757 104408 102564 200000 99997.2 99997.8 99999 99999.7 100000 100000 100000
          100000 100010 100397 100422 100473 100552 100662 100808 100995 101230 101519 101870
          102291 102796 103417 104317 107914 97967.4 99992.1 99992.3 99992.8 99993.2 99999.9 100000
          100000 100000 100009 100356 100379 100425 100496 100596 100726 100892 101099 101351
          101654 102013 102439 102953 103618 103566 103082 99985.9 99986 99986.2 99986.5 99999.7
          100000 100000 100000 100008 100315 100335 100376 100439 100527 100641 100786 100963
          101178 101430 101723 102054 102408 102690 102774 102755 99978.8 99978.8 99979 99979.1
          99999.4 100000 100000 100000 100007 100273 100291 100327 100382 100458 100556 100680
          100829 101007 101212 101441 101685 101919 102099 102196 102222 99970.5 99970.5 99970.6
          99970.8 99999.1 100000 100000 100000 100005 100232 100248 100279 100326 100391 100474
          100578 100701 100845 101008 101183 101361 101525 101654 101732 101757 99960.9 99961
          99961.1 99961.3 99998.8 100000 100000 100000 100004 100192 100205 100232 100272 100327
          100397 100482 100583 100698 100825 100959 101091 101209 101302 101361 101381 99949.8
          99949.9 99950 99950.2 99998.4 100000 100000 100000 100003 100152 100164 100187 100221
          100267 100325 100396 100477 100569 100668 100770 100869 100956 101025 101069 101084
          99937 99937.1 99937.3 99937.5 99997.8 100000 100000 100000 100002 100113 100124 100144
          100173 100212 100261 100319 100385 100459 100537 100615 100690 100756 100808 100840
          100852 99922.1 99922.4 99922.8 99922.9 99997.2 99999.9 100000 100000 100001 100075 100085
          100103 100129 100163 100205 100253 100308 100368 100430 100492 100551 100602 100642
          100667 100675 99904.7 99905.4 99907.2 99906 99994.8 99997.8 99998.3 99998.5 99998.5 100036
          100047 100066 100090 100120 100156 100198 100245 100295 100348 100399 100447 100488
          100520 100540 100547 99883.9 99885.2 99889.3 99901.3 99909.2 99925.8 99941 99956.7 99975
          99993.8 100012 100031 100055 100083 100116 100154 100196 100241 100287 100332 100374
          100410 100438 100455 100461 99858.7 99860.2 99865.5 99874.1 99885 99898.5 99913.4 99929.1
          99946 99963.6 99981.8 100001 100024 100052 100084 100121 100162 100205 100249 100292
          100332 100366 100392 100408 100414
        </DataArray>
        <DataArray type="Float32" Name="p_n" NumberOfComponents="1" format="ascii">
          100000 100043 100000 100023 100062 100039 100072 100046 100005 100002 100002 100000
          100002 100000 100002 100000 100018 100016 100576 100544 100605 100575 100668 100637
          100767 100736 100908 100875 101097 101063 101344 101306 101658 101617 102056 102009
          102553 102498 103174 103106 103952 103862 104937 104813 106124 106072 110667 109558
          200000 200000 100000 100013 100023 100028 100001 100000 100000 100000 100014 100511
          100541 100602 100698 100834 101015 101250 101550 101926 102393 102966 103663 104505
          105545 108684 200000 100000 100007 100013 100016 100001 100000 100000 100000 100013
          100475 100504 100563 100654 100783 100955 101178 101460 101813 102247 102774 103399
          104107 104773 106974 200000 100000 100002 100005 100007 100000 100000 100000 100000
          100011 100437 100464 100519 100605 100726 100886 101092 101352 101675 102070 102546
          103110 103757 104408 102564 200000 99997.2 99997.8 99999 99999.7 100000 100000 100000
          100000 100010 100397 100422 100473 100552 100662 100808 100995 101230 101519 101870
          102291 102796 103417 104317 107914 97967.4 99992.1 99992.3 99992.8 99993.2 99999.9 100000
          100000 100000 100009 100356 100379 100425 100496 100596 100726 100892 101099 101351
          101654 102013 102439 102953 103618 103566 103082 99985.9 99986 99986.2 99986.5 99999.7
          100000 100000 100000 100008 100315 100335 100376 100439 100527 100641 100786 100963
          101178 101430 101723 102054 102408 102690 102774 102755 99978.8 99978.8 99979 99979.1
          99999.4 100000 100000 100000 100007 100273 100291 100327 100382 100458 100556 100680
          100829 101007 101212 101441 101685 101919 102099 102196 102222 99970.5 99970.5 99970.6
          99970.8 99999.1 100000 100000 100000 100005 100232 100248 100279 100326 100391 100474
          100578 100701 100845 101008 101183 101361 101525 101654 101732 101757 99960.9 99961
          99961.1 99961.3 99998.8 100000 100000 100000 100004 100192 100205 100232 100272 100327
          100397 100482 100583 100698 100825 100959 101091 101209 101302 101361 101381 99949.8
          99949.9 99950 99950.2 99998.4 100000 100000 100000 100003 100152 100164 100187 100221
          100267 100325 100396 100477 100569 100668 100770 100869 100956 101025 101069 101084
          99937 99937.1 99937.3 99937.5 99997.8 100000 100000 100000 100002 100113 100124 100144
          100173 100212 100261 100319 100385 100459 100537 100615 100690 100756 100808 100840
          100852 99922.1 99922.4 99922.8 99922.9 99997.2 99999.9 100000 100000 100001 100075 100085
          100103 100129 100163 100205 100253 100308 100368 100430 100492 100551 100602 100642
          100667 100675 99904.7 99905.4 99907.2 99906 99994.8 99997.8 99998.3 99998.5 99998.5 100036
          100047 100066 100090 100120 100156 100198 100245 100295 100348 100399 100447 100488
          100520 100540 100547 99883.9 99885.2 99889.3 99901.3 99909.2 99925.8 99941 99956.7 99975
          99993.8 100012 100031 100055 100083 100116 100154 100196 100241 100287 100332 100374
          100410 100438 100455 100461 99858.7 99860.2 99865.5 99874.1 99885 99898.5 99913.4 99929.1
          99946 99963.6 99981.8 100001 100024 100052 100084 100121 100162 100205 100249 100292
          100332 100366 100392 100408 100414
        </DataArray>
        <DataArray type="Float32" Name="rho_w" NumberOfComponents="1" format="ascii">
          997.048 997.048 997.048 997.048 997.048 997.048 997.048 997.048 997.048 997.048 997.048 997.048
          997.048 997.048 997.048 997.048 997.048 997.048 997.048 997.048 997.048 997.048 997.048 997.048
          997.048 997.048 997.048 997.048 997.048 997.048 997.048 997.048 997.048 997.048 997.049 997.049
          997.049 997.049 997.049 997.049 997.049 997.049 997.05 997.05 997.05 997.05 997.052 997.052
          997.093 997.093 997.048 997.048 997.048 997.048 997.048 997.048 997.048 997.048 997.048 997.048
          997.048 997.048 997.048 997.048 997.048 997.048 997.048 997.049 997.049 997.049 997.049 997.05
          997.05 997.052 997.093 997.048 997.048 997.048 997.048 997.048 997.048 997.048 997.048 997.048
          997.048 997.048 997.048 997.048 997.048 997.048 997.048 997.048 997.048 997.049 997.049 997.049
          997.049 997.05 997.051 997.093 997.048 997.048 997.048 997.048 997.048 997.048 997.048 997.048
          997.048 997.048 997.048 997.048 997.048 997.048 997.048 997.048 997.048 997.048 997.049 997.049
          997.049 997.049 997.05 997.049 997.093 997.048 997.048 997.048 997.048 997.048 997.048 997.048
          997.048 997.048 997.048 997.048 997.048 997.048 997.048 997.048 997.048 997.048 997.048 997.049
          997.049 997.049 997.049 997.05 997.051 997.047 997.048 997.048 997.048 997.048 997.048 997.048
          997.048 997.048 997.048 997.048 997.048 997.048 997.048 997.048 997.048 997.048 997.048 997.048
          997.048 997.049 997.049 997.049 997.049 997.049 997.049 997.048 997.048 997.048 997.048 997.048
          997.048 997.048 997.048 997.048 997.048 997.048 997.048 997.048 997.048 997.048 997.048 997.048
          997.048 997.048 997.048 997.049 997.049 997.049 997.049 997.049 997.048 997.048 997.048 997.048
          997.048 997.048 997.048 997.048 997.048 997.048 997.048 997.048 997.048 997.048 997.048 997.048
          997.048 997.048 997.048 997.048 997.048 997.049 997.049 997.049 997.049 997.048 997.048 997.048
          997.048 997.048 997.048 997.048 997.048 997.048 997.048 997.048 997.048 997.048 997.048 997.048
          997.048 997.048 997.048 997.048 997.048 997.048 997.048 997.048 997.048 997.048 997.048 997.048
          997.048 997.048 997.048 997.048 997.048 997.048 997.048 997.048 997.048 997.048 997.048 997.048
          997.048 997.048 997.048 997.048 997.048 997.048 997.048 997.048 997.048 997.048 997.048 997.048
          997.048 997.048 997.048 997.048 997.048 997.048 997.048 997.048 997.048 997.048 997.048 997.048
          997.048 997.048 997.048 997.048 997.048 997.048 997.048 997.048 997.048 997.048 997.048 997.048
          997.048 997.048 997.048 997.048 997.048 997.048 997.048 997.048 997.048 997.048 997.048 997.048
          997.048 997.048 997.048 997.048 997.048 997.048 997.048 997.048 997.048 997.048 997.048 997.048
          997.048 997.048 997.048 997.048 997.048 997.048 997.048 997.048 997.048 997.048 997.048 997.048
          997.048 997.048 997.048 997.048 997.048 997.048 997.048 997.048 997.048 997.048 997.048 997.048
          997.048 997.048 997.048 997.048 997.048 997.048 997.048 997.048 997.048 997.048 997.048 997.048
          997.048 997.048 997.048 997.048 997.048 997.048 997.048 997.048 997.048 997.048 997.048 997.048
          997.048 997.048 997.048 997.048 997.048 997.048 997.048 997.048 997.048 997.048 997.048 997.048
          997.048 997.048 997.048 997.048 997.048 997.048 997.048 997.048 997.048 997.048 997.048 997.048
          997.048 997.048 997.048 997.048 997.048 997.048 997.048 997.048 997.048 997.048 997.048 997.048
          997.048 997.048 997.048 997.048 997.048 997.048 997.048 997.048 997.048 997.048 997.048 997.048
          997.048 997.048 997.048 997.048 997.048
        </DataArray>
        <DataArray type="Float32" Name="rho_n" NumberOfComponents="1" format="ascii">
          1.12601 1.12649 1.12601 1.12627 1.12671 1.12645 1.12682 1.12653 1.12607 1.12604 1.12603 1.12601
          1.12603 1.12601 1.12603 1.12602 1.12622 1.12619 1.1325 1.13214 1.13282 1.13248 1.13353 1.13319
          1.13465 1.1343 1.13624 1.13587 1.13837 1.13798 1.14114 1.14072 1.14469 1.14422 1.14916 1.14863
          1.15476 1.15414 1.16171 1.16095 1.17009 1.16912 1.17867 1.17751 1.18646 1.18588 1.23781 1.22527
          1.45345 1.45345 1.12601 1.12616 1.12627 1.12633 1.12603 1.12601 1.12601 1.12602 1.12617 1.13176
          1.1321 1.13279 1.13387 1.1354 1.13744 1.14009 1.14347 1.1477 1.15296 1.15939 1.16697 1.17447
          1.17993 1.2154 1.45345 1.12601 1.12609 1.12616 1.12619 1.12602 1.12601 1.12601 1.12602 1.12616
          1.13136 1.13169 1.13235 1.13338 1.13483 1.13677 1.13928 1.14246 1.14643 1.15131 1.15723 1.16412
          1.17076 1.17119 1.19608 1.45345 1.12601 1.12604 1.12607 1.12609 1.12602 1.12601 1.12601 1.12601
          1.12614 1.13093 1.13124 1.13186 1.13283 1.13418 1.13599 1.13831 1.14124 1.14487 1.14932 1.15468
          1.16099 1.16797 1.1734 1.14623 1.45345 1.12598 1.12599 1.126 1.12601 1.12601 1.12601 1.12601
          1.12601 1.12613 1.13049 1.13077 1.13134 1.13223 1.13347 1.13512 1.13722 1.13986 1.14312 1.14707
          1.15181 1.15742 1.16364 1.1688 1.20669 1.09429 1.12592 1.12593 1.12593 1.12594 1.12601 1.12601
          1.12601 1.12601 1.12611 1.13003 1.13028 1.1308 1.1316 1.13272 1.13419 1.13606 1.13838 1.14122
          1.14463 1.14868 1.15345 1.15906 1.16535 1.1615 1.15851 1.12585 1.12586 1.12586 1.12586 1.12601
          1.12601 1.12601 1.12601 1.1261 1.12956 1.12979 1.13025 1.13096 1.13194 1.13323 1.13486 1.13686
          1.13927 1.14212 1.14542 1.14914 1.1531 1.15611 1.15659 1.15683 1.12577 1.12577 1.12578 1.12578
          1.12601 1.12601 1.12601 1.12601 1.12609 1.12909 1.12929 1.1297 1.13032 1.13117 1.13228 1.13367
          1.13535 1.13735 1.13966 1.14224 1.14498 1.14762 1.14964 1.15068 1.15101 1.12568 1.12568 1.12568
          1.12568 1.126 1.12601 1.12601 1.12601 1.12607 1.12863 1.1288 1.12915 1.12969 1.13042 1.13135
          1.13252 1.13391 1.13553 1.13736 1.13934 1.14134 1.14319 1.14463 1.14551 1.1458 1.12557 1.12557
          1.12558 1.12558 1.126 1.12601 1.12601 1.12601 1.12606 1.12817 1.12832 1.12862 1.12908 1.1297
          1.13048 1.13144 1.13258 1.13388 1.13531 1.13681 1.13829 1.13963 1.14068 1.14134 1.14157 1.12545
          1.12545 1.12545 1.12545 1.12599 1.12601 1.12601 1.12601 1.12605 1.12773 1.12786 1.12811 1.1285
          1.12902 1.12968 1.13047 1.13139 1.13242 1.13354 1.13468 1.13579 1.13678 1.13755 1.13805 1.13821
          1.1253 1.1253 1.12531 1.12531 1.12599 1.12601 1.12601 1.12601 1.12603 1.12729 1.12741 1.12763
          1.12796 1.12841 1.12895 1.12961 1.13035 1.13118 1.13206 1.13294 1.13379 1.13453 1.13511 1.13548
          1.1356 1.12514 1.12514 1.12514 1.12515 1.12598 1.12601 1.12601 1.12601 1.12602 1.12686 1.12697
          1.12718 1.12747 1.12785 1.12832 1.12886 1.12948 1.13015 1.13086 1.13156 1.13222 1.13279 1.13324
          1.13352 1.13362 1.12494 1.12495 1.12497 1.12495 1.12596 1.12599 1.12599 1.126 1.126 1.12642
          1.12655 1.12675 1.12702 1.12736 1.12777 1.12824 1.12877 1.12934 1.12993 1.1305 1.13104 1.13151
          1.13187 1.13209 1.13217 1.12471 1.12472 1.12477 1.1249 1.12499 1.12518 1.12535 1.12553 1.12573
          1.12594 1.12615 1.12637 1.12663 1.12695 1.12732 1.12775 1.12822 1.12873 1.12925 1.12976 1.13023
          1.13063 1.13094 1.13114 1.1312 1.12442 1.12444 1.1245 1.1246 1.12472 1.12487 1.12504 1.12522
          1.1254 1.1256 1.12581 1.12603 1.12629 1.1266 1.12696 1.12738 1.12783 1.12832 1.12882 1.1293
          1.12975 1.13013 1.13043 1.13061 1.13068
        </DataArray>
        <DataArray type="Float32" Name="lambda_w" NumberOfComponents="1" format="ascii">
          0 0 0 0 0 0 0 0 0 0 0 0
          0 0 0 0 0 0 0 0 0 0 0 0
          0 0 0 0 0 0 0 0 0 0 0 0
          0 0 0 0 0 0 0 0 0.500881 0.288194 728.676 625.099
          1123.58 1123.58 0 0 0 0 0 0 0 0 0 0
          0 0 0 0 0 0 0 0 0 0 0 0
          0.21581 630.15 1123.58 0 0 0 0 0 0 0 0 0
          0 0 0 0 0 0 0 0 0 0 0 0
          0 0.06158 633.477 1123.58 0 0 0 0 0 0 0 0
          0 0 0 0 0 0 0 0 0 0 0 0
          0 0 0 530.743 1123.58 0 0 0 0 0 0 0
          0 0 0 0 0 0 0 0 0 0 0 0
          0 0 0 0 0.620665 314.737 0 0 0 0 0 0
          0 0 0 0 0 0 0 0 0 0 0 0
          0 0 0 0 0 0 0 0 0 0 0 0
          0 0 0 0 0 0 0 0 0 0 0 0
          0 0 0 0 0 0 0 0 0 0 0 0
          0 0 0 0 0 0 0 0 0 0 0 0
          0 0 0 0 0 0 0 0 0 0 0 0
          0 0 0 0 0 0 0 0 0 0 0 0
          0 0 0 0 0 0 0 0 0 0 0 0
          0 0 0 0 0 0 0 0 0 0 0 0
          0 0 0 0 0 0 0 0 0 0 0 0
          0 0 0 0 0 0 0 0 0 0 0 0
          0 0 0 0 0 0 0 0 0 0 0 0
          0 0 0 0 0 0 0 0 0 0 0 0
          0 0 0 0 0 0 0 0 0 0 0 0
          0 0 0 0 0 0 0 0 0 0 0 0
          0 0 0 0 0 0 0 0 0 0 0 0
          0 0 0 0 0 0 0 0 0 0 0 0
          0 0 0 0 0 0 0 0 0 0 0 0
          0 0 0 0 0 0 0 0 0 0 0 0
          0 0 0 0 0 0 0 0 0 0 0 0
          0 0 0 0 0 0 0 0 0 0 0 0
          0 0 0 0 0 0 0 0 0 0 0 0
          0 0 0 0 0
        </DataArray>
        <DataArray type="Float32" Name="lambda_n" NumberOfComponents="1" format="ascii">
          56746.7 56746.7 56746.7 56746.7 56746.7 56746.7 56746.7 56746.7 56746.7 56746.7 56746.7 56746.7
          56746.7 56746.7 56746.7 56746.7 56746.7 56746.7 56746.7 56746.7 56746.7 56746.7 56746.7 56746.7
          56746.7 56746.7 56746.7 56746.7 56746.7 56746.7 56746.7 56746.7 56746.7 56746.7 56746.7 56746.7
          56746.7 56746.7 56746.7 56746.7 56746.7 56746.7 56746.7 56746.7 56721.4 56732.2 19944.4 25175.6
          0 0 56746.7 56746.7 56746.7 56746.7 56746.7 56746.7 56746.7 56746.7 56746.7 56746.7
          56746.7 56746.7 56746.7 56746.7 56746.7 56746.7 56746.7 56746.7 56746.7 56746.7 56746.7 56746.7
          56735.8 24920.5 0 56746.7 56746.7 56746.7 56746.7 56746.7 56746.7 56746.7 56746.7 56746.7
          56746.7 56746.7 56746.7 56746.7 56746.7 56746.7 56746.7 56746.7 56746.7 56746.7 56746.7 56746.7
          56746.7 56743.6 24752.5 0 56746.7 56746.7 56746.7 56746.7 56746.7 56746.7 56746.7 56746.7
          56746.7 56746.7 56746.7 56746.7 56746.7 56746.7 56746.7 56746.7 56746.7 56746.7 56746.7 56746.7
          56746.7 56746.7 56746.7 29941.1 0 56746.7 56746.7 56746.7 56746.7 56746.7 56746.7 56746.7
          56746.7 56746.7 56746.7 56746.7 56746.7 56746.7 56746.7 56746.7 56746.7 56746.7 56746.7 56746.7
          56746.7 56746.7 56746.7 56746.7 56715.4 40850.7 56746.7 56746.7 56746.7 56746.7 56746.7 56746.7
          56746.7 56746.7 56746.7 56746.7 56746.7 56746.7 56746.7 56746.7 56746.7 56746.7 56746.7 56746.7
          56746.7 56746.7 56746.7 56746.7 56746.7 56746.7 56746.7 56746.7 56746.7 56746.7 56746.7 56746.7
          56746.7 56746.7 56746.7 56746.7 56746.7 56746.7 56746.7 56746.7 56746.7 56746.7 56746.7 56746.7
          56746.7 56746.7 56746.7 56746.7 56746.7 56746.7 56746.7 56746.7 56746.7 56746.7 56746.7 56746.7
          56746.7 56746.7 56746.7 56746.7 56746.7 56746.7 56746.7 56746.7 56746.7 56746.7 56746.7 56746.7
          56746.7 56746.7 56746.7 56746.7 56746.7 56746.7 56746.7 56746.7 56746.7 56746.7 56746.7 56746.7
          56746.7 56746.7 56746.7 56746.7 56746.7 56746.7 56746.7 56746.7 56746.7 56746.7 56746.7 56746.7
          56746.7 56746.7 56746.7 56746.7 56746.7 56746.7 56746.7 56746.7 56746.7 56746.7 56746.7 56746.7
          56746.7 56746.7 56746.7 56746.7 56746.7 56746.7 56746.7 56746.7 56746.7 56746.7 56746.7 56746.7
          56746.7 56746.7 56746.7 56746.7 56746.7 56746.7 56746.7 56746.7 56746.7 56746.7 56746.7 56746.7
          56746.7 56746.7 56746.7 56746.7 56746.7 56746.7 56746.7 56746.7 56746.7 56746.7 56746.7 56746.7
          56746.7 56746.7 56746.7 56746.7 56746.7 56746.7 56746.7 56746.7 56746.7 56746.7 56746.7 56746.7
          56746.7 56746.7 56746.7 56746.7 56746.7 56746.7 56746.7 56746.7 56746.7 56746.7 56746.7 56746.7
          56746.7 56746.7 56746.7 56746.7 56746.7 56746.7 56746.7 56746.7 56746.7 56746.7 56746.7 56746.7
          56746.7 56746.7 56746.7 56746.7 56746.7 56746.7 56746.7 56746.7 56746.7 56746.7 56746.7 56746.7
          56746.7 56746.7 56746.7 56746.7 56746.7 56746.7 56746.7 56746.7 56746.7 56746.7 56746.7 56746.7
          56746.7 56746.7 56746.7 56746.7 56746.7 56746.7 56746.7 56746.7 56746.7 56746.7 56746.7 56746.7
          56746.7 56746.7 56746.7 56746.7 56746.7 56746.7 56746.7 56746.7 56746.7 56746.7 56746.7 56746.7
          56746.7 56746.7 56746.7 56746.7 56746.7 56746.7 56746.7 56746.7 56746.7 56746.7 56746.7 56746.7
          56746.7 56746.7 56746.7 56746.7 56746.7 56746.7 56746.7 56746.7 56746.7 56746.7 56746.7 56746.7
          56746.7 56746.7 56746.7 56746.7 56746.7 56746.7 56746.7 56746.7 56746.7 56746.7 56746.7 56746.7
          56746.7 56746.7 56746.7 56746.7 56746.7 56746.7 56746.7 56746.7 56746.7 56746.7 56746.7 56746.7
          56746.7 56746.7 56746.7 56746.7 56746.7
        </DataArray>
        <DataArray type="Float32" Name="porosity" NumberOfComponents="1" format="ascii">
          0.3 0.3 0.3 0.3 0.3 0.3 0.3 0.3 0.3 0.3 0.3 0.3
          0.3 0.3 0.3 0.3 0.3 0.3 0.3 0.3 0.3 0.3 0.3 0.3
          0.3 0.3 0.3 0.3 0.3 0.3 0.3 0.3 0.3 0.3 0.3 0.3
          0.3 0.3 0.3 0.3 0.3 0.3 0.3 0.3 0.3 0.3 0.3 0.3
          0.3 0.3 0.3 0.3 0.3 0.3 0.3 0.3 0.3 0.3 0.3 0.3
          0.3 0.3 0.3 0.3 0.3 0.3 0.3 0.3 0.3 0.3 0.3 0.3
          0.3 0.3 0.3 0.3 0.3 0.3 0.3 0.3 0.3 0.3 0.3 0.3
          0.3 0.3 0.3 0.3 0.3 0.3 0.3 0.3 0.3 0.3 0.3 0.3
          0.3 0.3 0.3 0.3 0.3 0.3 0.3 0.3 0.3 0.3 0.3 0.3
          0.3 0.3 0.3 0.3 0.3 0.3 0.3 0.3 0.3 0.3 0.3 0.3
          0.3 0.3 0.3 0.3 0.3 0.3 0.3 0.3 0.3 0.3 0.3 0.3
          0.3 0.3 0.3 0.3 0.3 0.3 0.3 0.3 0.3 0.3 0.3 0.3
          0.3 0.3 0.3 0.3 0.3 0.3 0.3 0.3 0.3 0.3 0.3 0.3
          0.3 0.3 0.3 0.3 0.3 0.3 0.3 0.3 0.3 0.3 0.3 0.3
          0.3 0.3 0.3 0.3 0.3 0.3 0.3 0.3 0.3 0.3 0.3 0.3
          0.3 0.3 0.3 0.3 0.3 0.3 0.3 0.3 0.3 0.3 0.3 0.3
          0.3 0.3 0.3 0.3 0.3 0.3 0.3 0.3 0.3 0.3 0.3 0.3
          0.3 0.3 0.3 0.3 0.3 0.3 0.3 0.3 0.3 0.3 0.3 0.3
          0.3 0.3 0.3 0.3 0.3 0.3 0.3 0.3 0.3 0.3 0.3 0.3
          0.3 0.3 0.3 0.3 0.3 0.3 0.3 0.3 0.3 0.3 0.3 0.3
          0.3 0.3 0.3 0.3 0.3 0.3 0.3 0.3 0.3 0.3 0.3 0.3
          0.3 0.3 0.3 0.3 0.3 0.3 0.3 0.3 0.3 0.3 0.3 0.3
          0.3 0.3 0.3 0.3 0.3 0.3 0.3 0.3 0.3 0.3 0.3 0.3
          0.3 0.3 0.3 0.3 0.3 0.3 0.3 0.3 0.3 0.3 0.3 0.3
          0.3 0.3 0.3 0.3 0.3 0.3 0.3 0.3 0.3 0.3 0.3 0.3
          0.3 0.3 0.3 0.3 0.3 0.3 0.3 0.3 0.3 0.3 0.3 0.3
          0.3 0.3 0.3 0.3 0.3 0.3 0.3 0.3 0.3 0.3 0.3 0.3
          0.3 0.3 0.3 0.3 0.3 0.3 0.3 0.3 0.3 0.3 0.3 0.3
          0.3 0.3 0.3 0.3 0.3 0.3 0.3 0.3 0.3 0.3 0.3 0.3
          0.3 0.3 0.3 0.3 0.3 0.3 0.3 0.3 0.3 0.3 0.3 0.3
          0.3 0.3 0.3 0.3 0.3 0.3 0.3 0.3 0.3 0.3 0.3 0.3
          0.3 0.3 0.3 0.3 0.3 0.3 0.3 0.3 0.3 0.3 0.3 0.3
          0.3 0.3 0.3 0.3 0.3 0.3 0.3 0.3 0.3 0.3 0.3 0.3
          0.3 0.3 0.3 0.3 0.3 0.3 0.3 0.3 0.3 0.3 0.3 0.3
          0.3 0.3 0.3 0.3 0.3 0.3 0.3 0.3 0.3 0.3 0.3 0.3
          0.3 0.3 0.3 0.3 0.3
        </DataArray>
        <DataArray type="Float32" Name="x_w^H2O" NumberOfComponents="1" format="ascii">
          0.315483 0.315618 0.315483 0.315555 0.315678 0.315604 0.31571 0.315627 0.315498 0.31549 0.315488 0.315483
          0.315488 0.315483 0.315488 0.315483 0.31554 0.315532 0.3173 0.317199 0.31739 0.317296 0.317589 0.317494
          0.317903 0.317805 0.318348 0.318245 0.318944 0.318835 0.319721 0.319603 0.320715 0.320584 0.32198 0.32183
          0.323765 0.323563 0.328718 0.328149 0.361085 0.357737 0.560375 0.541892 0.999988 0.999988 0.999988 0.999988
          1 1 0.315483 0.315524 0.315555 0.315571 0.315487 0.315483 0.315483 0.315483 0.315527 0.317094
          0.317189 0.317382 0.317685 0.318112 0.318684 0.319427 0.320373 0.321566 0.323167 0.326876 0.349891 0.507278
          0.999988 0.999988 1 0.315483 0.315505 0.315523 0.315532 0.315485 0.315483 0.315483 0.315483 0.315523
          0.316981 0.317072 0.317258 0.317547 0.317953 0.318496 0.319199 0.32009 0.321205 0.322637 0.325293 0.339226
          0.445429 0.999988 0.999988 1 0.315483 0.31549 0.315499 0.315504 0.315484 0.315483 0.315483 0.315483
          0.315519 0.316861 0.316947 0.317121 0.317392 0.317771 0.318277 0.318928 0.319749 0.320768 0.32203 0.323787
          0.328482 0.354898 0.505637 0.999988 1 0.315474 0.315476 0.315479 0.315482 0.315483 0.315483 0.315483
          0.315483 0.315515 0.316736 0.316816 0.316976 0.317225 0.317572 0.318033 0.318623 0.319363 0.320275 0.321399
          0.323072 0.330071 0.392622 0.783975 0.999988 0.999989 0.315458 0.315458 0.31546 0.315461 0.315482 0.315483
          0.315483 0.315483 0.315511 0.316607 0.316679 0.316825 0.317049 0.317361 0.317773 0.318297 0.318949 0.319744
          0.320704 0.321927 0.324583 0.340357 0.436313 0.691544 0.498017 0.315438 0.315439 0.315439 0.31544 0.315482
          0.315483 0.315483 0.315483 0.315507 0.316476 0.316541 0.31667 0.316869 0.317145 0.317505 0.317961 0.318522
          0.319198 0.319996 0.320932 0.322144 0.325046 0.33881 0.375598 0.340526 0.315416 0.315416 0.315416 0.315417
          0.315481 0.315483 0.315483 0.315483 0.315503 0.316345 0.316402 0.316515 0.316689 0.316928 0.317238 0.317627
          0.318099 0.318659 0.319305 0.32003 0.320814 0.321707 0.323341 0.326573 0.32397 0.315389 0.31539 0.31539
          0.315391 0.31548 0.315483 0.315483 0.315483 0.3155 0.316215 0.316264 0.316362 0.316512 0.316716 0.316979
          0.317305 0.317695 0.318149 0.318661 0.319215 0.319779 0.320306 0.320772 0.321178 0.321128 0.315359 0.315359
          0.31536 0.31536 0.315479 0.315483 0.315483 0.315483 0.315496 0.316087 0.316129 0.316214 0.316341 0.316514
          0.316735 0.317004 0.317322 0.317686 0.318086 0.318508 0.318923 0.319298 0.319595 0.319787 0.319846 0.315324
          0.315324 0.315325 0.315326 0.315477 0.315483 0.315483 0.315483 0.315492 0.315962 0.315999 0.316071 0.31618
          0.316326 0.316509 0.316731 0.316988 0.317278 0.31759 0.317912 0.318223 0.318499 0.318716 0.318854 0.318901
          0.315284 0.315284 0.315285 0.315286 0.315476 0.315483 0.315483 0.315483 0.315489 0.31584 0.315873 0.315936
          0.316029 0.316153 0.316306 0.316489 0.316699 0.31693 0.317176 0.317424 0.317661 0.317868 0.318031 0.318134
          0.318169 0.315237 0.315238 0.315239 0.315239 0.315474 0.315482 0.315483 0.315483 0.315485 0.31572 0.31575
          0.315808 0.315891 0.315998 0.316128 0.316281 0.316454 0.316643 0.31684 0.317036 0.317221 0.317382 0.317507
          0.317586 0.317613 0.315182 0.315184 0.31519 0.315186 0.315466 0.315476 0.315477 0.315478 0.315478 0.315596
          0.315632 0.315689 0.315766 0.315861 0.315975 0.316108 0.316256 0.316415 0.316579 0.316741 0.316892 0.317022
          0.317123 0.317186 0.317208 0.315116 0.31512 0.315133 0.315171 0.315196 0.315249 0.315297 0.315346 0.315404
          0.315463 0.315521 0.315582 0.315655 0.315744 0.315849 0.315969 0.316102 0.316244 0.316389 0.316532 0.316663
          0.316776 0.316863 0.316918 0.316937 0.315037 0.315042 0.315058 0.315085 0.31512 0.315162 0.31521 0.315259
          0.315312 0.315368 0.315425 0.315487 0.31556 0.315647 0.315748 0.315864 0.315992 0.316129 0.316268 0.316404
          0.316529 0.316637 0.316719 0.316771 0.316789
        </DataArray>
        <DataArray type="Float32" Name="x_w^N2" NumberOfComponents="1" format="ascii">
          1.14721e-05 1.1477e-05 1.14721e-05 1.14747e-05 1.14792e-05 1.14765e-05 1.14804e-05 1.14774e-05 1.14727e-05 1.14724e-05 1.14723e-05 1.14721e-05
          1.14723e-05 1.14721e-05 1.14723e-05 1.14721e-05 1.14742e-05 1.14739e-05 1.15382e-05 1.15345e-05 1.15415e-05 1.1538e-05 1.15487e-05 1.15452e-05
          1.15601e-05 1.15565e-05 1.15763e-05 1.15725e-05 1.1598e-05 1.1594e-05 1.16262e-05 1.16219e-05 1.16624e-05 1.16576e-05 1.17079e-05 1.17025e-05