<?xml version="1.0"?>
<VTKFile type="UnstructuredGrid" version="0.1" byte_order="LittleEndian">
  <UnstructuredGrid>
    <Piece NumberOfCells="384" NumberOfPoints="425">
      <CellData Scalars="S_w">
        <DataArray type="Float32" Name="S_w" NumberOfComponents="1" format="ascii">
          0 0 0 0 0 0 0 0 0 0 0 0
          0 0 0 0 0 0 0 0 0 0.000121468 0.0661699 0.945601
          0 0 0 0 0 0 0 0 0 0 0 0
          0 0 0 0 0 0 0 0 0 7.2968e-05 0.0520907 0.918706
          0 0 0 0 0 0 0 0 0 0 0 0
          0 0 0 0 0 0 0 0 0 5.04118e-05 0.048379 0.926554
          0 0 0 0 0 0 0 0 0 0 0 0
          0 0 0 0 0 0 0 0 0 1.19802e-05 0.0358665 0.92649
          0 0 0 0 0 0 0 0 0 0 0 0
          0 0 0 0 0 0 0 0 0 0 0 0
          0 0 0 0 0 0 0 0 0 0 0 0
          0 0 0 0 0 0 0 0 0 0 0 0
          0 0 0 0 0 0 0 0 0 0 0 0
          0 0 0 0 0 0 0 0 0 0 0 0
          0 0 0 0 0 0 0 0 0 0 0 0
          0 0 0 0 0 0 0 0 0 0 0 0
          0 0 0 0 0 0 0 0 0 0 0 0
          0 0 0 0 0 0 0 0 0 0 0 0
          0 0 0 0 0 0 0 0 0 0 0 0
          0 0 0 0 0 0 0 0 0 0 0 0
          0 0 0 0 0 0 0 0 0 0 0 0
          0 0 0 0 0 0 0 0 0 0 0 0
          0 0 0 0 0 0 0 0 0 0 0 0
          0 0 0 0 0 0 0 0 0 0 0 0
          0 0 0 0 0 0 0 0 0 0 0 0
          0 0 0 0 0 0 0 0 0 0 0 0
          0 0 0 0 0 0 0 0 0 0 0 0
          0 0 0 0 0 0 0 0 0 0 0 0
          0 0 0 0 0 0 0 0 0 0 0 0
          0 0 0 0 0 0 0 0 0 0 0 0
          0 0 0 0 0 0 0 0 0 0 0 0
          0 0 0 0 0 0 0 0 0 0 0 0
        </DataArray>
        <DataArray type="Float32" Name="S_n" NumberOfComponents="1" format="ascii">
          1 1 1 1 1 1 1 1 1 1 1 1
          1 1 1 1 1 1 1 1 1 0.999879 0.93383 0.0543986
          1 1 1 1 1 1 1 1 1 1 1 1
          1 1 1 1 1 1 1 1 1 0.999927 0.947909 0.0812942
          1 1 1 1 1 1 1 1 1 1 1 1
          1 1 1 1 1 1 1 1 1 0.99995 0.951621 0.0734462
          1 1 1 1 1 1 1 1 1 1 1 1
          1 1 1 1 1 1 1 1 1 0.999988 0.964134 0.0735104
          1 1 1 1 1 1 1 1 1 1 1 1
          1 1 1 1 1 1 1 1 1 1 1 1
          1 1 1 1 1 1 1 1 1 1 1 1
          1 1 1 1 1 1 1 1 1 1 1 1
          1 1 1 1 1 1 1 1 1 1 1 1
          1 1 1 1 1 1 1 1 1 1 1 1
          1 1 1 1 1 1 1 1 1 1 1 1
          1 1 1 1 1 1 1 1 1 1 1 1
          1 1 1 1 1 1 1 1 1 1 1 1
          1 1 1 1 1 1 1 1 1 1 1 1
          1 1 1 1 1 1 1 1 1 1 1 1
          1 1 1 1 1 1 1 1 1 1 1 1
          1 1 1 1 1 1 1 1 1 1 1 1
          1 1 1 1 1 1 1 1 1 1 1 1
          1 1 1 1 1 1 1 1 1 1 1 1
          1 1 1 1 1 1 1 1 1 1 1 1
          1 1 1 1 1 1 1 1 1 1 1 1
          1 1 1 1 1 1 1 1 1 1 1 1
          1 1 1 1 1 1 1 1 1 1 1 1
          1 1 1 1 1 1 1 1 1 1 1 1
          1 1 1 1 1 1 1 1 1 1 1 1
          1 1 1 1 1 1 1 1 1 1 1 1
          1 1 1 1 1 1 1 1 1 1 1 1
          1 1 1 1 1 1 1 1 1 1 1 1
        </DataArray>
        <DataArray type="Float32" Name="p_w" NumberOfComponents="1" format="ascii">
          100021 100046 100060 100066 100004 100001 100001 100020 100689 100734 100825 100967
          101169 101442 101801 102263 102850 103588 104507 105638 107017 108670 110666 146617
          100011 100029 100040 100045 100002 100000 100000 100018 100655 100699 100787 100926
          101123 101389 101737 102184 102751 103460 104340 105421 106740 108343 110359 138736
          100007 100018 100026 100030 100001 100000 100000 100016 100615 100656 100741 100873
          101060 101311 101639 102059 102587 103243 104049 105029 106209 107625 109366 135967
          100004 100011 100016 100018 100001 100000 100000 100015 100569 100608 100687 100810
          100983 101214 101515 101896 102372 102955 103661 104499 105479 106603 107897 128463
          100002 100005 100008 100009 100000 100000 100000 100013 100520 100555 100627 100738
          100895 101103 101371 101708 102122 102623 103215 103896 104649 105427 106095 106250
          99998 99999.1 100000 100001 100000 100000 100000 100012 100467 100499 100563 100662
          100801 100983 101216 101506 101857 102274 102755 103289 103852 104394 104821 105008
          99992.1 99992.6 99993.2 99993.6 99999.9 100000 100000 100010 100413 100441 100497 100584
          100704 100861 101059 101302 101593 101932 102313 102724 103141 103524 103818 103968
          99985.2 99985.4 99985.7 99986 99999.6 100000 100000 100009 100359 100383 100432 100506
          100607 100740 100906 101106 101342 101612 101910 102222 102530 102805 103012 103122
          99977.2 99977.4 99977.6 99977.8 99999.4 100000 100000 100007 100306 100327 100367 100430
          100515 100625 100761 100924 101113 101325 101555 101790 102018 102216 102364 102442
          99968.1 99968.3 99968.5 99968.7 99999 100000 100000 100006 100254 100272 100306 100358
          100429 100519 100630 100761 100910 101075 101251 101428 101596 101740 101846 101902
          99957.8 99958 99958.4 99958.7 99998.6 100000 100000 100004 100205 100219 100248 100292
          100350 100424 100513 100617 100735 100863 100997 101131 101255 101360 101437 101478
          99945.8 99946.2 99946.9 99947.5 99998.2 100000 100000 100003 100157 100170 100195 100231
          100279 100340 100412 100495 100588 100688 100791 100891 100984 101062 101118 101148
          99931.9 99932.7 99934.1 99935.4 99997.6 100000 100000 100002 100111 100123 100145 100176
          100217 100267 100326 100393 100467 100546 100626 100704 100774 100833 100875 100897
          99915.7 99917.1 99919.8 99923.1 99995.2 99998.5 99999 99999.5 100066 100079 100100 100128
          100163 100206 100256 100311 100372 100436 100500 100562 100617 100663 100696 100713
          99896.3 99898.5 99903.4 99912.7 99932.1 99949.7 99968.1 99989.3 100017 100037 100060 100086
          100118 100156 100200 100248 100300 100355 100409 100461 100507 100545 100572 100586
          99873 99875.6 99881.3 99891.1 99906 99922.4 99940.1 99959.9 99981.9 100003 100025 100051
          100082 100117 100158 100203 100251 100301 100350 100397 100439 100473 100497 100510
        </DataArray>
        <DataArray type="Float32" Name="p_n" NumberOfComponents="1" format="ascii">
          100021 100046 100060 100066 100004 100001 100001 100020 100689 100734 100825 100967
          101169 101442 101801 102263 102850 103588 104507 105638 107017 108670 110666 146617
          100011 100029 100040 100045 100002 100000 100000 100018 100655 100699 100787 100926
          101123 101389 101737 102184 102751 103460 104340 105421 106740 108343 110359 138736
          100007 100018 100026 100030 100001 100000 100000 100016 100615 100656 100741 100873
          101060 101311 101639 102059 102587 103243 104049 105029 106209 107625 109366 135967
          100004 100011 100016 100018 100001 100000 100000 100015 100569 100608 100687 100810
          100983 101214 101515 101896 102372 102955 103661 104499 105479 106603 107897 128463
          100002 100005 100008 100009 100000 100000 100000 100013 100520 100555 100627 100738
          100895 101103 101371 101708 102122 102623 103215 103896 104649 105427 106095 106250
          99998 99999.1 100000 100001 100000 100000 100000 100012 100467 100499 100563 100662
          100801 100983 101216 101506 101857 102274 102755 103289 103852 104394 104821 105008
          99992.1 99992.6 99993.2 99993.6 99999.9 100000 100000 100010 100413 100441 100497 100584
          100704 100861 101059 101302 101593 101932 102313 102724 103141 103524 103818 103968
          99985.2 99985.4 99985.7 99986 99999.6 100000 100000 100009 100359 100383 100432 100506
          100607 100740 100906 101106 101342 101612 101910 102222 102530 102805 103012 103122
          99977.2 99977.4 99977.6 99977.8 99999.4 100000 100000 100007 100306 100327 100367 100430
          100515 100625 100761 100924 101113 101325 101555 101790 102018 102216 102364 102442
          99968.1 99968.3 99968.5 99968.7 99999 100000 100000 100006 100254 100272 100306 100358
          100429 100519 100630 100761 100910 101075 101251 101428 101596 101740 101846 101902
          99957.8 99958 99958.4 99958.7 99998.6 100000 100000 100004 100205 100219 100248 100292
          100350 100424 100513 100617 100735 100863 100997 101131 101255 101360 101437 101478
          99945.8 99946.2 99946.9 99947.5 99998.2 100000 100000 100003 100157 100170 100195 100231
          100279 100340 100412 100495 100588 100688 100791 100891 100984 101062 101118 101148
          99931.9 99932.7 99934.1 99935.4 99997.6 100000 100000 100002 100111 100123 100145 100176
          100217 100267 100326 100393 100467 100546 100626 100704 100774 100833 100875 100897
          99915.7 99917.1 99919.8 99923.1 99995.2 99998.5 99999 99999.5 100066 100079 100100 100128
          100163 100206 100256 100311 100372 100436 100500 100562 100617 100663 100696 100713
          99896.3 99898.5 99903.4 99912.7 99932.1 99949.7 99968.1 99989.3 100017 100037 100060 100086
          100118 100156 100200 100248 100300 100355 100409 100461 100507 100545 100572 100586
          99873 99875.6 99881.3 99891.1 99906 99922.4 99940.1 99959.9 99981.9 100003 100025 100051
          100082 100117 100158 100203 100251 100301 100350 100397 100439 100473 100497 100510
        </DataArray>
        <DataArray type="Float32" Name="rho_w" NumberOfComponents="1" format="ascii">
          997.048 997.048 997.048 997.048 997.048 997.048 997.048 997.048 997.048 997.048 997.048 997.048
          997.048 997.048 997.048 997.049 997.049 997.049 997.05 997.05 997.051 997.052 997.052 997.069
          997.048 997.048 997.048 997.048 997.048 997.048 997.048 997.048 997.048 997.048 997.048 997.048
          997.048 997.048 997.048 997.049 997.049 997.049 997.05 997.05 997.051 997.051 997.052 997.065
          997.048 997.048 997.048 997.048 997.048 997.048 997.048 997.048 997.048 997.048 997.048 997.048
          997.048 997.048 997.048 997.049 997.049 997.049 997.049 997.05 997.05 997.051 997.052 997.064
          997.048 997.048 997.048 997.048 997.048 997.048 997.048 997.048 997.048 997.048 997.048 997.048
          997.048 997.048 997.048 997.049 997.049 997.049 997.049 997.05 997.05 997.051 997.051 997.06
          997.048 997.048 997.048 997.048 997.048 997.048 997.048 997.048 997.048 997.048 997.048 997.048
          997.048 997.048 997.048 997.048 997.049 997.049 997.049 997.049 997.05 997.05 997.05 997.05
          997.048 997.048 997.048 997.048 997.048 997.048 997.048 997.048 997.048 997.048 997.048 997.048
          997.048 997.048 997.048 997.048 997.049 997.049 997.049 997.049 997.049 997.05 997.05 997.05
          997.048 997.048 997.048 997.048 997.048 997.048 997.048 997.048 997.048 997.048 997.048 997.048
          997.048 997.048 997.048 997.048 997.048 997.049 997.049 997.049 997.049 997.049 997.049 997.049
          997.048 997.048 997.048 997.048 997.048 997.048 997.048 997.048 997.048 997.048 997.048 997.048
          997.048 997.048 997.048 997.048 997.048 997.048 997.049 997.049 997.049 997.049 997.049 997.049
          997.048 997.048 997.048 997.048 997.048 997.048 997.048 997.048 997.048 997.048 997.048 997.048
          997.048 997.048 997.048 997.048 997.048 997.048 997.048 997.048 997.049 997.049 997.049 997.049
          997.048 997.048 997.048 997.048 997.048 997.048 997.048 997.048 997.048 997.048 997.048 997.048
          997.048 997.048 997.048 997.048 997.048 997.048 997.048 997.048 997.048 997.048 997.049 997.049
          997.048 997.048 997.048 997.048 997.048 997.048 997.048 997.048 997.048 997.048 997.048 997.048
          997.048 997.048 997.048 997.048 997.048 997.048 997.048 997.048 997.048 997.048 997.048 997.048
          997.048 997.048 997.048 997.048 997.048 997.048 997.048 997.048 997.048 997.048 997.048 997.048
          997.048 997.048 997.048 997.048 997.048 997.048 997.048 997.048 997.048 997.048 997.048 997.048
          997.048 997.048 997.048 997.048 997.048 997.048 997.048 997.048 997.048 997.048 997.048 997.048
          997.048 997.048 997.048 997.048 997.048 997.048 997.048 997.048 997.048 997.048 997.048 997.048
          997.048 997.048 997.048 997.048 997.048 997.048 997.048 997.048 997.048 997.048 997.048 997.048
          997.048 997.048 997.048 997.048 997.048 997.048 997.048 997.048 997.048 997.048 997.048 997.048
          997.048 997.048 997.048 997.048 997.048 997.048 997.048 997.048 997.048 997.048 997.048 997.048
          997.048 997.048 997.048 997.048 997.048 997.048 997.048 997.048 997.048 997.048 997.048 997.048
          997.048 997.048 997.048 997.048 997.048 997.048 997.048 997.048 997.048 997.048 997.048 997.048
          997.048 997.048 997.048 997.048 997.048 997.048 997.048 997.048 997.048 997.048 997.048 997.048
        </DataArray>
        <DataArray type="Float32" Name="rho_n" NumberOfComponents="1" format="ascii">
          1.12625 1.12653 1.12669 1.12676 1.12606 1.12602 1.12603 1.12624 1.13378 1.13428 1.1353 1.1369
          1.13918 1.14226 1.14629 1.1515 1.15811 1.16641 1.17672 1.18916 1.20298 1.21524 1.23779 1.64405
          1.12614 1.12634 1.12646 1.12652 1.12604 1.12601 1.12602 1.12621 1.13339 1.13388 1.13488 1.13644
          1.13866 1.14165 1.14557 1.15061 1.15699 1.16497 1.17485 1.18675 1.19995 1.21154 1.23432 1.55499
          1.12609 1.12622 1.1263 1.12635 1.12603 1.12601 1.12602 1.1262 1.13294 1.1334 1.13436 1.13584
          1.13795 1.14078 1.14447 1.14919 1.15514 1.16253 1.17158 1.18239 1.19418 1.20343 1.2231 1.5237
          1.12606 1.12613 1.12619 1.12622 1.12602 1.12601 1.12602 1.12618 1.13242 1.13286 1.13375 1.13513
          1.13708 1.13969 1.14307 1.14736 1.15272 1.15929 1.16722 1.17651 1.1863 1.19188 1.2065 1.43891
          1.12604 1.12607 1.1261 1.12611 1.12602 1.12601 1.12601 1.12616 1.13187 1.13226 1.13307 1.13433
          1.13609 1.13843 1.14145 1.14524 1.14991 1.15555 1.16221 1.16985 1.17809 1.1855 1.19139 1.1929
          1.12599 1.126 1.12602 1.12603 1.12602 1.12601 1.12601 1.12614 1.13128 1.13163 1.13235 1.13347
          1.13503 1.13708 1.13971 1.14297 1.14693 1.15162 1.15703 1.16304 1.16935 1.17526 1.17962 1.1815
          1.12592 1.12593 1.12594 1.12594 1.12601 1.12601 1.12601 1.12613 1.13067 1.13098 1.13161 1.13259
          1.13394 1.1357 1.13794 1.14068 1.14395 1.14776 1.15206 1.15669 1.16138 1.16567 1.16892 1.17055
          1.12585 1.12585 1.12585 1.12586 1.12601 1.12601 1.12601 1.12611 1.13006 1.13033 1.13087 1.13171
          1.13285 1.13435 1.13621 1.13847 1.14113 1.14417 1.14751 1.15103 1.1545 1.15759 1.15992 1.16115
          1.12576 1.12576 1.12576 1.12576 1.12601 1.12601 1.12601 1.12609 1.12946 1.12969 1.13015 1.13085
          1.13182 1.13305 1.13459 1.13642 1.13855 1.14094 1.14352 1.14617 1.14873 1.15096 1.15263 1.15351
          1.12565 1.12566 1.12566 1.12566 1.126 1.12601 1.12601 1.12608 1.12888 1.12907 1.12946 1.13005
          1.13084 1.13186 1.13311 1.13458 1.13626 1.13812 1.1401 1.1421 1.14398 1.14561 1.1468 1.14743
          1.12554 1.12554 1.12554 1.12555 1.126 1.12601 1.12601 1.12606 1.12832 1.12848 1.12881 1.1293
          1.12996 1.13079 1.13179 1.13296 1.13429 1.13573 1.13724 1.13875 1.14014 1.14133 1.14219 1.14265
          1.1254 1.12541 1.12542 1.12542 1.12599 1.12601 1.12601 1.12605 1.12778 1.12793 1.1282 1.12861
          1.12916 1.12984 1.13065 1.13159 1.13263 1.13376 1.13491 1.13605 1.1371 1.13797 1.13861 1.13894
          1.12525 1.12526 1.12527 1.12529 1.12599 1.12601 1.12601 1.12603 1.12727 1.1274 1.12765 1.128
          1.12846 1.12902 1.12968 1.13044 1.13128 1.13216 1.13306 1.13394 1.13473 1.13539 1.13587 1.13612
          1.12506 1.12508 1.12511 1.12515 1.12596 1.126 1.126 1.12601 1.12675 1.1269 1.12714 1.12745
          1.12785 1.12833 1.12889 1.12952 1.1302 1.13092 1.13165 1.13234 1.13297 1.13348 1.13385 1.13404
          1.12485 1.12487 1.12493 1.12503 1.12525 1.12545 1.12565 1.12589 1.1262 1.12643 1.12668 1.12698
          1.12734 1.12777 1.12826 1.12881 1.1294 1.13001 1.13062 1.1312 1.13172 1.13215 1.13245 1.13261
          1.12458 1.12461 1.12468 1.12479 1.12496 1.12514 1.12534 1.12556 1.12581 1.12605 1.1263 1.12659
          1.12694 1.12734 1.12779 1.1283 1.12884 1.1294 1.12996 1.13049 1.13096 1.13134 1.13161 1.13175
        </DataArray>
        <DataArray type="Float32" Name="lambda_w" NumberOfComponents="1" format="ascii">
          0 0 0 0 0 0 0 0 0 0 0 0
          0 0 0 0 0 0 0 0 0 0.000147402 47.2665 1090.27
          0 0 0 0 0 0 0 0 0 0 0 0
          0 0 0 0 0 0 0 0 0 5.31852e-05 30.5688 1058.37
          0 0 0 0 0 0 0 0 0 0 0 0
          0 0 0 0 0 0 0 0 0 2.53843e-05 26.2027 1067.68
          0 0 0 0 0 0 0 0 0 0 0 0
          0 0 0 0 0 0 0 0 0 1.43347e-06 13.9997 1067.6
          0 0 0 0 0 0 0 0 0 0 0 0
          0 0 0 0 0 0 0 0 0 0 0 0
          0 0 0 0 0 0 0 0 0 0 0 0
          0 0 0 0 0 0 0 0 0 0 0 0
          0 0 0 0 0 0 0 0 0 0 0 0
          0 0 0 0 0 0 0 0 0 0 0 0
          0 0 0 0 0 0 0 0 0 0 0 0
          0 0 0 0 0 0 0 0 0 0 0 0
          0 0 0 0 0 0 0 0 0 0 0 0
          0 0 0 0 0 0 0 0 0 0 0 0
          0 0 0 0 0 0 0 0 0 0 0 0
          0 0 0 0 0 0 0 0 0 0 0 0
          0 0 0 0 0 0 0 0 0 0 0 0
          0 0 0 0 0 0 0 0 0 0 0 0
          0 0 0 0 0 0 0 0 0 0 0 0
          0 0 0 0 0 0 0 0 0 0 0 0
          0 0 0 0 0 0 0 0 0 0 0 0
          0 0 0 0 0 0 0 0 0 0 0 0
          0 0 0 0 0 0 0 0 0 0 0 0
          0 0 0 0 0 0 0 0 0 0 0 0
          0 0 0 0 0 0 0 0 0 0 0 0
          0 0 0 0 0 0 0 0 0 0 0 0
          0 0 0 0 0 0 0 0 0 0 0 0
          0 0 0 0 0 0 0 0 0 0 0 0
        </DataArray>
        <DataArray type="Float32" Name="lambda_n" NumberOfComponents="1" format="ascii">
          56746.7 56746.7 56746.7 56746.7 56746.7 56746.7 56746.7 56746.7 56746.7 56746.7 56746.7 56746.7
          56746.7 56746.7 56746.7 56746.7 56746.7 56746.7 56746.7 56746.7 56746.7 56746.7 54359.5 1682.14
          56746.7 56746.7 56746.7 56746.7 56746.7 56746.7 56746.7 56746.7 56746.7 56746.7 56746.7 56746.7
          56746.7 56746.7 56746.7 56746.7 56746.7 56746.7 56746.7 56746.7 56746.7 56746.7 55202.8 3293.17
          56746.7 56746.7 56746.7 56746.7 56746.7 56746.7 56746.7 56746.7 56746.7 56746.7 56746.7 56746.7
          56746.7 56746.7 56746.7 56746.7 56746.7 56746.7 56746.7 56746.7 56746.7 56746.7 55423.3 2823.08
          56746.7 56746.7 56746.7 56746.7 56746.7 56746.7 56746.7 56746.7 56746.7 56746.7 56746.7 56746.7
          56746.7 56746.7 56746.7 56746.7 56746.7 56746.7 56746.7 56746.7 56746.7 56746.7 56039.7 2826.93
          56746.7 56746.7 56746.7 56746.7 56746.7 56746.7 56746.7 56746.7 56746.7 56746.7 56746.7 56746.7
          56746.7 56746.7 56746.7 56746.7 56746.7 56746.7 56746.7 56746.7 56746.7 56746.7 56746.7 56746.7
          56746.7 56746.7 56746.7 56746.7 56746.7 56746.7 56746.7 56746.7 56746.7 56746.7 56746.7 56746.7
          56746.7 56746.7 56746.7 56746.7 56746.7 56746.7 56746.7 56746.7 56746.7 56746.7 56746.7 56746.7
          56746.7 56746.7 56746.7 56746.7 56746.7 56746.7 56746.7 56746.7 56746.7 56746.7 56746.7 56746.7
          56746.7 56746.7 56746.7 56746.7 56746.7 56746.7 56746.7 56746.7 56746.7 56746.7 56746.7 56746.7
          56746.7 56746.7 56746.7 56746.7 56746.7 56746.7 56746.7 56746.7 56746.7 56746.7 56746.7 56746.7
          56746.7 56746.7 56746.7 56746.7 56746.7 56746.7 56746.7 56746.7 56746.7 56746.7 56746.7 56746.7
          56746.7 56746.7 56746.7 56746.7 56746.7 56746.7 56746.7 56746.7 56746.7 56746.7 56746.7 56746.7
          56746.7 56746.7 56746.7 56746.7 56746.7 56746.7 56746.7 56746.7 56746.7 56746.7 56746.7 56746.7
          56746.7 56746.7 56746.7 56746.7 56746.7 56746.7 56746.7 56746.7 56746.7 56746.7 56746.7 56746.7
          56746.7 56746.7 56746.7 56746.7 56746.7 56746.7 56746.7 56746.7 56746.7 56746.7 56746.7 56746.7
          56746.7 56746.7 56746.7 56746.7 56746.7 56746.7 56746.7 56746.7 56746.7 56746.7 56746.7 56746.7
          56746.7 56746.7 56746.7 56746.7 56746.7 56746.7 56746.7 56746.7 56746.7 56746.7 56746.7 56746.7
          56746.7 56746.7 56746.7 56746.7 56746.7 56746.7 56746.7 56746.7 56746.7 56746.7 56746.7 56746.7
          56746.7 56746.7 56746.7 56746.7 56746.7 56746.7 56746.7 56746.7 56746.7 56746.7 56746.7 56746.7
          56746.7 56746.7 56746.7 56746.7 56746.7 56746.7 56746.7 56746.7 56746.7 56746.7 56746.7 56746.7
          56746.7 56746.7 56746.7 56746.7 56746.7 56746.7 56746.7 56746.7 56746.7 56746.7 56746.7 56746.7
          56746.7 56746.7 56746.7 56746.7 56746.7 56746.7 56746.7 56746.7 56746.7 56746.7 56746.7 56746.7
          56746.7 56746.7 56746.7 56746.7 56746.7 56746.7 56746.7 56746.7 56746.7 56746.7 56746.7 56746.7
          56746.7 56746.7 56746.7 56746.7 56746.7 56746.7 56746.7 56746.7 56746.7 56746.7 56746.7 56746.7
          56746.7 56746.7 56746.7 56746.7 56746.7 56746.7 56746.7 56746.7 56746.7 56746.7 56746.7 56746.7
          56746.7 56746.7 56746.7 56746.7 56746.7 56746.7 56746.7 56746.7 56746.7 56746.7 56746.7 56746.7
          56746.7 56746.7 56746.7 56746.7 56746.7 56746.7 56746.7 56746.7 56746.7 56746.7 56746.7 56746.7
        </DataArray>
        <DataArray type="Float32" Name="porosity" NumberOfComponents="1" format="ascii">
          0.3 0.3 0.3 0.3 0.3 0.3 0.3 0.3 0.3 0.3 0.3 0.3
          0.3 0.3 0.3 0.3 0.3 0.3 0.3 0.3 0.3 0.3 0.3 0.3
          0.3 0.3 0.3 0.3 0.3 0.3 0.3 0.3 0.3 0.3 0.3 0.3
          0.3 0.3 0.3 0.3 0.3 0.3 0.3 0.3 0.3 0.3 0.3 0.3
          0.3 0.3 0.3 0.3 0.3 0.3 0.3 0.3 0.3 0.3 0.3 0.3
          0.3 0.3 0.3 0.3 0.3 0.3 0.3 0.3 0.3 0.3 0.3 0.3
          0.3 0.3 0.3 0.3 0.3 0.3 0.3 0.3 0.3 0.3 0.3 0.3
          0.3 0.3 0.3 0.3 0.3 0.3 0.3 0.3 0.3 0.3 0.3 0.3
          0.3 0.3 0.3 0.3 0.3 0.3 0.3 0.3 0.3 0.3 0.3 0.3
          0.3 0.3 0.3 0.3 0.3 0.3 0.3 0.3 0.3 0.3 0.3 0.3
          0.3 0.3 0.3 0.3 0.3 0.3 0.3 0.3 0.3 0.3 0.3 0.3
          0.3 0.3 0.3 0.3 0.3 0.3 0.3 0.3 0.3 0.3 0.3 0.3
          0.3 0.3 0.3 0.3 0.3 0.3 0.3 0.3 0.3 0.3 0.3 0.3
          0.3 0.3 0.3 0.3 0.3 0.3 0.3 0.3 0.3 0.3 0.3 0.3
          0.3 0.3 0.3 0.3 0.3 0.3 0.3 0.3 0.3 0.3 0.3 0.3
          0.3 0.3 0.3 0.3 0.3 0.3 0.3 0.3 0.3 0.3 0.3 0.3
          0.3 0.3 0.3 0.3 0.3 0.3 0.3 0.3 0.3 0.3 0.3 0.3
          0.3 0.3 0.3 0.3 0.3 0.3 0.3 0.3 0.3 0.3 0.3 0.3
          0.3 0.3 0.3 0.3 0.3 0.3 0.3 0.3 0.3 0.3 0.3 0.3
          0.3 0.3 0.3 0.3 0.3 0.3 0.3 0.3 0.3 0.3 0.3 0.3
          0.3 0.3 0.3 0.3 0.3 0.3 0.3 0.3 0.3 0.3 0.3 0.3
          0.3 0.3 0.3 0.3 0.3 0.3 0.3 0.3 0.3 0.3 0.3 0.3
          0.3 0.3 0.3 0.3 0.3 0.3 0.3 0.3 0.3 0.3 0.3 0.3
          0.3 0.3 0.3 0.3 0.3 0.3 0.3 0.3 0.3 0.3 0.3 0.3
          0.3 0.3 0.3 0.3 0.3 0.3 0.3 0.3 0.3 0.3 0.3 0.3
          0.3 0.3 0.3 0.3 0.3 0.3 0.3 0.3 0.3 0.3 0.3 0.3
          0.3 0.3 0.3 0.3 0.3 0.3 0.3 0.3 0.3 0.3 0.3 0.3
          0.3 0.3 0.3 0.3 0.3 0.3 0.3 0.3 0.3 0.3 0.3 0.3
          0.3 0.3 0.3 0.3 0.3 0.3 0.3 0.3 0.3 0.3 0.3 0.3
          0.3 0.3 0.3 0.3 0.3 0.3 0.3 0.3 0.3 0.3 0.3 0.3
          0.3 0.3 0.3 0.3 0.3 0.3 0.3 0.3 0.3 0.3 0.3 0.3
          0.3 0.3 0.3 0.3 0.3 0.3 0.3 0.3 0.3 0.3 0.3 0.3
        </DataArray>
        <DataArray type="Float32" Name="x_w^H2O" NumberOfComponents="1" format="ascii">
          0.315549 0.315627 0.315672 0.315692 0.315496 0.315485 0.315486 0.315546 0.317657 0.317798 0.318085 0.318534
          0.319172 0.320033 0.321165 0.322624 0.324499 0.327121 0.333029 0.360054 0.498349 0.999988 0.999988 0.999983
          0.315518 0.315573 0.315609 0.315626 0.31549 0.315483 0.315483 0.315539 0.317549 0.317687 0.317967 0.318405
          0.319026 0.319864 0.320962 0.322374 0.32418 0.326664 0.332056 0.35685 0.490011 0.999988 0.999988 0.999984
          0.315504 0.315539 0.315564 0.315576 0.315487 0.315483 0.315483 0.315534 0.317422 0.317554 0.31782 0.318237
          0.318827 0.31962 0.320654 0.321978 0.323656 0.325894 0.330381 0.35091 0.472062 0.999988 0.999988 0.999985
          0.315495 0.315516 0.315532 0.31554 0.315485 0.315483 0.315483 0.315529 0.317279 0.317401 0.31765 0.318037
          0.318583 0.319314 0.320262 0.321465 0.32297 0.3249 0.328272 0.342847 0.442936 0.999988 0.999988 0.999985
          0.31549 0.315498 0.315506 0.315511 0.315484 0.315483 0.315483 0.315524 0.317122 0.317234 0.31746 0.317812
          0.318306 0.318963 0.319808 0.32087 0.322179 0.323775 0.325859 0.330337 0.351722 0.459434 0.589737 0.608231
          0.315476 0.31548 0.315484 0.315486 0.315483 0.315483 0.315483 0.315519 0.316957 0.317057 0.317259 0.317572
          0.318008 0.318585 0.31932 0.320233 0.321342 0.322659 0.324201 0.326186 0.330532 0.347385 0.383798 0.402313
          0.315458 0.315459 0.315461 0.315462 0.315482 0.315483 0.315483 0.315514 0.316787 0.316875 0.317052 0.317324
          0.317702 0.318198 0.318823 0.319591 0.320509 0.321577 0.322782 0.324107 0.325684 0.328561 0.334696 0.339216
          0.315436 0.315437 0.315438 0.315438 0.315481 0.315483 0.315483 0.31551 0.316616 0.316692 0.316844 0.317078
          0.317399 0.317817 0.318339 0.318972 0.319718 0.320569 0.321507 0.322495 0.323487 0.324495 0.325671 0.326528
          0.315411 0.315411 0.315412 0.315412 0.315481 0.315483 0.315483 0.315505 0.316448 0.316513 0.316642 0.316839
          0.317108 0.317455 0.317885 0.318398 0.318994 0.319664 0.320387 0.321131 0.321849 0.322484 0.322989 0.32328
          0.315382 0.315383 0.315383 0.315384 0.31548 0.315483 0.315483 0.3155 0.316285 0.31634 0.316448 0.316613
          0.316836 0.317121 0.31747 0.317882 0.318354 0.318875 0.319429 0.319989 0.320517 0.320972 0.321309 0.32149
          0.315349 0.31535 0.315351 0.315352 0.315478 0.315483 0.315483 0.315496 0.316129 0.316175 0.316266 0.316403
          0.316587 0.31682 0.317101 0.31743 0.317801 0.318206 0.318629 0.31905 0.319442 0.319774 0.320016 0.320144
          0.315312 0.315313 0.315315 0.315317 0.315477 0.315483 0.315483 0.315492 0.315979 0.316019 0.316096 0.316211
          0.316364 0.316554 0.316782 0.317044 0.317337 0.317652 0.317977 0.318295 0.318588 0.318833 0.319011 0.319104
          0.315268 0.31527 0.315275 0.315279 0.315475 0.315482 0.315483 0.315488 0.315834 0.315871 0.31594 0.316039
          0.316167 0.316325 0.316511 0.316723 0.316957 0.317205 0.317458 0.317703 0.317926 0.318111 0.318244 0.318313
          0.315217 0.315221 0.31523 0.31524 0.315468 0.315478 0.315479 0.315481 0.31569 0.315732 0.315798 0.315886
          0.315998 0.316132 0.316289 0.316465 0.316657 0.316858 0.317061 0.317255 0.317431 0.317575 0.317678 0.317732
          0.315155 0.315162 0.315178 0.315207 0.315268 0.315324 0.315382 0.315449 0.315536 0.3156 0.315671 0.315754
          0.315856 0.315975 0.316112 0.316265 0.31643 0.316602 0.316773 0.316937 0.317082 0.317202 0.317287 0.317331
          0.315082 0.31509 0.315108 0.315139 0.315186 0.315238 0.315294 0.315356 0.315426 0.315492 0.315563 0.315645
          0.315741 0.315853 0.315981 0.316123 0.316274 0.316432 0.316588 0.316736 0.316868 0.316975 0.317051 0.317091
        </DataArray>
        <DataArray type="Float32" Name="x_w^N2" NumberOfComponents="1" format="ascii">
          1.14745e-05 1.14774e-05 1.1479e-05 1.14797e-05 1.14726e-05 1.14722e-05 1.14722e-05 1.14744e-05 1.15512e-05 1.15563e-05 1.15667e-05 1.15831e-05
          1.16063e-05 1.16376e-05 1.16787e-05 1.17317e-05 1.17991e-05 1.18836e-05 1.19879e-05 1.21091e-05 1.22181e-05 1.22254e-05 1.24566e-05 1.66226e-05
          1.14734e-05 1.14754e-05 1.14767e-05 1.14773e-05 1.14724e-05 1.14721e-05 1.14721e-05 1.14742e-05 1.15473e-05 1.15523e-05 1.15624e-05 1.15784e-05
          1.16009e-05 1.16314e-05 1.16713e-05 1.17227e-05 1.17877e-05 1.1869e-05 1.1969e-05 1.20852e-05 1.2189e-05 1.21874e-05 1.24211e-05 1.57094e-05
          1.14729e-05 1.14742e-05 1.14751e-05 1.14755e-05 1.14723e-05 1.14721e-05 1.14721e-05 1.1474e-05 1.15426e-05 1.15474e-05 1.15571e-05 1.15723e-05
          1.15937e-05 1.16225e-05 1.16602e-05 1.17083e-05 1.17689e-05 1.18441e-05 1.19358e-05 1.20418e-05 1.21341e-05 1.21042e-05 1.2306e-05 1.53885e-05
          1.14726e-05 1.14733e-05 1.14739e-05 1.14742e-05 1.14722e-05 1.14721e-05 1.14721e-05 1.14738e-05 1.15374e-05 1.15419e-05 1.15509e-05 1.1565e-05
          1.15848e-05 1.16114e-05 1.16459e-05 1.16896e-05 1.17442e-05 1.18111e-05 1.18916e-05 1.19834e-05 1.20602e-05 1.19859e-05 1.21358e-05 1.4519e-05
          1.14724e-05 1.14727e-05 1.1473e-05 1.14731e-05 1.14722e-05 1.14721e-05 1.14721e-05 1.14736e-05 1.15317e-05 1.15358e-05 1.1544e-05 1.15568e-05
          1.15748e-05 1.15987e-05 1.16294e-05 1.1668e-05 1.17156e-05 1.1773e-05 1.18408e-05 1.19181e-05 1.19976e-05 1.20482e-05 1.20777e-05 1.20888e-05
          1.14719e-05 1.1472e-05 1.14721e-05 1.14722e-05 1.14721e-05 1.14721e-05 1.14721e-05 1.14734e-05 1.15257e-05 1.15294e-05 1.15367e-05 1.15481e-05
          1.15639e-05 1.15849e-05 1.16116e-05 1.16449e-05 1.16852e-05 1.1733e-05 1.17881e-05 1.18493e-05 1.1913e-05 1.19695e-05 1.20057e-05 1.20206e-05
          1.14712e-05 1.14713e-05 1.14713e-05 1.14714e-05 1.14721e-05 1.14721e-05 1.14721e-05 1.14733e-05 1.15195e-05 1.15227e-05 1.15292e-05 1.15391e-05
          1.15528e-05 1.15708e-05 1.15936e-05 1.16215e-05 1.16549e-05 1.16937e-05 1.17374e-05 1.17846e-05 1.18324e-05 1.18757e-05 1.19075e-05 1.19232e-05
          1.14704e-05 1.14704e-05 1.14705e-05 1.14705e-05 1.14721e-05 1.14721e-05 1.14721e-05 1.14731e-05 1.15133e-05 1.15161e-05 1.15216e-05 1.15301e-05
          1.15418e-05 1.1557e-05 1.1576e-05 1.1599e-05 1.16261e-05 1.16571e-05 1.16912e-05 1.1727e-05 1.17623e-05 1.17938e-05 1.18174e-05 1.18298e-05
          1.14695e-05 1.14695e-05 1.14695e-05 1.14696e-05 1.1472e-05 1.14721e-05 1.14721e-05 1.14729e-05 1.15072e-05 1.15096e-05 1.15143e-05 1.15214e-05
          1.15312e-05 1.15438e-05 1.15595e-05 1.15781e-05 1.15998e-05 1.16242e-05 1.16505e-05 1.16775e-05 1.17036e-05 1.17263e-05 1.17433e-05 1.17523e-05
          1.14685e-05 1.14685e-05 1.14685e-05 1.14685e-05 1.1472e-05 1.14721e-05 1.14721e-05 1.14728e-05 1.15013e-05 1.15033e-05 1.15072e-05 1.15132e-05
          1.15213e-05 1.15317e-05 1.15444e-05 1.15594e-05 1.15765e-05 1.15955e-05 1.16156e-05 1.1636e-05 1.16552e-05 1.16717e-05 1.16839e-05 1.16904e-05
          1.14673e-05 1.14673e-05 1.14673e-05 1.14674e-05 1.1472e-05 1.14721e-05 1.14721e-05 1.14726e-05 1.14956e-05 1.14973e-05 1.15006e-05 1.15056e-05