<?xml version="1.0"?>
<VTKFile type="UnstructuredGrid" version="0.1" byte_order="LittleEndian">
  <UnstructuredGrid>
    <Piece NumberOfCells="40" NumberOfPoints="63">
      <CellData Scalars="P">
        <DataArray type="Float32" Name="P" NumberOfComponents="1" format="ascii">
          197500 192500 187500 182500 177501 172501 167501 162501 157501 152501 147501 142501
          137501 132501 127501 122501 117500 112500 107500 102500 197500 192500 187500 182500
          177501 172501 167501 162501 157501 152501 147501 142501 137501 132501 127501 122501
          117500 112500 107500 102500
        </DataArray>
        <DataArray type="Float32" Name="delp" NumberOfComponents="1" format="ascii">
          97500 92500.2 87500.3 82500.5 77500.6 72500.7 67500.8 62500.8 57500.8 52500.9 47500.9 42500.8
          37500.8 32500.8 27500.7 22500.6 17500.5 12500.3 7500.17 2500 97500 92500.2 87500.3 82500.5
          77500.6 72500.7 67500.8 62500.8 57500.8 52500.9 47500.9 42500.8 37500.8 32500.8 27500.7 22500.6
          17500.5 12500.3 7500.17 2500
        </DataArray>
        <DataArray type="Float32" Name="x_H2O" NumberOfComponents="1" format="ascii">
          0.999987 0.999987 0.999987 0.999987 0.999987 0.999987 0.999987 0.999987 0.999987 0.999987 0.999987 0.999987
          0.999987 0.999987 0.999987 0.999987 0.999987 0.999988 0.999988 0.999988 0.999987 0.999987 0.999987 0.999987
          0.999987 0.999987 0.999987 0.999987 0.999987 0.999987 0.999987 0.999987 0.999987 0.999987 0.999987 0.999987
          0.999987 0.999988 0.999988 0.999988
        </DataArray>
        <DataArray type="Float32" Name="x_N2" NumberOfComponents="1" format="ascii">
          1.28619e-05 1.28619e-05 1.28618e-05 1.28616e-05 1.28609e-05 1.28595e-05 1.28567e-05 1.28519e-05 1.28442e-05 1.28326e-05 1.28161e-05 1.27935e-05
          1.27637e-05 1.27257e-05 1.26784e-05 1.26208e-05 1.25523e-05 1.24722e-05 1.23799e-05 1.22753e-05 1.28619e-05 1.28619e-05 1.28618e-05 1.28616e-05
          1.28609e-05 1.28595e-05 1.28567e-05 1.28519e-05 1.28442e-05 1.28326e-05 1.28161e-05 1.27935e-05 1.27637e-05 1.27257e-05 1.26784e-05 1.26208e-05
          1.25523e-05 1.24722e-05 1.23799e-05 1.22753e-05
        </DataArray>
        <DataArray type="Float32" Name="X_H2O" NumberOfComponents="1" format="ascii">
          0.99998 0.99998 0.99998 0.99998 0.99998 0.99998 0.99998 0.99998 0.99998 0.99998 0.99998 0.99998
          0.99998 0.99998 0.99998 0.99998 0.999981 0.999981 0.999981 0.999981 0.99998 0.99998 0.99998 0.99998
          0.99998 0.99998 0.99998 0.99998 0.99998 0.99998 0.99998 0.99998 0.99998 0.99998 0.99998 0.99998
          0.999981 0.999981 0.999981 0.999981
        </DataArray>
        <DataArray type="Float32" Name="X_N2" NumberOfComponents="1" format="ascii">
          2e-05 2e-05 1.99999e-05 1.99995e-05 1.99985e-05 1.99962e-05 1.99919e-05 1.99844e-05 1.99724e-05 1.99544e-05 1.99287e-05 1.98936e-05
          1.98473e-05 1.97882e-05 1.97146e-05 1.96251e-05 1.95186e-05 1.9394e-05 1.92505e-05 1.90879e-05 2e-05 2e-05 1.99999e-05 1.99995e-05
          1.99985e-05 1.99962e-05 1.99919e-05 1.99844e-05 1.99724e-05 1.99544e-05 1.99287e-05 1.98936e-05 1.98473e-05 1.97882e-05 1.97146e-05 1.96251e-05
          1.95186e-05 1.9394e-05 1.92505e-05 1.90879e-05
        </DataArray>
        <DataArray type="Float32" Name="rho" NumberOfComponents="1" format="ascii">
          998.235 998.233 998.231 998.229 998.226 998.224 998.222 998.219 998.217 998.215 998.213 998.21
          998.208 998.206 998.203 998.201 998.199 998.197 998.194 998.192 998.235 998.233 998.231 998.229
          998.226 998.224 998.222 998.219 998.217 998.215 998.213 998.21 998.208 998.206 998.203 998.201
          998.199 998.197 998.194 998.192
        </DataArray>
        <DataArray type="Float32" Name="mu" NumberOfComponents="1" format="ascii">
          0.00100296 0.00100296 0.00100296 0.00100296 0.00100297 0.00100297 0.00100297 0.00100297 0.00100297 0.00100297 0.00100297 0.00100298
          0.00100298 0.00100298 0.00100298 0.00100298 0.00100298 0.00100299 0.00100299 0.00100299 0.00100296 0.00100296 0.00100296 0.00100296
          0.00100297 0.00100297 0.00100297 0.00100297 0.00100297 0.00100297 0.00100297 0.00100298 0.00100298 0.00100298 0.00100298 0.00100298
          0.00100298 0.00100299 0.00100299 0.00100299
        </DataArray>
        <DataArray type="Float32" Name="process rank" NumberOfComponents="1" format="ascii">
          0 0 0 0 0 0 0 0 0 0 0 0
          0 0 0 0 0 0 0 0 0 0 0 0
          0 0 0 0 0 0 0 0 0 0 0 0
          0 0 0 0
        </DataArray>
      </CellData>
      <Points>
        <DataArray type="Float32" Name="Coordinates" NumberOfComponents="3" format="ascii">
          0 0 0 0.05 0 0 0 0.5 0 0.05 0.5 0
          0.1 0 0 0.1 0.5 0 0.15 0 0 0.15 0.5 0
          0.2 0 0 0.2 0.5 0 0.25 0 0 0.25 0.5 0
          0.3 0 0 0.3 0.5 0 0.35 0 0 0.35 0.5 0
          0.4 0 0 0.4 0.5 0 0.45 0 0 0.45 0.5 0
          0.5 0 0 0.5 0.5 0 0.55 0 0 0.55 0.5 0
          0.6 0 0 0.6 0.5 0 0.65 0 0 0.65 0.5 0
          0.7 0 0 0.7 0.5 0 0.75 0 0 0.75 0.5 0
          0.8 0 0 0.8 0.5 0 0.85 0 0 0.85 0.5 0
          0.9 0 0 0.9 0.5 0 0.95 0 0 0.95 0.5 0
          1 0 0 1 0.5 0 0 1 0 0.05 1 0
          0.1 1 0 0.15 1 0 0.2 1 0 0.25 1 0
          0.3 1 0 0.35 1 0 0.4 1 0 0.45 1 0
          0.5 1 0 0.55 1 0 0.6 1 0 0.65 1 0
          0.7 1 0 0.75 1 0 0.8 1 0 0.85 1 0
          0.9 1 0 0.95 1 0 1 1 0
        </DataArray>
      </Points>
      <Cells>
        <DataArray type="Int32" Name="connectivity" NumberOfComponents="1" format="ascii">
          0 1 3 2 1 4 5 3 4 6 7 5
          6 8 9 7 8 10 11 9 10 12 13 11
          12 14 15 13 14 16 17 15 16 18 19 17
          18 20 21 19 20 22 23 21 22 24 25 23
          24 26 27 25 26 28 29 27 28 30 31 29
          30 32 33 31 32 34 35 33 34 36 37 35
          36 38 39 37 38 40 41 39 2 3 43 42
          3 5 44 43 5 7 45 44 7 9 46 45
          9 11 47 46 11 13 48 47 13 15 49 48
          15 17 50 49 17 19 51 50 19 21 52 51
          21 23 53 52 23 25 54 53 25 27 55 54
          27 29 56 55 29 31 57 56 31 33 58 57
          33 35 59 58 35 37 60 59 37 39 61 60
          39 41 62 61
        </DataArray>
        <DataArray type="Int32" Name="offsets" NumberOfComponents="1" format="ascii">
          4 8 12 16 20 24 28 32 36 40 44 48
          52 56 60 64 68 72 76 80 84 88 92 96
          100 104 108 112 116 120 124 128 132 136 140 144
          148 152 156 160
        </DataArray>
        <DataArray type="UInt8" Name="types" NumberOfComponents="1" format="ascii">
          9 9 9 9 9 9 9 9 9 9 9 9
          9 9 9 9 9 9 9 9 9 9 9 9
          9 9 9 9 9 9 9 9 9 9 9 9
          9 9 9 9
        </DataArray>
      </Cells>
    </Piece>
  </UnstructuredGrid>
</VTKFile>
