<?xml version="1.0"?>
<VTKFile type="UnstructuredGrid" version="0.1" byte_order="LittleEndian">
  <UnstructuredGrid>
    <Piece NumberOfCells="40" NumberOfPoints="63">
      <PointData Scalars="p" Vectors="velocity_liq (m/s)">
        <DataArray type="Float32" Name="p" NumberOfComponents="1" format="ascii">
          200000 195000 200000 195000 190000 190000 185000 185000 180001 180001 175001 175001
          170001 170001 165001 165001 160001 160001 155001 155001 150001 150001 145001 145001
          140001 140001 135001 135001 130001 130001 125001 125001 120001 120001 115000 115000
          110000 110000 105000 105000 100000 100000 200000 195000 190000 185000 180001 175001
          170001 165001 160001 155001 150001 145001 140001 135001 130001 125001 120001 115000
          110000 105000 100000
        </DataArray>
        <DataArray type="Float32" Name="delp" NumberOfComponents="1" format="ascii">
          100000 95000.2 100000 95000.2 90000.3 90000.3 85000.5 85000.5 80000.6 80000.6 75000.7 75000.7
          70000.8 70000.8 65000.9 65000.9 60000.9 60000.9 55001 55001 50001 50001 45001 45001
          40000.9 40000.9 35000.9 35000.9 30000.8 30000.8 25000.7 25000.7 20000.6 20000.6 15000.5 15000.5
          10000.3 10000.3 5000.18 5000.18 0 0 100000 95000.2 90000.3 85000.5 80000.6 75000.7
          70000.8 65000.9 60000.9 55001 50001 45001 40000.9 35000.9 30000.8 25000.7 20000.6 15000.5
          10000.3 5000.18 0
        </DataArray>
        <DataArray type="Float32" Name="velocity_liq (m/s)" NumberOfComponents="3" format="ascii">
          0.00997014 1.4509e-18 0 0.00997015 2.11437e-17 0 0.00997014 2.9018e-18 0 0.00997015 -3.62724e-19 0
          0.00997017 2.69473e-17 0 0.00997017 3.26451e-18 0 0.0099702 6.52902e-18 0 0.0099702 7.25446e-19 0
          0.00997022 5.3895e-17 0 0.00997022 3.62722e-19 0 0.00997024 5.67968e-17 0 0.00997024 -3.62722e-19 0
          0.00997026 1.45089e-18 0 0.00997026 -7.25443e-19 0 0.00997029 7.97986e-18 0 0.00997029 4.71537e-18 0
          0.00997031 -7.2544e-19 0 0.00997031 1.08816e-18 0 0.00997033 1.45088e-18 0 0.00997033 3.6272e-18 0
          0.00997035 1.45088e-18 0 0.00997035 1.45088e-18 0 0.00997038 0 0 0.00997038 -3.62719e-19 0
          0.0099704 -7.25436e-19 0 0.0099704 -2.53903e-18 0 0.00997042 1.45087e-18 0 0.00997042 -2.35766e-18 0
          0.00997045 -3.62717e-19 0 0.00997045 -1.81358e-18 0 0.00997047 0 0 0.00997047 0 0
          0.00997049 2.21027e-16 0 0.00997049 -1.81358e-19 0 0.00997052 2.18488e-16 0 0.00997052 1.81358e-19 0
          0.00997054 -3.26443e-18 0 0.00997054 -3.62715e-19 0 0.00997056 -2.90171e-18 0 0.00997056 -1.45086e-18 0
          0.00997057 0 0 0.00997057 0 0 0.00997014 4.3527e-18 0 0.00997015 -2.18692e-17 0
          0.00997017 -2.04183e-17 0 0.0099702 -5.07812e-18 0 0.00997022 -5.31696e-17 0 0.00997024 -5.75222e-17 0
          0.00997026 -2.90177e-18 0 0.00997029 1.45088e-18 0 0.00997031 2.90176e-18 0 0.00997033 5.80351e-18 0
          0.00997035 1.45088e-18 0 0.00997038 -7.25437e-19 0 0.0099704 -4.35262e-18 0 0.00997042 -6.1662e-18 0
          0.00997045 -3.26445e-18 0 0.00997047 0 0 0.00997049 -2.2139e-16 0 0.00997052 -2.18125e-16 0
          0.00997054 2.539e-18 0 0.00997056 0 0 0.00997057 0 0
        </DataArray>
        <DataArray type="Float32" Name="x^H2O_liq" NumberOfComponents="1" format="ascii">
          0.99998 0.99998 0.99998 0.99998 0.99998 0.99998 0.99998 0.99998 0.99998 0.99998 0.99998 0.99998
          0.99998 0.99998 0.99998 0.99998 0.99998 0.99998 0.99998 0.99998 0.99998 0.99998 0.99998 0.99998
          0.99998 0.99998 0.99998 0.99998 0.99998 0.99998 0.99998 0.99998 0.999981 0.999981 0.999981 0.999981
          0.999981 0.999981 0.999981 0.999981 0.999981 0.999981 0.99998 0.99998 0.99998 0.99998 0.99998 0.99998
          0.99998 0.99998 0.99998 0.99998 0.99998 0.99998 0.99998 0.99998 0.99998 0.99998 0.999981 0.999981
          0.999981 0.999981 0.999981
        </DataArray>
        <DataArray type="Float32" Name="x^N2_liq" NumberOfComponents="1" format="ascii">
          2e-05 2e-05 2e-05 2e-05 1.99999e-05 1.99999e-05 1.99995e-05 1.99995e-05 1.99985e-05 1.99985e-05 1.99962e-05 1.99962e-05
          1.99919e-05 1.99919e-05 1.99844e-05 1.99844e-05 1.99724e-05 1.99724e-05 1.99544e-05 1.99544e-05 1.99287e-05 1.99287e-05 1.98936e-05 1.98936e-05
          1.98473e-05 1.98473e-05 1.97882e-05 1.97882e-05 1.97146e-05 1.97146e-05 1.96251e-05 1.96251e-05 1.95186e-05 1.95186e-05 1.9394e-05 1.9394e-05
          1.92505e-05 1.92505e-05 1.90878e-05 1.90878e-05 1.90016e-05 1.90016e-05 2e-05 2e-05 1.99999e-05 1.99995e-05 1.99985e-05 1.99962e-05
          1.99919e-05 1.99844e-05 1.99724e-05 1.99544e-05 1.99287e-05 1.98936e-05 1.98473e-05 1.97882e-05 1.97146e-05 1.96251e-05 1.95186e-05 1.9394e-05
          1.92505e-05 1.90878e-05 1.90016e-05
        </DataArray>
        <DataArray type="Float32" Name="X^H2O_liq" NumberOfComponents="1" format="ascii">
          0.999969 0.999969 0.999969 0.999969 0.999969 0.999969 0.999969 0.999969 0.999969 0.999969 0.999969 0.999969
          0.999969 0.999969 0.999969 0.999969 0.999969 0.999969 0.999969 0.999969 0.999969 0.999969 0.999969 0.999969
          0.999969 0.999969 0.999969 0.999969 0.999969 0.999969 0.999969 0.999969 0.99997 0.99997 0.99997 0.99997
          0.99997 0.99997 0.99997 0.99997 0.99997 0.99997 0.999969 0.999969 0.999969 0.999969 0.999969 0.999969
          0.999969 0.999969 0.999969 0.999969 0.999969 0.999969 0.999969 0.999969 0.999969 0.999969 0.99997 0.99997
          0.99997 0.99997 0.99997
        </DataArray>
        <DataArray type="Float32" Name="X^N2_liq" NumberOfComponents="1" format="ascii">
          3.10994e-05 3.10994e-05 3.10994e-05 3.10994e-05 3.10992e-05 3.10992e-05 3.10986e-05 3.10986e-05 3.1097e-05 3.1097e-05 3.10935e-05 3.10935e-05
          3.10868e-05 3.10868e-05 3.10752e-05 3.10752e-05 3.10565e-05 3.10565e-05 3.10285e-05 3.10285e-05 3.09886e-05 3.09886e-05 3.0934e-05 3.0934e-05
          3.0862e-05 3.0862e-05 3.077e-05 3.077e-05 3.06556e-05 3.06556e-05 3.05165e-05 3.05165e-05 3.03508e-05 3.03508e-05 3.01571e-05 3.01571e-05
          2.9934e-05 2.9934e-05 2.9681e-05 2.9681e-05 2.9547e-05 2.9547e-05 3.10994e-05 3.10994e-05 3.10992e-05 3.10986e-05 3.1097e-05 3.10935e-05
          3.10868e-05 3.10752e-05 3.10565e-05 3.10285e-05 3.09886e-05 3.0934e-05 3.0862e-05 3.077e-05 3.06556e-05 3.05165e-05 3.03508e-05 3.01571e-05
          2.9934e-05 2.9681e-05 2.9547e-05
        </DataArray>
        <DataArray type="Float32" Name="rho" NumberOfComponents="1" format="ascii">
          998.237 998.234 998.237 998.234 998.232 998.232 998.23 998.23 998.227 998.227 998.225 998.225
          998.223 998.223 998.221 998.221 998.218 998.218 998.216 998.216 998.214 998.214 998.211 998.211
          998.209 998.209 998.207 998.207 998.205 998.205 998.202 998.202 998.2 998.2 998.198 998.198
          998.195 998.195 998.193 998.193 998.191 998.191 998.237 998.234 998.232 998.23 998.227 998.225
          998.223 998.221 998.218 998.216 998.214 998.211 998.209 998.207 998.205 998.202 998.2 998.198
          998.195 998.193 998.191
        </DataArray>
        <DataArray type="Float32" Name="mu" NumberOfComponents="1" format="ascii">
          0.00100296 0.00100296 0.00100296 0.00100296 0.00100296 0.00100296 0.00100296 0.00100296 0.00100296 0.00100296 0.00100297 0.00100297
          0.00100297 0.00100297 0.00100297 0.00100297 0.00100297 0.00100297 0.00100297 0.00100297 0.00100297 0.00100297 0.00100298 0.00100298
          0.00100298 0.00100298 0.00100298 0.00100298 0.00100298 0.00100298 0.00100298 0.00100298 0.00100298 0.00100298 0.00100298 0.00100298
          0.00100299 0.00100299 0.00100299 0.00100299 0.00100299 0.00100299 0.00100296 0.00100296 0.00100296 0.00100296 0.00100296 0.00100297
          0.00100297 0.00100297 0.00100297 0.00100297 0.00100297 0.00100298 0.00100298 0.00100298 0.00100298 0.00100298 0.00100298 0.00100298
          0.00100299 0.00100299 0.00100299
        </DataArray>
      </PointData>
      <CellData Scalars="process rank">
        <DataArray type="Float32" Name="process rank" NumberOfComponents="1" format="ascii">
          0 0 0 0 0 0 0 0 0 0 0 0
          0 0 0 0 0 0 0 0 0 0 0 0
          0 0 0 0 0 0 0 0 0 0 0 0
          0 0 0 0
        </DataArray>
      </CellData>
      <Points>
        <DataArray type="Float32" Name="Coordinates" NumberOfComponents="3" format="ascii">
          0 0 0 0.05 0 0 0 0.5 0 0.05 0.5 0
          0.1 0 0 0.1 0.5 0 0.15 0 0 0.15 0.5 0
          0.2 0 0 0.2 0.5 0 0.25 0 0 0.25 0.5 0
          0.3 0 0 0.3 0.5 0 0.35 0 0 0.35 0.5 0
          0.4 0 0 0.4 0.5 0 0.45 0 0 0.45 0.5 0
          0.5 0 0 0.5 0.5 0 0.55 0 0 0.55 0.5 0
          0.6 0 0 0.6 0.5 0 0.65 0 0 0.65 0.5 0
          0.7 0 0 0.7 0.5 0 0.75 0 0 0.75 0.5 0
          0.8 0 0 0.8 0.5 0 0.85 0 0 0.85 0.5 0
          0.9 0 0 0.9 0.5 0 0.95 0 0 0.95 0.5 0
          1 0 0 1 0.5 0 0 1 0 0.05 1 0
          0.1 1 0 0.15 1 0 0.2 1 0 0.25 1 0
          0.3 1 0 0.35 1 0 0.4 1 0 0.45 1 0
          0.5 1 0 0.55 1 0 0.6 1 0 0.65 1 0
          0.7 1 0 0.75 1 0 0.8 1 0 0.85 1 0
          0.9 1 0 0.95 1 0 1 1 0
        </DataArray>
      </Points>
      <Cells>
        <DataArray type="Int32" Name="connectivity" NumberOfComponents="1" format="ascii">
          0 1 3 2 1 4 5 3 4 6 7 5
          6 8 9 7 8 10 11 9 10 12 13 11
          12 14 15 13 14 16 17 15 16 18 19 17
          18 20 21 19 20 22 23 21 22 24 25 23
          24 26 27 25 26 28 29 27 28 30 31 29
          30 32 33 31 32 34 35 33 34 36 37 35
          36 38 39 37 38 40 41 39 2 3 43 42
          3 5 44 43 5 7 45 44 7 9 46 45
          9 11 47 46 11 13 48 47 13 15 49 48
          15 17 50 49 17 19 51 50 19 21 52 51
          21 23 53 52 23 25 54 53 25 27 55 54
          27 29 56 55 29 31 57 56 31 33 58 57
          33 35 59 58 35 37 60 59 37 39 61 60
          39 41 62 61
        </DataArray>
        <DataArray type="Int32" Name="offsets" NumberOfComponents="1" format="ascii">
          4 8 12 16 20 24 28 32 36 40 44 48
          52 56 60 64 68 72 76 80 84 88 92 96
          100 104 108 112 116 120 124 128 132 136 140 144
          148 152 156 160
        </DataArray>
        <DataArray type="UInt8" Name="types" NumberOfComponents="1" format="ascii">
          9 9 9 9 9 9 9 9 9 9 9 9
          9 9 9 9 9 9 9 9 9 9 9 9
          9 9 9 9 9 9 9 9 9 9 9 9
          9 9 9 9
        </DataArray>
      </Cells>
    </Piece>
  </UnstructuredGrid>
</VTKFile>
