<?xml version="1.0"?>
<VTKFile type="PolyData" version="0.1" byte_order="LittleEndian">
  <PolyData>
    <Piece NumberOfLines="35" NumberOfPoints="24">
      <PointData Scalars="poreInscribedRadius">
        <DataArray type="Float32" Name="poreInscribedRadius" NumberOfComponents="1" format="ascii">
          1e-05 1e-05 1e-05 1e-05 1e-05 1e-05 1e-05 1e-05 1e-05 1e-05 1e-05 1e-05
          1e-05 1e-05 1e-05 1e-05 1e-05 1e-05 1e-05 1e-05 1e-05 1e-05 1e-05 1e-05
        </DataArray>
        <DataArray type="Float32" Name="poreVolume" NumberOfComponents="1" format="ascii">
          8e-15 8e-15 8e-15 8e-15 8e-15 8e-15 8e-15 8e-15 8e-15 8e-15 8e-15 8e-15
          8e-15 8e-15 8e-15 8e-15 8e-15 8e-15 8e-15 8e-15 8e-15 8e-15 8e-15 8e-15
        </DataArray>
        <DataArray type="Float32" Name="poreLabel" NumberOfComponents="1" format="ascii">
          1 -1 2 2 1 -1 1 -1 3 3 2 -1
          -1 -1 3 -1 -1 -1 3 1 2 1 1 3
        </DataArray>
      </PointData>
      <CellData Scalars="throatInscribedRadius">
        <DataArray type="Float32" Name="throatInscribedRadius" NumberOfComponents="1" format="ascii">
          1e-06 1e-06 1e-06 1e-06 1e-06 1e-06 1e-06 1e-06 1e-06 1e-06 1e-06 1e-06
          1e-06 1e-06 1e-06 1e-06 1e-06 1e-06 1e-06 1e-06 1e-06 1e-06 1e-06 1e-06
          1e-06 1e-06 1e-06 1e-06 1e-06 1e-06 1e-06 1e-06 1e-06 1e-06 1e-06
        </DataArray>
        <DataArray type="Float32" Name="throatLength" NumberOfComponents="1" format="ascii">
          0.0001 0.0001 0.0001 0.0001 0.0001 0.0001 0.0001 0.0001 0.0001 0.0001 0.0001 0.0001
          0.0001 0.0001 0.0001 0.0001 0.0001 0.0001 0.0001 0.0001 0.0001 0.0001 0.0001 0.0001
          0.0001 0.0001 0.0001 0.0001 0.0001 0.0001 0.0001 0.0001 0.0001 0.0001 0.0001
        </DataArray>
        <DataArray type="Float32" Name="throatLabel" NumberOfComponents="1" format="ascii">
          1 2 2 1 1 1 1 1 3 3 2 2
          -1 -1 -1 -1 -1 -1 3 2 -1 -1 -1 -1
          -1 3 3 1 2 1 1 1 1 1 3
        </DataArray>
      </CellData>
      <Points>
        <DataArray type="Float32" Name="Coordinates" NumberOfComponents="3" format="ascii">
          0.00025 0 0 0.00025 0.00025 0 0 0 0 0 0.00025 0
          0.0005 0 0 0.0005 0.00025 0 0.00075 0 0 0.00075 0.00025 0
          0.001 0.00025 0 0.001 0 0 0 0.0005 0 0.00025 0.0005 0
          0.0005 0.0005 0 0.00075 0.0005 0 0.001 0.0005 0 0.00025 0.00075 0
          0.00075 0.00075 0 0.0005 0.00075 0 0.001 0.00075 0 0.00025 0.001 0
          0 0.00075 0 0.0005 0.001 0 0.00075 0.001 0 0.001 0.001 0
        </DataArray>
      </Points>
      <Lines>
        <DataArray type="Int32" Name="connectivity" NumberOfComponents="1" format="ascii">
          0 1 2 1 0 3 4 5 0 5 6 7
          4 7 6 5 6 8 9 7 10 11 3 11
          11 12 1 12 7 13 12 13 5 13 7 12
          13 14 10 15 12 15 13 16 17 16 12 16
          13 17 16 18 13 18 15 19 20 19 17 21
          15 21 17 19 16 22 17 22 16 23
        </DataArray>
        <DataArray type="Int32" Name="offsets" NumberOfComponents="1" format="ascii">
          2 4 6 8 10 12 14 16 18 20 22 24
          26 28 30 32 34 36 38 40 42 44 46 48
          50 52 54 56 58 60 62 64 66 68 70
        </DataArray>
      </Lines>
    </Piece>
  </PolyData>
</VTKFile>
