<?xml version="1.0"?>
<VTKFile type="PolyData" version="0.1" byte_order="LittleEndian">
  <PolyData>
    <Piece NumberOfLines="35" NumberOfPoints="24">
      <PointData Scalars="poreInscribedRadius">
        <DataArray type="Float32" Name="poreInscribedRadius" NumberOfComponents="1" format="ascii">
          1.30457e-05 1.2556e-05 1.3756e-05 1.1441e-05 1.44441e-05 9.12151e-06 7.02291e-06 9.12533e-06 7.11069e-06 5.77343e-06 8.92461e-06 1.2534e-05
          9.79099e-06 1.17384e-05 1.75981e-05 1.16382e-05 1.35925e-05 7.3573e-06 1.14365e-05 7.30329e-06 9.60122e-06 1.19987e-05 9.48115e-06 1.48562e-05
        </DataArray>
        <DataArray type="Float32" Name="poreVolume" NumberOfComponents="1" format="ascii">
          1.77618e-14 1.58359e-14 2.08242e-14 1.19808e-14 2.41079e-14 6.07142e-15 2.77103e-15 6.07905e-15 2.87624e-15 1.53954e-15 5.68667e-15 1.57529e-14
          7.50879e-15 1.29395e-14 4.36003e-14 1.26111e-14 2.00902e-14 3.186e-15 1.19667e-14 3.11635e-15 7.08059e-15 1.38194e-14 6.81826e-15 2.62311e-14
        </DataArray>
        <DataArray type="Float32" Name="poreLabel" NumberOfComponents="1" format="ascii">
          1 -1 2 2 1 -1 1 -1 3 3 2 -1
          -1 -1 3 -1 -1 -1 3 1 2 1 1 3
        </DataArray>
      </PointData>
      <CellData Scalars="throatRadius">
        <DataArray type="Float32" Name="throatRadius" NumberOfComponents="1" format="ascii">
          8.45953e-06 8.60626e-06 7.91834e-06 6.46037e-06 6.44413e-06 4.94124e-06 6.45804e-06 4.93811e-06 4.668e-06 4.08303e-06 6.30621e-06 7.84011e-06
          6.88702e-06 6.8821e-06 6.41988e-06 6.83924e-06 6.41232e-06 6.21014e-06 8.31423e-06 6.27945e-06 6.8249e-06 8.15808e-06 5.21225e-06 6.91161e-06
          5.20531e-06 7.98254e-06 7.65566e-06 5.17018e-06 5.13956e-06 5.2095e-06 7.80595e-06 4.84298e-06 6.70459e-06 5.17073e-06 9.31234e-06
        </DataArray>
        <DataArray type="Float32" Name="throatLength" NumberOfComponents="1" format="ascii">
          0.000224398 0.000327241 0.000329067 0.000226434 0.000331386 0.000233852 0.000329984 0.000337409 0.00033942 0.000338655 0.000228541 0.000329578
          0.000227675 0.000331206 0.000229136 0.000228471 0.000332693 0.000334637 0.000220663 0.000332991 0.000332124 0.000224669 0.00022905 0.00033017
          0.000334458 0.000224971 0.000330378 0.000231058 0.000336649 0.000230644 0.000329916 0.000338893 0.000226926 0.000336715 0.000325105
        </DataArray>
        <DataArray type="Float32" Name="throatLabel" NumberOfComponents="1" format="ascii">
          1 2 2 1 1 1 1 1 3 3 2 2
          -1 -1 -1 -1 -1 -1 3 2 -1 -1 -1 -1
          -1 3 3 1 2 1 1 1 1 1 3
        </DataArray>
      </CellData>
      <Points>
        <DataArray type="Float32" Name="Coordinates" NumberOfComponents="3" format="ascii">
          0.00025 0 0 0.00025 0.00025 0 0 0 0 0 0.00025 0
          0.0005 0 0 0.0005 0.00025 0 0.00075 0 0 0.00075 0.00025 0
          0.001 0.00025 0 0.001 0 0 0 0.0005 0 0.00025 0.0005 0
          0.0005 0.0005 0 0.00075 0.0005 0 0.001 0.0005 0 0.00025 0.00075 0
          0.00075 0.00075 0 0.0005 0.00075 0 0.001 0.00075 0 0.00025 0.001 0
          0 0.00075 0 0.0005 0.001 0 0.00075 0.001 0 0.001 0.001 0
        </DataArray>
      </Points>
      <Lines>
        <DataArray type="Int32" Name="connectivity" NumberOfComponents="1" format="ascii">
          0 1 2 1 0 3 4 5 0 5 6 7
          4 7 6 5 6 8 9 7 10 11 3 11
          11 12 1 12 7 13 12 13 5 13 7 12
          13 14 10 15 12 15 13 16 17 16 12 16
          13 17 16 18 13 18 15 19 20 19 17 21
          15 21 17 19 16 22 17 22 16 23
        </DataArray>
        <DataArray type="Int32" Name="offsets" NumberOfComponents="1" format="ascii">
          2 4 6 8 10 12 14 16 18 20 22 24
          26 28 30 32 34 36 38 40 42 44 46 48
          50 52 54 56 58 60 62 64 66 68 70
        </DataArray>
      </Lines>
    </Piece>
  </PolyData>
</VTKFile>
