<?xml version="1.0"?>
<VTKFile type="PolyData" version="0.1" byte_order="LittleEndian">
  <PolyData>
    <Piece NumberOfLines="64" NumberOfPoints="59">
      <PointData Scalars="poreInscribedRadius">
        <DataArray type="Float32" Name="poreInscribedRadius" NumberOfComponents="1" format="ascii">
          1.30457e-05 1.2556e-05 1.3756e-05 9.12533e-06 7.11069e-06 5.77343e-06 8.92461e-06 1.2534e-05 1.75981e-05 1.16382e-05 1.35925e-05 7.3573e-06
          1.14365e-05 7.30329e-06 9.60122e-06 1.19987e-05 9.48115e-06 1.48562e-05 1.70993e-05 9.66327e-06 1.75193e-05 8.22871e-06 1.13239e-05 1.27077e-05
          9.59048e-06 5.89779e-06 1.03897e-05 1.01548e-05 1.32958e-05 8.72585e-06 8.01357e-06 1.38384e-05 1.22519e-05 1.12047e-05 6.11201e-06 1.3408e-05
          1.30813e-05 1.01383e-05 4.89638e-06 1.27359e-05 7.56348e-06 1.60883e-05 1.06179e-05 8.52647e-06 6.56301e-06 8.86639e-06 1.44344e-05 4.18665e-06
          4.74316e-06 1.12942e-05 1.04786e-05 9.80555e-06 1.05259e-05 1.06829e-05 1.50093e-05 1.0822e-05 8.65832e-06 1.52447e-05 6.97363e-06
        </DataArray>
        <DataArray type="Float32" Name="poreVolume" NumberOfComponents="1" format="ascii">
          9.30008e-15 8.29164e-15 1.09035e-14 3.18298e-15 1.506e-15 8.06103e-16 2.97754e-15 8.24821e-15 2.28291e-14 6.60315e-15 1.05192e-14 1.66819e-15
          6.26573e-15 1.63172e-15 3.70739e-15 7.23584e-15 3.57003e-15 1.37346e-14 2.09424e-14 3.77974e-15 2.25237e-14 2.33391e-15 6.08235e-15 8.59578e-15
          3.69496e-15 8.59322e-16 4.69781e-15 4.38633e-15 9.84541e-15 2.78299e-15 2.15559e-15 1.11005e-14 7.70368e-15 5.89236e-15 9.56401e-16 1.00968e-14
          9.37645e-15 4.36503e-15 4.91715e-16 8.65329e-15 1.8124e-15 1.74429e-14 5.01425e-15 2.59655e-15 1.18413e-15 2.91964e-15 1.25975e-14 3.07389e-16
          4.46984e-16 6.03477e-15 4.81945e-15 3.94916e-15 4.88505e-15 5.10687e-15 1.41634e-14 5.30896e-15 2.71888e-15 1.48405e-14 1.42058e-15
        </DataArray>
        <DataArray type="Float32" Name="poreLabel" NumberOfComponents="1" format="ascii">
          2 -1 1 1 -1 1 -1 3 2 -1 3 3
          1 -1 -1 1 3 2 -1 1 3 1 -1 -1
          -1 -1 -1 -1 2 -1 1 -1 1 1 -1 1
          -1 3 -1 2 2 -1 -1 -1 -1 -1 -1 3
          1 1 2 1 3 1 1 2 3 1 1
        </DataArray>
      </PointData>
      <CellData Scalars="throatRadius">
        <DataArray type="Float32" Name="throatRadius" NumberOfComponents="1" format="ascii">
          8.45953e-06 8.60626e-06 4.99867e-06 4.08303e-06 5.96105e-06 4.082e-06 5.03351e-06 8.87146e-06 5.03465e-06 8.10079e-06 5.20345e-06 5.16465e-06
          5.14279e-06 5.16825e-06 6.3056e-06 8.28963e-06 1.03032e-05 5.14474e-06 6.80063e-06 5.70154e-06 5.03049e-06 8.34183e-06 6.75061e-06 4.17596e-06
          6.553e-06 6.19855e-06 4.17212e-06 7.96788e-06 6.16855e-06 6.76945e-06 5.13779e-06 7.35422e-06 5.5763e-06 5.67709e-06 8.4633e-06 4.32616e-06
          8.75435e-06 7.12725e-06 3.46668e-06 3.46707e-06 3.46061e-06 9.61898e-06 7.44391e-06 7.41e-06 7.18818e-06 6.94013e-06 9.16539e-06 4.32351e-06
          3.46576e-06 4.63547e-06 6.27598e-06 2.9629e-06 2.96241e-06 3.35589e-06 7.93913e-06 7.37803e-06 4.32338e-06 7.37925e-06 7.45127e-06 3.46567e-06
          7.1049e-06 6.05683e-06 4.64565e-06 4.93282e-06
        </DataArray>
        <DataArray type="Float32" Name="throatLength" NumberOfComponents="1" format="ascii">
          0.000224398 0.000327241 0.000233764 0.000338655 0.000335503 0.000338855 0.000333909 0.000323399 0.000231251 0.000224769 0.000414017 0.000414273
          0.000233095 0.000334251 0.000334471 0.000407422 0.000401057 0.000233033 0.000326433 0.000415303 0.000335119 0.000407771 0.000331407 0.000233713
          0.00023002 0.000334239 0.000338065 0.000329207 0.000413933 0.000330667 0.000416119 0.000405524 0.000336599 0.000228148 0.000327463 0.000336237
          0.000327064 0.000409793 0.000235513 0.000232368 0.000420553 0.000323627 0.000226301 0.000330228 0.00032731 0.000332546 0.000324384 0.000416746
          0.000236577 0.000416859 0.000330253 0.000334932 0.000418208 0.000419403 0.000327825 0.000408696 0.000337636 0.000329946 0.000330135 0.000333648
          0.000411508 0.000413736 0.000411205 0.000414745
        </DataArray>
        <DataArray type="Float32" Name="throatLabel" NumberOfComponents="1" format="ascii">
          2 1 1 1 1 1 3 2 -1 3 3 1
          -1 1 3 3 2 1 3 3 -1 3 -1 -1
          -1 -1 -1 -1 -1 2 -1 -1 1 1 1 1
          1 3 -1 2 2 -1 -1 -1 -1 -1 -1 -1
          -1 -1 -1 3 3 1 1 2 1 3 2 1
          2 3 1 1
        </DataArray>
      </CellData>
      <Points>
        <DataArray type="Float32" Name="Coordinates" NumberOfComponents="3" format="ascii">
          0 0.00025 0.00025 0.00025 0.00025 0.00025 0.00025 0 0 0.00075 0.00025 0
          0.00075 0.00025 0.00025 0.00075 0 0.00025 0.0005 0.00025 0.00025 0.001 0 0.00025
          0 0.0005 0.00025 0.00075 0.0005 0.00025 0.001 0.0005 0.00025 0.001 0.00025 0
          0.00025 0.0005 0 0.0005 0.00075 0.00025 0.00075 0.00075 0.00025 0.00075 0.00075 0
          0.001 0.00075 0 0 0.001 0 0.00025 0.00075 0.00025 0.0005 0.001 0.00025
          0.001 0.001 0.00025 0.00075 0.001 0.00025 0.0005 0.00025 0.0005 0.00075 0.00025 0.0005
          0.00025 0.0005 0.0005 0.0005 0.0005 0.00025 0.0005 0.0005 0.0005 0.00075 0.0005 0.0005
          0 0.00075 0.0005 0.00075 0.00075 0.0005 0.00025 0 0.00075 0.00025 0.00025 0.00075
          0.00025 0 0.0005 0.0005 0 0.0005 0.0005 0.00025 0.00075 0.00075 0 0.0005
          0.00075 0.00025 0.00075 0.001 0 0.0005 0.00025 0.0005 0.00075 0 0.0005 0.00075
          0 0.00025 0.0005 0.0005 0.0005 0.00075 0.00075 0.0005 0.00075 0.00025 0.00075 0.00075
          0.0005 0.00075 0.00075 0.0005 0.00075 0.0005 0.00075 0.00075 0.00075 0.001 0.00075 0.0005
          0.00025 0.001 0.00075 0.0005 0.001 0.00075 0 0 0.001 0.00075 0.00025 0.001
          0.001 0.00025 0.001 0.00025 0.0005 0.001 0.00025 0.00075 0.001 0 0.00075 0.00075
          0.001 0.00075 0.001 0.00025 0.001 0.001 0.00075 0.00075 0.001
        </DataArray>
      </Points>
      <Lines>
        <DataArray type="Int32" Name="connectivity" NumberOfComponents="1" format="ascii">
          0 1 2 1 3 4 3 5 3 6 5 6
          7 4 1 8 4 9 9 10 11 9 12 13
          13 14 15 13 16 14 15 10 17 18 13 19
          14 20 16 21 4 22 7 23 1 24 25 26
          24 26 6 26 25 24 9 23 6 27 24 28
          13 24 18 26 21 29 30 31 32 31 33 34
          35 36 37 36 24 38 39 38 40 38 31 41
          36 42 23 42 27 41 26 42 36 41 27 34
          38 43 24 44 45 46 47 46 47 42 45 48
          46 49 31 50 34 51 36 52 39 53 38 54
          55 53 42 56 44 57 49 58
        </DataArray>
        <DataArray type="Int32" Name="offsets" NumberOfComponents="1" format="ascii">
          2 4 6 8 10 12 14 16 18 20 22 24
          26 28 30 32 34 36 38 40 42 44 46 48
          50 52 54 56 58 60 62 64 66 68 70 72
          74 76 78 80 82 84 86 88 90 92 94 96
          98 100 102 104 106 108 110 112 114 116 118 120
          122 124 126 128
        </DataArray>
      </Lines>
    </Piece>
  </PolyData>
</VTKFile>
