<?xml version="1.0"?>
<VTKFile type="PolyData" version="0.1" byte_order="LittleEndian">
  <PolyData>
    <Piece NumberOfLines="64" NumberOfPoints="59">
      <PointData Scalars="poreInscribedRadius">
        <DataArray type="Float32" Name="poreInscribedRadius" NumberOfComponents="1" format="ascii">
          5.8307e-06 8.20678e-06 6.73508e-06 9.87333e-06 6.09005e-06 1.31235e-05 7.32424e-06 1.34357e-05 9.75278e-06 1.232e-05 1.07384e-05 5.82362e-06
          8.0054e-06 1.01813e-05 1.98456e-05 1.58578e-05 1.17355e-05 1.21942e-05 1.05852e-05 1.12379e-05 8.12145e-06 1.11648e-05 1.15909e-05 5.80563e-06
          1.88802e-05 1.82733e-05 1.14345e-05 8.53821e-06 1.00455e-05 8.91454e-06 7.01677e-06 1.33867e-05 8.91927e-06 1.17111e-05 8.66063e-06 1.20906e-05
          1.10074e-05 1.40025e-05 1.12929e-05 1.21512e-05 7.45559e-06 1.27913e-05 1.14818e-05 7.50105e-06 8.93103e-06 1.21338e-05 5.18346e-06 9.37334e-06
          8.53308e-06 9.7739e-06 9.39701e-06 9.9643e-06 8.71071e-06 1.21894e-05 7.64213e-06 4.53574e-06 6.2132e-06 6.87067e-06 1.07353e-05
        </DataArray>
        <DataArray type="Float32" Name="poreVolume" NumberOfComponents="1" format="ascii">
          8.30329e-16 2.3153e-15 1.27972e-15 4.03162e-15 9.46131e-16 9.46762e-15 1.6458e-15 1.01594e-14 3.88575e-15 7.83296e-15 5.18692e-15 8.2731e-16
          2.14901e-15 4.42071e-15 3.27402e-14 1.6704e-14 6.77013e-15 7.59537e-15 4.96811e-15 5.9449e-15 2.24383e-15 5.82968e-15 6.52285e-15 8.19664e-16
          2.81909e-14 2.55589e-14 6.2624e-15 2.60728e-15 4.24624e-15 2.96747e-15 1.4471e-15 1.00486e-14 2.97219e-15 6.72788e-15 2.72106e-15 7.40346e-15
          5.58655e-15 1.15001e-14 6.0326e-15 7.51529e-15 1.73594e-15 8.76673e-15 6.34051e-15 1.76789e-15 2.98396e-15 7.48308e-15 5.83376e-16 3.44962e-15
          2.60259e-15 3.91104e-15 3.47582e-15 4.14409e-15 2.76853e-15 7.58637e-15 1.86953e-15 3.9087e-16 1.00469e-15 1.35858e-15 5.18246e-15
        </DataArray>
        <DataArray type="Float32" Name="poreLabel" NumberOfComponents="1" format="ascii">
          2 -1 1 1 -1 1 -1 3 2 -1 3 3
          1 -1 -1 1 3 2 -1 1 3 1 -1 -1
          -1 -1 -1 -1 2 -1 1 -1 1 1 -1 1
          -1 3 -1 2 2 -1 -1 -1 -1 -1 -1 3
          1 1 2 1 3 1 1 2 3 1 1
        </DataArray>
      </PointData>
      <CellData Scalars="throatInscribedRadius">
        <DataArray type="Float32" Name="throatInscribedRadius" NumberOfComponents="1" format="ascii">
          4.11658e-06 4.70756e-06 4.31042e-06 6.9563e-06 5.16132e-06 5.18517e-06 4.31144e-06 5.7185e-06 4.31344e-06 7.44744e-06 4.12163e-06 5.61949e-06
          7.21941e-06 7.20563e-06 8.31374e-06 7.59153e-06 7.33705e-06 6.99583e-06 5.75207e-06 7.54291e-06 4.31091e-06 4.10902e-06 5.81255e-06 8.10476e-06
          8.10679e-06 5.18072e-06 1.22845e-05 4.10978e-06 5.08512e-06 7.11641e-06 7.20984e-06 7.21875e-06 6.25225e-06 4.9708e-06 6.30755e-06 6.10565e-06
          7.5479e-06 7.73087e-06 8.00667e-06 7.70352e-06 5.27018e-06 8.63394e-06 7.42452e-06 4.10955e-06 6.0374e-06 7.57694e-06 7.646e-06 5.67994e-06
          5.30672e-06 6.32413e-06 3.66901e-06 3.66811e-06 6.55696e-06 6.02478e-06 3.66845e-06 6.63606e-06 6.00154e-06 6.11401e-06 8.0491e-06 5.40143e-06
          3.20962e-06 4.39694e-06 4.82992e-06 6.69774e-06
        </DataArray>
        <DataArray type="Float32" Name="throatLength" NumberOfComponents="1" format="ascii">
          0.000235963 0.000338612 0.000234037 0.000330557 0.000336356 0.000333106 0.000334028 0.000335594 0.00023159 0.000226942 0.000414869 0.000414826
          0.000219973 0.000327514 0.000321972 0.000406416 0.000410233 0.000228581 0.000325586 0.000410112 0.000335872 0.000413771 0.000326466 0.000220292
          0.000219685 0.000334795 0.0003164 0.000335428 0.00041715 0.000324628 0.000403951 0.000410993 0.000333474 0.000229597 0.000331247 0.000333182
          0.000330455 0.000408003 0.000219827 0.000226556 0.000414264 0.000327375 0.000227511 0.000336266 0.000332224 0.000330637 0.000329755 0.000415814
          0.000231206 0.000405201 0.000336236 0.000338997 0.000412158 0.000412346 0.000338596 0.000410229 0.000334928 0.000333835 0.000329213 0.000334618
          0.000416288 0.000415318 0.000417211 0.000412503
        </DataArray>
        <DataArray type="Float32" Name="throatLabel" NumberOfComponents="1" format="ascii">
          2 1 1 1 1 1 3 2 -1 3 3 1
          -1 1 3 3 2 1 3 3 -1 3 -1 -1
          -1 -1 -1 -1 -1 2 -1 -1 1 1 1 1
          1 3 -1 2 2 -1 -1 -1 -1 -1 -1 -1
          -1 -1 -1 3 3 1 1 2 1 3 2 1
          2 3 1 1
        </DataArray>
      </CellData>
      <Points>
        <DataArray type="Float32" Name="Coordinates" NumberOfComponents="3" format="ascii">
          0 0.00025 0.00025 0.00025 0.00025 0.00025 0.00025 0 0 0.00075 0.00025 0
          0.00075 0.00025 0.00025 0.00075 0 0.00025 0.0005 0.00025 0.00025 0.001 0 0.00025
          0 0.0005 0.00025 0.00075 0.0005 0.00025 0.001 0.0005 0.00025 0.001 0.00025 0
          0.00025 0.0005 0 0.0005 0.00075 0.00025 0.00075 0.00075 0.00025 0.00075 0.00075 0
          0.001 0.00075 0 0 0.001 0 0.00025 0.00075 0.00025 0.0005 0.001 0.00025
          0.001 0.001 0.00025 0.00075 0.001 0.00025 0.0005 0.00025 0.0005 0.00075 0.00025 0.0005
          0.00025 0.0005 0.0005 0.0005 0.0005 0.00025 0.0005 0.0005 0.0005 0.00075 0.0005 0.0005
          0 0.00075 0.0005 0.00075 0.00075 0.0005 0.00025 0 0.00075 0.00025 0.00025 0.00075
          0.00025 0 0.0005 0.0005 0 0.0005 0.0005 0.00025 0.00075 0.00075 0 0.0005
          0.00075 0.00025 0.00075 0.001 0 0.0005 0.00025 0.0005 0.00075 0 0.0005 0.00075
          0 0.00025 0.0005 0.0005 0.0005 0.00075 0.00075 0.0005 0.00075 0.00025 0.00075 0.00075
          0.0005 0.00075 0.00075 0.0005 0.00075 0.0005 0.00075 0.00075 0.00075 0.001 0.00075 0.0005
          0.00025 0.001 0.00075 0.0005 0.001 0.00075 0 0 0.001 0.00075 0.00025 0.001
          0.001 0.00025 0.001 0.00025 0.0005 0.001 0.00025 0.00075 0.001 0 0.00075 0.00075
          0.001 0.00075 0.001 0.00025 0.001 0.001 0.00075 0.00075 0.001
        </DataArray>
      </Points>
      <Lines>
        <DataArray type="Int32" Name="connectivity" NumberOfComponents="1" format="ascii">
          0 1 2 1 3 4 3 5 3 6 5 6
          7 4 1 8 4 9 9 10 11 9 12 13
          13 14 15 13 16 14 15 10 17 18 13 19
          14 20 16 21 4 22 7 23 1 24 25 26
          24 26 6 26 25 24 9 23 6 27 24 28
          13 24 18 26 21 29 30 31 32 31 33 34
          35 36 37 36 24 38 39 38 40 38 31 41
          36 42 23 42 27 41 26 42 36 41 27 34
          38 43 24 44 45 46 47 46 47 42 45 48
          46 49 31 50 34 51 36 52 39 53 38 54
          55 53 42 56 44 57 49 58
        </DataArray>
        <DataArray type="Int32" Name="offsets" NumberOfComponents="1" format="ascii">
          2 4 6 8 10 12 14 16 18 20 22 24
          26 28 30 32 34 36 38 40 42 44 46 48
          50 52 54 56 58 60 62 64 66 68 70 72
          74 76 78 80 82 84 86 88 90 92 94 96
          98 100 102 104 106 108 110 112 114 116 118 120
          122 124 126 128
        </DataArray>
      </Lines>
    </Piece>
  </PolyData>
</VTKFile>
