<?xml version="1.0"?>
<VTKFile type="PolyData" version="0.1" byte_order="LittleEndian">
  <PolyData>
    <Piece NumberOfLines="64" NumberOfPoints="59">
      <PointData Scalars="poreInscribedRadius">
        <DataArray type="Float32" Name="poreInscribedRadius" NumberOfComponents="1" format="ascii">
          1e-05 1e-05 1e-05 1e-05 1e-05 1e-05 1e-05 1e-05 1e-05 1e-05 1e-05 1e-05
          1e-05 1e-05 1e-05 1e-05 1e-05 1e-05 1e-05 1e-05 1e-05 1e-05 1e-05 1e-05
          1e-05 1e-05 1e-05 1e-05 1e-05 1e-05 1e-05 1e-05 1e-05 1e-05 1e-05 1e-05
          1e-05 1e-05 1e-05 1e-05 1e-05 1e-05 1e-05 1e-05 1e-05 1e-05 1e-05 1e-05
          1e-05 1e-05 1e-05 1e-05 1e-05 1e-05 1e-05 1e-05 1e-05 1e-05 1e-05
        </DataArray>
        <DataArray type="Float32" Name="poreVolume" NumberOfComponents="1" format="ascii">
          2.0944e-15 4.18879e-15 1.0472e-15 2.0944e-15 4.18879e-15 2.0944e-15 4.18879e-15 2.0944e-15 2.0944e-15 4.18879e-15 4.18879e-15 2.0944e-15
          2.0944e-15 4.18879e-15 4.18879e-15 2.0944e-15 2.0944e-15 5.23599e-16 4.18879e-15 2.0944e-15 2.0944e-15 2.0944e-15 4.18879e-15 4.18879e-15
          4.18879e-15 4.18879e-15 4.18879e-15 4.18879e-15 2.0944e-15 4.18879e-15 2.0944e-15 4.18879e-15 2.0944e-15 2.0944e-15 4.18879e-15 2.0944e-15
          4.18879e-15 2.0944e-15 4.18879e-15 2.0944e-15 2.0944e-15 4.18879e-15 4.18879e-15 4.18879e-15 4.18879e-15 4.18879e-15 4.18879e-15 4.18879e-15
          2.0944e-15 2.0944e-15 5.23599e-16 2.0944e-15 2.0944e-15 2.0944e-15 2.0944e-15 2.0944e-15 2.0944e-15 1.0472e-15 2.0944e-15
        </DataArray>
        <DataArray type="Float32" Name="poreLabel" NumberOfComponents="1" format="ascii">
          2 -1 1 1 -1 1 -1 3 2 -1 3 3
          1 -1 -1 1 3 2 -1 1 3 1 -1 -1
          -1 -1 -1 -1 2 -1 1 -1 1 1 -1 1
          -1 3 -1 2 2 -1 -1 -1 -1 -1 -1 3
          1 1 2 1 3 1 1 2 3 1 1
        </DataArray>
      </PointData>
      <CellData Scalars="throatInscribedRadius">
        <DataArray type="Float32" Name="throatInscribedRadius" NumberOfComponents="1" format="ascii">
          1e-06 1e-06 1e-06 1e-06 1e-06 1e-06 1e-06 1e-06 1e-06 1e-06 1e-06 1e-06
          1e-06 1e-06 1e-06 1e-06 1e-06 1e-06 1e-06 1e-06 1e-06 1e-06 1e-06 1e-06
          1e-06 1e-06 1e-06 1e-06 1e-06 1e-06 1e-06 1e-06 1e-06 1e-06 1e-06 1e-06
          1e-06 1e-06 1e-06 1e-06 1e-06 1e-06 1e-06 1e-06 1e-06 1e-06 1e-06 1e-06
          1e-06 1e-06 1e-06 1e-06 1e-06 1e-06 1e-06 1e-06 1e-06 1e-06 1e-06 1e-06
          1e-06 1e-06 1e-06 1e-06
        </DataArray>
        <DataArray type="Float32" Name="throatLength" NumberOfComponents="1" format="ascii">
          0.0001 0.0001 0.0001 0.0001 0.0001 0.0001 0.0001 0.0001 0.0001 0.0001 0.0001 0.0001
          0.0001 0.0001 0.0001 0.0001 0.0001 0.0001 0.0001 0.0001 0.0001 0.0001 0.0001 0.0001
          0.0001 0.0001 0.0001 0.0001 0.0001 0.0001 0.0001 0.0001 0.0001 0.0001 0.0001 0.0001
          0.0001 0.0001 0.0001 0.0001 0.0001 0.0001 0.0001 0.0001 0.0001 0.0001 0.0001 0.0001
          0.0001 0.0001 0.0001 0.0001 0.0001 0.0001 0.0001 0.0001 0.0001 0.0001 0.0001 0.0001
          0.0001 0.0001 0.0001 0.0001
        </DataArray>
        <DataArray type="Float32" Name="throatLabel" NumberOfComponents="1" format="ascii">
          2 1 1 1 1 1 3 2 -1 3 3 1
          -1 1 3 3 2 1 3 3 -1 3 -1 -1
          -1 -1 -1 -1 -1 2 -1 -1 1 1 1 1
          1 3 -1 2 2 -1 -1 -1 -1 -1 -1 -1
          -1 -1 -1 3 3 1 1 2 1 3 2 1
          2 3 1 1
        </DataArray>
      </CellData>
      <Points>
        <DataArray type="Float32" Name="Coordinates" NumberOfComponents="3" format="ascii">
          0 0.00025 0.00025 0.00025 0.00025 0.00025 0.00025 0 0 0.00075 0.00025 0
          0.00075 0.00025 0.00025 0.00075 0 0.00025 0.0005 0.00025 0.00025 0.001 0 0.00025
          0 0.0005 0.00025 0.00075 0.0005 0.00025 0.001 0.0005 0.00025 0.001 0.00025 0
          0.00025 0.0005 0 0.0005 0.00075 0.00025 0.00075 0.00075 0.00025 0.00075 0.00075 0
          0.001 0.00075 0 0 0.001 0 0.00025 0.00075 0.00025 0.0005 0.001 0.00025
          0.001 0.001 0.00025 0.00075 0.001 0.00025 0.0005 0.00025 0.0005 0.00075 0.00025 0.0005
          0.00025 0.0005 0.0005 0.0005 0.0005 0.00025 0.0005 0.0005 0.0005 0.00075 0.0005 0.0005
          0 0.00075 0.0005 0.00075 0.00075 0.0005 0.00025 0 0.00075 0.00025 0.00025 0.00075
          0.00025 0 0.0005 0.0005 0 0.0005 0.0005 0.00025 0.00075 0.00075 0 0.0005
          0.00075 0.00025 0.00075 0.001 0 0.0005 0.00025 0.0005 0.00075 0 0.0005 0.00075
          0 0.00025 0.0005 0.0005 0.0005 0.00075 0.00075 0.0005 0.00075 0.00025 0.00075 0.00075
          0.0005 0.00075 0.00075 0.0005 0.00075 0.0005 0.00075 0.00075 0.00075 0.001 0.00075 0.0005
          0.00025 0.001 0.00075 0.0005 0.001 0.00075 0 0 0.001 0.00075 0.00025 0.001
          0.001 0.00025 0.001 0.00025 0.0005 0.001 0.00025 0.00075 0.001 0 0.00075 0.00075
          0.001 0.00075 0.001 0.00025 0.001 0.001 0.00075 0.00075 0.001
        </DataArray>
      </Points>
      <Lines>
        <DataArray type="Int32" Name="connectivity" NumberOfComponents="1" format="ascii">
          0 1 2 1 3 4 3 5 3 6 5 6
          7 4 1 8 4 9 9 10 11 9 12 13
          13 14 15 13 16 14 15 10 17 18 13 19
          14 20 16 21 4 22 7 23 1 24 25 26
          24 26 6 26 25 24 9 23 6 27 24 28
          13 24 18 26 21 29 30 31 32 31 33 34
          35 36 37 36 24 38 39 38 40 38 31 41
          36 42 23 42 27 41 26 42 36 41 27 34
          38 43 24 44 45 46 47 46 47 42 45 48
          46 49 31 50 34 51 36 52 39 53 38 54
          55 53 42 56 44 57 49 58
        </DataArray>
        <DataArray type="Int32" Name="offsets" NumberOfComponents="1" format="ascii">
          2 4 6 8 10 12 14 16 18 20 22 24
          26 28 30 32 34 36 38 40 42 44 46 48
          50 52 54 56 58 60 62 64 66 68 70 72
          74 76 78 80 82 84 86 88 90 92 94 96
          98 100 102 104 106 108 110 112 114 116 118 120
          122 124 126 128
        </DataArray>
      </Lines>
    </Piece>
  </PolyData>
</VTKFile>
