<?xml version="1.0"?>
<VTKFile type="UnstructuredGrid" version="0.1" byte_order="LittleEndian">
  <UnstructuredGrid>
    <Piece NumberOfCells="100" NumberOfPoints="121">
      <PointData Scalars="porosity" Vectors="u">
        <DataArray type="Float32" Name="porosity" NumberOfComponents="1" format="ascii">
          0.655203 0.868329 0.672437 0.830133 0.899819 0.861442 0.890522 0.846568 0.813685 0.749571 0 0
          1 1 1 1 1 1 1 1 1 1 0.621734 0.586077
          0.538282 0.473145 0.383017 0.252817 0.051129 0 0 0 0 0.431814 1 1
          1 1 0.541949 0.795026 0.836609 0.812389 0.629529 0.0797655 0 1 1 1
          1 0.635513 0.86485 0.896869 0.885038 0.788117 0.527552 1 1 1 1 1
          0.643345 0.86925 0.901265 0.892533 0.818094 0.65486 1 1 1 1 1 0.57287
          0.819178 0.862068 0.855446 0.788806 0.680536 0 0 0 0 0.173414 0.348159 0.461374
          0.537691 0.591657 0.632757 0.633306 0.0286361 0.764376 0.833118 0.825643 0.727822 0 1 1
          1 0 0.456711 0.520115 0.85746 0.895792 0.887766 0.81069 0 1 1 1
          1 0 0.602325 0.86295 0.897555 0.888803 0.81162 0 1 1 1 1
          0
        </DataArray>
        <DataArray type="Float32" Name="u" NumberOfComponents="3" format="ascii">
          0 0 0 0 0 0 0 0 0 0.0481153 0.363957 0
          0 0 0 0.0934166 0.58934 0 0 0 0 0.130954 0.589376 0
          0 0 0 0.155976 0.364446 0 0 0 0 0.164956 0.000518449 0
          0 0 0 0.156554 -0.363477 0 0 0 0 0.131993 -0.588613 0
          0 0 0 0.0946667 -0.588909 0 0 0 0 0.0491385 -0.363932 0
          0 0 0 0 0 0 0 0 0 0.0838484 0.590559 0
          0.152264 0.953557 0 0.20395 0.95324 0 0.236441 0.590205 0 0.247828 0.0029933 0
          0.23735 -0.584491 0 0.205573 -0.948337 0 0.154177 -0.949978 0 0.0853257 -0.588714 0
          0 0 0 0 0 0 0.0869138 0.59232 0 0.150812 0.955588 0
          0.193915 0.955417 0 0.218695 0.592875 0 0.227034 0.00630311 0 0.219587 -0.580797 0
          0.195501 -0.944912 0 0.152661 -0.947661 0 0.0883236 -0.587912 0 0 0 0
          0 0 0 0.0556681 0.368707 0 0.0894817 0.594634 0 0.106461 0.595281 0
          0.11319 0.371574 0 0.114957 0.00905389 0 0.113735 -0.354203 0 0.107428 -0.580103 0
          0.0906056 -0.583065 0 0.0565214 -0.36215 0 0 0 0 0 0 0
          0.00219115 0.00512468 0 -0.00779061 0.00822956 0 -0.0239508 0.00992753 0 -0.0381341 0.0105005 0
          -0.043704 0.0101149 0 -0.0381341 0.00891322 0 -0.0239508 0.00705559 0 -0.00779061 0.00474666 0
          0.00219115 0.00226344 0 0 0 0 0 0 0 -0.0529906 -0.3597 0
          -0.103629 -0.580047 0 -0.147159 -0.577593 0 -0.177014 -0.352809 0 -0.187839 0.00905389 0
          -0.177559 0.37018 0 -0.148126 0.592771 0 -0.104753 0.591616 0 -0.0538439 0.366257 0
          0 0 0 0 0 0 -0.0888655 -0.586512 0 -0.161633 -0.945823 0
          -0.216467 -0.943322 0 -0.250905 -0.579895 0 -0.262955 0.00630311 0 -0.251797 0.591973 0
          -0.218052 0.953827 0 -0.163482 0.95375 0 -0.0902753 0.59092 0 0 0 0
          0 0 0 -0.0918459 -0.588504 0 -0.160151 -0.949473 0 -0.206475 -0.947793 0
          -0.233242 -0.584154 0 -0.242265 0.0029933 0 -0.234151 0.589868 0 -0.208099 0.952696 0
          -0.162064 0.953053 0 -0.0933231 0.59035 0 0 0 0 0 0 0
          -0.0603096 -0.364402 0 -0.0996524 -0.589188 0 -0.122767 -0.588728 0 -0.134401 -0.36351 0
          -0.138052 0.000518449 0 -0.134979 0.364478 0 -0.123806 0.589491 0 -0.100902 0.589619 0
          -0.0613327 0.364427 0 0 0 0 0 0 0 0 0 0
          0 0 0 0 0 0 0 0 0 0 0 0
          0 0 0 0 0 0 0 0 0 0 0 0
          0 0 0
        </DataArray>
        <DataArray type="Float32" Name="u_exact" NumberOfComponents="3" format="ascii">
          0 0 0 0 0 0 0 0 0 0.0529007 0.345491 0
          0 0 0 0.0940456 0.559017 0 0 0 0 0.123435 0.559017 0
          0 0 0 0.141068 0.345491 0 0 0 0 0.146946 7.19829e-17 0
          0 0 0 0.141068 -0.345491 0 0 -0 0 0.123435 -0.559017 0
          0 -0 0 0.0940456 -0.559017 0 0 -0 0 0.0529007 -0.345491 0
          0 -0 0 0 -1.43966e-16 0 0 0 0 0.0855951 0.559017 0
          0.152169 0.904508 0 0.199722 0.904508 0 0.228254 0.559017 0 0.237764 1.16471e-16 0
          0.228254 -0.559017 0 0.199722 -0.904508 0 0.152169 -0.904508 0 0.0855951 -0.559017 0
          0 -2.32942e-16 0 0 0 0 0.0855951 0.559017 0 0.152169 0.904508 0
          0.199722 0.904508 0 0.228254 0.559017 0 0.237764 1.16471e-16 0 0.228254 -0.559017 0
          0.199722 -0.904508 0 0.152169 -0.904508 0 0.0855951 -0.559017 0 0 -2.32942e-16 0
          0 0 0 0.0529007 0.345491 0 0.0940456 0.559017 0 0.123435 0.559017 0
          0.141068 0.345491 0 0.146946 7.19829e-17 0 0.141068 -0.345491 0 0.123435 -0.559017 0
          0.0940456 -0.559017 0 0.0529007 -0.345491 0 0 -1.43966e-16 0 0 0 0
          1.10218e-17 7.19829e-17 0 1.95943e-17 1.16471e-16 0 2.57176e-17 1.16471e-16 0 2.93915e-17 7.19829e-17 0
          3.06162e-17 1.49976e-32 0 2.93915e-17 -7.19829e-17 0 2.57176e-17 -1.16471e-16 0 1.95943e-17 -1.16471e-16 0
          1.10218e-17 -7.19829e-17 0 0 -2.99952e-32 0 0 0 0 -0.0529007 -0.345491 0
          -0.0940456 -0.559017 0 -0.123435 -0.559017 0 -0.141068 -0.345491 0 -0.146946 -7.19829e-17 0
          -0.141068 0.345491 0 -0.123435 0.559017 0 -0.0940456 0.559017 0 -0.0529007 0.345491 0
          0 1.43966e-16 0 -0 -0 0 -0.0855951 -0.559017 0 -0.152169 -0.904508 0
          -0.199722 -0.904508 0 -0.228254 -0.559017 0 -0.237764 -1.16471e-16 0 -0.228254 0.559017 0
          -0.199722 0.904508 0 -0.152169 0.904508 0 -0.0855951 0.559017 0 -0 2.32942e-16 0
          -0 -0 0 -0.0855951 -0.559017 0 -0.152169 -0.904508 0 -0.199722 -0.904508 0
          -0.228254 -0.559017 0 -0.237764 -1.16471e-16 0 -0.228254 0.559017 0 -0.199722 0.904508 0
          -0.152169 0.904508 0 -0.0855951 0.559017 0 -0 2.32942e-16 0 -0 -0 0
          -0.0529007 -0.345491 0 -0.0940456 -0.559017 0 -0.123435 -0.559017 0 -0.141068 -0.345491 0
          -0.146946 -7.19829e-17 0 -0.141068 0.345491 0 -0.123435 0.559017 0 -0.0940456 0.559017 0
          -0.0529007 0.345491 0 -0 1.43966e-16 0 -0 -0 0 -2.20436e-17 -1.43966e-16 0
          -3.91887e-17 -2.32942e-16 0 -5.14352e-17 -2.32942e-16 0 -5.8783e-17 -1.43966e-16 0 -6.12323e-17 -2.99952e-32 0
          -5.8783e-17 1.43966e-16 0 -5.14352e-17 2.32942e-16 0 -3.91887e-17 2.32942e-16 0 -2.20436e-17 1.43966e-16 0
          -0 5.99904e-32 0
        </DataArray>
      </PointData>
      <CellData Scalars="process rank" Vectors="sigma_0">
        <DataArray type="Float32" Name="process rank" NumberOfComponents="1" format="ascii">
          0 0 0 0 0 0 0 0 0 0 0 0
          0 0 0 0 0 0 0 0 0 0 0 0
          0 0 0 0 0 0 0 0 0 0 0 0
          0 0 0 0 0 0 0 0 0 0 0 0
          0 0 0 0 0 0 0 0 0 0 0 0
          0 0 0 0 0 0 0 0 0 0 0 0
          0 0 0 0 0 0 0 0 0 0 0 0
          0 0 0 0 0 0 0 0 0 0 0 0
          0 0 0 0
        </DataArray>
        <DataArray type="Float32" Name="sigma_0" NumberOfComponents="3" format="ascii">
          -4.93165 4.12072 0 0.852608 3.66916 0 2.85535 2.24407 0 0.218572 0.61999 0
          -6.15744 -0.429951 0 -13.9581 -0.42486 0 -20.328 0.63411 0 -22.953 2.26364 0
          -20.9337 3.68783 0 -15.1281 4.1307 0 -3.81349 9.90249 0 -0.78345 6.82962 0
          -0.194182 1.31561 0 -2.56243 -4.34505 0 -7.30686 -7.87801 0 -12.952 -7.87811 0
          -17.6815 -4.34606 0 -20.0213 1.31153 0 -19.393 6.81939 0 -16.3202 9.88833 0
          -4.90703 11.8594 0 -6.12019 7.2788 0 -7.30173 -0.119743 0 -8.4609 -7.53357 0
          -9.59592 -12.1232 0 -10.7152 -12.1314 0 -11.8322 -7.55796 0 -12.9572 -0.159769 0
          -14.092 7.22495 0 -15.249 11.7962 0 -7.9971 9.29781 0 -13.0175 4.9662 0
          -15.5601 -1.48308 0 -15.0532 -7.79209 0 -12.0826 -11.6667 0 -8.16684 -11.6829 0
          -5.18181 -7.8394 0 -4.6475 -1.55839 0 -7.15222 4.86807 0 -12.1262 9.1826 0
          -11.9147 3.20355 0 -18.8243 0.782829 0 -21.7509 -2.25339 0 -19.7582 -5.0487 0
          -13.7907 -6.72891 0 -6.30428 -6.74989 0 -0.331271 -5.11006 0 1.6719 -2.35047 0
          -1.24022 0.657061 0 -8.13192 3.05556 0 -15.1576 -4.09757 0 -21.3102 -3.68262 0
          -23.4907 -2.14893 0 -20.7592 -0.367308 0 -14.0591 0.784621 0 -5.84597 0.763641 0
          0.848633 -0.428665 0 3.56978 -2.24601 0 1.37475 -3.80839 0 -4.7958 -4.24556 0
          -16.4854 -9.82087 0 -19.5249 -6.73537 0 -20.1143 -1.22357 0 -17.6729 4.45011 0
          -12.7844 7.99054 0 -6.96622 7.97442 0 -2.09211 4.4028 0 0.321887 -1.29888 0
          -0.305422 -6.8335 0 -3.39137 -9.93608 0 -15.3938 -11.78 0 -14.1611 -7.21778 0
          -12.9285 0.156543 0 -11.696 7.5472 0 -10.4603 12.117 0 -9.22851 12.1088 0
          -8.01093 7.52281 0 -6.81264 0.116517 0 -5.62675 -7.27163 0 -4.45025 -11.8432 0
          -12.2852 -9.2137 0 -7.28242 -4.93719 0 -4.73798 1.46346 0 -5.17088 7.71407 0
          -7.99828 11.5423 0 -11.7428 11.5422 0 -14.5851 7.71306 0 -15.0465 1.45938 0
          -12.5411 -4.94742 0 -7.58112 -9.22786 0 -8.15059 -3.04093 0 -1.60499 -0.648233 0
          1.14365 2.22879 0 -0.756332 4.82386 0 -6.40314 6.36481 0 -13.4813 6.3699 0
          -19.1342 4.83798 0 -21.046 2.24836 0 -18.314 -0.629562 0 -11.7896 -3.03094 0
        </DataArray>
        <DataArray type="Float32" Name="effSigma_0" NumberOfComponents="3" format="ascii">
          5.08303 4.12072 0 10.892 3.66916 0 12.9133 2.24407 0 10.2889 0.61999 0
          3.91904 -0.429951 0 -3.88166 -0.42486 0 -10.2577 0.63411 0 -12.895 2.26364 0
          -10.8943 3.68783 0 -5.11347 4.1307 0 6.22494 9.90249 0 9.3197 6.82962 0
          9.95751 1.31561 0 7.62162 -4.34505 0 2.89337 -7.87801 0 -2.75182 -7.87811 0
          -7.49749 -4.34606 0 -9.86961 1.31153 0 -9.28988 6.81939 0 -6.28175 9.88833 0
          5.14047 11.8594 0 4.00731 7.2788 0 2.88577 -0.119743 0 1.7666 -7.53357 0
          0.651581 -12.1232 0 -0.46772 -12.1314 0 -1.60472 -7.55796 0 -2.76967 -0.159769 0
          -3.96447 7.22495 0 -5.20146 11.7962 0 2.04133 9.29781 0 -2.91432 4.9662 0
          -5.40841 -1.48308 0 -4.86912 -7.79209 0 -1.88232 -11.6667 0 2.03339 -11.6829 0
          5.00224 -7.8394 0 5.50419 -1.55839 0 2.95093 4.86807 0 -2.08773 9.1826 0
          -1.90004 3.20355 0 -8.78491 0.782829 0 -11.693 -2.25339 0 -9.68791 -5.0487 0
          -3.71419 -6.72891 0 3.7722 -6.74989 0 9.73903 -5.11006 0 11.7298 -2.35047 0
          8.79918 0.657061 0 1.88275 3.05556 0 -5.17223 -4.09757 0 -11.3496 -3.68262 0
          -13.5487 -2.14893 0 -10.8295 -0.367308 0 -4.13555 0.784621 0 4.07754 0.763641 0
          10.7783 -0.428665 0 13.5118 -2.24601 0 11.3353 -3.80839 0 5.18952 -4.24556 0
          -6.5238 -9.82087 0 -9.62804 -6.73537 0 -10.266 -1.22357 0 -7.85696 4.45011 0
          -2.98462 7.99054 0 2.83355 7.97442 0 7.72384 4.4028 0 10.1702 -1.29888 0
          9.59143 -6.8335 0 6.5702 -9.93608 0 -5.44126 -11.78 0 -4.28859 -7.21778 0
          -3.11596 0.156543 0 -1.92345 7.5472 0 -0.707847 12.117 0 0.523986 12.1088 0
          1.76157 7.52281 0 2.99986 0.116517 0 4.24575 -7.27163 0 5.50225 -11.8432 0
          -2.32365 -9.2137 0 2.61443 -4.93719 0 5.11033 1.46346 0 4.64507 7.71407 0
          1.80149 11.5423 0 -1.94305 11.5422 0 -4.7692 7.71306 0 -5.19823 1.45938 0
          -2.64424 -4.94742 0 2.38045 -9.22786 0 1.83473 -3.04093 0 8.35561 -0.648233 0
          11.0857 2.22879 0 9.17337 4.82386 0 3.52038 6.36481 0 -3.55777 6.3699 0
          -9.20453 4.83798 0 -11.104 2.24836 0 -8.35336 -0.629562 0 -1.80429 -3.03094 0
        </DataArray>
        <DataArray type="Float32" Name="sigma_1" NumberOfComponents="3" format="ascii">
          4.12072 1.38517 0 3.66916 19.0125 0 2.24407 25.6789 0 0.61999 18.7946 0
          -0.429951 0.962239 0 -0.42486 -21.0493 0 0.63411 -38.8786 0 2.26364 -45.7569 0
          3.68783 -39.0799 0 4.1307 -21.424 0 9.90249 -1.9207 0 6.82962 8.75862 0
          1.31561 12.583 0 -4.34505 8.07977 0 -7.87801 -3.14952 0 -7.87811 -16.9452 0
          -4.34606 -28.1695 0 1.31153 -32.6627 0 6.81939 -28.8225 0 9.88833 -18.1265 0
          11.8594 -8.28707 0 7.2788 -8.69065 0 -0.119743 -9.11337 0 -7.53357 -9.50936 0
          -12.1232 -9.87084 0 -12.1314 -10.2167 0 -7.55796 -10.5726 0 -0.159769 -10.9576 0
          7.22495 -11.3658 0 11.7962 -11.7599 0 9.29781 -15.321 0 4.9662 -26.663 0
          -1.48308 -31.1836 0 -7.79209 -27.3121 0 -11.6667 -16.6557 0 -11.6829 -3.40656 0
          -7.8394 7.25414 0 -1.55839 11.1338 0 4.86807 6.62336 0 9.1826 -4.71401 0
          3.20355 -20.3435 0 0.782829 -38.3007 0 -2.25339 -45.2025 0 -5.0487 -38.5377 0
          -6.72891 -20.9149 0 -6.74989 0.892307 0 -5.11006 18.5167 0 -2.35047 25.1846 0
          0.657061 18.2863 0 3.05556 0.330589 0 -4.09757 -21.4381 0 -3.68262 -39.1599 0
          -2.14893 -45.8129 0 -0.367308 -38.895 0 0.784621 -21.0186 0 0.763641 1.04115 0
          -0.428665 18.9159 0 -2.24601 25.8308 0 -3.80839 19.1742 0 -4.24556 1.45103 0
          -9.82087 -18.1845 0 -6.73537 -28.9085 0 -1.22357 -32.7771 0 4.45011 -28.2434 0
          7.99054 -16.9236 0 7.97442 -3.01412 0 4.4028 8.3013 0 -1.29888 12.8268 0
          -6.8335 8.9482 0 -9.93608 -1.78051 0 -11.78 -11.8194 0 -7.21778 -11.4525 0
          0.156543 -11.0677 0 7.5472 -10.6464 0 12.117 -10.1903 0 12.1088 -9.72223 0
          7.52281 -9.2716 0 0.116517 -8.86131 0 -7.27163 -8.49105 0 -11.8432 -8.13362 0
          -9.2137 -4.76007 0 -4.93719 6.55828 0 1.46346 11.0378 0 7.71407 7.19131 0
          11.5423 -3.38143 0 11.5422 -16.5238 0 7.71306 -27.1015 0 1.45938 -30.9581 0
          -4.94742 -26.4944 0 -9.22786 -15.1927 0 -3.04093 0.343648 0 -0.648233 18.2537 0
          2.22879 25.1643 0 4.82386 18.5211 0 6.36481 0.929716 0 6.3699 -20.8427 0
          4.83798 -38.4371 0 2.24836 -45.0863 0 -0.629562 -38.1863 0 -3.03094 -20.3048 0
        </DataArray>
        <DataArray type="Float32" Name="effSigma_1" NumberOfComponents="3" format="ascii">
          4.12072 11.3998 0 3.66916 29.0519 0 2.24407 35.7369 0 0.61999 28.8649 0
          -0.429951 11.0387 0 -0.42486 -10.9728 0 0.63411 -28.8083 0 2.26364 -35.6989 0
          3.68783 -29.0405 0 4.1307 -11.4093 0 9.90249 8.11772 0 6.82962 18.8618 0
          1.31561 22.7347 0 -4.34505 18.2638 0 -7.87801 7.05071 0 -7.87811 -6.74497 0
          -4.34606 -17.9855 0 1.31153 -22.511 0 6.81939 -18.7193 0 9.88833 -8.08811 0
          11.8594 1.76043 0 7.2788 1.43685 0 -0.119743 1.07413 0 -7.53357 0.71814 0
          -12.1232 0.376661 0 -12.1314 0.0308437 0 -7.55796 -0.345099 0 -0.159769 -0.77012 0
          7.22495 -1.23832 0 11.7962 -1.71244 0 9.29781 -5.28257 0 4.9662 -16.5599 0
          -1.48308 -21.0319 0 -7.79209 -17.128 0 -11.6667 -6.45545 0 -11.6829 6.79367 0
          -7.8394 17.4382 0 -1.55839 21.2855 0 4.86807 16.7265 0 9.1826 5.32442 0
          3.20355 -10.3289 0 0.782829 -28.2613 0 -2.25339 -35.1446 0 -5.0487 -28.4674 0
          -6.72891 -10.8384 0 -6.74989 10.9688 0 -5.11006 28.587 0 -2.35047 35.2425 0
          0.657061 28.3257 0 3.05556 10.3453 0 -4.09757 -11.4527 0 -3.68262 -29.1993 0
          -2.14893 -35.8708 0 -0.367308 -28.9653 0 0.784621 -11.0951 0 0.763641 10.9647 0
          -0.428665 28.8456 0 -2.24601 35.7729 0 -3.80839 29.1348 0 -4.24556 11.4363 0
          -9.82087 -8.22291 0 -6.73537 -19.0117 0 -1.22357 -22.9288 0 4.45011 -18.4274 0
          7.99054 -7.12387 0 7.97442 6.78564 0 4.4028 18.1173 0 -1.29888 22.6751 0
          -6.8335 18.845 0 -9.93608 8.18106 0 -11.78 -1.86687 0 -7.21778 -1.57997 0
          0.156543 -1.25521 0 7.5472 -0.873941 0 12.117 -0.437774 0 12.1088 0.0302692 0
          7.52281 0.5009 0 0.116517 0.951194 0 -7.27163 1.38145 0 -11.8432 1.81888 0
          -9.2137 5.2015 0 -4.93719 16.4551 0 1.46346 20.8861 0 7.71407 17.0073 0
          11.5423 6.41834 0 11.5422 -6.72407 0 7.71306 -17.2856 0 1.45938 -21.1098 0
          -4.94742 -16.5976 0 -9.22786 -5.23111 0 -3.04093 10.329 0 -0.648233 28.2143 0
          2.22879 35.1063 0 4.82386 28.4508 0 6.36481 10.8532 0 6.3699 -10.9192 0
          4.83798 -28.5074 0 2.24836 -35.1443 0 -0.629562 -28.2257 0 -3.03094 -10.3195 0
        </DataArray>
      </CellData>
      <Points>
        <DataArray type="Float32" Name="Coordinates" NumberOfComponents="3" format="ascii">
          0 0 0 0.1 0 0 0 0.1 0 0.1 0.1 0
          0.2 0 0 0.2 0.1 0 0.3 0 0 0.3 0.1 0
          0.4 0 0 0.4 0.1 0 0.5 0 0 0.5 0.1 0
          0.6 0 0 0.6 0.1 0 0.7 0 0 0.7 0.1 0
          0.8 0 0 0.8 0.1 0 0.9 0 0 0.9 0.1 0
          1 0 0 1 0.1 0 0 0.2 0 0.1 0.2 0
          0.2 0.2 0 0.3 0.2 0 0.4 0.2 0 0.5 0.2 0
          0.6 0.2 0 0.7 0.2 0 0.8 0.2 0 0.9 0.2 0
          1 0.2 0 0 0.3 0 0.1 0.3 0 0.2 0.3 0
          0.3 0.3 0 0.4 0.3 0 0.5 0.3 0 0.6 0.3 0
          0.7 0.3 0 0.8 0.3 0 0.9 0.3 0 1 0.3 0
          0 0.4 0 0.1 0.4 0 0.2 0.4 0 0.3 0.4 0
          0.4 0.4 0 0.5 0.4 0 0.6 0.4 0 0.7 0.4 0
          0.8 0.4 0 0.9 0.4 0 1 0.4 0 0 0.5 0
          0.1 0.5 0 0.2 0.5 0 0.3 0.5 0 0.4 0.5 0
          0.5 0.5 0 0.6 0.5 0 0.7 0.5 0 0.8 0.5 0
          0.9 0.5 0 1 0.5 0 0 0.6 0 0.1 0.6 0
          0.2 0.6 0 0.3 0.6 0 0.4 0.6 0 0.5 0.6 0
          0.6 0.6 0 0.7 0.6 0 0.8 0.6 0 0.9 0.6 0
          1 0.6 0 0 0.7 0 0.1 0.7 0 0.2 0.7 0
          0.3 0.7 0 0.4 0.7 0 0.5 0.7 0 0.6 0.7 0
          0.7 0.7 0 0.8 0.7 0 0.9 0.7 0 1 0.7 0
          0 0.8 0 0.1 0.8 0 0.2 0.8 0 0.3 0.8 0
          0.4 0.8 0 0.5 0.8 0 0.6 0.8 0 0.7 0.8 0
          0.8 0.8 0 0.9 0.8 0 1 0.8 0 0 0.9 0
          0.1 0.9 0 0.2 0.9 0 0.3 0.9 0 0.4 0.9 0
          0.5 0.9 0 0.6 0.9 0 0.7 0.9 0 0.8 0.9 0
          0.9 0.9 0 1 0.9 0 0 1 0 0.1 1 0
          0.2 1 0 0.3 1 0 0.4 1 0 0.5 1 0
          0.6 1 0 0.7 1 0 0.8 1 0 0.9 1 0
          1 1 0
        </DataArray>
      </Points>
      <Cells>
        <DataArray type="Int32" Name="connectivity" NumberOfComponents="1" format="ascii">
          0 1 3 2 1 4 5 3 4 6 7 5
          6 8 9 7 8 10 11 9 10 12 13 11
          12 14 15 13 14 16 17 15 16 18 19 17
          18 20 21 19 2 3 23 22 3 5 24 23
          5 7 25 24 7 9 26 25 9 11 27 26
          11 13 28 27 13 15 29 28 15 17 30 29
          17 19 31 30 19 21 32 31 22 23 34 33
          23 24 35 34 24 25 36 35 25 26 37 36
          26 27 38 37 27 28 39 38 28 29 40 39
          29 30 41 40 30 31 42 41 31 32 43 42
          33 34 45 44 34 35 46 45 35 36 47 46
          36 37 48 47 37 38 49 48 38 39 50 49
          39 40 51 50 40 41 52 51 41 42 53 52
          42 43 54 53 44 45 56 55 45 46 57 56
          46 47 58 57 47 48 59 58 48 49 60 59
          49 50 61 60 50 51 62 61 51 52 63 62
          52 53 64 63 53 54 65 64 55 56 67 66
          56 57 68 67 57 58 69 68 58 59 70 69
          59 60 71 70 60 61 72 71 61 62 73 72
          62 63 74 73 63 64 75 74 64 65 76 75
          66 67 78 77 67 68 79 78 68 69 80 79
          69 70 81 80 70 71 82 81 71 72 83 82
          72 73 84 83 73 74 85 84 74 75 86 85
          75 76 87 86 77 78 89 88 78 79 90 89
          79 80 91 90 80 81 92 91 81 82 93 92
          82 83 94 93 83 84 95 94 84 85 96 95
          85 86 97 96 86 87 98 97 88 89 100 99
          89 90 101 100 90 91 102 101 91 92 103 102
          92 93 104 103 93 94 105 104 94 95 106 105
          95 96 107 106 96 97 108 107 97 98 109 108
          99 100 111 110 100 101 112 111 101 102 113 112
          102 103 114 113 103 104 115 114 104 105 116 115
          105 106 117 116 106 107 118 117 107 108 119 118
          108 109 120 119
        </DataArray>
        <DataArray type="Int32" Name="offsets" NumberOfComponents="1" format="ascii">
          4 8 12 16 20 24 28 32 36 40 44 48
          52 56 60 64 68 72 76 80 84 88 92 96
          100 104 108 112 116 120 124 128 132 136 140 144
          148 152 156 160 164 168 172 176 180 184 188 192
          196 200 204 208 212 216 220 224 228 232 236 240
          244 248 252 256 260 264 268 272 276 280 284 288
          292 296 300 304 308 312 316 320 324 328 332 336
          340 344 348 352 356 360 364 368 372 376 380 384
          388 392 396 400
        </DataArray>
        <DataArray type="UInt8" Name="types" NumberOfComponents="1" format="ascii">
          9 9 9 9 9 9 9 9 9 9 9 9
          9 9 9 9 9 9 9 9 9 9 9 9
          9 9 9 9 9 9 9 9 9 9 9 9
          9 9 9 9 9 9 9 9 9 9 9 9
          9 9 9 9 9 9 9 9 9 9 9 9
          9 9 9 9 9 9 9 9 9 9 9 9
          9 9 9 9 9 9 9 9 9 9 9 9
          9 9 9 9 9 9 9 9 9 9 9 9
          9 9 9 9
        </DataArray>
      </Cells>
    </Piece>
  </UnstructuredGrid>
</VTKFile>
