<?xml version="1.0"?>
<VTKFile type="PolyData" version="0.1" byte_order="LittleEndian">
  <PolyData>
    <Piece NumberOfLines="16" NumberOfPoints="17">
      <PointData Scalars="S_aq">
        <DataArray type="Float64" Name="S_aq" NumberOfComponents="1" format="ascii">
          1.00000002708466 1.00000001789278 1.00000000999427 1 1.00000001879394 1.00000000606181 1.00000000145606 1 1.00000001469639 1.0000000076078 0.999999840751563 1
          1.00000001247203 1.00000000705468 1.00000000373558 1 1.00000003239841
        </DataArray>
        <DataArray type="Float64" Name="p_aq" NumberOfComponents="1" format="ascii">
          99999.9999761874 99999.9999761874 99999.9999761874 100000 99999.9999761874 99999.9999761874 99999.9999761874 100000 99999.9999761874 99999.9999761874 99999.9999761874 100000
          99999.9999761874 99999.9999761874 99999.9999761874 100000 99999.9999761874
        </DataArray>
        <DataArray type="Float64" Name="rho_aq" NumberOfComponents="1" format="ascii">
          1000 1000 1000 1000 1000 1000 1000 1000 1000 1000 1000 1000
          1000 1000 1000 1000 1000
        </DataArray>
        <DataArray type="Float64" Name="mob_aq" NumberOfComponents="1" format="ascii">
          1000 1000 1000 1000 1000 1000 1000 1000 1000 1000 1000 1000
          1000 1000 1000 1000 1000
        </DataArray>
        <DataArray type="Float64" Name="S_napl" NumberOfComponents="1" format="ascii">
          -2.7084655490732e-08 -1.78927785774179e-08 -9.99426975835755e-09 0 -1.87939419058277e-08 -6.0618116901563e-09 -1.45606385052201e-09 0 -1.46963945617353e-08 -7.6078044762126e-09 1.59248436589444e-07 0
          -1.24720348384349e-08 -7.05468347810972e-09 -3.73558356872992e-09 0 -3.23984130233983e-08
        </DataArray>
        <DataArray type="Float64" Name="p_napl" NumberOfComponents="1" format="ascii">
          99999.9997794026 99999.9998461866 99999.9999035736 100000 99999.9998396392 99999.9999321451 99999.9999656083 100000 99999.9998694101 99999.9999209126 99999.999976193 100000
          99999.9998855713 99999.9999249313 99999.9999490464 100000 99999.9997407952
        </DataArray>
        <DataArray type="Float64" Name="rho_napl" NumberOfComponents="1" format="ascii">
          1000 1000 1000 1000 1000 1000 1000 1000 1000 1000 1000 1000
          1000 1000 1000 1000 1000
        </DataArray>
        <DataArray type="Float64" Name="mob_napl" NumberOfComponents="1" format="ascii">
          1000 1000 1000 1000 1000 1000 1000 1000 1000 1000 1000 1000
          1000 1000 1000 1000 1000
        </DataArray>
        <DataArray type="Float64" Name="pc" NumberOfComponents="1" format="ascii">
          -0.000196784849995199 -0.000130000832511534 -7.26138422244951e-05 -0 -0.000136548277740657 -4.40423808954145e-05 -1.05791016698341e-05 -0 -0.00010677735244045 -5.52748640315888e-05 5.52722667634953e-09 0
          -9.06161606341502e-05 -5.12561379949803e-05 -2.71410601793566e-05 -0 -0.000235392208573036
        </DataArray>
        <DataArray type="Float64" Name="porosity" NumberOfComponents="1" format="ascii">
          1 1 1 1 1 1 1 1 1 1 1 1
          1 1 1 1 1
        </DataArray>
        <DataArray type="Float64" Name="poreInscribedRadius" NumberOfComponents="1" format="ascii">
          0.0002 0.0002 0.0002 0.0002 0.0002 0.0002 0.0002 0.0002 0.0002 0.0002 0.0002 0.0002
          0.0002 0.0002 0.0002 0.0002 0.0002
        </DataArray>
        <DataArray type="Float64" Name="coordinationNumber" NumberOfComponents="1" format="ascii">
          3 2 2 1 3 2 2 1 3 2 2 1
          2 2 2 1 1
        </DataArray>
        <DataArray type="Float64" Name="poreLabel" NumberOfComponents="1" format="ascii">
          -1 -1 -1 3 -1 -1 -1 3 -1 -1 -1 3
          -1 -1 -1 3 2
        </DataArray>
      </PointData>
      <CellData Scalars="process rank" Vectors="velocity_aq (m/s)">
        <DataArray type="Float64" Name="velocity_aq (m/s)" NumberOfComponents="3" format="ascii">
          0 0 0 0 0 0 0 0 0 0 0 0
          0 0 0 0 0 0 0 0 0 0 0 0
          0 0 0 0 0 0 0 0 0 0 0 0
          0 0 0 0 0 0 0 0 0 0 0 0
        </DataArray>
        <DataArray type="Float64" Name="velocity_napl (m/s)" NumberOfComponents="3" format="ascii">
          0 3.9740000471311e-06 0 0 3.68381904295092e-06 0 0 4.77517784265276e-06 0 0 4.01462767671996e-06 0
          0 2.41459818064574e-06 0 0 2.44786291735179e-06 0 0 2.14682888962369e-06 0 0 2.22417490380769e-06 0
          0 1.45960739635176e-06 0 0 2.21640779807981e-06 0 0 1.73486881772872e-06 0 0 2.52179380385098e-06 0
          4.83771503837458e-06 0 0 2.5258299242558e-06 0 0 1.42023074516162e-06 0 0 4.91218717231278e-06 0 0
        </DataArray>
        <DataArray type="Float32" Name="process rank" NumberOfComponents="1" format="ascii">
          0 0 0 0 0 0 0 0 0 0 0 0
          0 0 0 0
        </DataArray>
        <DataArray type="Float64" Name="throatLabel" NumberOfComponents="1" format="ascii">
          -1 -1 3 -1 -1 3 -1 -1 3 -1 -1 3
          -1 -1 -1 2
        </DataArray>
        <DataArray type="Float64" Name="throatInscribedRadius" NumberOfComponents="1" format="ascii">
          0.000123097067802378 0.000127853456663403 0.000112296662187265 0.000105125476991958 0.00013555272315052 0.000134628505068916 0.000103027857685136 0.000101220609021347 0.000124949760503455 0.000119747714975977 0.000135350225034082 0.000112263176978169
          0.000143007909789965 0.000146986004970658 0.000149593509276106 0.00018
        </DataArray>
        <DataArray type="Float64" Name="throatLength" NumberOfComponents="1" format="ascii">
          0.0001 0.0001 0.0001 0.0001 0.0001 0.0001 0.0001 0.0001 0.0001 0.0001 0.0001 0.0001
          0.0001 0.0001 0.0001 0.0001
        </DataArray>
        <DataArray type="Float64" Name="pcEntry" NumberOfComponents="1" format="ascii">
          1177.93220089357 1134.11090934943 1291.22270578443 1379.30408640231 1069.69448219045 1077.03788232496 1407.38634441119 1432.5145975897 1160.46640998556 1210.8790554299 1071.29485720093 1291.60784420164
          1013.92993026023 986.488475749411 969.293391816703 805.555555555556
        </DataArray>
        <DataArray type="Float64" Name="transmissibilityW" NumberOfComponents="1" format="ascii">
          9.01676431459137e-13 1.0493244258781e-12 6.24492572053708e-13 4.79613946343879e-13 1.32584535761119e-12 1.2900542657325e-12 4.42464633824624e-13 4.12226274897346e-13 9.57197592956489e-13 8.07474517363504e-13 1.31794053160957e-12 6.23748047233113e-13
          1.64248012033092e-12 1.83300576153272e-12 1.96657668901076e-12 4.12239788004053e-12
        </DataArray>
        <DataArray type="Float64" Name="transmissibilityN" NumberOfComponents="1" format="ascii">
          -2.83270005298708e-12 -3.29654990757098e-12 -1.96190127658532e-12 -1.50675165039314e-12 -4.16526603526746e-12 -4.05282500395741e-12 -1.39004364309674e-12 -1.29504703683419e-12 -3.00712492606594e-12 -2.53675601171015e-12 -4.14043229197284e-12 -1.95956228287853e-12
          -5.1600034796989e-12 -5.75855743441897e-12 -6.17818287891714e-12 -1.29508948951095e-11
        </DataArray>
        <DataArray type="Float64" Name="volumeFluxW" NumberOfComponents="1" format="ascii">
          0 0 0 0 0 0 0 0 0 0 0 0
          0 0 0 0
        </DataArray>
        <DataArray type="Float64" Name="volumeFluxN" NumberOfComponents="1" format="ascii">
          1.89179100755092e-13 1.89179080213894e-13 1.89179084350024e-13 1.39383416553439e-13 1.39383458068395e-13 1.39383386695086e-13 7.15907055229095e-14 7.15907151666351e-14 7.15907288965298e-14 9.98467681416312e-14 9.98468752933315e-14 9.98467889566798e-14
          3.10820943035012e-13 1.71437548979107e-13 9.9846830494261e-14 4.99999752728506e-13
        </DataArray>
        <DataArray type="Float64" Name="Invaded" NumberOfComponents="1" format="ascii">
          0 0 0 0 0 0 0 0 0 0 0 0
          0 0 0 0
        </DataArray>
        <DataArray type="Float64" Name="pcij" NumberOfComponents="1" format="ascii">
          -0.000130000832511534 -7.26138422244951e-05 -0 -4.40423808954145e-05 -1.05791016698341e-05 -0 -5.52748640315888e-05 5.52722667634953e-09 5.52722667634953e-09 -5.12561379949803e-05 -2.71410601793566e-05 -0
          -0.000136548277740657 -0.00010677735244045 -9.06161606341502e-05 -0.000196784849995199
        </DataArray>
      </CellData>
      <Points>
        <DataArray type="Float64" Name="Coordinates" NumberOfComponents="3" format="ascii">
          0 0 0 0 0.0005 0 0 0.001 0 0 0.0015 0
          0.0005 0 0 0.0005 0.0005 0 0.0005 0.001 0 0.0005 0.0015 0
          0.001 0 0 0.001 0.0005 0 0.001 0.001 0 0.001 0.0015 0
          0.0015 0 0 0.0015 0.0005 0 0.0015 0.001 0 0.0015 0.0015 0
          -0.0005 0 0
        </DataArray>
      </Points>
      <Lines>
        <DataArray type="Int32" Name="connectivity" NumberOfComponents="1" format="ascii">
          0 1 1 2 2 3 4 5 5 6 6 7
          8 9 9 10 10 11 12 13 13 14 14 15
          0 4 4 8 8 12 16 0
        </DataArray>
        <DataArray type="Int32" Name="offsets" NumberOfComponents="1" format="ascii">
          2 4 6 8 10 12 14 16 18 20 22 24
          26 28 30 32
        </DataArray>
      </Lines>
    </Piece>
  </PolyData>
</VTKFile>
