<?xml version="1.0"?>
<VTKFile type="UnstructuredGrid" version="0.1" byte_order="LittleEndian">
  <UnstructuredGrid>
    <Piece NumberOfCells="1000" NumberOfPoints="1071">
      <PointData Scalars="S_liq" Vectors="velocity_liq (m/s)">
        <DataArray type="Float32" Name="S_liq" NumberOfComponents="1" format="ascii">
          1 1 1 1 1 1 1 1 1 1 1 1
          1 1 1 1 1 1 1 1 1 1 1 1
          1 1 1 1 1 1 1 1 1 1 1 1
          1 1 1 1 1 1 1 1 1 1 1 1
          1 1 1 1 1 1 1 1 1 1 1 1
          1 1 1 1 1 1 1 1 1 1 1 1
          1 1 1 1 1 1 1 1 1 1 1 1
          1 1 1 1 1 1 1 1 1 1 1 1
          1 1 1 1 1 1 1 1 1 1 1 1
          1 1 1 1 1 1 1 1 1 1 1 1
          1 1 1 1 1 1 1 1 1 1 1 1
          1 1 1 1 1 1 1 1 1 1 1 1
          1 1 1 1 1 1 1 1 1 1 1 1
          1 1 1 1 1 1 1 1 1 1 1 1
          1 1 1 1 1 1 1 1 1 1 1 1
          1 1 1 1 1 1 1 1 1 1 1 1
          1 1 1 1 1 1 1 1 1 1 1 1
          1 1 1 1 1 1 1 1 1 1 1 1
          1 1 1 1 1 1 1 1 1 1 1 1
          1 1 1 1 1 1 1 1 1 1 1 1
          1 1 1 1 1 1 1 1 1 1 1 1
          1 1 1 1 1 1 1 1 1 1 1 1
          1 1 1 1 1 1 1 1 1 1 1 1
          1 1 1 1 1 1 1 1 1 1 1 1
          1 1 1 1 1 1 1 1 1 1 1 1
          1 1 1 1 1 1 1 1 1 1 1 1
          1 1 1 1 1 1 1 1 1 1 1 1
          1 1 1 1 1 1 1 1 1 1 1 1
          1 1 1 1 1 1 1 1 1 1 1 1
          1 1 1 1 1 1 1 1 1 1 1 1
          1 1 1 1 1 1 1 1 1 1 1 1
          1 1 1 1 1 1 1 1 1 1 1 1
          1 1 1 1 1 1 1 1 1 1 1 1
          1 1 1 1 1 1 1 1 1 1 1 1
          1 1 1 1 1 1 1 1 1 1 1 1
          1 1 1 1 1 1 1 1 1 1 1 1
          1 1 1 1 1 1 1 1 1 1 1 1
          1 1 1 1 1 1 1 1 1 1 1 1
          1 1 1 1 1 1 1 1 1 1 1 1
          1 1 1 1 1 1 1 1 1 1 1 1
          1 1 1 1 1 1 1 1 1 1 1 1
          1 1 1 1 1 1 1 1 1 1 1 1
          1 1 1 1 1 1 1 1 1 1 1 1
          1 1 1 1 1 1 1 1 1 1 1 1
          1 1 1 1 1 1 1 0.907028 1 1 1 1
          1 1 1 1 1 1 1 1 1 1 1 1
          1 1 1 1 1 1 1 1 1 1 1 1
          1 1 1 1 1 1 1 1 1 1 1 1
          1 1 1 1 1 1 1 1 1 1 1 1
          1 1 1 1 1 1 1 1 1 1 1 1
          1 1 1 1 1 1 1 1 1 1 1 1
          1 1 1 1 1 1 1 1 1 1 1 1
          1 1 1 1 1 1 1 1 1 1 1 0.997866
          0.897567 0.905834 1 1 1 1 1 1 1 1 1 1
          1 1 1 1 1 1 1 1 1 1 1 1
          1 1 1 1 1 1 1 1 1 1 1 1
          1 1 1 1 1 1 1 1 1 1 1 0.969522
          0.864894 0.641321 0.422743 0.298486 0.436157 0.712271 0.973187 1 1 1 1 1
          1 1 1 1 1 1 1 1 1 1 1 1
          1 1 1 1 1 1 1 1 1 1 1 1
          1 1 1 1 1 1 1 1 1 1 1 1
          1 1 0.812152 0.606556 0.396301 0.252848 0.171274 0.16757 0.264586 0.4488 0.720849 0.964187
          1 1 1 1 1 1 1 1 1 1 1 1
          1 1 1 1 1 1 1 1 1 1 1 1
          1 1 1 1 1 1 1 1 1 1 1 1
          1 1 1 1 1 0.814409 0.553474 0.337958 0.208848 0.139522 0.107169 0.107849
          0.139881 0.212577 0.350591 0.571369 0.83887 0.992071 1 1 1 1 1 1
          1 1 1 1 1 1 1 1 1 1 1 1
          1 1 1 1 1 1 1 1 1 1 1 1
          1 1 1 1 1 1 1 1 0.850726 0.495828 0.279915 0.169362
          0.115258 0.0934976 0.0900249 0.0916129 0.0956013 0.107859 0.142476 0.215258 0.348917 0.558352 0.812391 0.979889
          1 1 1 1 1 1 1 1 1 1 1 1
          1 1 1 1 1 1 1 1 1 1 1 1
          1 1 1 1 1 1 1 1 1 0.998792 0.848272 0.547476
          0.306814 0.180069 0.117979 0.091747 0.0853167 0.0844893 0.0845634 0.0849783 0.0859596 0.0878657 0.091216 0.0998798
          0.125182 0.179855 0.282359 0.452266 0.685643 0.908626 0.996945 1 1 1 1 1
          1 1 1 1 1 1 1 1 1 1 1 1
          1 1 1 1 1 1 1 1 0.999497 0.967359 0.812859 0.573251
          0.361878 0.223139 0.144821 0.104774 0.0875995 0.0823988 0.0805659 0.0799057 0.079758 0.079755 0.0797981 0.0798941
          0.080074 0.0804127 0.0811413 0.0825929 0.0849914 0.0895075 0.102537 0.134579 0.197264 0.309338 0.486629 0.717201
          0.92181 0.997115 1 1 1 1 1 1 1 1 1 1
          1 0.999996 0.999158 0.991399 0.962842 0.89676 0.786343 0.644784 0.497722 0.366967 0.263334 0.188489
          0.138565 0.107815 0.0914647 0.0842723 0.0804919 0.0778376 0.0759818 0.0749122 0.074439 0.0742589 0.074195 0.0741781
          0.0741775 0.0741829 0.0741939 0.0742138 0.0742504 0.0743217 0.0744527 0.0746751 0.0750894 0.0759431 0.0774885 0.0799127
          0.0845994 0.0976783 0.127128 0.182173 0.279456 0.43768 0.653559 0.866782 0.982596 0.999953 1 1
          0.4 0.320202 0.248266 0.193115 0.153617 0.126276 0.107862 0.0959731 0.0884707 0.0834715 0.0798148 0.0769196
          0.0744912 0.0723827 0.0705461 0.0690067 0.067832 0.0670545 0.0665913 0.0662966 0.0660858 0.0659414 0.0658581 0.065819
          0.0658035 0.0657981 0.0657969 0.0657973 0.0657984 0.0658004 0.0658033 0.065808 0.0658159 0.0658289 0.0658506 0.0658889
          0.0659598 0.0660826 0.0662806 0.066634 0.0673324 0.0685594 0.0703741 0.0728358 0.076515 0.0844592 0.102671 0.136716
          0.194957 0.285667 0.4
        </DataArray>
        <DataArray type="Float32" Name="S_gas" NumberOfComponents="1" format="ascii">
          0 0 0 0 0 0 0 0 0 0 0 0
          0 0 0 0 0 0 0 0 0 0 0 0
          0 0 0 0 0 0 0 0 0 0 0 0
          0 0 0 0 0 0 0 0 0 0 0 0
          0 0 0 0 0 0 0 0 0 0 0 0
          0 0 0 0 0 0 0 0 0 0 0 0
          0 0 0 0 0 0 0 0 0 0 0 0
          0 0 0 0 0 0 0 0 0 0 0 0
          0 0 0 0 0 0 0 0 0 0 0 0
          0 0 0 0 0 0 0 0 0 0 0 0
          0 0 0 0 0 0 0 0 0 0 0 0
          0 0 0 0 0 0 0 0 0 0 0 0
          0 0 0 0 0 0 0 0 0 0 0 0
          0 0 0 0 0 0 0 0 0 0 0 0
          0 0 0 0 0 0 0 0 0 0 0 0
          0 0 0 0 0 0 0 0 0 0 0 0
          0 0 0 0 0 0 0 0 0 0 0 0
          0 0 0 0 0 0 0 0 0 0 0 0
          0 0 0 0 0 0 0 0 0 0 0 0
          0 0 0 0 0 0 0 0 0 0 0 0
          0 0 0 0 0 0 0 0 0 0 0 0
          0 0 0 0 0 0 0 0 0 0 0 0
          0 0 0 0 0 0 0 0 0 0 0 0
          0 0 0 0 0 0 0 0 0 0 0 0
          0 0 0 0 0 0 0 0 0 0 0 0
          0 0 0 0 0 0 0 0 0 0 0 0
          0 0 0 0 0 0 0 0 0 0 0 0
          0 0 0 0 0 0 0 0 0 0 0 0
          0 0 0 0 0 0 0 0 0 0 0 0
          0 0 0 0 0 0 0 0 0 0 0 0
          0 0 0 0 0 0 0 0 0 0 0 0
          0 0 0 0 0 0 0 0 0 0 0 0
          0 0 0 0 0 0 0 0 0 0 0 0
          0 0 0 0 0 0 0 0 0 0 0 0
          0 0 0 0 0 0 0 0 0 0 0 0
          0 0 0 0 0 0 0 0 0 0 0 0
          0 0 0 0 0 0 0 0 0 0 0 0
          0 0 0 0 0 0 0 0 0 0 0 0
          0 0 0 0 0 0 0 0 0 0 0 0
          0 0 0 0 0 0 0 0 0 0 0 0
          0 0 0 0 0 0 0 0 0 0 0 0
          0 0 0 0 0 0 0 0 0 0 0 0
          0 0 0 0 0 0 0 0 0 0 0 0
          0 0 0 0 0 0 0 0 0 0 0 0
          0 0 0 0 0 0 0 0.0929722 0 0 0 0
          0 0 0 0 0 0 0 0 0 0 0 0
          0 0 0 0 0 0 0 0 0 0 0 0
          0 0 0 0 0 0 0 0 0 0 0 0
          0 0 0 0 0 0 0 0 0 0 0 0
          0 0 0 0 0 0 0 0 0 0 0 0
          0 0 0 0 0 0 0 0 0 0 0 0
          0 0 0 0 0 0 0 0 0 0 0 0
          0 0 0 0 0 0 0 0 0 0 0 0.00213388
          0.102433 0.0941657 4.52324e-08 0 0 0 0 0 0 0 0 0
          0 0 0 0 0 0 0 0 0 0 0 0
          0 0 0 0 0 0 0 0 0 0 0 0
          0 0 0 0 0 0 0 0 0 0 0 0.0304783
          0.135106 0.358679 0.577257 0.701514 0.563843 0.287729 0.0268131 0 0 0 0 0
          0 0 0 0 0 0 0 0 0 0 0 0
          0 0 0 0 0 0 0 0 0 0 0 0
          0 0 0 0 0 0 0 0 0 0 0 0
          0 0 0.187848 0.393444 0.603699 0.747152 0.828726 0.83243 0.735414 0.5512 0.279152 0.0358133
          0 0 0 0 0 0 0 0 0 0 0 0
          0 0 0 0 0 0 0 0 0 0 0 0
          0 0 0 0 0 0 0 0 0 0 0 0
          0 0 0 0 0 0.185591 0.446526 0.662042 0.791152 0.860478 0.892831 0.892151
          0.860119 0.787423 0.649409 0.428631 0.16113 0.00792908 0 0 0 0 0 0
          0 0 0 0 0 0 0 0 0 0 0 0
          0 0 0 0 0 0 0 0 0 0 0 0
          0 0 0 0 0 0 0 0 0.149274 0.504172 0.720085 0.830638
          0.884742 0.906502 0.909975 0.908387 0.904399 0.892141 0.857524 0.784742 0.651083 0.441648 0.187609 0.0201107
          1.08828e-09 0 0 0 0 0 0 0 0 0 0 0
          0 0 0 0 0 0 0 0 0 0 0 0
          0 0 0 0 0 0 0 0 0 0.00120765 0.151728 0.452524
          0.693186 0.819931 0.882021 0.908253 0.914683 0.915511 0.915437 0.915022 0.91404 0.912134 0.908784 0.90012
          0.874818 0.820145 0.717641 0.547734 0.314357 0.0913741 0.00305503 0 0 0 0 0
          0 0 0 0 0 0 0 0 0 0 0 0
          0 0 0 0 0 0 0 0 0.000503488 0.0326412 0.187141 0.426749
          0.638122 0.776861 0.855179 0.895226 0.912401 0.917601 0.919434 0.920094 0.920242 0.920245 0.920202 0.920106
          0.919926 0.919587 0.918859 0.917407 0.915009 0.910493 0.897463 0.865421 0.802736 0.690662 0.513371 0.282799
          0.0781898 0.00288455 0 0 0 0 0 0 0 0 0 0
          0 4.48809e-06 0.000841993 0.00860119 0.037158 0.10324 0.213657 0.355216 0.502278 0.633033 0.736666 0.811511
          0.861435 0.892185 0.908535 0.915728 0.919508 0.922162 0.924018 0.925088 0.925561 0.925741 0.925805 0.925822
          0.925823 0.925817 0.925806 0.925786 0.92575 0.925678 0.925547 0.925325 0.924911 0.924057 0.922512 0.920087
          0.915401 0.902322 0.872872 0.817827 0.720544 0.56232 0.346441 0.133218 0.0174038 4.72391e-05 0 0
          0.6 0.679798 0.751734 0.806885 0.846383 0.873724 0.892138 0.904027 0.911529 0.916529 0.920185 0.92308
          0.925509 0.927617 0.929454 0.930993 0.932168 0.932946 0.933409 0.933703 0.933914 0.934059 0.934142 0.934181
          0.934197 0.934202 0.934203 0.934203 0.934202 0.9342 0.934197 0.934192 0.934184 0.934171 0.934149 0.934111
          0.93404 0.933917 0.933719 0.933366 0.932668 0.931441 0.929626 0.927164 0.923485 0.915541 0.897329 0.863284
          0.805043 0.714333 0.6
        </DataArray>
        <DataArray type="Float32" Name="p_liq" NumberOfComponents="1" format="ascii">
          109480 109417 108990 108927 109353 108863 109289 108799 109223 108733 109155 108666
          109084 108595 109009 108520 108928 108441 108840 108353 108741 108256 108628 108144
          108496 108013 108342 107859 108168 107683 107980 107492 107784 107294 107586 107095
          107391 106897 107205 106708 107038 106538 106899 106396 106793 106290 106723 106221
          106686 106185 106681 106181 106703 106204 106751 106253 106819 106322 106904 106409
[...]
      <CellData Scalars="process rank">
        <DataArray type="Float32" Name="process rank" NumberOfComponents="1" format="ascii">
          0 0 0 0 0 0 0 0 0 0 0 0
          0 0 0 0 0 0 0 0 0 0 0 0
          0 0 0 0 0 0 0 0 0 0 0 0
          0 0 0 0 0 0 0 0 0 0 0 0
          0 0 0 0 0 0 0 0 0 0 0 0
          0 0 0 0 0 0 0 0 0 0 0 0
          0 0 0 0 0 0 0 0 0 0 0 0
          0 0 0 0 0 0 0 0 0 0 0 0
          0 0 0 0 0 0 0 0 0 0 0 0
          0 0 0 0 0 0 0 0 0 0 0 0
          0 0 0 0 0 0 0 0 0 0 0 0
          0 0 0 0 0 0 0 0 0 0 0 0
          0 0 0 0 0 0 0 0 0 0 0 0
          0 0 0 0 0 0 0 0 0 0 0 0
          0 0 0 0 0 0 0 0 0 0 0 0
          0 0 0 0 0 0 0 0 0 0 0 0
          0 0 0 0 0 0 0 0 0 0 0 0
          0 0 0 0 0 0 0 0 0 0 0 0
          0 0 0 0 0 0 0 0 0 0 0 0
          0 0 0 0 0 0 0 0 0 0 0 0
          0 0 0 0 0 0 0 0 0 0 0 0
          0 0 0 0 0 0 0 0 0 0 0 0
          0 0 0 0 0 0 0 0 0 0 0 0
          0 0 0 0 0 0 0 0 0 0 0 0
          0 0 0 0 0 0 0 0 0 0 0 0
          0 0 0 0 0 0 0 0 0 0 0 0
          0 0 0 0 0 0 0 0 0 0 0 0
          0 0 0 0 0 0 0 0 0 0 0 0
          0 0 0 0 0 0 0 0 0 0 0 0
          0 0 0 0 0 0 0 0 0 0 0 0
          0 0 0 0 0 0 0 0 0 0 0 0
          0 0 0 0 0 0 0 0 0 0 0 0
          0 0 0 0 0 0 0 0 0 0 0 0
          0 0 0 0 0 0 0 0 0 0 0 0
          0 0 0 0 0 0 0 0 0 0 0 0
          0 0 0 0 0 0 0 0 0 0 0 0
          0 0 0 0 0 0 0 0 0 0 0 0
          0 0 0 0 0 0 0 0 0 0 0 0
          0 0 0 0 0 0 0 0 0 0 0 0
          0 0 0 0 0 0 0 0 0 0 0 0
          0 0 0 0 0 0 0 0 0 0 0 0
          0 0 0 0 0 0 0 0 0 0 0 0
          0 0 0 0 0 0 0 0 0 0 0 0
          0 0 0 0 0 0 0 0 0 0 0 0
          0 0 0 0 0 0 0 0 0 0 0 0
          0 0 0 0 0 0 0 0 0 0 0 0
          0 0 0 0 0 0 0 0 0 0 0 0
          0 0 0 0 0 0 0 0 0 0 0 0
          0 0 0 0 0 0 0 0 0 0 0 0
          0 0 0 0 0 0 0 0 0 0 0 0
          0 0 0 0 0 0 0 0 0 0 0 0
          0 0 0 0 0 0 0 0 0 0 0 0
          0 0 0 0 0 0 0 0 0 0 0 0
          0 0 0 0 0 0 0 0 0 0 0 0
          0 0 0 0 0 0 0 0 0 0 0 0
          0 0 0 0 0 0 0 0 0 0 0 0
          0 0 0 0 0 0 0 0 0 0 0 0
          0 0 0 0 0 0 0 0 0 0 0 0
          0 0 0 0 0 0 0 0 0 0 0 0
          0 0 0 0 0 0 0 0 0 0 0 0
          0 0 0 0 0 0 0 0 0 0 0 0
          0 0 0 0 0 0 0 0 0 0 0 0
          0 0 0 0 0 0 0 0 0 0 0 0
          0 0 0 0 0 0 0 0 0 0 0 0
          0 0 0 0 0 0 0 0 0 0 0 0
          0 0 0 0 0 0 0 0 0 0 0 0
          0 0 0 0 0 0 0 0 0 0 0 0
          0 0 0 0 0 0 0 0 0 0 0 0
          0 0 0 0 0 0 0 0 0 0 0 0
          0 0 0 0 0 0 0 0 0 0 0 0
          0 0 0 0 0 0 0 0 0 0 0 0
          0 0 0 0 0 0 0 0 0 0 0 0
          0 0 0 0 0 0 0 0 0 0 0 0
          0 0 0 0 0 0 0 0 0 0 0 0
          0 0 0 0 0 0 0 0 0 0 0 0
          0 0 0 0 0 0 0 0 0 0 0 0
          0 0 0 0 0 0 0 0 0 0 0 0
          0 0 0 0 0 0 0 0 0 0 0 0
          0 0 0 0 0 0 0 0 0 0 0 0
          0 0 0 0 0 0 0 0 0 0 0 0
          0 0 0 0 0 0 0 0 0 0 0 0
          0 0 0 0 0 0 0 0 0 0 0 0
          0 0 0 0 0 0 0 0 0 0 0 0
          0 0 0 0
        </DataArray>
      </CellData>
      <Points>
        <DataArray type="Float32" Name="Coordinates" NumberOfComponents="3" format="ascii">
          0 0 0 0.06 0 0 0 0.05 0 0.06 0.05 0
          0.12 0 0 0.12 0.05 0 0.18 0 0 0.18 0.05 0
          0.24 0 0 0.24 0.05 0 0.3 0 0 0.3 0.05 0
          0.36 0 0 0.36 0.05 0 0.42 0 0 0.42 0.05 0
          0.48 0 0 0.48 0.05 0 0.54 0 0 0.54 0.05 0
          0.6 0 0 0.6 0.05 0 0.66 0 0 0.66 0.05 0
          0.72 0 0 0.72 0.05 0 0.78 0 0 0.78 0.05 0
          0.84 0 0 0.84 0.05 0 0.9 0 0 0.9 0.05 0
          0.96 0 0 0.96 0.05 0 1.02 0 0 1.02 0.05 0
          1.08 0 0 1.08 0.05 0 1.14 0 0 1.14 0.05 0
          1.2 0 0 1.2 0.05 0 1.26 0 0 1.26 0.05 0
          1.32 0 0 1.32 0.05 0 1.38 0 0 1.38 0.05 0
          1.44 0 0 1.44 0.05 0 1.5 0 0 1.5 0.05 0
          1.56 0 0 1.56 0.05 0 1.62 0 0 1.62 0.05 0
          1.68 0 0 1.68 0.05 0 1.74 0 0 1.74 0.05 0
          1.8 0 0 1.8 0.05 0 1.86 0 0 1.86 0.05 0
          1.92 0 0 1.92 0.05 0 1.98 0 0 1.98 0.05 0
          2.04 0 0 2.04 0.05 0 2.1 0 0 2.1 0.05 0
          2.16 0 0 2.16 0.05 0 2.22 0 0 2.22 0.05 0
          2.28 0 0 2.28 0.05 0 2.34 0 0 2.34 0.05 0
          2.4 0 0 2.4 0.05 0 2.46 0 0 2.46 0.05 0
          2.52 0 0 2.52 0.05 0 2.58 0 0 2.58 0.05 0
          2.64 0 0 2.64 0.05 0 2.7 0 0 2.7 0.05 0
          2.76 0 0 2.76 0.05 0 2.82 0 0 2.82 0.05 0
          2.88 0 0 2.88 0.05 0 2.94 0 0 2.94 0.05 0
          3 0 0 3 0.05 0 0 0.1 0 0.06 0.1 0
          0.12 0.1 0 0.18 0.1 0 0.24 0.1 0 0.3 0.1 0
          0.36 0.1 0 0.42 0.1 0 0.48 0.1 0 0.54 0.1 0
          0.6 0.1 0 0.66 0.1 0 0.72 0.1 0 0.78 0.1 0
          0.84 0.1 0 0.9 0.1 0 0.96 0.1 0 1.02 0.1 0
          1.08 0.1 0 1.14 0.1 0 1.2 0.1 0 1.26 0.1 0
          1.32 0.1 0 1.38 0.1 0 1.44 0.1 0 1.5 0.1 0
          1.56 0.1 0 1.62 0.1 0 1.68 0.1 0 1.74 0.1 0
          1.8 0.1 0 1.86 0.1 0 1.92 0.1 0 1.98 0.1 0
          2.04 0.1 0 2.1 0.1 0 2.16 0.1 0 2.22 0.1 0
          2.28 0.1 0 2.34 0.1 0 2.4 0.1 0 2.46 0.1 0
          2.52 0.1 0 2.58 0.1 0 2.64 0.1 0 2.7 0.1 0
          2.76 0.1 0 2.82 0.1 0 2.88 0.1 0 2.94 0.1 0
          3 0.1 0 0 0.15 0 0.06 0.15 0 0.12 0.15 0
          0.18 0.15 0 0.24 0.15 0 0.3 0.15 0 0.36 0.15 0
          0.42 0.15 0 0.48 0.15 0 0.54 0.15 0 0.6 0.15 0
          0.66 0.15 0 0.72 0.15 0 0.78 0.15 0 0.84 0.15 0
          0.9 0.15 0 0.96 0.15 0 1.02 0.15 0 1.08 0.15 0
          1.14 0.15 0 1.2 0.15 0 1.26 0.15 0 1.32 0.15 0
          1.38 0.15 0 1.44 0.15 0 1.5 0.15 0 1.56 0.15 0
          1.62 0.15 0 1.68 0.15 0 1.74 0.15 0 1.8 0.15 0
          1.86 0.15 0 1.92 0.15 0 1.98 0.15 0 2.04 0.15 0
          2.1 0.15 0 2.16 0.15 0 2.22 0.15 0 2.28 0.15 0
          2.34 0.15 0 2.4 0.15 0 2.46 0.15 0 2.52 0.15 0
          2.58 0.15 0 2.64 0.15 0 2.7 0.15 0 2.76 0.15 0
          2.82 0.15 0 2.88 0.15 0 2.94 0.15 0 3 0.15 0
          0 0.2 0 0.06 0.2 0 0.12 0.2 0 0.18 0.2 0
          0.24 0.2 0 0.3 0.2 0 0.36 0.2 0 0.42 0.2 0
          0.48 0.2 0 0.54 0.2 0 0.6 0.2 0 0.66 0.2 0
          0.72 0.2 0 0.78 0.2 0 0.84 0.2 0 0.9 0.2 0
          0.96 0.2 0 1.02 0.2 0 1.08 0.2 0 1.14 0.2 0
          1.2 0.2 0 1.26 0.2 0 1.32 0.2 0 1.38 0.2 0
          1.44 0.2 0 1.5 0.2 0 1.56 0.2 0 1.62 0.2 0
          1.68 0.2 0 1.74 0.2 0 1.8 0.2 0 1.86 0.2 0
          1.92 0.2 0 1.98 0.2 0 2.04 0.2 0 2.1 0.2 0
          2.16 0.2 0 2.22 0.2 0 2.28 0.2 0 2.34 0.2 0
          2.4 0.2 0 2.46 0.2 0 2.52 0.2 0 2.58 0.2 0
          2.64 0.2 0 2.7 0.2 0 2.76 0.2 0 2.82 0.2 0
          2.88 0.2 0 2.94 0.2 0 3 0.2 0 0 0.25 0
          0.06 0.25 0 0.12 0.25 0 0.18 0.25 0 0.24 0.25 0
          0.3 0.25 0 0.36 0.25 0 0.42 0.25 0 0.48 0.25 0
          0.54 0.25 0 0.6 0.25 0 0.66 0.25 0 0.72 0.25 0
          0.78 0.25 0 0.84 0.25 0 0.9 0.25 0 0.96 0.25 0
          1.02 0.25 0 1.08 0.25 0 1.14 0.25 0 1.2 0.25 0
          1.26 0.25 0 1.32 0.25 0 1.38 0.25 0 1.44 0.25 0
          1.5 0.25 0 1.56 0.25 0 1.62 0.25 0 1.68 0.25 0
          1.74 0.25 0 1.8 0.25 0 1.86 0.25 0 1.92 0.25 0
          1.98 0.25 0 2.04 0.25 0 2.1 0.25 0 2.16 0.25 0
          2.22 0.25 0 2.28 0.25 0 2.34 0.25 0 2.4 0.25 0
          2.46 0.25 0 2.52 0.25 0 2.58 0.25 0 2.64 0.25 0
          2.7 0.25 0 2.76 0.25 0 2.82 0.25 0 2.88 0.25 0
          2.94 0.25 0 3 0.25 0 0 0.3 0 0.06 0.3 0
          0.12 0.3 0 0.18 0.3 0 0.24 0.3 0 0.3 0.3 0
          0.36 0.3 0 0.42 0.3 0 0.48 0.3 0 0.54 0.3 0
          0.6 0.3 0 0.66 0.3 0 0.72 0.3 0 0.78 0.3 0
          0.84 0.3 0 0.9 0.3 0 0.96 0.3 0 1.02 0.3 0
          1.08 0.3 0 1.14 0.3 0 1.2 0.3 0 1.26 0.3 0
          1.32 0.3 0 1.38 0.3 0 1.44 0.3 0 1.5 0.3 0
          1.56 0.3 0 1.62 0.3 0 1.68 0.3 0 1.74 0.3 0
          1.8 0.3 0 1.86 0.3 0 1.92 0.3 0 1.98 0.3 0
          2.04 0.3 0 2.1 0.3 0 2.16 0.3 0 2.22 0.3 0
          2.28 0.3 0 2.34 0.3 0 2.4 0.3 0 2.46 0.3 0
          2.52 0.3 0 2.58 0.3 0 2.64 0.3 0 2.7 0.3 0
          2.76 0.3 0 2.82 0.3 0 2.88 0.3 0 2.94 0.3 0
          3 0.3 0 0 0.35 0 0.06 0.35 0 0.12 0.35 0
          0.18 0.35 0 0.24 0.35 0 0.3 0.35 0 0.36 0.35 0
          0.42 0.35 0 0.48 0.35 0 0.54 0.35 0 0.6 0.35 0
          0.66 0.35 0 0.72 0.35 0 0.78 0.35 0 0.84 0.35 0
          0.9 0.35 0 0.96 0.35 0 1.02 0.35 0 1.08 0.35 0
          1.14 0.35 0 1.2 0.35 0 1.26 0.35 0 1.32 0.35 0
          1.38 0.35 0 1.44 0.35 0 1.5 0.35 0 1.56 0.35 0
          1.62 0.35 0 1.68 0.35 0 1.74 0.35 0 1.8 0.35 0
          1.86 0.35 0 1.92 0.35 0 1.98 0.35 0 2.04 0.35 0
          2.1 0.35 0 2.16 0.35 0 2.22 0.35 0 2.28 0.35 0
          2.34 0.35 0 2.4 0.35 0 2.46 0.35 0 2.52 0.35 0
          2.58 0.35 0 2.64 0.35 0 2.7 0.35 0 2.76 0.35 0
          2.82 0.35 0 2.88 0.35 0 2.94 0.35 0 3 0.35 0
          0 0.4 0 0.06 0.4 0 0.12 0.4 0 0.18 0.4 0
          0.24 0.4 0 0.3 0.4 0 0.36 0.4 0 0.42 0.4 0
          0.48 0.4 0 0.54 0.4 0 0.6 0.4 0 0.66 0.4 0
          0.72 0.4 0 0.78 0.4 0 0.84 0.4 0 0.9 0.4 0
          0.96 0.4 0 1.02 0.4 0 1.08 0.4 0 1.14 0.4 0
          1.2 0.4 0 1.26 0.4 0 1.32 0.4 0 1.38 0.4 0
          1.44 0.4 0 1.5 0.4 0 1.56 0.4 0 1.62 0.4 0
          1.68 0.4 0 1.74 0.4 0 1.8 0.4 0 1.86 0.4 0
          1.92 0.4 0 1.98 0.4 0 2.04 0.4 0 2.1 0.4 0
          2.16 0.4 0 2.22 0.4 0 2.28 0.4 0 2.34 0.4 0
          2.4 0.4 0 2.46 0.4 0 2.52 0.4 0 2.58 0.4 0
          2.64 0.4 0 2.7 0.4 0 2.76 0.4 0 2.82 0.4 0
          2.88 0.4 0 2.94 0.4 0 3 0.4 0 0 0.45 0
          0.06 0.45 0 0.12 0.45 0 0.18 0.45 0 0.24 0.45 0
          0.3 0.45 0 0.36 0.45 0 0.42 0.45 0 0.48 0.45 0
          0.54 0.45 0 0.6 0.45 0 0.66 0.45 0 0.72 0.45 0
          0.78 0.45 0 0.84 0.45 0 0.9 0.45 0 0.96 0.45 0
          1.02 0.45 0 1.08 0.45 0 1.14 0.45 0 1.2 0.45 0
          1.26 0.45 0 1.32 0.45 0 1.38 0.45 0 1.44 0.45 0
          1.5 0.45 0 1.56 0.45 0 1.62 0.45 0 1.68 0.45 0
          1.74 0.45 0 1.8 0.45 0 1.86 0.45 0 1.92 0.45 0
          1.98 0.45 0 2.04 0.45 0 2.1 0.45 0 2.16 0.45 0
          2.22 0.45 0 2.28 0.45 0 2.34 0.45 0 2.4 0.45 0
          2.46 0.45 0 2.52 0.45 0 2.58 0.45 0 2.64 0.45 0
          2.7 0.45 0 2.76 0.45 0 2.82 0.45 0 2.88 0.45 0
          2.94 0.45 0 3 0.45 0 0 0.5 0 0.06 0.5 0
          0.12 0.5 0 0.18 0.5 0 0.24 0.5 0 0.3 0.5 0
          0.36 0.5 0 0.42 0.5 0 0.48 0.5 0 0.54 0.5 0
          0.6 0.5 0 0.66 0.5 0 0.72 0.5 0 0.78 0.5 0
          0.84 0.5 0 0.9 0.5 0 0.96 0.5 0 1.02 0.5 0
          1.08 0.5 0 1.14 0.5 0 1.2 0.5 0 1.26 0.5 0
          1.32 0.5 0 1.38 0.5 0 1.44 0.5 0 1.5 0.5 0
          1.56 0.5 0 1.62 0.5 0 1.68 0.5 0 1.74 0.5 0
          1.8 0.5 0 1.86 0.5 0 1.92 0.5 0 1.98 0.5 0
          2.04 0.5 0 2.1 0.5 0 2.16 0.5 0 2.22 0.5 0
          2.28 0.5 0 2.34 0.5 0 2.4 0.5 0 2.46 0.5 0
          2.52 0.5 0 2.58 0.5 0 2.64 0.5 0 2.7 0.5 0
          2.76 0.5 0 2.82 0.5 0 2.88 0.5 0 2.94 0.5 0
          3 0.5 0 0 0.55 0 0.06 0.55 0 0.12 0.55 0
          0.18 0.55 0 0.24 0.55 0 0.3 0.55 0 0.36 0.55 0
          0.42 0.55 0 0.48 0.55 0 0.54 0.55 0 0.6 0.55 0
          0.66 0.55 0 0.72 0.55 0 0.78 0.55 0 0.84 0.55 0
          0.9 0.55 0 0.96 0.55 0 1.02 0.55 0 1.08 0.55 0
          1.14 0.55 0 1.2 0.55 0 1.26 0.55 0 1.32 0.55 0
          1.38 0.55 0 1.44 0.55 0 1.5 0.55 0 1.56 0.55 0
          1.62 0.55 0 1.68 0.55 0 1.74 0.55 0 1.8 0.55 0
          1.86 0.55 0 1.92 0.55 0 1.98 0.55 0 2.04 0.55 0
          2.1 0.55 0 2.16 0.55 0 2.22 0.55 0 2.28 0.55 0
          2.34 0.55 0 2.4 0.55 0 2.46 0.55 0 2.52 0.55 0
          2.58 0.55 0 2.64 0.55 0 2.7 0.55 0 2.76 0.55 0
          2.82 0.55 0 2.88 0.55 0 2.94 0.55 0 3 0.55 0
          0 0.6 0 0.06 0.6 0 0.12 0.6 0 0.18 0.6 0
          0.24 0.6 0 0.3 0.6 0 0.36 0.6 0 0.42 0.6 0
          0.48 0.6 0 0.54 0.6 0 0.6 0.6 0 0.66 0.6 0
          0.72 0.6 0 0.78 0.6 0 0.84 0.6 0 0.9 0.6 0
          0.96 0.6 0 1.02 0.6 0 1.08 0.6 0 1.14 0.6 0
          1.2 0.6 0 1.26 0.6 0 1.32 0.6 0 1.38 0.6 0
          1.44 0.6 0 1.5 0.6 0 1.56 0.6 0 1.62 0.6 0
          1.68 0.6 0 1.74 0.6 0 1.8 0.6 0 1.86 0.6 0
          1.92 0.6 0 1.98 0.6 0 2.04 0.6 0 2.1 0.6 0
          2.16 0.6 0 2.22 0.6 0 2.28 0.6 0 2.34 0.6 0
          2.4 0.6 0 2.46 0.6 0 2.52 0.6 0 2.58 0.6 0
          2.64 0.6 0 2.7 0.6 0 2.76 0.6 0 2.82 0.6 0
          2.88 0.6 0 2.94 0.6 0 3 0.6 0 0 0.65 0
          0.06 0.65 0 0.12 0.65 0 0.18 0.65 0 0.24 0.65 0
          0.3 0.65 0 0.36 0.65 0 0.42 0.65 0 0.48 0.65 0
          0.54 0.65 0 0.6 0.65 0 0.66 0.65 0 0.72 0.65 0
          0.78 0.65 0 0.84 0.65 0 0.9 0.65 0 0.96 0.65 0
          1.02 0.65 0 1.08 0.65 0 1.14 0.65 0 1.2 0.65 0
          1.26 0.65 0 1.32 0.65 0 1.38 0.65 0 1.44 0.65 0
          1.5 0.65 0 1.56 0.65 0 1.62 0.65 0 1.68 0.65 0
          1.74 0.65 0 1.8 0.65 0 1.86 0.65 0 1.92 0.65 0
          1.98 0.65 0 2.04 0.65 0 2.1 0.65 0 2.16 0.65 0
          2.22 0.65 0 2.28 0.65 0 2.34 0.65 0 2.4 0.65 0
          2.46 0.65 0 2.52 0.65 0 2.58 0.65 0 2.64 0.65 0
          2.7 0.65 0 2.76 0.65 0 2.82 0.65 0 2.88 0.65 0
          2.94 0.65 0 3 0.65 0 0 0.7 0 0.06 0.7 0
          0.12 0.7 0 0.18 0.7 0 0.24 0.7 0 0.3 0.7 0
          0.36 0.7 0 0.42 0.7 0 0.48 0.7 0 0.54 0.7 0
          0.6 0.7 0 0.66 0.7 0 0.72 0.7 0 0.78 0.7 0
          0.84 0.7 0 0.9 0.7 0 0.96 0.7 0 1.02 0.7 0
          1.08 0.7 0 1.14 0.7 0 1.2 0.7 0 1.26 0.7 0
          1.32 0.7 0 1.38 0.7 0 1.44 0.7 0 1.5 0.7 0
          1.56 0.7 0 1.62 0.7 0 1.68 0.7 0 1.74 0.7 0
          1.8 0.7 0 1.86 0.7 0 1.92 0.7 0 1.98 0.7 0
          2.04 0.7 0 2.1 0.7 0 2.16 0.7 0 2.22 0.7 0
          2.28 0.7 0 2.34 0.7 0 2.4 0.7 0 2.46 0.7 0
          2.52 0.7 0 2.58 0.7 0 2.64 0.7 0 2.7 0.7 0
          2.76 0.7 0 2.82 0.7 0 2.88 0.7 0 2.94 0.7 0
          3 0.7 0 0 0.75 0 0.06 0.75 0 0.12 0.75 0
          0.18 0.75 0 0.24 0.75 0 0.3 0.75 0 0.36 0.75 0
          0.42 0.75 0 0.48 0.75 0 0.54 0.75 0 0.6 0.75 0
          0.66 0.75 0 0.72 0.75 0 0.78 0.75 0 0.84 0.75 0
          0.9 0.75 0 0.96 0.75 0 1.02 0.75 0 1.08 0.75 0
          1.14 0.75 0 1.2 0.75 0 1.26 0.75 0 1.32 0.75 0
          1.38 0.75 0 1.44 0.75 0 1.5 0.75 0 1.56 0.75 0
          1.62 0.75 0 1.68 0.75 0 1.74 0.75 0 1.8 0.75 0
          1.86 0.75 0 1.92 0.75 0 1.98 0.75 0 2.04 0.75 0
          2.1 0.75 0 2.16 0.75 0 2.22 0.75 0 2.28 0.75 0
          2.34 0.75 0 2.4 0.75 0 2.46 0.75 0 2.52 0.75 0
          2.58 0.75 0 2.64 0.75 0 2.7 0.75 0 2.76 0.75 0
          2.82 0.75 0 2.88 0.75 0 2.94 0.75 0 3 0.75 0
          0 0.8 0 0.06 0.8 0 0.12 0.8 0 0.18 0.8 0
          0.24 0.8 0 0.3 0.8 0 0.36 0.8 0 0.42 0.8 0
          0.48 0.8 0 0.54 0.8 0 0.6 0.8 0 0.66 0.8 0
          0.72 0.8 0 0.78 0.8 0 0.84 0.8 0 0.9 0.8 0
          0.96 0.8 0 1.02 0.8 0 1.08 0.8 0 1.14 0.8 0
          1.2 0.8 0 1.26 0.8 0 1.32 0.8 0 1.38 0.8 0
          1.44 0.8 0 1.5 0.8 0 1.56 0.8 0 1.62 0.8 0
          1.68 0.8 0 1.74 0.8 0 1.8 0.8 0 1.86 0.8 0
          1.92 0.8 0 1.98 0.8 0 2.04 0.8 0 2.1 0.8 0
          2.16 0.8 0 2.22 0.8 0 2.28 0.8 0 2.34 0.8 0
          2.4 0.8 0 2.46 0.8 0 2.52 0.8 0 2.58 0.8 0
          2.64 0.8 0 2.7 0.8 0 2.76 0.8 0 2.82 0.8 0
          2.88 0.8 0 2.94 0.8 0 3 0.8 0 0 0.85 0
          0.06 0.85 0 0.12 0.85 0 0.18 0.85 0 0.24 0.85 0
          0.3 0.85 0 0.36 0.85 0 0.42 0.85 0 0.48 0.85 0
          0.54 0.85 0 0.6 0.85 0 0.66 0.85 0 0.72 0.85 0
          0.78 0.85 0 0.84 0.85 0 0.9 0.85 0 0.96 0.85 0
          1.02 0.85 0 1.08 0.85 0 1.14 0.85 0 1.2 0.85 0
          1.26 0.85 0 1.32 0.85 0 1.38 0.85 0 1.44 0.85 0
          1.5 0.85 0 1.56 0.85 0 1.62 0.85 0 1.68 0.85 0
          1.74 0.85 0 1.8 0.85 0 1.86 0.85 0 1.92 0.85 0
          1.98 0.85 0 2.04 0.85 0 2.1 0.85 0 2.16 0.85 0
          2.22 0.85 0 2.28 0.85 0 2.34 0.85 0 2.4 0.85 0
          2.46 0.85 0 2.52 0.85 0 2.58 0.85 0 2.64 0.85 0
          2.7 0.85 0 2.76 0.85 0 2.82 0.85 0 2.88 0.85 0
          2.94 0.85 0 3 0.85 0 0 0.9 0 0.06 0.9 0
          0.12 0.9 0 0.18 0.9 0 0.24 0.9 0 0.3 0.9 0
          0.36 0.9 0 0.42 0.9 0 0.48 0.9 0 0.54 0.9 0
          0.6 0.9 0 0.66 0.9 0 0.72 0.9 0 0.78 0.9 0
          0.84 0.9 0 0.9 0.9 0 0.96 0.9 0 1.02 0.9 0
          1.08 0.9 0 1.14 0.9 0 1.2 0.9 0 1.26 0.9 0
          1.32 0.9 0 1.38 0.9 0 1.44 0.9 0 1.5 0.9 0
          1.56 0.9 0 1.62 0.9 0 1.68 0.9 0 1.74 0.9 0
          1.8 0.9 0 1.86 0.9 0 1.92 0.9 0 1.98 0.9 0
          2.04 0.9 0 2.1 0.9 0 2.16 0.9 0 2.22 0.9 0
          2.28 0.9 0 2.34 0.9 0 2.4 0.9 0 2.46 0.9 0
          2.52 0.9 0 2.58 0.9 0 2.64 0.9 0 2.7 0.9 0
          2.76 0.9 0 2.82 0.9 0 2.88 0.9 0 2.94 0.9 0
          3 0.9 0 0 0.95 0 0.06 0.95 0 0.12 0.95 0
          0.18 0.95 0 0.24 0.95 0 0.3 0.95 0 0.36 0.95 0
          0.42 0.95 0 0.48 0.95 0 0.54 0.95 0 0.6 0.95 0
          0.66 0.95 0 0.72 0.95 0 0.78 0.95 0 0.84 0.95 0
          0.9 0.95 0 0.96 0.95 0 1.02 0.95 0 1.08 0.95 0
          1.14 0.95 0 1.2 0.95 0 1.26 0.95 0 1.32 0.95 0
          1.38 0.95 0 1.44 0.95 0 1.5 0.95 0 1.56 0.95 0
          1.62 0.95 0 1.68 0.95 0 1.74 0.95 0 1.8 0.95 0
          1.86 0.95 0 1.92 0.95 0 1.98 0.95 0 2.04 0.95 0
          2.1 0.95 0 2.16 0.95 0 2.22 0.95 0 2.28 0.95 0
          2.34 0.95 0 2.4 0.95 0 2.46 0.95 0 2.52 0.95 0
          2.58 0.95 0 2.64 0.95 0 2.7 0.95 0 2.76 0.95 0
          2.82 0.95 0 2.88 0.95 0 2.94 0.95 0 3 0.95 0
          0 1 0 0.06 1 0 0.12 1 0 0.18 1 0
          0.24 1 0 0.3 1 0 0.36 1 0 0.42 1 0
          0.48 1 0 0.54 1 0 0.6 1 0 0.66 1 0
          0.72 1 0 0.78 1 0 0.84 1 0 0.9 1 0
          0.96 1 0 1.02 1 0 1.08 1 0 1.14 1 0
          1.2 1 0 1.26 1 0 1.32 1 0 1.38 1 0
          1.44 1 0 1.5 1 0 1.56 1 0 1.62 1 0
          1.68 1 0 1.74 1 0 1.8 1 0 1.86 1 0
          1.92 1 0 1.98 1 0 2.04 1 0 2.1 1 0
          2.16 1 0 2.22 1 0 2.28 1 0 2.34 1 0
          2.4 1 0 2.46 1 0 2.52 1 0 2.58 1 0
          2.64 1 0 2.7 1 0 2.76 1 0 2.82 1 0
          2.88 1 0 2.94 1 0 3 1 0
        </DataArray>
      </Points>
      <Cells>
        <DataArray type="Int32" Name="connectivity" NumberOfComponents="1" format="ascii">
          0 1 3 2 1 4 5 3 4 6 7 5
          6 8 9 7 8 10 11 9 10 12 13 11
          12 14 15 13 14 16 17 15 16 18 19 17
          18 20 21 19 20 22 23 21 22 24 25 23
          24 26 27 25 26 28 29 27 28 30 31 29
          30 32 33 31 32 34 35 33 34 36 37 35
          36 38 39 37 38 40 41 39 40 42 43 41
          42 44 45 43 44 46 47 45 46 48 49 47
          48 50 51 49 50 52 53 51 52 54 55 53
          54 56 57 55 56 58 59 57 58 60 61 59
          60 62 63 61 62 64 65 63 64 66 67 65
          66 68 69 67 68 70 71 69 70 72 73 71
          72 74 75 73 74 76 77 75 76 78 79 77
          78 80 81 79 80 82 83 81 82 84 85 83
          84 86 87 85 86 88 89 87 88 90 91 89
          90 92 93 91 92 94 95 93 94 96 97 95
          96 98 99 97 98 100 101 99 2 3 103 102
          3 5 104 103 5 7 105 104 7 9 106 105
          9 11 107 106 11 13 108 107 13 15 109 108
          15 17 110 109 17 19 111 110 19 21 112 111
          21 23 113 112 23 25 114 113 25 27 115 114
          27 29 116 115 29 31 117 116 31 33 118 117
          33 35 119 118 35 37 120 119 37 39 121 120
          39 41 122 121 41 43 123 122 43 45 124 123
          45 47 125 124 47 49 126 125 49 51 127 126
          51 53 128 127 53 55 129 128 55 57 130 129
          57 59 131 130 59 61 132 131 61 63 133 132
          63 65 134 133 65 67 135 134 67 69 136 135
          69 71 137 136 71 73 138 137 73 75 139 138
          75 77 140 139 77 79 141 140 79 81 142 141
          81 83 143 142 83 85 144 143 85 87 145 144
          87 89 146 145 89 91 147 146 91 93 148 147
          93 95 149 148 95 97 150 149 97 99 151 150
          99 101 152 151 102 103 154 153 103 104 155 154
          104 105 156 155 105 106 157 156 106 107 158 157
          107 108 159 158 108 109 160 159 109 110 161 160
          110 111 162 161 111 112 163 162 112 113 164 163
          113 114 165 164 114 115 166 165 115 116 167 166
          116 117 168 167 117 118 169 168 118 119 170 169
          119 120 171 170 120 121 172 171 121 122 173 172
          122 123 174 173 123 124 175 174 124 125 176 175
          125 126 177 176 126 127 178 177 127 128 179 178
          128 129 180 179 129 130 181 180 130 131 182 181
          131 132 183 182 132 133 184 183 133 134 185 184
          134 135 186 185 135 136 187 186 136 137 188 187