<?xml version="1.0"?>
<VTKFile type="UnstructuredGrid" version="0.1" byte_order="LittleEndian">
  <UnstructuredGrid>
    <Piece NumberOfCells="1000" NumberOfPoints="1071">
      <PointData Scalars="Sw" Vectors="velocity_H2O (m/s)">
        <DataArray type="Float32" Name="Sw" NumberOfComponents="1" format="ascii">
          1 1 1 1 1 1 1 1 1 1 1 1
          1 1 1 1 1 1 1 1 1 1 1 1
          1 1 1 1 1 1 1 1 1 1 1 1
          1 1 1 1 1 1 1 1 1 1 1 1
          1 1 1 1 1 1 1 1 1 1 1 1
          1 1 1 1 1 1 1 1 1 1 1 1
          1 1 1 1 1 1 1 1 1 1 1 1
          1 1 1 1 1 1 1 1 1 1 1 1
          1 1 1 1 1 1 1 1 1 1 1 1
          1 1 1 1 1 1 1 1 1 1 1 1
          1 1 1 1 1 1 1 1 1 1 1 1
          1 1 1 1 1 1 1 1 1 1 1 1
          1 1 1 1 1 1 1 1 1 1 1 1
          1 1 1 1 1 1 1 1 1 1 1 1
          1 1 1 1 1 1 1 1 1 1 1 1
          1 1 1 1 1 1 1 1 1 1 1 1
          1 1 1 1 1 1 1 1 1 1 1 1
          1 1 1 1 1 1 1 1 1 1 1 1
          1 1 1 1 1 1 1 1 1 1 1 1
          1 1 1 1 1 1 1 1 1 1 1 1
          1 1 1 1 1 1 1 1 1 1 1 1
          1 1 1 1 1 1 1 1 1 1 1 1
          1 1 1 1 1 1 1 1 1 1 1 1
          1 1 1 1 1 1 1 1 1 1 1 1
          1 1 1 1 1 1 1 1 1 1 1 1
          1 1 1 1 1 1 1 1 1 1 1 1
          1 1 1 1 1 1 1 1 1 1 1 1
          1 1 1 1 1 1 1 1 1 1 1 1
          1 1 1 1 1 1 1 1 1 1 1 1
          1 1 1 1 1 1 1 1 1 1 1 1
          1 1 1 1 1 1 1 1 1 1 1 1
          1 1 1 1 1 1 1 1 1 1 1 1
          1 1 1 1 1 1 1 1 1 1 1 1
          1 1 1 1 1 1 1 1 1 1 1 1
          1 1 1 1 1 1 1 1 1 1 1 1
          1 1 1 1 1 1 1 1 1 1 1 1
          1 1 1 1 1 1 1 1 1 1 1 1
          1 1 1 1 1 1 1 1 1 1 1 1
          1 1 1 1 1 1 1 1 1 1 1 1
          1 1 1 1 1 1 1 1 1 1 1 1
          1 1 1 1 1 1 1 1 1 1 1 1
          1 1 1 1 1 1 1 1 1 1 1 1
          1 1 1 1 1 1 1 1 1 1 1 1
          1 1 1 1 1 1 1 1 1 1 1 1
          1 1 1 1 1 1 1 1 1 1 1 1
          1 1 1 1 1 1 1 1 1 1 1 1
          1 1 1 1 1 1 1 1 1 1 1 1
          1 1 1 1 1 1 1 1 1 1 1 1
          1 1 1 1 1 1 1 1 1 1 1 1
          1 1 1 1 1 1 1 1 1 1 1 1
          1 1 1 1 1 1 1 1 1 1 1 1
          1 1 1 1 1 1 1 1 1 1 1 1
          1 1 1 1 1 1 1 1 1 1 1 1
          1 1 1 1 1 1 1 1 1 1 1 1
          1 1 1 1 1 1 1 1 1 1 1 1
          1 1 1 1 1 1 1 1 1 1 1 1
          1 1 1 1 1 1 1 1 1 1 1 1
          1 0.999364 0.961951 0.870561 0.926312 0.999513 1 1 1 1 1 1
          1 1 1 1 1 1 1 1 1 1 1 1
          1 1 1 1 1 1 1 1 1 1 1 1
          1 1 1 1 1 1 1 1 1 1 1 1
          1 1 0.921824 0.746054 0.510934 0.32954 0.232108 0.318105 0.522086 0.799525 0.98949 1
          1 1 1 1 1 1 1 1 1 1 1 1
          1 1 1 1 1 1 1 1 1 1 1 1
          1 1 1 1 1 1 1 1 1 1 1 1
          1 1 1 1 1 0.83352 0.574341 0.352919 0.218527 0.146593 0.118667 0.151772
          0.234841 0.388487 0.623356 0.882217 0.997343 1 1 1 1 1 1 1
          1 1 1 1 1 1 1 1 1 1 1 1
          1 1 1 1 1 1 1 1 1 1 1 1
          1 1 1 1 1 1 1 1 0.858702 0.503464 0.284631 0.172078
          0.11692 0.094872 0.0925857 0.0967303 0.110417 0.147588 0.224204 0.362665 0.575157 0.824 0.981034 1
          1 1 1 1 1 1 1 1 1 1 1 1
          1 1 1 1 1 1 1 1 1 1 1 1
          1 1 1 1 1 1 1 1 1 0.999484 0.86162 0.559498
          0.313439 0.183497 0.119639 0.0923829 0.0855659 0.0848045 0.0851509 0.08619 0.0881571 0.0914369 0.0992142 0.121977
          0.172095 0.266341 0.424595 0.646759 0.874323 0.989883 1 1 1 1 1 1
          1 1 1 1 1 1 1 1 1 1 1 1
          1 1 1 1 1 1 1 1 0.999917 0.979675 0.844577 0.606706
          0.385257 0.236237 0.151336 0.107748 0.0885199 0.0826183 0.080673 0.079986 0.0798422 0.079867 0.0799665 0.0801511
          0.0804788 0.0811531 0.0824986 0.0847001 0.0882566 0.0970377 0.120737 0.169475 0.258499 0.406441 0.615201 0.839342
          0.976488 0.999932 1 1 1 1 1 1 1 1 1 1
          1 1 0.999665 0.995306 0.976538 0.927897 0.837168 0.707359 0.558757 0.416496 0.298235 0.210637
          0.151566 0.114772 0.094374 0.0852325 0.0809567 0.0781487 0.0761835 0.0750248 0.074504 0.0743092 0.0742422 0.074226
          0.0742286 0.0742401 0.0742611 0.074298 0.0743666 0.0744906 0.0746925 0.0750295 0.075689 0.0769435 0.0789359 0.0819812
          0.0886939 0.106482 0.142757 0.208336 0.320454 0.493937 0.712579 0.903968 0.99026 0.999992 1 1
          0.4 0.322789 0.252667 0.198271 0.158754 0.130949 0.111833 0.0991248 0.0908763 0.0853297 0.081291 0.0781165
          0.0754693 0.0731776 0.0711764 0.0694779 0.0681461 0.0672342 0.0666897 0.0663615 0.0661364 0.065982 0.0658915 0.0658485
          0.0658315 0.0658258 0.0658247 0.0658256 0.0658277 0.065831 0.0658361 0.0658443 0.0658574 0.0658781 0.0659115 0.0659701
          0.0660722 0.0662333 0.0664827 0.066933 0.0677876 0.0691853 0.0711544 0.073781 0.0777704 0.0863859 0.105384 0.140124
          0.198596 0.288296 0.4
        </DataArray>
        <DataArray type="Float32" Name="Sn" NumberOfComponents="1" format="ascii">
          0 0 0 0 0 0 0 0 0 0 0 0
          0 0 0 0 0 0 0 0 0 0 0 0
          0 0 0 0 0 0 0 0 0 0 0 0
          0 0 0 0 0 0 0 0 0 0 0 0
          0 0 0 0 0 0 0 0 0 0 0 0
          0 0 0 0 0 0 0 0 0 0 0 0
          0 0 0 0 0 0 0 0 0 0 0 0
          0 0 0 0 0 0 0 0 0 0 0 0
          0 0 0 0 0 0 0 0 0 0 0 0
          0 0 0 0 0 0 0 0 0 0 0 0
          0 0 0 0 0 0 0 0 0 0 0 0
          0 0 0 0 0 0 0 0 0 0 0 0
          0 0 0 0 0 0 0 0 0 0 0 0
          0 0 0 0 0 0 0 0 0 0 0 0
          0 0 0 0 0 0 0 0 0 0 0 0
          0 0 0 0 0 0 0 0 0 0 0 0
          0 0 0 0 0 0 0 0 0 0 0 0
          0 0 0 0 0 0 0 0 0 0 0 0
          0 0 0 0 0 0 0 0 0 0 0 0
          0 0 0 0 0 0 0 0 0 0 0 0
          0 0 0 0 0 0 0 0 0 0 0 0
          0 0 0 0 0 0 0 0 0 0 0 0
          0 0 0 0 0 0 0 0 0 0 0 0
          0 0 0 0 0 0 0 0 0 0 0 0
          0 0 0 0 0 0 0 0 0 0 0 0
          0 0 0 0 0 0 0 0 0 0 0 0
          0 0 0 0 0 0 0 0 0 0 0 0
          0 0 0 0 0 0 0 0 0 0 0 0
          0 0 0 0 0 0 0 0 0 0 0 0
          0 0 0 0 0 0 0 0 0 0 0 0
          0 0 0 0 0 0 0 0 0 0 0 0
          0 0 0 0 0 0 0 0 0 0 0 0
          0 0 0 0 0 0 0 0 0 0 0 0
          0 0 0 0 0 0 0 0 0 0 0 0
          0 0 0 0 0 0 0 0 0 0 0 0
          0 0 0 0 0 0 0 0 0 0 0 0
          0 0 0 0 0 0 0 0 0 0 0 0
          0 0 0 0 0 0 0 0 0 0 0 0
          0 0 0 0 0 0 0 0 0 0 0 0
          0 0 0 0 0 0 0 0 0 0 0 0
          0 0 0 0 0 0 0 0 0 0 0 0
          0 0 0 0 0 0 0 0 0 0 0 0
          0 0 0 0 0 0 0 0 0 0 0 0
          0 0 0 0 0 0 0 0 0 0 0 0
          0 0 0 0 0 0 0 0 0 0 0 0
          0 0 0 0 0 0 0 0 0 0 0 0
          0 0 0 0 0 0 0 0 0 0 0 0
          0 0 0 0 0 0 0 0 0 0 0 0
          0 0 0 0 0 0 0 0 0 0 0 0
          0 0 0 0 0 0 0 0 0 0 0 0
          0 0 0 0 0 0 0 0 0 0 0 0
          0 0 0 0 0 0 0 0 0 0 0 0
          0 0 0 0 0 0 0 0 0 0 0 0
          0 0 0 0 0 0 0 0 0 0 0 0
          0 0 0 0 0 0 0 0 0 0 0 0
          0 0 0 0 0 0 0 0 0 0 0 0
          0 0 0 0 0 0 0 0 0 0 0 0
          0 0.000636069 0.0380492 0.129439 0.0736882 0.0004874 0 0 0 0 0 0
          0 0 0 0 0 0 0 0 0 0 0 0
          0 0 0 0 0 0 0 0 0 0 0 0
          0 0 0 0 0 0 0 0 0 0 0 0
          0 0 0.0781763 0.253946 0.489066 0.67046 0.767892 0.681895 0.477914 0.200475 0.0105096 0
          0 0 0 0 0 0 0 0 0 0 0 0
          0 0 0 0 0 0 0 0 0 0 0 0
          0 0 0 0 0 0 0 0 0 0 0 0
          0 0 0 0 0 0.16648 0.425659 0.647081 0.781473 0.853407 0.881333 0.848228
          0.765159 0.611513 0.376644 0.117783 0.00265733 0 0 0 0 0 0 0
          0 0 0 0 0 0 0 0 0 0 0 0
          0 0 0 0 0 0 0 0 0 0 0 0
          0 0 0 0 0 0 0 0 0.141298 0.496536 0.715369 0.827922
          0.88308 0.905128 0.907414 0.90327 0.889583 0.852412 0.775796 0.637335 0.424843 0.176 0.0189665 6.69809e-08
          0 0 0 0 0 0 0 0 0 0 0 0
          0 0 0 0 0 0 0 0 0 0 0 0
          0 0 0 0 0 0 0 0 0 0.000515829 0.13838 0.440502
          0.686561 0.816503 0.880361 0.907617 0.914434 0.915196 0.914849 0.91381 0.911843 0.908563 0.900786 0.878023
          0.827905 0.733659 0.575405 0.353241 0.125677 0.0101172 5.88307e-12 0 0 0 0 0
          0 0 0 0 0 0 0 0 0 0 0 0
          0 0 0 0 0 0 0 0 8.32757e-05 0.0203254 0.155423 0.393294
          0.614743 0.763763 0.848664 0.892252 0.91148 0.917382 0.919327 0.920014 0.920158 0.920133 0.920033 0.919849
          0.919521 0.918847 0.917501 0.9153 0.911743 0.902962 0.879263 0.830525 0.741501 0.593559 0.384799 0.160658
          0.0235123 6.7633e-05 0 0 0 0 0 0 0 0 0 0
          0 2.578e-07 0.000335451 0.00469438 0.0234621 0.0721027 0.162832 0.292641 0.441243 0.583504 0.701765 0.789363
          0.848434 0.885228 0.905626 0.914768 0.919043 0.921851 0.923817 0.924975 0.925496 0.925691 0.925758 0.925774
          0.925771 0.92576 0.925739 0.925702 0.925633 0.925509 0.925308 0.924971 0.924311 0.923057 0.921064 0.918019
          0.911306 0.893518 0.857243 0.791664 0.679546 0.506063 0.287421 0.0960317 0.00974031 7.519e-06 0 0
          0.6 0.677211 0.747333 0.80173 0.841246 0.869051 0.888166 0.900875 0.909124 0.91467 0.918709 0.921884
          0.924531 0.926822 0.928824 0.930522 0.931854 0.932766 0.93331 0.933639 0.933864 0.934018 0.934108 0.934152
          0.934169 0.934174 0.934175 0.934174 0.934172 0.934169 0.934164 0.934156 0.934143 0.934122 0.934089 0.93403
          0.933928 0.933767 0.933517 0.933067 0.932212 0.930815 0.928846 0.926219 0.92223 0.913614 0.894616 0.859877
          0.801404 0.711704 0.6
        </DataArray>
        <DataArray type="Float32" Name="pw" NumberOfComponents="1" format="ascii">
          109480 109422 108990 108932 109364 108873 109304 108814 109244 108754 109182 108692
          109117 108628 109048 108560 108975 108487 108895 108407 108805 108319 108702 108218
          108583 108100 108444 107961 108288 107802 108118 107630 107941 107451 107763 107271
          107587 107094 107419 106923 107269 106769 107143 106641 107047 106546 106984 106482
          106950 106450 106944 106445 106963 106465 107005 106507 107065 106569 107140 106646
          107229 106735 107326 106833 107430 106938 107539 107048 107652 107160 107766 107275
          107882 107391 107999 107508 108115 107625 108232 107741 108348 107857 108463 107973
[...]
      <CellData Scalars="process rank">
        <DataArray type="Float32" Name="process rank" NumberOfComponents="1" format="ascii">
          0 0 0 0 0 0 0 0 0 0 0 0
          0 0 0 0 0 0 0 0 0 0 0 0
          0 0 0 0 0 0 0 0 0 0 0 0
          0 0 0 0 0 0 0 0 0 0 0 0
          0 0 0 0 0 0 0 0 0 0 0 0
          0 0 0 0 0 0 0 0 0 0 0 0
          0 0 0 0 0 0 0 0 0 0 0 0
          0 0 0 0 0 0 0 0 0 0 0 0
          0 0 0 0 0 0 0 0 0 0 0 0
          0 0 0 0 0 0 0 0 0 0 0 0
          0 0 0 0 0 0 0 0 0 0 0 0
          0 0 0 0 0 0 0 0 0 0 0 0
          0 0 0 0 0 0 0 0 0 0 0 0
          0 0 0 0 0 0 0 0 0 0 0 0
          0 0 0 0 0 0 0 0 0 0 0 0
          0 0 0 0 0 0 0 0 0 0 0 0
          0 0 0 0 0 0 0 0 0 0 0 0
          0 0 0 0 0 0 0 0 0 0 0 0
          0 0 0 0 0 0 0 0 0 0 0 0
          0 0 0 0 0 0 0 0 0 0 0 0
          0 0 0 0 0 0 0 0 0 0 0 0
          0 0 0 0 0 0 0 0 0 0 0 0
          0 0 0 0 0 0 0 0 0 0 0 0
          0 0 0 0 0 0 0 0 0 0 0 0
          0 0 0 0 0 0 0 0 0 0 0 0
          0 0 0 0 0 0 0 0 0 0 0 0
          0 0 0 0 0 0 0 0 0 0 0 0
          0 0 0 0 0 0 0 0 0 0 0 0
          0 0 0 0 0 0 0 0 0 0 0 0
          0 0 0 0 0 0 0 0 0 0 0 0
          0 0 0 0 0 0 0 0 0 0 0 0
          0 0 0 0 0 0 0 0 0 0 0 0
          0 0 0 0 0 0 0 0 0 0 0 0
          0 0 0 0 0 0 0 0 0 0 0 0
          0 0 0 0 0 0 0 0 0 0 0 0
          0 0 0 0 0 0 0 0 0 0 0 0
          0 0 0 0 0 0 0 0 0 0 0 0
          0 0 0 0 0 0 0 0 0 0 0 0
          0 0 0 0 0 0 0 0 0 0 0 0
          0 0 0 0 0 0 0 0 0 0 0 0
          0 0 0 0 0 0 0 0 0 0 0 0
          0 0 0 0 0 0 0 0 0 0 0 0
          0 0 0 0 0 0 0 0 0 0 0 0
          0 0 0 0 0 0 0 0 0 0 0 0
          0 0 0 0 0 0 0 0 0 0 0 0
          0 0 0 0 0 0 0 0 0 0 0 0
          0 0 0 0 0 0 0 0 0 0 0 0
          0 0 0 0 0 0 0 0 0 0 0 0
          0 0 0 0 0 0 0 0 0 0 0 0
          0 0 0 0 0 0 0 0 0 0 0 0
          0 0 0 0 0 0 0 0 0 0 0 0
          0 0 0 0 0 0 0 0 0 0 0 0
          0 0 0 0 0 0 0 0 0 0 0 0
          0 0 0 0 0 0 0 0 0 0 0 0
          0 0 0 0 0 0 0 0 0 0 0 0
          0 0 0 0 0 0 0 0 0 0 0 0
          0 0 0 0 0 0 0 0 0 0 0 0
          0 0 0 0 0 0 0 0 0 0 0 0
          0 0 0 0 0 0 0 0 0 0 0 0
          0 0 0 0 0 0 0 0 0 0 0 0
          0 0 0 0 0 0 0 0 0 0 0 0
          0 0 0 0 0 0 0 0 0 0 0 0
          0 0 0 0 0 0 0 0 0 0 0 0
          0 0 0 0 0 0 0 0 0 0 0 0
          0 0 0 0 0 0 0 0 0 0 0 0
          0 0 0 0 0 0 0 0 0 0 0 0
          0 0 0 0 0 0 0 0 0 0 0 0
          0 0 0 0 0 0 0 0 0 0 0 0
          0 0 0 0 0 0 0 0 0 0 0 0
          0 0 0 0 0 0 0 0 0 0 0 0
          0 0 0 0 0 0 0 0 0 0 0 0
          0 0 0 0 0 0 0 0 0 0 0 0
          0 0 0 0 0 0 0 0 0 0 0 0
          0 0 0 0 0 0 0 0 0 0 0 0
          0 0 0 0 0 0 0 0 0 0 0 0
          0 0 0 0 0 0 0 0 0 0 0 0
          0 0 0 0 0 0 0 0 0 0 0 0
          0 0 0 0 0 0 0 0 0 0 0 0
          0 0 0 0 0 0 0 0 0 0 0 0
          0 0 0 0 0 0 0 0 0 0 0 0
          0 0 0 0 0 0 0 0 0 0 0 0
          0 0 0 0 0 0 0 0 0 0 0 0
          0 0 0 0 0 0 0 0 0 0 0 0
          0 0 0 0
        </DataArray>
      </CellData>
      <Points>
        <DataArray type="Float32" Name="Coordinates" NumberOfComponents="3" format="ascii">
          0 0 0 0.06 0 0 0 0.05 0 0.06 0.05 0
          0.12 0 0 0.12 0.05 0 0.18 0 0 0.18 0.05 0
          0.24 0 0 0.24 0.05 0 0.3 0 0 0.3 0.05 0
          0.36 0 0 0.36 0.05 0 0.42 0 0 0.42 0.05 0
          0.48 0 0 0.48 0.05 0 0.54 0 0 0.54 0.05 0
          0.6 0 0 0.6 0.05 0 0.66 0 0 0.66 0.05 0
          0.72 0 0 0.72 0.05 0 0.78 0 0 0.78 0.05 0
          0.84 0 0 0.84 0.05 0 0.9 0 0 0.9 0.05 0
          0.96 0 0 0.96 0.05 0 1.02 0 0 1.02 0.05 0
          1.08 0 0 1.08 0.05 0 1.14 0 0 1.14 0.05 0
          1.2 0 0 1.2 0.05 0 1.26 0 0 1.26 0.05 0
          1.32 0 0 1.32 0.05 0 1.38 0 0 1.38 0.05 0
          1.44 0 0 1.44 0.05 0 1.5 0 0 1.5 0.05 0
          1.56 0 0 1.56 0.05 0 1.62 0 0 1.62 0.05 0
          1.68 0 0 1.68 0.05 0 1.74 0 0 1.74 0.05 0
          1.8 0 0 1.8 0.05 0 1.86 0 0 1.86 0.05 0
          1.92 0 0 1.92 0.05 0 1.98 0 0 1.98 0.05 0
          2.04 0 0 2.04 0.05 0 2.1 0 0 2.1 0.05 0
          2.16 0 0 2.16 0.05 0 2.22 0 0 2.22 0.05 0
          2.28 0 0 2.28 0.05 0 2.34 0 0 2.34 0.05 0
          2.4 0 0 2.4 0.05 0 2.46 0 0 2.46 0.05 0
          2.52 0 0 2.52 0.05 0 2.58 0 0 2.58 0.05 0
          2.64 0 0 2.64 0.05 0 2.7 0 0 2.7 0.05 0
          2.76 0 0 2.76 0.05 0 2.82 0 0 2.82 0.05 0
          2.88 0 0 2.88 0.05 0 2.94 0 0 2.94 0.05 0
          3 0 0 3 0.05 0 0 0.1 0 0.06 0.1 0
          0.12 0.1 0 0.18 0.1 0 0.24 0.1 0 0.3 0.1 0
          0.36 0.1 0 0.42 0.1 0 0.48 0.1 0 0.54 0.1 0
          0.6 0.1 0 0.66 0.1 0 0.72 0.1 0 0.78 0.1 0
          0.84 0.1 0 0.9 0.1 0 0.96 0.1 0 1.02 0.1 0
          1.08 0.1 0 1.14 0.1 0 1.2 0.1 0 1.26 0.1 0
          1.32 0.1 0 1.38 0.1 0 1.44 0.1 0 1.5 0.1 0
          1.56 0.1 0 1.62 0.1 0 1.68 0.1 0 1.74 0.1 0
          1.8 0.1 0 1.86 0.1 0 1.92 0.1 0 1.98 0.1 0
          2.04 0.1 0 2.1 0.1 0 2.16 0.1 0 2.22 0.1 0
          2.28 0.1 0 2.34 0.1 0 2.4 0.1 0 2.46 0.1 0
          2.52 0.1 0 2.58 0.1 0 2.64 0.1 0 2.7 0.1 0
          2.76 0.1 0 2.82 0.1 0 2.88 0.1 0 2.94 0.1 0
          3 0.1 0 0 0.15 0 0.06 0.15 0 0.12 0.15 0
          0.18 0.15 0 0.24 0.15 0 0.3 0.15 0 0.36 0.15 0
          0.42 0.15 0 0.48 0.15 0 0.54 0.15 0 0.6 0.15 0
          0.66 0.15 0 0.72 0.15 0 0.78 0.15 0 0.84 0.15 0
          0.9 0.15 0 0.96 0.15 0 1.02 0.15 0 1.08 0.15 0
          1.14 0.15 0 1.2 0.15 0 1.26 0.15 0 1.32 0.15 0
          1.38 0.15 0 1.44 0.15 0 1.5 0.15 0 1.56 0.15 0
          1.62 0.15 0 1.68 0.15 0 1.74 0.15 0 1.8 0.15 0
          1.86 0.15 0 1.92 0.15 0 1.98 0.15 0 2.04 0.15 0
          2.1 0.15 0 2.16 0.15 0 2.22 0.15 0 2.28 0.15 0
          2.34 0.15 0 2.4 0.15 0 2.46 0.15 0 2.52 0.15 0
          2.58 0.15 0 2.64 0.15 0 2.7 0.15 0 2.76 0.15 0
          2.82 0.15 0 2.88 0.15 0 2.94 0.15 0 3 0.15 0
          0 0.2 0 0.06 0.2 0 0.12 0.2 0 0.18 0.2 0
          0.24 0.2 0 0.3 0.2 0 0.36 0.2 0 0.42 0.2 0
          0.48 0.2 0 0.54 0.2 0 0.6 0.2 0 0.66 0.2 0
          0.72 0.2 0 0.78 0.2 0 0.84 0.2 0 0.9 0.2 0
          0.96 0.2 0 1.02 0.2 0 1.08 0.2 0 1.14 0.2 0
          1.2 0.2 0 1.26 0.2 0 1.32 0.2 0 1.38 0.2 0
          1.44 0.2 0 1.5 0.2 0 1.56 0.2 0 1.62 0.2 0
          1.68 0.2 0 1.74 0.2 0 1.8 0.2 0 1.86 0.2 0
          1.92 0.2 0 1.98 0.2 0 2.04 0.2 0 2.1 0.2 0
          2.16 0.2 0 2.22 0.2 0 2.28 0.2 0 2.34 0.2 0
          2.4 0.2 0 2.46 0.2 0 2.52 0.2 0 2.58 0.2 0
          2.64 0.2 0 2.7 0.2 0 2.76 0.2 0 2.82 0.2 0
          2.88 0.2 0 2.94 0.2 0 3 0.2 0 0 0.25 0
          0.06 0.25 0 0.12 0.25 0 0.18 0.25 0 0.24 0.25 0
          0.3 0.25 0 0.36 0.25 0 0.42 0.25 0 0.48 0.25 0
          0.54 0.25 0 0.6 0.25 0 0.66 0.25 0 0.72 0.25 0
          0.78 0.25 0 0.84 0.25 0 0.9 0.25 0 0.96 0.25 0
          1.02 0.25 0 1.08 0.25 0 1.14 0.25 0 1.2 0.25 0
          1.26 0.25 0 1.32 0.25 0 1.38 0.25 0 1.44 0.25 0
          1.5 0.25 0 1.56 0.25 0 1.62 0.25 0 1.68 0.25 0
          1.74 0.25 0 1.8 0.25 0 1.86 0.25 0 1.92 0.25 0
          1.98 0.25 0 2.04 0.25 0 2.1 0.25 0 2.16 0.25 0
          2.22 0.25 0 2.28 0.25 0 2.34 0.25 0 2.4 0.25 0
          2.46 0.25 0 2.52 0.25 0 2.58 0.25 0 2.64 0.25 0
          2.7 0.25 0 2.76 0.25 0 2.82 0.25 0 2.88 0.25 0
          2.94 0.25 0 3 0.25 0 0 0.3 0 0.06 0.3 0
          0.12 0.3 0 0.18 0.3 0 0.24 0.3 0 0.3 0.3 0
          0.36 0.3 0 0.42 0.3 0 0.48 0.3 0 0.54 0.3 0
          0.6 0.3 0 0.66 0.3 0 0.72 0.3 0 0.78 0.3 0
          0.84 0.3 0 0.9 0.3 0 0.96 0.3 0 1.02 0.3 0
          1.08 0.3 0 1.14 0.3 0 1.2 0.3 0 1.26 0.3 0
          1.32 0.3 0 1.38 0.3 0 1.44 0.3 0 1.5 0.3 0
          1.56 0.3 0 1.62 0.3 0 1.68 0.3 0 1.74 0.3 0
          1.8 0.3 0 1.86 0.3 0 1.92 0.3 0 1.98 0.3 0
          2.04 0.3 0 2.1 0.3 0 2.16 0.3 0 2.22 0.3 0
          2.28 0.3 0 2.34 0.3 0 2.4 0.3 0 2.46 0.3 0
          2.52 0.3 0 2.58 0.3 0 2.64 0.3 0 2.7 0.3 0
          2.76 0.3 0 2.82 0.3 0 2.88 0.3 0 2.94 0.3 0
          3 0.3 0 0 0.35 0 0.06 0.35 0 0.12 0.35 0
          0.18 0.35 0 0.24 0.35 0 0.3 0.35 0 0.36 0.35 0
          0.42 0.35 0 0.48 0.35 0 0.54 0.35 0 0.6 0.35 0
          0.66 0.35 0 0.72 0.35 0 0.78 0.35 0 0.84 0.35 0
          0.9 0.35 0 0.96 0.35 0 1.02 0.35 0 1.08 0.35 0
          1.14 0.35 0 1.2 0.35 0 1.26 0.35 0 1.32 0.35 0
          1.38 0.35 0 1.44 0.35 0 1.5 0.35 0 1.56 0.35 0
          1.62 0.35 0 1.68 0.35 0 1.74 0.35 0 1.8 0.35 0
          1.86 0.35 0 1.92 0.35 0 1.98 0.35 0 2.04 0.35 0
          2.1 0.35 0 2.16 0.35 0 2.22 0.35 0 2.28 0.35 0
          2.34 0.35 0 2.4 0.35 0 2.46 0.35 0 2.52 0.35 0
          2.58 0.35 0 2.64 0.35 0 2.7 0.35 0 2.76 0.35 0
          2.82 0.35 0 2.88 0.35 0 2.94 0.35 0 3 0.35 0
          0 0.4 0 0.06 0.4 0 0.12 0.4 0 0.18 0.4 0
          0.24 0.4 0 0.3 0.4 0 0.36 0.4 0 0.42 0.4 0
          0.48 0.4 0 0.54 0.4 0 0.6 0.4 0 0.66 0.4 0
          0.72 0.4 0 0.78 0.4 0 0.84 0.4 0 0.9 0.4 0
          0.96 0.4 0 1.02 0.4 0 1.08 0.4 0 1.14 0.4 0
          1.2 0.4 0 1.26 0.4 0 1.32 0.4 0 1.38 0.4 0
          1.44 0.4 0 1.5 0.4 0 1.56 0.4 0 1.62 0.4 0
          1.68 0.4 0 1.74 0.4 0 1.8 0.4 0 1.86 0.4 0
          1.92 0.4 0 1.98 0.4 0 2.04 0.4 0 2.1 0.4 0
          2.16 0.4 0 2.22 0.4 0 2.28 0.4 0 2.34 0.4 0
          2.4 0.4 0 2.46 0.4 0 2.52 0.4 0 2.58 0.4 0
          2.64 0.4 0 2.7 0.4 0 2.76 0.4 0 2.82 0.4 0
          2.88 0.4 0 2.94 0.4 0 3 0.4 0 0 0.45 0
          0.06 0.45 0 0.12 0.45 0 0.18 0.45 0 0.24 0.45 0
          0.3 0.45 0 0.36 0.45 0 0.42 0.45 0 0.48 0.45 0
          0.54 0.45 0 0.6 0.45 0 0.66 0.45 0 0.72 0.45 0
          0.78 0.45 0 0.84 0.45 0 0.9 0.45 0 0.96 0.45 0
          1.02 0.45 0 1.08 0.45 0 1.14 0.45 0 1.2 0.45 0
          1.26 0.45 0 1.32 0.45 0 1.38 0.45 0 1.44 0.45 0
          1.5 0.45 0 1.56 0.45 0 1.62 0.45 0 1.68 0.45 0
          1.74 0.45 0 1.8 0.45 0 1.86 0.45 0 1.92 0.45 0
          1.98 0.45 0 2.04 0.45 0 2.1 0.45 0 2.16 0.45 0
          2.22 0.45 0 2.28 0.45 0 2.34 0.45 0 2.4 0.45 0
          2.46 0.45 0 2.52 0.45 0 2.58 0.45 0 2.64 0.45 0
          2.7 0.45 0 2.76 0.45 0 2.82 0.45 0 2.88 0.45 0
          2.94 0.45 0 3 0.45 0 0 0.5 0 0.06 0.5 0
          0.12 0.5 0 0.18 0.5 0 0.24 0.5 0 0.3 0.5 0
          0.36 0.5 0 0.42 0.5 0 0.48 0.5 0 0.54 0.5 0
          0.6 0.5 0 0.66 0.5 0 0.72 0.5 0 0.78 0.5 0
          0.84 0.5 0 0.9 0.5 0 0.96 0.5 0 1.02 0.5 0
          1.08 0.5 0 1.14 0.5 0 1.2 0.5 0 1.26 0.5 0
          1.32 0.5 0 1.38 0.5 0 1.44 0.5 0 1.5 0.5 0
          1.56 0.5 0 1.62 0.5 0 1.68 0.5 0 1.74 0.5 0
          1.8 0.5 0 1.86 0.5 0 1.92 0.5 0 1.98 0.5 0
          2.04 0.5 0 2.1 0.5 0 2.16 0.5 0 2.22 0.5 0
          2.28 0.5 0 2.34 0.5 0 2.4 0.5 0 2.46 0.5 0
          2.52 0.5 0 2.58 0.5 0 2.64 0.5 0 2.7 0.5 0
          2.76 0.5 0 2.82 0.5 0 2.88 0.5 0 2.94 0.5 0
          3 0.5 0 0 0.55 0 0.06 0.55 0 0.12 0.55 0
          0.18 0.55 0 0.24 0.55 0 0.3 0.55 0 0.36 0.55 0
          0.42 0.55 0 0.48 0.55 0 0.54 0.55 0 0.6 0.55 0
          0.66 0.55 0 0.72 0.55 0 0.78 0.55 0 0.84 0.55 0
          0.9 0.55 0 0.96 0.55 0 1.02 0.55 0 1.08 0.55 0
          1.14 0.55 0 1.2 0.55 0 1.26 0.55 0 1.32 0.55 0
          1.38 0.55 0 1.44 0.55 0 1.5 0.55 0 1.56 0.55 0
          1.62 0.55 0 1.68 0.55 0 1.74 0.55 0 1.8 0.55 0
          1.86 0.55 0 1.92 0.55 0 1.98 0.55 0 2.04 0.55 0
          2.1 0.55 0 2.16 0.55 0 2.22 0.55 0 2.28 0.55 0
          2.34 0.55 0 2.4 0.55 0 2.46 0.55 0 2.52 0.55 0
          2.58 0.55 0 2.64 0.55 0 2.7 0.55 0 2.76 0.55 0
          2.82 0.55 0 2.88 0.55 0 2.94 0.55 0 3 0.55 0
          0 0.6 0 0.06 0.6 0 0.12 0.6 0 0.18 0.6 0
          0.24 0.6 0 0.3 0.6 0 0.36 0.6 0 0.42 0.6 0
          0.48 0.6 0 0.54 0.6 0 0.6 0.6 0 0.66 0.6 0
          0.72 0.6 0 0.78 0.6 0 0.84 0.6 0 0.9 0.6 0
          0.96 0.6 0 1.02 0.6 0 1.08 0.6 0 1.14 0.6 0
          1.2 0.6 0 1.26 0.6 0 1.32 0.6 0 1.38 0.6 0
          1.44 0.6 0 1.5 0.6 0 1.56 0.6 0 1.62 0.6 0
          1.68 0.6 0 1.74 0.6 0 1.8 0.6 0 1.86 0.6 0
          1.92 0.6 0 1.98 0.6 0 2.04 0.6 0 2.1 0.6 0
          2.16 0.6 0 2.22 0.6 0 2.28 0.6 0 2.34 0.6 0
          2.4 0.6 0 2.46 0.6 0 2.52 0.6 0 2.58 0.6 0
          2.64 0.6 0 2.7 0.6 0 2.76 0.6 0 2.82 0.6 0
          2.88 0.6 0 2.94 0.6 0 3 0.6 0 0 0.65 0
          0.06 0.65 0 0.12 0.65 0 0.18 0.65 0 0.24 0.65 0
          0.3 0.65 0 0.36 0.65 0 0.42 0.65 0 0.48 0.65 0
          0.54 0.65 0 0.6 0.65 0 0.66 0.65 0 0.72 0.65 0
          0.78 0.65 0 0.84 0.65 0 0.9 0.65 0 0.96 0.65 0
          1.02 0.65 0 1.08 0.65 0 1.14 0.65 0 1.2 0.65 0
          1.26 0.65 0 1.32 0.65 0 1.38 0.65 0 1.44 0.65 0
          1.5 0.65 0 1.56 0.65 0 1.62 0.65 0 1.68 0.65 0
          1.74 0.65 0 1.8 0.65 0 1.86 0.65 0 1.92 0.65 0
          1.98 0.65 0 2.04 0.65 0 2.1 0.65 0 2.16 0.65 0
          2.22 0.65 0 2.28 0.65 0 2.34 0.65 0 2.4 0.65 0
          2.46 0.65 0 2.52 0.65 0 2.58 0.65 0 2.64 0.65 0
          2.7 0.65 0 2.76 0.65 0 2.82 0.65 0 2.88 0.65 0
          2.94 0.65 0 3 0.65 0 0 0.7 0 0.06 0.7 0
          0.12 0.7 0 0.18 0.7 0 0.24 0.7 0 0.3 0.7 0
          0.36 0.7 0 0.42 0.7 0 0.48 0.7 0 0.54 0.7 0
          0.6 0.7 0 0.66 0.7 0 0.72 0.7 0 0.78 0.7 0
          0.84 0.7 0 0.9 0.7 0 0.96 0.7 0 1.02 0.7 0
          1.08 0.7 0 1.14 0.7 0 1.2 0.7 0 1.26 0.7 0
          1.32 0.7 0 1.38 0.7 0 1.44 0.7 0 1.5 0.7 0
          1.56 0.7 0 1.62 0.7 0 1.68 0.7 0 1.74 0.7 0
          1.8 0.7 0 1.86 0.7 0 1.92 0.7 0 1.98 0.7 0
          2.04 0.7 0 2.1 0.7 0 2.16 0.7 0 2.22 0.7 0
          2.28 0.7 0 2.34 0.7 0 2.4 0.7 0 2.46 0.7 0
          2.52 0.7 0 2.58 0.7 0 2.64 0.7 0 2.7 0.7 0
          2.76 0.7 0 2.82 0.7 0 2.88 0.7 0 2.94 0.7 0
          3 0.7 0 0 0.75 0 0.06 0.75 0 0.12 0.75 0
          0.18 0.75 0 0.24 0.75 0 0.3 0.75 0 0.36 0.75 0
          0.42 0.75 0 0.48 0.75 0 0.54 0.75 0 0.6 0.75 0
          0.66 0.75 0 0.72 0.75 0 0.78 0.75 0 0.84 0.75 0
          0.9 0.75 0 0.96 0.75 0 1.02 0.75 0 1.08 0.75 0
          1.14 0.75 0 1.2 0.75 0 1.26 0.75 0 1.32 0.75 0
          1.38 0.75 0 1.44 0.75 0 1.5 0.75 0 1.56 0.75 0
          1.62 0.75 0 1.68 0.75 0 1.74 0.75 0 1.8 0.75 0
          1.86 0.75 0 1.92 0.75 0 1.98 0.75 0 2.04 0.75 0
          2.1 0.75 0 2.16 0.75 0 2.22 0.75 0 2.28 0.75 0
          2.34 0.75 0 2.4 0.75 0 2.46 0.75 0 2.52 0.75 0
          2.58 0.75 0 2.64 0.75 0 2.7 0.75 0 2.76 0.75 0
          2.82 0.75 0 2.88 0.75 0 2.94 0.75 0 3 0.75 0
          0 0.8 0 0.06 0.8 0 0.12 0.8 0 0.18 0.8 0
          0.24 0.8 0 0.3 0.8 0 0.36 0.8 0 0.42 0.8 0
          0.48 0.8 0 0.54 0.8 0 0.6 0.8 0 0.66 0.8 0
          0.72 0.8 0 0.78 0.8 0 0.84 0.8 0 0.9 0.8 0
          0.96 0.8 0 1.02 0.8 0 1.08 0.8 0 1.14 0.8 0
          1.2 0.8 0 1.26 0.8 0 1.32 0.8 0 1.38 0.8 0
          1.44 0.8 0 1.5 0.8 0 1.56 0.8 0 1.62 0.8 0
          1.68 0.8 0 1.74 0.8 0 1.8 0.8 0 1.86 0.8 0
          1.92 0.8 0 1.98 0.8 0 2.04 0.8 0 2.1 0.8 0
          2.16 0.8 0 2.22 0.8 0 2.28 0.8 0 2.34 0.8 0
          2.4 0.8 0 2.46 0.8 0 2.52 0.8 0 2.58 0.8 0
          2.64 0.8 0 2.7 0.8 0 2.76 0.8 0 2.82 0.8 0
          2.88 0.8 0 2.94 0.8 0 3 0.8 0 0 0.85 0
          0.06 0.85 0 0.12 0.85 0 0.18 0.85 0 0.24 0.85 0
          0.3 0.85 0 0.36 0.85 0 0.42 0.85 0 0.48 0.85 0
          0.54 0.85 0 0.6 0.85 0 0.66 0.85 0 0.72 0.85 0
          0.78 0.85 0 0.84 0.85 0 0.9 0.85 0 0.96 0.85 0
          1.02 0.85 0 1.08 0.85 0 1.14 0.85 0 1.2 0.85 0
          1.26 0.85 0 1.32 0.85 0 1.38 0.85 0 1.44 0.85 0
          1.5 0.85 0 1.56 0.85 0 1.62 0.85 0 1.68 0.85 0
          1.74 0.85 0 1.8 0.85 0 1.86 0.85 0 1.92 0.85 0
          1.98 0.85 0 2.04 0.85 0 2.1 0.85 0 2.16 0.85 0
          2.22 0.85 0 2.28 0.85 0 2.34 0.85 0 2.4 0.85 0
          2.46 0.85 0 2.52 0.85 0 2.58 0.85 0 2.64 0.85 0
          2.7 0.85 0 2.76 0.85 0 2.82 0.85 0 2.88 0.85 0
          2.94 0.85 0 3 0.85 0 0 0.9 0 0.06 0.9 0
          0.12 0.9 0 0.18 0.9 0 0.24 0.9 0 0.3 0.9 0
          0.36 0.9 0 0.42 0.9 0 0.48 0.9 0 0.54 0.9 0
          0.6 0.9 0 0.66 0.9 0 0.72 0.9 0 0.78 0.9 0
          0.84 0.9 0 0.9 0.9 0 0.96 0.9 0 1.02 0.9 0
          1.08 0.9 0 1.14 0.9 0 1.2 0.9 0 1.26 0.9 0
          1.32 0.9 0 1.38 0.9 0 1.44 0.9 0 1.5 0.9 0
          1.56 0.9 0 1.62 0.9 0 1.68 0.9 0 1.74 0.9 0
          1.8 0.9 0 1.86 0.9 0 1.92 0.9 0 1.98 0.9 0
          2.04 0.9 0 2.1 0.9 0 2.16 0.9 0 2.22 0.9 0
          2.28 0.9 0 2.34 0.9 0 2.4 0.9 0 2.46 0.9 0
          2.52 0.9 0 2.58 0.9 0 2.64 0.9 0 2.7 0.9 0
          2.76 0.9 0 2.82 0.9 0 2.88 0.9 0 2.94 0.9 0
          3 0.9 0 0 0.95 0 0.06 0.95 0 0.12 0.95 0
          0.18 0.95 0 0.24 0.95 0 0.3 0.95 0 0.36 0.95 0
          0.42 0.95 0 0.48 0.95 0 0.54 0.95 0 0.6 0.95 0
          0.66 0.95 0 0.72 0.95 0 0.78 0.95 0 0.84 0.95 0
          0.9 0.95 0 0.96 0.95 0 1.02 0.95 0 1.08 0.95 0
          1.14 0.95 0 1.2 0.95 0 1.26 0.95 0 1.32 0.95 0
          1.38 0.95 0 1.44 0.95 0 1.5 0.95 0 1.56 0.95 0
          1.62 0.95 0 1.68 0.95 0 1.74 0.95 0 1.8 0.95 0
          1.86 0.95 0 1.92 0.95 0 1.98 0.95 0 2.04 0.95 0
          2.1 0.95 0 2.16 0.95 0 2.22 0.95 0 2.28 0.95 0
          2.34 0.95 0 2.4 0.95 0 2.46 0.95 0 2.52 0.95 0
          2.58 0.95 0 2.64 0.95 0 2.7 0.95 0 2.76 0.95 0
          2.82 0.95 0 2.88 0.95 0 2.94 0.95 0 3 0.95 0
          0 1 0 0.06 1 0 0.12 1 0 0.18 1 0
          0.24 1 0 0.3 1 0 0.36 1 0 0.42 1 0
          0.48 1 0 0.54 1 0 0.6 1 0 0.66 1 0
          0.72 1 0 0.78 1 0 0.84 1 0 0.9 1 0
          0.96 1 0 1.02 1 0 1.08 1 0 1.14 1 0
          1.2 1 0 1.26 1 0 1.32 1 0 1.38 1 0
          1.44 1 0 1.5 1 0 1.56 1 0 1.62 1 0
          1.68 1 0 1.74 1 0 1.8 1 0 1.86 1 0
          1.92 1 0 1.98 1 0 2.04 1 0 2.1 1 0
          2.16 1 0 2.22 1 0 2.28 1 0 2.34 1 0
          2.4 1 0 2.46 1 0 2.52 1 0 2.58 1 0
          2.64 1 0 2.7 1 0 2.76 1 0 2.82 1 0
          2.88 1 0 2.94 1 0 3 1 0
        </DataArray>
      </Points>
      <Cells>
        <DataArray type="Int32" Name="connectivity" NumberOfComponents="1" format="ascii">
          0 1 3 2 1 4 5 3 4 6 7 5
          6 8 9 7 8 10 11 9 10 12 13 11
          12 14 15 13 14 16 17 15 16 18 19 17
          18 20 21 19 20 22 23 21 22 24 25 23
          24 26 27 25 26 28 29 27 28 30 31 29
          30 32 33 31 32 34 35 33 34 36 37 35
          36 38 39 37 38 40 41 39 40 42 43 41
          42 44 45 43 44 46 47 45 46 48 49 47
          48 50 51 49 50 52 53 51 52 54 55 53
          54 56 57 55 56 58 59 57 58 60 61 59
          60 62 63 61 62 64 65 63 64 66 67 65
          66 68 69 67 68 70 71 69 70 72 73 71
          72 74 75 73 74 76 77 75 76 78 79 77
          78 80 81 79 80 82 83 81 82 84 85 83
          84 86 87 85 86 88 89 87 88 90 91 89
          90 92 93 91 92 94 95 93 94 96 97 95
          96 98 99 97 98 100 101 99 2 3 103 102
          3 5 104 103 5 7 105 104 7 9 106 105
          9 11 107 106 11 13 108 107 13 15 109 108
          15 17 110 109 17 19 111 110 19 21 112 111
          21 23 113 112 23 25 114 113 25 27 115 114
          27 29 116 115 29 31 117 116 31 33 118 117
          33 35 119 118 35 37 120 119 37 39 121 120
          39 41 122 121 41 43 123 122 43 45 124 123
          45 47 125 124 47 49 126 125 49 51 127 126
          51 53 128 127 53 55 129 128 55 57 130 129
          57 59 131 130 59 61 132 131 61 63 133 132
          63 65 134 133 65 67 135 134 67 69 136 135
          69 71 137 136 71 73 138 137 73 75 139 138
          75 77 140 139 77 79 141 140 79 81 142 141
          81 83 143 142 83 85 144 143 85 87 145 144
          87 89 146 145 89 91 147 146 91 93 148 147
          93 95 149 148 95 97 150 149 97 99 151 150
          99 101 152 151 102 103 154 153 103 104 155 154
          104 105 156 155 105 106 157 156 106 107 158 157
          107 108 159 158 108 109 160 159 109 110 161 160
          110 111 162 161 111 112 163 162 112 113 164 163
          113 114 165 164 114 115 166 165 115 116 167 166
          116 117 168 167 117 118 169 168 118 119 170 169
          119 120 171 170 120 121 172 171 121 122 173 172
          122 123 174 173 123 124 175 174 124 125 176 175
          125 126 177 176 126 127 178 177 127 128 179 178
          128 129 180 179 129 130 181 180 130 131 182 181
          131 132 183 182 132 133 184 183 133 134 185 184
          134 135 186 185 135 136 187 186 136 137 188 187