<?xml version="1.0"?>
<VTKFile type="UnstructuredGrid" version="0.1" byte_order="LittleEndian">
  <UnstructuredGrid>
    <Piece NumberOfCells="200" NumberOfPoints="231">
      <PointData Scalars="Sg" Vectors="velocityW">
        <DataArray type="Float32" Name="Sg" NumberOfComponents="1" format="ascii">
          0.05 0.0300055 0.05 0.0448043 0.025616 0.0398838 0 0 0 0 0 0
          0 0 0 0 0 0 0 0 0 0 0 0
          0 0 0 0 0.0287745 0.0596041 0.063981 0.092308 0.0945517 0.14319 0.226283 0.424157
          0.602715 0.635103 0.621455 0.638806 0.8 0.8 0.05 0.0506368 0.0469733 0 0 0
          0 0 0 0 0 0 0 0 0.0711184 0.10862 0.184255 0.527615
          0.636616 0.638829 0.8 0.05 0.051877 0.0499334 0 0 0 0 0 0
          0 0 0 0 0 0.077384 0.120685 0.229664 0.585087 0.636889 0.63883 0.8
          0.05 0.0517431 0.0507702 0 0 0 0 0 0 0 0 0
          0 0 0.0815413 0.131119 0.286984 0.615381 0.636965 0.63883 0.8 0.05 0.051453 0.0508841
          0 0 0 0 0 0 0 0 0 0 0 0.0850037
          0.141516 0.351929 0.628629 0.636988 0.63883 0.8 0.05 0.0512173 0.0508457 0 0 0
          0 0 0 0 0 0 0 0 0.0885175 0.153347 0.417107 0.633806
          0.636997 0.638831 0.8 0.05 0.0510293 0.0507907 0 0 0 0 0 0
          0 0 0 0 0 0.092585 0.168604 0.480559 0.63576 0.637008 0.638839 0.8
          0.05 0.0508749 0.0507301 0 0 0 0 0 0 0 0 0
          0 0 0.0977757 0.19072 0.539907 0.636593 0.637134 0.638957 0.8 0.05 0.050939 0.0508501
          0 0 0 0 0 0 0 0 0 0 0 0.105662
          0.23589 0.594127 0.638327 0.638588 0.640336 0.8 0.05 0.0686339 0.081748 0 0 0
          0 0 0 0 0 0 0 0.0458165 0.17749 0.454523 0.647796 0.651838
          0.651949 0.653192 0.8
        </DataArray>
        <DataArray type="Float32" Name="Sl" NumberOfComponents="1" format="ascii">
          0.95 0.969995 0.95 0.955196 0.974384 0.960116 1 1 1 1 1 1
          1 1 1 1 1 1 1 1 1 1 1 1
          1 1 1 1 0.971226 0.940396 0.936019 0.907692 0.905448 0.85681 0.773717 0.575843
          0.397285 0.364897 0.378545 0.361194 0.2 0.2 0.95 0.949363 0.953027 1 1 1
          1 1 1 1 1 1 1 1 0.928882 0.89138 0.815745 0.472385
          0.363384 0.361171 0.2 0.95 0.948123 0.950067 1 1 1 1 1 1
          1 1 1 1 1 0.922616 0.879315 0.770336 0.414913 0.363111 0.36117 0.2
          0.95 0.948257 0.94923 1 1 1 1 1 1 1 1 1
          1 1 0.918459 0.868881 0.713017 0.384619 0.363035 0.36117 0.2 0.95 0.948547 0.949116
          1 1 1 1 1 1 1 1 1 1 1 0.914996
          0.858484 0.648071 0.371371 0.363012 0.36117 0.2 0.95 0.948783 0.949154 1 1 1
          1 1 1 1 1 1 1 1 0.911483 0.846653 0.582893 0.366194
          0.363003 0.361169 0.2 0.95 0.948971 0.949209 1 1 1 1 1 1
          1 1 1 1 1 0.907415 0.831396 0.519441 0.36424 0.362992 0.361161 0.2
          0.95 0.949125 0.94927 1 1 1 1 1 1 1 1 1
          1 1 0.902224 0.80928 0.460093 0.363407 0.362866 0.361043 0.2 0.95 0.949061 0.94915
          1 1 1 1 1 1 1 1 1 1 1 0.894338
          0.76411 0.405873 0.361673 0.361412 0.359664 0.2 0.95 0.931366 0.918252 1 1 1
          1 1 1 1 1 1 1 0.954183 0.82251 0.545477 0.352204 0.348162
          0.348051 0.346808 0.2
        </DataArray>
        <DataArray type="Float32" Name="pg" NumberOfComponents="1" format="ascii">
          1.3e+07 1.2999e+07 1.3e+07 1.29906e+07 1.2983e+07 1.29741e+07 1.29649e+07 1.29544e+07 1.28532e+07 1.28454e+07 1.263e+07 1.26227e+07
          1.23706e+07 1.23614e+07 1.20978e+07 1.20878e+07 1.18188e+07 1.18085e+07 1.15369e+07 1.15264e+07 1.13747e+07 1.1364e+07 1.13329e+07 1.13222e+07
          1.12907e+07 1.12801e+07 1.12481e+07 1.12375e+07 1.12032e+07 1.11939e+07 1.11494e+07 1.11384e+07 1.10882e+07 1.1077e+07 1.10252e+07 1.10167e+07
          1.10089e+07 1.10095e+07 1.10058e+07 1.1005e+07 1.1e+07 1.1e+07 1.3e+07 1.29847e+07 1.29657e+07 1.29436e+07 1.28433e+07 1.26221e+07
          1.23548e+07 1.2079e+07 1.17987e+07 1.1516e+07 1.13535e+07 1.13117e+07 1.12697e+07 1.12273e+07 1.11846e+07 1.11277e+07 1.10647e+07 1.1015e+07
          1.10093e+07 1.10047e+07 1.1e+07 1.3e+07 1.298e+07 1.29579e+07 1.29333e+07 1.28432e+07 1.26248e+07 1.23502e+07 1.20713e+07 1.17894e+07
          1.15059e+07 1.1343e+07 1.13012e+07 1.12593e+07 1.12171e+07 1.1175e+07 1.11171e+07 1.10518e+07 1.10145e+07 1.10092e+07 1.10045e+07 1.1e+07
          1.3e+07 1.29758e+07 1.29505e+07 1.29235e+07 1.28432e+07 1.26283e+07 1.23468e+07 1.20643e+07 1.17805e+07 1.14959e+07 1.13325e+07 1.12908e+07
          1.12489e+07 1.1207e+07 1.11653e+07 1.11068e+07 1.104e+07 1.10144e+07 1.10092e+07 1.10044e+07 1.1e+07 1.3e+07 1.29719e+07 1.29433e+07
          1.29141e+07 1.28426e+07 1.26313e+07 1.23437e+07 1.20576e+07 1.17718e+07 1.14859e+07 1.13221e+07 1.12803e+07 1.12385e+07 1.11969e+07 1.11555e+07
          1.10968e+07 1.10312e+07 1.10143e+07 1.10091e+07 1.10043e+07 1.1e+07 1.3e+07 1.29679e+07 1.29362e+07 1.29049e+07 1.2841e+07 1.26333e+07
          1.23402e+07 1.20507e+07 1.1763e+07 1.1476e+07 1.13117e+07 1.12699e+07 1.12282e+07 1.11867e+07 1.11455e+07 1.10871e+07 1.10256e+07 1.1014e+07
          1.10089e+07 1.10042e+07 1.1e+07 1.3e+07 1.29638e+07 1.2929e+07 1.28953e+07 1.28384e+07 1.26339e+07 1.23358e+07 1.20434e+07 1.1754e+07
          1.1466e+07 1.13012e+07 1.12594e+07 1.12177e+07 1.11763e+07 1.11354e+07 1.10772e+07 1.10222e+07 1.10138e+07 1.10087e+07 1.1004e+07 1.1e+07
          1.3e+07 1.29592e+07 1.29215e+07 1.28853e+07 1.28342e+07 1.26326e+07 1.23299e+07 1.20353e+07 1.17446e+07 1.14558e+07 1.12907e+07 1.12489e+07
          1.12073e+07 1.11659e+07 1.1125e+07 1.10662e+07 1.10205e+07 1.10135e+07 1.10083e+07 1.10037e+07 1.1e+07 1.3e+07 1.29535e+07 1.29135e+07
          1.28753e+07 1.2827e+07 1.26275e+07 1.2322e+07 1.20263e+07 1.17348e+07 1.14454e+07 1.12801e+07 1.12383e+07 1.11967e+07 1.11554e+07 1.11144e+07
          1.10533e+07 1.10203e+07 1.10132e+07 1.10077e+07 1.10033e+07 1.1e+07 1.3e+07 1.29457e+07 1.2905e+07 1.28678e+07 1.28141e+07 1.26138e+07
          1.23127e+07 1.20161e+07 1.17244e+07 1.14348e+07 1.12695e+07 1.12277e+07 1.11861e+07 1.11448e+07 1.11034e+07 1.10412e+07 1.10213e+07 1.10125e+07
          1.1007e+07 1.10025e+07 1.1e+07
        </DataArray>
        <DataArray type="Float32" Name="pl" NumberOfComponents="1" format="ascii">
          1.29995e+07 1.29985e+07 1.29995e+07 1.299e+07 1.29825e+07 1.29736e+07 1.29644e+07 1.29539e+07 1.28527e+07 1.28449e+07 1.26295e+07 1.26222e+07
          1.23701e+07 1.23609e+07 1.20973e+07 1.20873e+07 1.18183e+07 1.1808e+07 1.15364e+07 1.15259e+07 1.13742e+07 1.13635e+07 1.13324e+07 1.13217e+07
          1.12902e+07 1.12796e+07 1.12476e+07 1.1237e+07 1.12027e+07 1.11934e+07 1.11489e+07 1.11379e+07 1.10876e+07 1.10765e+07 1.10246e+07 1.1016e+07
          1.10079e+07 1.10084e+07 1.10048e+07 1.10039e+07 1.09925e+07 1.09925e+07 1.29995e+07 1.29842e+07 1.29652e+07 1.29431e+07 1.28428e+07 1.26216e+07
          1.23543e+07 1.20785e+07 1.17982e+07 1.15155e+07 1.1353e+07 1.13112e+07 1.12692e+07 1.12268e+07 1.11841e+07 1.11271e+07 1.10641e+07 1.10142e+07
          1.10082e+07 1.10036e+07 1.09925e+07 1.29995e+07 1.29795e+07 1.29573e+07 1.29328e+07 1.28427e+07 1.26243e+07 1.23497e+07 1.20708e+07 1.17889e+07
          1.15054e+07 1.13425e+07 1.13007e+07 1.12588e+07 1.12166e+07 1.11745e+07 1.11165e+07 1.10512e+07 1.10135e+07 1.10081e+07 1.10034e+07 1.09925e+07
          1.29995e+07 1.29753e+07 1.29499e+07 1.2923e+07 1.28427e+07 1.26278e+07 1.23463e+07 1.20638e+07 1.178e+07 1.14954e+07 1.1332e+07 1.12903e+07
          1.12484e+07 1.12065e+07 1.11648e+07 1.11062e+07 1.10393e+07 1.10133e+07 1.1008e+07 1.10033e+07 1.09925e+07 1.29995e+07 1.29713e+07 1.29428e+07
          1.29136e+07 1.28421e+07 1.26308e+07 1.23432e+07 1.20571e+07 1.17713e+07 1.14854e+07 1.13216e+07 1.12798e+07 1.1238e+07 1.11964e+07 1.11549e+07
          1.10963e+07 1.10305e+07 1.10132e+07 1.1008e+07 1.10032e+07 1.09925e+07 1.29995e+07 1.29674e+07 1.29357e+07 1.29044e+07 1.28405e+07 1.26328e+07
          1.23397e+07 1.20502e+07 1.17625e+07 1.14755e+07 1.13112e+07 1.12694e+07 1.12277e+07 1.11862e+07 1.1145e+07 1.10866e+07 1.10249e+07 1.10129e+07
          1.10078e+07 1.10031e+07 1.09925e+07 1.29995e+07 1.29633e+07 1.29285e+07 1.28948e+07 1.28379e+07 1.26334e+07 1.23353e+07 1.20429e+07 1.17535e+07
          1.14654e+07 1.13007e+07 1.12589e+07 1.12172e+07 1.11758e+07 1.11348e+07 1.10766e+07 1.10214e+07 1.10127e+07 1.10076e+07 1.10029e+07 1.09925e+07
          1.29995e+07 1.29587e+07 1.2921e+07 1.28848e+07 1.28337e+07 1.26321e+07 1.23294e+07 1.20348e+07 1.17441e+07 1.14553e+07 1.12902e+07 1.12484e+07
          1.12068e+07 1.11654e+07 1.11244e+07 1.10656e+07 1.10197e+07 1.10124e+07 1.10072e+07 1.10026e+07 1.09925e+07 1.29995e+07 1.29529e+07 1.2913e+07
          1.28748e+07 1.28265e+07 1.2627e+07 1.23215e+07 1.20258e+07 1.17343e+07 1.14449e+07 1.12796e+07 1.12378e+07 1.11962e+07 1.11549e+07 1.11139e+07
          1.10527e+07 1.10193e+07 1.10121e+07 1.10066e+07 1.10021e+07 1.09925e+07 1.29995e+07 1.29451e+07 1.29045e+07 1.28673e+07 1.28136e+07 1.26133e+07
          1.23122e+07 1.20156e+07 1.17239e+07 1.14343e+07 1.1269e+07 1.12272e+07 1.11856e+07 1.11443e+07 1.11028e+07 1.10404e+07 1.10202e+07 1.10113e+07
          1.10058e+07 1.10013e+07 1.09925e+07
        </DataArray>
        <DataArray type="Float32" Name="pc" NumberOfComponents="1" format="ascii">
          516.075 509.33 516.075 514.297 507.885 512.629 499.687 499.687 499.687 499.687 499.687 499.687
          499.687 499.687 499.687 499.687 499.687 499.687 499.687 499.687 499.687 499.687 499.687 499.687
          499.687 499.687 499.687 499.687 508.924 519.411 520.953 531.277 532.122 551.472 590.058 729.021
          1006.23 1100.62 1057.72 1113.19 7500 7500 516.075 516.294 515.037 499.687 499.687 499.687
          499.687 499.687 499.687 499.687 499.687 499.687 499.687 499.687 523.498 537.508 569.564 856.35
          1105.7 1113.27 7500 516.075 516.722 516.052 499.687 499.687 499.687 499.687 499.687 499.687
          499.687 499.687 499.687 499.687 499.687 525.763 542.26 591.804 964.078 1106.63 1113.27 7500
          516.075 516.676 516.34 499.687 499.687 499.687 499.687 499.687 499.687 499.687 499.687 499.687
          499.687 499.687 527.281 546.473 623.99 1040.17 1106.89 1113.27 7500 516.075 516.576 516.379
          499.687 499.687 499.687 499.687 499.687 499.687 499.687 499.687 499.687 499.687 499.687 528.557
          550.771 667.683 1079.63 1106.97 1113.27 7500 516.075 516.494 516.366 499.687 499.687 499.687
          499.687 499.687 499.687 499.687 499.687 499.687 499.687 499.687 529.86 555.786 722.279 1096.32
          1106.99 1113.28 7500 516.075 516.429 516.347 499.687 499.687 499.687 499.687 499.687 499.687
          499.687 499.687 499.687 499.687 499.687 531.381 562.461 790.766 1102.82 1107.03 1113.3 7500
          516.075 516.376 516.326 499.687 499.687 499.687 499.687 499.687 499.687 499.687 499.687 499.687
          499.687 499.687 533.342 572.578 876.353 1105.63 1107.46 1113.71 7500 516.075 516.398 516.368
          499.687 499.687 499.687 499.687 499.687 499.687 499.687 499.687 499.687 499.687 499.687 536.362
          595.061 985.017 1111.54 1112.44 1118.51 7500 516.075 522.608 527.357 499.687 499.687 499.687
          499.687 499.687 499.687 499.687 499.687 499.687 499.687 514.642 566.461 760.385 1145.59 1161.11
          1161.55 1166.46 7500
        </DataArray>
        <DataArray type="Float32" Name="rhoL" NumberOfComponents="1" format="ascii">
          928.502 932.446 928.502 929.738 938.542 934.232 1046.99 1039.78 1091.5 1091.74 1091.1 1091.35
          1090.62 1090.85 1090.03 1090.23 1089.34 1089.51 1088.55 1088.68 1087.14 1087.19 1085.9 1085.87
          1084.9 1084.81 1084.18 1084.05 1083.84 1083.83 1083.82 1083.81 1083.79 1083.79 1083.76 1083.76
          1083.76 1083.76 1083.76 1083.76 1168.53 1168.53 928.502 928.935 931.629 1008.56 1091.96 1091.61
          1091.12 1090.51 1089.77 1088.92 1087.38 1085.99 1084.85 1084.02 1083.83 1083.81 1083.78 1083.76
          1083.76 1083.76 1168.53 928.502 928.706 930.375 988.148 1092.1 1091.77 1091.3 1090.7 1089.97
          1089.11 1087.54 1086.09 1084.9 1084.02 1083.83 1083.8 1083.78 1083.76 1083.76 1083.76 1168.53
          928.502 928.606 929.687 974.666 1092.19 1091.88 1091.44 1090.85 1090.12 1089.27 1087.66 1086.18
          1084.94 1084.02 1083.82 1083.8 1083.77 1083.76 1083.76 1083.76 1168.53 928.502 928.554 929.273
          964.69 1092.25 1091.97 1091.54 1090.97 1090.25 1089.4 1087.77 1086.25 1084.98 1084.02 1083.82
          1083.79 1083.77 1083.76 1083.76 1083.76 1168.53 928.502 928.523 929.007 957.347 1092.3 1092.05
          1091.64 1091.08 1090.38 1089.52 1087.88 1086.33 1085.01 1084.02 1083.81 1083.79 1083.76 1083.76
          1083.76 1083.76 1168.53 928.502 928.505 928.83 950.802 1092.34 1092.11 1091.72 1091.19 1090.49
          1089.64 1087.99 1086.4 1085.04 1084.02 1083.81 1083.79 1083.76 1083.76 1083.76 1083.76 1168.53
          928.502 928.493 928.714 945.422 1092.38 1092.17 1091.8 1091.28 1090.6 1089.76 1088.09 1086.47
          1085.07 1084.02 1083.81 1083.78 1083.76 1083.76 1083.76 1083.76 1168.53 928.502 928.485 928.648
          942.314 1092.4 1092.21 1091.86 1091.37 1090.7 1089.87 1088.18 1086.53 1085.09 1083.99 1083.8
          1083.78 1083.76 1083.76 1083.76 1083.76 1168.53 928.502 928.477 928.655 953.739 1092.25 1092.02
          1091.65 1091.15 1090.48 1089.64 1087.97 1086.29 1084.8 1083.81 1083.8 1083.77 1083.76 1083.76
          1083.76 1083.76 1168.53
        </DataArray>
        <DataArray type="Float32" Name="rhoG" NumberOfComponents="1" format="ascii">
          107.068 107.062 107.068 106.99 106.932 106.856 106.786 106.696 105.859 105.791 104.004 103.939
          101.848 101.768 99.5819 99.4957 97.2657 97.177 94.9265 94.8368 93.5934 93.5041 93.2624 93.1742
          92.9252 92.8383 92.58 92.494 92.2113 92.1339 91.7633 91.6718 91.2528 91.1603 90.7282 90.658
          90.5925 90.5973 90.5672 90.5603 90.6021 90.6021 107.068 106.941 106.784 106.604 105.77 103.931
          101.71 99.4192 97.0921 94.7474 93.4135 93.0847 92.7504 92.409 92.0562 91.582 91.0571 90.6439
          90.596 90.5576 90.6021 107.068 106.901 106.718 106.516 105.768 103.952 101.669 99.3523 97.0123
          94.6603 93.3239 92.9958 92.663 92.3247 91.9765 91.4937 90.9503 90.639 90.5953 90.5562 90.6021
          107.068 106.866 106.656 106.434 105.767 103.979 101.639 99.2917 96.9359 94.5748 93.235 92.9074
          92.5761 92.2404 91.8955 91.408 90.8514 90.6381 90.5948 90.5553 90.6021 107.068 106.834 106.596
          106.355 105.761 104.003 101.611 99.2339 96.8612 94.4901 93.1465 92.8193 92.4893 92.1558 91.8136
          91.3252 90.7785 90.6373 90.5941 90.5545 90.6021 107.068 106.801 106.537 106.278 105.747 104.019
          101.581 99.1753 96.7863 94.4055 93.058 92.7312 92.4023 92.0705 91.7307 91.2443 90.7319 90.6355
          90.5928 90.5534 90.6021 107.068 106.767 106.477 106.198 105.725 104.023 101.543 99.113 96.7098
          94.3203 92.9694 92.6429 92.3149 91.9845 91.6462 91.1615 90.7037 90.6334 90.5908 90.5519 90.6021
          107.068 106.728 106.414 106.114 105.689 104.011 101.493 99.0444 96.6303 94.2339 92.8803 92.5543
          92.2272 91.8977 91.5594 91.0697 90.6895 90.6313 90.5876 90.5495 90.6021 107.068 106.68 106.348
          106.031 105.629 103.969 101.427 98.9682 96.5469 94.1462 92.7909 92.4653 92.1391 91.8103 91.4714
          90.9621 90.6877 90.6286 90.5829 90.5456 90.6021 107.068 106.615 106.277 105.97 105.523 103.857
          101.352 98.8862 96.4631 94.061 92.7052 92.3801 92.0547 91.7248 91.3799 90.8614 90.696 90.6223
          90.5765 90.5391 90.6021
        </DataArray>
        <DataArray type="Float32" Name="mobL" NumberOfComponents="1" format="ascii">
          4371.14 4530.92 4371.14 4376.82 4287.06 4196.8 3010.18 3038.58 2955.08 2955.32 2954.8 2955.03
          2954.46 2954.67 2954.04 2954.22 2953.57 2953.71 2953.07 2953.16 2952.17 2952.2 2951.49 2951.48
          2951.05 2951.02 2950.8 2950.76 2561.32 2175.67 2124.68 1815.99 1793.07 1347.4 784.385 144.466
          10.9677 5.35294 7.35746 4.88797 0 0 4371.14 4309.58 4193.91 3237 2955.54 2955.28
          2954.92 2954.47 2953.93 2953.35 2952.32 2951.54 2951.04 2950.75 2043.46 1654.26 1040.74 39.8541
          5.15918 4.88521 0 4371.14 4303.06 4211.1 3460.48 2955.67 2955.44 2955.1 2954.65 2954.1
          2953.5 2952.42 2951.59 2951.06 2950.75 1974.09 1541.78 766.055 15.445 5.1247 4.88515 0
          4371.14 4316.54 4242.41 3676.81 2955.76 2955.55 2955.23 2954.79 2954.24 2953.63 2952.51 2951.64
          2951.08 2950.75 1929.06 1449.21 501.491 8.41085 5.11519 4.88512 0 4371.14 4329.01 4272.57
          3890.91 2955.83 2955.64 2955.33 2954.9 2954.36 2953.74 2952.58 2951.68 2951.09 2950.75 1892.14
          1361.19 291.826 6.24434 5.11224 4.88509 0 4371.14 4337.9 4296.01 4089.45 2955.88 2955.71
          2955.43 2955.01 2954.47 2953.84 2952.66 2951.72 2951.11 2950.76 1855.22 1265.97 155.613 5.52333
          5.11121 4.885 0 4371.14 4344.33 4313.18 4305.4 2955.93 2955.78 2955.51 2955.11 2954.58
          2953.95 2952.73 2951.76 2951.13 2950.76 1813.15 1150.66 75.3877 5.26809 5.10982 4.88399 0
          4371.14 4349.14 4325.51 4518.61 2955.96 2955.83 2955.59 2955.21 2954.68 2954.05 2952.81 2951.81
          2951.14 2950.76 1760.52 997.714 33.1323 5.16197 5.09405 4.86968 0 4371.14 4348.37 4329.06
          4660.29 2955.99 2955.88 2955.66 2955.29 2954.78 2954.14 2952.88 2951.84 2951.15 2950.75 1682.76
          733.15 13.0058 4.94638 4.9145 4.70509 0 4371.14 3952.2 3656.83 4202.77 2955.84 2955.69
          2955.45 2955.08 2954.58 2953.96 2952.73 2951.72 2951.03 2342.32 1087.24 103.137 3.88542 3.48886
          3.47843 3.36309 0
        </DataArray>
        <DataArray type="Float32" Name="mobG" NumberOfComponents="1" format="ascii">
          19.0304 3.99824 19.0304 13.6416 2.45072 9.57176 0 0 0 0 0 0
          0 0 0 0 0 0 0 0 0 0 0 0
          0 0 0 0 3.51324 32.355 40.0452 119.773 128.629 437.035 1638.97 9295.89
          22665.4 25663.6 24382.3 26015.5 42559.3 42559.3 19.0304 19.7738 15.7479 0 0 0
          0 0 0 0 0 0 0 0 55.0038 193.993 909.185 16339.2
          25807.1 26017.7 42559.3 19.0304 21.2763 18.9537 0 0 0 0 0 0
          0 0 0 0 0 70.814 264.666 1709.67 21098 25833.1 26017.8 42559.3
          19.0304 21.1107 19.932 0 0 0 0 0 0 0 0 0
          0 0 82.7905 337.693 3204.57 23820.4 25840.3 26017.8 42559.3 19.0304 20.7545 20.0677
          0 0 0 0 0 0 0 0 0 0 0 93.7188
          422.27 5628.04 25052.7 25842.5 26017.8 42559.3 19.0304 20.468 20.0219 0 0 0
          0 0 0 0 0 0 0 0 105.732 533.794 8892.04 25540.7
          25843.3 26017.9 42559.3 19.0304 20.2415 19.9563 0 0 0 0 0 0
          0 0 0 0 0 120.844 703.256 12880.9 25725.9 25844.4 26018.7 42559.3
          19.0304 20.0567 19.8844 0 0 0 0 0 0 0 0 0
          0 0 142.086 1004.23 17309.4 25805 25856.3 26029.9 42559.3 19.0304 20.1333 20.0271
          0 0 0 0 0 0 0 0 0 0 0 178.786
          1844.72 21895.8 25969.9 25994.7 26161.4 42559.3 19.0304 49.4421 83.418 0 0 0
          0 0 0 0 0 0 0 14.5997 816.046 11148.4 26877.2 27267.8
          27278.6 27399.1 42559.3
        </DataArray>
        <DataArray type="Float32" Name="porosity" NumberOfComponents="1" format="ascii">
          0.11 0.11 0.11 0.11 0.11 0.11 0.109785 0.109795 0.0596415 0.0600926 0.0576221 0.0576264
          0.0576113 0.0576154 0.0576026 0.0576039 0.0575951 0.0575988 0.0575893 0.0575924 0.105575 0.105594 0.105563 0.105579
          0.105554 0.10557 0.105548 0.105562 0.105518 0.105503 0.105492 0.105492 0.105491 0.105491 0.105489 0.105489
          0.105487 0.105487 0.105483 0.105483 0.11 0.11 0.11 0.11 0.11 0.109915 0.0637292 0.0576282
          0.0576173 0.0576068 0.0576006 0.0575938 0.105604 0.105589 0.105579 0.10557 0.105501 0.105492 0.105491 0.105489
          0.105487 0.105483 0.11 0.11 0.11 0.11 0.109956 0.0675223 0.0576291 0.0576186 0.057609 0.0576017
          0.0575954 0.105609 0.105596 0.105585 0.105576 0.105501 0.105492 0.105491 0.105489 0.105487 0.105483 0.11
          0.11 0.11 0.11 0.109972 0.0709783 0.05763 0.0576196 0.0576105 0.0576027 0.0575971 0.105611 0.105599
          0.105589 0.10558 0.105501 0.105492 0.105491 0.105489 0.105487 0.105483 0.11 0.11 0.11 0.11
          0.109981 0.0742233 0.0576308 0.057622 0.0576118 0.0576037 0.0575984 0.105614 0.105603 0.105592 0.105583 0.105501
          0.105492 0.105491 0.105489 0.105487 0.105483 0.11 0.11 0.11 0.11 0.109986 0.0774395 0.0576317
          0.0576241 0.057613 0.0576048 0.0575995 0.105616 0.105606 0.105595 0.105586 0.105501 0.105492 0.105491 0.105489
          0.105487 0.105483 0.11 0.11 0.11 0.11 0.10999 0.0812362 0.0576327 0.0576262 0.0576141 0.0576058
          0.0576006 0.105618 0.105609 0.105599 0.10559 0.105501 0.105492 0.105491 0.105489 0.105487 0.105483 0.11
          0.11 0.11 0.11 0.109993 0.0866132 0.0576341 0.0576284 0.0576151 0.0576068 0.0576016 0.105621 0.105613
          0.105603 0.105594 0.105501 0.105492 0.105491 0.105489 0.105487 0.105483 0.11 0.11 0.11 0.11
          0.109996 0.0965408 0.057637 0.0576308 0.0576161 0.0576075 0.0576027 0.105625 0.10562 0.10561 0.105599 0.105499
          0.105492 0.105491 0.105489 0.105487 0.105483 0.11 0.11 0.11 0.11 0.109989 0.0763446 0.0576386
          0.0576297 0.0576192 0.0576114 0.0576055 0.105657 0.10565 0.105637 0.105581 0.105492 0.105491 0.105491 0.105489
          0.105487 0.105483 0.11
        </DataArray>
        <DataArray type="Float32" Name="permeabilityFactor" NumberOfComponents="1" format="ascii">
          1 1 1 1 1 1 0.99367 0.993953 0.142778 0.146183 0.128209 0.128239
          0.128134 0.128163 0.128074 0.128083 0.128022 0.128047 0.127981 0.128003 0.875386 0.875886 0.875067 0.875497
          0.874824 0.875241 0.874669 0.875035 0.873856 0.873449 0.873148 0.873148 0.873123 0.873123 0.873087 0.873086
          0.873032 0.873032 0.872926 0.872926 1 1 1 1 1 0.997504 0.175717 0.128251
          0.128176 0.128103 0.12806 0.128013 0.87616 0.875766 0.875491 0.875248 0.873392 0.873147 0.873122 0.873086
          0.873032 0.872926 1 1 1 1 0.998694 0.210701 0.128258 0.128185 0.128118 0.128068
          0.128024 0.876286 0.875933 0.875649 0.875399 0.873385 0.873147 0.873121 0.873087 0.873032 0.872926 1
          1 1 1 0.99917 0.246562 0.128264 0.128192 0.128129 0.128075 0.128035 0.876357 0.876038
          0.875756 0.875509 0.87339 0.873147 0.873121 0.873087 0.873032 0.872927 1 1 1 1
          0.999452 0.283929 0.12827 0.128208 0.128138 0.128082 0.128044 0.876416 0.876121 0.875843 0.8756 0.873395
          0.873146 0.873121 0.873087 0.873032 0.872927 1 1 1 1 0.999578 0.324714 0.128276
          0.128223 0.128146 0.128089 0.128052 0.876475 0.876203 0.875931 0.875688 0.873398 0.873146 0.873121 0.873087
          0.873032 0.872928 1 1 1 1 0.99971 0.377957 0.128283 0.128237 0.128153 0.128096
          0.12806 0.876537 0.876293 0.876029 0.875784 0.873397 0.873146 0.873121 0.873087 0.873032 0.872928 1
          1 1 1 0.999787 0.463495 0.128292 0.128253 0.128161 0.128103 0.128067 0.876607 0.876401
          0.876146 0.875894 0.873387 0.873146 0.873121 0.873087 0.873033 0.872928 1 1 1 1
          0.999867 0.65602 0.128312 0.128269 0.128168 0.128108 0.128074 0.876735 0.876583 0.876317 0.876023 0.873337
          0.873145 0.873121 0.873087 0.873033 0.872929 1 1 1 1 0.999689 0.310397 0.128324
          0.128262 0.128189 0.128135 0.128094 0.877575 0.877409 0.877041 0.875551 0.873162 0.873143 0.87312 0.873087
          0.873032 0.872929 1
        </DataArray>
        <DataArray type="Float32" Name="temperature" NumberOfComponents="1" format="ascii">
          418.15 418.15 418.15 418.15 418.15 418.15 418.15 418.15 418.15 418.15 418.15 418.15
          418.15 418.15 418.15 418.15 418.15 418.15 418.15 418.15 418.15 418.15 418.15 418.15
          418.15 418.15 418.15 418.15 418.15 418.15 418.15 418.15 418.15 418.15 418.15 418.15
          418.15 418.15 418.15 418.15 418.15 418.15 418.15 418.15 418.15 418.15 418.15 418.15
          418.15 418.15 418.15 418.15 418.15 418.15 418.15 418.15 418.15 418.15 418.15 418.15
          418.15 418.15 418.15 418.15 418.15 418.15 418.15 418.15 418.15 418.15 418.15 418.15
          418.15 418.15 418.15 418.15 418.15 418.15 418.15 418.15 418.15 418.15 418.15 418.15
          418.15 418.15 418.15 418.15 418.15 418.15 418.15 418.15 418.15 418.15 418.15 418.15
          418.15 418.15 418.15 418.15 418.15 418.15 418.15 418.15 418.15 418.15 418.15 418.15
          418.15 418.15 418.15 418.15 418.15 418.15 418.15 418.15 418.15 418.15 418.15 418.15
          418.15 418.15 418.15 418.15 418.15 418.15 418.15 418.15 418.15 418.15 418.15 418.15
          418.15 418.15 418.15 418.15 418.15 418.15 418.15 418.15 418.15 418.15 418.15 418.15
          418.15 418.15 418.15 418.15 418.15 418.15 418.15 418.15 418.15 418.15 418.15 418.15
          418.15 418.15 418.15 418.15 418.15 418.15 418.15 418.15 418.15 418.15 418.15 418.15
          418.15 418.15 418.15 418.15 418.15 418.15 418.15 418.15 418.15 418.15 418.15 418.15
          418.15 418.15 418.15 418.15 418.15 418.15 418.15 418.15 418.15 418.15 418.15 418.15
          418.15 418.15 418.15 418.15 418.15 418.15 418.15 418.15 418.15 418.15 418.15 418.15
          418.15 418.15 418.15 418.15 418.15 418.15 418.15 418.15 418.15 418.15 418.15 418.15
          418.15 418.15 418.15 418.15 418.15 418.15 418.15 418.15 418.15 418.15 418.15 418.15
          418.15 418.15 418.15
        </DataArray>
        <DataArray type="Float32" Name="phase presence" NumberOfComponents="1" format="ascii">
          3 3 3 3 3 3 1 1 1 1 1 1
          1 1 1 1 1 1 1 1 1 1 1 1
          1 1 1 1 3 3 3 3 3 3 3 3
          3 3 3 3 3 3 3 3 3 1 1 1
          1 1 1 1 1 1 1 1 3 3 3 3
          3 3 3 3 3 3 1 1 1 1 1 1
          1 1 1 1 1 3 3 3 3 3 3 3
          3 3 3 1 1 1 1 1 1 1 1 1
          1 1 3 3 3 3 3 3 3 3 3 3
          1 1 1 1 1 1 1 1 1 1 1 3
          3 3 3 3 3 3 3 3 3 1 1 1
          1 1 1 1 1 1 1 1 3 3 3 3
          3 3 3 3 3 3 1 1 1 1 1 1
          1 1 1 1 1 3 3 3 3 3 3 3
          3 3 3 1 1 1 1 1 1 1 1 1
          1 1 3 3 3 3 3 3 3 3 3 3
          1 1 1 1 1 1 1 1 1 1 1 3
          3 3 3 3 3 3 3 3 3 1 1 1
          1 1 1 1 1 1 1 3 3 3 3 3
          3 3 3
        </DataArray>
        <DataArray type="Float32" Name="boxVolume" NumberOfComponents="1" format="ascii">
          0.5 1 1 2 1 2 1 2 1 2 1 2
          1 2 1 2 1 2 1 2 1 2 1 2
          1 2 1 2 1 2 1 2 1 2 1 2
          1 2 1 2 0.5 1 1 2 2 2 2 2
          2 2 2 2 2 2 2 2 2 2 2 2
          2 2 1 1 2 2 2 2 2 2 2 2
          2 2 2 2 2 2 2 2 2 2 2 1
          1 2 2 2 2 2 2 2 2 2 2 2
          2 2 2 2 2 2 2 2 1 1 2 2
          2 2 2 2 2 2 2 2 2 2 2 2
          2 2 2 2 2 1 1 2 2 2 2 2
          2 2 2 2 2 2 2 2 2 2 2 2
          2 2 1 1 2 2 2 2 2 2 2 2
          2 2 2 2 2 2 2 2 2 2 2 1
          1 2 2 2 2 2 2 2 2 2 2 2
          2 2 2 2 2 2 2 2 1 1 2 2
          2 2 2 2 2 2 2 2 2 2 2 2
          2 2 2 2 2 1 0.5 1 1 1 1 1
          1 1 1 1 1 1 1 1 1 1 1 1
          1 1 0.5
        </DataArray>
        <DataArray type="Float32" Name="precipitateVolumeFraction_NaCl" NumberOfComponents="1" format="ascii">
          0 8.38742e-12 0 8.38742e-12 6.31898e-11 6.45642e-11 0.000214915 0.000205298 0.0503585 0.0499074 0.0523779 0.0523736
          0.0523886 0.0523846 0.0523974 0.0523961 0.0524049 0.0524012 0.0524107 0.0524076 0.00442482 0.0044062 0.00443673 0.00442071
          0.0044458 0.00443024 0.00445156 0.00443793 0.00448188 0.00449707 0.00450831 0.00450833 0.00450924 0.00450926 0.0045106 0.00451062
          0.00451266 0.00451266 0.00451661 0.00451661 0 0 0 8.38742e-12 6.35838e-11 8.4616e-05 0.0462708 0.0523718
          0.0523827 0.0523932 0.0523994 0.0524062 0.004396 0.00441066 0.00442091 0.00442997 0.0044992 0.00450835 0.00450929 0.00451062
          0.00451266 0.0045166 0 0 8.38742e-12 6.2863e-11 4.4262e-05 0.0424778 0.0523709 0.0523814 0.052391 0.0523983
          0.0524046 0.00439131 0.00440444 0.00441502 0.00442436 0.00449948 0.00450836 0.00450931 0.00451061 0.00451266 0.00451659 0
          0 8.38742e-12 6.227e-11 2.81145e-05 0.0390217 0.05237 0.0523804 0.0523895 0.0523973 0.0524029 0.00438866 0.00440053
          0.00441104 0.00442025 0.00449929 0.00450837 0.00450932 0.0045106 0.00451265 0.00451657 0 0 8.38742e-12 6.1725e-11
          1.85619e-05 0.0357767 0.0523692 0.052378 0.0523882 0.0523963 0.0524016 0.00438648 0.00439745 0.0044078 0.00441686 0.00449909
          0.00450838 0.00450933 0.0045106 0.00451264 0.00451656 0 0 8.38742e-12 6.11772e-11 1.42889e-05 0.0325605 0.0523683
          0.0523759 0.052387 0.0523952 0.0524005 0.00438428 0.00439441 0.00440454 0.00441356 0.00449898 0.00450838 0.00450933 0.00451059
          0.00451264 0.00451654 0 0 8.38742e-12 6.0573e-11 9.8366e-06 0.0287638 0.0523673 0.0523738 0.0523859 0.0523942
          0.0523994 0.00438197 0.00439106 0.00440088 0.00440999 0.00449902 0.00450839 0.00450932 0.00451059 0.00451263 0.00451653 0
          0 8.38742e-12 5.98211e-11 7.20751e-06 0.0233868 0.0523659 0.0523716 0.0523849 0.0523932 0.0523984 0.00437936 0.00438701
          0.0043965 0.0044059 0.00449938 0.0045084 0.00450932 0.00451059 0.00451263 0.00451652 0 0 8.38742e-12 5.9699e-11
          4.49449e-06 0.0134592 0.052363 0.0523692 0.0523839 0.0523925 0.0523973 0.0043746 0.00438025 0.00439017 0.00440111 0.00450128
          0.00450842 0.00450931 0.00451059 0.00451263 0.00451651 0 0 8.38742e-12 6.03968e-11 1.05298e-05 0.0336554 0.0523614
          0.0523703 0.0523808 0.0523886 0.0523945 0.00434331 0.00434952 0.00436321 0.00441869 0.00450778 0.0045085 0.00450935 0.0045106
          0.00451263 0.00451651 0
        </DataArray>
        <DataArray type="Float32" Name="Kxx" NumberOfComponents="1" format="ascii">
          2.23e-14 2.23e-14 2.23e-14 2.23e-14 2.23e-14 2.23e-14 2.21588e-14 2.21651e-14 3.18394e-15 3.25987e-15 2.85907e-15 2.85973e-15
          2.8574e-15 2.85803e-15 2.85605e-15 2.85624e-15 2.85488e-15 2.85545e-15 2.85398e-15 2.85446e-15 1.95211e-14 1.95323e-14 1.9514e-14 1.95236e-14
          1.95086e-14 1.95179e-14 1.95051e-14 1.95133e-14 1.9487e-14 1.94779e-14 1.94712e-14 1.94712e-14 1.94706e-14 1.94706e-14 1.94698e-14 1.94698e-14