<?xml version="1.0"?>
<VTKFile type="UnstructuredGrid" version="0.1" byte_order="LittleEndian">
  <UnstructuredGrid>
    <Piece NumberOfCells="200" NumberOfPoints="231">
      <CellData Scalars="Sn" Vectors="velocityW">
        <DataArray type="Float32" Name="Sn" NumberOfComponents="1" format="ascii">
          0.0367877 0.0287734 0 0 0 0 0 0 0 0 0 0
          0 0.0647832 0.0896264 0.148761 0.486796 0.620356 0.621248 0.626118 0.0491666 0.0401371 0 0
          0 0 0 0 0 0 0 0 0 0.0798296 0.113544 0.215626
          0.583357 0.631574 0.631878 0.635725 0.0524437 0.0455691 0 0 0 0 0 0
          0 0 0 0 0 0.0881988 0.131775 0.308637 0.617603 0.631663 0.631895 0.635743
          0.0522469 0.0473483 0 0 0 0 0 0 0 0 0 0
          0 0.0936176 0.147663 0.39379 0.627106 0.631677 0.631894 0.635746 0.051754 0.0478904 0 0
          0 0 0 0 0 0 0 0 0 0.0977219 0.163198 0.458523
          0.629938 0.631681 0.631894 0.635749 0.0514021 0.0481888 0 0 0 0 0 0
          0 0 0 0 0 0.10152 0.180884 0.512371 0.630948 0.631682 0.631894 0.635752
          0.0511281 0.0484347 0 0 0 0 0 0 0 0 0 0
          0 0.105677 0.204184 0.557541 0.631338 0.63169 0.631901 0.635762 0.0508967 0.0486357 0 0
          0 0 0 0 0 0 0 0 0 0.110808 0.241546 0.59377
          0.631586 0.631789 0.632 0.635852 0.0509122 0.0490363 0 0 0 0 0 0
          0 0 0 0 0 0.119042 0.317003 0.61941 0.63269 0.632833 0.633043 0.636786
          0.0604441 0.0673876 0 0 0 0 0 0 0 0 0 0
          0.0446795 0.18798 0.499829 0.639674 0.641078 0.641178 0.641345 0.644413
        </DataArray>
        <DataArray type="Float32" Name="Sw" NumberOfComponents="1" format="ascii">
          0.963212 0.971227 1 1 1 1 1 1 1 1 1 1
          1 0.935217 0.910374 0.851239 0.513204 0.379644 0.378752 0.373882 0.950833 0.959863 1 1
          1 1 1 1 1 1 1 1 1 0.92017 0.886456 0.784374
          0.416643 0.368426 0.368122 0.364275 0.947556 0.954431 1 1 1 1 1 1
          1 1 1 1 1 0.911801 0.868225 0.691363 0.382397 0.368337 0.368105 0.364257
          0.947753 0.952652 1 1 1 1 1 1 1 1 1 1
          1 0.906382 0.852337 0.60621 0.372894 0.368323 0.368106 0.364254 0.948246 0.95211 1 1
          1 1 1 1 1 1 1 1 1 0.902278 0.836802 0.541477
          0.370062 0.368319 0.368106 0.364251 0.948598 0.951811 1 1 1 1 1 1
          1 1 1 1 1 0.89848 0.819116 0.487629 0.369052 0.368318 0.368106 0.364248
          0.948872 0.951565 1 1 1 1 1 1 1 1 1 1
          1 0.894323 0.795816 0.442459 0.368662 0.36831 0.368099 0.364238 0.949103 0.951364 1 1
          1 1 1 1 1 1 1 1 1 0.889192 0.758453 0.40623
          0.368414 0.368211 0.368 0.364148 0.949088 0.950964 1 1 1 1 1 1
          1 1 1 1 1 0.880958 0.682997 0.38059 0.36731 0.367167 0.366957 0.363214
          0.939556 0.932612 1 1 1 1 1 1 1 1 1 1
          0.95532 0.81202 0.500171 0.360326 0.358922 0.358822 0.358655 0.355587
        </DataArray>
        <DataArray type="Float32" Name="pn" NumberOfComponents="1" format="ascii">
          1.30022e+07 1.29913e+07 1.29731e+07 1.28615e+07 1.26502e+07 1.24178e+07 1.21743e+07 1.19248e+07 1.1672e+07 1.14174e+07 1.1271e+07 1.12331e+07
          1.11948e+07 1.11596e+07 1.11099e+07 1.10568e+07 1.10164e+07 1.10116e+07 1.10077e+07 1.1003e+07 1.29968e+07 1.29831e+07 1.29641e+07 1.28549e+07
          1.26444e+07 1.24096e+07 1.21647e+07 1.19145e+07 1.16614e+07 1.14066e+07 1.12601e+07 1.12223e+07 1.11838e+07 1.11494e+07 1.10991e+07 1.10443e+07
          1.10153e+07 1.1011e+07 1.1007e+07 1.10025e+07 1.29933e+07 1.29761e+07 1.29556e+07 1.28524e+07 1.26436e+07 1.24037e+07 1.21564e+07 1.1905e+07
          1.16512e+07 1.1396e+07 1.12494e+07 1.12116e+07 1.11731e+07 1.11395e+07 1.10887e+07 1.10326e+07 1.10145e+07 1.10105e+07 1.10065e+07 1.10022e+07
          1.29906e+07 1.29699e+07 1.29474e+07 1.28523e+07 1.26458e+07 1.23997e+07 1.21492e+07 1.1896e+07 1.16412e+07 1.13856e+07 1.12388e+07 1.1201e+07
          1.11629e+07 1.11297e+07 1.10792e+07 1.1026e+07 1.1014e+07 1.101e+07 1.10061e+07 1.1002e+07 1.29883e+07 1.29641e+07 1.29394e+07 1.28531e+07
          1.26494e+07 1.23967e+07 1.21425e+07 1.18873e+07 1.16315e+07 1.13752e+07 1.12282e+07 1.11906e+07 1.11528e+07 1.11201e+07 1.10703e+07 1.10222e+07
          1.10135e+07 1.10095e+07 1.10057e+07 1.10018e+07 1.29861e+07 1.29583e+07 1.29313e+07 1.2854e+07 1.26533e+07 1.2394e+07 1.2136e+07 1.18788e+07
          1.16218e+07 1.13649e+07 1.12177e+07 1.11802e+07 1.11427e+07 1.11104e+07 1.10612e+07 1.10196e+07 1.1013e+07 1.10091e+07 1.10053e+07 1.10017e+07
          1.29837e+07 1.29524e+07 1.29228e+07 1.28542e+07 1.26567e+07 1.23909e+07 1.21293e+07 1.18701e+07 1.1612e+07 1.13545e+07 1.12071e+07 1.11697e+07
          1.11326e+07 1.11006e+07 1.10517e+07 1.10178e+07 1.10124e+07 1.10086e+07 1.10049e+07 1.10015e+07 1.2981e+07 1.29461e+07 1.29136e+07 1.28529e+07
          1.26586e+07 1.23867e+07 1.2122e+07 1.1861e+07 1.16021e+07 1.13441e+07 1.11965e+07 1.11592e+07 1.11224e+07 1.10905e+07 1.10416e+07 1.10165e+07
          1.10119e+07 1.1008e+07 1.10044e+07 1.10013e+07 1.29776e+07 1.29391e+07 1.29039e+07 1.28487e+07 1.26576e+07 1.23808e+07 1.21136e+07 1.18515e+07
          1.15918e+07 1.13335e+07 1.11858e+07 1.11486e+07 1.11119e+07 1.10803e+07 1.10321e+07 1.10157e+07 1.10112e+07 1.10073e+07 1.10039e+07 1.1001e+07
          1.29726e+07 1.29315e+07 1.28945e+07 1.28402e+07 1.26506e+07 1.23723e+07 1.2104e+07 1.18412e+07 1.15812e+07 1.13227e+07 1.1175e+07 1.11379e+07
          1.11018e+07 1.10696e+07 1.10266e+07 1.10152e+07 1.10105e+07 1.10066e+07 1.10032e+07 1.10005e+07
        </DataArray>
        <DataArray type="Float32" Name="pw" NumberOfComponents="1" format="ascii">
          1.30016e+07 1.29908e+07 1.29726e+07 1.2861e+07 1.26497e+07 1.24173e+07 1.21738e+07 1.19243e+07 1.16715e+07 1.14169e+07 1.12705e+07 1.12326e+07
          1.11943e+07 1.11591e+07 1.11094e+07 1.10563e+07 1.10156e+07 1.10105e+07 1.10066e+07 1.10019e+07 1.29963e+07 1.29826e+07 1.29636e+07 1.28544e+07
          1.26439e+07 1.24091e+07 1.21642e+07 1.1914e+07 1.16609e+07 1.14061e+07 1.12596e+07 1.12218e+07 1.11833e+07 1.11489e+07 1.10986e+07 1.10437e+07
          1.10143e+07 1.10099e+07 1.10059e+07 1.10014e+07 1.29928e+07 1.29756e+07 1.29551e+07 1.28519e+07 1.26431e+07 1.24032e+07 1.21559e+07 1.19045e+07
          1.16507e+07 1.13955e+07 1.12489e+07 1.12111e+07 1.11726e+07 1.1139e+07 1.10882e+07 1.1032e+07 1.10135e+07 1.10094e+07 1.10054e+07 1.10011e+07
          1.29901e+07 1.29694e+07 1.29469e+07 1.28518e+07 1.26453e+07 1.23992e+07 1.21487e+07 1.18955e+07 1.16407e+07 1.13851e+07 1.12383e+07 1.12005e+07
          1.11624e+07 1.11292e+07 1.10787e+07 1.10253e+07 1.10129e+07 1.10089e+07 1.1005e+07 1.10009e+07 1.29878e+07 1.29636e+07 1.29389e+07 1.28526e+07
          1.26489e+07 1.23962e+07 1.2142e+07 1.18868e+07 1.1631e+07 1.13747e+07 1.12277e+07 1.11901e+07 1.11523e+07 1.11196e+07 1.10697e+07 1.10214e+07
          1.10124e+07 1.10085e+07 1.10046e+07 1.10007e+07 1.29855e+07 1.29578e+07 1.29308e+07 1.28535e+07 1.26528e+07 1.23935e+07 1.21355e+07 1.18782e+07
          1.16213e+07 1.13644e+07 1.12172e+07 1.11797e+07 1.11422e+07 1.11099e+07 1.10607e+07 1.10188e+07 1.10119e+07 1.1008e+07 1.10042e+07 1.10006e+07
          1.29832e+07 1.29519e+07 1.29223e+07 1.28537e+07 1.26562e+07 1.23904e+07 1.21288e+07 1.18696e+07 1.16115e+07 1.1354e+07 1.12066e+07 1.11692e+07
          1.11321e+07 1.11001e+07 1.10511e+07 1.10169e+07 1.10113e+07 1.10075e+07 1.10038e+07 1.10004e+07 1.29805e+07 1.29455e+07 1.29131e+07 1.28524e+07
          1.26581e+07 1.23862e+07 1.21215e+07 1.18605e+07 1.16016e+07 1.13436e+07 1.1196e+07 1.11587e+07 1.11219e+07 1.109e+07 1.1041e+07 1.10156e+07
          1.10108e+07 1.10069e+07 1.10034e+07 1.10002e+07 1.2977e+07 1.29386e+07 1.29034e+07 1.28482e+07 1.26571e+07 1.23803e+07 1.21131e+07 1.1851e+07
          1.15913e+07 1.1333e+07 1.11853e+07 1.11481e+07 1.11114e+07 1.10797e+07 1.10315e+07 1.10147e+07 1.10102e+07 1.10063e+07 1.10028e+07 1.09999e+07
          1.29721e+07 1.2931e+07 1.2894e+07 1.28397e+07 1.26501e+07 1.23718e+07 1.21035e+07 1.18407e+07 1.15807e+07 1.13222e+07 1.11745e+07 1.11374e+07
          1.11013e+07 1.1069e+07 1.10258e+07 1.10141e+07 1.10094e+07 1.10055e+07 1.10021e+07 1.09994e+07
        </DataArray>
        <DataArray type="Float32" Name="pc" NumberOfComponents="1" format="ascii">
          511.588 508.923 499.687 499.687 499.687 499.687 499.687 499.687 499.687 499.687 499.687 499.687
          499.687 521.238 530.274 553.826 798.601 1054.48 1057.1 1071.8 515.788 512.715 499.687 499.687
          499.687 499.687 499.687 499.687 499.687 499.687 499.687 499.687 499.687 526.654 539.432 584.653
          960.221 1089.03 1090.01 1102.7 516.918 514.557 499.687 499.687 499.687 499.687 499.687 499.687
          499.687 499.687 499.687 499.687 499.687 529.742 546.742 637.591 1046.49 1089.32 1090.07 1102.76
          516.85 515.165 499.687 499.687 499.687 499.687 499.687 499.687 499.687 499.687 499.687 499.687
          499.687 531.77 553.359 701.242 1074.86 1089.36 1090.06 1102.77 516.679 515.351 499.687 499.687
          499.687 499.687 499.687 499.687 499.687 499.687 499.687 499.687 499.687 533.321 560.069 764.826
          1083.78 1089.37 1090.06 1102.78 516.558 515.453 499.687 499.687 499.687 499.687 499.687 499.687
          499.687 499.687 499.687 499.687 499.687 534.769 568.012 833.349 1087.01 1089.38 1090.06 1102.79
          516.464 515.537 499.687 499.687 499.687 499.687 499.687 499.687 499.687 499.687 499.687 499.687
          499.687 536.368 579.012 907.661 1088.27 1089.4 1090.09 1102.82 516.384 515.606 499.687 499.687
          499.687 499.687 499.687 499.687 499.687 499.687 499.687 499.687 499.687 538.361 598.067 984.165
          1089.07 1089.72 1090.41 1103.13 516.389 515.744 499.687 499.687 499.687 499.687 499.687 499.687
          499.687 499.687 499.687 499.687 499.687 541.606 643.089 1051.71 1092.65 1093.12 1093.81 1106.28
          519.706 522.163 499.687 499.687 499.687 499.687 499.687 499.687 499.687 499.687 499.687 499.687
          514.254 571.295 815.754 1116.2 1121.12 1121.47 1122.06 1133.07
        </DataArray>
        <DataArray type="Float32" Name="rhoW" NumberOfComponents="1" format="ascii">
          935.631 948.289 1125.66 1125.23 1124.68 1123.99 1123.18 1122.26 1121.25 1120.2 1118.6 1117.44
          1116.66 1116.6 1116.58 1116.56 1116.55 1116.54 1116.54 1116.54 929.842 936.225 1096.56 1125.9
          1125.36 1124.66 1123.8 1122.81 1121.72 1120.58 1118.82 1117.51 1116.62 1116.6 1116.58 1116.56
          1116.54 1116.54 1116.54 1116.54 928.983 932.508 1048.57 1126.2 1125.7 1125.02 1124.16 1123.16
          1122.03 1120.85 1119 1117.59 1116.62 1116.6 1116.58 1116.55 1116.54 1116.54 1116.54 1116.54
          928.732 930.849 1019.09 1126.38 1125.92 1125.26 1124.42 1123.41 1122.27 1121.06 1119.13 1117.66
          1116.62 1116.59 1116.57 1116.55 1116.54 1116.54 1116.54 1116.54 928.623 929.957 999.096 1126.5
          1126.08 1125.45 1124.63 1123.62 1122.46 1121.23 1119.25 1117.72 1116.63 1116.59 1116.57 1116.55
          1116.54 1116.54 1116.54 1116.54 928.567 929.421 983.51 1126.6 1126.22 1125.62 1124.81 1123.81
          1122.64 1121.39 1119.36 1117.77 1116.64 1116.58 1116.56 1116.55 1116.54 1116.54 1116.54 1116.54
          928.537 929.082 970.426 1126.68 1126.34 1125.77 1124.99 1123.99 1122.83 1121.55 1119.47 1117.83
          1116.65 1116.58 1116.56 1116.55 1116.54 1116.54 1116.54 1116.54 928.52 928.867 959.476 1126.75
          1126.44 1125.91 1125.16 1124.18 1123.01 1121.72 1119.59 1117.88 1116.66 1116.58 1116.56 1116.55
          1116.54 1116.54 1116.54 1116.54 928.51 928.737 950.489 1126.8 1126.52 1126.03 1125.3 1124.34
          1123.18 1121.88 1119.7 1117.93 1116.64 1116.57 1116.55 1116.54 1116.54 1116.54 1116.54 1116.54
          928.504 928.678 951.637 1126.76 1126.49 1126.02 1125.32 1124.37 1123.22 1121.92 1119.69 1117.8
          1116.58 1116.57 1116.55 1116.54 1116.54 1116.54 1116.54 1116.54
        </DataArray>
        <DataArray type="Float32" Name="rhoN" NumberOfComponents="1" format="ascii">
          107.089 107.005 106.859 105.933 104.179 102.25 100.229 98.1594 96.064 93.9543 92.7525 92.4507
          92.1406 91.8482 91.434 90.9918 90.6547 90.615 90.5827 90.5431 107.042 106.931 106.778 105.871
          104.123 102.173 100.142 98.0679 95.9704 93.86 92.6595 92.3595 92.0493 91.7632 91.344 90.8878
          90.6458 90.61 90.5771 90.5391 107.012 106.871 106.704 105.847 104.112 102.121 100.069 97.9844
          95.8816 93.7685 92.5679 92.2693 91.9607 91.6804 91.2577 90.7903 90.6397 90.6058 90.5727 90.5366
          106.99 106.819 106.634 105.844 104.129 102.084 100.006 97.9065 95.7961 93.6791 92.4777 92.1806
          91.8749 91.5992 91.1785 90.7353 90.6351 90.6019 90.5692 90.5349 106.97 106.77 106.567 105.85
          104.157 102.057 99.9476 97.832 95.7126 93.5908 92.3883 92.0928 91.7907 91.519 91.1038 90.7033
          90.6309 90.5981 90.5659 90.5336 106.952 106.721 106.498 105.856 104.187 102.033 99.8917 97.7586
          95.6298 93.5029 92.2992 92.0054 91.7069 91.4384 91.0286 90.6818 90.6266 90.5941 90.5628 90.5323
          106.932 106.672 106.427 105.857 104.214 102.006 99.8339 97.6842 95.5465 93.4147 92.21 91.9178
          91.6226 91.3565 90.9492 90.6667 90.6221 90.5898 90.5594 90.531 106.91 106.619 106.35 105.846
          104.23 101.969 99.771 97.607 95.4615 93.3257 92.1202 91.8297 91.5371 91.2727 90.8649 90.6563
          90.6173 90.5851 90.5556 90.5292 106.881 106.561 106.269 105.81 104.22 101.918 99.6999 97.5254
          95.3743 93.2356 92.0297 91.7408 91.4504 91.1871 90.7859 90.6495 90.6122 90.5797 90.5509 90.5268
          106.84 106.497 106.191 105.739 104.163 101.848 99.6195 97.4395 95.2854 93.1452 91.9396 91.6529
          91.3665 91.0981 90.7399 90.6453 90.6063 90.5734 90.545 90.5227
        </DataArray>
        <DataArray type="Float32" Name="mobW" NumberOfComponents="1" format="ascii">
          4258.3 3947.06 2954.98 2954.69 2954.34 2953.93 2953.45 2952.95 2952.44 2951.96 2951.31 2950.92
          2950.71 2115.43 1843.68 1302.26 69.6703 7.54034 7.39172 6.6185 4287.8 4156.76 2960.07 2955.21
          2954.86 2954.4 2953.87 2953.29 2952.7 2952.15 2951.39 2950.94 2950.7 1947.5 1607.64 844.308
          15.9483 5.82609 5.78408 5.27256 4272.95 4215.04 3099.85 2955.45 2955.12 2954.67 2954.13 2953.51
          2952.88 2952.29 2951.46 2950.97 2950.7 1858.54 1443.54 422.032 8.01319 5.81372 5.7818 5.27031
          4297.75 4266.27 3285.45 2955.6 2955.3 2954.86 2954.31 2953.68 2953.02 2952.4 2951.52 2950.99
          2950.7 1802.59 1311.07 197.124 6.46927 5.81181 5.78186 5.26992 4318.82 4308.45 3479.45 2955.71
          2955.43 2955.01 2954.47 2953.82 2953.15 2952.49 2951.57 2951.01 2950.71 1761.06 1190.57 98.4423
          6.05569 5.8113 5.78192 5.26954 4332.26 4337.32 3691.37 2955.79 2955.54 2955.15 2954.61 2953.96
          2953.26 2952.58 2951.62 2951.03 2950.71 1723.27 1063.72 49.553 5.91313 5.81108 5.78192 5.2691
          4341.6 4356.03 3930.76 2955.86 2955.64 2955.27 2954.74 2954.09 2953.38 2952.68 2951.67 2951.05
          2950.71 1682.61 912.403 25.0204 5.85876 5.81002 5.78095 5.26788 4348.61 4367.97 4193.08 2955.91
          2955.72 2955.38 2954.87 2954.22 2953.5 2952.78 2951.72 2951.07 2950.71 1633.42 704.183 13.0961
          5.82439 5.79636 5.76729 5.25628 4349.1 4369.25 4467.69 2955.96 2955.79 2955.48 2954.99 2954.35
          2953.61 2952.87 2951.77 2951.08 2950.71 1556.75 394.016 7.70035 5.6731 5.6538 5.6255 5.13764
          4132.31 3961.93 4428.75 2955.93 2955.77 2955.47 2955 2954.37 2953.64 2952.9 2951.77 2951.04
          2356.47 1015.78 58.7773 4.78358 4.6182 4.6066 4.58728 4.24261
        </DataArray>
        <DataArray type="Float32" Name="mobN" NumberOfComponents="1" format="ascii">
          7.47737 3.51284 0 0 0 0 0 0 0 0 0 0
          0 41.5731 109.722 488.569 13315.4 24280.2 24363 24817.2 18.0855 9.75845 0 0
          0 0 0 0 0 0 0 0 0 77.711 221.121 1428.22
          20946.7 25329.9 25358.6 25722.6 21.9872 14.3615 0 0 0 0 0 0
          0 0 0 0 0 104.604 342.672 3923.17 24025.3 25338.3 25360.1 25724.3
          21.7386 16.1325 0 0 0 0 0 0 0 0 0 0
          0 124.892 478.119 7626.96 24909.8 25339.6 25360.1 25724.5 21.1241 16.6994 0 0
          0 0 0 0 0 0 0 0 0 141.854 639.796 11406
          25175.8 25340 25360.1 25724.8 20.6924 17.017 0 0 0 0 0 0
          0 0 0 0 0 158.828 861.975 15173.9 25270.9 25340.1 25360.1 25725.1
          20.3604 17.2816 0 0 0 0 0 0 0 0 0 0
          0 178.863 1221.78 18747.4 25307.6 25340.8 25360.7 25726.1 20.0828 17.5001 0 0
          0 0 0 0 0 0 0 0 0 205.762 1973.01 21864.1
          25331 25350.2 25370.1 25734.6 20.1012 17.9406 0 0 0 0 0 0
          0 0 0 0 0 254.192 4224.44 24192.5 25435.3 25448.7 25468.6 25823.3
          33.7479 46.7969 0 0 0 0 0 0 0 0 0 0
          13.5264 963.223 14247.2 26098.2 26232.3 26241.8 26257.8 26551.7
        </DataArray>
        <DataArray type="Float32" Name="porosity" NumberOfComponents="1" format="ascii">
          0.11 0.11 0.102805 0.057538 0.0575177 0.057506 0.0574971 0.0574872 0.0574819 0.0574775 0.105375 0.105366
          0.10536 0.105299 0.105298 0.105297 0.105296 0.105294 0.105291 0.105285 0.11 0.11 0.109357 0.05828
          0.0575217 0.0575099 0.057501 0.0574914 0.0574857 0.0574807 0.10539 0.105379 0.105371 0.105298 0.105298 0.105297
          0.105296 0.105294 0.105291 0.105285 0.11 0.11 0.109816 0.0609397 0.057525 0.0575118 0.0575028 0.0574943
          0.0574876 0.0574819 0.105397 0.105388 0.105379 0.105298 0.105298 0.105297 0.105296 0.105294 0.105291 0.105285
          0.11 0.11 0.109915 0.0639842 0.0575272 0.0575129 0.057504 0.0574962 0.0574886 0.0574827 0.105401 0.105393
          0.105384 0.105299 0.105298 0.105297 0.105296 0.105294 0.105291 0.105285 0.11 0.11 0.10995 0.0669919
          0.0575288 0.0575139 0.0575057 0.0574975 0.0574894 0.0574833 0.105404 0.105396 0.105387 0.105299 0.105298 0.105297
          0.105296 0.105294 0.105291 0.105285 0.11 0.11 0.109969 0.070128 0.0575303 0.0575149 0.0575081 0.0574988
          0.0574902 0.0574841 0.105406 0.105399 0.10539 0.105299 0.105298 0.105297 0.105296 0.105294 0.105291 0.105285
          0.11 0.11 0.109981 0.0738525 0.0575317 0.057516 0.0575103 0.0575 0.0574911 0.0574857 0.105409 0.105401
          0.105394 0.105299 0.105298 0.105297 0.105296 0.105294 0.105291 0.105285 0.11 0.11 0.109988 0.078921
          0.0575332 0.0575173 0.0575125 0.0575011 0.0574919 0.0574873 0.105412 0.105405 0.105397 0.1053 0.105298 0.105297
          0.105296 0.105294 0.105291 0.105285 0.11 0.11 0.109993 0.0867877 0.0575346 0.0575187 0.0575146 0.0575022
          0.0574935 0.0574887 0.105416 0.10541 0.105403 0.105299 0.105298 0.105297 0.105296 0.105294 0.105291 0.105285
          0.11 0.11 0.109993 0.0855648 0.057538 0.057522 0.0575177 0.0575055 0.0574959 0.0574914 0.105439 0.105438
          0.105388 0.105298 0.105298 0.105297 0.105296 0.105294 0.105291 0.105285
        </DataArray>
        <DataArray type="Float32" Name="permeabilityFactor" NumberOfComponents="1" format="ascii">
          1 1 0.803281 0.127625 0.127485 0.127404 0.127343 0.127275 0.127238 0.127207 0.870031 0.869798
          0.869618 0.868004 0.867965 0.867943 0.867912 0.867867 0.867789 0.867618 1 1 0.981142 0.132837
          0.127513 0.127431 0.127369 0.127303 0.127264 0.12723 0.870426 0.870142 0.869924 0.867983 0.867965 0.867943
          0.867912 0.867867 0.867789 0.867618 1 1 0.994575 0.152727 0.127536 0.127445 0.127382 0.127324
          0.127277 0.127238 0.870614 0.870366 0.870124 0.867984 0.867964 0.867942 0.867912 0.867867 0.867789 0.867619
          1 1 0.9975 0.177932 0.127551 0.127452 0.127391 0.127336 0.127284 0.127243 0.87073 0.870495
          0.870255 0.86799 0.867964 0.867942 0.867912 0.867867 0.86779 0.867619 1 1 0.99854 0.205541
          0.127562 0.127459 0.127403 0.127346 0.12729 0.127247 0.870802 0.870582 0.87035 0.867997 0.867964 0.867942
          0.867913 0.867867 0.86779 0.86762 1 1 0.999084 0.237373 0.127572 0.127466 0.127419 0.127354
          0.127295 0.127253 0.870864 0.870656 0.870434 0.868003 0.867964 0.867942 0.867913 0.867867 0.86779 0.86762
          1 1 0.999429 0.279472 0.127582 0.127474 0.127434 0.127363 0.127301 0.127264 0.870928 0.870735
          0.870521 0.868008 0.867963 0.867942 0.867913 0.867867 0.86779 0.867621 1 1 0.999632 0.344815
          0.127592 0.127483 0.12745 0.12737 0.127307 0.127275 0.871003 0.870828 0.870624 0.868012 0.867963 0.867942
          0.867913 0.867867 0.867791 0.867621 1 1 0.999787 0.46648 0.127602 0.127492 0.127464 0.127378
          0.127318 0.127285 0.871122 0.870971 0.870766 0.868005 0.867963 0.867942 0.867913 0.867867 0.867791 0.867622
          1 1 0.999795 0.445842 0.127626 0.127515 0.127485 0.127401 0.127335 0.127304 0.871741 0.8717
          0.870368 0.867979 0.867962 0.867942 0.867913 0.867867 0.867791 0.867622
        </DataArray>
        <DataArray type="Float32" Name="temperature" NumberOfComponents="1" format="ascii">
          418.15 418.15 418.15 418.15 418.15 418.15 418.15 418.15 418.15 418.15 418.15 418.15
          418.15 418.15 418.15 418.15 418.15 418.15 418.15 418.15 418.15 418.15 418.15 418.15
          418.15 418.15 418.15 418.15 418.15 418.15 418.15 418.15 418.15 418.15 418.15 418.15
          418.15 418.15 418.15 418.15 418.15 418.15 418.15 418.15 418.15 418.15 418.15 418.15
          418.15 418.15 418.15 418.15 418.15 418.15 418.15 418.15 418.15 418.15 418.15 418.15
          418.15 418.15 418.15 418.15 418.15 418.15 418.15 418.15 418.15 418.15 418.15 418.15
          418.15 418.15 418.15 418.15 418.15 418.15 418.15 418.15 418.15 418.15 418.15 418.15
          418.15 418.15 418.15 418.15 418.15 418.15 418.15 418.15 418.15 418.15 418.15 418.15
          418.15 418.15 418.15 418.15 418.15 418.15 418.15 418.15 418.15 418.15 418.15 418.15
          418.15 418.15 418.15 418.15 418.15 418.15 418.15 418.15 418.15 418.15 418.15 418.15
          418.15 418.15 418.15 418.15 418.15 418.15 418.15 418.15 418.15 418.15 418.15 418.15
          418.15 418.15 418.15 418.15 418.15 418.15 418.15 418.15 418.15 418.15 418.15 418.15
          418.15 418.15 418.15 418.15 418.15 418.15 418.15 418.15 418.15 418.15 418.15 418.15
          418.15 418.15 418.15 418.15 418.15 418.15 418.15 418.15 418.15 418.15 418.15 418.15
          418.15 418.15 418.15 418.15 418.15 418.15 418.15 418.15 418.15 418.15 418.15 418.15
          418.15 418.15 418.15 418.15 418.15 418.15 418.15 418.15 418.15 418.15 418.15 418.15
          418.15 418.15 418.15 418.15 418.15 418.15 418.15 418.15
        </DataArray>
        <DataArray type="Float32" Name="phase presence" NumberOfComponents="1" format="ascii">
          3 3 1 1 1 1 1 1 1 1 1 1
          1 3 3 3 3 3 3 3 3 3 1 1
          1 1 1 1 1 1 1 1 1 3 3 3
          3 3 3 3 3 3 1 1 1 1 1 1
          1 1 1 1 1 3 3 3 3 3 3 3
          3 3 1 1 1 1 1 1 1 1 1 1
          1 3 3 3 3 3 3 3 3 3 1 1
          1 1 1 1 1 1 1 1 1 3 3 3
          3 3 3 3 3 3 1 1 1 1 1 1
          1 1 1 1 1 3 3 3 3 3 3 3
          3 3 1 1 1 1 1 1 1 1 1 1
          1 3 3 3 3 3 3 3 3 3 1 1
          1 1 1 1 1 1 1 1 1 3 3 3
          3 3 3 3 3 3 1 1 1 1 1 1
          1 1 1 1 1 3 3 3 3 3 3 3
          3 3 1 1 1 1 1 1 1 1 1 1
          3 3 3 3 3 3 3 3
        </DataArray>
        <DataArray type="Float32" Name="precipitateVolumeFraction_NaCl" NumberOfComponents="1" format="ascii">
          8.75062e-12 8.77924e-11 0.00719525 0.0524621 0.0524823 0.052494 0.0525029 0.0525128 0.0525181 0.0525225 0.00462484 0.00463357
          0.00464029 0.0047008 0.00470223 0.00470306 0.00470422 0.00470593 0.00470884 0.00471527 8.75062e-12 8.72269e-11 0.000643194 0.05172
          0.0524783 0.0524901 0.052499 0.0525086 0.0525143 0.0525193 0.00461005 0.0046207 0.00462884 0.00470158 0.00470226 0.00470309
          0.00470422 0.00470593 0.00470884 0.00471526 8.75062e-12 8.63407e-11 0.000184121 0.0490603 0.052475 0.0524882 0.0524972 0.0525057
          0.0525124 0.0525181 0.00460303 0.00461232 0.00462135 0.00470155 0.00470227 0.00470311 0.00470422 0.00470593 0.00470883 0.00471524
          8.75062e-12 8.57284e-11 8.47591e-05 0.0460158 0.0524728 0.0524871 0.052496 0.0525038 0.0525114 0.0525173 0.00459867 0.00460747
          0.00461645 0.00470132 0.00470228 0.00470312 0.00470422 0.00470592 0.00470882 0.00471522 8.75061e-12 8.52162e-11 4.94988e-05 0.0430081
          0.0524712 0.0524861 0.0524943 0.0525025 0.0525106 0.0525167 0.00459598 0.00460423 0.00461289 0.00470106 0.00470229 0.00470311
          0.00470421 0.00470592 0.00470881 0.0047152 8.75061e-12 8.47259e-11 3.10537e-05 0.039872 0.0524697 0.0524851 0.0524919 0.0525012
          0.0525098 0.0525159 0.00459368 0.00460144 0.00460976 0.00470083 0.0047023 0.00470311 0.00470421 0.00470591 0.0047088 0.00471518
          8.75061e-12 8.4201e-11 1.93305e-05 0.0361475 0.0524683 0.052484 0.0524897 0.0525 0.0525089 0.0525143 0.0045913 0.00459851
          0.00460649 0.00470063 0.0047023 0.0047031 0.00470421 0.00470591 0.00470879 0.00471516 8.75061e-12 8.35553e-11 1.24598e-05 0.031079
          0.0524668 0.0524826 0.0524875 0.0524989 0.0525081 0.0525127 0.00458848 0.00459502 0.00460266 0.00470049 0.00470231 0.0047031
          0.00470421 0.00470591 0.00470879 0.00471514 8.75061e-12 8.26098e-11 7.20888e-06 0.0232123 0.0524654 0.0524813 0.0524854 0.0524978
          0.0525065 0.0525113 0.00458402 0.00458966 0.00459733 0.00470076 0.00470232 0.00470309 0.00470421 0.00470591 0.00470878 0.00471512
          8.75061e-12 8.20983e-11 6.96068e-06 0.0244352 0.052462 0.052478 0.0524823 0.0524945 0.0525041 0.0525086 0.00456087 0.0045624
          0.00461223 0.00470174 0.00470235 0.0047031 0.00470421 0.00470591 0.00470878 0.00471512
        </DataArray>
        <DataArray type="Float32" Name="Kxx" NumberOfComponents="1" format="ascii">
          2.23e-14 2.23e-14 1.79132e-14 2.84605e-15 2.84292e-15 2.84111e-15 2.83975e-15 2.83822e-15 2.83741e-15 2.83672e-15 1.94017e-14 1.93965e-14
          1.93925e-14 1.93565e-14 1.93556e-14 1.93551e-14 1.93544e-14 1.93534e-14 1.93517e-14 1.93479e-14 2.23e-14 2.23e-14 2.18795e-14 2.96226e-15
          2.84355e-15 2.84171e-15 2.84034e-15 2.83886e-15 2.83799e-15 2.83722e-15 1.94105e-14 1.94042e-14 1.93993e-14 1.9356e-14 1.93556e-14 1.93551e-14
          1.93544e-14 1.93534e-14 1.93517e-14 1.93479e-14 2.23e-14 2.23e-14 2.2179e-14 3.40581e-15 2.84405e-15 2.84201e-15 2.84062e-15 2.83931e-15
          2.83829e-15 2.83741e-15 1.94147e-14 1.94092e-14 1.94038e-14 1.9356e-14 1.93556e-14 1.93551e-14 1.93544e-14 1.93534e-14 1.93517e-14 1.93479e-14
          2.23e-14 2.23e-14 2.22443e-14 3.96788e-15 2.84439e-15 2.84218e-15 2.84081e-15 2.8396e-15 2.83844e-15 2.83752e-15 1.94173e-14 1.9412e-14
          1.94067e-14 1.93562e-14 1.93556e-14 1.93551e-14 1.93544e-14 1.93534e-14 1.93517e-14 1.93479e-14 2.23e-14 2.23e-14 2.22674e-14 4.58356e-15
          2.84464e-15 2.84233e-15 2.84108e-15 2.83981e-15 2.83856e-15 2.83761e-15 1.94189e-14 1.9414e-14 1.94088e-14 1.93563e-14 1.93556e-14 1.93551e-14
          1.93545e-14 1.93534e-14 1.93517e-14 1.93479e-14 2.23e-14 2.23e-14 2.22796e-14 5.29341e-15 2.84486e-15 2.84249e-15 2.84143e-15 2.84e-15
          2.83869e-15 2.83774e-15 1.94203e-14 1.94156e-14 1.94107e-14 1.93565e-14 1.93556e-14 1.93551e-14 1.93545e-14 1.93534e-14 1.93517e-14 1.93479e-14
          2.23e-14 2.23e-14 2.22873e-14 6.23222e-15 2.84508e-15 2.84266e-15 2.84178e-15 2.84019e-15 2.83882e-15 2.83799e-15 1.94217e-14 1.94174e-14
          1.94126e-14 1.93566e-14 1.93556e-14 1.93551e-14 1.93545e-14 1.93534e-14 1.93517e-14 1.93479e-14 2.23e-14 2.23e-14 2.22918e-14 7.68937e-15
          2.84531e-15 2.84287e-15 2.84213e-15 2.84036e-15 2.83895e-15 2.83823e-15 1.94234e-14 1.94195e-14 1.94149e-14 1.93567e-14 1.93556e-14 1.93551e-14
          1.93545e-14 1.93534e-14 1.93517e-14 1.9348e-14 2.23e-14 2.23e-14 2.22953e-14 1.04025e-14 2.84553e-15 2.84308e-15 2.84245e-15 2.84053e-15
          2.83919e-15 2.83845e-15 1.9426e-14 1.94227e-14 1.94181e-14 1.93565e-14 1.93556e-14 1.93551e-14 1.93545e-14 1.93534e-14 1.93517e-14 1.9348e-14
          2.23e-14 2.23e-14 2.22954e-14 9.94228e-15 2.84606e-15 2.84359e-15 2.84292e-15 2.84104e-15 2.83957e-15 2.83887e-15 1.94398e-14 1.94389e-14
          1.94092e-14 1.93559e-14 1.93556e-14 1.93551e-14 1.93545e-14 1.93534e-14 1.93517e-14 1.9348e-14
        </DataArray>
        <DataArray type="Float32" Name="Kyy" NumberOfComponents="1" format="ascii">
          2.23e-14 2.23e-14 1.79132e-14 2.84605e-15 2.84292e-15 2.84111e-15 2.83975e-15 2.83822e-15 2.83741e-15 2.83672e-15 1.94017e-14 1.93965e-14
          1.93925e-14 1.93565e-14 1.93556e-14 1.93551e-14 1.93544e-14 1.93534e-14 1.93517e-14 1.93479e-14 2.23e-14 2.23e-14 2.18795e-14 2.96226e-15
          2.84355e-15 2.84171e-15 2.84034e-15 2.83886e-15 2.83799e-15 2.83722e-15 1.94105e-14 1.94042e-14 1.93993e-14 1.9356e-14 1.93556e-14 1.93551e-14
          1.93544e-14 1.93534e-14 1.93517e-14 1.93479e-14 2.23e-14 2.23e-14 2.2179e-14 3.40581e-15 2.84405e-15 2.84201e-15 2.84062e-15 2.83931e-15
          2.83829e-15 2.83741e-15 1.94147e-14 1.94092e-14 1.94038e-14 1.9356e-14 1.93556e-14 1.93551e-14 1.93544e-14 1.93534e-14 1.93517e-14 1.93479e-14
          2.23e-14 2.23e-14 2.22443e-14 3.96788e-15 2.84439e-15 2.84218e-15 2.84081e-15 2.8396e-15 2.83844e-15 2.83752e-15 1.94173e-14 1.9412e-14
          1.94067e-14 1.93562e-14 1.93556e-14 1.93551e-14 1.93544e-14 1.93534e-14 1.93517e-14 1.93479e-14 2.23e-14 2.23e-14 2.22674e-14 4.58356e-15
          2.84464e-15 2.84233e-15 2.84108e-15 2.83981e-15 2.83856e-15 2.83761e-15 1.94189e-14 1.9414e-14 1.94088e-14 1.93563e-14 1.93556e-14 1.93551e-14
          1.93545e-14 1.93534e-14 1.93517e-14 1.93479e-14 2.23e-14 2.23e-14 2.22796e-14 5.29341e-15 2.84486e-15 2.84249e-15 2.84143e-15 2.84e-15
          2.83869e-15 2.83774e-15 1.94203e-14 1.94156e-14 1.94107e-14 1.93565e-14 1.93556e-14 1.93551e-14 1.93545e-14 1.93534e-14 1.93517e-14 1.93479e-14
          2.23e-14 2.23e-14 2.22873e-14 6.23222e-15 2.84508e-15 2.84266e-15 2.84178e-15 2.84019e-15 2.83882e-15 2.83799e-15 1.94217e-14 1.94174e-14