<?xml version="1.0"?>
<VTKFile type="UnstructuredGrid" version="0.1" byte_order="LittleEndian">
  <UnstructuredGrid>
    <Piece NumberOfCells="200" NumberOfPoints="231">
      <CellData Scalars="Sg" Vectors="velocityW">
        <DataArray type="Float32" Name="Sg" NumberOfComponents="1" format="ascii">
          0.0382404 0.0335022 0 0 0 0 0 0 0 0 0 0
          0 0.0403411 0.0719252 0.0987404 0.180518 0.554442 0.627773 0.632185 0.050986 0.04508 0.00419928 0
          0 0 0 0 0 0 0 0 0 0.0527634 0.0883385 0.125779
          0.279617 0.617319 0.637052 0.640498 0.0539991 0.0505695 0.00865615 0 0 0 0 0
          0 0 0 0 0 0.0566254 0.097877 0.14726 0.386582 0.631791 0.637086 0.640511
          0.0534581 0.0521515 0.011266 0 0 0 0 0 0 0 0 0
          0 0.057019 0.104142 0.167225 0.461178 0.635218 0.63709 0.640513 0.0526973 0.0523096 0.0130345 0
          0 0 0 0 0 0 0 0 0 0.0561456 0.108847 0.18699
          0.515279 0.636262 0.63709 0.640515 0.0521511 0.0521681 0.0147686 0 0 0 0 0
          0 0 0 0 0 0.0550589 0.11314 0.209356 0.557506 0.636644 0.637091 0.640517
          0.0517264 0.0519823 0.0163213 0 0 0 0 0 0 0 0 0
          0 0.0543756 0.117859 0.239621 0.590837 0.636802 0.637095 0.640523 0.0513686 0.0517741 0.0179683 0
          0 0 0 0 0 0 0 0 0 0.0546099 0.123845 0.286807
          0.614925 0.636935 0.637165 0.640588 0.0512722 0.0518166 0.0196858 0 0 0 0 0
          0 0 0 0 0 0.0576365 0.133287 0.363043 0.629857 0.637784 0.637987 0.641332
          0.0606157 0.0699204 0.0510376 0 0 0 0 0 0 0 0 0
          0 0.0997739 0.208287 0.526754 0.644193 0.645144 0.645301 0.648091
        </DataArray>
        <DataArray type="Float32" Name="Sl" NumberOfComponents="1" format="ascii">
          0.96176 0.966498 1 1 1 1 1 1 1 1 1 1
          1 0.959659 0.928075 0.90126 0.819482 0.445558 0.372227 0.367815 0.949014 0.95492 0.995801 1
          1 1 1 1 1 1 1 1 1 0.947237 0.911662 0.874221
          0.720383 0.382681 0.362948 0.359502 0.946001 0.949431 0.991344 1 1 1 1 1
          1 1 1 1 1 0.943375 0.902123 0.85274 0.613418 0.368209 0.362914 0.359489
          0.946542 0.947848 0.988734 1 1 1 1 1 1 1 1 1
          1 0.942981 0.895858 0.832775 0.538822 0.364782 0.36291 0.359487 0.947303 0.94769 0.986965 1
          1 1 1 1 1 1 1 1 1 0.943854 0.891153 0.81301
          0.484721 0.363738 0.36291 0.359485 0.947849 0.947832 0.985231 1 1 1 1 1
          1 1 1 1 1 0.944941 0.88686 0.790644 0.442494 0.363356 0.362909 0.359483
          0.948274 0.948018 0.983679 1 1 1 1 1 1 1 1 1
          1 0.945624 0.882141 0.760379 0.409163 0.363198 0.362905 0.359477 0.948631 0.948226 0.982032 1
          1 1 1 1 1 1 1 1 1 0.94539 0.876155 0.713193
          0.385075 0.363065 0.362835 0.359412 0.948728 0.948183 0.980314 1 1 1 1 1
          1 1 1 1 1 0.942364 0.866713 0.636957 0.370143 0.362216 0.362013 0.358668
          0.939384 0.93008 0.948962 1 1 1 1 1 1 1 1 1
          1 0.900226 0.791713 0.473246 0.355807 0.354856 0.354699 0.351909
        </DataArray>
        <DataArray type="Float32" Name="pg" NumberOfComponents="1" format="ascii">
          1.30011e+07 1.29882e+07 1.29691e+07 1.29467e+07 1.28103e+07 1.25651e+07 1.23065e+07 1.20399e+07 1.17689e+07 1.14954e+07 1.13381e+07 1.12975e+07
          1.12566e+07 1.12149e+07 1.1165e+07 1.11069e+07 1.10463e+07 1.10126e+07 1.10079e+07 1.10031e+07 1.29959e+07 1.29803e+07 1.29599e+07 1.2938e+07
          1.28031e+07 1.25577e+07 1.22978e+07 1.20303e+07 1.17587e+07 1.1485e+07 1.13275e+07 1.1287e+07 1.12461e+07 1.12049e+07 1.11548e+07 1.10962e+07
          1.10336e+07 1.10119e+07 1.10074e+07 1.10026e+07 1.29925e+07 1.29736e+07 1.29514e+07 1.29296e+07 1.27979e+07 1.25539e+07 1.22909e+07 1.20217e+07
          1.17491e+07 1.14747e+07 1.1317e+07 1.12765e+07 1.12358e+07 1.11948e+07 1.11449e+07 1.10861e+07 1.10253e+07 1.10115e+07 1.1007e+07 1.10023e+07
          1.29899e+07 1.29676e+07 1.29434e+07 1.29211e+07 1.27949e+07 1.25529e+07 1.22856e+07 1.20139e+07 1.17399e+07 1.14647e+07 1.13066e+07 1.12661e+07
          1.12255e+07 1.11847e+07 1.11353e+07 1.10766e+07 1.10212e+07 1.10112e+07 1.10067e+07 1.10022e+07 1.29877e+07 1.29621e+07 1.29356e+07 1.29125e+07
          1.27933e+07 1.25537e+07 1.22812e+07 1.20067e+07 1.1731e+07 1.14547e+07 1.12963e+07 1.12558e+07 1.12152e+07 1.11745e+07 1.11257e+07 1.10673e+07
          1.10186e+07 1.10109e+07 1.10064e+07 1.1002e+07 1.29856e+07 1.29567e+07 1.29279e+07 1.29035e+07 1.27924e+07 1.25555e+07 1.22774e+07 1.19996e+07
          1.17222e+07 1.14448e+07 1.12859e+07 1.12454e+07 1.12049e+07 1.11643e+07 1.1116e+07 1.10577e+07 1.10168e+07 1.10105e+07 1.10061e+07 1.10019e+07
          1.29833e+07 1.29511e+07 1.292e+07 1.28942e+07 1.27915e+07 1.25573e+07 1.22734e+07 1.19925e+07 1.17133e+07 1.14349e+07 1.12756e+07 1.12351e+07
          1.11947e+07 1.11541e+07 1.11062e+07 1.10476e+07 1.10155e+07 1.10101e+07 1.10058e+07 1.10018e+07 1.29808e+07 1.29452e+07 1.29119e+07 1.28842e+07
          1.27898e+07 1.25583e+07 1.22686e+07 1.19848e+07 1.17041e+07 1.14249e+07 1.12652e+07 1.12247e+07 1.11844e+07 1.11441e+07 1.10963e+07 1.10378e+07
          1.10146e+07 1.10097e+07 1.10054e+07 1.10016e+07 1.29774e+07 1.29387e+07 1.29036e+07 1.28739e+07 1.27856e+07 1.25566e+07 1.22622e+07 1.19764e+07
          1.16945e+07 1.14147e+07 1.12547e+07 1.12143e+07 1.11742e+07 1.11344e+07 1.10861e+07 1.103e+07 1.10141e+07 1.10092e+07 1.10049e+07 1.10013e+07
          1.29725e+07 1.29314e+07 1.28951e+07 1.2864e+07 1.27768e+07 1.25492e+07 1.22537e+07 1.19668e+07 1.16844e+07 1.14042e+07 1.12441e+07 1.12038e+07
          1.11639e+07 1.11253e+07 1.10754e+07 1.10256e+07 1.10137e+07 1.10085e+07 1.10042e+07 1.10008e+07
        </DataArray>
        <DataArray type="Float32" Name="pl" NumberOfComponents="1" format="ascii">
          1.30006e+07 1.29876e+07 1.29686e+07 1.29462e+07 1.28098e+07 1.25646e+07 1.2306e+07 1.20394e+07 1.17684e+07 1.14949e+07 1.13376e+07 1.1297e+07
          1.12561e+07 1.12144e+07 1.11645e+07 1.11064e+07 1.10457e+07 1.10117e+07 1.10069e+07 1.1002e+07 1.29954e+07 1.29798e+07 1.29594e+07 1.29375e+07
          1.28026e+07 1.25572e+07 1.22973e+07 1.20298e+07 1.17582e+07 1.14845e+07 1.1327e+07 1.12865e+07 1.12456e+07 1.12043e+07 1.11543e+07 1.10957e+07
          1.10329e+07 1.10108e+07 1.10063e+07 1.10015e+07 1.29919e+07 1.29731e+07 1.29509e+07 1.29291e+07 1.27974e+07 1.25534e+07 1.22904e+07 1.20212e+07
          1.17486e+07 1.14742e+07 1.13165e+07 1.1276e+07 1.12353e+07 1.11943e+07 1.11444e+07 1.10856e+07 1.10246e+07 1.10104e+07 1.10059e+07 1.10012e+07
          1.29894e+07 1.29671e+07 1.29428e+07 1.29206e+07 1.27944e+07 1.25524e+07 1.22851e+07 1.20134e+07 1.17394e+07 1.14642e+07 1.13061e+07 1.12656e+07
          1.1225e+07 1.11842e+07 1.11347e+07 1.10761e+07 1.10204e+07 1.10101e+07 1.10056e+07 1.10011e+07 1.29871e+07 1.29616e+07 1.29351e+07 1.2912e+07
          1.27928e+07 1.25532e+07 1.22807e+07 1.20062e+07 1.17305e+07 1.14542e+07 1.12958e+07 1.12553e+07 1.12147e+07 1.1174e+07 1.11251e+07 1.10667e+07
          1.10177e+07 1.10098e+07 1.10053e+07 1.10009e+07 1.2985e+07 1.29561e+07 1.29274e+07 1.2903e+07 1.27919e+07 1.2555e+07 1.22769e+07 1.19991e+07
          1.17217e+07 1.14443e+07 1.12854e+07 1.12449e+07 1.12044e+07 1.11638e+07 1.11155e+07 1.10571e+07 1.10159e+07 1.10094e+07 1.1005e+07 1.10008e+07
          1.29828e+07 1.29506e+07 1.29195e+07 1.28937e+07 1.2791e+07 1.25568e+07 1.22729e+07 1.1992e+07 1.17128e+07 1.14344e+07 1.12751e+07 1.12346e+07
          1.11942e+07 1.11536e+07 1.11057e+07 1.1047e+07 1.10145e+07 1.1009e+07 1.10047e+07 1.10007e+07 1.29803e+07 1.29447e+07 1.29114e+07 1.28837e+07
          1.27893e+07 1.25578e+07 1.22681e+07 1.19843e+07 1.17036e+07 1.14244e+07 1.12647e+07 1.12242e+07 1.11839e+07 1.11436e+07 1.10957e+07 1.10372e+07
          1.10136e+07 1.10086e+07 1.10043e+07 1.10005e+07 1.29769e+07 1.29382e+07 1.29031e+07 1.28734e+07 1.27851e+07 1.25561e+07 1.22617e+07 1.19759e+07
          1.1694e+07 1.14142e+07 1.12542e+07 1.12138e+07 1.11737e+07 1.11338e+07 1.10856e+07 1.10293e+07 1.1013e+07 1.10081e+07 1.10038e+07 1.10002e+07
          1.2972e+07 1.29309e+07 1.28946e+07 1.28635e+07 1.27763e+07 1.25487e+07 1.22532e+07 1.19663e+07 1.16839e+07 1.14037e+07 1.12436e+07 1.12033e+07
          1.11634e+07 1.11248e+07 1.10748e+07 1.10247e+07 1.10126e+07 1.10074e+07 1.10031e+07 1.09997e+07
        </DataArray>
        <DataArray type="Float32" Name="pc" NumberOfComponents="1" format="ascii">
          512.076 510.491 499.687 499.687 499.687 499.687 499.687 499.687 499.687 499.687 499.687 499.687
          499.687 512.784 523.788 533.708 567.844 901.916 1076.94 1091.01 516.414 514.391 501.004 499.687
          499.687 499.687 499.687 499.687 499.687 499.687 499.687 499.687 499.687 517.028 529.794 544.305
          619.558 1045.68 1107.18 1119.08 517.456 516.271 502.413 499.687 499.687 499.687 499.687 499.687
          499.687 499.687 499.687 499.687 499.687 518.37 533.38 553.189 695.102 1089.73 1107.3 1119.12
          517.269 516.817 503.243 499.687 499.687 499.687 499.687 499.687 499.687 499.687 499.687 499.687
          499.687 518.507 535.776 561.848 767.817 1101 1107.31 1119.13 517.005 516.871 503.809 499.687
          499.687 499.687 499.687 499.687 499.687 499.687 499.687 499.687 499.687 518.202 537.596 570.834
          837.594 1104.51 1107.31 1119.14 516.817 516.823 504.365 499.687 499.687 499.687 499.687 499.687
          499.687 499.687 499.687 499.687 499.687 517.824 539.274 581.541 907.597 1105.8 1107.31 1119.15
          516.67 516.758 504.864 499.687 499.687 499.687 499.687 499.687 499.687 499.687 499.687 499.687
          499.687 517.587 541.136 597.039 977.239 1106.33 1107.33 1119.17 516.546 516.686 505.395 499.687
          499.687 499.687 499.687 499.687 499.687 499.687 499.687 499.687 499.687 517.668 543.526 623.883
          1038.89 1106.78 1107.56 1119.39 516.513 516.701 505.951 499.687 499.687 499.687 499.687 499.687
          499.687 499.687 499.687 499.687 499.687 518.722 547.361 676.12 1083.52 1109.68 1110.37 1122.01
          519.766 523.068 516.432 499.687 499.687 499.687 499.687 499.687 499.687 499.687 499.687 499.687
          499.687 534.102 581.016 855.001 1132.27 1135.74 1136.32 1146.7
        </DataArray>
        <DataArray type="Float32" Name="rhoL" NumberOfComponents="1" format="ascii">
          932.39 938.88 951.119 1091.08 1090.65 1090.11 1089.48 1088.77 1088 1087.18 1085.9 1084.89
          1084.15 1083.84 1083.82 1083.8 1083.77 1083.76 1083.76 1083.76 929.102 932.427 941.324 1091.59
          1091.17 1090.62 1089.96 1089.21 1088.38 1087.5 1086.09 1084.97 1084.15 1083.84 1083.82 1083.79
          1083.77 1083.76 1083.76 1083.76 928.708 930.483 936.696 1060.76 1091.47 1090.94 1090.29 1089.53
          1088.68 1087.77 1086.29 1085.08 1084.18 1083.83 1083.81 1083.79 1083.76 1083.76 1083.76 1083.76
          928.593 929.608 934.025 1036.3 1091.67 1091.18 1090.54 1089.78 1088.92 1087.99 1086.45 1085.19
          1084.23 1083.83 1083.81 1083.79 1083.76 1083.76 1083.76 1083.76 928.544 929.151 932.361 1018.21
          1091.82 1091.35 1090.74 1089.98 1089.12 1088.17 1086.59 1085.28 1084.27 1083.83 1083.81 1083.78
          1083.76 1083.76 1083.76 1083.75 928.52 928.89 931.256 1003.03 1091.94 1091.5 1090.9 1090.16
          1089.29 1088.34 1086.72 1085.36 1084.31 1083.82 1083.8 1083.78 1083.76 1083.76 1083.76 1083.75
          928.506 928.734 930.493 990.516 1092.03 1091.63 1091.05 1090.32 1089.46 1088.49 1086.84 1085.43
          1084.34 1083.82 1083.8 1083.77 1083.76 1083.76 1083.76 1083.75 928.498 928.639 929.961 978.305
          1092.11 1091.74 1091.18 1090.47 1089.61 1088.64 1086.96 1085.51 1084.37 1083.81 1083.79 1083.77
          1083.76 1083.76 1083.76 1083.75 928.493 928.583 929.623 967.301 1092.18 1091.83 1091.29 1090.59
          1089.74 1088.77 1087.06 1085.57 1084.38 1083.81 1083.79 1083.77 1083.76 1083.76 1083.76 1083.75
          928.489 928.557 929.604 971.565 1092.15 1091.8 1091.28 1090.6 1089.76 1088.79 1087.06 1085.5
          1084.23 1083.81 1083.79 1083.76 1083.76 1083.76 1083.76 1083.75
        </DataArray>
        <DataArray type="Float32" Name="rhoG" NumberOfComponents="1" format="ascii">
          107.08 106.975 106.824 106.644 105.512 103.476 101.329 99.1166 96.8675 94.5992 93.3058 92.9824
          92.6517 92.3086 91.8932 91.4094 90.9041 90.6232 90.5847 90.5441 107.034 106.906 106.741 106.564
          105.446 103.408 101.25 99.0307 96.778 94.5079 93.2151 92.8933 92.5647 92.225 91.8079 91.3203
          90.7981 90.6175 90.5802 90.5402 107.005 106.849 106.668 106.491 105.399 103.372 101.188 98.9545
          96.6937 94.419 93.1251 92.8045 92.4778 92.1414 91.7257 91.2359 90.7293 90.6143 90.577 90.538
          106.984 106.799 106.599 106.418 105.371 103.36 101.14 98.8861 96.6138 94.3322 93.036 92.7164
          92.3912 92.057 91.6453 91.1567 90.6949 90.6118 90.5745 90.5366 106.965 106.752 106.534 106.345
          105.356 103.365 101.102 98.8228 96.5367 94.2468 92.9477 92.6287 92.3048 91.9722 91.5654 91.0789
          90.6733 90.6092 90.5721 90.5355 106.948 106.707 106.469 106.269 105.347 103.377 101.067 98.7618
          96.4607 94.162 92.8596 92.5413 92.2187 91.8871 91.4849 90.9988 90.6582 90.6062 90.5697 90.5345
          106.929 106.661 106.403 106.19 105.338 103.391 101.032 98.6999 96.3843 94.0771 92.7716 92.4539
          92.1327 91.8025 91.4032 90.9154 90.6476 90.6029 90.567 90.5333 106.908 106.612 106.335 106.107
          105.322 103.398 100.99 98.6342 96.3059 93.9914 92.6833 92.3664 92.0469 91.719 91.3204 90.8337
          90.6404 90.5992 90.5637 90.5318 106.88 106.557 106.265 106.02 105.287 103.383 100.936 98.5621
          96.2244 93.9045 92.5946 92.2786 91.9614 91.6376 91.2361 90.7683 90.6358 90.5948 90.5594 90.5294
          106.839 106.496 106.195 105.938 105.214 103.321 100.865 98.4826 96.14 93.8173 92.5066 92.1919
          91.8777 91.5623 91.1468 90.7318 90.6328 90.5893 90.5538 90.5254
        </DataArray>
        <DataArray type="Float32" Name="mobL" NumberOfComponents="1" format="ascii">
          4343.78 4099.29 4295.19 2954.66 2954.32 2953.94 2953.52 2953.07 2952.61 2952.16 2951.49 2951.05
          2950.79 2411.08 2034.42 1750.87 1066.23 26.3243 6.37004 5.7419 4287.17 4186.94 4636.01 2955.13
          2954.79 2954.39 2953.92 2953.4 2952.87 2952.36 2951.59 2951.08 2950.79 2257.2 1857.08 1496.05
          530.919 8.06321 5.10431 4.68605 4254.93 4189.87 4777.38 2971.55 2955.08 2954.68 2954.2 2953.66
          2953.09 2952.54 2951.69 2951.13 2950.8 2210.9 1759.5 1314.31 211.493 5.79608 5.10006 4.68443
          4279.39 4218.03 4877.91 3054.34 2955.27 2954.9 2954.42 2953.87 2953.27 2952.69 2951.78 2951.18
          2950.82 2206.22 1697.54 1160.74 95.4166 5.33794 5.09956 4.68421 4302.44 4251.2 4947.52 3160.74
          2955.42 2955.06 2954.6 2954.04 2953.43 2952.82 2951.86 2951.22 2950.83 2216.61 1652.09 1022.37
          47.579 5.20398 5.09946 4.68399 4317.95 4277.29 4985.71 3287.92 2955.53 2955.2 2954.75 2954.19
          2953.57 2952.94 2951.94 2951.25 2950.85 2229.59 1611.42 881.131 25.0346 5.15558 5.09944 4.68373
          4329.34 4296.27 5006.76 3428.87 2955.63 2955.33 2954.89 2954.34 2953.71 2953.05 2952.01 2951.29
          2950.86 2237.78 1567.6 713.945 13.8573 5.13564 5.09889 4.68301 4338.47 4310.51 5009.36 3610.98
          2955.71 2955.44 2955.02 2954.47 2953.83 2953.16 2952.08 2951.33 2950.87 2234.97 1513.29 502.182
          8.49433 5.119 5.09018 4.67548 4341.14 4315.25 4995.12 3828.92 2955.78 2955.53 2955.13 2954.59
          2953.95 2953.27 2952.15 2951.36 2950.88 2198.89 1430.52 263.933 6.0673 5.01317 4.98815 4.58877
          4128.66 3914.77 4240.51 3737.03 2955.75 2955.5 2955.12 2954.59 2953.96 2953.28 2952.15 2951.33
          2950.83 1740.57 887.525 40.3602 4.26666 4.16347 4.14657 3.85546
        </DataArray>
        <DataArray type="Float32" Name="mobG" NumberOfComponents="1" format="ascii">
          8.41753 5.61304 0 0 0 0 0 0 0 0 0 0
          0 9.91057 56.8943 146.284 856.955 18490.8 24972.3 25387.6 20.1896 13.8983 0.00545342 0
          0 0 0 0 0 0 0 0 0 22.3951 105.097 298.885
          2979.91 23999.1 25848.6 26176.8 24.0183 19.6944 0.0745299 0 0 0 0 0
          0 0 0 0 0 27.7214 142.523 474.323 7257.87 25350.4 25851.8 26178.2
          23.2983 21.6187 0.179388 0 0 0 0 0 0 0 0 0
          0 28.3069 171.283 686.708 11578.7 25674.5 25852.2 26178.3 22.3103 21.8176 0.288662 0
          0 0 0 0 0 0 0 0 0 27.0187 195.193 948.674
          15392.9 25773.5 25852.2 26178.5 21.6182 21.6396 0.43181 0 0 0 0 0
          0 0 0 0 0 25.4706 218.811 1312.59 18744.5 25809.8 25852.3 26178.7
          21.09 21.4073 0.594411 0 0 0 0 0 0 0 0 0
          0 24.5278 246.824 1928.74 21604 25824.9 25852.7 26179.3 20.6516 21.1488 0.806607 0
          0 0 0 0 0 0 0 0 0 24.8484 285.572 3199.07
          23778.3 25837.4 25859.3 26185.4 20.5346 21.2014 1.076 0 0 0 0 0
          0 0 0 0 0 29.2416 354.327 6124.77 25168.1 25918.2 25937.5 26256.6
          34.0372 52.2734 20.2515 0 0 0 0 0 0 0 0 0
          0 150.869 1293.49 16272.3 26530.6 26621.9 26637 26905.5
        </DataArray>
        <DataArray type="Float32" Name="porosity" NumberOfComponents="1" format="ascii">
          0.11 0.11 0.11 0.0985496 0.0576168 0.0576056 0.0575982 0.057592 0.0575865 0.0575817 0.105569 0.105561
          0.105554 0.105512 0.105492 0.105491 0.10549 0.105489 0.105486 0.10548 0.11 0.11 0.11 0.107358
          0.0576197 0.0576085 0.0576013 0.0575951 0.0575893 0.0575847 0.105582 0.105572 0.105565 0.105511 0.105492 0.105491
          0.10549 0.105489 0.105486 0.10548 0.11 0.11 0.11 0.10923 0.0587671 0.0576101 0.0576043 0.0575969
          0.0575906 0.0575868 0.105589 0.10558 0.105572 0.105514 0.105492 0.105491 0.10549 0.105489 0.105486 0.10548
          0.11 0.11 0.11 0.109612 0.060443 0.0576111 0.0576062 0.0575979 0.0575916 0.0575879 0.105593 0.105585
          0.105577 0.105518 0.105492 0.105491 0.10549 0.105489 0.105486 0.10548 0.11 0.11 0.11 0.109769
          0.0622884 0.0576132 0.0576076 0.0575989 0.0575936 0.0575887 0.105595 0.105588 0.10558 0.105522 0.105492 0.105491
          0.10549 0.105489 0.105486 0.10548 0.11 0.11 0.11 0.109857 0.0643345 0.0576154 0.0576088 0.0575999
          0.0575951 0.0575896 0.105598 0.105591 0.105582 0.105526 0.105492 0.105491 0.10549 0.105489 0.105486 0.10548
          0.11 0.11 0.11 0.109899 0.0667925 0.0576174 0.0576099 0.0576009 0.0575964 0.0575904 0.105601 0.105594
          0.105586 0.10553 0.105492 0.105491 0.10549 0.105489 0.105486 0.10548 0.11 0.11 0.11 0.109934
          0.069984 0.0576193 0.0576112 0.0576034 0.0575973 0.0575912 0.105603 0.105596 0.105589 0.105533 0.105492 0.105491
          0.10549 0.105489 0.105486 0.10548 0.11 0.11 0.11 0.10996 0.0746747 0.0576212 0.0576125 0.0576055
          0.0575982 0.0575921 0.105607 0.105601 0.105593 0.105533 0.105492 0.105491 0.10549 0.105489 0.105486 0.10548
          0.11 0.11 0.11 0.109962 0.0730343 0.0576236 0.0576153 0.0576077 0.0576009 0.0575946 0.105627 0.105624
          0.105615 0.105516 0.105492 0.105491 0.10549 0.105489 0.105486 0.10548
        </DataArray>
        <DataArray type="Float32" Name="permeabilityFactor" NumberOfComponents="1" format="ascii">
          1 1 1 0.700944 0.128173 0.128095 0.128043 0.128001 0.127962 0.127929 0.875214 0.874993
          0.874823 0.873695 0.873161 0.87314 0.873111 0.873069 0.872999 0.872844 1 1 1 0.924175
          0.128192 0.128115 0.128065 0.128022 0.127982 0.127949 0.875572 0.875305 0.875112 0.873662 0.87316 0.873139
          0.87311 0.873069 0.872999 0.872845 1 1 1 0.977465 0.136336 0.128126 0.128085 0.128034
          0.12799 0.127964 0.875768 0.875527 0.875306 0.873738 0.87316 0.873139 0.87311 0.873069 0.872999 0.872845
          1 1 1 0.988588 0.148866 0.128133 0.128099 0.128041 0.127998 0.127972 0.875854 0.87566
          0.87543 0.873842 0.873159 0.873139 0.87311 0.873069 0.872999 0.872846 1 1 1 0.9932
          0.163563 0.128148 0.128108 0.128048 0.128011 0.127977 0.875915 0.875742 0.875513 0.873963 0.873159 0.873138
          0.87311 0.873069 0.872999 0.872846 1 1 1 0.995777 0.181006 0.128162 0.128117 0.128055
          0.128022 0.127983 0.875993 0.87581 0.875582 0.874073 0.873159 0.873138 0.87311 0.873069 0.873 0.872847
          1 1 1 0.997013 0.203624 0.128176 0.128125 0.128062 0.12803 0.127989 0.876067 0.875881
          0.875666 0.874169 0.873159 0.873138 0.87311 0.873069 0.873 0.872847 1 1 1 0.998057
          0.23584 0.12819 0.128133 0.128079 0.128037 0.127995 0.876142 0.875959 0.875763 0.874247 0.873159 0.873138
          0.873111 0.873069 0.873 0.872848 1 1 1 0.99882 0.289423 0.128203 0.128142 0.128094
          0.128043 0.128001 0.876247 0.876069 0.875877 0.874267 0.873159 0.873138 0.873111 0.87307 0.873 0.872848
          1 1 1 0.998865 0.269808 0.128219 0.128162 0.128109 0.128062 0.128018 0.876781 0.876701
          0.876463 0.873793 0.873157 0.873137 0.87311 0.873069 0.873 0.872849
        </DataArray>
        <DataArray type="Float32" Name="temperature" NumberOfComponents="1" format="ascii">
          418.15 418.15 418.15 418.15 418.15 418.15 418.15 418.15 418.15 418.15 418.15 418.15
          418.15 418.15 418.15 418.15 418.15 418.15 418.15 418.15 418.15 418.15 418.15 418.15
          418.15 418.15 418.15 418.15 418.15 418.15 418.15 418.15 418.15 418.15 418.15 418.15
          418.15 418.15 418.15 418.15 418.15 418.15 418.15 418.15 418.15 418.15 418.15 418.15
          418.15 418.15 418.15 418.15 418.15 418.15 418.15 418.15 418.15 418.15 418.15 418.15
          418.15 418.15 418.15 418.15 418.15 418.15 418.15 418.15 418.15 418.15 418.15 418.15
          418.15 418.15 418.15 418.15 418.15 418.15 418.15 418.15 418.15 418.15 418.15 418.15
          418.15 418.15 418.15 418.15 418.15 418.15 418.15 418.15 418.15 418.15 418.15 418.15
          418.15 418.15 418.15 418.15 418.15 418.15 418.15 418.15 418.15 418.15 418.15 418.15
          418.15 418.15 418.15 418.15 418.15 418.15 418.15 418.15 418.15 418.15 418.15 418.15
          418.15 418.15 418.15 418.15 418.15 418.15 418.15 418.15 418.15 418.15 418.15 418.15
          418.15 418.15 418.15 418.15 418.15 418.15 418.15 418.15 418.15 418.15 418.15 418.15
          418.15 418.15 418.15 418.15 418.15 418.15 418.15 418.15 418.15 418.15 418.15 418.15
          418.15 418.15 418.15 418.15 418.15 418.15 418.15 418.15 418.15 418.15 418.15 418.15
          418.15 418.15 418.15 418.15 418.15 418.15 418.15 418.15 418.15 418.15 418.15 418.15
          418.15 418.15 418.15 418.15 418.15 418.15 418.15 418.15 418.15 418.15 418.15 418.15
          418.15 418.15 418.15 418.15 418.15 418.15 418.15 418.15
        </DataArray>
        <DataArray type="Float32" Name="phase presence" NumberOfComponents="1" format="ascii">
          3 3 1 1 1 1 1 1 1 1 1 1
          1 3 3 3 3 3 3 3 3 3 3 1
          1 1 1 1 1 1 1 1 1 3 3 3
          3 3 3 3 3 3 3 1 1 1 1 1
          1 1 1 1 1 3 3 3 3 3 3 3
          3 3 3 1 1 1 1 1 1 1 1 1
          1 3 3 3 3 3 3 3 3 3 3 1
          1 1 1 1 1 1 1 1 1 3 3 3
          3 3 3 3 3 3 3 1 1 1 1 1
          1 1 1 1 1 3 3 3 3 3 3 3
          3 3 3 1 1 1 1 1 1 1 1 1
          1 3 3 3 3 3 3 3 3 3 3 1
          1 1 1 1 1 1 1 1 1 3 3 3
          3 3 3 3 3 3 3 1 1 1 1 1
          1 1 1 1 1 3 3 3 3 3 3 3
          3 3 3 1 1 1 1 1 1 1 1 1
          1 3 3 3 3 3 3 3
        </DataArray>
        <DataArray type="Float32" Name="precipitateVolumeFraction_NaCl" NumberOfComponents="1" format="ascii">
          1.04464e-12 4.38988e-11 3.30927e-10 0.0114504 0.0523832 0.0523944 0.0524018 0.052408 0.0524135 0.0524183 0.00443123 0.00443948
          0.0044458 0.00448789 0.00450785 0.00450861 0.0045097 0.00451127 0.00451389 0.00451966 1.04365e-12 4.36923e-11 3.28616e-10 0.00264174
          0.0523803 0.0523915 0.0523987 0.0524049 0.0524107 0.0524153 0.0044179 0.00442786 0.00443504 0.00448914 0.00450787 0.00450864
          0.00450973 0.00451128 0.00451389 0.00451964 1.04263e-12 4.33868e-11 3.21397e-10 0.00076964 0.0512329 0.0523899 0.0523957 0.0524031
          0.0524094 0.0524132 0.00441061 0.00441959 0.00442782 0.00448629 0.00450788 0.00450865 0.00450974 0.00451127 0.00451389 0.00451962
          1.04158e-12 4.319e-11 3.16165e-10 0.000388171 0.049557 0.0523889 0.0523938 0.0524021 0.0524084 0.0524121 0.00440739 0.00441463
          0.00442319 0.00448242 0.00450789 0.00450866 0.00450974 0.00451127 0.00451388 0.0045196 1.04051e-12 4.30314e-11 3.11853e-10 0.000230911
          0.0477116 0.0523867 0.0523924 0.0524011 0.0524064 0.0524113 0.00440512 0.00441156 0.00442008 0.00447789 0.0045079 0.00450867
          0.00450973 0.00451126 0.00451387 0.00451958 1.03944e-12 4.28815e-11 3.07712e-10 0.000143278 0.0456655 0.0523846 0.0523912 0.0524001
          0.0524049 0.0524104 0.00440221 0.00440902 0.00441754 0.00447379 0.0045079 0.00450868 0.00450973 0.00451126 0.00451386 0.00451956
          1.03837e-12 4.27205e-11 3.03123e-10 0.000101294 0.0432075 0.0523826 0.0523901 0.0523991 0.0524036 0.0524096 0.00439946 0.0044064
          0.00441438 0.00447021 0.00450791 0.00450869 0.00450972 0.00451125 0.00451385 0.00451954 1.03732e-12 4.25169e-11 2.97249e-10 6.58602e-05
          0.040016 0.0523807 0.0523888 0.0523966 0.0524027 0.0524088 0.00439666 0.0044035 0.00441077 0.00446731 0.00450792 0.0045087
          0.00450971 0.00451125 0.00451384 0.00451952 1.03629e-12 4.2198e-11 2.88882e-10 4.0001e-05 0.0353253 0.0523788 0.0523875 0.0523945
          0.0524018 0.0524079 0.00439274 0.00439939 0.00440652 0.00446654 0.00450792 0.0045087 0.00450971 0.00451125 0.00451383 0.00451951
          1.03531e-12 4.20114e-11 2.88295e-10 3.84701e-05 0.0369657 0.0523764 0.0523847 0.0523923 0.0523991 0.0524054 0.00437288 0.00437585
          0.0043847 0.00448425 0.00450797 0.00450874 0.00450972 0.00451125 0.00451383 0.0045195
        </DataArray>
        <DataArray type="Float32" Name="Kxx" NumberOfComponents="1" format="ascii">
          2.23e-14 2.23e-14 2.23e-14 1.56311e-14 2.85825e-15 2.85651e-15 2.85536e-15 2.85441e-15 2.85355e-15 2.85281e-15 1.95173e-14 1.95123e-14
          1.95086e-14 1.94834e-14 1.94715e-14 1.9471e-14 1.94704e-14 1.94694e-14 1.94679e-14 1.94644e-14 2.23e-14 2.23e-14 2.23e-14 2.06091e-14
          2.85869e-15 2.85696e-15 2.85584e-15 2.85489e-15 2.85399e-15 2.85327e-15 1.95253e-14 1.95193e-14 1.9515e-14 1.94827e-14 1.94715e-14 1.9471e-14
          1.94704e-14 1.94694e-14 1.94679e-14 1.94644e-14 2.23e-14 2.23e-14 2.23e-14 2.17975e-14 3.0403e-15 2.8572e-15 2.85631e-15 2.85516e-15
          2.85418e-15 2.85359e-15 1.95296e-14 1.95242e-14 1.95193e-14 1.94844e-14 1.94715e-14 1.9471e-14 1.94703e-14 1.94694e-14 1.94679e-14 1.94644e-14
          2.23e-14 2.23e-14 2.23e-14 2.20455e-14 3.3197e-15 2.85736e-15 2.8566e-15 2.85532e-15 2.85435e-15 2.85377e-15 1.95315e-14 1.95272e-14
          1.95221e-14 1.94867e-14 1.94715e-14 1.9471e-14 1.94703e-14 1.94694e-14 1.94679e-14 1.94645e-14 2.23e-14 2.23e-14 2.23e-14 2.21484e-14
          3.64744e-15 2.85769e-15 2.85681e-15 2.85548e-15 2.85465e-15 2.8539e-15 1.95329e-14 1.95291e-14 1.9524e-14 1.94894e-14 1.94715e-14 1.9471e-14
          1.94704e-14 1.94694e-14 1.94679e-14 1.94645e-14 2.23e-14 2.23e-14 2.23e-14 2.22058e-14 4.03642e-15 2.85802e-15 2.857e-15 2.85563e-15
          2.85489e-15 2.85403e-15 1.95346e-14 1.95306e-14 1.95255e-14 1.94918e-14 1.94714e-14 1.9471e-14 1.94704e-14 1.94694e-14 1.94679e-14 1.94645e-14
          2.23e-14 2.23e-14 2.23e-14 2.22334e-14 4.54081e-15 2.85833e-15 2.85718e-15 2.85578e-15 2.85508e-15 2.85416e-15 1.95363e-14 1.95321e-14
          1.95274e-14 1.9494e-14 1.94714e-14 1.9471e-14 1.94704e-14 1.94694e-14 1.94679e-14 1.94645e-14 2.23e-14 2.23e-14 2.23e-14 2.22567e-14
          5.25923e-15 2.85864e-15 2.85738e-15 2.85616e-15 2.85523e-15 2.85428e-15 1.9538e-14 1.95339e-14 1.95295e-14 1.94957e-14 1.94714e-14 1.9471e-14
          1.94704e-14 1.94694e-14 1.94679e-14 1.94645e-14 2.23e-14 2.23e-14 2.23e-14 2.22737e-14 6.45413e-15 2.85893e-15 2.85757e-15 2.8565e-15
          2.85536e-15 2.85441e-15 1.95403e-14 1.95363e-14 1.95321e-14 1.94962e-14 1.94714e-14 1.9471e-14 1.94704e-14 1.94695e-14 1.94679e-14 1.94645e-14
          2.23e-14 2.23e-14 2.23e-14 2.22747e-14 6.01672e-15 2.85929e-15 2.858e-15 2.85684e-15 2.85579e-15 2.85481e-15 1.95522e-14 1.95504e-14
          1.95451e-14 1.94856e-14 1.94714e-14 1.94709e-14 1.94704e-14 1.94694e-14 1.94679e-14 1.94645e-14
        </DataArray>
        <DataArray type="Float32" Name="Kyy" NumberOfComponents="1" format="ascii">
          2.23e-14 2.23e-14 2.23e-14 1.56311e-14 2.85825e-15 2.85651e-15 2.85536e-15 2.85441e-15 2.85355e-15 2.85281e-15 1.95173e-14 1.95123e-14
          1.95086e-14 1.94834e-14 1.94715e-14 1.9471e-14 1.94704e-14 1.94694e-14 1.94679e-14 1.94644e-14 2.23e-14 2.23e-14 2.23e-14 2.06091e-14
          2.85869e-15 2.85696e-15 2.85584e-15 2.85489e-15 2.85399e-15 2.85327e-15 1.95253e-14 1.95193e-14 1.9515e-14 1.94827e-14 1.94715e-14 1.9471e-14
          1.94704e-14 1.94694e-14 1.94679e-14 1.94644e-14 2.23e-14 2.23e-14 2.23e-14 2.17975e-14 3.0403e-15 2.8572e-15 2.85631e-15 2.85516e-15
          2.85418e-15 2.85359e-15 1.95296e-14 1.95242e-14 1.95193e-14 1.94844e-14 1.94715e-14 1.9471e-14 1.94703e-14 1.94694e-14 1.94679e-14 1.94644e-14
          2.23e-14 2.23e-14 2.23e-14 2.20455e-14 3.3197e-15 2.85736e-15 2.8566e-15 2.85532e-15 2.85435e-15 2.85377e-15 1.95315e-14 1.95272e-14
          1.95221e-14 1.94867e-14 1.94715e-14 1.9471e-14 1.94703e-14 1.94694e-14 1.94679e-14 1.94645e-14 2.23e-14 2.23e-14 2.23e-14 2.21484e-14
          3.64744e-15 2.85769e-15 2.85681e-15 2.85548e-15 2.85465e-15 2.8539e-15 1.95329e-14 1.95291e-14 1.9524e-14 1.94894e-14 1.94715e-14 1.9471e-14
          1.94704e-14 1.94694e-14 1.94679e-14 1.94645e-14 2.23e-14 2.23e-14 2.23e-14 2.22058e-14 4.03642e-15 2.85802e-15 2.857e-15 2.85563e-15
          2.85489e-15 2.85403e-15 1.95346e-14 1.95306e-14 1.95255e-14 1.94918e-14 1.94714e-14 1.9471e-14 1.94704e-14 1.94694e-14 1.94679e-14 1.94645e-14
          2.23e-14 2.23e-14 2.23e-14 2.22334e-14 4.54081e-15 2.85833e-15 2.85718e-15 2.85578e-15 2.85508e-15 2.85416e-15 1.95363e-14 1.95321e-14