<?xml version="1.0"?>
<VTKFile type="UnstructuredGrid" version="0.1" byte_order="LittleEndian">
  <UnstructuredGrid>
    <Piece NumberOfCells="200" NumberOfPoints="231">
      <PointData Scalars="porosity" Vectors="velocity_liquid (m/s)">
        <DataArray type="Float32" Name="porosity" NumberOfComponents="1" format="ascii">
          0.11 0.11 0.11 0.11 0.11 0.11 0.109838 0.109828 0.062494 0.0625103 0.0575186 0.057519
          0.0575076 0.0575094 0.0574979 0.0575014 0.0574905 0.0574927 0.0574824 0.0574865 0.105384 0.105401 0.10537 0.105387
          0.10536 0.105376 0.105355 0.105368 0.105337 0.105319 0.105295 0.105295 0.105294 0.105294 0.105292 0.105292
          0.10529 0.10529 0.105285 0.105285 0.11 0.11 0.11 0.11 0.11 0.109905 0.0653625 0.0575216
          0.0575118 0.057503 0.057495 0.0574881 0.105409 0.105396 0.105385 0.105376 0.105317 0.105295 0.105294 0.105292
          0.10529 0.105285 0.11 0.11 0.11 0.11 0.109944 0.0686765 0.0575236 0.0575135 0.0575043 0.0574967
          0.0574891 0.105413 0.1054 0.10539 0.105381 0.105317 0.105295 0.105294 0.105292 0.10529 0.105285 0.11
          0.11 0.11 0.11 0.109965 0.0718747 0.0575253 0.0575148 0.0575054 0.0574979 0.05749 0.105415 0.105403
          0.105393 0.105384 0.105318 0.105295 0.105294 0.105292 0.10529 0.105285 0.11 0.11 0.11 0.11
          0.109973 0.0749164 0.0575267 0.0575159 0.0575065 0.057499 0.0574908 0.105418 0.105406 0.105396 0.105387 0.105319
          0.105295 0.105294 0.105292 0.10529 0.105285 0.11 0.11 0.11 0.11 0.109981 0.0780861 0.0575282
          0.0575168 0.0575076 0.0574999 0.0574915 0.10542 0.105408 0.105399 0.10539 0.10532 0.105295 0.105294 0.105292
          0.10529 0.105285 0.11 0.11 0.11 0.11 0.109985 0.0815867 0.0575298 0.0575178 0.0575088 0.0575008
          0.0574922 0.105422 0.105411 0.105402 0.105393 0.105321 0.105295 0.105293 0.105292 0.10529 0.105286 0.11
          0.11 0.11 0.11 0.10999 0.0858482 0.0575317 0.0575187 0.0575099 0.0575017 0.0574933 0.105424 0.105415
          0.105405 0.105396 0.105321 0.105295 0.105293 0.105292 0.10529 0.105286 0.11 0.11 0.11 0.11
          0.109992 0.0891326 0.0575339 0.0575196 0.0575107 0.0575026 0.0574949 0.105429 0.10542 0.10541 0.105399 0.105319
          0.105295 0.105293 0.105292 0.10529 0.105286 0.11 0.11 0.11 0.11 0.109982 0.0758322 0.0575336
          0.0575229 0.0575145 0.0575059 0.0574985 0.105454 0.105449 0.105435 0.105423 0.1053 0.105294 0.105293 0.105292
          0.10529 0.105286 0.11
        </DataArray>
        <DataArray type="Float32" Name="pc" NumberOfComponents="1" format="ascii">
          516.075 509.366 516.075 514.447 506.126 510.667 499.687 499.687 499.687 499.687 499.687 499.687
          499.687 499.687 499.687 499.687 499.687 499.687 499.687 499.687 499.687 499.687 499.687 499.687
          499.687 499.687 499.687 499.687 504.238 515.318 520.562 529.773 529.794 545.147 559.974 616.585
          844.827 1008.77 1041.31 1096.2 7500 7500 516.075 516.513 513.296 499.687 499.687 499.687
          499.687 499.687 499.687 499.687 499.687 499.687 499.687 499.687 519.001 534.797 556.708 693.546
          1068.46 1096.41 7500 516.075 516.935 514.703 499.687 499.687 499.687 499.687 499.687 499.687
          499.687 499.687 499.687 499.687 499.687 520.687 538.112 567.377 766.702 1082.91 1096.44 7500
          516.075 516.861 515.316 499.687 499.687 499.687 499.687 499.687 499.687 499.687 499.687 499.687
          499.687 499.687 521.579 540.612 578.389 834.853 1087.11 1096.45 7500 516.075 516.738 515.556
          499.687 499.687 499.687 499.687 499.687 499.687 499.687 499.687 499.687 499.687 499.687 522.217
          542.86 591.082 899.417 1088.62 1096.46 7500 516.075 516.636 515.663 499.687 499.687 499.687
          499.687 499.687 499.687 499.687 499.687 499.687 499.687 499.687 522.851 545.248 607.391 959.724
          1089.24 1096.46 7500 516.075 516.553 515.726 499.687 499.687 499.687 499.687 499.687 499.687
          499.687 499.687 499.687 499.687 499.687 523.604 548.085 630.774 1012.59 1089.54 1096.49 7500
          516.075 516.481 515.755 499.687 499.687 499.687 499.687 499.687 499.687 499.687 499.687 499.687
          499.687 499.687 524.656 551.886 668.444 1052.87 1090.08 1096.89 7500 516.075 516.495 515.654
          499.687 499.687 499.687 499.687 499.687 499.687 499.687 499.687 499.687 499.687 499.687 526.82
          558.326 735.181 1080.89 1094.93 1101.59 7500 516.075 523.194 528.934 499.687 499.687 499.687
          499.687 499.687 499.687 499.687 499.687 499.687 499.687 499.687 548.81 616.637 958.196 1140.83
          1142.68 1148.56 7500
        </DataArray>
        <DataArray type="Float32" Name="S_w" NumberOfComponents="1" format="ascii">
          0.95 0.969886 0.95 0.954755 0.979775 0.965969 1 1 1 1 1 1
          1 1 1 1 1 1 1 1 1 1 1 1
          1 1 1 1 0.985626 0.952206 0.937125 0.911718 0.911659 0.87214 0.837018 0.725414
          0.479867 0.396291 0.384216 0.36623 0.2 0.2 0.95 0.948727 0.958142 1 1 1
          1 1 1 1 1 1 1 1 0.941568 0.898407 0.844512 0.615276
          0.374972 0.366165 0.2 0.95 0.947508 0.954004 1 1 1 1 1 1
          1 1 1 1 1 0.936773 0.889829 0.820503 0.539808 0.370333 0.366156 0.2
          0.95 0.947721 0.95221 1 1 1 1 1 1 1 1 1
          1 1 0.934254 0.883465 0.797099 0.486594 0.36902 0.366153 0.2 0.95 0.948078 0.95151
          1 1 1 1 1 1 1 1 1 1 1 0.932462
          0.877814 0.771731 0.446925 0.368552 0.366152 0.2 0.95 0.948371 0.9512 1 1 1
          1 1 1 1 1 1 1 1 0.930687 0.87189 0.741439 0.416867
          0.36836 0.36615 0.2 0.95 0.948614 0.951017 1 1 1 1 1 1
          1 1 1 1 1 0.928586 0.864953 0.702041 0.394814 0.368267 0.366141 0.2
          0.95 0.948822 0.950932 1 1 1 1 1 1 1 1 1
          1 1 0.925668 0.855826 0.647051 0.380192 0.368102 0.36602 0.2 0.95 0.94878 0.951224
          1 1 1 1 1 1 1 1 1 1 1 0.919719
          0.840782 0.569572 0.370971 0.366616 0.364607 0.2 0.95 0.929728 0.913977 1 1 1
          1 1 1 1 1 1 1 1 0.863197 0.725325 0.41756 0.353477
          0.352981 0.351419 0.2
        </DataArray>
        <DataArray type="Float32" Name="p_w" NumberOfComponents="1" format="ascii">
          1.29995e+07 1.29991e+07 1.29995e+07 1.29901e+07 1.2982e+07 1.29727e+07 1.29608e+07 1.29512e+07 1.28844e+07 1.28761e+07 1.26579e+07 1.26511e+07
          1.23827e+07 1.23747e+07 1.20968e+07 1.20881e+07 1.18057e+07 1.17967e+07 1.15124e+07 1.15031e+07 1.13994e+07 1.139e+07 1.13562e+07 1.13467e+07
          1.13127e+07 1.13032e+07 1.12687e+07 1.12592e+07 1.12225e+07 1.12142e+07 1.11716e+07 1.11616e+07 1.11084e+07 1.10989e+07 1.10457e+07 1.10323e+07
          1.10082e+07 1.10087e+07 1.10048e+07 1.1004e+07 1.09925e+07 1.09925e+07 1.29995e+07 1.29841e+07 1.29643e+07 1.29415e+07 1.28698e+07 1.26497e+07
          1.23688e+07 1.20804e+07 1.17881e+07 1.14939e+07 1.13806e+07 1.13373e+07 1.12938e+07 1.12499e+07 1.12059e+07 1.1152e+07 1.10888e+07 1.10234e+07
          1.10091e+07 1.10038e+07 1.09925e+07 1.29995e+07 1.29793e+07 1.29567e+07 1.29321e+07 1.28647e+07 1.26515e+07 1.23647e+07 1.20736e+07 1.17799e+07
          1.14848e+07 1.13713e+07 1.13279e+07 1.12844e+07 1.12408e+07 1.11972e+07 1.11427e+07 1.10788e+07 1.10194e+07 1.10091e+07 1.10037e+07 1.09925e+07
          1.29995e+07 1.29752e+07 1.29495e+07 1.2923e+07 1.28601e+07 1.26544e+07 1.23617e+07 1.20675e+07 1.1772e+07 1.14759e+07 1.1362e+07 1.13186e+07
          1.12751e+07 1.12316e+07 1.11883e+07 1.11335e+07 1.10691e+07 1.10172e+07 1.1009e+07 1.10037e+07 1.09925e+07 1.29995e+07 1.29713e+07 1.29427e+07
          1.29141e+07 1.28553e+07 1.26574e+07 1.2359e+07 1.20616e+07 1.17643e+07 1.14669e+07 1.13527e+07 1.13093e+07 1.12658e+07 1.12225e+07 1.11793e+07
          1.11243e+07 1.10594e+07 1.10158e+07 1.10088e+07 1.10036e+07 1.09925e+07 1.29995e+07 1.29674e+07 1.29358e+07 1.29051e+07 1.28502e+07 1.26599e+07
          1.23562e+07 1.20556e+07 1.17565e+07 1.1458e+07 1.13435e+07 1.12999e+07 1.12565e+07 1.12132e+07 1.11702e+07 1.1115e+07 1.10498e+07 1.10149e+07
          1.10087e+07 1.10035e+07 1.09925e+07 1.29995e+07 1.29633e+07 1.29287e+07 1.2896e+07 1.28443e+07 1.26612e+07 1.23524e+07 1.20492e+07 1.17486e+07
          1.1449e+07 1.13342e+07 1.12906e+07 1.12471e+07 1.12039e+07 1.11611e+07 1.11058e+07 1.10408e+07 1.10145e+07 1.10086e+07 1.10034e+07 1.09925e+07
          1.29995e+07 1.29585e+07 1.29211e+07 1.28866e+07 1.28374e+07 1.26602e+07 1.23472e+07 1.20422e+07 1.17404e+07 1.144e+07 1.13249e+07 1.12812e+07
          1.12376e+07 1.11945e+07 1.11519e+07 1.10965e+07 1.10332e+07 1.10144e+07 1.10083e+07 1.10031e+07 1.09925e+07 1.29995e+07 1.29525e+07 1.29129e+07
          1.28772e+07 1.2829e+07 1.26541e+07 1.23404e+07 1.20344e+07 1.17318e+07 1.14309e+07 1.13155e+07 1.12718e+07 1.12281e+07 1.11848e+07 1.1143e+07
          1.10864e+07 1.10285e+07 1.10144e+07 1.10079e+07 1.10027e+07 1.09925e+07 1.29995e+07 1.29441e+07 1.29041e+07 1.2868e+07 1.28193e+07 1.26421e+07
          1.23324e+07 1.20256e+07 1.17228e+07 1.14216e+07 1.13062e+07 1.12623e+07 1.12186e+07 1.11742e+07 1.11355e+07 1.10737e+07 1.10273e+07 1.1014e+07
          1.10071e+07 1.10019e+07 1.09925e+07
        </DataArray>
        <DataArray type="Float32" Name="rho_w" NumberOfComponents="1" format="ascii">
          998.008 998.513 998.008 998.158 999.166 998.672 978.643 977.993 940.73 939.397 942.376 941.002
          944.473 943.133 947.132 945.9 950.413 949.346 954.296 953.427 962.545 962.078 970.408 970.364
          976.891 977.251 981.644 982.38 984.431 984.428 984.41 984.406 984.384 984.38 984.358 984.352
          984.342 984.342 984.341 984.341 947.795 947.795 998.008 998.054 998.377 983.952 938.28 939.695
          941.704 944.419 947.878 952.034 960.967 969.626 976.925 982.434 984.424 984.402 984.376 984.349
          984.343 984.34 947.795 998.008 998.022 998.226 988.323 937.57 938.819 940.692 943.32 946.746
          950.925 960.035 968.962 976.564 982.36 984.421 984.398 984.372 984.347 984.343 984.34 947.795
[...]
      <CellData Scalars="process rank">
        <DataArray type="Float32" Name="process rank" NumberOfComponents="1" format="ascii">
          0 0 0 0 0 0 0 0 0 0 0 0
          0 0 0 0 0 0 0 0 0 0 0 0
          0 0 0 0 0 0 0 0 0 0 0 0
          0 0 0 0 0 0 0 0 0 0 0 0
          0 0 0 0 0 0 0 0 0 0 0 0
          0 0 0 0 0 0 0 0 0 0 0 0
          0 0 0 0 0 0 0 0 0 0 0 0
          0 0 0 0 0 0 0 0 0 0 0 0
          0 0 0 0 0 0 0 0 0 0 0 0
          0 0 0 0 0 0 0 0 0 0 0 0
          0 0 0 0 0 0 0 0 0 0 0 0
          0 0 0 0 0 0 0 0 0 0 0 0
          0 0 0 0 0 0 0 0 0 0 0 0
          0 0 0 0 0 0 0 0 0 0 0 0
          0 0 0 0 0 0 0 0 0 0 0 0
          0 0 0 0 0 0 0 0 0 0 0 0
          0 0 0 0 0 0 0 0
        </DataArray>
      </CellData>
      <Points>
        <DataArray type="Float32" Name="Coordinates" NumberOfComponents="3" format="ascii">
          0 0 0 2 0 0 0 1 0 2 1 0
          4 0 0 4 1 0 6 0 0 6 1 0
          8 0 0 8 1 0 10 0 0 10 1 0
          12 0 0 12 1 0 14 0 0 14 1 0
          16 0 0 16 1 0 18 0 0 18 1 0
          20 0 0 20 1 0 22 0 0 22 1 0
          24 0 0 24 1 0 26 0 0 26 1 0
          28 0 0 28 1 0 30 0 0 30 1 0
          32 0 0 32 1 0 34 0 0 34 1 0
          36 0 0 36 1 0 38 0 0 38 1 0
          40 0 0 40 1 0 0 2 0 2 2 0
          4 2 0 6 2 0 8 2 0 10 2 0
          12 2 0 14 2 0 16 2 0 18 2 0
          20 2 0 22 2 0 24 2 0 26 2 0
          28 2 0 30 2 0 32 2 0 34 2 0
          36 2 0 38 2 0 40 2 0 0 3 0
          2 3 0 4 3 0 6 3 0 8 3 0
          10 3 0 12 3 0 14 3 0 16 3 0
          18 3 0 20 3 0 22 3 0 24 3 0
          26 3 0 28 3 0 30 3 0 32 3 0
          34 3 0 36 3 0 38 3 0 40 3 0
          0 4 0 2 4 0 4 4 0 6 4 0
          8 4 0 10 4 0 12 4 0 14 4 0
          16 4 0 18 4 0 20 4 0 22 4 0
          24 4 0 26 4 0 28 4 0 30 4 0
          32 4 0 34 4 0 36 4 0 38 4 0
          40 4 0 0 5 0 2 5 0 4 5 0
          6 5 0 8 5 0 10 5 0 12 5 0
          14 5 0 16 5 0 18 5 0 20 5 0
          22 5 0 24 5 0 26 5 0 28 5 0
          30 5 0 32 5 0 34 5 0 36 5 0
          38 5 0 40 5 0 0 6 0 2 6 0
          4 6 0 6 6 0 8 6 0 10 6 0
          12 6 0 14 6 0 16 6 0 18 6 0
          20 6 0 22 6 0 24 6 0 26 6 0
          28 6 0 30 6 0 32 6 0 34 6 0
          36 6 0 38 6 0 40 6 0 0 7 0
          2 7 0 4 7 0 6 7 0 8 7 0
          10 7 0 12 7 0 14 7 0 16 7 0
          18 7 0 20 7 0 22 7 0 24 7 0
          26 7 0 28 7 0 30 7 0 32 7 0
          34 7 0 36 7 0 38 7 0 40 7 0
          0 8 0 2 8 0 4 8 0 6 8 0
          8 8 0 10 8 0 12 8 0 14 8 0
          16 8 0 18 8 0 20 8 0 22 8 0
          24 8 0 26 8 0 28 8 0 30 8 0
          32 8 0 34 8 0 36 8 0 38 8 0
          40 8 0 0 9 0 2 9 0 4 9 0
          6 9 0 8 9 0 10 9 0 12 9 0
          14 9 0 16 9 0 18 9 0 20 9 0
          22 9 0 24 9 0 26 9 0 28 9 0
          30 9 0 32 9 0 34 9 0 36 9 0
          38 9 0 40 9 0 0 10 0 2 10 0
          4 10 0 6 10 0 8 10 0 10 10 0
          12 10 0 14 10 0 16 10 0 18 10 0
          20 10 0 22 10 0 24 10 0 26 10 0
          28 10 0 30 10 0 32 10 0 34 10 0
          36 10 0 38 10 0 40 10 0
        </DataArray>
      </Points>
      <Cells>
        <DataArray type="Int32" Name="connectivity" NumberOfComponents="1" format="ascii">
          0 1 3 2 1 4 5 3 4 6 7 5
          6 8 9 7 8 10 11 9 10 12 13 11
          12 14 15 13 14 16 17 15 16 18 19 17
          18 20 21 19 20 22 23 21 22 24 25 23
          24 26 27 25 26 28 29 27 28 30 31 29
          30 32 33 31 32 34 35 33 34 36 37 35
          36 38 39 37 38 40 41 39 2 3 43 42
          3 5 44 43 5 7 45 44 7 9 46 45
          9 11 47 46 11 13 48 47 13 15 49 48
          15 17 50 49 17 19 51 50 19 21 52 51
          21 23 53 52 23 25 54 53 25 27 55 54
          27 29 56 55 29 31 57 56 31 33 58 57
          33 35 59 58 35 37 60 59 37 39 61 60
          39 41 62 61 42 43 64 63 43 44 65 64
          44 45 66 65 45 46 67 66 46 47 68 67
          47 48 69 68 48 49 70 69 49 50 71 70
          50 51 72 71 51 52 73 72 52 53 74 73
          53 54 75 74 54 55 76 75 55 56 77 76
          56 57 78 77 57 58 79 78 58 59 80 79
          59 60 81 80 60 61 82 81 61 62 83 82
          63 64 85 84 64 65 86 85 65 66 87 86
          66 67 88 87 67 68 89 88 68 69 90 89
          69 70 91 90 70 71 92 91 71 72 93 92
          72 73 94 93 73 74 95 94 74 75 96 95
          75 76 97 96 76 77 98 97 77 78 99 98
          78 79 100 99 79 80 101 100 80 81 102 101
          81 82 103 102 82 83 104 103 84 85 106 105
          85 86 107 106 86 87 108 107 87 88 109 108
          88 89 110 109 89 90 111 110 90 91 112 111
          91 92 113 112 92 93 114 113 93 94 115 114
          94 95 116 115 95 96 117 116 96 97 118 117
          97 98 119 118 98 99 120 119 99 100 121 120
          100 101 122 121 101 102 123 122 102 103 124 123
          103 104 125 124 105 106 127 126 106 107 128 127
          107 108 129 128 108 109 130 129 109 110 131 130
          110 111 132 131 111 112 133 132 112 113 134 133
          113 114 135 134 114 115 136 135 115 116 137 136
          116 117 138 137 117 118 139 138 118 119 140 139
          119 120 141 140 120 121 142 141 121 122 143 142
          122 123 144 143 123 124 145 144 124 125 146 145
          126 127 148 147 127 128 149 148 128 129 150 149
          129 130 151 150 130 131 152 151 131 132 153 152
          132 133 154 153 133 134 155 154 134 135 156 155
          135 136 157 156 136 137 158 157 137 138 159 158
          138 139 160 159 139 140 161 160 140 141 162 161
          141 142 163 162 142 143 164 163 143 144 165 164
          144 145 166 165 145 146 167 166 147 148 169 168
          148 149 170 169 149 150 171 170 150 151 172 171
          151 152 173 172 152 153 174 173 153 154 175 174
          154 155 176 175 155 156 177 176 156 157 178 177
          157 158 179 178 158 159 180 179 159 160 181 180
          160 161 182 181 161 162 183 182 162 163 184 183
          163 164 185 184 164 165 186 185 165 166 187 186
          166 167 188 187 168 169 190 189 169 170 191 190
          170 171 192 191 171 172 193 192 172 173 194 193
          173 174 195 194 174 175 196 195 175 176 197 196
          176 177 198 197 177 178 199 198 178 179 200 199
          179 180 201 200 180 181 202 201 181 182 203 202
          182 183 204 203 183 184 205 204 184 185 206 205
          185 186 207 206 186 187 208 207 187 188 209 208
          189 190 211 210 190 191 212 211 191 192 213 212
          192 193 214 213 193 194 215 214 194 195 216 215
          195 196 217 216 196 197 218 217 197 198 219 218
          198 199 220 219 199 200 221 220 200 201 222 221
          201 202 223 222 202 203 224 223 203 204 225 224
          204 205 226 225 205 206 227 226 206 207 228 227
          207 208 229 228 208 209 230 229
        </DataArray>
        <DataArray type="Int32" Name="offsets" NumberOfComponents="1" format="ascii">
          4 8 12 16 20 24 28 32 36 40 44 48
          52 56 60 64 68 72 76 80 84 88 92 96
          100 104 108 112 116 120 124 128 132 136 140 144
          148 152 156 160 164 168 172 176 180 184 188 192
          196 200 204 208 212 216 220 224 228 232 236 240
          244 248 252 256 260 264 268 272 276 280 284 288
          292 296 300 304 308 312 316 320 324 328 332 336
          340 344 348 352 356 360 364 368 372 376 380 384
          388 392 396 400 404 408 412 416 420 424 428 432
          436 440 444 448 452 456 460 464 468 472 476 480
          484 488 492 496 500 504 508 512 516 520 524 528
          532 536 540 544 548 552 556 560 564 568 572 576
          580 584 588 592 596 600 604 608 612 616 620 624
          628 632 636 640 644 648 652 656 660 664 668 672
          676 680 684 688 692 696 700 704 708 712 716 720
          724 728 732 736 740 744 748 752 756 760 764 768
          772 776 780 784 788 792 796 800
        </DataArray>
        <DataArray type="UInt8" Name="types" NumberOfComponents="1" format="ascii">
          9 9 9 9 9 9 9 9 9 9 9 9
          9 9 9 9 9 9 9 9 9 9 9 9
          9 9 9 9 9 9 9 9 9 9 9 9
          9 9 9 9 9 9 9 9 9 9 9 9
          9 9 9 9 9 9 9 9 9 9 9 9
          9 9 9 9 9 9 9 9 9 9 9 9
          9 9 9 9 9 9 9 9 9 9 9 9
          9 9 9 9 9 9 9 9 9 9 9 9
          9 9 9 9 9 9 9 9 9 9 9 9
          9 9 9 9 9 9 9 9 9 9 9 9
          9 9 9 9 9 9 9 9 9 9 9 9
          9 9 9 9 9 9 9 9 9 9 9 9
          9 9 9 9 9 9 9 9 9 9 9 9
          9 9 9 9 9 9 9 9 9 9 9 9
          9 9 9 9 9 9 9 9 9 9 9 9
          9 9 9 9 9 9 9 9 9 9 9 9
          9 9 9 9 9 9 9 9
        </DataArray>
      </Cells>
    </Piece>
  </UnstructuredGrid>
</VTKFile>
