<?xml version="1.0"?>
<VTKFile type="UnstructuredGrid" version="0.1" byte_order="LittleEndian">
  <UnstructuredGrid>
    <Piece NumberOfCells="200" NumberOfPoints="231">
      <PointData Scalars="Sg" Vectors="velocityW">
        <DataArray type="Float32" Name="Sg" NumberOfComponents="1" format="ascii">
          0.05 0.0302391 0.05 0.0450697 0.02192 0.0374154 0 0 0 0 0 0
          0 0 0 0 0 0 0 0 0 0 0 0
          0 0 0 0 0.0258503 0.0571775 0.061978 0.0899974 0.0899913 0.137245 0.19658 0.379178
          0.576141 0.627203 0.61366 0.633816 0.8 0.8 0.05 0.0508813 0.044694 0 0 0
          0 0 0 0 0 0 0 0 0.0687093 0.105885 0.175333 0.493629
          0.630965 0.633847 0.8 0.05 0.0520965 0.047716 0 0 0 0 0 0
          0 0 0 0 0 0.075037 0.117868 0.218406 0.560966 0.63157 0.633848 0.8
          0.05 0.0519302 0.0486559 0 0 0 0 0 0 0 0 0
          0 0 0.0792529 0.128209 0.268675 0.598395 0.631719 0.633849 0.8 0.05 0.051608 0.0489286
          0 0 0 0 0 0 0 0 0 0 0 0.0827112
          0.13841 0.328135 0.617832 0.631767 0.63385 0.8 0.05 0.0513459 0.0490665 0 0 0
          0 0 0 0 0 0 0 0 0.0861942 0.150164 0.393572 0.626496
          0.631784 0.633851 0.8 0.05 0.0511367 0.0491776 0 0 0 0 0 0
          0 0 0 0 0 0.0902677 0.165406 0.459475 0.629841 0.631803 0.633864 0.8
          0.05 0.0509643 0.0492542 0 0 0 0 0 0 0 0 0
          0 0 0.0954788 0.187868 0.5225 0.631208 0.631982 0.634031 0.8 0.05 0.051008 0.0494645
          0 0 0 0 0 0 0 0 0 0 0 0.103909
          0.233148 0.581553 0.633474 0.633806 0.635751 0.8 0.05 0.068454 0.0800999 0 0 0
          0 0 0 0 0 0 0 0.042327 0.177972 0.445703 0.643397 0.648713
          0.648832 0.650173 0.8
        </DataArray>
        <DataArray type="Float32" Name="Sl" NumberOfComponents="1" format="ascii">
          0.95 0.969761 0.95 0.95493 0.97808 0.962585 1 1 1 1 1 1
          1 1 1 1 1 1 1 1 1 1 1 1
          1 1 1 1 0.97415 0.942823 0.938022 0.910003 0.910009 0.862755 0.80342 0.620822
          0.423859 0.372797 0.38634 0.366184 0.2 0.2 0.95 0.949119 0.955306 1 1 1
          1 1 1 1 1 1 1 1 0.931291 0.894114 0.824667 0.506371
          0.369035 0.366153 0.2 0.95 0.947903 0.952284 1 1 1 1 1 1
          1 1 1 1 1 0.924963 0.882132 0.781594 0.439034 0.36843 0.366152 0.2
          0.95 0.94807 0.951344 1 1 1 1 1 1 1 1 1
          1 1 0.920747 0.871791 0.731325 0.401605 0.368281 0.366151 0.2 0.95 0.948392 0.951071
          1 1 1 1 1 1 1 1 1 1 1 0.917289
          0.86159 0.671865 0.382168 0.368233 0.36615 0.2 0.95 0.948654 0.950933 1 1 1
          1 1 1 1 1 1 1 1 0.913806 0.849836 0.606428 0.373504
          0.368216 0.366149 0.2 0.95 0.948863 0.950822 1 1 1 1 1 1
          1 1 1 1 1 0.909732 0.834594 0.540525 0.370159 0.368197 0.366136 0.2
          0.95 0.949036 0.950746 1 1 1 1 1 1 1 1 1
          1 1 0.904521 0.812132 0.4775 0.368792 0.368018 0.365969 0.2 0.95 0.948992 0.950535
          1 1 1 1 1 1 1 1 1 1 1 0.896091
          0.766852 0.418447 0.366526 0.366194 0.364249 0.2 0.95 0.931546 0.9199 1 1 1
          1 1 1 1 1 1 1 0.957673 0.822028 0.554297 0.356603 0.351287
          0.351168 0.349827 0.2
        </DataArray>
        <DataArray type="Float32" Name="pg" NumberOfComponents="1" format="ascii">
          1.3e+07 1.29986e+07 1.3e+07 1.29901e+07 1.29823e+07 1.29734e+07 1.29646e+07 1.29539e+07 1.28541e+07 1.2846e+07 1.2633e+07 1.26254e+07
          1.23741e+07 1.23646e+07 1.21013e+07 1.2091e+07 1.18222e+07 1.18115e+07 1.154e+07 1.15291e+07 1.13776e+07 1.13667e+07 1.13358e+07 1.13248e+07
          1.12936e+07 1.12827e+07 1.12509e+07 1.12401e+07 1.12061e+07 1.11965e+07 1.11532e+07 1.11418e+07 1.1092e+07 1.10809e+07 1.10305e+07 1.10188e+07
          1.10086e+07 1.10095e+07 1.10058e+07 1.1005e+07 1.1e+07 1.1e+07 1.3e+07 1.29842e+07 1.29648e+07 1.29427e+07 1.28438e+07 1.2625e+07
          1.23578e+07 1.2082e+07 1.18014e+07 1.15185e+07 1.13558e+07 1.1314e+07 1.12719e+07 1.12295e+07 1.11869e+07 1.11308e+07 1.10685e+07 1.1016e+07
          1.10094e+07 1.10047e+07 1.1e+07 1.3e+07 1.29795e+07 1.29568e+07 1.2932e+07 1.28437e+07 1.26279e+07 1.23531e+07 1.2074e+07 1.17918e+07
          1.1508e+07 1.13449e+07 1.13031e+07 1.12612e+07 1.1219e+07 1.1177e+07 1.11199e+07 1.10556e+07 1.1015e+07 1.10093e+07 1.10046e+07 1.1e+07
          1.3e+07 1.29752e+07 1.29493e+07 1.2922e+07 1.28435e+07 1.26314e+07 1.23495e+07 1.20667e+07 1.17826e+07 1.14977e+07 1.13342e+07 1.12923e+07
          1.12504e+07 1.12086e+07 1.11669e+07 1.11093e+07 1.10435e+07 1.10147e+07 1.10093e+07 1.10045e+07 1.1e+07 1.3e+07 1.29712e+07 1.2942e+07
          1.29124e+07 1.28426e+07 1.26343e+07 1.23462e+07 1.20597e+07 1.17736e+07 1.14874e+07 1.13234e+07 1.12815e+07 1.12397e+07 1.11981e+07 1.11567e+07
          1.1099e+07 1.10338e+07 1.10145e+07 1.10092e+07 1.10044e+07 1.1e+07 1.3e+07 1.29672e+07 1.29347e+07 1.29029e+07 1.28408e+07 1.2636e+07
          1.23425e+07 1.20526e+07 1.17645e+07 1.14771e+07 1.13126e+07 1.12707e+07 1.1229e+07 1.11875e+07 1.11464e+07 1.10889e+07 1.10273e+07 1.10143e+07
          1.10091e+07 1.10043e+07 1.1e+07 1.3e+07 1.29631e+07 1.29274e+07 1.28931e+07 1.28379e+07 1.26364e+07 1.23379e+07 1.2045e+07 1.17552e+07
          1.14668e+07 1.13018e+07 1.12599e+07 1.12182e+07 1.11768e+07 1.11359e+07 1.10786e+07 1.10233e+07 1.10141e+07 1.10088e+07 1.10041e+07 1.1e+07
          1.3e+07 1.29584e+07 1.29198e+07 1.28829e+07 1.28334e+07 1.26349e+07 1.23317e+07 1.20366e+07 1.17455e+07 1.14563e+07 1.12909e+07 1.12491e+07
          1.12073e+07 1.11659e+07 1.11252e+07 1.10673e+07 1.10213e+07 1.10138e+07 1.10085e+07 1.10038e+07 1.1e+07 1.3e+07 1.29526e+07 1.29118e+07
          1.28727e+07 1.28259e+07 1.26296e+07 1.23235e+07 1.20273e+07 1.17353e+07 1.14456e+07 1.128e+07 1.12381e+07 1.11964e+07 1.11547e+07 1.11144e+07
          1.10543e+07 1.10209e+07 1.10135e+07 1.10079e+07 1.10033e+07 1.1e+07 1.3e+07 1.29448e+07 1.29032e+07 1.28651e+07 1.28129e+07 1.26157e+07
          1.23139e+07 1.20168e+07 1.17246e+07 1.14347e+07 1.12691e+07 1.12272e+07 1.11855e+07 1.11438e+07 1.11032e+07 1.10422e+07 1.10218e+07 1.10128e+07
          1.10072e+07 1.10025e+07 1.1e+07
        </DataArray>
        <DataArray type="Float32" Name="pl" NumberOfComponents="1" format="ascii">
          1.29995e+07 1.29981e+07 1.29995e+07 1.29896e+07 1.29818e+07 1.29729e+07 1.29641e+07 1.29534e+07 1.28536e+07 1.28455e+07 1.26325e+07 1.26249e+07
          1.23736e+07 1.23641e+07 1.21008e+07 1.20905e+07 1.18217e+07 1.1811e+07 1.15395e+07 1.15286e+07 1.13771e+07 1.13662e+07 1.13353e+07 1.13243e+07
          1.12931e+07 1.12822e+07 1.12504e+07 1.12396e+07 1.12056e+07 1.1196e+07 1.11526e+07 1.11413e+07 1.10915e+07 1.10804e+07 1.10299e+07 1.10181e+07
          1.10076e+07 1.10084e+07 1.10048e+07 1.10039e+07 1.09925e+07 1.09925e+07 1.29995e+07 1.29837e+07 1.29643e+07 1.29422e+07 1.28433e+07 1.26245e+07
          1.23573e+07 1.20815e+07 1.18009e+07 1.1518e+07 1.13553e+07 1.13135e+07 1.12714e+07 1.1229e+07 1.11863e+07 1.11303e+07 1.10679e+07 1.10152e+07
          1.10083e+07 1.10036e+07 1.09925e+07 1.29995e+07 1.29789e+07 1.29563e+07 1.29315e+07 1.28432e+07 1.26274e+07 1.23526e+07 1.20735e+07 1.17913e+07
          1.15075e+07 1.13444e+07 1.13026e+07 1.12607e+07 1.12185e+07 1.11764e+07 1.11194e+07 1.1055e+07 1.10141e+07 1.10082e+07 1.10035e+07 1.09925e+07
          1.29995e+07 1.29747e+07 1.29488e+07 1.29215e+07 1.2843e+07 1.26309e+07 1.2349e+07 1.20662e+07 1.17821e+07 1.14972e+07 1.13337e+07 1.12918e+07
          1.12499e+07 1.12081e+07 1.11664e+07 1.11088e+07 1.10429e+07 1.10137e+07 1.10082e+07 1.10034e+07 1.09925e+07 1.29995e+07 1.29707e+07 1.29415e+07
          1.29119e+07 1.28421e+07 1.26338e+07 1.23457e+07 1.20592e+07 1.17731e+07 1.14869e+07 1.13229e+07 1.1281e+07 1.12392e+07 1.11976e+07 1.11562e+07
          1.10985e+07 1.10332e+07 1.10135e+07 1.10081e+07 1.10033e+07 1.09925e+07 1.29995e+07 1.29667e+07 1.29342e+07 1.29024e+07 1.28403e+07 1.26355e+07
          1.2342e+07 1.20521e+07 1.1764e+07 1.14766e+07 1.13121e+07 1.12702e+07 1.12285e+07 1.1187e+07 1.11459e+07 1.10884e+07 1.10266e+07 1.10132e+07
          1.1008e+07 1.10032e+07 1.09925e+07 1.29995e+07 1.29625e+07 1.29269e+07 1.28926e+07 1.28374e+07 1.26359e+07 1.23374e+07 1.20445e+07 1.17547e+07
          1.14663e+07 1.13013e+07 1.12594e+07 1.12177e+07 1.11763e+07 1.11354e+07 1.10781e+07 1.10225e+07 1.1013e+07 1.10077e+07 1.1003e+07 1.09925e+07
          1.29995e+07 1.29579e+07 1.29192e+07 1.28824e+07 1.28329e+07 1.26344e+07 1.23312e+07 1.20361e+07 1.1745e+07 1.14558e+07 1.12904e+07 1.12486e+07
          1.12068e+07 1.11654e+07 1.11247e+07 1.10668e+07 1.10204e+07 1.10127e+07 1.10074e+07 1.10027e+07 1.09925e+07 1.29995e+07 1.29521e+07 1.29113e+07
          1.28722e+07 1.28254e+07 1.26291e+07 1.2323e+07 1.20268e+07 1.17348e+07 1.14451e+07 1.12795e+07 1.12376e+07 1.11959e+07 1.11542e+07 1.11138e+07
          1.10537e+07 1.102e+07 1.10124e+07 1.10068e+07 1.10022e+07 1.09925e+07 1.29995e+07 1.29443e+07 1.29027e+07 1.28646e+07 1.28124e+07 1.26152e+07
          1.23134e+07 1.20163e+07 1.17241e+07 1.14342e+07 1.12686e+07 1.12267e+07 1.1185e+07 1.11433e+07 1.11026e+07 1.10415e+07 1.10207e+07 1.10116e+07
          1.1006e+07 1.10014e+07 1.09925e+07
        </DataArray>
        <DataArray type="Float32" Name="pc" NumberOfComponents="1" format="ascii">
          516.075 509.408 516.075 514.387 506.677 511.799 499.687 499.687 499.687 499.687 499.687 499.687
          499.687 499.687 499.687 499.687 499.687 499.687 499.687 499.687 499.687 499.687 499.687 499.687
          499.687 499.687 499.687 499.687 507.962 518.562 520.246 530.412 530.41 548.993 575.352 688.96
          944.619 1075.17 1035.36 1096.35 7500 7500 516.075 516.378 514.259 499.687 499.687 499.687
          499.687 499.687 499.687 499.687 499.687 499.687 499.687 499.687 522.635 536.448 565.482 807.457
          1087.06 1096.45 7500 516.075 516.798 515.291 499.687 499.687 499.687 499.687 499.687 499.687
          499.687 499.687 499.687 499.687 499.687 524.911 541.139 586.048 914.142 1089.02 1096.46 7500
          516.075 516.74 515.613 499.687 499.687 499.687 499.687 499.687 499.687 499.687 499.687 499.687
          499.687 499.687 526.444 545.288 613.145 995.389 1089.5 1096.46 7500 516.075 516.629 515.707
          499.687 499.687 499.687 499.687 499.687 499.687 499.687 499.687 499.687 499.687 499.687 527.711
          549.476 650.631 1047.15 1089.65 1096.46 7500 516.075 516.539 515.754 499.687 499.687 499.687
          499.687 499.687 499.687 499.687 499.687 499.687 499.687 499.687 528.997 554.423 701.055 1072.97
          1089.71 1096.46 7500 516.075 516.466 515.792 499.687 499.687 499.687 499.687 499.687 499.687
          499.687 499.687 499.687 499.687 499.687 530.513 561.042 765.894 1083.47 1089.77 1096.51 7500
          516.075 516.407 515.819 499.687 499.687 499.687 499.687 499.687 499.687 499.687 499.687 499.687
          499.687 499.687 532.471 571.243 848.422 1087.85 1090.35 1097.06 7500 516.075 516.422 515.891
          499.687 499.687 499.687 499.687 499.687 499.687 499.687 499.687 499.687 499.687 499.687 535.686
          593.62 956.248 1095.22 1096.32 1102.79 7500 516.075 522.544 526.753 499.687 499.687 499.687
          499.687 499.687 499.687 499.687 499.687 499.687 499.687 513.455 566.681 750.862 1129.39 1149.06
          1149.51 1154.64 7500
        </DataArray>
        <DataArray type="Float32" Name="rhoL" NumberOfComponents="1" format="ascii">
          928.515 933.143 928.515 929.964 940.667 935.54 1068.71 1062.76 1125.7 1126 1125.23 1125.54
          1124.66 1124.95 1123.96 1124.22 1123.15 1123.36 1122.22 1122.38 1120.54 1120.62 1119.06 1119.05
          1117.88 1117.79 1117.04 1116.89 1116.62 1116.62 1116.6 1116.6 1116.58 1116.57 1116.55 1116.55
          1116.54 1116.54 1116.54 1116.54 1218.97 1218.97 928.515 929.02 932.316 1022.8 1126.28 1125.87
          1125.29 1124.57 1123.7 1122.7 1120.85 1119.19 1117.84 1116.86 1116.62 1116.59 1116.57 1116.55
          1116.54 1116.54 1218.97 928.515 928.751 930.767 997.843 1126.45 1126.07 1125.52 1124.81 1123.94
          1122.93 1121.05 1119.32 1117.9 1116.86 1116.61 1116.59 1116.56 1116.54 1116.54 1116.54 1218.97
          928.515 928.635 929.927 981.553 1126.57 1126.22 1125.69 1125 1124.14 1123.12 1121.2 1119.43
          1117.95 1116.87 1116.61 1116.58 1116.56 1116.54 1116.54 1116.54 1218.97 928.515 928.575 929.428
          970.156 1126.65 1126.33 1125.83 1125.16 1124.3 1123.29 1121.34 1119.52 1118 1116.87 1116.6
          1116.58 1116.55 1116.54 1116.54 1116.54 1218.97 928.515 928.541 929.11 961.28 1126.71 1126.42
          1125.94 1125.29 1124.46 1123.44 1121.47 1119.61 1118.04 1116.87 1116.6 1116.58 1116.55 1116.54
          1116.54 1116.54 1218.97 928.515 928.52 928.901 953.679 1126.76 1126.49 1126.05 1125.42 1124.6
          1123.59 1121.61 1119.7 1118.08 1116.87 1116.59 1116.57 1116.55 1116.54 1116.54 1116.54 1218.97
          928.515 928.507 928.765 947.338 1126.8 1126.56 1126.14 1125.54 1124.74 1123.74 1121.73 1119.79
          1118.12 1116.86 1116.59 1116.57 1116.55 1116.54 1116.54 1116.54 1218.97 928.515 928.498 928.688
          943.674 1126.83 1126.62 1126.23 1125.65 1124.86 1123.87 1121.85 1119.86 1118.13 1116.83 1116.59
          1116.56 1116.55 1116.54 1116.54 1116.54 1218.97 928.515 928.49 928.697 956.219 1126.66 1126.4
          1125.98 1125.39 1124.61 1123.63 1121.61 1119.59 1117.79 1116.6 1116.58 1116.56 1116.55 1116.54
          1116.54 1116.54 1218.97
        </DataArray>
        <DataArray type="Float32" Name="rhoG" NumberOfComponents="1" format="ascii">
          107.068 107.058 107.068 106.986 106.926 106.849 106.784 106.692 105.867 105.796 104.03 103.963
          101.878 101.796 99.6119 99.5229 97.2945 97.203 94.9533 94.8607 93.6188 93.5266 93.2872 93.1962
          92.9496 92.8598 92.604 92.5152 92.2354 92.1554 91.7944 91.7001 91.2848 91.1926 90.7728 90.675
          90.59 90.5976 90.5669 90.56 90.6021 90.6021 107.068 106.937 106.777 106.596 105.775 103.956
          101.735 99.4439 97.1153 94.7684 93.4331 93.1038 92.7691 92.4274 92.075 91.6081 91.0891 90.6518
          90.5969 90.5577 90.6021 107.068 106.897 106.709 106.506 105.772 103.977 101.693 99.3747 97.0328
          94.6785 93.3407 93.012 92.6789 92.3403 91.9927 91.5176 90.9819 90.6436 90.5962 90.5565 90.6021
          107.068 106.862 106.646 106.421 105.769 104.005 101.661 99.3119 96.9539 94.5903 93.2489 92.9208
          92.589 92.2531 91.9089 91.4291 90.8811 90.6408 90.5958 90.5557 90.6021 107.068 106.828 106.585
          106.34 105.761 104.028 101.632 99.2519 96.8766 94.5029 93.1575 92.8298 92.4992 92.1655 91.8241
          91.3433 90.8005 90.6395 90.5952 90.5549 90.6021 107.068 106.795 106.525 106.261 105.745 104.042
          101.601 99.1911 96.7992 94.4155 93.0662 92.7387 92.4092 92.0771 91.7382 91.2593 90.7458 90.6378
          90.5941 90.5539 90.6021 107.068 106.76 106.463 106.179 105.72 104.044 101.561 99.1264 96.7201
          94.3275 92.9746 92.6475 92.3187 91.9877 91.6508 91.1736 90.7126 90.6358 90.5921 90.5525 90.6021
          107.068 106.721 106.4 106.094 105.682 104.03 101.508 99.0553 96.638 94.2384 92.8828 92.5559
          92.2277 91.8971 91.5613 91.0795 90.6958 90.6337 90.5891 90.5501 90.6021 107.068 106.673 106.333
          106.009 105.62 103.986 101.439 98.9764 96.5518 94.1478 92.7905 92.4641 92.1367 91.8047 91.4711
          90.9706 90.6928 90.6311 90.5845 90.5463 90.6021 107.068 106.608 106.262 105.947 105.513 103.873
          101.362 98.8917 96.4651 94.0596 92.7018 92.3759 92.0493 91.7166 91.378 90.8701 90.7003 90.625
          90.5781 90.5397 90.6021
        </DataArray>
        <DataArray type="Float32" Name="mobL" NumberOfComponents="1" format="ascii">
          4371.14 4533.53 4371.14 4373.87 4370.03 4247.87 3020.03 3040.21 2955.05 2955.3 2954.76 2955.01
          2954.42 2954.63 2954 2954.19 2953.53 2953.67 2953.02 2953.12 2952.13 2952.17 2951.47 2951.47
          2951.05 2951.02 2950.8 2950.76 2600.38 2204.34 2147.9 1839.83 1839.89 1396.85 959.881 227.056
          18.1816 6.45472 8.72901 5.52198 0 0 4371.14 4305.56 4244.43 3256.53 2955.53 2955.26
          2954.9 2954.44 2953.9 2953.32 2952.3 2951.53 2951.04 2950.76 2070.61 1680.59 1102.38 63.7864
          5.91082 5.51785 0 4371.14 4299.04 4262.38 3494.14 2955.67 2955.43 2955.08 2954.63 2954.08
          2953.48 2952.4 2951.59 2951.06 2950.76 1999.87 1567.52 828.355 23.636 5.82656 5.51768 0
          4371.14 4312.93 4292.32 3722.99 2955.76 2955.55 2955.22 2954.77 2954.22 2953.6 2952.49 2951.63
          2951.08 2950.76 1953.75 1474.6 577.005 11.9603 5.80597 5.5176 0 4371.14 4325.9 4319.19
          3936.36 2955.83 2955.64 2955.33 2954.89 2954.34 2953.72 2952.57 2951.68 2951.09 2950.76 1916.52
          1387.05 358.928 7.97315 5.79942 5.51752 0 4371.14 4335.23 4338.62 4144.9 2955.89 2955.71
          2955.42 2955 2954.46 2953.83 2952.64 2951.72 2951.11 2950.76 1879.57 1291.08 197.547 6.56105
          5.79704 5.51733 0 4371.14 4342.03 4351.88 4362.63 2955.93 2955.78 2955.51 2955.11 2954.57
          2953.93 2952.72 2951.76 2951.13 2950.76 1837.03 1174.15 97.3495 6.06951 5.7944 5.51556 0
          4371.14 4347.18 4360.93 4580.27 2955.97 2955.84 2955.59 2955.21 2954.68 2954.04 2952.8 2951.8
          2951.14 2950.76 1783.67 1016.53 42.9329 5.87682 5.76977 5.49352 0 4371.14 4346.83 4362.28
          4724.97 2956 2955.89 2955.66 2955.29 2954.77 2954.13 2952.87 2951.84 2951.15 2950.75 1699.81
          747.511 16.4862 5.56752 5.52328 5.2693 0 4371.14 3956.12 3691.48 4284.76 2955.85 2955.71
          2955.46 2955.09 2954.58 2953.96 2952.73 2951.72 2951.03 2385.97 1083.87 114.079 4.35451 3.79262
          3.78069 3.64836 0
        </DataArray>
        <DataArray type="Float32" Name="mobG" NumberOfComponents="1" format="ascii">
          19.0304 4.09502 19.0304 13.8887 1.50781 7.87457 0 0 0 0 0 0
          0 0 0 0 0 0 0 0 0 0 0 0
          0 0 0 0 2.52098 28.5449 36.3922 111.078 111.056 386.054 1095.61 6889.56
          20321.1 24918.9 23662 25541.7 42559.3 42559.3 19.0304 20.0644 13.5397 0 0 0
          0 0 0 0 0 0 0 0 49.6052 179.906 787.684 13799.9
          25272.4 25544.6 42559.3 19.0304 21.5499 16.5156 0 0 0 0 0 0
          0 0 0 0 0 64.5845 246.879 1481.46 19032.9 25329.5 25544.8 42559.3
          19.0304 21.3424 17.5221 0 0 0 0 0 0 0 0 0
          0 0 76.0467 316.164 2664.32 22276.9 25343.6 25544.8 42559.3 19.0304 20.9443 17.8215
          0 0 0 0 0 0 0 0 0 0 0 86.3842
          395.724 4646.1 24046.4 25348.1 25544.9 42559.3 19.0304 20.624 17.9742 0 0 0
          0 0 0 0 0 0 0 0 97.6833 502.134 7615.67 24852.7
          25349.7 25545 42559.3 19.0304 20.3708 18.0978 0 0 0 0 0 0
          0 0 0 0 0 112.073 665.248 11467.7 25166.7 25351.5 25546.3 42559.3
          19.0304 20.1636 18.1833 0 0 0 0 0 0 0 0 0
          0 0 132.41 961.565 15943.5 25295.4 25368.4 25562 42559.3 19.0304 20.2159 18.4196
          0 0 0 0 0 0 0 0 0 0 0 170.154
          1784.45 20789.5 25509.4 25540.8 25725 42559.3 19.0304 49.0543 78.499 0 0 0
          0 0 0 0 0 0 0 11.4737 822.471 10591.6 26454.2 26965.6
          26977.1 27106.6 42559.3
        </DataArray>
        <DataArray type="Float32" Name="porosity" NumberOfComponents="1" format="ascii">
          0.11 0.11 0.11 0.11 0.11 0.11 0.109742 0.109722 0.0597998 0.0600633 0.0575216 0.057521
          0.0575079 0.0575099 0.0574977 0.0575014 0.0574902 0.0574924 0.0574831 0.0574868 0.105379 0.105398 0.105367 0.105385
          0.105359 0.105375 0.105353 0.105367 0.105325 0.10531 0.105297 0.105297 0.105296 0.105296 0.105295 0.105295
          0.105293 0.105293 0.105288 0.105288 0.11 0.11 0.11 0.11 0.11 0.109899 0.0640825 0.0575244
          0.0575127 0.0575035 0.0574953 0.0574885 0.105409 0.105395 0.105384 0.105376 0.105308 0.105297 0.105296 0.105295
          0.105293 0.105288 0.11 0.11 0.11 0.11 0.109948 0.068248 0.0575272 0.0575146 0.057505 0.0574973
          0.0574897 0.105414 0.105401 0.10539 0.105381 0.105307 0.105297 0.105296 0.105295 0.105293 0.105288 0.11
          0.11 0.11 0.11 0.109968 0.071969 0.0575294 0.0575159 0.0575064 0.0574987 0.0574906 0.105417 0.105405
          0.105394 0.105385 0.105307 0.105297 0.105296 0.105295 0.105293 0.105288 0.11 0.11 0.11 0.11
          0.109977 0.0753704 0.0575314 0.057517 0.0575077 0.0574999 0.0574916 0.105419 0.105407 0.105398 0.105389 0.105308
          0.105297 0.105296 0.105295 0.105293 0.105288 0.11 0.11 0.11 0.11 0.109983 0.078771 0.0575333
          0.0575179 0.0575089 0.0575009 0.0574924 0.105421 0.10541 0.105401 0.105392 0.105308 0.105297 0.105296 0.105295
          0.105293 0.105288 0.11 0.11 0.11 0.11 0.109988 0.0827968 0.0575355 0.0575189 0.0575101 0.0575019
          0.0574932 0.105424 0.105414 0.105405 0.105396 0.105308 0.105297 0.105296 0.105295 0.105293 0.105288 0.11
          0.11 0.11 0.11 0.109992 0.0886492 0.057538 0.05752 0.0575128 0.057503 0.0574949 0.105427 0.105418
          0.10541 0.1054 0.105307 0.105297 0.105296 0.105295 0.105293 0.105288 0.11 0.11 0.11 0.11
          0.109995 0.0995474 0.0575411 0.0575212 0.0575153 0.0575042 0.0574966 0.105432 0.105425 0.105416 0.105406 0.105306
          0.105297 0.105296 0.105295 0.105293 0.105288 0.11 0.11 0.11 0.11 0.109988 0.0782144 0.0575393
          0.0575247 0.0575163 0.0575078 0.0574992 0.105464 0.10546 0.105446 0.105392 0.105298 0.105297 0.105296 0.105295
          0.105293 0.105288 0.11
        </DataArray>
        <DataArray type="Float32" Name="permeabilityFactor" NumberOfComponents="1" format="ascii">
          1 1 1 1 1 1 0.992416 0.991825 0.143966 0.145959 0.127512 0.127508
          0.127417 0.127431 0.127347 0.127373 0.127295 0.12731 0.127246 0.127271 0.870132 0.870638 0.869815 0.870299
          0.869595 0.870016 0.869452 0.869816 0.868691 0.868294 0.867954 0.867954 0.867927 0.867927 0.867888 0.867887
          0.867827 0.867826 0.86771 0.867709 1 1 1 1 1 0.99703 0.178791 0.127532
          0.127451 0.127387 0.12733 0.127284 0.870923 0.87057 0.870267 0.870046 0.868227 0.867953 0.867926 0.867887
          0.867827 0.86771 1 1 1 1 0.998465 0.217907 0.127551 0.127464 0.127398 0.127344
          0.127291 0.871059 0.870722 0.870431 0.870198 0.868217 0.867953 0.867925 0.867887 0.867827 0.86771 1
          1 1 1 0.999055 0.257581 0.127567 0.127473 0.127407 0.127354 0.127298 0.871137 0.870817
          0.870544 0.870307 0.868222 0.867953 0.867925 0.867887 0.867827 0.86771 1 1 1 1
          0.999331 0.298036 0.12758 0.12748 0.127416 0.127362 0.127305 0.8712 0.870892 0.870637 0.870397 0.868229
          0.867953 0.867925 0.867887 0.867827 0.867711 1 1 1 1 0.999513 0.342741 0.127593
          0.127487 0.127425 0.127369 0.127311 0.871263 0.870967 0.870729 0.870485 0.868233 0.867952 0.867925 0.867888
          0.867827 0.867711 1 1 1 1 0.999655 0.401525 0.127608 0.127494 0.127432 0.127376
          0.127316 0.871331 0.871062 0.87083 0.870583 0.868231 0.867952 0.867925 0.867888 0.867827 0.867712 1
          1 1 1 0.999753 0.499177 0.127626 0.127501 0.127451 0.127384 0.127327 0.87141 0.87118
          0.870951 0.870698 0.868214 0.867952 0.867925 0.867888 0.867827 0.867712 1 1 1 1
          0.999849 0.724053 0.127647 0.12751 0.127468 0.127392 0.12734 0.871556 0.871361 0.871117 0.870843 0.868179
          0.867951 0.867925 0.867888 0.867827 0.867712 1 1 1 1 0.999645 0.335121 0.127635
          0.127534 0.127475 0.127417 0.127358 0.872414 0.872299 0.871919 0.870488 0.86797 0.867949 0.867924 0.867887
          0.867827 0.867712 1
        </DataArray>
        <DataArray type="Float32" Name="temperature" NumberOfComponents="1" format="ascii">
          418.15 418.15 418.15 418.15 418.15 418.15 418.15 418.15 418.15 418.15 418.15 418.15
          418.15 418.15 418.15 418.15 418.15 418.15 418.15 418.15 418.15 418.15 418.15 418.15
          418.15 418.15 418.15 418.15 418.15 418.15 418.15 418.15 418.15 418.15 418.15 418.15
          418.15 418.15 418.15 418.15 418.15 418.15 418.15 418.15 418.15 418.15 418.15 418.15
          418.15 418.15 418.15 418.15 418.15 418.15 418.15 418.15 418.15 418.15 418.15 418.15
          418.15 418.15 418.15 418.15 418.15 418.15 418.15 418.15 418.15 418.15 418.15 418.15
          418.15 418.15 418.15 418.15 418.15 418.15 418.15 418.15 418.15 418.15 418.15 418.15
          418.15 418.15 418.15 418.15 418.15 418.15 418.15 418.15 418.15 418.15 418.15 418.15
          418.15 418.15 418.15 418.15 418.15 418.15 418.15 418.15 418.15 418.15 418.15 418.15
          418.15 418.15 418.15 418.15 418.15 418.15 418.15 418.15 418.15 418.15 418.15 418.15
          418.15 418.15 418.15 418.15 418.15 418.15 418.15 418.15 418.15 418.15 418.15 418.15
          418.15 418.15 418.15 418.15 418.15 418.15 418.15 418.15 418.15 418.15 418.15 418.15
          418.15 418.15 418.15 418.15 418.15 418.15 418.15 418.15 418.15 418.15 418.15 418.15
          418.15 418.15 418.15 418.15 418.15 418.15 418.15 418.15 418.15 418.15 418.15 418.15
          418.15 418.15 418.15 418.15 418.15 418.15 418.15 418.15 418.15 418.15 418.15 418.15
          418.15 418.15 418.15 418.15 418.15 418.15 418.15 418.15 418.15 418.15 418.15 418.15
          418.15 418.15 418.15 418.15 418.15 418.15 418.15 418.15 418.15 418.15 418.15 418.15
          418.15 418.15 418.15 418.15 418.15 418.15 418.15 418.15 418.15 418.15 418.15 418.15
          418.15 418.15 418.15 418.15 418.15 418.15 418.15 418.15 418.15 418.15 418.15 418.15
          418.15 418.15 418.15
        </DataArray>
        <DataArray type="Float32" Name="phase presence" NumberOfComponents="1" format="ascii">
          3 3 3 3 3 3 1 1 1 1 1 1
          1 1 1 1 1 1 1 1 1 1 1 1
          1 1 1 1 3 3 3 3 3 3 3 3
          3 3 3 3 3 3 3 3 3 1 1 1
          1 1 1 1 1 1 1 1 3 3 3 3
          3 3 3 3 3 3 1 1 1 1 1 1
          1 1 1 1 1 3 3 3 3 3 3 3
          3 3 3 1 1 1 1 1 1 1 1 1
          1 1 3 3 3 3 3 3 3 3 3 3
          1 1 1 1 1 1 1 1 1 1 1 3
          3 3 3 3 3 3 3 3 3 1 1 1
          1 1 1 1 1 1 1 1 3 3 3 3
          3 3 3 3 3 3 1 1 1 1 1 1
          1 1 1 1 1 3 3 3 3 3 3 3
          3 3 3 1 1 1 1 1 1 1 1 1
          1 1 3 3 3 3 3 3 3 3 3 3
          1 1 1 1 1 1 1 1 1 1 1 3
          3 3 3 3 3 3 3 3 3 1 1 1
          1 1 1 1 1 1 1 3 3 3 3 3
          3 3 3
        </DataArray>
        <DataArray type="Float32" Name="precipitateVolumeFraction_NaCl" NumberOfComponents="1" format="ascii">
          0 8.74952e-12 0 8.74952e-12 1.015e-10 1.0245e-10 0.000257601 0.000277753 0.0502002 0.0499367 0.0524784 0.052479
          0.0524921 0.0524901 0.0525023 0.0524986 0.0525098 0.0525076 0.0525169 0.0525132 0.00462107 0.00460213 0.00463292 0.00461482
          0.00464117 0.0046254 0.00464654 0.0046329 0.00467502 0.0046899 0.00470265 0.00470266 0.00470367 0.00470369 0.00470515 0.00470518
          0.00470744 0.00470744 0.00471183 0.00471184 0 0 0 8.74952e-12 1.02029e-10 0.000100711 0.0459175 0.0524756
          0.0524873 0.0524965 0.0525047 0.0525115 0.00459147 0.00460469 0.00461602 0.00462427 0.00469244 0.00470268 0.00470371 0.00470518
          0.00470744 0.00471182 0 0 8.74952e-12 1.01707e-10 5.20434e-05 0.041752 0.0524728 0.0524854 0.052495 0.0525027
          0.0525103 0.00458637 0.00459898 0.00460988 0.00461859 0.00469282 0.0047027 0.00470373 0.00470517 0.00470744 0.00471181 0
          0 8.74952e-12 1.01432e-10 3.20238e-05 0.038031 0.0524706 0.0524841 0.0524936 0.0525013 0.0525094 0.00458346 0.00459545
          0.00460563 0.00461453 0.00469262 0.00470271 0.00470375 0.00470517 0.00470743 0.0047118 0 0 8.74952e-12 1.01173e-10
          2.26542e-05 0.0346296 0.0524686 0.052483 0.0524923 0.0525001 0.0525084 0.00458109 0.00459263 0.00460216 0.00461115 0.00469236
          0.00470271 0.00470375 0.00470516 0.00470742 0.00471178 0 0 8.74952e-12 1.00912e-10 1.65142e-05 0.031229 0.0524667
          0.0524821 0.0524911 0.0524991 0.0525076 0.00457876 0.00458984 0.00459872 0.00460784 0.0046922 0.00470272 0.00470375 0.00470515
          0.00470741 0.00471177 0 0 8.74952e-12 1.00631e-10 1.16957e-05 0.0272032 0.0524645 0.0524811 0.0524899 0.0524981
          0.0525068 0.00457621 0.00458627 0.00459493 0.00460417 0.00469229 0.00470273 0.00470375 0.00470515 0.00470741 0.00471175 0
          0 8.74952e-12 1.00296e-10 8.37256e-06 0.0213508 0.052462 0.05248 0.0524872 0.052497 0.0525051 0.00457326 0.00458185
          0.00459042 0.00459987 0.00469292 0.00470274 0.00470374 0.00470515 0.0047074 0.00471174 0 0 8.74952e-12 9.98662e-11
          5.12796e-06 0.0104526 0.0524589 0.0524788 0.0524847 0.0524958 0.0525034 0.00456778 0.00457509 0.0045842 0.00459444 0.00469423
          0.00470276 0.00470374 0.00470515 0.0047074 0.00471173 0 0 8.74953e-12 1.00915e-10 1.20112e-05 0.0317856 0.0524607
          0.0524753 0.0524837 0.0524922 0.0525008 0.00453573 0.00454003 0.00455424 0.00460774 0.00470206 0.00470284 0.00470378 0.00470516
          0.00470741 0.00471173 0
        </DataArray>
        <DataArray type="Float32" Name="Kxx" NumberOfComponents="1" format="ascii">
          2.23e-14 2.23e-14 2.23e-14 2.23e-14 2.23e-14 2.23e-14 2.21309e-14 2.21177e-14 3.21045e-15 3.25489e-15 2.84352e-15 2.84343e-15
          2.84141e-15 2.84172e-15 2.83984e-15 2.84041e-15 2.83868e-15 2.83902e-15 2.83758e-15 2.83815e-15 1.94039e-14 1.94152e-14 1.93969e-14 1.94077e-14
          1.9392e-14 1.94014e-14 1.93888e-14 1.93969e-14 1.93718e-14 1.9363e-14 1.93554e-14 1.93554e-14 1.93548e-14 1.93548e-14 1.93539e-14 1.93539e-14
          1.93525e-14 1.93525e-14 1.93499e-14 1.93499e-14 2.23e-14 2.23e-14 2.23e-14 2.23e-14 2.23e-14 2.22338e-14 3.98704e-15 2.84396e-15
          2.84215e-15 2.84074e-15 2.83947e-15 2.83843e-15 1.94216e-14 1.94137e-14 1.94069e-14 1.9402e-14 1.93615e-14 1.93554e-14 1.93547e-14 1.93539e-14
          1.93525e-14 1.93499e-14 2.23e-14 2.23e-14 2.23e-14 2.23e-14 2.22658e-14 4.85932e-15 2.84439e-15 2.84244e-15 2.84097e-15 2.83977e-15
          2.8386e-15 1.94246e-14 1.94171e-14 1.94106e-14 1.94054e-14 1.93612e-14 1.93554e-14 1.93547e-14 1.93539e-14 1.93525e-14 1.93499e-14 2.23e-14
          2.23e-14 2.23e-14 2.23e-14 2.22789e-14 5.74405e-15 2.84473e-15 2.84264e-15 2.84118e-15 2.83999e-15 2.83875e-15 1.94264e-14 1.94192e-14