<?xml version="1.0"?>
<VTKFile type="UnstructuredGrid" version="0.1" byte_order="LittleEndian">
  <UnstructuredGrid>
    <Piece NumberOfCells="200" NumberOfPoints="231">
      <PointData Scalars="porosity">
        <DataArray type="Float32" Name="porosity" NumberOfComponents="1" format="ascii">
          0.4 0.4 0.4 0.4 0.4 0.4 0.4 0.4 0.4 0.4 0.4 0.4
          0.4 0.4 0.4 0.4 0.4 0.4 0.4 0.4 0.4 0.4 0.4 0.4
          0.4 0.4 0.4 0.4 0.4 0.4 0.4 0.4 0.4 0.4 0.4 0.4
          0.4 0.4 0.4 0.4 0.4 0.4 0.4 0.4 0.4 0.4 0.4 0.4
          0.4 0.4 0.4 0.4 0.4 0.4 0.4 0.4 0.4 0.4 0.4 0.4
          0.4 0.4 0.4 0.4 0.4 0.4 0.4 0.4 0.4 0.4 0.4 0.4
          0.4 0.4 0.4 0.4 0.4 0.4 0.4 0.4 0.4 0.4 0.4 0.4
          0.4 0.4 0.4 0.4 0.4 0.4 0.4 0.4 0.4 0.4 0.4 0.4
          0.4 0.4 0.4 0.4 0.4 0.4 0.4 0.4 0.4 0.4 0.4 0.4
          0.4 0.4 0.4 0.4 0.4 0.4 0.4 0.4 0.4 0.4 0.4 0.4
          0.4 0.4 0.4 0.4 0.4 0.4 0.4 0.4 0.4 0.4 0.4 0.4
          0.4 0.4 0.4 0.4 0.4 0.4 0.4 0.4 0.4 0.4 0.4 0.4
          0.4 0.4 0.4 0.4 0.4 0.4 0.4 0.4 0.4 0.4 0.4 0.4
          0.4 0.4 0.4 0.4 0.4 0.4 0.4 0.4 0.4 0.4 0.4 0.4
          0.4 0.4 0.4 0.4 0.4 0.4 0.4 0.4 0.4 0.4 0.4 0.4
          0.4 0.4 0.4 0.4 0.4 0.4 0.4 0.4 0.4 0.4 0.4 0.4
          0.4 0.4 0.4 0.4 0.4 0.4 0.4 0.4 0.4 0.4 0.4 0.4
          0.4 0.4 0.4 0.4 0.4 0.4 0.4 0.4 0.4 0.4 0.4 0.4
          0.4 0.4 0.4 0.4 0.4 0.4 0.4 0.4 0.4 0.4 0.4 0.4
          0.4 0.4 0.4
        </DataArray>
        <DataArray type="Float32" Name="pc" NumberOfComponents="1" format="ascii">
          468274 468274 468274 468274 468274 468274 468274 468274 468274 468274 468274 468274
          468274 468274 468274 468274 468274 468274 468274 468274 468274 468274 468274 468274
          468274 468274 468274 468274 468274 468274 468274 468274 468274 468274 468274 468274
          468274 468274 468274 468274 468274 468274 468274 468274 468274 468274 468274 468274
          468274 468274 468274 468274 468274 468274 468274 468274 468274 468274 468274 468274
          468274 468274 468274 468274 468274 468274 413560 468274 468274 468274 468274 468274
          468274 468274 468274 468274 468274 382497 468274 468274 468274 468274 468274 468274
          468274 468274 468274 468274 468274 468274 468274 468274 468274 468274 468274 468274
          468274 468274 468274 468274 468274 468274 468274 468274 468274 468274 468274 468274
          468274 468274 468274 468274 468274 468274 468274 468274 468274 468274 468274 468274
          468274 468274 468274 468274 468274 468274 468274 468274 468274 468274 468274 468274
          468274 468274 468274 468274 468274 468274 468274 468274 468274 468274 468274 468274
          468274 468274 468274 468274 468274 468274 468274 468274 468274 468274 468274 468274
          468274 468274 468274 468274 468274 468274 468274 468274 468274 468274 468274 468274
          468274 468274 468274 468274 468274 468274 468274 468274 468274 468274 468274 468274
          468274 468274 468274 468274 468274 468274 468274 468274 468274 468274 468274 468274
          468274 468274 468274 468274 468274 468274 468274 468274 468274 468274 468274 468274
          468274 468274 468274 468274 468274 468274 468274 468274 468274 468274 468274 468274
          468274 468274 468274 468274 468274 468274 468274 468274 468274 468274 468274 468274
          468274 468274 468274
        </DataArray>
        <DataArray type="Float32" Name="S_liq" NumberOfComponents="1" format="ascii">
          1 1 1 1 1 1 1 1 1 1 1 1
          1 1 1 1 1 1 1 1 1 1 1 1
          1 1 1 1 1 1 1 1 1 1 1 1
          1 1 1 1 1 1 1 1 1 1 1 1
          1 1 1 1 1 1 1 1 1 1 1 1
          1 1 1 1 1 1 0.986213 1 1 1 1 1
          1 1 1 1 1 0.978385 1 1 1 1 1 1
          1 1 1 1 1 1 1 1 1 1 1 1
          1 1 1 1 1 1 1 1 1 1 1 1
          1 1 1 1 1 1 1 1 1 1 1 1
          1 1 1 1 1 1 1 1 1 1 1 1
          1 1 1 1 1 1 1 1 1 1 1 1
          1 1 1 1 1 1 1 1 1 1 1 1
          1 1 1 1 1 1 1 1 1 1 1 1
          1 1 1 1 1 1 1 1 1 1 1 1
          1 1 1 1 1 1 1 1 1 1 1 1
          1 1 1 1 1 1 1 1 1 1 1 1
          1 1 1 1 1 1 1 1 1 1 1 1
          1 1 1 1 1 1 1 1 1 1 1 1
          1 1 1
        </DataArray>
        <DataArray type="Float32" Name="p_liq" NumberOfComponents="1" format="ascii">
          648121 648120 644198 644198 648118 644195 648113 644190 648107 644184 648100 644176
          648091 644168 648082 644159 648073 644149 648063 644140 648054 644130 640278 640277
          640274 640268 640262 640254 640245 640235 640226 640216 640206 636359 636358 636355
          636349 636341 636332 636322 636312 636302 636292 636282 632440 632442 632438 632431
          632422 632411 632400 632390 632379 632368 632358 628559 628529 628526 628515 628503
          628490 628478 628467 628456 628445 628434 624474 624641 624618 624600 624584 624569
          624556 624544 624532 624521 624510 620740 620736 620709 620683 620663 620647 620633
          620620 620608 620597 620586 616884 616830 616786 616759 616739 616723 616708 616696
          616684 616673 616662 612903 612880 612852 612830 612811 612796 612783 612770 612759
          612748 612738 608934 608927 608912 608896 608881 608868 608856 608844 608834 608824
          608814 604983 604980 604971 604960 604949 604938 604928 604918 604908 604899 604890
          601040 601038 601033 601025 601017 601008 600999 600991 600982 600974 600966 597101
          597100 597097 597091 597085 597078 597071 597063 597056 597049 597042 593165 593164
          593162 593158 593153 593148 593142 593136 593130 593124 593118 589231 589231 589229
          589226 589222 589218 589213 589209 589204 589199 589194 585298 585298 585297 585295
          585292 585289 585285 585282 585278 585274 585270 581367 581366 581365 581364 581362
          581360 581357 581354 581352 581349 581346 577435 577435 577434 577434 577432 577431
          577429 577428 577426 577424 577422 573504 573504 573504 573504 573503 573502 573502
          573501 573500 573499 573498 569574 569574 569574 569574 569574 569574 569574 569574
          569574 569574 569574
        </DataArray>
        <DataArray type="Float32" Name="rho_liq" NumberOfComponents="1" format="ascii">
          999.952 999.952 999.95 999.95 999.952 999.95 999.952 999.95 999.952 999.95 999.952 999.95
          999.952 999.95 999.952 999.95 999.952 999.95 999.952 999.95 999.952 999.95 999.949 999.949
          999.948 999.948 999.948 999.948 999.948 999.948 999.948 999.948 999.948 999.946 999.947 999.947
          999.947 999.947 999.947 999.947 999.947 999.947 999.947 999.947 999.914 999.944 999.945 999.945
          999.945 999.945 999.945 999.945 999.945 999.945 999.945 978.324 999.88 999.943 999.943 999.943
          999.943 999.943 999.943 999.943 999.943 999.943 941.768 999.805 999.938 999.941 999.941 999.941
          999.941 999.941 999.941 999.941 999.941 938.52 998.537 999.911 999.939 999.939 999.939 999.939
          999.939 999.939 999.939 999.939 995.157 999.82 999.935 999.937 999.937 999.937 999.937 999.937
          999.937 999.937 999.937 999.79 999.932 999.935 999.935 999.935 999.935 999.935 999.935 999.935
          999.935 999.935 999.931 999.933 999.934 999.934 999.934 999.934 999.934 999.934 999.934 999.934
          999.933 999.932 999.932 999.932 999.932 999.932 999.932 999.932 999.932 999.932 999.932 999.932
          999.93 999.93 999.93 999.93 999.93 999.93 999.93 999.93 999.93 999.93 999.93 999.928
          999.928 999.928 999.928 999.928 999.928 999.928 999.928 999.928 999.928 999.928 999.926 999.926
          999.926 999.926 999.926 999.926 999.926 999.926 999.926 999.926 999.926 999.924 999.924 999.924
          999.924 999.924 999.924 999.924 999.924 999.924 999.924 999.924 999.922 999.922 999.922 999.922
          999.922 999.922 999.922 999.922 999.922 999.922 999.922 999.92 999.92 999.92 999.92 999.92
          999.92 999.92 999.92 999.92 999.92 999.92 999.919 999.919 999.919 999.919 999.919 999.919
          999.919 999.919 999.919 999.919 999.919 999.917 999.917 999.917 999.917 999.917 999.917 999.917
          999.917 999.917 999.917 999.917 999.915 999.915 999.915 999.915 999.915 999.915 999.915 999.915
          999.915 999.915 999.915
        </DataArray>
        <DataArray type="Float32" Name="mob_liq" NumberOfComponents="1" format="ascii">
          764.63 764.63 764.627 764.627 764.63 764.627 764.63 764.627 764.63 764.627 764.63 764.627
          764.63 764.627 764.63 764.627 764.63 764.627 764.63 764.627 764.63 764.627 764.625 764.625
          764.625 764.625 764.625 764.625 764.625 764.625 764.625 764.625 764.625 764.674 764.626 764.623
          764.623 764.623 764.623 764.623 764.623 764.623 764.623 764.623 774.447 764.961 764.624 764.621
          764.621 764.621 764.621 764.621 764.621 764.621 764.621 2456.88 782.355 764.705 764.62 764.619
          764.619 764.619 764.619 764.619 764.619 764.619 4379.76 795.19 765.548 764.634 764.617 764.617
          764.617 764.617 764.617 764.617 764.617 4531.73 983.973 773.542 764.795 764.617 764.615 764.615
          764.615 764.615 764.615 764.615 1315.76 791.873 765.446 764.629 764.613 764.613 764.613 764.613
          764.613 764.613 764.613 796.794 765.808 764.641 764.612 764.611 764.611 764.611 764.611 764.611
          764.611 764.611 765.522 764.639 764.61 764.609 764.609 764.609 764.609 764.609 764.609 764.609
          764.609 764.622 764.608 764.607 764.607 764.607 764.607 764.607 764.607 764.607 764.607 764.607
          764.605 764.605 764.605 764.605 764.605 764.605 764.605 764.605 764.605 764.605 764.605 764.603
          764.603 764.603 764.603 764.603 764.603 764.603 764.603 764.603 764.603 764.602 764.601 764.601
          764.601 764.601 764.601 764.601 764.601 764.601 764.6 764.6 764.6 764.599 764.599 764.599
          764.599 764.599 764.599 764.598 764.598 764.598 764.598 764.598 764.596 764.596 764.596 764.596
          764.596 764.596 764.596 764.596 764.596 764.596 764.596 764.594 764.594 764.594 764.594 764.594
          764.594 764.594 764.594 764.594 764.594 764.594 764.592 764.592 764.592 764.592 764.592 764.592
          764.592 764.592 764.592 764.592 764.592 764.59 764.59 764.59 764.59 764.59 764.59 764.59
          764.59 764.59 764.59 764.59 764.588 764.588 764.588 764.588 764.588 764.588 764.588 764.588
          764.588 764.588 764.588
        </DataArray>
        <DataArray type="Float32" Name="S_gas" NumberOfComponents="1" format="ascii">
          0 0 0 0 0 0 0 0 0 0 0 0
          0 0 0 0 0 0 0 0 0 0 0 0
          0 0 0 0 0 0 0 0 0 0 0 0
          0 0 0 0 0 0 0 0 0 0 0 0
          0 0 0 0 0 0 0 0 0 0 0 0
          0 0 0 0 0 0 0.0137872 0 0 0 0 0
          0 0 0 0 0 0.0216147 0 0 0 0 0 0
          0 0 0 0 0 0 0 0 0 0 0 0
          0 0 0 0 0 0 0 0 0 0 0 0
          0 0 0 0 0 0 0 0 0 0 0 0
          0 0 0 0 0 0 0 0 0 0 0 0
          0 0 0 0 0 0 0 0 0 0 0 0
          0 0 0 0 0 0 0 0 0 0 0 0
          0 0 0 0 0 0 0 0 0 0 0 0
          0 0 0 0 0 0 0 0 0 0 0 0
          0 0 0 0 0 0 0 0 0 0 0 0
          0 0 0 0 0 0 0 0 0 0 0 0
          0 0 0 0 0 0 0 0 0 0 0 0
          0 0 0 0 0 0 0 0 0 0 0 0
          0 0 0
        </DataArray>
        <DataArray type="Float32" Name="p_gas" NumberOfComponents="1" format="ascii">
          179848 179847 175925 175924 179844 175921 179839 175916 179833 175910 179826 175902
          179817 175894 179808 175885 179799 175875 179790 175866 179780 175856 172004 172003
          172000 171995 171988 171980 171971 171962 171952 171942 171932 168085 168084 168081
          168075 168067 168058 168049 168039 168029 168018 168008 164166 164168 164164 164157
          164148 164137 164127 164116 164105 164095 164084 160286 160255 160252 160241 160229
          160217 160205 160193 160182 160171 160160 210914 156367 156344 156326 156310 156296
          156282 156270 156258 156247 156236 238243 152463 152435 152409 152389 152373 152359
          152346 152335 152323 152312 148610 148556 148513 148485 148465 148449 148435 148422
          148410 148399 148388 144630 144606 144578 144556 144538 144522 144509 144497 144485
          144475 144464 140660 140653 140638 140622 140607 140594 140582 140571 140560 140550
          140540 136709 136706 136698 136687 136675 136664 136654 136644 136634 136625 136616
          132766 132764 132759 132752 132743 132734 132725 132717 132708 132700 132692 128828
          128826 128823 128817 128811 128804 128797 128790 128782 128775 128768 124892 124891
          124888 124884 124879 124874 124868 124862 124856 124850 124844 120957 120957 120955
          120952 120948 120944 120940 120935 120930 120925 120920 117025 117024 117023 117021
          117018 117015 117011 117008 117004 117000 116996 113093 113092 113091 113090 113088
          113086 113083 113081 113078 113075 113072 109161 109161 109161 109160 109159 109157
          109155 109154 109152 109150 109148 105231 105231 105230 105230 105229 105228 105228
          105227 105226 105225 105224 101300 101300 101300 101300 101300 101300 101300 101300
          101300 101300 101300
        </DataArray>
        <DataArray type="Float32" Name="rho_gas" NumberOfComponents="1" format="ascii">
          1.37889 1.37888 1.34881 1.34881 1.37886 1.34878 1.37883 1.34875 1.37878 1.3487 1.37872 1.34864
          1.37866 1.34858 1.37859 1.34851 1.37852 1.34844 1.37845 1.34836 1.37837 1.34829 1.31875 1.31874
          1.31872 1.31868 1.31863 1.31857 1.3185 1.31843 1.31835 1.31828 1.3182 1.2887 1.2887 1.28867
          1.28863 1.28857 1.2885 1.28843 1.28835 1.28827 1.28819 1.28812 1.25683 1.25861 1.25865 1.25859
          1.25852 1.25844 1.25836 1.25828 1.25819 1.25811 1.25803 1.02699 1.2254 1.22864 1.22857 1.22847
          1.22838 1.22829 1.2282 1.22811 1.22803 1.22794 1.18658 1.19319 1.19852 1.19855 1.19843 1.19832
          1.19821 1.19812 1.19803 1.19794 1.19786 1.32998 1.13203 1.16717 1.16848 1.16837 1.16824 1.16814
          1.16804 1.16795 1.16786 1.16777 1.05875 1.13419 1.1385 1.13843 1.13828 1.13815 1.13805 1.13795
          1.13786 1.13777 1.13769 1.10334 1.10849 1.10848 1.10831 1.10817 1.10805 1.10795 1.10785 1.10777
          1.10768 1.1076 1.07829 1.07838 1.07827 1.07815 1.07803 1.07793 1.07784 1.07775 1.07767 1.07759
          1.07752 1.04814 1.04812 1.04806 1.04797 1.04789 1.0478 1.04772 1.04765 1.04757 1.0475 1.04743
          1.01792 1.0179 1.01786 1.0178 1.01774 1.01767 1.0176 1.01754 1.01747 1.01741 1.01735 0.987718
          0.987708 0.987681 0.98764 0.987591 0.987537 0.987482 0.987426 0.987371 0.987316 0.987261 0.957541 0.957534
          0.957514 0.957484 0.957447 0.957405 0.957361 0.957315 0.957268 0.957222 0.957176 0.927377 0.927372 0.927358
          0.927336 0.927308 0.927276 0.927241 0.927204 0.927166 0.927128 0.92709 0.897224 0.897221 0.89721 0.897194
          0.897174 0.897149 0.897123 0.897094 0.897065 0.897035 0.897005 0.867078 0.867076 0.867069 0.867057 0.867043
          0.867025 0.867006 0.866985 0.866964 0.866941 0.866919 0.836937 0.836935 0.836931 0.836924 0.836914 0.836903
          0.836891 0.836877 0.836863 0.836848 0.836834 0.806799 0.806798 0.806796 0.806793 0.806788 0.806783 0.806776
          0.80677 0.806763 0.806755 0.806748 0.776663 0.776663 0.776663 0.776663 0.776663 0.776663 0.776663 0.776663
          0.776663 0.776663 0.776663
        </DataArray>
        <DataArray type="Float32" Name="mob_gas" NumberOfComponents="1" format="ascii">
          0 0 0 0 0 0 0 0 0 0 0 0
          0 0 0 0 0 0 0 0 0 0 0 0
          0 0 0 0 0 0 0 0 0 0 0 0
          0 0 0 0 0 0 0 0 0 0 0 0
          0 0 0 0 0 0 0 0 0 0 0 0
          0 0 0 0 0 0 0 0 0 0 0 0
          0 0 0 0 0 0 0 0 0 0 0 0
          0 0 0 0 0 0 0 0 0 0 0 0
          0 0 0 0 0 0 0 0 0 0 0 0
          0 0 0 0 0 0 0 0 0 0 0 0
          0 0 0 0 0 0 0 0 0 0 0 0
          0 0 0 0 0 0 0 0 0 0 0 0
          0 0 0 0 0 0 0 0 0 0 0 0
          0 0 0 0 0 0 0 0 0 0 0 0
          0 0 0 0 0 0 0 0 0 0 0 0
          0 0 0 0 0 0 0 0 0 0 0 0
          0 0 0 0 0 0 0 0 0 0 0 0
          0 0 0 0 0 0 0 0 0 0 0 0
          0 0 0 0 0 0 0 0 0 0 0 0
          0 0 0
        </DataArray>
        <DataArray type="Float32" Name="phase presence" NumberOfComponents="1" format="ascii">
          2 2 2 2 2 2 2 2 2 2 2 2
          2 2 2 2 2 2 2 2 2 2 2 2
          2 2 2 2 2 2 2 2 2 2 2 2
          2 2 2 2 2 2 2 2 2 2 2 2
          2 2 2 2 2 2 2 2 2 2 2 2
          2 2 2 2 2 2 1 2 2 2 2 2
          2 2 2 2 2 1 2 2 2 2 2 2
          2 2 2 2 2 2 2 2 2 2 2 2
          2 2 2 2 2 2 2 2 2 2 2 2
          2 2 2 2 2 2 2 2 2 2 2 2
          2 2 2 2 2 2 2 2 2 2 2 2
          2 2 2 2 2 2 2 2 2 2 2 2
          2 2 2 2 2 2 2 2 2 2 2 2
          2 2 2 2 2 2 2 2 2 2 2 2
          2 2 2 2 2 2 2 2 2 2 2 2
          2 2 2 2 2 2 2 2 2 2 2 2
          2 2 2 2 2 2 2 2 2 2 2 2
          2 2 2 2 2 2 2 2 2 2 2 2
          2 2 2 2 2 2 2 2 2 2 2 2
          2 2 2
        </DataArray>
        <DataArray type="Float32" Name="T" NumberOfComponents="1" format="ascii">
          283.13 283.13 283.13 283.13 283.13 283.13 283.13 283.13 283.13 283.13 283.13 283.13
          283.13 283.13 283.13 283.13 283.13 283.13 283.13 283.13 283.13 283.13 283.13 283.13
          283.13 283.13 283.13 283.13 283.13 283.13 283.13 283.13 283.13 283.132 283.13 283.13
          283.13 283.13 283.13 283.13 283.13 283.13 283.13 283.13 283.548 283.145 283.13 283.13
          283.13 283.13 283.13 283.13 283.13 283.13 283.13 342.587 283.898 283.134 283.13 283.13
          283.13 283.13 283.13 283.13 283.13 283.13 395.05 284.509 283.17 283.131 283.13 283.13
          283.13 283.13 283.13 283.13 283.13 398.984 292.613 283.51 283.138 283.13 283.13 283.13
          283.13 283.13 283.13 283.13 305.453 284.353 283.166 283.131 283.13 283.13 283.13 283.13
          283.13 283.13 283.13 284.584 283.181 283.131 283.13 283.13 283.13 283.13 283.13 283.13
          283.13 283.13 283.169 283.131 283.13 283.13 283.13 283.13 283.13 283.13 283.13 283.13
          283.13 283.131 283.13 283.13 283.13 283.13 283.13 283.13 283.13 283.13 283.13 283.13
          283.13 283.13 283.13 283.13 283.13 283.13 283.13 283.13 283.13 283.13 283.13 283.13
          283.13 283.13 283.13 283.13 283.13 283.13 283.13 283.13 283.13 283.13 283.13 283.13
          283.13 283.13 283.13 283.13 283.13 283.13 283.13 283.13 283.13 283.13 283.13 283.13
          283.13 283.13 283.13 283.13 283.13 283.13 283.13 283.13 283.13 283.13 283.13 283.13
          283.13 283.13 283.13 283.13 283.13 283.13 283.13 283.13 283.13 283.13 283.13 283.13
          283.13 283.13 283.13 283.13 283.13 283.13 283.13 283.13 283.13 283.13 283.13 283.13
          283.13 283.13 283.13 283.13 283.13 283.13 283.13 283.13 283.13 283.13 283.13 283.13
          283.13 283.13 283.13 283.13 283.13 283.13 283.13 283.13 283.13 283.13 283.13 283.13
          283.13 283.13 283.13
        </DataArray>
      </PointData>
      <CellData Scalars="process rank">
        <DataArray type="Float32" Name="process rank" NumberOfComponents="1" format="ascii">
          0 0 0 0 0 0 0 0 0 0 0 0
          0 0 0 0 0 0 0 0 0 0 0 0
          0 0 0 0 0 0 0 0 0 0 0 0
          0 0 0 0 0 0 0 0 0 0 0 0
          0 0 0 0 0 0 0 0 0 0 0 0
          0 0 0 0 0 0 0 0 0 0 0 0
          0 0 0 0 0 0 0 0 0 0 0 0
          0 0 0 0 0 0 0 0 0 0 0 0
          0 0 0 0 0 0 0 0 0 0 0 0
          0 0 0 0 0 0 0 0 0 0 0 0
          0 0 0 0 0 0 0 0 0 0 0 0
          0 0 0 0 0 0 0 0 0 0 0 0
          0 0 0 0 0 0 0 0 0 0 0 0
          0 0 0 0 0 0 0 0 0 0 0 0
          0 0 0 0 0 0 0 0 0 0 0 0
          0 0 0 0 0 0 0 0 0 0 0 0
          0 0 0 0 0 0 0 0
        </DataArray>
      </CellData>
      <Points>
        <DataArray type="Float32" Name="Coordinates" NumberOfComponents="3" format="ascii">
          0 0 0 0.4 0 0 0 0.4 0 0.4 0.4 0
          0.8 0 0 0.8 0.4 0 1.2 0 0 1.2 0.4 0
          1.6 0 0 1.6 0.4 0 2 0 0 2 0.4 0
          2.4 0 0 2.4 0.4 0 2.8 0 0 2.8 0.4 0
          3.2 0 0 3.2 0.4 0 3.6 0 0 3.6 0.4 0
          4 0 0 4 0.4 0 0 0.8 0 0.4 0.8 0
          0.8 0.8 0 1.2 0.8 0 1.6 0.8 0 2 0.8 0
          2.4 0.8 0 2.8 0.8 0 3.2 0.8 0 3.6 0.8 0
          4 0.8 0 0 1.2 0 0.4 1.2 0 0.8 1.2 0
          1.2 1.2 0 1.6 1.2 0 2 1.2 0 2.4 1.2 0
          2.8 1.2 0 3.2 1.2 0 3.6 1.2 0 4 1.2 0
          0 1.6 0 0.4 1.6 0 0.8 1.6 0 1.2 1.6 0
          1.6 1.6 0 2 1.6 0 2.4 1.6 0 2.8 1.6 0
          3.2 1.6 0 3.6 1.6 0 4 1.6 0 0 2 0
          0.4 2 0 0.8 2 0 1.2 2 0 1.6 2 0
          2 2 0 2.4 2 0 2.8 2 0 3.2 2 0
          3.6 2 0 4 2 0 0 2.4 0 0.4 2.4 0
          0.8 2.4 0 1.2 2.4 0 1.6 2.4 0 2 2.4 0
          2.4 2.4 0 2.8 2.4 0 3.2 2.4 0 3.6 2.4 0
          4 2.4 0 0 2.8 0 0.4 2.8 0 0.8 2.8 0
          1.2 2.8 0 1.6 2.8 0 2 2.8 0 2.4 2.8 0
          2.8 2.8 0 3.2 2.8 0 3.6 2.8 0 4 2.8 0
          0 3.2 0 0.4 3.2 0 0.8 3.2 0 1.2 3.2 0
          1.6 3.2 0 2 3.2 0 2.4 3.2 0 2.8 3.2 0
          3.2 3.2 0 3.6 3.2 0 4 3.2 0 0 3.6 0
          0.4 3.6 0 0.8 3.6 0 1.2 3.6 0 1.6 3.6 0
          2 3.6 0 2.4 3.6 0 2.8 3.6 0 3.2 3.6 0
          3.6 3.6 0 4 3.6 0 0 4 0 0.4 4 0
          0.8 4 0 1.2 4 0 1.6 4 0 2 4 0
          2.4 4 0 2.8 4 0 3.2 4 0 3.6 4 0
          4 4 0 0 4.4 0 0.4 4.4 0 0.8 4.4 0
          1.2 4.4 0 1.6 4.4 0 2 4.4 0 2.4 4.4 0
          2.8 4.4 0 3.2 4.4 0 3.6 4.4 0 4 4.4 0
          0 4.8 0 0.4 4.8 0 0.8 4.8 0 1.2 4.8 0
          1.6 4.8 0 2 4.8 0 2.4 4.8 0 2.8 4.8 0
          3.2 4.8 0 3.6 4.8 0 4 4.8 0 0 5.2 0
          0.4 5.2 0 0.8 5.2 0 1.2 5.2 0 1.6 5.2 0
          2 5.2 0 2.4 5.2 0 2.8 5.2 0 3.2 5.2 0
          3.6 5.2 0 4 5.2 0 0 5.6 0 0.4 5.6 0
          0.8 5.6 0 1.2 5.6 0 1.6 5.6 0 2 5.6 0
          2.4 5.6 0 2.8 5.6 0 3.2 5.6 0 3.6 5.6 0
          4 5.6 0 0 6 0 0.4 6 0 0.8 6 0
          1.2 6 0 1.6 6 0 2 6 0 2.4 6 0
          2.8 6 0 3.2 6 0 3.6 6 0 4 6 0
          0 6.4 0 0.4 6.4 0 0.8 6.4 0 1.2 6.4 0
          1.6 6.4 0 2 6.4 0 2.4 6.4 0 2.8 6.4 0
          3.2 6.4 0 3.6 6.4 0 4 6.4 0 0 6.8 0
          0.4 6.8 0 0.8 6.8 0 1.2 6.8 0 1.6 6.8 0
          2 6.8 0 2.4 6.8 0 2.8 6.8 0 3.2 6.8 0
          3.6 6.8 0 4 6.8 0 0 7.2 0 0.4 7.2 0
          0.8 7.2 0 1.2 7.2 0 1.6 7.2 0 2 7.2 0
          2.4 7.2 0 2.8 7.2 0 3.2 7.2 0 3.6 7.2 0
          4 7.2 0 0 7.6 0 0.4 7.6 0 0.8 7.6 0
          1.2 7.6 0 1.6 7.6 0 2 7.6 0 2.4 7.6 0
          2.8 7.6 0 3.2 7.6 0 3.6 7.6 0 4 7.6 0
          0 8 0 0.4 8 0 0.8 8 0 1.2 8 0
          1.6 8 0 2 8 0 2.4 8 0 2.8 8 0
          3.2 8 0 3.6 8 0 4 8 0
        </DataArray>
      </Points>
      <Cells>
        <DataArray type="Int32" Name="connectivity" NumberOfComponents="1" format="ascii">
          0 1 3 2 1 4 5 3 4 6 7 5
          6 8 9 7 8 10 11 9 10 12 13 11
          12 14 15 13 14 16 17 15 16 18 19 17
          18 20 21 19 2 3 23 22 3 5 24 23
          5 7 25 24 7 9 26 25 9 11 27 26
          11 13 28 27 13 15 29 28 15 17 30 29
          17 19 31 30 19 21 32 31 22 23 34 33
          23 24 35 34 24 25 36 35 25 26 37 36
          26 27 38 37 27 28 39 38 28 29 40 39
          29 30 41 40 30 31 42 41 31 32 43 42
          33 34 45 44 34 35 46 45 35 36 47 46
          36 37 48 47 37 38 49 48 38 39 50 49
          39 40 51 50 40 41 52 51 41 42 53 52
          42 43 54 53 44 45 56 55 45 46 57 56
          46 47 58 57 47 48 59 58 48 49 60 59
          49 50 61 60 50 51 62 61 51 52 63 62
          52 53 64 63 53 54 65 64 55 56 67 66
          56 57 68 67 57 58 69 68 58 59 70 69
          59 60 71 70 60 61 72 71 61 62 73 72
          62 63 74 73 63 64 75 74 64 65 76 75
          66 67 78 77 67 68 79 78 68 69 80 79
          69 70 81 80 70 71 82 81 71 72 83 82
          72 73 84 83 73 74 85 84 74 75 86 85
          75 76 87 86 77 78 89 88 78 79 90 89
          79 80 91 90 80 81 92 91 81 82 93 92
          82 83 94 93 83 84 95 94 84 85 96 95
          85 86 97 96 86 87 98 97 88 89 100 99
          89 90 101 100 90 91 102 101 91 92 103 102
          92 93 104 103 93 94 105 104 94 95 106 105
          95 96 107 106 96 97 108 107 97 98 109 108
          99 100 111 110 100 101 112 111 101 102 113 112
          102 103 114 113 103 104 115 114 104 105 116 115
          105 106 117 116 106 107 118 117 107 108 119 118
          108 109 120 119 110 111 122 121 111 112 123 122
          112 113 124 123 113 114 125 124 114 115 126 125
          115 116 127 126 116 117 128 127 117 118 129 128
          118 119 130 129 119 120 131 130 121 122 133 132
          122 123 134 133 123 124 135 134 124 125 136 135
          125 126 137 136 126 127 138 137 127 128 139 138
          128 129 140 139 129 130 141 140 130 131 142 141
          132 133 144 143 133 134 145 144 134 135 146 145
          135 136 147 146 136 137 148 147 137 138 149 148
          138 139 150 149 139 140 151 150 140 141 152 151
          141 142 153 152 143 144 155 154 144 145 156 155
          145 146 157 156 146 147 158 157 147 148 159 158
          148 149 160 159 149 150 161 160 150 151 162 161
          151 152 163 162 152 153 164 163 154 155 166 165
          155 156 167 166 156 157 168 167 157 158 169 168
          158 159 170 169 159 160 171 170 160 161 172 171
          161 162 173 172 162 163 174 173 163 164 175 174
          165 166 177 176 166 167 178 177 167 168 179 178
          168 169 180 179 169 170 181 180 170 171 182 181
          171 172 183 182 172 173 184 183 173 174 185 184
          174 175 186 185 176 177 188 187 177 178 189 188
          178 179 190 189 179 180 191 190 180 181 192 191
          181 182 193 192 182 183 194 193 183 184 195 194
          184 185 196 195 185 186 197 196 187 188 199 198
          188 189 200 199 189 190 201 200 190 191 202 201
          191 192 203 202 192 193 204 203 193 194 205 204
          194 195 206 205 195 196 207 206 196 197 208 207
          198 199 210 209 199 200 211 210 200 201 212 211
          201 202 213 212 202 203 214 213 203 204 215 214
          204 205 216 215 205 206 217 216 206 207 218 217
          207 208 219 218 209 210 221 220 210 211 222 221
          211 212 223 222 212 213 224 223 213 214 225 224
          214 215 226 225 215 216 227 226 216 217 228 227
          217 218 229 228 218 219 230 229
        </DataArray>
        <DataArray type="Int32" Name="offsets" NumberOfComponents="1" format="ascii">
          4 8 12 16 20 24 28 32 36 40 44 48
          52 56 60 64 68 72 76 80 84 88 92 96
          100 104 108 112 116 120 124 128 132 136 140 144
          148 152 156 160 164 168 172 176 180 184 188 192
          196 200 204 208 212 216 220 224 228 232 236 240
          244 248 252 256 260 264 268 272 276 280 284 288
          292 296 300 304 308 312 316 320 324 328 332 336
          340 344 348 352 356 360 364 368 372 376 380 384
          388 392 396 400 404 408 412 416 420 424 428 432
          436 440 444 448 452 456 460 464 468 472 476 480
          484 488 492 496 500 504 508 512 516 520 524 528
          532 536 540 544 548 552 556 560 564 568 572 576
          580 584 588 592 596 600 604 608 612 616 620 624
          628 632 636 640 644 648 652 656 660 664 668 672
          676 680 684 688 692 696 700 704 708 712 716 720
          724 728 732 736 740 744 748 752 756 760 764 768
          772 776 780 784 788 792 796 800
        </DataArray>
        <DataArray type="UInt8" Name="types" NumberOfComponents="1" format="ascii">
          9 9 9 9 9 9 9 9 9 9 9 9
          9 9 9 9 9 9 9 9 9 9 9 9
          9 9 9 9 9 9 9 9 9 9 9 9
          9 9 9 9 9 9 9 9 9 9 9 9
          9 9 9 9 9 9 9 9 9 9 9 9
          9 9 9 9 9 9 9 9 9 9 9 9
          9 9 9 9 9 9 9 9 9 9 9 9
          9 9 9 9 9 9 9 9 9 9 9 9
          9 9 9 9 9 9 9 9 9 9 9 9
          9 9 9 9 9 9 9 9 9 9 9 9
          9 9 9 9 9 9 9 9 9 9 9 9
          9 9 9 9 9 9 9 9 9 9 9 9
          9 9 9 9 9 9 9 9 9 9 9 9
          9 9 9 9 9 9 9 9 9 9 9 9
          9 9 9 9 9 9 9 9 9 9 9 9
          9 9 9 9 9 9 9 9 9 9 9 9
          9 9 9 9 9 9 9 9
        </DataArray>
      </Cells>
    </Piece>
  </UnstructuredGrid>
</VTKFile>
