<?xml version="1.0"?>
<VTKFile type="UnstructuredGrid" version="0.1" byte_order="LittleEndian">
  <UnstructuredGrid>
    <Piece NumberOfCells="200" NumberOfPoints="231">
      <PointData Scalars="S_w">
        <DataArray type="Float32" Name="S_w" NumberOfComponents="1" format="ascii">
          1 1 1 1 1 1 1 1 1 1 1 1
          1 1 1 1 1 1 1 1 1 1 1 1
          1 1 1 1 1 1 1 1 1 1 1 1
          1 1 1 1 1 1 1 1 1 1 1 1
          1 1 1 1 1 1 1 1 1 1 1 1
          1 1 1 1 1 1 0.79171 1 1 1 1 1
          1 1 1 1 1 0.71017 1 1 1 1 1 1
          1 1 1 1 1 1 1 1 1 1 1 1
          1 1 1 1 1 1 1 1 1 1 1 1
          1 1 1 1 1 1 1 1 1 1 1 1
          1 1 1 1 1 1 1 1 1 1 1 1
          1 1 1 1 1 1 1 1 1 1 1 1
          1 1 1 1 1 1 1 1 1 1 1 1
          1 1 1 1 1 1 1 1 1 1 1 1
          1 1 1 1 1 1 1 1 1 1 1 1
          1 1 1 1 1 1 1 1 1 1 1 1
          1 1 1 1 1 1 1 1 1 1 1 1
          1 1 1 1 1 1 1 1 1 1 1 1
          1 1 1 1 1 1 1 1 1 1 1 1
          1 1 1
        </DataArray>
        <DataArray type="Float32" Name="S_n" NumberOfComponents="1" format="ascii">
          0 0 0 0 0 0 0 0 0 0 0 0
          0 0 0 0 0 0 0 0 0 0 0 0
          0 0 0 0 0 0 0 0 0 0 0 0
          0 0 0 0 0 0 0 0 0 0 0 0
          0 0 0 0 0 0 0 0 0 0 0 0
          0 0 0 0 0 0 0.20829 0 0 0 0 0
          0 0 0 0 0 0.28983 0 0 0 0 0 0
          0 0 0 0 0 0 0 0 0 0 0 0
          0 0 0 0 0 0 0 0 0 0 0 0
          0 0 0 0 0 0 0 0 0 0 0 0
          0 0 0 0 0 0 0 0 0 0 0 0
          0 0 0 0 0 0 0 0 0 0 0 0
          0 0 0 0 0 0 0 0 0 0 0 0
          0 0 0 0 0 0 0 0 0 0 0 0
          0 0 0 0 0 0 0 0 0 0 0 0
          0 0 0 0 0 0 0 0 0 0 0 0
          0 0 0 0 0 0 0 0 0 0 0 0
          0 0 0 0 0 0 0 0 0 0 0 0
          0 0 0 0 0 0 0 0 0 0 0 0
          0 0 0
        </DataArray>
        <DataArray type="Float32" Name="p_w" NumberOfComponents="1" format="ascii">
          179934 179932 176014 176011 179924 176003 179913 175992 179898 175976 179880 175958
          179861 175939 179841 175919 179821 175898 179800 175877 179780 175856 172098 172096
          172087 172074 172057 172038 172017 171996 171975 171953 171932 168189 168186 168176
          168160 168140 168118 168096 168074 168052 168030 168008 164284 164285 164271 164248
          164224 164200 164176 164152 164129 164107 164084 160395 160410 160371 160338 160308
          160280 160254 160230 160206 160183 160160 156677 156518 156468 156426 156390 156359
          156332 156306 156282 156259 156236 152955 152588 152555 152506 152467 152435 152407
          152382 152358 152335 152312 148678 148703 148622 148575 148538 148507 148480 148455
          148432 148410 148388 144739 144708 144672 144635 144604 144576 144551 144528 144506
          144485 144464 140747 140737 140715 140690 140665 140642 140620 140599 140579 140559
          140540 136780 136775 136762 136744 136725 136706 136687 136669 136651 136633 136616
          132824 132821 132812 132800 132785 132770 132754 132738 132723 132707 132692 128874
          128872 128866 128857 128846 128834 128821 128808 128795 128781 128768 124929 124928
          124923 124917 124908 124899 124888 124877 124866 124855 124844 120987 120986 120983
          120978 120972 120964 120956 120947 120938 120929 120920 117047 117047 117044 117041
          117036 117030 117024 117017 117010 117003 116996 113109 113109 113107 113105 113101
          113097 113093 113088 113083 113077 113072 109172 109172 109171 109169 109167 109164
          109162 109158 109155 109152 109148 105236 105236 105235 105234 105233 105232 105231
          105229 105227 105226 105224 101300 101300 101300 101300 101300 101300 101300 101300
          101300 101300 101300
        </DataArray>
        <DataArray type="Float32" Name="p_n" NumberOfComponents="1" format="ascii">
          179934 179932 176014 176011 179924 176003 179913 175992 179898 175976 179880 175958
          179861 175939 179841 175919 179821 175898 179800 175877 179780 175856 172098 172096
          172087 172074 172057 172038 172017 171996 171975 171953 171932 168189 168186 168176
          168160 168140 168118 168096 168074 168052 168030 168008 164284 164285 164271 164248
          164224 164200 164176 164152 164129 164107 164084 160395 160410 160371 160338 160308
          160280 160254 160230 160206 160183 160160 156974 156518 156468 156426 156390 156359
          156332 156306 156282 156259 156236 153342 152588 152555 152506 152467 152435 152407
          152382 152358 152335 152312 148678 148703 148622 148575 148538 148507 148480 148455
          148432 148410 148388 144739 144708 144672 144635 144604 144576 144551 144528 144506
          144485 144464 140747 140737 140715 140690 140665 140642 140620 140599 140579 140559
          140540 136780 136775 136762 136744 136725 136706 136687 136669 136651 136633 136616
          132824 132821 132812 132800 132785 132770 132754 132738 132723 132707 132692 128874
          128872 128866 128857 128846 128834 128821 128808 128795 128781 128768 124929 124928
          124923 124917 124908 124899 124888 124877 124866 124855 124844 120987 120986 120983
          120978 120972 120964 120956 120947 120938 120929 120920 117047 117047 117044 117041
          117036 117030 117024 117017 117010 117003 116996 113109 113109 113107 113105 113101
          113097 113093 113088 113083 113077 113072 109172 109172 109171 109169 109167 109164
          109162 109158 109155 109152 109148 105236 105236 105235 105234 105233 105232 105231
          105229 105227 105226 105224 101300 101300 101300 101300 101300 101300 101300 101300
          101300 101300 101300
        </DataArray>
        <DataArray type="Float32" Name="pc" NumberOfComponents="1" format="ascii">
          0 0 0 0 0 0 0 0 0 0 0 0
          0 0 0 0 0 0 0 0 0 0 0 0
          0 0 0 0 0 0 0 0 0 0 0 0
          0 0 0 0 0 0 0 0 0 0 0 0
          0 0 0 0 0 0 0 0 0 0 0 0
          0 0 0 0 0 0 297.293 0 0 0 0 0
          0 0 0 0 0 387.236 0 0 0 0 0 0
          0 0 0 0 0 0 0 0 0 0 0 0
          0 0 0 0 0 0 0 0 0 0 0 0
          0 0 0 0 0 0 0 0 0 0 0 0
          0 0 0 0 0 0 0 0 0 0 0 0
          0 0 0 0 0 0 0 0 0 0 0 0
          0 0 0 0 0 0 0 0 0 0 0 0
          0 0 0 0 0 0 0 0 0 0 0 0
          0 0 0 0 0 0 0 0 0 0 0 0
          0 0 0 0 0 0 0 0 0 0 0 0
          0 0 0 0 0 0 0 0 0 0 0 0
          0 0 0 0 0 0 0 0 0 0 0 0
          0 0 0 0 0 0 0 0 0 0 0 0
          0 0 0
        </DataArray>
        <DataArray type="Float32" Name="rho_w" NumberOfComponents="1" format="ascii">
          999.729 999.729 999.727 999.727 999.729 999.727 999.729 999.727 999.729 999.727 999.729 999.727
          999.729 999.727 999.729 999.727 999.729 999.727 999.729 999.727 999.729 999.727 999.725 999.725
          999.725 999.725 999.725 999.725 999.725 999.725 999.725 999.725 999.725 999.722 999.723 999.723
          999.723 999.723 999.723 999.723 999.723 999.723 999.723 999.723 999.616 999.719 999.721 999.721
          999.721 999.721 999.721 999.721 999.721 999.721 999.721 977.363 999.605 999.718 999.719 999.719
          999.719 999.719 999.719 999.719 999.719 999.719 948.857 998.746 999.705 999.717 999.717 999.717
          999.717 999.717 999.717 999.717 999.717 949.4 997.06 999.668 999.714 999.716 999.716 999.716
          999.716 999.715 999.715 999.715 988.284 999.513 999.709 999.714 999.714 999.714 999.714 999.714
          999.714 999.714 999.714 999.487 999.706 999.712 999.712 999.712 999.712 999.712 999.712 999.712
          999.712 999.712 999.705 999.71 999.71 999.71 999.71 999.71 999.71 999.71 999.71 999.71
          999.71 999.708 999.708 999.708 999.708 999.708 999.708 999.708 999.708 999.708 999.708 999.708
          999.706 999.706 999.706 999.706 999.706 999.706 999.706 999.706 999.706 999.706 999.706 999.704
          999.704 999.704 999.704 999.704 999.704 999.704 999.704 999.704 999.704 999.704 999.702 999.702
          999.702 999.702 999.702 999.702 999.702 999.702 999.702 999.702 999.702 999.701 999.701 999.701
          999.701 999.701 999.701 999.701 999.701 999.7 999.7 999.7 999.699 999.699 999.699 999.699
          999.699 999.699 999.699 999.699 999.699 999.699 999.699 999.697 999.697 999.697 999.697 999.697
          999.697 999.697 999.697 999.697 999.697 999.697 999.695 999.695 999.695 999.695 999.695 999.695
          999.695 999.695 999.695 999.695 999.695 999.693 999.693 999.693 999.693 999.693 999.693 999.693
          999.693 999.693 999.693 999.693 999.691 999.691 999.691 999.691 999.691 999.691 999.691 999.691
          999.691 999.691 999.691
        </DataArray>
        <DataArray type="Float32" Name="rho_n" NumberOfComponents="1" format="ascii">
          1.37955 1.37953 1.3495 1.34948 1.37948 1.34942 1.37939 1.34933 1.37928 1.34921 1.37914 1.34907
          1.379 1.34892 1.37884 1.34877 1.37868 1.34861 1.37853 1.34845 1.37837 1.34829 1.31948 1.31946
          1.31939 1.31929 1.31916 1.31901 1.31886 1.31869 1.31853 1.31837 1.3182 1.28945 1.28948 1.2894
          1.28928 1.28913 1.28896 1.28879 1.28862 1.28845 1.28828 1.28812 1.25465 1.25945 1.25946 1.25929
          1.2591 1.25892 1.25873 1.25855 1.25838 1.2582 1.25803 1.0241 1.22476 1.22949 1.22931 1.22908
          1.22887 1.22867 1.22848 1.2283 1.22812 1.22795 0.899997 1.17059 1.19893 1.1993 1.19904 1.1988
          1.19859 1.1984 1.19821 1.19804 1.19786 0.880498 1.1125 1.16702 1.16919 1.16896 1.16872 1.1685
          1.16831 1.16812 1.16795 1.16777 1.00593 1.13255 1.13922 1.13912 1.13884 1.1386 1.13839 1.1382
          1.13803 1.13786 1.13769 1.10158 1.10915 1.10919 1.10892 1.10867 1.10846 1.10827 1.10809 1.10792
          1.10776 1.1076 1.07885 1.07902 1.07886 1.07867 1.07848 1.0783 1.07813 1.07797 1.07781 1.07766
          1.07752 1.04868 1.04865 1.04855 1.04842 1.04827 1.04812 1.04798 1.04784 1.0477 1.04757 1.04743
          1.01836 1.01833 1.01827 1.01817 1.01806 1.01794 1.01782 1.0177 1.01758 1.01746 1.01735 0.988075
          0.988059 0.988014 0.987945 0.987861 0.987767 0.987668 0.987567 0.987465 0.987363 0.987261 0.957828 0.957817
          0.957784 0.957733 0.957669 0.957595 0.957515 0.957432 0.957347 0.957262 0.957176 0.927605 0.927597 0.927573
          0.927535 0.927486 0.927429 0.927366 0.927299 0.927231 0.927161 0.92709 0.897399 0.897393 0.897375 0.897348
          0.897311 0.897268 0.89722 0.897169 0.897115 0.89706 0.897005 0.867205 0.867201 0.867189 0.867169 0.867143
          0.867112 0.867077 0.86704 0.867 0.86696 0.866919 0.83702 0.837017 0.837009 0.836997 0.83698 0.83696
          0.836937 0.836913 0.836887 0.836861 0.836834 0.80684 0.806839 0.806835 0.806829 0.806821 0.806811 0.8068
          0.806787 0.806775 0.806762 0.806748 0.776663 0.776663 0.776663 0.776663 0.776663 0.776663 0.776663 0.776663
          0.776663 0.776663 0.776663
        </DataArray>
        <DataArray type="Float32" Name="mob_w" NumberOfComponents="1" format="ascii">
          764.381 764.381 764.378 764.378 764.381 764.378 764.381 764.378 764.381 764.378 764.381 764.378
          764.381 764.378 764.381 764.378 764.381 764.378 764.381 764.378 764.381 764.378 764.378 764.376
          764.376 764.376 764.376 764.376 764.376 764.376 764.376 764.376 764.376 764.642 764.382 764.374
          764.374 764.374 764.374 764.374 764.374 764.374 764.374 764.374 789.74 765.006 764.381 764.372
          764.372 764.372 764.372 764.372 764.372 764.372 764.372 2504.04 791.26 764.776 764.375 764.37
          764.37 764.37 764.37 764.37 764.37 764.37 458.525 932.15 768.303 764.432 764.369 764.368
          764.368 764.368 764.368 764.368 764.368 231.31 1123.86 779.537 764.749 764.372 764.366 764.366
          764.366 764.366 764.366 764.366 1814.98 807.009 765.892 764.397 764.365 764.364 764.364 764.364
          764.364 764.364 764.364 811.577 766.334 764.42 764.363 764.362 764.362 764.362 764.362 764.362
          764.362 764.362 765.918 764.415 764.362 764.36 764.36 764.36 764.36 764.36 764.36 764.36
          764.36 764.388 764.36 764.358 764.358 764.358 764.358 764.358 764.358 764.358 764.358 764.358
          764.357 764.356 764.356 764.356 764.356 764.356 764.356 764.356 764.356 764.356 764.355 764.354
          764.354 764.354 764.354 764.354 764.354 764.354 764.354 764.354 764.353 764.353 764.352 764.352
          764.352 764.352 764.352 764.352 764.352 764.352 764.351 764.351 764.351 764.35 764.35 764.35
          764.35 764.35 764.349 764.349 764.349 764.349 764.349 764.349 764.348 764.348 764.348 764.347
          764.347 764.347 764.347 764.347 764.347 764.347 764.347 764.345 764.345 764.345 764.345 764.345
          764.345 764.345 764.345 764.345 764.345 764.345 764.343 764.343 764.343 764.343 764.343 764.343
          764.343 764.343 764.343 764.343 764.343 764.341 764.341 764.341 764.341 764.341 764.341 764.341
          764.341 764.341 764.341 764.341 764.339 764.339 764.339 764.339 764.339 764.339 764.339 764.339
          764.339 764.339 764.339
        </DataArray>
        <DataArray type="Float32" Name="mob_n" NumberOfComponents="1" format="ascii">
          0 0 0 0 0 0 0 0 0 0 0 0
          0 0 0 0 0 0 0 0 0 0 0 0
          0 0 0 0 0 0 0 0 0 0 0 0
          0 0 0 0 0 0 0 0 0 0 0 0
          0 0 0 0 0 0 0 0 0 0 0 0
          0 0 0 0 0 0 19827.9 0 0 0 0 0
          0 0 0 0 0 29280.5 0 0 0 0 0 0
          0 0 0 0 0 0 0 0 0 0 0 0
          0 0 0 0 0 0 0 0 0 0 0 0
          0 0 0 0 0 0 0 0 0 0 0 0
          0 0 0 0 0 0 0 0 0 0 0 0
          0 0 0 0 0 0 0 0 0 0 0 0
          0 0 0 0 0 0 0 0 0 0 0 0
          0 0 0 0 0 0 0 0 0 0 0 0
          0 0 0 0 0 0 0 0 0 0 0 0
          0 0 0 0 0 0 0 0 0 0 0 0
          0 0 0 0 0 0 0 0 0 0 0 0
          0 0 0 0 0 0 0 0 0 0 0 0
          0 0 0 0 0 0 0 0 0 0 0 0
          0 0 0
        </DataArray>
        <DataArray type="Float32" Name="porosity" NumberOfComponents="1" format="ascii">
          0.4 0.4 0.4 0.4 0.4 0.4 0.4 0.4 0.4 0.4 0.4 0.4
          0.4 0.4 0.4 0.4 0.4 0.4 0.4 0.4 0.4 0.4 0.4 0.4
          0.4 0.4 0.4 0.4 0.4 0.4 0.4 0.4 0.4 0.4 0.4 0.4
          0.4 0.4 0.4 0.4 0.4 0.4 0.4 0.4 0.4 0.4 0.4 0.4
          0.4 0.4 0.4 0.4 0.4 0.4 0.4 0.4 0.4 0.4 0.4 0.4
          0.4 0.4 0.4 0.4 0.4 0.4 0.4 0.4 0.4 0.4 0.4 0.4
          0.4 0.4 0.4 0.4 0.4 0.4 0.4 0.4 0.4 0.4 0.4 0.4
          0.4 0.4 0.4 0.4 0.4 0.4 0.4 0.4 0.4 0.4 0.4 0.4
          0.4 0.4 0.4 0.4 0.4 0.4 0.4 0.4 0.4 0.4 0.4 0.4
          0.4 0.4 0.4 0.4 0.4 0.4 0.4 0.4 0.4 0.4 0.4 0.4
          0.4 0.4 0.4 0.4 0.4 0.4 0.4 0.4 0.4 0.4 0.4 0.4
          0.4 0.4 0.4 0.4 0.4 0.4 0.4 0.4 0.4 0.4 0.4 0.4
          0.4 0.4 0.4 0.4 0.4 0.4 0.4 0.4 0.4 0.4 0.4 0.4
          0.4 0.4 0.4 0.4 0.4 0.4 0.4 0.4 0.4 0.4 0.4 0.4
          0.4 0.4 0.4 0.4 0.4 0.4 0.4 0.4 0.4 0.4 0.4 0.4
          0.4 0.4 0.4 0.4 0.4 0.4 0.4 0.4 0.4 0.4 0.4 0.4
          0.4 0.4 0.4 0.4 0.4 0.4 0.4 0.4 0.4 0.4 0.4 0.4
          0.4 0.4 0.4 0.4 0.4 0.4 0.4 0.4 0.4 0.4 0.4 0.4
          0.4 0.4 0.4 0.4 0.4 0.4 0.4 0.4 0.4 0.4 0.4 0.4
          0.4 0.4 0.4
        </DataArray>
        <DataArray type="Float32" Name="phase presence" NumberOfComponents="1" format="ascii">
          2 2 2 2 2 2 2 2 2 2 2 2
          2 2 2 2 2 2 2 2 2 2 2 2
          2 2 2 2 2 2 2 2 2 2 2 2
          2 2 2 2 2 2 2 2 2 2 2 2
          2 2 2 2 2 2 2 2 2 2 2 2
          2 2 2 2 2 2 1 2 2 2 2 2
          2 2 2 2 2 1 2 2 2 2 2 2
          2 2 2 2 2 2 2 2 2 2 2 2
          2 2 2 2 2 2 2 2 2 2 2 2
          2 2 2 2 2 2 2 2 2 2 2 2
          2 2 2 2 2 2 2 2 2 2 2 2
          2 2 2 2 2 2 2 2 2 2 2 2
          2 2 2 2 2 2 2 2 2 2 2 2
          2 2 2 2 2 2 2 2 2 2 2 2
          2 2 2 2 2 2 2 2 2 2 2 2
          2 2 2 2 2 2 2 2 2 2 2 2
          2 2 2 2 2 2 2 2 2 2 2 2
          2 2 2 2 2 2 2 2 2 2 2 2
          2 2 2 2 2 2 2 2 2 2 2 2
          2 2 2
        </DataArray>
        <DataArray type="Float32" Name="T" NumberOfComponents="1" format="ascii">
          283.13 283.13 283.13 283.13 283.13 283.13 283.13 283.13 283.13 283.13 283.13 283.13
          283.13 283.13 283.13 283.13 283.13 283.13 283.13 283.13 283.13 283.13 283.13 283.13
          283.13 283.13 283.13 283.13 283.13 283.13 283.13 283.13 283.13 283.142 283.13 283.13
          283.13 283.13 283.13 283.13 283.13 283.13 283.13 283.13 284.263 283.157 283.13 283.13
          283.13 283.13 283.13 283.13 283.13 283.13 283.13 343.922 284.335 283.147 283.13 283.13
          283.13 283.13 283.13 283.13 283.13 283.13 385.87 290.431 283.299 283.133 283.13 283.13
          283.13 283.13 283.13 283.13 283.13 385.163 298.177 283.773 283.146 283.13 283.13 283.13
          283.13 283.13 283.13 283.13 322.671 285.065 283.196 283.131 283.13 283.13 283.13 283.13
          283.13 283.13 283.13 285.271 283.215 283.133 283.13 283.13 283.13 283.13 283.13 283.13
          283.13 283.13 283.197 283.132 283.13 283.13 283.13 283.13 283.13 283.13 283.13 283.13
          283.13 283.131 283.13 283.13 283.13 283.13 283.13 283.13 283.13 283.13 283.13 283.13
          283.13 283.13 283.13 283.13 283.13 283.13 283.13 283.13 283.13 283.13 283.13 283.13
          283.13 283.13 283.13 283.13 283.13 283.13 283.13 283.13 283.13 283.13 283.13 283.13
          283.13 283.13 283.13 283.13 283.13 283.13 283.13 283.13 283.13 283.13 283.13 283.13
          283.13 283.13 283.13 283.13 283.13 283.13 283.13 283.13 283.13 283.13 283.13 283.13
          283.13 283.13 283.13 283.13 283.13 283.13 283.13 283.13 283.13 283.13 283.13 283.13
          283.13 283.13 283.13 283.13 283.13 283.13 283.13 283.13 283.13 283.13 283.13 283.13
          283.13 283.13 283.13 283.13 283.13 283.13 283.13 283.13 283.13 283.13 283.13 283.13
          283.13 283.13 283.13 283.13 283.13 283.13 283.13 283.13 283.13 283.13 283.13 283.13
          283.13 283.13 283.13
        </DataArray>
      </PointData>
      <CellData Scalars="process rank">
        <DataArray type="Float32" Name="process rank" NumberOfComponents="1" format="ascii">
          0 0 0 0 0 0 0 0 0 0 0 0
          0 0 0 0 0 0 0 0 0 0 0 0
          0 0 0 0 0 0 0 0 0 0 0 0
          0 0 0 0 0 0 0 0 0 0 0 0
          0 0 0 0 0 0 0 0 0 0 0 0
          0 0 0 0 0 0 0 0 0 0 0 0
          0 0 0 0 0 0 0 0 0 0 0 0
          0 0 0 0 0 0 0 0 0 0 0 0
          0 0 0 0 0 0 0 0 0 0 0 0
          0 0 0 0 0 0 0 0 0 0 0 0
          0 0 0 0 0 0 0 0 0 0 0 0
          0 0 0 0 0 0 0 0 0 0 0 0
          0 0 0 0 0 0 0 0 0 0 0 0
          0 0 0 0 0 0 0 0 0 0 0 0
          0 0 0 0 0 0 0 0 0 0 0 0
          0 0 0 0 0 0 0 0 0 0 0 0
          0 0 0 0 0 0 0 0
        </DataArray>
      </CellData>
      <Points>
        <DataArray type="Float32" Name="Coordinates" NumberOfComponents="3" format="ascii">
          0 0 0 0.4 0 0 0 0.4 0 0.4 0.4 0
          0.8 0 0 0.8 0.4 0 1.2 0 0 1.2 0.4 0
          1.6 0 0 1.6 0.4 0 2 0 0 2 0.4 0
          2.4 0 0 2.4 0.4 0 2.8 0 0 2.8 0.4 0
          3.2 0 0 3.2 0.4 0 3.6 0 0 3.6 0.4 0
          4 0 0 4 0.4 0 0 0.8 0 0.4 0.8 0
          0.8 0.8 0 1.2 0.8 0 1.6 0.8 0 2 0.8 0
          2.4 0.8 0 2.8 0.8 0 3.2 0.8 0 3.6 0.8 0
          4 0.8 0 0 1.2 0 0.4 1.2 0 0.8 1.2 0
          1.2 1.2 0 1.6 1.2 0 2 1.2 0 2.4 1.2 0
          2.8 1.2 0 3.2 1.2 0 3.6 1.2 0 4 1.2 0
          0 1.6 0 0.4 1.6 0 0.8 1.6 0 1.2 1.6 0
          1.6 1.6 0 2 1.6 0 2.4 1.6 0 2.8 1.6 0
          3.2 1.6 0 3.6 1.6 0 4 1.6 0 0 2 0
          0.4 2 0 0.8 2 0 1.2 2 0 1.6 2 0
          2 2 0 2.4 2 0 2.8 2 0 3.2 2 0
          3.6 2 0 4 2 0 0 2.4 0 0.4 2.4 0
          0.8 2.4 0 1.2 2.4 0 1.6 2.4 0 2 2.4 0
          2.4 2.4 0 2.8 2.4 0 3.2 2.4 0 3.6 2.4 0
          4 2.4 0 0 2.8 0 0.4 2.8 0 0.8 2.8 0
          1.2 2.8 0 1.6 2.8 0 2 2.8 0 2.4 2.8 0
          2.8 2.8 0 3.2 2.8 0 3.6 2.8 0 4 2.8 0
          0 3.2 0 0.4 3.2 0 0.8 3.2 0 1.2 3.2 0
          1.6 3.2 0 2 3.2 0 2.4 3.2 0 2.8 3.2 0
          3.2 3.2 0 3.6 3.2 0 4 3.2 0 0 3.6 0
          0.4 3.6 0 0.8 3.6 0 1.2 3.6 0 1.6 3.6 0
          2 3.6 0 2.4 3.6 0 2.8 3.6 0 3.2 3.6 0
          3.6 3.6 0 4 3.6 0 0 4 0 0.4 4 0
          0.8 4 0 1.2 4 0 1.6 4 0 2 4 0
          2.4 4 0 2.8 4 0 3.2 4 0 3.6 4 0
          4 4 0 0 4.4 0 0.4 4.4 0 0.8 4.4 0
          1.2 4.4 0 1.6 4.4 0 2 4.4 0 2.4 4.4 0
          2.8 4.4 0 3.2 4.4 0 3.6 4.4 0 4 4.4 0
          0 4.8 0 0.4 4.8 0 0.8 4.8 0 1.2 4.8 0
          1.6 4.8 0 2 4.8 0 2.4 4.8 0 2.8 4.8 0
          3.2 4.8 0 3.6 4.8 0 4 4.8 0 0 5.2 0
          0.4 5.2 0 0.8 5.2 0 1.2 5.2 0 1.6 5.2 0
          2 5.2 0 2.4 5.2 0 2.8 5.2 0 3.2 5.2 0
          3.6 5.2 0 4 5.2 0 0 5.6 0 0.4 5.6 0
          0.8 5.6 0 1.2 5.6 0 1.6 5.6 0 2 5.6 0
          2.4 5.6 0 2.8 5.6 0 3.2 5.6 0 3.6 5.6 0
          4 5.6 0 0 6 0 0.4 6 0 0.8 6 0
          1.2 6 0 1.6 6 0 2 6 0 2.4 6 0
          2.8 6 0 3.2 6 0 3.6 6 0 4 6 0
          0 6.4 0 0.4 6.4 0 0.8 6.4 0 1.2 6.4 0
          1.6 6.4 0 2 6.4 0 2.4 6.4 0 2.8 6.4 0
          3.2 6.4 0 3.6 6.4 0 4 6.4 0 0 6.8 0
          0.4 6.8 0 0.8 6.8 0 1.2 6.8 0 1.6 6.8 0
          2 6.8 0 2.4 6.8 0 2.8 6.8 0 3.2 6.8 0
          3.6 6.8 0 4 6.8 0 0 7.2 0 0.4 7.2 0
          0.8 7.2 0 1.2 7.2 0 1.6 7.2 0 2 7.2 0
          2.4 7.2 0 2.8 7.2 0 3.2 7.2 0 3.6 7.2 0
          4 7.2 0 0 7.6 0 0.4 7.6 0 0.8 7.6 0
          1.2 7.6 0 1.6 7.6 0 2 7.6 0 2.4 7.6 0
          2.8 7.6 0 3.2 7.6 0 3.6 7.6 0 4 7.6 0
          0 8 0 0.4 8 0 0.8 8 0 1.2 8 0
          1.6 8 0 2 8 0 2.4 8 0 2.8 8 0
          3.2 8 0 3.6 8 0 4 8 0
        </DataArray>
      </Points>
      <Cells>
        <DataArray type="Int32" Name="connectivity" NumberOfComponents="1" format="ascii">
          0 1 3 2 1 4 5 3 4 6 7 5
          6 8 9 7 8 10 11 9 10 12 13 11
          12 14 15 13 14 16 17 15 16 18 19 17
          18 20 21 19 2 3 23 22 3 5 24 23
          5 7 25 24 7 9 26 25 9 11 27 26
          11 13 28 27 13 15 29 28 15 17 30 29
          17 19 31 30 19 21 32 31 22 23 34 33
          23 24 35 34 24 25 36 35 25 26 37 36
          26 27 38 37 27 28 39 38 28 29 40 39
          29 30 41 40 30 31 42 41 31 32 43 42
          33 34 45 44 34 35 46 45 35 36 47 46
          36 37 48 47 37 38 49 48 38 39 50 49
          39 40 51 50 40 41 52 51 41 42 53 52
          42 43 54 53 44 45 56 55 45 46 57 56
          46 47 58 57 47 48 59 58 48 49 60 59
          49 50 61 60 50 51 62 61 51 52 63 62
          52 53 64 63 53 54 65 64 55 56 67 66
          56 57 68 67 57 58 69 68 58 59 70 69
          59 60 71 70 60 61 72 71 61 62 73 72
          62 63 74 73 63 64 75 74 64 65 76 75
          66 67 78 77 67 68 79 78 68 69 80 79
          69 70 81 80 70 71 82 81 71 72 83 82
          72 73 84 83 73 74 85 84 74 75 86 85
          75 76 87 86 77 78 89 88 78 79 90 89
          79 80 91 90 80 81 92 91 81 82 93 92
          82 83 94 93 83 84 95 94 84 85 96 95
          85 86 97 96 86 87 98 97 88 89 100 99
          89 90 101 100 90 91 102 101 91 92 103 102
          92 93 104 103 93 94 105 104 94 95 106 105
          95 96 107 106 96 97 108 107 97 98 109 108
          99 100 111 110 100 101 112 111 101 102 113 112
          102 103 114 113 103 104 115 114 104 105 116 115
          105 106 117 116 106 107 118 117 107 108 119 118
          108 109 120 119 110 111 122 121 111 112 123 122
          112 113 124 123 113 114 125 124 114 115 126 125
          115 116 127 126 116 117 128 127 117 118 129 128
          118 119 130 129 119 120 131 130 121 122 133 132
          122 123 134 133 123 124 135 134 124 125 136 135
          125 126 137 136 126 127 138 137 127 128 139 138
          128 129 140 139 129 130 141 140 130 131 142 141
          132 133 144 143 133 134 145 144 134 135 146 145
          135 136 147 146 136 137 148 147 137 138 149 148
          138 139 150 149 139 140 151 150 140 141 152 151
          141 142 153 152 143 144 155 154 144 145 156 155
          145 146 157 156 146 147 158 157 147 148 159 158
          148 149 160 159 149 150 161 160 150 151 162 161
          151 152 163 162 152 153 164 163 154 155 166 165
          155 156 167 166 156 157 168 167 157 158 169 168
          158 159 170 169 159 160 171 170 160 161 172 171
          161 162 173 172 162 163 174 173 163 164 175 174
          165 166 177 176 166 167 178 177 167 168 179 178
          168 169 180 179 169 170 181 180 170 171 182 181
          171 172 183 182 172 173 184 183 173 174 185 184
          174 175 186 185 176 177 188 187 177 178 189 188
          178 179 190 189 179 180 191 190 180 181 192 191
          181 182 193 192 182 183 194 193 183 184 195 194
          184 185 196 195 185 186 197 196 187 188 199 198
          188 189 200 199 189 190 201 200 190 191 202 201
          191 192 203 202 192 193 204 203 193 194 205 204
          194 195 206 205 195 196 207 206 196 197 208 207
          198 199 210 209 199 200 211 210 200 201 212 211
          201 202 213 212 202 203 214 213 203 204 215 214
          204 205 216 215 205 206 217 216 206 207 218 217
          207 208 219 218 209 210 221 220 210 211 222 221
          211 212 223 222 212 213 224 223 213 214 225 224
          214 215 226 225 215 216 227 226 216 217 228 227
          217 218 229 228 218 219 230 229
        </DataArray>
        <DataArray type="Int32" Name="offsets" NumberOfComponents="1" format="ascii">
          4 8 12 16 20 24 28 32 36 40 44 48
          52 56 60 64 68 72 76 80 84 88 92 96
          100 104 108 112 116 120 124 128 132 136 140 144
          148 152 156 160 164 168 172 176 180 184 188 192
          196 200 204 208 212 216 220 224 228 232 236 240
          244 248 252 256 260 264 268 272 276 280 284 288
          292 296 300 304 308 312 316 320 324 328 332 336
          340 344 348 352 356 360 364 368 372 376 380 384
          388 392 396 400 404 408 412 416 420 424 428 432
          436 440 444 448 452 456 460 464 468 472 476 480
          484 488 492 496 500 504 508 512 516 520 524 528
          532 536 540 544 548 552 556 560 564 568 572 576
          580 584 588 592 596 600 604 608 612 616 620 624
          628 632 636 640 644 648 652 656 660 664 668 672
          676 680 684 688 692 696 700 704 708 712 716 720
          724 728 732 736 740 744 748 752 756 760 764 768
          772 776 780 784 788 792 796 800
        </DataArray>
        <DataArray type="UInt8" Name="types" NumberOfComponents="1" format="ascii">
          9 9 9 9 9 9 9 9 9 9 9 9
          9 9 9 9 9 9 9 9 9 9 9 9
          9 9 9 9 9 9 9 9 9 9 9 9
          9 9 9 9 9 9 9 9 9 9 9 9
          9 9 9 9 9 9 9 9 9 9 9 9
          9 9 9 9 9 9 9 9 9 9 9 9
          9 9 9 9 9 9 9 9 9 9 9 9
          9 9 9 9 9 9 9 9 9 9 9 9
          9 9 9 9 9 9 9 9 9 9 9 9
          9 9 9 9 9 9 9 9 9 9 9 9
          9 9 9 9 9 9 9 9 9 9 9 9
          9 9 9 9 9 9 9 9 9 9 9 9
          9 9 9 9 9 9 9 9 9 9 9 9
          9 9 9 9 9 9 9 9 9 9 9 9
          9 9 9 9 9 9 9 9 9 9 9 9
          9 9 9 9 9 9 9 9 9 9 9 9
          9 9 9 9 9 9 9 9
        </DataArray>
      </Cells>
    </Piece>
  </UnstructuredGrid>
</VTKFile>
