<?xml version="1.0"?>
<VTKFile type="UnstructuredGrid" version="0.1" byte_order="LittleEndian">
  <UnstructuredGrid>
    <Piece NumberOfCells="800" NumberOfPoints="861">
      <CellData Scalars="porosity">
        <DataArray type="Float32" Name="porosity" NumberOfComponents="1" format="ascii">
          0.4 0.4 0.4 0.4 0.4 0.4 0.4 0.4 0.4 0.4 0.4 0.4
          0.4 0.4 0.4 0.4 0.4 0.4 0.4 0.4 0.4 0.4 0.4 0.4
          0.4 0.4 0.4 0.4 0.4 0.4 0.4 0.4 0.4 0.4 0.4 0.4
          0.4 0.4 0.4 0.4 0.4 0.4 0.4 0.4 0.4 0.4 0.4 0.4
          0.4 0.4 0.4 0.4 0.4 0.4 0.4 0.4 0.4 0.4 0.4 0.4
          0.4 0.4 0.4 0.4 0.4 0.4 0.4 0.4 0.4 0.4 0.4 0.4
          0.4 0.4 0.4 0.4 0.4 0.4 0.4 0.4 0.4 0.4 0.4 0.4
          0.4 0.4 0.4 0.4 0.4 0.4 0.4 0.4 0.4 0.4 0.4 0.4
          0.4 0.4 0.4 0.4 0.4 0.4 0.4 0.4 0.4 0.4 0.4 0.4
          0.4 0.4 0.4 0.4 0.4 0.4 0.4 0.4 0.4 0.4 0.4 0.4
          0.4 0.4 0.4 0.4 0.4 0.4 0.4 0.4 0.4 0.4 0.4 0.4
          0.4 0.4 0.4 0.4 0.4 0.4 0.4 0.4 0.4 0.4 0.4 0.4
          0.4 0.4 0.4 0.4 0.4 0.4 0.4 0.4 0.4 0.4 0.4 0.4
          0.4 0.4 0.4 0.4 0.4 0.4 0.4 0.4 0.4 0.4 0.4 0.4
          0.4 0.4 0.4 0.4 0.4 0.4 0.4 0.4 0.4 0.4 0.4 0.4
          0.4 0.4 0.4 0.4 0.4 0.4 0.4 0.4 0.4 0.4 0.4 0.4
          0.4 0.4 0.4 0.4 0.4 0.4 0.4 0.4 0.4 0.4 0.4 0.4
          0.4 0.4 0.4 0.4 0.4 0.4 0.4 0.4 0.4 0.4 0.4 0.4
          0.4 0.4 0.4 0.4 0.4 0.4 0.4 0.4 0.4 0.4 0.4 0.4
          0.4 0.4 0.4 0.4 0.4 0.4 0.4 0.4 0.4 0.4 0.4 0.4
          0.4 0.4 0.4 0.4 0.4 0.4 0.4 0.4 0.4 0.4 0.4 0.4
          0.4 0.4 0.4 0.4 0.4 0.4 0.4 0.4 0.4 0.4 0.4 0.4
          0.4 0.4 0.4 0.4 0.4 0.4 0.4 0.4 0.4 0.4 0.4 0.4
          0.4 0.4 0.4 0.4 0.4 0.4 0.4 0.4 0.4 0.4 0.4 0.4
          0.4 0.4 0.4 0.4 0.4 0.4 0.4 0.4 0.4 0.4 0.4 0.4
          0.4 0.4 0.4 0.4 0.4 0.4 0.4 0.4 0.4 0.4 0.4 0.4
          0.4 0.4 0.4 0.4 0.4 0.4 0.4 0.4 0.4 0.4 0.4 0.4
          0.4 0.4 0.4 0.4 0.4 0.4 0.4 0.4 0.4 0.4 0.4 0.4
          0.4 0.4 0.4 0.4 0.4 0.4 0.4 0.4 0.4 0.4 0.4 0.4
          0.4 0.4 0.4 0.4 0.4 0.4 0.4 0.4 0.4 0.4 0.4 0.4
          0.4 0.4 0.4 0.4 0.4 0.4 0.4 0.4 0.4 0.4 0.4 0.4
          0.4 0.4 0.4 0.4 0.4 0.4 0.4 0.4 0.4 0.4 0.4 0.4
          0.4 0.4 0.4 0.4 0.4 0.4 0.4 0.4 0.4 0.4 0.4 0.4
          0.4 0.4 0.4 0.4 0.4 0.4 0.4 0.4 0.4 0.4 0.4 0.4
          0.4 0.4 0.4 0.4 0.4 0.4 0.4 0.4 0.4 0.4 0.4 0.4
          0.4 0.4 0.4 0.4 0.4 0.4 0.4 0.4 0.4 0.4 0.4 0.4
          0.4 0.4 0.4 0.4 0.4 0.4 0.4 0.4 0.4 0.4 0.4 0.4
          0.4 0.4 0.4 0.4 0.4 0.4 0.4 0.4 0.4 0.4 0.4 0.4
          0.4 0.4 0.4 0.4 0.4 0.4 0.4 0.4 0.4 0.4 0.4 0.4
          0.4 0.4 0.4 0.4 0.4 0.4 0.4 0.4 0.4 0.4 0.4 0.4
          0.4 0.4 0.4 0.4 0.4 0.4 0.4 0.4 0.4 0.4 0.4 0.4
          0.4 0.4 0.4 0.4 0.4 0.4 0.4 0.4 0.4 0.4 0.4 0.4
          0.4 0.4 0.4 0.4 0.4 0.4 0.4 0.4 0.4 0.4 0.4 0.4
          0.4 0.4 0.4 0.4 0.4 0.4 0.4 0.4 0.4 0.4 0.4 0.4
          0.4 0.4 0.4 0.4 0.4 0.4 0.4 0.4 0.4 0.4 0.4 0.4
          0.4 0.4 0.4 0.4 0.4 0.4 0.4 0.4 0.4 0.4 0.4 0.4
          0.4 0.4 0.4 0.4 0.4 0.4 0.4 0.4 0.4 0.4 0.4 0.4
          0.4 0.4 0.4 0.4 0.4 0.4 0.4 0.4 0.4 0.4 0.4 0.4
          0.4 0.4 0.4 0.4 0.4 0.4 0.4 0.4 0.4 0.4 0.4 0.4
          0.4 0.4 0.4 0.4 0.4 0.4 0.4 0.4 0.4 0.4 0.4 0.4
          0.4 0.4 0.4 0.4 0.4 0.4 0.4 0.4 0.4 0.4 0.4 0.4
          0.4 0.4 0.4 0.4 0.4 0.4 0.4 0.4 0.4 0.4 0.4 0.4
          0.4 0.4 0.4 0.4 0.4 0.4 0.4 0.4 0.4 0.4 0.4 0.4
          0.4 0.4 0.4 0.4 0.4 0.4 0.4 0.4 0.4 0.4 0.4 0.4
          0.4 0.4 0.4 0.4 0.4 0.4 0.4 0.4 0.4 0.4 0.4 0.4
          0.4 0.4 0.4 0.4 0.4 0.4 0.4 0.4 0.4 0.4 0.4 0.4
          0.4 0.4 0.4 0.4 0.4 0.4 0.4 0.4 0.4 0.4 0.4 0.4
          0.4 0.4 0.4 0.4 0.4 0.4 0.4 0.4 0.4 0.4 0.4 0.4
          0.4 0.4 0.4 0.4 0.4 0.4 0.4 0.4 0.4 0.4 0.4 0.4
          0.4 0.4 0.4 0.4 0.4 0.4 0.4 0.4 0.4 0.4 0.4 0.4
          0.4 0.4 0.4 0.4 0.4 0.4 0.4 0.4 0.4 0.4 0.4 0.4
          0.4 0.4 0.4 0.4 0.4 0.4 0.4 0.4 0.4 0.4 0.4 0.4
          0.4 0.4 0.4 0.4 0.4 0.4 0.4 0.4 0.4 0.4 0.4 0.4
          0.4 0.4 0.4 0.4 0.4 0.4 0.4 0.4 0.4 0.4 0.4 0.4
          0.4 0.4 0.4 0.4 0.4 0.4 0.4 0.4 0.4 0.4 0.4 0.4
          0.4 0.4 0.4 0.4 0.4 0.4 0.4 0.4 0.4 0.4 0.4 0.4
          0.4 0.4 0.4 0.4 0.4 0.4 0.4 0.4
        </DataArray>
        <DataArray type="Float32" Name="pc" NumberOfComponents="1" format="ascii">
          468274 468274 468274 468274 468274 468274 468274 468274 468274 468274 468274 468274
          468274 468274 468274 468274 468274 468274 468274 468274 468274 468274 468274 468274
          468274 468274 468274 468274 468274 468274 468274 468274 468274 468274 468274 468274
          468274 468274 468274 468274 468274 468274 468274 468274 468274 468274 468274 468274
          468274 468274 468274 468274 468274 468274 468274 468274 468274 468274 468274 468274
          468274 468274 468274 468274 468274 468274 468274 468274 468274 468274 468274 468274
          468274 468274 468274 468274 468274 468274 468274 468274 468274 468274 468274 468274
          468274 468274 468274 468274 468274 468274 468274 468274 468274 468274 468274 468274
          468274 468274 468274 468274 468274 468274 468274 468274 468274 468274 468274 468274
          468274 468274 468274 468274 468274 468274 468274 468274 468274 468274 468274 468274
          468274 468274 468274 468274 468274 468274 468274 468274 468274 468274 468274 468274
          468274 468274 468274 468274 468274 468274 468274 468274 468274 468274 468274 468274
          468274 468274 468274 468274 468274 468274 468274 468274 468274 468274 468274 468274
          468274 468274 468274 468274 468274 468274 468274 468274 468274 468274 468274 468274
          468274 468274 468274 468274 468274 468274 468274 468274 468274 468274 468274 468274
          468274 468274 468274 468274 468274 468274 468274 468274 468274 468274 468274 468274
          468274 468274 468274 468274 468274 468274 468274 468274 468274 468274 468274 468274
          468274 468274 468274 468274 468274 468274 468274 468274 468274 468274 468274 468274
          468274 468274 468274 468274 435674 468274 468274 468274 468274 468274 468274 468274
          468274 468274 468274 468274 468274 468274 468274 468274 468274 468274 468274 468274
          400496 468274 468274 468274 468274 468274 468274 468274 468274 468274 468274 468274
          468274 468274 468274 468274 468274 468274 468274 468274 384261 468274 468274 468274
          468274 468274 468274 468274 468274 468274 468274 468274 468274 468274 468274 468274
          468274 468274 468274 468274 378286 468274 468274 468274 468274 468274 468274 468274
          468274 468274 468274 468274 468274 468274 468274 468274 468274 468274 468274 468274
          468274 468274 468274 468274 468274 468274 468274 468274 468274 468274 468274 468274
          468274 468274 468274 468274 468274 468274 468274 468274 468274 468274 468274 468274
          468274 468274 468274 468274 468274 468274 468274 468274 468274 468274 468274 468274
          468274 468274 468274 468274 468274 468274 468274 468274 468274 468274 468274 468274
          468274 468274 468274 468274 468274 468274 468274 468274 468274 468274 468274 468274
          468274 468274 468274 468274 468274 468274 468274 468274 468274 468274 468274 468274
          468274 468274 468274 468274 468274 468274 468274 468274 468274 468274 468274 468274
          468274 468274 468274 468274 468274 468274 468274 468274 468274 468274 468274 468274
          468274 468274 468274 468274 468274 468274 468274 468274 468274 468274 468274 468274
          468274 468274 468274 468274 468274 468274 468274 468274 468274 468274 468274 468274
          468274 468274 468274 468274 468274 468274 468274 468274 468274 468274 468274 468274
          468274 468274 468274 468274 468274 468274 468274 468274 468274 468274 468274 468274
          468274 468274 468274 468274 468274 468274 468274 468274 468274 468274 468274 468274
          468274 468274 468274 468274 468274 468274 468274 468274 468274 468274 468274 468274
          468274 468274 468274 468274 468274 468274 468274 468274 468274 468274 468274 468274
          468274 468274 468274 468274 468274 468274 468274 468274 468274 468274 468274 468274
          468274 468274 468274 468274 468274 468274 468274 468274 468274 468274 468274 468274
          468274 468274 468274 468274 468274 468274 468274 468274 468274 468274 468274 468274
          468274 468274 468274 468274 468274 468274 468274 468274 468274 468274 468274 468274
          468274 468274 468274 468274 468274 468274 468274 468274 468274 468274 468274 468274
          468274 468274 468274 468274 468274 468274 468274 468274 468274 468274 468274 468274
          468274 468274 468274 468274 468274 468274 468274 468274 468274 468274 468274 468274
          468274 468274 468274 468274 468274 468274 468274 468274 468274 468274 468274 468274
          468274 468274 468274 468274 468274 468274 468274 468274 468274 468274 468274 468274
          468274 468274 468274 468274 468274 468274 468274 468274 468274 468274 468274 468274
          468274 468274 468274 468274 468274 468274 468274 468274 468274 468274 468274 468274
          468274 468274 468274 468274 468274 468274 468274 468274 468274 468274 468274 468274
          468274 468274 468274 468274 468274 468274 468274 468274 468274 468274 468274 468274
          468274 468274 468274 468274 468274 468274 468274 468274 468274 468274 468274 468274
          468274 468274 468274 468274 468274 468274 468274 468274 468274 468274 468274 468274
          468274 468274 468274 468274 468274 468274 468274 468274 468274 468274 468274 468274
          468274 468274 468274 468274 468274 468274 468274 468274 468274 468274 468274 468274
          468274 468274 468274 468274 468274 468274 468274 468274 468274 468274 468274 468274
          468274 468274 468274 468274 468274 468274 468274 468274 468274 468274 468274 468274
          468274 468274 468274 468274 468274 468274 468274 468274 468274 468274 468274 468274
          468274 468274 468274 468274 468274 468274 468274 468274 468274 468274 468274 468274
          468274 468274 468274 468274 468274 468274 468274 468274 468274 468274 468274 468274
          468274 468274 468274 468274 468274 468274 468274 468274 468274 468274 468274 468274
          468274 468274 468274 468274 468274 468274 468274 468274 468274 468274 468274 468274
          468274 468274 468274 468274 468274 468274 468274 468274 468274 468274 468274 468274
          468274 468274 468274 468274 468274 468274 468274 468274 468274 468274 468274 468274
          468274 468274 468274 468274 468274 468274 468274 468274
        </DataArray>
        <DataArray type="Float32" Name="S_liq" NumberOfComponents="1" format="ascii">
          1 1 1 1 1 1 1 1 1 1 1 1
          1 1 1 1 1 1 1 1 1 1 1 1
          1 1 1 1 1 1 1 1 1 1 1 1
          1 1 1 1 1 1 1 1 1 1 1 1
          1 1 1 1 1 1 1 1 1 1 1 1
          1 1 1 1 1 1 1 1 1 1 1 1
          1 1 1 1 1 1 1 1 1 1 1 1
          1 1 1 1 1 1 1 1 1 1 1 1
          1 1 1 1 1 1 1 1 1 1 1 1
          1 1 1 1 1 1 1 1 1 1 1 1
          1 1 1 1 1 1 1 1 1 1 1 1
          1 1 1 1 1 1 1 1 1 1 1 1
          1 1 1 1 1 1 1 1 1 1 1 1
          1 1 1 1 1 1 1 1 1 1 1 1
          1 1 1 1 1 1 1 1 1 1 1 1
          1 1 1 1 1 1 1 1 1 1 1 1
          1 1 1 1 1 1 1 1 1 1 1 1
          1 1 1 1 1 1 1 1 1 1 1 1
          1 1 1 1 0.991785 1 1 1 1 1 1 1
          1 1 1 1 1 1 1 1 1 1 1 1
          0.982921 1 1 1 1 1 1 1 1 1 1 1
          1 1 1 1 1 1 1 1 0.97883 1 1 1
          1 1 1 1 1 1 1 1 1 1 1 1
          1 1 1 1 0.977324 1 1 1 1 1 1 1
          1 1 1 1 1 1 1 1 1 1 1 1
          1 1 1 1 1 1 1 1 1 1 1 1
          1 1 1 1 1 1 1 1 1 1 1 1
          1 1 1 1 1 1 1 1 1 1 1 1
          1 1 1 1 1 1 1 1 1 1 1 1
          1 1 1 1 1 1 1 1 1 1 1 1
          1 1 1 1 1 1 1 1 1 1 1 1
          1 1 1 1 1 1 1 1 1 1 1 1
          1 1 1 1 1 1 1 1 1 1 1 1
          1 1 1 1 1 1 1 1 1 1 1 1
          1 1 1 1 1 1 1 1 1 1 1 1
          1 1 1 1 1 1 1 1 1 1 1 1
          1 1 1 1 1 1 1 1 1 1 1 1
          1 1 1 1 1 1 1 1 1 1 1 1
          1 1 1 1 1 1 1 1 1 1 1 1
          1 1 1 1 1 1 1 1 1 1 1 1
          1 1 1 1 1 1 1 1 1 1 1 1
          1 1 1 1 1 1 1 1 1 1 1 1
          1 1 1 1 1 1 1 1 1 1 1 1
          1 1 1 1 1 1 1 1 1 1 1 1
          1 1 1 1 1 1 1 1 1 1 1 1
          1 1 1 1 1 1 1 1 1 1 1 1
          1 1 1 1 1 1 1 1 1 1 1 1
          1 1 1 1 1 1 1 1 1 1 1 1
          1 1 1 1 1 1 1 1 1 1 1 1
          1 1 1 1 1 1 1 1 1 1 1 1
          1 1 1 1 1 1 1 1 1 1 1 1
          1 1 1 1 1 1 1 1 1 1 1 1
          1 1 1 1 1 1 1 1 1 1 1 1
          1 1 1 1 1 1 1 1 1 1 1 1
          1 1 1 1 1 1 1 1 1 1 1 1
          1 1 1 1 1 1 1 1 1 1 1 1
          1 1 1 1 1 1 1 1 1 1 1 1
          1 1 1 1 1 1 1 1 1 1 1 1
          1 1 1 1 1 1 1 1 1 1 1 1
          1 1 1 1 1 1 1 1 1 1 1 1
          1 1 1 1 1 1 1 1 1 1 1 1
          1 1 1 1 1 1 1 1 1 1 1 1
          1 1 1 1 1 1 1 1 1 1 1 1
          1 1 1 1 1 1 1 1 1 1 1 1
          1 1 1 1 1 1 1 1 1 1 1 1
          1 1 1 1 1 1 1 1 1 1 1 1
          1 1 1 1 1 1 1 1
        </DataArray>
        <DataArray type="Float32" Name="p_liq" NumberOfComponents="1" format="ascii">
          647127 647127 647127 647126 647124 647123 647121 647119 647116 647113 647110 647107
          647103 647099 647096 647092 647087 647083 647079 647075 645166 645166 645165 645164
          645163 645161 645159 645157 645155 645152 645148 645145 645142 645138 645134 645130
          645126 645121 645117 645113 643204 643204 643204 643203 643202 643200 643198 643196
          643193 643190 643187 643184 643180 643176 643172 643168 643164 643160 643155 643151
          641243 641243 641243 641242 641241 641239 641237 641235 641232 641229 641226 641222
          641219 641215 641210 641206 641202 641198 641193 641189 639282 639282 639282 639282
          639280 639279 639277 639275 639272 639268 639265 639261 639257 639253 639249 639245
          639240 639236 639232 639227 637321 637322 637322 637322 637321 637319 637317 637314
          637311 637308 637304 637300 637296 637292 637288 637283 637279 637274 637270 637265
          635360 635361 635362 635362 635361 635360 635358 635355 635351 635348 635344 635340
          635335 635331 635326 635322 635317 635312 635308 635303 633398 633401 633403 633403
          633403 633401 633399 633396 633392 633388 633384 633379 633374 633370 633365 633360
          633356 633351 633346 633341 631434 631440 631444 631446 631446 631444 631441 631437
          631433 631428 631424 631419 631414 631409 631404 631399 631394 631389 631384 631379
          629464 629482 629489 629491 629490 629487 629483 629479 629474 629469 629464 629458
          629453 629448 629443 629438 629433 629427 629422 629417 627520 627534 627539 627539
          627536 627531 627526 627521 627515 627509 627504 627498 627492 627487 627482 627476
          627471 627466 627461 627455 625416 625595 625593 625589 625583 625577 625570 625563
          625556 625550 625544 625538 625532 625526 625520 625515 625509 625504 625499 625493
          623547 623656 623650 623641 623632 623622 623613 623605 623598 623590 623583 623577
          623571 623565 623559 623553 623548 623542 623537 623532 621677 621719 621709 621694
          621680 621667 621656 621647 621638 621630 621623 621616 621610 621603 621597 621592
          621586 621580 621575 621570 619802 619790 619769 619745 619726 619711 619698 619687
          619678 619670 619662 619655 619648 619642 619636 619630 619624 619618 619613 619608
          617885 617853 617817 617788 617767 617751 617738 617727 617717 617708 617700 617693
          617686 617680 617674 617668 617662 617657 617651 617646 615907 615878 615848 615824
          615804 615789 615776 615765 615755 615746 615738 615731 615724 615718 615712 615706
          615700 615694 615689 615684 613908 613892 613872 613854 613838 613824 613812 613801
          613792 613783 613776 613768 613762 613755 613749 613744 613738 613732 613727 613722
          611916 611907 611895 611882 611869 611857 611846 611837 611828 611820 611812 611805
          611799 611793 611787 611781 611776 611770 611765 611759 609932 609927 609918 609909
          609899 609889 609880 609871 609863 609856 609848 609842 609836 609830 609824 609818
          609813 609808 609802 609797 607953 607949 607944 607936 607928 607920 607913 607905
          607898 607891 607884 607878 607872 607866 607861 607856 607850 607845 607840 607835
          605976 605974 605970 605965 605958 605952 605945 605938 605932 605926 605920 605914
          605908 605903 605898 605893 605888 605883 605878 605873 604003 604001 603998 603994
          603989 603983 603978 603972 603966 603960 603955 603950 603944 603939 603934 603930
          603925 603920 603916 603911 602031 602029 602027 602024 602020 602015 602010 602005
          602000 601995 601990 601985 601980 601976 601971 601967 601962 601958 601953 601949
          600060 600059 600057 600054 600051 600047 600043 600039 600034 600030 600025 600021
          600016 600012 600008 600003 599999 599995 599991 599987 598090 598089 598088 598085
          598083 598079 598076 598072 598068 598064 598060 598056 598052 598048 598044 598040
          598036 598032 598029 598025 596121 596120 596119 596117 596115 596112 596109 596106
          596102 596099 596095 596092 596088 596084 596081 596077 596073 596070 596066 596063
          594152 594152 594151 594149 594147 594145 594142 594140 594137 594133 594130 594127
          594124 594120 594117 594114 594110 594107 594104 594100 592185 592184 592183 592182
          592180 592178 592176 592174 592171 592168 592165 592162 592159 592156 592153 592150
          592147 592144 592141 592138 590217 590217 590216 590215 590214 590212 590210 590208
          590205 590203 590200 590198 590195 590193 590190 590187 590184 590182 590179 590176
          588250 588250 588249 588248 588247 588246 588244 588242 588240 588238 588236 588234
          588231 588229 588226 588224 588221 588219 588216 588214 586283 586283 586283 586282
          586281 586280 586278 586277 586275 586273 586271 586269 586267 586265 586263 586261
          586258 586256 586254 586252 584317 584317 584316 584316 584315 584314 584313 584311
          584310 584308 584306 584305 584303 584301 584299 584297 584296 584294 584292 584290
          582351 582351 582350 582350 582349 582348 582347 582346 582345 582343 582342 582340
          582339 582337 582336 582334 582333 582331 582329 582328 580385 580385 580384 580384
          580383 580383 580382 580381 580380 580379 580378 580376 580375 580374 580372 580371
          580370 580368 580367 580366 578419 578419 578419 578418 578418 578417 578417 578416
          578415 578414 578413 578412 578411 578410 578409 578408 578407 578406 578404 578403
          576453 576453 576453 576453 576452 576452 576451 576451 576450 576450 576449 576448
          576447 576446 576446 576445 576444 576443 576442 576441 574488 574488 574487 574487
          574487 574487 574486 574486 574486 574485 574484 574484 574483 574483 574482 574482
          574481 574480 574480 574479 572522 572522 572522 572522 572522 572522 572521 572521
          572521 572520 572520 572520 572520 572519 572519 572518 572518 572518 572517 572517
          570557 570557 570556 570556 570556 570556 570556 570556 570556 570556 570556 570556
          570556 570556 570556 570555 570555 570555 570555 570555
        </DataArray>
        <DataArray type="Float32" Name="rho_liq" NumberOfComponents="1" format="ascii">
          999.952 999.952 999.952 999.952 999.952 999.952 999.952 999.952 999.952 999.952 999.952 999.952
          999.952 999.952 999.952 999.952 999.952 999.952 999.952 999.952 999.951 999.951 999.951 999.951
          999.951 999.951 999.951 999.951 999.951 999.951 999.951 999.951 999.951 999.951 999.951 999.951
          999.951 999.951 999.951 999.951 999.95 999.95 999.95 999.95 999.95 999.95 999.95 999.95
          999.95 999.95 999.95 999.95 999.95 999.95 999.95 999.95 999.95 999.95 999.95 999.95
          999.949 999.949 999.949 999.949 999.949 999.949 999.949 999.949 999.949 999.949 999.949 999.949
          999.949 999.949 999.949 999.949 999.949 999.949 999.949 999.949 999.948 999.948 999.948 999.948
          999.948 999.948 999.948 999.948 999.948 999.948 999.948 999.948 999.948 999.948 999.948 999.948
          999.948 999.948 999.948 999.948 999.947 999.947 999.947 999.947 999.947 999.947 999.947 999.947
          999.947 999.947 999.947 999.947 999.947 999.947 999.947 999.947 999.947 999.947 999.947 999.947
          999.946 999.946 999.946 999.946 999.946 999.946 999.946 999.946 999.946 999.946 999.946 999.946
          999.946 999.946 999.946 999.946 999.946 999.946 999.946 999.946 999.945 999.945 999.945 999.945
          999.945 999.945 999.945 999.945 999.945 999.945 999.945 999.945 999.945 999.945 999.945 999.945
          999.945 999.945 999.945 999.945 999.944 999.944 999.944 999.944 999.944 999.944 999.944 999.944
          999.944 999.944 999.944 999.944 999.944 999.944 999.944 999.944 999.944 999.944 999.944 999.944
          999.9 999.939 999.943 999.943 999.943 999.943 999.943 999.943 999.943 999.943 999.943 999.943
          999.943 999.943 999.943 999.943 999.943 999.943 999.943 999.943 955.307 999.873 999.941 999.942
          999.942 999.942 999.942 999.942 999.942 999.942 999.942 999.942 999.942 999.942 999.942 999.942
          999.942 999.942 999.942 999.942 944.476 999.7 999.936 999.941 999.942 999.942 999.942 999.941
          999.941 999.941 999.941 999.941 999.941 999.941 999.941 999.941 999.941 999.941 999.941 999.941
          940.301 999.425 999.919 999.939 999.941 999.941 999.941 999.941 999.941 999.941 999.941 999.941
          999.941 999.941 999.941 999.941 999.941 999.941 999.941 999.941 938.615 997.666 999.808 999.933
          999.939 999.94 999.94 999.94 999.94 999.94 999.94 999.94 999.94 999.94 999.94 999.94
          999.94 999.94 999.94 999.94 938.148 991.815 999.408 999.912 999.937 999.939 999.939 999.939
          999.939 999.939 999.939 999.939 999.939 999.939 999.939 999.939 999.939 999.939 999.939 999.939
          984.951 998.615 999.854 999.933 999.938 999.938 999.938 999.938 999.938 999.938 999.938 999.938
          999.938 999.938 999.938 999.938 999.938 999.938 999.938 999.938 998.589 999.828 999.93 999.936
          999.937 999.937 999.937 999.937 999.937 999.937 999.937 999.937 999.937 999.937 999.937 999.937
          999.937 999.937 999.937 999.937 999.848 999.929 999.935 999.936 999.936 999.936 999.936 999.936
          999.936 999.936 999.936 999.936 999.936 999.936 999.936 999.936 999.936 999.936 999.936 999.936
          999.93 999.935 999.935 999.935 999.935 999.935 999.935 999.935 999.935 999.935 999.935 999.935
          999.935 999.935 999.935 999.935 999.935 999.935 999.935 999.935 999.934 999.934 999.934 999.934
          999.934 999.934 999.934 999.934 999.934 999.934 999.934 999.934 999.934 999.934 999.934 999.934
          999.934 999.934 999.934 999.934 999.933 999.933 999.933 999.933 999.933 999.933 999.933 999.933
          999.933 999.933 999.933 999.933 999.933 999.933 999.933 999.933 999.933 999.933 999.933 999.933
          999.932 999.932 999.932 999.932 999.932 999.932 999.932 999.932 999.932 999.932 999.932 999.932
          999.932 999.932 999.932 999.932 999.932 999.932 999.932 999.932 999.931 999.931 999.931 999.931
          999.931 999.931 999.931 999.931 999.931 999.931 999.931 999.931 999.931 999.931 999.931 999.931
          999.931 999.931 999.931 999.931 999.93 999.93 999.93 999.93 999.93 999.93 999.93 999.93
          999.93 999.93 999.93 999.93 999.93 999.93 999.93 999.93 999.93 999.93 999.93 999.93
          999.929 999.929 999.929 999.929 999.929 999.929 999.929 999.929 999.929 999.929 999.929 999.929
          999.929 999.929 999.929 999.929 999.929 999.929 999.929 999.929 999.928 999.928 999.928 999.928
          999.928 999.928 999.928 999.928 999.928 999.928 999.928 999.928 999.928 999.928 999.928 999.928
          999.928 999.928 999.928 999.928 999.927 999.927 999.927 999.927 999.927 999.927 999.927 999.927
          999.927 999.927 999.927 999.927 999.927 999.927 999.927 999.927 999.927 999.927 999.927 999.927
          999.927 999.927 999.927 999.927 999.927 999.927 999.927 999.927 999.927 999.927 999.927 999.927
          999.927 999.927 999.926 999.926 999.926 999.926 999.926 999.926 999.926 999.926 999.926 999.926
          999.926 999.926 999.926 999.926 999.926 999.926 999.926 999.926 999.926 999.926 999.926 999.926
          999.926 999.926 999.926 999.926 999.925 999.925 999.925 999.925 999.925 999.925 999.925 999.925
          999.925 999.925 999.925 999.925 999.925 999.925 999.925 999.925 999.925 999.925 999.925 999.925
          999.924 999.924 999.924 999.924 999.924 999.924 999.924 999.924 999.924 999.924 999.924 999.924
          999.924 999.924 999.924 999.924 999.924 999.924 999.924 999.924 999.923 999.923 999.923 999.923
          999.923 999.923 999.923 999.923 999.923 999.923 999.923 999.923 999.923 999.923 999.923 999.923
          999.923 999.923 999.923 999.923 999.922 999.922 999.922 999.922 999.922 999.922 999.922 999.922
          999.922 999.922 999.922 999.922 999.922 999.922 999.922 999.922 999.922 999.922 999.922 999.922
          999.921 999.921 999.921 999.921 999.921 999.921 999.921 999.921 999.921 999.921 999.921 999.921
          999.921 999.921 999.921 999.921 999.921 999.921 999.921 999.921 999.92 999.92 999.92 999.92
          999.92 999.92 999.92 999.92 999.92 999.92 999.92 999.92 999.92 999.92 999.92 999.92
          999.92 999.92 999.92 999.92 999.919 999.919 999.919 999.919 999.919 999.919 999.919 999.919
          999.919 999.919 999.919 999.919 999.919 999.919 999.919 999.919 999.919 999.919 999.919 999.919
          999.918 999.918 999.918 999.918 999.918 999.918 999.918 999.918 999.918 999.918 999.918 999.918
          999.918 999.918 999.918 999.918 999.918 999.918 999.918 999.918 999.917 999.917 999.917 999.917
          999.917 999.917 999.917 999.917 999.917 999.917 999.917 999.917 999.917 999.917 999.917 999.917
          999.917 999.917 999.917 999.917 999.916 999.916 999.916 999.916 999.916 999.916 999.916 999.916
          999.916 999.916 999.916 999.916 999.916 999.916 999.916 999.916 999.916 999.916 999.916 999.916
          999.915 999.915 999.915 999.915 999.915 999.915 999.915 999.915 999.915 999.915 999.915 999.915
          999.915 999.915 999.915 999.915 999.915 999.915 999.915 999.915
        </DataArray>
        <DataArray type="Float32" Name="mob_liq" NumberOfComponents="1" format="ascii">
          764.629 764.629 764.629 764.629 764.629 764.629 764.629 764.629 764.629 764.629 764.629 764.629
          764.629 764.629 764.629 764.629 764.629 764.629 764.629 764.629 764.628 764.628 764.628 764.628
          764.628 764.628 764.628 764.628 764.628 764.628 764.628 764.628 764.628 764.628 764.628 764.628
          764.628 764.628 764.628 764.628 764.627 764.627 764.627 764.627 764.627 764.627 764.627 764.627
          764.627 764.627 764.627 764.627 764.627 764.627 764.627 764.627 764.627 764.627 764.627 764.627
          764.626 764.626 764.626 764.626 764.626 764.626 764.626 764.626 764.626 764.626 764.626 764.626
          764.626 764.626 764.626 764.626 764.626 764.626 764.626 764.626 764.625 764.625 764.625 764.625
          764.625 764.625 764.625 764.625 764.625 764.625 764.625 764.625 764.625 764.625 764.625 764.625
          764.625 764.625 764.625 764.625 764.624 764.624 764.624 764.624 764.624 764.624 764.624 764.624
          764.624 764.624 764.624 764.624 764.624 764.624 764.624 764.624 764.624 764.624 764.624 764.624
          764.623 764.623 764.623 764.623 764.623 764.623 764.623 764.623 764.623 764.623 764.623 764.623
          764.623 764.623 764.623 764.623 764.623 764.623 764.623 764.623 764.626 764.622 764.621 764.621
          764.621 764.621 764.622 764.622 764.622 764.622 764.622 764.622 764.622 764.622 764.622 764.622
          764.622 764.622 764.622 764.622 764.866 764.638 764.621 764.62 764.62 764.62 764.62 764.62
          764.621 764.621 764.621 764.621 764.621 764.621 764.621 764.621 764.621 764.621 764.621 764.621
          778.593 765.891 764.648 764.62 764.619 764.619 764.619 764.619 764.62 764.62 764.62 764.62
          764.62 764.62 764.62 764.62 764.62 764.62 764.62 764.62 3717.05 783.467 765.013 764.626
          764.618 764.618 764.618 764.618 764.618 764.618 764.619 764.619 764.619 764.619 764.619 764.619
          764.619 764.619 764.619 764.619 4251.1 814.419 766.319 764.673 764.619 764.617 764.617 764.617
          764.617 764.617 764.617 764.617 764.618 764.618 764.618 764.618 764.618 764.618 764.618 764.618
          4449.97 865.504 771.474 764.968 764.63 764.617 764.616 764.616 764.616 764.616 764.616 764.617
          764.617 764.617 764.617 764.617 764.617 764.617 764.617 764.617 4527.31 1081.65 794.355 766.711
          764.714 764.619 764.615 764.615 764.615 764.615 764.615 764.615 764.615 764.615 764.615 764.615
          764.615 764.615 764.615 764.615 4549.14 1577.7 867.543 773.247 765.064 764.632 764.615 764.614
          764.614 764.614 764.614 764.614 764.614 764.614 764.614 764.614 764.614 764.614 764.614 764.614
          2047.89 974.432 785.981 766.082 764.685 764.616 764.614 764.613 764.613 764.613 764.613 764.613
          764.613 764.613 764.613 764.613 764.613 764.613 764.613 764.613 977.439 790.339 766.822 764.743
          764.618 764.613 764.613 764.612 764.612 764.612 764.612 764.612 764.612 764.612 764.612 764.612
          764.612 764.612 764.612 764.612 786.692 766.902 764.776 764.621 764.612 764.612 764.612 764.612
          764.611 764.611 764.611 764.611 764.611 764.611 764.611 764.611 764.611 764.611 764.611 764.611
          766.126 764.749 764.62 764.612 764.611 764.611 764.611 764.611 764.61 764.61 764.61 764.61
          764.61 764.61 764.61 764.61 764.61 764.61 764.61 764.61 764.682 764.617 764.611 764.61
          764.61 764.61 764.61 764.61 764.609 764.609 764.609 764.609 764.609 764.609 764.609 764.609