<?xml version="1.0"?>
<VTKFile type="UnstructuredGrid" version="0.1" byte_order="LittleEndian">
  <UnstructuredGrid>
    <Piece NumberOfCells="200" NumberOfPoints="231">
      <PointData Scalars="sw">
        <DataArray type="Float32" Name="sw" NumberOfComponents="1" format="ascii">
          1 1 1 1 1 1 1 1 1 1 1 1
          1 1 1 1 1 1 1 1 1 1 1 1
          1 1 1 1 1 1 1 1 1 1 1 1
          1 1 1 1 1 1 1 1 1 1 1 1
          1 1 1 1 1 1 1 1 1 1 1 1
          1 1 1 1 1 1 0.822808 1 1 1 1 1
          1 1 1 1 1 0.74307 1 1 1 1 1 1
          1 1 1 1 1 1 1 1 1 1 1 1
          1 1 1 1 1 1 1 1 1 1 1 1
          1 1 1 1 1 1 1 1 1 1 1 1
          1 1 1 1 1 1 1 1 1 1 1 1
          1 1 1 1 1 1 1 1 1 1 1 1
          1 1 1 1 1 1 1 1 1 1 1 1
          1 1 1 1 1 1 1 1 1 1 1 1
          1 1 1 1 1 1 1 1 1 1 1 1
          1 1 1 1 1 1 1 1 1 1 1 1
          1 1 1 1 1 1 1 1 1 1 1 1
          1 1 1 1 1 1 1 1 1 1 1 1
          1 1 1 1 1 1 1 1 1 1 1 1
          1 1 1
        </DataArray>
        <DataArray type="Float32" Name="sg" NumberOfComponents="1" format="ascii">
          0 0 0 0 0 0 0 0 0 0 0 0
          0 0 0 0 0 0 0 0 0 0 0 0
          0 0 0 0 0 0 0 0 0 0 0 0
          0 0 0 0 0 0 0 0 0 0 0 0
          0 0 0 0 0 0 0 0 0 0 0 0
          0 0 0 0 0 0 0.177192 0 0 0 0 0
          0 0 0 0 0 0.25693 0 0 0 0 0 0
          0 0 0 0 0 0 0 0 0 0 0 0
          0 0 0 0 0 0 0 0 0 0 0 0
          0 0 0 0 0 0 0 0 0 0 0 0
          0 0 0 0 0 0 0 0 0 0 0 0
          0 0 0 0 0 0 0 0 0 0 0 0
          0 0 0 0 0 0 0 0 0 0 0 0
          0 0 0 0 0 0 0 0 0 0 0 0
          0 0 0 0 0 0 0 0 0 0 0 0
          0 0 0 0 0 0 0 0 0 0 0 0
          0 0 0 0 0 0 0 0 0 0 0 0
          0 0 0 0 0 0 0 0 0 0 0 0
          0 0 0 0 0 0 0 0 0 0 0 0
          0 0 0
        </DataArray>
        <DataArray type="Float32" Name="pw" NumberOfComponents="1" format="ascii">
          180140 180133 176223 176217 180115 176198 180087 176168 180052 176131 180011 176090
          179967 176045 179921 175998 179874 175951 179826 175903 179780 175856 172320 172312
          172290 172257 172216 172171 172124 172076 172028 171980 171932 168434 168423 168394
          168352 168304 168254 168204 168155 168105 168057 168008 164568 164554 164511 164452
          164394 164338 164284 164233 164182 164133 164084 160692 160744 160632 160550 160480
          160419 160362 160309 160258 160209 160160 157303 156850 156733 156637 156560 156495
          156437 156384 156333 156284 156236 153356 152873 152801 152705 152628 152564 152507
          152455 152406 152359 152312 148899 148944 148833 148753 148686 148626 148573 148524
          148477 148432 148388 144946 144901 144849 144790 144734 144683 144635 144590 144547
          144505 144464 140913 140897 140863 140822 140779 140736 140695 140655 140616 140578
          140540 136914 136906 136885 136856 136823 136788 136753 136718 136684 136650 136616
          132933 132928 132914 132893 132868 132840 132811 132781 132751 132722 132692 128964
          128960 128950 128934 128915 128893 128869 128844 128819 128793 128768 125001 124999
          124991 124980 124964 124947 124928 124908 124887 124865 124844 121044 121043 121037
          121028 121017 121003 120988 120972 120955 120937 120920 117091 117090 117086 117079
          117071 117060 117049 117036 117023 117010 116996 113141 113140 113137 113133 113127
          113119 113111 113102 113092 113082 113072 109193 109192 109191 109188 109184 109179
          109173 109167 109161 109155 109148 105246 105246 105245 105244 105242 105239 105237
          105234 105231 105227 105224 101300 101300 101300 101300 101300 101300 101300 101300
          101300 101300 101300
        </DataArray>
        <DataArray type="Float32" Name="pg" NumberOfComponents="1" format="ascii">
          180140 180133 176223 176217 180115 176198 180087 176168 180052 176131 180011 176090
          179967 176045 179921 175998 179874 175951 179826 175903 179780 175856 172320 172312
          172290 172257 172216 172171 172124 172076 172028 171980 171932 168434 168423 168394
          168352 168304 168254 168204 168155 168105 168057 168008 164568 164554 164511 164452
          164394 164338 164284 164233 164182 164133 164084 160692 160744 160632 160550 160480
          160419 160362 160309 160258 160209 160160 157568 156850 156733 156637 156560 156495
          156437 156384 156333 156284 156236 153705 152873 152801 152705 152628 152564 152507
          152455 152406 152359 152312 148899 148944 148833 148753 148686 148626 148573 148524
          148477 148432 148388 144946 144901 144849 144790 144734 144683 144635 144590 144547
          144505 144464 140913 140897 140863 140822 140779 140736 140695 140655 140616 140578
          140540 136914 136906 136885 136856 136823 136788 136753 136718 136684 136650 136616
          132933 132928 132914 132893 132868 132840 132811 132781 132751 132722 132692 128964
          128960 128950 128934 128915 128893 128869 128844 128819 128793 128768 125001 124999
          124991 124980 124964 124947 124928 124908 124887 124865 124844 121044 121043 121037
          121028 121017 121003 120988 120972 120955 120937 120920 117091 117090 117086 117079
          117071 117060 117049 117036 117023 117010 116996 113141 113140 113137 113133 113127
          113119 113111 113102 113092 113082 113072 109193 109192 109191 109188 109184 109179
          109173 109167 109161 109155 109148 105246 105246 105245 105244 105242 105239 105237
          105234 105231 105227 105224 101300 101300 101300 101300 101300 101300 101300 101300
          101300 101300 101300
        </DataArray>
        <DataArray type="Float32" Name="rhow" NumberOfComponents="1" format="ascii">
          999.729 999.729 999.727 999.727 999.729 999.727 999.729 999.727 999.729 999.727 999.729 999.727
          999.729 999.727 999.729 999.727 999.729 999.727 999.729 999.727 999.729 999.727 999.725 999.725
          999.725 999.725 999.725 999.725 999.725 999.725 999.725 999.725 999.725 999.723 999.723 999.723
          999.723 999.723 999.723 999.723 999.723 999.723 999.723 999.723 999.657 999.72 999.721 999.721
          999.721 999.721 999.721 999.721 999.721 999.721 999.721 978.951 999.651 999.719 999.719 999.719
          999.719 999.719 999.719 999.719 999.719 999.719 948.769 998.836 999.707 999.717 999.717 999.717
          999.717 999.717 999.717 999.717 999.717 949.345 997.01 999.666 999.714 999.716 999.716 999.716
          999.716 999.716 999.715 999.715 988.278 999.483 999.708 999.714 999.714 999.714 999.714 999.714
          999.714 999.714 999.714 999.437 999.704 999.712 999.712 999.712 999.712 999.712 999.712 999.712
          999.712 999.712 999.704 999.71 999.71 999.71 999.71 999.71 999.71 999.71 999.71 999.71
          999.71 999.708 999.708 999.708 999.708 999.708 999.708 999.708 999.708 999.708 999.708 999.708
          999.706 999.706 999.706 999.706 999.706 999.706 999.706 999.706 999.706 999.706 999.706 999.704
          999.704 999.704 999.704 999.704 999.704 999.704 999.704 999.704 999.704 999.704 999.702 999.702
          999.702 999.702 999.702 999.702 999.702 999.702 999.702 999.702 999.702 999.701 999.701 999.701
          999.701 999.701 999.701 999.701 999.701 999.701 999.7 999.7 999.699 999.699 999.699 999.699
          999.699 999.699 999.699 999.699 999.699 999.699 999.699 999.697 999.697 999.697 999.697 999.697
          999.697 999.697 999.697 999.697 999.697 999.697 999.695 999.695 999.695 999.695 999.695 999.695
          999.695 999.695 999.695 999.695 999.695 999.693 999.693 999.693 999.693 999.693 999.693 999.693
          999.693 999.693 999.693 999.693 999.691 999.691 999.691 999.691 999.691 999.691 999.691 999.691
          999.691 999.691 999.691
        </DataArray>
        <DataArray type="Float32" Name="rhog" NumberOfComponents="1" format="ascii">
          1.38113 1.38108 1.3511 1.35105 1.38094 1.35091 1.38073 1.35068 1.38046 1.3504 1.38014 1.35008
          1.3798 1.34973 1.37945 1.34938 1.37909 1.34901 1.37873 1.34865 1.37837 1.34829 1.32118 1.32112
          1.32095 1.32069 1.32038 1.32003 1.31967 1.31931 1.31894 1.31857 1.3182 1.29136 1.2913 1.29108
          1.29075 1.29039 1.29 1.28962 1.28924 1.28886 1.28849 1.28812 1.25832 1.26155 1.2613 1.26085
          1.2604 1.25998 1.25957 1.25917 1.25878 1.25841 1.25803 1.03357 1.22892 1.23152 1.23093 1.2304
          1.22993 1.2295 1.22909 1.2287 1.22832 1.22795 0.90318 1.17527 1.20107 1.20092 1.20034 1.19984
          1.1994 1.19899 1.1986 1.19823 1.19786 0.882446 1.11391 1.16881 1.17072 1.1702 1.16971 1.16927
          1.16887 1.16849 1.16813 1.16777 1.00739 1.1334 1.14078 1.14048 1.13997 1.13952 1.13911 1.13873
          1.13837 1.13803 1.13769 1.10158 1.11054 1.11054 1.1101 1.10968 1.10928 1.10892 1.10857 1.10824
          1.10792 1.1076 1.08005 1.08024 1.08 1.07968 1.07935 1.07902 1.0787 1.0784 1.0781 1.07781
          1.07752 1.04971 1.04965 1.04949 1.04927 1.04902 1.04875 1.04848 1.04822 1.04795 1.04769 1.04743
          1.0192 1.01916 1.01905 1.01889 1.01869 1.01848 1.01826 1.01803 1.0178 1.01757 1.01735 0.988761
          0.988734 0.988655 0.988536 0.988386 0.988216 0.988034 0.987844 0.987651 0.987457 0.987261 0.958382 0.958362
          0.958305 0.958214 0.958099 0.957965 0.957818 0.957662 0.957502 0.95734 0.957176 0.928044 0.928029 0.927987
          0.927919 0.92783 0.927726 0.92761 0.927485 0.927356 0.927224 0.92709 0.897736 0.897725 0.897694 0.897644
          0.897577 0.897498 0.897409 0.897313 0.897213 0.897109 0.897005 0.86745 0.867443 0.86742 0.867385 0.867337
          0.867281 0.867216 0.867146 0.867072 0.866996 0.866919 0.837179 0.837175 0.83716 0.837138 0.837107 0.83707
          0.837028 0.836983 0.836934 0.836884 0.836834 0.806919 0.806916 0.806909 0.806898 0.806883 0.806865 0.806845
          0.806822 0.806798 0.806773 0.806748 0.776663 0.776663 0.776663 0.776663 0.776663 0.776663 0.776663 0.776663
          0.776663 0.776663 0.776663
        </DataArray>
        <DataArray type="Float32" Name="MobW" NumberOfComponents="1" format="ascii">
          764.381 764.381 764.379 764.379 764.381 764.379 764.381 764.379 764.381 764.379 764.381 764.379
          764.381 764.379 764.381 764.379 764.381 764.379 764.381 764.378 764.381 764.378 764.377 764.376
          764.376 764.376 764.376 764.376 764.376 764.376 764.376 764.376 764.376 764.517 764.379 764.374
          764.374 764.374 764.374 764.374 764.374 764.374 764.374 764.374 782.422 764.828 764.378 764.372
          764.372 764.372 764.372 764.372 764.372 764.372 764.372 2408.16 783.213 764.612 764.373 764.37
          764.37 764.37 764.37 764.37 764.37 764.37 590.728 918.384 767.734 764.417 764.369 764.368
          764.368 764.368 764.368 764.368 764.368 305.539 1128.42 780.017 764.747 764.372 764.366 764.366
          764.366 764.366 764.366 764.366 1815.35 812.654 766.195 764.404 764.365 764.364 764.364 764.364
          764.364 764.364 764.364 821.035 766.832 764.435 764.364 764.362 764.362 764.362 764.362 764.362
          764.362 764.362 766.371 764.432 764.362 764.36 764.36 764.36 764.36 764.36 764.36 764.36
          764.36 764.397 764.36 764.359 764.358 764.358 764.358 764.358 764.358 764.358 764.358 764.358
          764.357 764.356 764.356 764.356 764.356 764.356 764.356 764.356 764.356 764.356 764.355 764.354
          764.354 764.354 764.354 764.354 764.354 764.354 764.354 764.354 764.353 764.353 764.352 764.352
          764.352 764.352 764.352 764.352 764.352 764.352 764.351 764.351 764.351 764.35 764.35 764.35
          764.35 764.35 764.35 764.349 764.349 764.349 764.349 764.349 764.348 764.348 764.348 764.347
          764.347 764.347 764.347 764.347 764.347 764.347 764.347 764.345 764.345 764.345 764.345 764.345
          764.345 764.345 764.345 764.345 764.345 764.345 764.343 764.343 764.343 764.343 764.343 764.343
          764.343 764.343 764.343 764.343 764.343 764.341 764.341 764.341 764.341 764.341 764.341 764.341
          764.341 764.341 764.341 764.341 764.339 764.339 764.339 764.339 764.339 764.339 764.339 764.339
          764.339 764.339 764.339
        </DataArray>
        <DataArray type="Float32" Name="MobG" NumberOfComponents="1" format="ascii">
          0 0 0 0 0 0 0 0 0 0 0 0
          0 0 0 0 0 0 0 0 0 0 0 0
          0 0 0 0 0 0 0 0 0 0 0 0
          0 0 0 0 0 0 0 0 0 0 0 0
          0 0 0 0 0 0 0 0 0 0 0 0
          0 0 0 0 0 0 16289.6 0 0 0 0 0
          0 0 0 0 0 25473.2 0 0 0 0 0 0
          0 0 0 0 0 0 0 0 0 0 0 0
          0 0 0 0 0 0 0 0 0 0 0 0
          0 0 0 0 0 0 0 0 0 0 0 0
          0 0 0 0 0 0 0 0 0 0 0 0
          0 0 0 0 0 0 0 0 0 0 0 0
          0 0 0 0 0 0 0 0 0 0 0 0
          0 0 0 0 0 0 0 0 0 0 0 0
          0 0 0 0 0 0 0 0 0 0 0 0
          0 0 0 0 0 0 0 0 0 0 0 0
          0 0 0 0 0 0 0 0 0 0 0 0
          0 0 0 0 0 0 0 0 0 0 0 0
          0 0 0 0 0 0 0 0 0 0 0 0
          0 0 0
        </DataArray>
        <DataArray type="Float32" Name="ViscosW" NumberOfComponents="1" format="ascii">
          0.00130825 0.00130825 0.00130825 0.00130825 0.00130825 0.00130825 0.00130825 0.00130825 0.00130825 0.00130825 0.00130825 0.00130825
          0.00130825 0.00130825 0.00130825 0.00130825 0.00130825 0.00130825 0.00130825 0.00130825 0.00130825 0.00130825 0.00130825 0.00130826
          0.00130826 0.00130826 0.00130826 0.00130826 0.00130826 0.00130826 0.00130826 0.00130826 0.00130826 0.00130802 0.00130825 0.00130826
          0.00130826 0.00130826 0.00130826 0.00130826 0.00130826 0.00130826 0.00130826 0.00130826 0.00127808 0.00130748 0.00130825 0.00130826
          0.00130826 0.00130826 0.00130826 0.00130826 0.00130826 0.00130826 0.00130826 0.000415254 0.00127679 0.00130785 0.00130826 0.00130827
          0.00130827 0.00130827 0.00130827 0.00130827 0.00130827 0.00130827 0.000247832 0.00108887 0.00130253 0.00130819 0.00130827 0.00130827
          0.00130827 0.00130827 0.00130827 0.00130827 0.00130827 0.000249633 0.000886195 0.00128202 0.00130762 0.00130826 0.00130827 0.00130827
          0.00130827 0.00130827 0.00130827 0.00130827 0.000550859 0.00123054 0.00130515 0.00130821 0.00130828 0.00130828 0.00130828 0.00130828
          0.00130828 0.00130828 0.00130828 0.00121797 0.00130407 0.00130816 0.00130828 0.00130828 0.00130828 0.00130828 0.00130828 0.00130828
          0.00130828 0.00130828 0.00130485 0.00130816 0.00130828 0.00130828 0.00130828 0.00130828 0.00130828 0.00130828 0.00130828 0.00130828
          0.00130828 0.00130822 0.00130828 0.00130829 0.00130829 0.00130829 0.00130829 0.00130829 0.00130829 0.00130829 0.00130829 0.00130829
          0.00130829 0.00130829 0.00130829 0.00130829 0.00130829 0.00130829 0.00130829 0.00130829 0.00130829 0.00130829 0.00130829 0.00130829
          0.00130829 0.00130829 0.00130829 0.00130829 0.00130829 0.00130829 0.0013083 0.0013083 0.0013083 0.0013083 0.0013083 0.0013083
          0.0013083 0.0013083 0.0013083 0.0013083 0.0013083 0.0013083 0.0013083 0.0013083 0.0013083 0.0013083 0.0013083 0.0013083
          0.0013083 0.0013083 0.0013083 0.0013083 0.0013083 0.0013083 0.0013083 0.0013083 0.00130831 0.00130831 0.00130831 0.00130831
          0.00130831 0.00130831 0.00130831 0.00130831 0.00130831 0.00130831 0.00130831 0.00130831 0.00130831 0.00130831 0.00130831 0.00130831
          0.00130831 0.00130831 0.00130831 0.00130831 0.00130831 0.00130831 0.00130831 0.00130831 0.00130831 0.00130831 0.00130831 0.00130831
          0.00130831 0.00130831 0.00130831 0.00130831 0.00130831 0.00130832 0.00130832 0.00130832 0.00130832 0.00130832 0.00130832 0.00130832
          0.00130832 0.00130832 0.00130832 0.00130832 0.00130832 0.00130832 0.00130832 0.00130832 0.00130832 0.00130832 0.00130832 0.00130832
          0.00130832 0.00130832 0.00130832
        </DataArray>
        <DataArray type="Float32" Name="ViscosG" NumberOfComponents="1" format="ascii">
          8.67141e-06 8.67143e-06 8.68382e-06 8.68384e-06 8.67149e-06 8.6839e-06 8.67158e-06 8.68399e-06 8.67169e-06 8.68411e-06 8.67182e-06 8.68424e-06
          8.67196e-06 8.68438e-06 8.67211e-06 8.68453e-06 8.67226e-06 8.68468e-06 8.67241e-06 8.68483e-06 8.67255e-06 8.68498e-06 8.69618e-06 8.6962e-06
          8.69627e-06 8.69638e-06 8.69651e-06 8.69665e-06 8.6968e-06 8.69695e-06 8.6971e-06 8.69725e-06 8.69741e-06 8.70871e-06 8.70852e-06 8.70861e-06
          8.70874e-06 8.70889e-06 8.70905e-06 8.70921e-06 8.70937e-06 8.70952e-06 8.70968e-06 8.70983e-06 8.75024e-06 8.72151e-06 8.72091e-06 8.72109e-06
          8.72128e-06 8.72145e-06 8.72162e-06 8.72179e-06 8.72195e-06 8.7221e-06 8.72226e-06 1.09277e-05 8.76365e-06 8.73358e-06 8.73345e-06 8.73367e-06
          8.73386e-06 8.73404e-06 8.73421e-06 8.73437e-06 8.73453e-06 8.73468e-06 1.26779e-05 8.99726e-06 8.75092e-06 8.74592e-06 8.74608e-06 8.74629e-06
          8.74647e-06 8.74664e-06 8.7468e-06 8.74696e-06 8.74711e-06 1.26519e-05 9.32498e-06 8.78276e-06 8.7589e-06 8.75854e-06 8.75874e-06 8.75892e-06
          8.75908e-06 8.75924e-06 8.75939e-06 8.75953e-06 1.02456e-05 8.85123e-06 8.77346e-06 8.77087e-06 8.77102e-06 8.7712e-06 8.77137e-06 8.77153e-06
          8.77168e-06 8.77182e-06 8.77196e-06 8.87719e-06 8.7869e-06 8.78328e-06 8.78336e-06 8.78353e-06 8.78369e-06 8.78384e-06 8.78399e-06 8.78412e-06
          8.78425e-06 8.78439e-06 8.79879e-06 8.79579e-06 8.79579e-06 8.79592e-06 8.79605e-06 8.79619e-06 8.79632e-06 8.79645e-06 8.79657e-06 8.79669e-06
          8.79681e-06 8.80836e-06 8.80832e-06 8.80839e-06 8.80848e-06 8.80858e-06 8.80869e-06 8.8088e-06 8.80891e-06 8.80902e-06 8.80913e-06 8.80924e-06
          8.8209e-06 8.82092e-06 8.82096e-06 8.82103e-06 8.82111e-06 8.8212e-06 8.82129e-06 8.82138e-06 8.82147e-06 8.82157e-06 8.82166e-06 8.83347e-06
          8.83348e-06 8.83351e-06 8.83356e-06 8.83362e-06 8.83369e-06 8.83377e-06 8.83385e-06 8.83393e-06 8.83401e-06 8.83409e-06 8.84602e-06 8.84602e-06
          8.84605e-06 8.84609e-06 8.84613e-06 8.84619e-06 8.84625e-06 8.84631e-06 8.84638e-06 8.84645e-06 8.84651e-06 8.85855e-06 8.85855e-06 8.85857e-06
          8.8586e-06 8.85863e-06 8.85868e-06 8.85873e-06 8.85878e-06 8.85883e-06 8.85888e-06 8.85894e-06 8.87106e-06 8.87107e-06 8.87108e-06 8.8711e-06
          8.87113e-06 8.87116e-06 8.8712e-06 8.87124e-06 8.87128e-06 8.87132e-06 8.87137e-06 8.88357e-06 8.88357e-06 8.88358e-06 8.8836e-06 8.88362e-06
          8.88364e-06 8.88367e-06 8.8837e-06 8.88373e-06 8.88376e-06 8.88379e-06 8.89607e-06 8.89608e-06 8.89608e-06 8.89609e-06 8.8961e-06 8.89612e-06
          8.89614e-06 8.89616e-06 8.89618e-06 8.8962e-06 8.89622e-06 8.90857e-06 8.90857e-06 8.90858e-06 8.90858e-06 8.90859e-06 8.90859e-06 8.9086e-06
          8.90861e-06 8.90862e-06 8.90863e-06 8.90864e-06 8.92107e-06 8.92107e-06 8.92107e-06 8.92107e-06 8.92107e-06 8.92107e-06 8.92107e-06 8.92107e-06
          8.92107e-06 8.92107e-06 8.92107e-06
        </DataArray>
        <DataArray type="Float32" Name="porosity" NumberOfComponents="1" format="ascii">
          0.4 0.4 0.4 0.4 0.4 0.4 0.4 0.4 0.4 0.4 0.4 0.4
          0.4 0.4 0.4 0.4 0.4 0.4 0.4 0.4 0.4 0.4 0.4 0.4
          0.4 0.4 0.4 0.4 0.4 0.4 0.4 0.4 0.4 0.4 0.4 0.4
          0.4 0.4 0.4 0.4 0.4 0.4 0.4 0.4 0.4 0.4 0.4 0.4
          0.4 0.4 0.4 0.4 0.4 0.4 0.4 0.4 0.4 0.4 0.4 0.4
          0.4 0.4 0.4 0.4 0.4 0.4 0.4 0.4 0.4 0.4 0.4 0.4
          0.4 0.4 0.4 0.4 0.4 0.4 0.4 0.4 0.4 0.4 0.4 0.4
          0.4 0.4 0.4 0.4 0.4 0.4 0.4 0.4 0.4 0.4 0.4 0.4
          0.4 0.4 0.4 0.4 0.4 0.4 0.4 0.4 0.4 0.4 0.4 0.4
          0.4 0.4 0.4 0.4 0.4 0.4 0.4 0.4 0.4 0.4 0.4 0.4
          0.4 0.4 0.4 0.4 0.4 0.4 0.4 0.4 0.4 0.4 0.4 0.4
          0.4 0.4 0.4 0.4 0.4 0.4 0.4 0.4 0.4 0.4 0.4 0.4
          0.4 0.4 0.4 0.4 0.4 0.4 0.4 0.4 0.4 0.4 0.4 0.4
          0.4 0.4 0.4 0.4 0.4 0.4 0.4 0.4 0.4 0.4 0.4 0.4
          0.4 0.4 0.4 0.4 0.4 0.4 0.4 0.4 0.4 0.4 0.4 0.4
          0.4 0.4 0.4 0.4 0.4 0.4 0.4 0.4 0.4 0.4 0.4 0.4
          0.4 0.4 0.4 0.4 0.4 0.4 0.4 0.4 0.4 0.4 0.4 0.4
          0.4 0.4 0.4 0.4 0.4 0.4 0.4 0.4 0.4 0.4 0.4 0.4
          0.4 0.4 0.4 0.4 0.4 0.4 0.4 0.4 0.4 0.4 0.4 0.4
          0.4 0.4 0.4
        </DataArray>
        <DataArray type="Float32" Name="permeabilityXX" NumberOfComponents="1" format="ascii">
          1e-09 1e-09 1e-09 1e-09 1e-09 1e-09 1e-09 1e-09 1e-09 1e-09 1e-09 1e-09
          1e-09 1e-09 1e-09 1e-09 1e-09 1e-09 1e-09 1e-09 1e-09 1e-09 1e-09 1e-09
          1e-09 1e-09 1e-09 1e-09 1e-09 1e-09 1e-09 1e-09 1e-09 1e-09 1e-09 1e-09
          1e-09 1e-09 1e-09 1e-09 1e-09 1e-09 1e-09 1e-09 1e-09 1e-09 1e-09 1e-09
          1e-09 1e-09 1e-09 1e-09 1e-09 1e-09 1e-09 1e-09 1e-09 1e-09 1e-09 1e-09
          1e-09 1e-09 1e-09 1e-09 1e-09 1e-09 1e-09 1e-09 1e-09 1e-09 1e-09 1e-09
          1e-09 1e-09 1e-09 1e-09 1e-09 1e-09 1e-09 1e-09 1e-09 1e-09 1e-09 1e-09
          1e-09 1e-09 1e-09 1e-09 1e-09 1e-09 1e-09 1e-09 1e-09 1e-09 1e-09 1e-09
          1e-09 1e-09 1e-09 1e-09 1e-09 1e-09 1e-09 1e-09 1e-09 1e-09 1e-09 1e-09
          1e-09 1e-09 1e-09 1e-09 1e-09 1e-09 1e-09 1e-09 1e-09 1e-09 1e-09 1e-09
          1e-09 1e-09 1e-09 1e-09 1e-09 1e-09 1e-09 1e-09 1e-09 1e-09 1e-09 1e-09
          1e-09 1e-09 1e-09 1e-09 1e-09 1e-09 1e-09 1e-09 1e-09 1e-09 1e-09 1e-09
          1e-09 1e-09 1e-09 1e-09 1e-09 1e-09 1e-09 1e-09 1e-09 1e-09 1e-09 1e-09
          1e-09 1e-09 1e-09 1e-09 1e-09 1e-09 1e-09 1e-09 1e-09 1e-09 1e-09 1e-09
          1e-09 1e-09 1e-09 1e-09 1e-09 1e-09 1e-09 1e-09 1e-09 1e-09 1e-09 1e-09
          1e-09 1e-09 1e-09 1e-09 1e-09 1e-09 1e-09 1e-09 1e-09 1e-09 1e-09 1e-09
          1e-09 1e-09 1e-09 1e-09 1e-09 1e-09 1e-09 1e-09 1e-09 1e-09 1e-09 1e-09
          1e-09 1e-09 1e-09 1e-09 1e-09 1e-09 1e-09 1e-09 1e-09 1e-09 1e-09 1e-09
          1e-09 1e-09 1e-09 1e-09 1e-09 1e-09 1e-09 1e-09 1e-09 1e-09 1e-09 1e-09
          1e-09 1e-09 1e-09
        </DataArray>
        <DataArray type="Float32" Name="permeabilityYY" NumberOfComponents="1" format="ascii">
          1e-09 1e-09 1e-09 1e-09 1e-09 1e-09 1e-09 1e-09 1e-09 1e-09 1e-09 1e-09
          1e-09 1e-09 1e-09 1e-09 1e-09 1e-09 1e-09 1e-09 1e-09 1e-09 1e-09 1e-09
          1e-09 1e-09 1e-09 1e-09 1e-09 1e-09 1e-09 1e-09 1e-09 1e-09 1e-09 1e-09
          1e-09 1e-09 1e-09 1e-09 1e-09 1e-09 1e-09 1e-09 1e-09 1e-09 1e-09 1e-09
          1e-09 1e-09 1e-09 1e-09 1e-09 1e-09 1e-09 1e-09 1e-09 1e-09 1e-09 1e-09
          1e-09 1e-09 1e-09 1e-09 1e-09 1e-09 1e-09 1e-09 1e-09 1e-09 1e-09 1e-09
          1e-09 1e-09 1e-09 1e-09 1e-09 1e-09 1e-09 1e-09 1e-09 1e-09 1e-09 1e-09
          1e-09 1e-09 1e-09 1e-09 1e-09 1e-09 1e-09 1e-09 1e-09 1e-09 1e-09 1e-09
          1e-09 1e-09 1e-09 1e-09 1e-09 1e-09 1e-09 1e-09 1e-09 1e-09 1e-09 1e-09
          1e-09 1e-09 1e-09 1e-09 1e-09 1e-09 1e-09 1e-09 1e-09 1e-09 1e-09 1e-09
          1e-09 1e-09 1e-09 1e-09 1e-09 1e-09 1e-09 1e-09 1e-09 1e-09 1e-09 1e-09
          1e-09 1e-09 1e-09 1e-09 1e-09 1e-09 1e-09 1e-09 1e-09 1e-09 1e-09 1e-09
          1e-09 1e-09 1e-09 1e-09 1e-09 1e-09 1e-09 1e-09 1e-09 1e-09 1e-09 1e-09
          1e-09 1e-09 1e-09 1e-09 1e-09 1e-09 1e-09 1e-09 1e-09 1e-09 1e-09 1e-09
          1e-09 1e-09 1e-09 1e-09 1e-09 1e-09 1e-09 1e-09 1e-09 1e-09 1e-09 1e-09
          1e-09 1e-09 1e-09 1e-09 1e-09 1e-09 1e-09 1e-09 1e-09 1e-09 1e-09 1e-09
          1e-09 1e-09 1e-09 1e-09 1e-09 1e-09 1e-09 1e-09 1e-09 1e-09 1e-09 1e-09
          1e-09 1e-09 1e-09 1e-09 1e-09 1e-09 1e-09 1e-09 1e-09 1e-09 1e-09 1e-09
          1e-09 1e-09 1e-09 1e-09 1e-09 1e-09 1e-09 1e-09 1e-09 1e-09 1e-09 1e-09
          1e-09 1e-09 1e-09
        </DataArray>
        <DataArray type="Float32" Name="phase presence" NumberOfComponents="1" format="ascii">
          2 2 2 2 2 2 2 2 2 2 2 2
          2 2 2 2 2 2 2 2 2 2 2 2
          2 2 2 2 2 2 2 2 2 2 2 2
          2 2 2 2 2 2 2 2 2 2 2 2
          2 2 2 2 2 2 2 2 2 2 2 2
          2 2 2 2 2 2 1 2 2 2 2 2
          2 2 2 2 2 1 2 2 2 2 2 2
          2 2 2 2 2 2 2 2 2 2 2 2
          2 2 2 2 2 2 2 2 2 2 2 2
          2 2 2 2 2 2 2 2 2 2 2 2
          2 2 2 2 2 2 2 2 2 2 2 2
          2 2 2 2 2 2 2 2 2 2 2 2
          2 2 2 2 2 2 2 2 2 2 2 2
          2 2 2 2 2 2 2 2 2 2 2 2
          2 2 2 2 2 2 2 2 2 2 2 2
          2 2 2 2 2 2 2 2 2 2 2 2
          2 2 2 2 2 2 2 2 2 2 2 2
          2 2 2 2 2 2 2 2 2 2 2 2
          2 2 2 2 2 2 2 2 2 2 2 2
          2 2 2
        </DataArray>
        <DataArray type="Float32" Name="temperature" NumberOfComponents="1" format="ascii">
          283.13 283.13 283.13 283.13 283.13 283.13 283.13 283.13 283.13 283.13 283.13 283.13
          283.13 283.13 283.13 283.13 283.13 283.13 283.13 283.13 283.13 283.13 283.13 283.13
          283.13 283.13 283.13 283.13 283.13 283.13 283.13 283.13 283.13 283.136 283.13 283.13
          283.13 283.13 283.13 283.13 283.13 283.13 283.13 283.13 283.913 283.15 283.13 283.13
          283.13 283.13 283.13 283.13 283.13 283.13 283.13 341.114 283.951 283.14 283.13 283.13
          283.13 283.13 283.13 283.13 283.13 283.13 385.984 289.877 283.274 283.132 283.13 283.13
          283.13 283.13 283.13 283.13 283.13 385.234 298.364 283.796 283.146 283.13 283.13 283.13
          283.13 283.13 283.13 283.13 322.683 285.32 283.209 283.132 283.13 283.13 283.13 283.13
          283.13 283.13 283.13 285.691 283.236 283.133 283.13 283.13 283.13 283.13 283.13 283.13
          283.13 283.13 283.216 283.133 283.13 283.13 283.13 283.13 283.13 283.13 283.13 283.13
          283.13 283.132 283.13 283.13 283.13 283.13 283.13 283.13 283.13 283.13 283.13 283.13
          283.13 283.13 283.13 283.13 283.13 283.13 283.13 283.13 283.13 283.13 283.13 283.13
          283.13 283.13 283.13 283.13 283.13 283.13 283.13 283.13 283.13 283.13 283.13 283.13
          283.13 283.13 283.13 283.13 283.13 283.13 283.13 283.13 283.13 283.13 283.13 283.13
          283.13 283.13 283.13 283.13 283.13 283.13 283.13 283.13 283.13 283.13 283.13 283.13
          283.13 283.13 283.13 283.13 283.13 283.13 283.13 283.13 283.13 283.13 283.13 283.13
          283.13 283.13 283.13 283.13 283.13 283.13 283.13 283.13 283.13 283.13 283.13 283.13
          283.13 283.13 283.13 283.13 283.13 283.13 283.13 283.13 283.13 283.13 283.13 283.13
          283.13 283.13 283.13 283.13 283.13 283.13 283.13 283.13 283.13 283.13 283.13 283.13
          283.13 283.13 283.13
        </DataArray>
      </PointData>
      <CellData Scalars="process rank">
        <DataArray type="Float32" Name="process rank" NumberOfComponents="1" format="ascii">
          0 0 0 0 0 0 0 0 0 0 0 0
          0 0 0 0 0 0 0 0 0 0 0 0
          0 0 0 0 0 0 0 0 0 0 0 0
          0 0 0 0 0 0 0 0 0 0 0 0
          0 0 0 0 0 0 0 0 0 0 0 0
          0 0 0 0 0 0 0 0 0 0 0 0
          0 0 0 0 0 0 0 0 0 0 0 0
          0 0 0 0 0 0 0 0 0 0 0 0
          0 0 0 0 0 0 0 0 0 0 0 0
          0 0 0 0 0 0 0 0 0 0 0 0
          0 0 0 0 0 0 0 0 0 0 0 0
          0 0 0 0 0 0 0 0 0 0 0 0
          0 0 0 0 0 0 0 0 0 0 0 0
          0 0 0 0 0 0 0 0 0 0 0 0
          0 0 0 0 0 0 0 0 0 0 0 0
          0 0 0 0 0 0 0 0 0 0 0 0
          0 0 0 0 0 0 0 0
        </DataArray>
      </CellData>
      <Points>
        <DataArray type="Float32" Name="Coordinates" NumberOfComponents="3" format="ascii">
          0 0 0 0.4 0 0 0 0.4 0 0.4 0.4 0
          0.8 0 0 0.8 0.4 0 1.2 0 0 1.2 0.4 0
          1.6 0 0 1.6 0.4 0 2 0 0 2 0.4 0
          2.4 0 0 2.4 0.4 0 2.8 0 0 2.8 0.4 0
          3.2 0 0 3.2 0.4 0 3.6 0 0 3.6 0.4 0
          4 0 0 4 0.4 0 0 0.8 0 0.4 0.8 0
          0.8 0.8 0 1.2 0.8 0 1.6 0.8 0 2 0.8 0
          2.4 0.8 0 2.8 0.8 0 3.2 0.8 0 3.6 0.8 0
          4 0.8 0 0 1.2 0 0.4 1.2 0 0.8 1.2 0
          1.2 1.2 0 1.6 1.2 0 2 1.2 0 2.4 1.2 0
          2.8 1.2 0 3.2 1.2 0 3.6 1.2 0 4 1.2 0
          0 1.6 0 0.4 1.6 0 0.8 1.6 0 1.2 1.6 0
          1.6 1.6 0 2 1.6 0 2.4 1.6 0 2.8 1.6 0
          3.2 1.6 0 3.6 1.6 0 4 1.6 0 0 2 0
          0.4 2 0 0.8 2 0 1.2 2 0 1.6 2 0
          2 2 0 2.4 2 0 2.8 2 0 3.2 2 0
          3.6 2 0 4 2 0 0 2.4 0 0.4 2.4 0
          0.8 2.4 0 1.2 2.4 0 1.6 2.4 0 2 2.4 0
          2.4 2.4 0 2.8 2.4 0 3.2 2.4 0 3.6 2.4 0
          4 2.4 0 0 2.8 0 0.4 2.8 0 0.8 2.8 0
          1.2 2.8 0 1.6 2.8 0 2 2.8 0 2.4 2.8 0
          2.8 2.8 0 3.2 2.8 0 3.6 2.8 0 4 2.8 0
          0 3.2 0 0.4 3.2 0 0.8 3.2 0 1.2 3.2 0
          1.6 3.2 0 2 3.2 0 2.4 3.2 0 2.8 3.2 0
          3.2 3.2 0 3.6 3.2 0 4 3.2 0 0 3.6 0
          0.4 3.6 0 0.8 3.6 0 1.2 3.6 0 1.6 3.6 0
          2 3.6 0 2.4 3.6 0 2.8 3.6 0 3.2 3.6 0
          3.6 3.6 0 4 3.6 0 0 4 0 0.4 4 0
          0.8 4 0 1.2 4 0 1.6 4 0 2 4 0
          2.4 4 0 2.8 4 0 3.2 4 0 3.6 4 0
          4 4 0 0 4.4 0 0.4 4.4 0 0.8 4.4 0
          1.2 4.4 0 1.6 4.4 0 2 4.4 0 2.4 4.4 0
          2.8 4.4 0 3.2 4.4 0 3.6 4.4 0 4 4.4 0
          0 4.8 0 0.4 4.8 0 0.8 4.8 0 1.2 4.8 0
          1.6 4.8 0 2 4.8 0 2.4 4.8 0 2.8 4.8 0
          3.2 4.8 0 3.6 4.8 0 4 4.8 0 0 5.2 0
          0.4 5.2 0 0.8 5.2 0 1.2 5.2 0 1.6 5.2 0
          2 5.2 0 2.4 5.2 0 2.8 5.2 0 3.2 5.2 0
          3.6 5.2 0 4 5.2 0 0 5.6 0 0.4 5.6 0
          0.8 5.6 0 1.2 5.6 0 1.6 5.6 0 2 5.6 0
          2.4 5.6 0 2.8 5.6 0 3.2 5.6 0 3.6 5.6 0
          4 5.6 0 0 6 0 0.4 6 0 0.8 6 0
          1.2 6 0 1.6 6 0 2 6 0 2.4 6 0
          2.8 6 0 3.2 6 0 3.6 6 0 4 6 0
          0 6.4 0 0.4 6.4 0 0.8 6.4 0 1.2 6.4 0
          1.6 6.4 0 2 6.4 0 2.4 6.4 0 2.8 6.4 0
          3.2 6.4 0 3.6 6.4 0 4 6.4 0 0 6.8 0
          0.4 6.8 0 0.8 6.8 0 1.2 6.8 0 1.6 6.8 0
          2 6.8 0 2.4 6.8 0 2.8 6.8 0 3.2 6.8 0
          3.6 6.8 0 4 6.8 0 0 7.2 0 0.4 7.2 0
          0.8 7.2 0 1.2 7.2 0 1.6 7.2 0 2 7.2 0
          2.4 7.2 0 2.8 7.2 0 3.2 7.2 0 3.6 7.2 0
          4 7.2 0 0 7.6 0 0.4 7.6 0 0.8 7.6 0
          1.2 7.6 0 1.6 7.6 0 2 7.6 0 2.4 7.6 0
          2.8 7.6 0 3.2 7.6 0 3.6 7.6 0 4 7.6 0
          0 8 0 0.4 8 0 0.8 8 0 1.2 8 0
          1.6 8 0 2 8 0 2.4 8 0 2.8 8 0
          3.2 8 0 3.6 8 0 4 8 0
        </DataArray>
      </Points>
      <Cells>
        <DataArray type="Int32" Name="connectivity" NumberOfComponents="1" format="ascii">
          0 1 3 2 1 4 5 3 4 6 7 5
          6 8 9 7 8 10 11 9 10 12 13 11
          12 14 15 13 14 16 17 15 16 18 19 17
          18 20 21 19 2 3 23 22 3 5 24 23
          5 7 25 24 7 9 26 25 9 11 27 26