<?xml version="1.0"?>
<VTKFile type="UnstructuredGrid" version="0.1" byte_order="LittleEndian">
  <UnstructuredGrid>
    <Piece NumberOfCells="800" NumberOfPoints="861">
      <CellData Scalars="S_liq">
        <DataArray type="Float32" Name="S_liq" NumberOfComponents="1" format="ascii">
          1 1 1 1 1 1 1 1 1 1 1 1
          1 1 1 1 1 1 1 1 1 1 1 1
          1 1 1 1 1 1 1 1 1 1 1 1
          1 1 1 1 1 1 1 1 1 1 1 1
          1 1 1 1 1 1 1 1 1 1 1 1
          1 1 1 1 1 1 1 1 1 1 1 1
          1 1 1 1 1 1 1 1 1 1 1 1
          1 1 1 1 1 1 1 1 1 1 1 1
          1 1 1 1 1 1 1 1 1 1 1 1
          1 1 1 1 1 1 1 1 1 1 1 1
          1 1 1 1 1 1 1 1 1 1 1 1
          1 1 1 1 1 1 1 1 1 1 1 1
          1 1 1 1 1 1 1 1 1 1 1 1
          1 1 1 1 1 1 1 1 1 1 1 1
          1 1 1 1 1 1 1 1 1 1 1 1
          1 1 1 1 1 1 1 1 1 1 1 1
          1 1 1 1 1 1 1 1 1 1 1 1
          1 1 1 1 1 1 1 1 1 1 1 1
          1 1 1 1 0.874568 1 1 1 1 1 1 1
          1 1 1 1 1 1 1 1 1 1 1 1
          0.80153 1 1 1 1 1 1 1 1 1 1 1
          1 1 1 1 1 1 1 1 0.753075 1 1 1
          1 1 1 1 1 1 1 1 1 1 1 1
          1 1 1 1 0.74249 1 1 1 1 1 1 1
          1 1 1 1 1 1 1 1 1 1 1 1
          1 1 1 1 1 1 1 1 1 1 1 1
          1 1 1 1 1 1 1 1 1 1 1 1
          1 1 1 1 1 1 1 1 1 1 1 1
          1 1 1 1 1 1 1 1 1 1 1 1
          1 1 1 1 1 1 1 1 1 1 1 1
          1 1 1 1 1 1 1 1 1 1 1 1
          1 1 1 1 1 1 1 1 1 1 1 1
          1 1 1 1 1 1 1 1 1 1 1 1
          1 1 1 1 1 1 1 1 1 1 1 1
          1 1 1 1 1 1 1 1 1 1 1 1
          1 1 1 1 1 1 1 1 1 1 1 1
          1 1 1 1 1 1 1 1 1 1 1 1
          1 1 1 1 1 1 1 1 1 1 1 1
          1 1 1 1 1 1 1 1 1 1 1 1
          1 1 1 1 1 1 1 1 1 1 1 1
          1 1 1 1 1 1 1 1 1 1 1 1
          1 1 1 1 1 1 1 1 1 1 1 1
          1 1 1 1 1 1 1 1 1 1 1 1
          1 1 1 1 1 1 1 1 1 1 1 1
          1 1 1 1 1 1 1 1 1 1 1 1
          1 1 1 1 1 1 1 1 1 1 1 1
          1 1 1 1 1 1 1 1 1 1 1 1
          1 1 1 1 1 1 1 1 1 1 1 1
          1 1 1 1 1 1 1 1 1 1 1 1
          1 1 1 1 1 1 1 1 1 1 1 1
          1 1 1 1 1 1 1 1 1 1 1 1
          1 1 1 1 1 1 1 1 1 1 1 1
          1 1 1 1 1 1 1 1 1 1 1 1
          1 1 1 1 1 1 1 1 1 1 1 1
          1 1 1 1 1 1 1 1 1 1 1 1
          1 1 1 1 1 1 1 1 1 1 1 1
          1 1 1 1 1 1 1 1 1 1 1 1
          1 1 1 1 1 1 1 1 1 1 1 1
          1 1 1 1 1 1 1 1 1 1 1 1
          1 1 1 1 1 1 1 1 1 1 1 1
          1 1 1 1 1 1 1 1 1 1 1 1
          1 1 1 1 1 1 1 1 1 1 1 1
          1 1 1 1 1 1 1 1 1 1 1 1
          1 1 1 1 1 1 1 1 1 1 1 1
          1 1 1 1 1 1 1 1 1 1 1 1
          1 1 1 1 1 1 1 1 1 1 1 1
          1 1 1 1 1 1 1 1
        </DataArray>
        <DataArray type="Float32" Name="S_gas" NumberOfComponents="1" format="ascii">
          0 0 0 0 0 0 0 0 0 0 0 0
          0 0 0 0 0 0 0 0 0 0 0 0
          0 0 0 0 0 0 0 0 0 0 0 0
          0 0 0 0 0 0 0 0 0 0 0 0
          0 0 0 0 0 0 0 0 0 0 0 0
          0 0 0 0 0 0 0 0 0 0 0 0
          0 0 0 0 0 0 0 0 0 0 0 0
          0 0 0 0 0 0 0 0 0 0 0 0
          0 0 0 0 0 0 0 0 0 0 0 0
          0 0 0 0 0 0 0 0 0 0 0 0
          0 0 0 0 0 0 0 0 0 0 0 0
          0 0 0 0 0 0 0 0 0 0 0 0
          0 0 0 0 0 0 0 0 0 0 0 0
          0 0 0 0 0 0 0 0 0 0 0 0
          0 0 0 0 0 0 0 0 0 0 0 0
          0 0 0 0 0 0 0 0 0 0 0 0
          0 0 0 0 0 0 0 0 0 0 0 0
          0 0 0 0 0 0 0 0 0 0 0 0
          0 0 0 0 0.125432 0 0 0 0 0 0 0
          0 0 0 0 0 0 0 0 0 0 0 0
          0.19847 0 0 0 0 0 0 0 0 0 0 0
          0 0 0 0 0 0 0 0 0.246925 0 0 0
          0 0 0 0 0 0 0 0 0 0 0 0
          0 0 0 0 0.25751 0 0 0 0 0 0 0
          0 0 0 0 0 0 0 0 0 0 0 0
          0 0 0 0 0 0 0 0 0 0 0 0
          0 0 0 0 0 0 0 0 0 0 0 0
          0 0 0 0 0 0 0 0 0 0 0 0
          0 0 0 0 0 0 0 0 0 0 0 0
          0 0 0 0 0 0 0 0 0 0 0 0
          0 0 0 0 0 0 0 0 0 0 0 0
          0 0 0 0 0 0 0 0 0 0 0 0
          0 0 0 0 0 0 0 0 0 0 0 0
          0 0 0 0 0 0 0 0 0 0 0 0
          0 0 0 0 0 0 0 0 0 0 0 0
          0 0 0 0 0 0 0 0 0 0 0 0
          0 0 0 0 0 0 0 0 0 0 0 0
          0 0 0 0 0 0 0 0 0 0 0 0
          0 0 0 0 0 0 0 0 0 0 0 0
          0 0 0 0 0 0 0 0 0 0 0 0
          0 0 0 0 0 0 0 0 0 0 0 0
          0 0 0 0 0 0 0 0 0 0 0 0
          0 0 0 0 0 0 0 0 0 0 0 0
          0 0 0 0 0 0 0 0 0 0 0 0
          0 0 0 0 0 0 0 0 0 0 0 0
          0 0 0 0 0 0 0 0 0 0 0 0
          0 0 0 0 0 0 0 0 0 0 0 0
          0 0 0 0 0 0 0 0 0 0 0 0
          0 0 0 0 0 0 0 0 0 0 0 0
          0 0 0 0 0 0 0 0 0 0 0 0
          0 0 0 0 0 0 0 0 0 0 0 0
          0 0 0 0 0 0 0 0 0 0 0 0
          0 0 0 0 0 0 0 0 0 0 0 0
          0 0 0 0 0 0 0 0 0 0 0 0
          0 0 0 0 0 0 0 0 0 0 0 0
          0 0 0 0 0 0 0 0 0 0 0 0
          0 0 0 0 0 0 0 0 0 0 0 0
          0 0 0 0 0 0 0 0 0 0 0 0
          0 0 0 0 0 0 0 0 0 0 0 0
          0 0 0 0 0 0 0 0 0 0 0 0
          0 0 0 0 0 0 0 0 0 0 0 0
          0 0 0 0 0 0 0 0 0 0 0 0
          0 0 0 0 0 0 0 0 0 0 0 0
          0 0 0 0 0 0 0 0 0 0 0 0
          0 0 0 0 0 0 0 0 0 0 0 0
          0 0 0 0 0 0 0 0 0 0 0 0
          0 0 0 0 0 0 0 0
        </DataArray>
        <DataArray type="Float32" Name="p_liq" NumberOfComponents="1" format="ascii">
          178915 178914 178912 178909 178906 178902 178897 178891 178885 178879 178872 178865
          178857 178849 178842 178834 178826 178818 178810 178803 176954 176953 176951 176949
          176945 176941 176936 176930 176924 176918 176911 176903 176896 176888 176880 176872
          176864 176857 176849 176841 174994 174993 174992 174989 174985 174981 174976 174970
          174964 174957 174950 174942 174935 174927 174919 174911 174903 174895 174887 174879
          173036 173035 173033 173030 173026 173021 173016 173010 173003 172996 172989 172982
          172974 172966 172958 172950 172942 172933 172925 172917 171078 171077 171075 171072
          171068 171063 171057 171051 171044 171036 171029 171021 171013 171005 170997 170988
          170980 170972 170963 170955 169121 169120 169118 169115 169110 169105 169099 169092
          169085 169077 169069 169061 169052 169044 169035 169027 169019 169010 169002 168993
          167165 167164 167162 167159 167154 167148 167141 167134 167126 167117 167109 167100
          167092 167083 167074 167066 167057 167048 167040 167031 165209 165210 165208 165205
          165199 165192 165184 165176 165167 165158 165149 165140 165131 165122 165113 165104
          165096 165087 165078 165069 163254 163257 163257 163252 163245 163237 163228 163218
          163209 163199 163189 163180 163171 163161 163152 163143 163134 163125 163116 163107
          161294 161309 161309 161302 161293 161282 161272 161261 161250 161240 161230 161220
          161210 161200 161191 161182 161173 161163 161154 161145 159368 159375 159367 159355
          159341 159328 159316 159303 159292 159280 159270 159259 159249 159239 159230 159220
          159211 159202 159193 159184 157488 157449 157428 157408 157390 157374 157359 157345
          157333 157321 157309 157298 157288 157278 157268 157258 157249 157240 157231 157222
          155586 155507 155484 155459 155437 155418 155401 155386 155373 155360 155348 155337
          155326 155316 155306 155297 155287 155278 155269 155260 153650 153552 153533 153505
          153481 153460 153442 153426 153412 153399 153387 153375 153365 153354 153344 153335
          153325 153316 153307 153298 151670 151596 151576 151547 151521 151499 151481 151464
          151450 151437 151424 151413 151402 151392 151382 151372 151363 151354 151345 151336
          149649 149639 149610 149581 149556 149535 149517 149501 149486 149473 149461 149450
          149439 149429 149419 149410 149400 149391 149382 149373 147695 147665 147635 147609
          147587 147568 147551 147536 147522 147509 147497 147486 147476 147466 147456 147447
          147438 147429 147420 147411 145694 145675 145654 145634 145615 145598 145583 145569
          145556 145544 145533 145522 145512 145502 145493 145484 145475 145466 145458 145449
          143696 143686 143672 143657 143642 143628 143614 143601 143590 143578 143568 143558
          143548 143539 143530 143521 143512 143504 143495 143487 141706 141700 141691 141680
          141668 141656 141644 141633 141622 141612 141602 141592 141583 141574 141566 141557
          141549 141541 141533 141525 139722 139718 139712 139703 139694 139684 139674 139664
          139654 139645 139636 139627 139618 139610 139602 139594 139586 139578 139570 139563
          137742 137740 137735 137728 137721 137712 137704 137695 137686 137678 137670 137661
          137653 137645 137638 137630 137623 137615 137608 137601 135765 135763 135759 135754
          135748 135741 135734 135726 135718 135711 135703 135696 135688 135681 135674 135666
          135659 135652 135645 135638 133789 133788 133785 133781 133776 133770 133764 133757
          133750 133743 133736 133730 133723 133716 133709 133703 133696 133689 133683 133676
          131815 131814 131812 131808 131804 131799 131794 131788 131782 131776 131770 131764
          131757 131751 131745 131739 131732 131726 131720 131714 129843 129842 129840 129837
          129833 129829 129825 129820 129814 129809 129803 129798 129792 129786 129780 129775
          129769 129763 129758 129752 127871 127870 127869 127866 127863 127860 127856 127851
          127847 127842 127837 127832 127826 127821 127816 127811 127805 127800 127795 127790
          125900 125900 125898 125896 125894 125891 125887 125883 125879 125875 125870 125866
          125861 125856 125852 125847 125842 125837 125832 125827 123930 123930 123928 123927
          123924 123922 123919 123915 123912 123908 123904 123900 123896 123892 123887 123883
          123878 123874 123870 123865 121961 121960 121959 121958 121956 121954 121951 121948
          121945 121942 121938 121934 121931 121927 121923 121919 121915 121911 121907 121903
          119992 119991 119990 119989 119987 119986 119983 119981 119978 119975 119972 119969
          119965 119962 119959 119955 119952 119948 119944 119941 118023 118023 118022 118021
          118020 118018 118016 118014 118011 118009 118006 118003 118000 117997 117994 117991
          117988 117985 117982 117979 116055 116055 116054 116053 116052 116050 116049 116047
          116045 116043 116040 116038 116035 116033 116030 116027 116025 116022 116019 116016
          114087 114087 114086 114085 114084 114083 114082 114080 114079 114077 114075 114073
          114071 114068 114066 114064 114061 114059 114057 114054 112119 112119 112119 112118
          112117 112116 112115 112114 112112 112111 112109 112108 112106 112104 112102 112100
          112098 112096 112094 112092 110152 110152 110151 110151 110150 110149 110149 110148
          110146 110145 110144 110142 110141 110139 110138 110136 110135 110133 110131 110130
          108185 108184 108184 108184 108183 108183 108182 108181 108180 108179 108178 108177
          108176 108175 108174 108173 108171 108170 108169 108168 106218 106217 106217 106217
          106217 106216 106216 106215 106215 106214 106213 106212 106212 106211 106210 106209
          106208 106207 106206 106205 104250 104250 104250 104250 104250 104250 104249 104249
          104249 104248 104248 104247 104247 104246 104246 104245 104245 104244 104244 104243
          102283 102283 102283 102283 102283 102283 102283 102283 102283 102283 102283 102282
          102282 102282 102282 102282 102282 102281 102281 102281
        </DataArray>
        <DataArray type="Float32" Name="p_gas" NumberOfComponents="1" format="ascii">
          178915 178914 178912 178909 178906 178902 178897 178891 178885 178879 178872 178865
          178857 178849 178842 178834 178826 178818 178810 178803 176954 176953 176951 176949
          176945 176941 176936 176930 176924 176918 176911 176903 176896 176888 176880 176872
          176864 176857 176849 176841 174994 174993 174992 174989 174985 174981 174976 174970
          174964 174957 174950 174942 174935 174927 174919 174911 174903 174895 174887 174879
          173036 173035 173033 173030 173026 173021 173016 173010 173003 172996 172989 172982
          172974 172966 172958 172950 172942 172933 172925 172917 171078 171077 171075 171072
          171068 171063 171057 171051 171044 171036 171029 171021 171013 171005 170997 170988
          170980 170972 170963 170955 169121 169120 169118 169115 169110 169105 169099 169092
          169085 169077 169069 169061 169052 169044 169035 169027 169019 169010 169002 168993
          167165 167164 167162 167159 167154 167148 167141 167134 167126 167117 167109 167100
          167092 167083 167074 167066 167057 167048 167040 167031 165209 165210 165208 165205
          165199 165192 165184 165176 165167 165158 165149 165140 165131 165122 165113 165104
          165096 165087 165078 165069 163254 163257 163257 163252 163245 163237 163228 163218
          163209 163199 163189 163180 163171 163161 163152 163143 163134 163125 163116 163107
          161294 161309 161309 161302 161293 161282 161272 161261 161250 161240 161230 161220
          161210 161200 161191 161182 161173 161163 161154 161145 159368 159375 159367 159355
          159341 159328 159316 159303 159292 159280 159270 159259 159249 159239 159230 159220
          159211 159202 159193 159184 157699 157449 157428 157408 157390 157374 157359 157345
          157333 157321 157309 157298 157288 157278 157268 157258 157249 157240 157231 157222
          155873 155507 155484 155459 155437 155418 155401 155386 155373 155360 155348 155337
          155326 155316 155306 155297 155287 155278 155269 155260 153988 153552 153533 153505
          153481 153460 153442 153426 153412 153399 153387 153375 153365 153354 153344 153335
          153325 153316 153307 153298 152020 151596 151576 151547 151521 151499 151481 151464
          151450 151437 151424 151413 151402 151392 151382 151372 151363 151354 151345 151336
          149649 149639 149610 149581 149556 149535 149517 149501 149486 149473 149461 149450
          149439 149429 149419 149410 149400 149391 149382 149373 147695 147665 147635 147609
          147587 147568 147551 147536 147522 147509 147497 147486 147476 147466 147456 147447
          147438 147429 147420 147411 145694 145675 145654 145634 145615 145598 145583 145569
          145556 145544 145533 145522 145512 145502 145493 145484 145475 145466 145458 145449
          143696 143686 143672 143657 143642 143628 143614 143601 143590 143578 143568 143558
          143548 143539 143530 143521 143512 143504 143495 143487 141706 141700 141691 141680
          141668 141656 141644 141633 141622 141612 141602 141592 141583 141574 141566 141557
          141549 141541 141533 141525 139722 139718 139712 139703 139694 139684 139674 139664
          139654 139645 139636 139627 139618 139610 139602 139594 139586 139578 139570 139563
          137742 137740 137735 137728 137721 137712 137704 137695 137686 137678 137670 137661
          137653 137645 137638 137630 137623 137615 137608 137601 135765 135763 135759 135754
          135748 135741 135734 135726 135718 135711 135703 135696 135688 135681 135674 135666
          135659 135652 135645 135638 133789 133788 133785 133781 133776 133770 133764 133757
          133750 133743 133736 133730 133723 133716 133709 133703 133696 133689 133683 133676
          131815 131814 131812 131808 131804 131799 131794 131788 131782 131776 131770 131764
          131757 131751 131745 131739 131732 131726 131720 131714 129843 129842 129840 129837
          129833 129829 129825 129820 129814 129809 129803 129798 129792 129786 129780 129775
          129769 129763 129758 129752 127871 127870 127869 127866 127863 127860 127856 127851
          127847 127842 127837 127832 127826 127821 127816 127811 127805 127800 127795 127790
          125900 125900 125898 125896 125894 125891 125887 125883 125879 125875 125870 125866
          125861 125856 125852 125847 125842 125837 125832 125827 123930 123930 123928 123927
          123924 123922 123919 123915 123912 123908 123904 123900 123896 123892 123887 123883
          123878 123874 123870 123865 121961 121960 121959 121958 121956 121954 121951 121948
          121945 121942 121938 121934 121931 121927 121923 121919 121915 121911 121907 121903
          119992 119991 119990 119989 119987 119986 119983 119981 119978 119975 119972 119969
          119965 119962 119959 119955 119952 119948 119944 119941 118023 118023 118022 118021
          118020 118018 118016 118014 118011 118009 118006 118003 118000 117997 117994 117991
          117988 117985 117982 117979 116055 116055 116054 116053 116052 116050 116049 116047
          116045 116043 116040 116038 116035 116033 116030 116027 116025 116022 116019 116016
          114087 114087 114086 114085 114084 114083 114082 114080 114079 114077 114075 114073
          114071 114068 114066 114064 114061 114059 114057 114054 112119 112119 112119 112118
          112117 112116 112115 112114 112112 112111 112109 112108 112106 112104 112102 112100
          112098 112096 112094 112092 110152 110152 110151 110151 110150 110149 110149 110148
          110146 110145 110144 110142 110141 110139 110138 110136 110135 110133 110131 110130
          108185 108184 108184 108184 108183 108183 108182 108181 108180 108179 108178 108177
          108176 108175 108174 108173 108171 108170 108169 108168 106218 106217 106217 106217
          106217 106216 106216 106215 106215 106214 106213 106212 106212 106211 106210 106209
          106208 106207 106206 106205 104250 104250 104250 104250 104250 104250 104249 104249
          104249 104248 104248 104247 104247 104246 104246 104245 104245 104244 104244 104243
          102283 102283 102283 102283 102283 102283 102283 102283 102283 102283 102283 102282
          102282 102282 102282 102282 102282 102281 102281 102281
        </DataArray>
        <DataArray type="Float32" Name="pc" NumberOfComponents="1" format="ascii">
          0 0 0 0 0 0 0 0 0 0 0 0
          0 0 0 0 0 0 0 0 0 0 0 0
          0 0 0 0 0 0 0 0 0 0 0 0
          0 0 0 0 0 0 0 0 0 0 0 0
          0 0 0 0 0 0 0 0 0 0 0 0
          0 0 0 0 0 0 0 0 0 0 0 0
          0 0 0 0 0 0 0 0 0 0 0 0
          0 0 0 0 0 0 0 0 0 0 0 0
          0 0 0 0 0 0 0 0 0 0 0 0
          0 0 0 0 0 0 0 0 0 0 0 0
          0 0 0 0 0 0 0 0 0 0 0 0
          0 0 0 0 0 0 0 0 0 0 0 0
          0 0 0 0 0 0 0 0 0 0 0 0
          0 0 0 0 0 0 0 0 0 0 0 0
          0 0 0 0 0 0 0 0 0 0 0 0
          0 0 0 0 0 0 0 0 0 0 0 0
          0 0 0 0 0 0 0 0 0 0 0 0
          0 0 0 0 0 0 0 0 0 0 0 0
          0 0 0 0 211.319 0 0 0 0 0 0 0
          0 0 0 0 0 0 0 0 0 0 0 0
          287.019 0 0 0 0 0 0 0 0 0 0 0
          0 0 0 0 0 0 0 0 338.655 0 0 0
          0 0 0 0 0 0 0 0 0 0 0 0
          0 0 0 0 350.336 0 0 0 0 0 0 0
          0 0 0 0 0 0 0 0 0 0 0 0
          0 0 0 0 0 0 0 0 0 0 0 0
          0 0 0 0 0 0 0 0 0 0 0 0
          0 0 0 0 0 0 0 0 0 0 0 0
          0 0 0 0 0 0 0 0 0 0 0 0
          0 0 0 0 0 0 0 0 0 0 0 0
          0 0 0 0 0 0 0 0 0 0 0 0
          0 0 0 0 0 0 0 0 0 0 0 0
          0 0 0 0 0 0 0 0 0 0 0 0
          0 0 0 0 0 0 0 0 0 0 0 0
          0 0 0 0 0 0 0 0 0 0 0 0
          0 0 0 0 0 0 0 0 0 0 0 0
          0 0 0 0 0 0 0 0 0 0 0 0
          0 0 0 0 0 0 0 0 0 0 0 0
          0 0 0 0 0 0 0 0 0 0 0 0
          0 0 0 0 0 0 0 0 0 0 0 0
          0 0 0 0 0 0 0 0 0 0 0 0
          0 0 0 0 0 0 0 0 0 0 0 0
          0 0 0 0 0 0 0 0 0 0 0 0
          0 0 0 0 0 0 0 0 0 0 0 0
          0 0 0 0 0 0 0 0 0 0 0 0
          0 0 0 0 0 0 0 0 0 0 0 0
          0 0 0 0 0 0 0 0 0 0 0 0
          0 0 0 0 0 0 0 0 0 0 0 0
          0 0 0 0 0 0 0 0 0 0 0 0
          0 0 0 0 0 0 0 0 0 0 0 0
          0 0 0 0 0 0 0 0 0 0 0 0
          0 0 0 0 0 0 0 0 0 0 0 0
          0 0 0 0 0 0 0 0 0 0 0 0
          0 0 0 0 0 0 0 0 0 0 0 0
          0 0 0 0 0 0 0 0 0 0 0 0
          0 0 0 0 0 0 0 0 0 0 0 0
          0 0 0 0 0 0 0 0 0 0 0 0
          0 0 0 0 0 0 0 0 0 0 0 0
          0 0 0 0 0 0 0 0 0 0 0 0
          0 0 0 0 0 0 0 0 0 0 0 0
          0 0 0 0 0 0 0 0 0 0 0 0
          0 0 0 0 0 0 0 0 0 0 0 0
          0 0 0 0 0 0 0 0 0 0 0 0
          0 0 0 0 0 0 0 0 0 0 0 0
          0 0 0 0 0 0 0 0 0 0 0 0
          0 0 0 0 0 0 0 0 0 0 0 0
          0 0 0 0 0 0 0 0
        </DataArray>
        <DataArray type="Float32" Name="rho_liq" NumberOfComponents="1" format="ascii">
          999.728 999.728 999.728 999.728 999.728 999.728 999.728 999.728 999.728 999.728 999.728 999.728
          999.728 999.728 999.728 999.728 999.728 999.728 999.728 999.728 999.727 999.727 999.727 999.727
          999.727 999.727 999.727 999.727 999.727 999.727 999.727 999.727 999.727 999.727 999.727 999.727
          999.727 999.727 999.727 999.727 999.726 999.726 999.726 999.726 999.726 999.726 999.726 999.726
          999.726 999.726 999.726 999.726 999.726 999.726 999.726 999.726 999.726 999.726 999.726 999.726
          999.725 999.725 999.725 999.725 999.725 999.725 999.725 999.725 999.725 999.725 999.725 999.725
          999.725 999.725 999.725 999.725 999.725 999.725 999.725 999.725 999.724 999.724 999.724 999.724
          999.724 999.724 999.724 999.724 999.724 999.724 999.724 999.724 999.724 999.724 999.724 999.724
          999.724 999.724 999.724 999.724 999.724 999.724 999.724 999.724 999.724 999.724 999.724 999.724
          999.723 999.723 999.723 999.723 999.723 999.723 999.723 999.723 999.723 999.723 999.723 999.723
          999.723 999.723 999.723 999.723 999.723 999.723 999.723 999.723 999.723 999.723 999.723 999.723
          999.723 999.723 999.723 999.723 999.723 999.723 999.722 999.722 999.722 999.722 999.722 999.722
          999.722 999.722 999.722 999.722 999.722 999.722 999.722 999.722 999.722 999.722 999.722 999.722
          999.722 999.722 999.722 999.722 999.717 999.721 999.721 999.721 999.721 999.721 999.721 999.721
          999.721 999.721 999.721 999.721 999.721 999.721 999.721 999.721 999.721 999.721 999.721 999.721
          999.466 999.713 999.72 999.72 999.72 999.72 999.72 999.72 999.72 999.72 999.72 999.72
          999.72 999.72 999.72 999.72 999.72 999.72 999.72 999.72 952.244 999.556 999.715 999.719
          999.719 999.719 999.719 999.719 999.719 999.719 999.719 999.719 999.719 999.719 999.719 999.719
          999.719 999.719 999.719 999.719 948.75 998.182 999.69 999.717 999.718 999.718 999.718 999.718
          999.718 999.718 999.718 999.718 999.718 999.718 999.718 999.718 999.718 999.718 999.718 999.718
          949.02 996.638 999.632 999.714 999.717 999.717 999.717 999.717 999.717 999.717 999.717 999.717
          999.717 999.717 999.717 999.717 999.717 999.717 999.717 999.717 949.302 993.563 999.456 999.704
          999.715 999.716 999.716 999.716 999.716 999.716 999.716 999.716 999.716 999.716 999.716 999.716
          999.716 999.716 999.716 999.716 949.6 988.868 998.994 999.677 999.713 999.715 999.715 999.715
          999.715 999.715 999.715 999.715 999.715 999.715 999.715 999.715 999.715 999.715 999.715 999.715
          967.998 998.253 999.614 999.708 999.714 999.714 999.714 999.714 999.714 999.714 999.714 999.714
          999.714 999.714 999.714 999.714 999.714 999.714 999.714 999.714 997.714 999.571 999.704 999.713
          999.713 999.713 999.713 999.713 999.713 999.713 999.713 999.713 999.713 999.713 999.713 999.713
          999.713 999.713 999.713 999.713 999.589 999.703 999.712 999.712 999.712 999.712 999.712 999.712
          999.712 999.712 999.712 999.712 999.712 999.712 999.712 999.712 999.712 999.712 999.712 999.712
          999.705 999.711 999.711 999.711 999.711 999.711 999.711 999.711 999.711 999.711 999.711 999.711
          999.711 999.711 999.711 999.711 999.711 999.711 999.711 999.711 999.71 999.71 999.71 999.71
          999.71 999.71 999.71 999.71 999.71 999.71 999.71 999.71 999.71 999.71 999.71 999.71
          999.71 999.71 999.71 999.71 999.709 999.709 999.709 999.709 999.709 999.709 999.709 999.709
          999.709 999.709 999.709 999.709 999.709 999.709 999.709 999.709 999.709 999.709 999.709 999.709
          999.708 999.708 999.708 999.708 999.708 999.708 999.708 999.708 999.708 999.708 999.708 999.708
          999.708 999.708 999.708 999.708 999.708 999.708 999.708 999.708 999.708 999.708 999.708 999.708
          999.708 999.708 999.708 999.708 999.708 999.708 999.708 999.708 999.708 999.708 999.708 999.708
          999.708 999.708 999.708 999.708 999.707 999.707 999.707 999.707 999.707 999.707 999.707 999.707
          999.707 999.707 999.707 999.707 999.707 999.707 999.707 999.707 999.707 999.707 999.707 999.707
          999.706 999.706 999.706 999.706 999.706 999.706 999.706 999.706 999.706 999.706 999.706 999.706
          999.706 999.706 999.706 999.706 999.706 999.706 999.706 999.706 999.705 999.705 999.705 999.705
          999.705 999.705 999.705 999.705 999.705 999.705 999.705 999.705 999.705 999.705 999.705 999.705
          999.705 999.705 999.705 999.705 999.704 999.704 999.704 999.704 999.704 999.704 999.704 999.704
          999.704 999.704 999.704 999.704 999.704 999.704 999.704 999.704 999.704 999.704 999.704 999.704
          999.703 999.703 999.703 999.703 999.703 999.703 999.703 999.703 999.703 999.703 999.703 999.703
          999.703 999.703 999.703 999.703 999.703 999.703 999.703 999.703 999.702 999.702 999.702 999.702
          999.702 999.702 999.702 999.702 999.702 999.702 999.702 999.702 999.702 999.702 999.702 999.702
          999.702 999.702 999.702 999.702 999.701 999.701 999.701 999.701 999.701 999.701 999.701 999.701
          999.701 999.701 999.701 999.701 999.701 999.701 999.701 999.701 999.701 999.701 999.701 999.701
          999.7 999.7 999.7 999.7 999.7 999.7 999.7 999.7 999.7 999.7 999.7 999.7
          999.7 999.7 999.7 999.7 999.7 999.7 999.7 999.7 999.699 999.699 999.699 999.699
          999.699 999.699 999.699 999.699 999.699 999.699 999.699 999.699 999.699 999.699 999.699 999.699
          999.699 999.699 999.699 999.699 999.698 999.698 999.698 999.698 999.698 999.698 999.698 999.698
          999.698 999.698 999.698 999.698 999.698 999.698 999.698 999.698 999.698 999.698 999.698 999.698
          999.697 999.697 999.697 999.697 999.697 999.697 999.697 999.697 999.697 999.697 999.697 999.697
          999.697 999.697 999.697 999.697 999.697 999.697 999.697 999.697 999.696 999.696 999.696 999.696
          999.696 999.696 999.696 999.696 999.696 999.696 999.696 999.696 999.696 999.696 999.696 999.696
          999.696 999.696 999.696 999.696 999.695 999.695 999.695 999.695 999.695 999.695 999.695 999.695
          999.695 999.695 999.695 999.695 999.695 999.695 999.695 999.695 999.695 999.695 999.695 999.695
          999.694 999.694 999.694 999.694 999.694 999.694 999.694 999.694 999.694 999.694 999.694 999.694
          999.694 999.694 999.694 999.694 999.694 999.694 999.694 999.694 999.693 999.693 999.693 999.693
          999.693 999.693 999.693 999.693 999.693 999.693 999.693 999.693 999.693 999.693 999.693 999.693
          999.693 999.693 999.693 999.693 999.693 999.693 999.693 999.693 999.693 999.693 999.693 999.693
          999.693 999.693 999.693 999.693 999.693 999.693 999.693 999.693 999.693 999.693 999.693 999.693
          999.692 999.692 999.692 999.692 999.692 999.692 999.692 999.692 999.692 999.692 999.692 999.692
          999.692 999.692 999.692 999.692 999.692 999.692 999.692 999.692
        </DataArray>
        <DataArray type="Float32" Name="rho_gas" NumberOfComponents="1" format="ascii">
          1.37174 1.37173 1.37172 1.3717 1.37167 1.37164 1.3716 1.37156 1.37151 1.37146 1.37141 1.37135
          1.3713 1.37124 1.37118 1.37112 1.37106 1.371 1.37094 1.37088 1.35671 1.3567 1.35668 1.35666
          1.35664 1.3566 1.35657 1.35652 1.35648 1.35643 1.35637 1.35632 1.35626 1.3562 1.35614 1.35608
          1.35602 1.35596 1.3559 1.35584 1.34168 1.34167 1.34166 1.34164 1.34161 1.34158 1.34154 1.34149
          1.34144 1.34139 1.34134 1.34128 1.34122 1.34116 1.3411 1.34104 1.34098 1.34092 1.34086 1.3408
          1.32666 1.32666 1.32664 1.32662 1.32659 1.32655 1.32651 1.32647 1.32642 1.32636 1.32631 1.32625
          1.32619 1.32613 1.32607 1.326 1.32594 1.32588 1.32582 1.32575 1.31165 1.31164 1.31163 1.31161
          1.31158 1.31154 1.31149 1.31144 1.31139 1.31134 1.31128 1.31122 1.31116 1.31109 1.31103 1.31097
          1.3109 1.31084 1.31078 1.31071 1.29665 1.29664 1.29663 1.2966 1.29657 1.29653 1.29648 1.29643
          1.29637 1.29631 1.29625 1.29619 1.29612 1.29606 1.29599 1.29593 1.29586 1.2958 1.29573 1.29567
          1.28165 1.28165 1.28163 1.28161 1.28157 1.28152 1.28147 1.28141 1.28135 1.28129 1.28122 1.28116
          1.28109 1.28102 1.28096 1.28089 1.28083 1.28076 1.28069 1.28063 1.26666 1.26666 1.26665 1.26662
          1.26658 1.26653 1.26647 1.2664 1.26633 1.26627 1.2662 1.26613 1.26606 1.26599 1.26592 1.26585
          1.26579 1.26572 1.26565 1.26559 1.25144 1.25168 1.25169 1.25165 1.2516 1.25154 1.25147 1.25139
          1.25132 1.25125 1.25117 1.2511 1.25103 1.25096 1.25089 1.25082 1.25075 1.25068 1.25061 1.25054
          1.22659 1.23635 1.23674 1.2367 1.23663 1.23655 1.23647 1.23639 1.2363 1.23622 1.23615 1.23607
          1.23599 1.23592 1.23585 1.23578 1.23571 1.23564 1.23557 1.2355 0.925294 1.21516 1.22165 1.22176
          1.22167 1.22157 1.22147 1.22138 1.22129 1.2212 1.22112 1.22104 1.22096 1.22089 1.22081 1.22074
          1.22067 1.2206 1.22053 1.22046 0.903887 1.1663 1.20535 1.2068 1.20671 1.20658 1.20647 1.20637
          1.20627 1.20618 1.20609 1.206 1.20592 1.20585 1.20577 1.2057 1.20563 1.20556 1.20549 1.20542
          0.894086 1.12811 1.18813 1.19172 1.19173 1.19159 1.19146 1.19135 1.19124 1.19114 1.19105 1.19097
          1.19089 1.19081 1.19073 1.19066 1.19058 1.19051 1.19044 1.19037 0.883967 1.0802 1.16735 1.17624
          1.1767 1.17657 1.17644 1.17632 1.17621 1.17611 1.17601 1.17593 1.17584 1.17576 1.17569 1.17561
          1.17554 1.17547 1.1754 1.17533 0.873396 1.02966 1.13957 1.15978 1.16158 1.16154 1.1614 1.16127
          1.16116 1.16106 1.16097 1.16088 1.1608 1.16072 1.16064 1.16057 1.1605 1.16043 1.16036 1.16029