<?xml version="1.0"?>
<VTKFile type="UnstructuredGrid" version="0.1" byte_order="LittleEndian">
  <UnstructuredGrid>
    <Piece NumberOfCells="4096" NumberOfPoints="4225">
      <CellData Scalars="p" Vectors="velocity">
        <DataArray type="Float32" Name="p" NumberOfComponents="1" format="ascii">
          110000 110000 110000 110000 110000 110000 110000 110000 110000 110000 110000 110000
          110000 110000 110000 110000 110000 110000 110000 110000 110000 110000 110000 110000
          110000 110000 110000 110000 110000 110000 110000 110000 110000 110000 110000 110000
          110000 110000 110000 110000 110000 110000 110000 110000 110000 110000 110000 110000
          110000 110000 110000 110000 110000 110000 110000 110000 110000 110000 110000 110000
          110000 110000 110000 110000 109847 109847 109847 109847 109847 109847 109847 109847
          109847 109847 109847 109847 109847 109847 109847 109847 109847 109847 109847 109847
          109847 109847 109847 109847 109847 109847 109847 109847 109847 109847 109847 109847
          109847 109847 109847 109847 109847 109847 109847 109847 109847 109847 109847 109847
          109847 109847 109847 109847 109847 109847 109847 109847 109847 109847 109847 109847
          109847 109847 109847 109847 109847 109847 109847 109847 109693 109693 109693 109693
          109693 109693 109693 109693 109693 109693 109693 109693 109693 109693 109693 109693
          109693 109693 109693 109693 109693 109693 109693 109693 109693 109693 109693 109693
          109693 109693 109693 109693 109693 109693 109693 109693 109693 109693 109693 109693
          109693 109693 109693 109693 109693 109693 109693 109693 109693 109693 109693 109693
          109693 109693 109693 109693 109693 109693 109693 109693 109693 109693 109693 109693
          109540 109540 109540 109540 109540 109540 109540 109540 109540 109540 109540 109540
          109540 109540 109540 109540 109540 109540 109540 109540 109540 109540 109540 109540
          109540 109540 109540 109540 109540 109540 109540 109540 109540 109540 109540 109540
          109540 109540 109540 109540 109540 109540 109540 109540 109540 109540 109540 109540
          109540 109540 109540 109540 109540 109540 109540 109540 109540 109540 109540 109540
          109540 109540 109540 109540 109387 109387 109387 109387 109387 109387 109387 109387
          109387 109387 109387 109387 109387 109387 109387 109387 109387 109387 109387 109387
          109387 109387 109387 109387 109387 109387 109387 109387 109387 109387 109387 109387
          109387 109387 109387 109387 109387 109387 109387 109387 109387 109387 109387 109387
          109387 109387 109387 109387 109387 109387 109387 109387 109387 109387 109387 109387
          109387 109387 109387 109387 109387 109387 109387 109387 109234 109234 109234 109234
          109234 109234 109234 109234 109234 109234 109234 109234 109234 109234 109234 109234
          109234 109234 109234 109234 109234 109234 109234 109234 109234 109234 109234 109234
          109234 109234 109234 109234 109234 109234 109234 109234 109234 109234 109234 109234
          109234 109234 109234 109234 109234 109234 109234 109234 109234 109234 109234 109234
          109234 109234 109234 109234 109234 109234 109234 109234 109234 109234 109234 109234
          109080 109080 109080 109080 109080 109080 109080 109080 109080 109080 109080 109080
          109080 109080 109080 109080 109080 109080 109080 109080 109080 109080 109080 109080
          109080 109080 109080 109080 109080 109080 109080 109080 109080 109080 109080 109080
          109080 109080 109080 109080 109080 109080 109080 109080 109080 109080 109080 109080
          109080 109080 109080 109080 109080 109080 109080 109080 109080 109080 109080 109080
          109080 109080 109080 109080 108927 108927 108927 108927 108927 108927 108927 108927
          108927 108927 108927 108927 108927 108927 108927 108927 108927 108927 108927 108927
          108927 108927 108927 108927 108927 108927 108927 108927 108927 108927 108927 108927
          108927 108927 108927 108927 108927 108927 108927 108927 108927 108927 108927 108927
          108927 108927 108927 108927 108927 108927 108927 108927 108927 108927 108927 108927
          108927 108927 108927 108927 108927 108927 108927 108927 108774 108774 108774 108774
          108774 108774 108774 108774 108774 108774 108774 108774 108774 108774 108774 108774
          108774 108774 108774 108774 108774 108774 108774 108774 108774 108774 108774 108774
          108774 108774 108774 108774 108774 108774 108774 108774 108774 108774 108774 108774
          108774 108774 108774 108774 108774 108774 108774 108774 108774 108774 108774 108774
          108774 108774 108774 108774 108774 108774 108774 108774 108774 108774 108774 108774
          108620 108620 108620 108620 108620 108620 108620 108620 108620 108620 108620 108620
          108620 108620 108620 108620 108620 108620 108620 108620 108620 108620 108620 108620
          108620 108620 108620 108620 108620 108620 108620 108620 108620 108620 108620 108620
          108620 108620 108620 108620 108620 108620 108620 108620 108620 108620 108620 108620
          108620 108620 108620 108620 108620 108620 108620 108620 108620 108620 108620 108620
          108620 108620 108620 108620 108467 108467 108467 108467 108467 108467 108467 108467
          108467 108467 108467 108467 108467 108467 108467 108467 108467 108467 108467 108467
          108467 108467 108467 108467 108467 108467 108467 108467 108467 108467 108467 108467
          108467 108467 108467 108467 108467 108467 108467 108467 108467 108467 108467 108467
          108467 108467 108467 108467 108467 108467 108467 108467 108467 108467 108467 108467
          108467 108467 108467 108467 108467 108467 108467 108467 108314 108314 108314 108314
          108314 108314 108314 108314 108314 108314 108314 108314 108314 108314 108314 108314
          108314 108314 108314 108314 108314 108314 108314 108314 108314 108314 108314 108314
          108314 108314 108314 108314 108314 108314 108314 108314 108314 108314 108314 108314
          108314 108314 108314 108314 108314 108314 108314 108314 108314 108314 108314 108314
          108314 108314 108314 108314 108314 108314 108314 108314 108314 108314 108314 108314
          108161 108161 108161 108161 108161 108161 108161 108161 108161 108161 108161 108161
          108161 108161 108161 108161 108161 108161 108161 108161 108161 108161 108161 108161
          108161 108161 108161 108161 108161 108161 108161 108161 108161 108161 108161 108161
          108161 108161 108161 108161 108161 108161 108161 108161 108161 108161 108161 108161
          108161 108161 108161 108161 108161 108161 108161 108161 108161 108161 108161 108161
          108161 108161 108161 108161 108007 108007 108007 108007 108007 108007 108007 108007
          108007 108007 108007 108007 108007 108007 108007 108007 108007 108007 108007 108007
          108007 108007 108007 108007 108007 108007 108007 108007 108007 108007 108007 108007
          108007 108007 108007 108007 108007 108007 108007 108007 108007 108007 108007 108007
          108007 108007 108007 108007 108007 108007 108007 108007 108007 108007 108007 108007
          108007 108007 108007 108007 108007 108007 108007 108007 107854 107854 107854 107854
          107854 107854 107854 107854 107854 107854 107854 107854 107854 107854 107854 107854
          107854 107854 107854 107854 107854 107854 107854 107854 107854 107854 107854 107854
          107854 107854 107854 107854 107854 107854 107854 107854 107854 107854 107854 107854
          107854 107854 107854 107854 107854 107854 107854 107854 107854 107854 107854 107854
          107854 107854 107854 107854 107854 107854 107854 107854 107854 107854 107854 107854
          107701 107701 107701 107701 107701 107701 107701 107701 107701 107701 107701 107701
          107701 107701 107701 107701 107701 107701 107701 107701 107701 107701 107701 107701
          107701 107701 107701 107701 107701 107701 107701 107701 107701 107701 107701 107701
          107701 107701 107701 107701 107701 107701 107701 107701 107701 107701 107701 107701
          107701 107701 107701 107701 107701 107701 107701 107701 107701 107701 107701 107701
          107701 107701 107701 107701 107548 107548 107548 107548 107548 107548 107548 107548
          107548 107548 107548 107548 107548 107548 107548 107548 107548 107548 107548 107548
          107548 107548 107548 107548 107548 107548 107548 107548 107548 107548 107548 107548
          107548 107548 107548 107548 107548 107548 107548 107548 107548 107548 107548 107548
          107548 107548 107548 107548 107548 107548 107548 107548 107548 107548 107548 107548
          107548 107548 107548 107548 107548 107548 107548 107548 107394 107394 107394 107394
          107394 107394 107394 107394 107394 107394 107394 107394 107394 107394 107394 107394
          107394 107394 107394 107394 107394 107394 107394 107394 107394 107394 107394 107394
          107394 107394 107394 107394 107394 107394 107394 107394 107394 107394 107394 107394
          107394 107394 107394 107394 107394 107394 107394 107394 107394 107394 107394 107394
          107394 107394 107394 107394 107394 107394 107394 107394 107394 107394 107394 107394
          107241 107241 107241 107241 107241 107241 107241 107241 107241 107241 107241 107241
          107241 107241 107241 107241 107241 107241 107241 107241 107241 107241 107241 107241
          107241 107241 107241 107241 107241 107241 107241 107241 107241 107241 107241 107241
          107241 107241 107241 107241 107241 107241 107241 107241 107241 107241 107241 107241
          107241 107241 107241 107241 107241 107241 107241 107241 107241 107241 107241 107241
          107241 107241 107241 107241 107088 107088 107088 107088 107088 107088 107088 107088
          107088 107088 107088 107088 107088 107088 107088 107088 107088 107088 107088 107088
          107088 107088 107088 107088 107088 107088 107088 107088 107088 107088 107088 107088
          107088 107088 107088 107088 107088 107088 107088 107088 107088 107088 107088 107088
          107088 107088 107088 107088 107088 107088 107088 107088 107088 107088 107088 107088
          107088 107088 107088 107088 107088 107088 107088 107088 106934 106934 106934 106934
          106934 106934 106934 106934 106934 106934 106934 106934 106934 106934 106934 106934
          106934 106934 106934 106934 106934 106934 106934 106934 106934 106934 106934 106934
          106934 106934 106934 106934 106934 106934 106934 106934 106934 106934 106934 106934
          106934 106934 106934 106934 106934 106934 106934 106934 106934 106934 106934 106934
          106934 106934 106934 106934 106934 106934 106934 106934 106934 106934 106934 106934
          106781 106781 106781 106781 106781 106781 106781 106781 106781 106781 106781 106781
          106781 106781 106781 106781 106781 106781 106781 106781 106781 106781 106781 106781
          106781 106781 106781 106781 106781 106781 106781 106781 106781 106781 106781 106781
          106781 106781 106781 106781 106781 106781 106781 106781 106781 106781 106781 106781
          106781 106781 106781 106781 106781 106781 106781 106781 106781 106781 106781 106781
          106781 106781 106781 106781 106628 106628 106628 106628 106628 106628 106628 106628
          106628 106628 106628 106628 106628 106628 106628 106628 106628 106628 106628 106628
          106628 106628 106628 106628 106628 106628 106628 106628 106628 106628 106628 106628
          106628 106628 106628 106628 106628 106628 106628 106628 106628 106628 106628 106628
          106628 106628 106628 106628 106628 106628 106628 106628 106628 106628 106628 106628
          106628 106628 106628 106628 106628 106628 106628 106628 106475 106475 106475 106475
          106475 106475 106475 106475 106475 106475 106475 106475 106475 106475 106475 106475
          106475 106475 106475 106475 106475 106475 106475 106475 106475 106475 106475 106475
          106475 106475 106475 106475 106475 106475 106475 106475 106475 106475 106475 106475
          106475 106475 106475 106475 106475 106475 106475 106475 106475 106475 106475 106475
          106475 106475 106475 106475 106475 106475 106475 106475 106475 106475 106475 106475
          106321 106321 106321 106321 106321 106321 106321 106321 106321 106321 106321 106321
          106321 106321 106321 106321 106321 106321 106321 106321 106321 106321 106321 106321
          106321 106321 106321 106321 106321 106321 106321 106321 106321 106321 106321 106321
          106321 106321 106321 106321 106321 106321 106321 106321 106321 106321 106321 106321
          106321 106321 106321 106321 106321 106321 106321 106321 106321 106321 106321 106321
          106321 106321 106321 106321 106168 106168 106168 106168 106168 106168 106168 106168
          106168 106168 106168 106168 106168 106168 106168 106168 106168 106168 106168 106168
          106168 106168 106168 106168 106168 106168 106168 106168 106168 106168 106168 106168
          106168 106168 106168 106168 106168 106168 106168 106168 106168 106168 106168 106168
          106168 106168 106168 106168 106168 106168 106168 106168 106168 106168 106168 106168
          106168 106168 106168 106168 106168 106168 106168 106168 106015 106015 106015 106015
          106015 106015 106015 106015 106015 106015 106015 106015 106015 106015 106015 106015
          106015 106015 106015 106015 106015 106015 106015 106015 106015 106015 106015 106015
          106015 106015 106015 106015 106015 106015 106015 106015 106015 106015 106015 106015
          106015 106015 106015 106015 106015 106015 106015 106015 106015 106015 106015 106015
          106015 106015 106015 106015 106015 106015 106015 106015 106015 106015 106015 106015
          105861 105861 105861 105861 105861 105861 105861 105861 105861 105861 105861 105861
          105861 105861 105861 105861 105861 105861 105861 105861 105861 105861 105861 105861
          105861 105861 105861 105861 105861 105861 105861 105861 105861 105861 105861 105861
          105861 105861 105861 105861 105861 105861 105861 105861 105861 105861 105861 105861
          105861 105861 105861 105861 105861 105861 105861 105861 105861 105861 105861 105861
          105861 105861 105861 105861 105708 105708 105708 105708 105708 105708 105708 105708
          105708 105708 105708 105708 105708 105708 105708 105708 105708 105708 105708 105708
          105708 105708 105708 105708 105708 105708 105708 105708 105708 105708 105708 105708
          105708 105708 105708 105708 105708 105708 105708 105708 105708 105708 105708 105708
          105708 105708 105708 105708 105708 105708 105708 105708 105708 105708 105708 105708
          105708 105708 105708 105708 105708 105708 105708 105708 105555 105555 105555 105555
          105555 105555 105555 105555 105555 105555 105555 105555 105555 105555 105555 105555
          105555 105555 105555 105555 105555 105555 105555 105555 105555 105555 105555 105555
          105555 105555 105555 105555 105555 105555 105555 105555 105555 105555 105555 105555
          105555 105555 105555 105555 105555 105555 105555 105555 105555 105555 105555 105555
          105555 105555 105555 105555 105555 105555 105555 105555 105555 105555 105555 105555
          105402 105402 105402 105402 105402 105402 105402 105402 105402 105402 105402 105402
          105402 105402 105402 105402 105402 105402 105402 105402 105402 105402 105402 105402
          105402 105402 105402 105402 105402 105402 105402 105402 105402 105402 105402 105402
          105402 105402 105402 105402 105402 105402 105402 105402 105402 105402 105402 105402
          105402 105402 105402 105402 105402 105402 105402 105402 105402 105402 105402 105402
          105402 105402 105402 105402 105248 105248 105248 105248 105248 105248 105248 105248
          105248 105248 105248 105248 105248 105248 105248 105248 105248 105248 105248 105248
          105248 105248 105248 105248 105248 105248 105248 105248 105248 105248 105248 105248
          105248 105248 105248 105248 105248 105248 105248 105248 105248 105248 105248 105248
          105248 105248 105248 105248 105248 105248 105248 105248 105248 105248 105248 105248
          105248 105248 105248 105248 105248 105248 105248 105248 105095 105095 105095 105095
          105095 105095 105095 105095 105095 105095 105095 105095 105095 105095 105095 105095
          105095 105095 105095 105095 105095 105095 105095 105095 105095 105095 105095 105095
          105095 105095 105095 105095 105095 105095 105095 105095 105095 105095 105095 105095
          105095 105095 105095 105095 105095 105095 105095 105095 105095 105095 105095 105095
          105095 105095 105095 105095 105095 105095 105095 105095 105095 105095 105095 105095
          104942 104942 104942 104942 104942 104942 104942 104942 104942 104942 104942 104942
          104942 104942 104942 104942 104942 104942 104942 104942 104942 104942 104942 104942
          104942 104942 104942 104942 104942 104942 104942 104942 104942 104942 104942 104942
          104942 104942 104942 104942 104942 104942 104942 104942 104942 104942 104942 104942
          104942 104942 104942 104942 104942 104942 104942 104942 104942 104942 104942 104942
          104942 104942 104942 104942 104788 104788 104788 104788 104788 104788 104788 104788
          104788 104788 104788 104788 104788 104788 104788 104788 104788 104788 104788 104788
          104788 104788 104788 104788 104788 104788 104788 104788 104788 104788 104788 104788
          104788 104788 104788 104788 104788 104788 104788 104788 104788 104788 104788 104788
          104788 104788 104788 104788 104788 104788 104788 104788 104788 104788 104788 104788
          104788 104788 104788 104788 104788 104788 104788 104788 104635 104635 104635 104635
          104635 104635 104635 104635 104635 104635 104635 104635 104635 104635 104635 104635
          104635 104635 104635 104635 104635 104635 104635 104635 104635 104635 104635 104635
          104635 104635 104635 104635 104635 104635 104635 104635 104635 104635 104635 104635
          104635 104635 104635 104635 104635 104635 104635 104635 104635 104635 104635 104635
          104635 104635 104635 104635 104635 104635 104635 104635 104635 104635 104635 104635
          104482 104482 104482 104482 104482 104482 104482 104482 104482 104482 104482 104482
          104482 104482 104482 104482 104482 104482 104482 104482 104482 104482 104482 104482
          104482 104482 104482 104482 104482 104482 104482 104482 104482 104482 104482 104482
          104482 104482 104482 104482 104482 104482 104482 104482 104482 104482 104482 104482
          104482 104482 104482 104482 104482 104482 104482 104482 104482 104482 104482 104482
          104482 104482 104482 104482 104329 104329 104329 104329 104329 104329 104329 104329
          104329 104329 104329 104329 104329 104329 104329 104329 104329 104329 104329 104329
          104329 104329 104329 104329 104329 104329 104329 104329 104329 104329 104329 104329
          104329 104329 104329 104329 104329 104329 104329 104329 104329 104329 104329 104329
          104329 104329 104329 104329 104329 104329 104329 104329 104329 104329 104329 104329
          104329 104329 104329 104329 104329 104329 104329 104329 104175 104175 104175 104175
          104175 104175 104175 104175 104175 104175 104175 104175 104175 104175 104175 104175
          104175 104175 104175 104175 104175 104175 104175 104175 104175 104175 104175 104175
          104175 104175 104175 104175 104175 104175 104175 104175 104175 104175 104175 104175
          104175 104175 104175 104175 104175 104175 104175 104175 104175 104175 104175 104175
          104175 104175 104175 104175 104175 104175 104175 104175 104175 104175 104175 104175
          104022 104022 104022 104022 104022 104022 104022 104022 104022 104022 104022 104022
          104022 104022 104022 104022 104022 104022 104022 104022 104022 104022 104022 104022
          104022 104022 104022 104022 104022 104022 104022 104022 104022 104022 104022 104022
          104022 104022 104022 104022 104022 104022 104022 104022 104022 104022 104022 104022
          104022 104022 104022 104022 104022 104022 104022 104022 104022 104022 104022 104022
          104022 104022 104022 104022 103869 103869 103869 103869 103869 103869 103869 103869
          103869 103869 103869 103869 103869 103869 103869 103869 103869 103869 103869 103869
          103869 103869 103869 103869 103869 103869 103869 103869 103869 103869 103869 103869
          103869 103869 103869 103869 103869 103869 103869 103869 103869 103869 103869 103869
          103869 103869 103869 103869 103869 103869 103869 103869 103869 103869 103869 103869
          103869 103869 103869 103869 103869 103869 103869 103869 103715 103715 103715 103715
          103715 103715 103715 103715 103715 103715 103715 103715 103715 103715 103715 103715
          103715 103715 103715 103715 103715 103715 103715 103715 103715 103715 103715 103715
          103715 103715 103715 103715 103715 103715 103715 103715 103715 103715 103715 103715
          103715 103715 103715 103715 103715 103715 103715 103715 103715 103715 103715 103715
          103715 103715 103715 103715 103715 103715 103715 103715 103715 103715 103715 103715
          103562 103562 103562 103562 103562 103562 103562 103562 103562 103562 103562 103562
          103562 103562 103562 103562 103562 103562 103562 103562 103562 103562 103562 103562
          103562 103562 103562 103562 103562 103562 103562 103562 103562 103562 103562 103562
          103562 103562 103562 103562 103562 103562 103562 103562 103562 103562 103562 103562
          103562 103562 103562 103562 103562 103562 103562 103562 103562 103562 103562 103562
          103562 103562 103562 103562 103409 103409 103409 103409 103409 103409 103409 103409
          103409 103409 103409 103409 103409 103409 103409 103409 103409 103409 103409 103409
          103409 103409 103409 103409 103409 103409 103409 103409 103409 103409 103409 103409
          103409 103409 103409 103409 103409 103409 103409 103409 103409 103409 103409 103409
          103409 103409 103409 103409 103409 103409 103409 103409 103409 103409 103409 103409
          103409 103409 103409 103409 103409 103409 103409 103409 103256 103256 103256 103256
          103256 103256 103256 103256 103256 103256 103256 103256 103256 103256 103256 103256
          103256 103256 103256 103256 103256 103256 103256 103256 103256 103256 103256 103256
          103256 103256 103256 103256 103256 103256 103256 103256 103256 103256 103256 103256
          103256 103256 103256 103256 103256 103256 103256 103256 103256 103256 103256 103256
          103256 103256 103256 103256 103256 103256 103256 103256 103256 103256 103256 103256
          103102 103102 103102 103102 103102 103102 103102 103102 103102 103102 103102 103102
          103102 103102 103102 103102 103102 103102 103102 103102 103102 103102 103102 103102
          103102 103102 103102 103102 103102 103102 103102 103102 103102 103102 103102 103102
          103102 103102 103102 103102 103102 103102 103102 103102 103102 103102 103102 103102
          103102 103102 103102 103102 103102 103102 103102 103102 103102 103102 103102 103102
          103102 103102 103102 103102 102949 102949 102949 102949 102949 102949 102949 102949
          102949 102949 102949 102949 102949 102949 102949 102949 102949 102949 102949 102949
          102949 102949 102949 102949 102949 102949 102949 102949 102949 102949 102949 102949
          102949 102949 102949 102949 102949 102949 102949 102949 102949 102949 102949 102949
          102949 102949 102949 102949 102949 102949 102949 102949 102949 102949 102949 102949
          102949 102949 102949 102949 102949 102949 102949 102949 102796 102796 102796 102796
          102796 102796 102796 102796 102796 102796 102796 102796 102796 102796 102796 102796
          102796 102796 102796 102796 102796 102796 102796 102796 102796 102796 102796 102796
          102796 102796 102796 102796 102796 102796 102796 102796 102796 102796 102796 102796
          102796 102796 102796 102796 102796 102796 102796 102796 102796 102796 102796 102796
          102796 102796 102796 102796 102796 102796 102796 102796 102796 102796 102796 102796
          102642 102642 102642 102642 102642 102642 102642 102642 102642 102642 102642 102642
          102642 102642 102642 102642 102642 102642 102642 102642 102642 102642 102642 102642
          102642 102642 102642 102642 102642 102642 102642 102642 102642 102642 102642 102642
          102642 102642 102642 102642 102642 102642 102642 102642 102642 102642 102642 102642
          102642 102642 102642 102642 102642 102642 102642 102642 102642 102642 102642 102642
          102642 102642 102642 102642 102489 102489 102489 102489 102489 102489 102489 102489
          102489 102489 102489 102489 102489 102489 102489 102489 102489 102489 102489 102489
          102489 102489 102489 102489 102489 102489 102489 102489 102489 102489 102489 102489
          102489 102489 102489 102489 102489 102489 102489 102489 102489 102489 102489 102489
          102489 102489 102489 102489 102489 102489 102489 102489 102489 102489 102489 102489
          102489 102489 102489 102489 102489 102489 102489 102489 102336 102336 102336 102336
          102336 102336 102336 102336 102336 102336 102336 102336 102336 102336 102336 102336
          102336 102336 102336 102336 102336 102336 102336 102336 102336 102336 102336 102336
          102336 102336 102336 102336 102336 102336 102336 102336 102336 102336 102336 102336
          102336 102336 102336 102336 102336 102336 102336 102336 102336 102336 102336 102336
          102336 102336 102336 102336 102336 102336 102336 102336 102336 102336 102336 102336
          102183 102183 102183 102183 102183 102183 102183 102183 102183 102183 102183 102183
          102183 102183 102183 102183 102183 102183 102183 102183 102183 102183 102183 102183
          102183 102183 102183 102183 102183 102183 102183 102183 102183 102183 102183 102183
          102183 102183 102183 102183 102183 102183 102183 102183 102183 102183 102183 102183
          102183 102183 102183 102183 102183 102183 102183 102183 102183 102183 102183 102183
          102183 102183 102183 102183 102029 102029 102029 102029 102029 102029 102029 102029
          102029 102029 102029 102029 102029 102029 102029 102029 102029 102029 102029 102029
          102029 102029 102029 102029 102029 102029 102029 102029 102029 102029 102029 102029
          102029 102029 102029 102029 102029 102029 102029 102029 102029 102029 102029 102029
          102029 102029 102029 102029 102029 102029 102029 102029 102029 102029 102029 102029
          102029 102029 102029 102029 102029 102029 102029 102029 101876 101876 101876 101876
          101876 101876 101876 101876 101876 101876 101876 101876 101876 101876 101876 101876
          101876 101876 101876 101876 101876 101876 101876 101876 101876 101876 101876 101876
          101876 101876 101876 101876 101876 101876 101876 101876 101876 101876 101876 101876
          101876 101876 101876 101876 101876 101876 101876 101876 101876 101876 101876 101876
          101876 101876 101876 101876 101876 101876 101876 101876 101876 101876 101876 101876
          101723 101723 101723 101723 101723 101723 101723 101723 101723 101723 101723 101723
          101723 101723 101723 101723 101723 101723 101723 101723 101723 101723 101723 101723
          101723 101723 101723 101723 101723 101723 101723 101723 101723 101723 101723 101723
          101723 101723 101723 101723 101723 101723 101723 101723 101723 101723 101723 101723
          101723 101723 101723 101723 101723 101723 101723 101723 101723 101723 101723 101723
          101723 101723 101723 101723 101570 101570 101570 101570 101570 101570 101570 101570
          101570 101570 101570 101570 101570 101570 101570 101570 101570 101570 101570 101570
          101570 101570 101570 101570 101570 101570 101570 101570 101570 101570 101570 101570
          101570 101570 101570 101570 101570 101570 101570 101570 101570 101570 101570 101570
          101570 101570 101570 101570 101570 101570 101570 101570 101570 101570 101570 101570
          101570 101570 101570 101570 101570 101570 101570 101570 101416 101416 101416 101416
          101416 101416 101416 101416 101416 101416 101416 101416 101416 101416 101416 101416
          101416 101416 101416 101416 101416 101416 101416 101416 101416 101416 101416 101416
          101416 101416 101416 101416 101416 101416 101416 101416 101416 101416 101416 101416
          101416 101416 101416 101416 101416 101416 101416 101416 101416 101416 101416 101416
          101416 101416 101416 101416 101416 101416 101416 101416 101416 101416 101416 101416
          101263 101263 101263 101263 101263 101263 101263 101263 101263 101263 101263 101263
          101263 101263 101263 101263 101263 101263 101263 101263 101263 101263 101263 101263
          101263 101263 101263 101263 101263 101263 101263 101263 101263 101263 101263 101263
          101263 101263 101263 101263 101263 101263 101263 101263 101263 101263 101263 101263
          101263 101263 101263 101263 101263 101263 101263 101263 101263 101263 101263 101263
          101263 101263 101263 101263 101110 101110 101110 101110 101110 101110 101110 101110
          101110 101110 101110 101110 101110 101110 101110 101110 101110 101110 101110 101110
          101110 101110 101110 101110 101110 101110 101110 101110 101110 101110 101110 101110
          101110 101110 101110 101110 101110 101110 101110 101110 101110 101110 101110 101110
          101110 101110 101110 101110 101110 101110 101110 101110 101110 101110 101110 101110
          101110 101110 101110 101110 101110 101110 101110 101110 100956 100956 100956 100956