<?xml version="1.0"?>
<VTKFile type="UnstructuredGrid" version="0.1" byte_order="LittleEndian">
  <UnstructuredGrid>
    <Piece NumberOfCells="324" NumberOfPoints="361">
      <PointData Scalars="pg" Vectors="v">
        <DataArray type="Float32" Name="pg" NumberOfComponents="1" format="ascii">
          100000 100000 99999.7 99999.7 100000 99999.7 100000 99999.7 100000 99999.7 100000 99999.7
          100000 99999.7 100000 99999.7 100000 99999.7 100000 99999.7 100000 99999.7 100000 99999.7
          100000 99999.7 100000 99999.7 100000 99999.7 100000 99999.7 100000 99999.7 100000 99999.7
          100000 99999.7 99999.1 99999.1 99999.1 99999.1 99999.1 99999.1 99999.1 99999.1 99999.1 99999.1
          99999.1 99999.1 99999.1 99999.1 99999.1 99999.1 99999.1 99999.1 99999.1 99998.4 99998.4 99998.4
          99998.4 99998.4 99998.4 99998.4 99998.4 99998.4 99998.4 99998.4 99998.4 99998.4 99998.4 99998.4
          99998.4 99998.4 99998.4 99998.4 99997.7 99997.7 99997.7 99997.7 99997.7 99997.7 99997.7 99997.7
          99997.7 99997.7 99997.7 99997.7 99997.7 99997.7 99997.7 99997.7 99997.7 99997.7 99997.7 99997
          99997 99997 99997 99997 99997 99997 99997 99997 99997 99997 99997 99997
          99997 99997 99997 99997 99997 99997 99996.4 99996.4 99996.4 99996.4 99996.4 99996.4
          99996.4 99996.4 99996.4 99996.4 99996.4 99996.4 99996.4 99996.4 99996.4 99996.4 99996.4 99996.4
          99996.4 99995.7 99995.7 99995.7 99995.7 99995.7 99995.7 99995.7 99995.7 99995.7 99995.7 99995.7
          99995.7 99995.7 99995.7 99995.7 99995.7 99995.7 99995.7 99995.7 99995 99995 99995 99995
          99995 99995 99995 99995 99995 99995 99995 99995 99995 99995 99995 99995
          99995 99995 99995 99994.4 99994.4 99994.4 99994.4 99994.4 99994.4 99994.4 99994.4 99994.4
          99994.4 99994.4 99994.4 99994.4 99994.4 99994.4 99994.4 99994.4 99994.4 99994.4 99993.7 99993.7
          99993.7 99993.7 99993.7 99993.7 99993.7 99993.7 99993.7 99993.7 99993.7 99993.7 99993.7 99993.7
          99993.7 99993.7 99993.7 99993.7 99993.7 99993 99993 99993 99993 99993 99993 99993
          99993 99993 99993 99993 99993 99993 99993 99993 99993 99993 99993 99993
          99992.4 99992.4 99992.4 99992.4 99992.4 99992.4 99992.4 99992.4 99992.4 99992.4 99992.4 99992.4
          99992.4 99992.4 99992.4 99992.4 99992.4 99992.4 99992.4 99991.7 99991.7 99991.7 99991.7 99991.7
          99991.7 99991.7 99991.7 99991.7 99991.7 99991.7 99991.7 99991.7 99991.7 99991.7 99991.7 99991.7
          99991.7 99991.7 99991 99991 99991 99991 99991 99991 99991 99991 99991 99991
          99991 99991 99991 99991 99991 99991 99991 99991 99991 99990.3 99990.3 99990.3
          99990.3 99990.3 99990.3 99990.3 99990.3 99990.3 99990.3 99990.3 99990.3 99990.3 99990.3 99990.3
          99990.3 99990.3 99990.3 99990.3 99989.7 99989.7 99989.7 99989.7 99989.7 99989.7 99989.7 99989.7
          99989.7 99989.7 99989.7 99989.7 99989.7 99989.7 99989.7 99989.7 99989.7 99989.7 99989.7 99989
          99989 99989 99989 99989 99989 99989 99989 99989 99989 99989 99989 99989
          99989 99989 99989 99989 99989 99989 99988.3 99988.3 99988.3 99988.3 99988.3 99988.3
          99988.3 99988.3 99988.3 99988.3 99988.3 99988.3 99988.3 99988.3 99988.3 99988.3 99988.3 99988.3
          99988.3
        </DataArray>
        <DataArray type="Float32" Name="delP" NumberOfComponents="1" format="ascii">
          0.401348 0.401348 -0.269033 -0.269034 0.401351 -0.269031 0.401345 -0.269036 0.40135 -0.269031 0.40134 -0.269041
          0.401348 -0.269033 0.401336 -0.269044 0.401347 -0.269034 0.401335 -0.269045 0.401347 -0.269034 0.401337 -0.269044
          0.401348 -0.269032 0.40134 -0.26904 0.40135 -0.269031 0.401345 -0.269036 0.401351 -0.269031 0.401348 -0.269033
          0.401348 -0.269033 -0.939404 -0.939405 -0.939402 -0.939408 -0.939402 -0.939413 -0.939404 -0.939417 -0.939406 -0.939419
          -0.939406 -0.939417 -0.939404 -0.939413 -0.939402 -0.939408 -0.939401 -0.939404 -0.939404 -1.60978 -1.60978 -1.60977
          -1.60978 -1.60977 -1.60979 -1.60978 -1.60979 -1.60978 -1.60979 -1.60978 -1.60979 -1.60978 -1.60979 -1.60977
          -1.60978 -1.60977 -1.60978 -1.60977 -2.28014 -2.28014 -2.28013 -2.28014 -2.28013 -2.28015 -2.28014 -2.28016
          -2.28014 -2.28016 -2.28014 -2.28016 -2.28014 -2.28015 -2.28013 -2.28014 -2.28013 -2.28014 -2.28013 -2.95049
          -2.9505 -2.95049 -2.9505 -2.95049 -2.95052 -2.9505 -2.95052 -2.9505 -2.95053 -2.9505 -2.95052 -2.9505
          -2.95052 -2.95049 -2.9505 -2.95049 -2.9505 -2.95049 -3.62084 -3.62084 -3.62084 -3.62086 -3.62084 -3.62087
          -3.62085 -3.62088 -3.62086 -3.62089 -3.62086 -3.62088 -3.62085 -3.62087 -3.62084 -3.62085 -3.62084 -3.62084
          -3.62084 -4.29119 -4.29119 -4.29118 -4.29121 -4.29119 -4.29123 -4.29121 -4.29125 -4.29121 -4.29125 -4.29121
          -4.29124 -4.29121 -4.29123 -4.29119 -4.29121 -4.29118 -4.29119 -4.29119 -4.96152 -4.96152 -4.96152 -4.96154
          -4.96153 -4.96158 -4.96155 -4.9616 -4.96156 -4.9616 -4.96156 -4.9616 -4.96155 -4.96158 -4.96153 -4.96154
          -4.96151 -4.96152 -4.96152 -5.63185 -5.63185 -5.63184 -5.63188 -5.63186 -5.63193 -5.6319 -5.63195 -5.63191
          -5.63196 -5.63191 -5.63195 -5.63189 -5.63193 -5.63186 -5.63188 -5.63184 -5.63185 -5.63185 -6.30216 -6.30216
          -6.30215 -6.3022 -6.30218 -6.30226 -6.30222 -6.30229 -6.30224 -6.3023 -6.30224 -6.30229 -6.30222 -6.30226
          -6.30218 -6.3022 -6.30215 -6.30216 -6.30216 -6.97247 -6.97247 -6.97246 -6.97251 -6.97249 -6.97259 -6.97255
          -6.97262 -6.97256 -6.97263 -6.97256 -6.97262 -6.97255 -6.97259 -6.97249 -6.97251 -6.97246 -6.97247 -6.97247
          -7.64275 -7.64275 -7.64274 -7.6428 -7.64277 -7.6429 -7.64285 -7.64293 -7.64287 -7.64294 -7.64287 -7.64293
          -7.64285 -7.6429 -7.64277 -7.6428 -7.64274 -7.64275 -7.64275 -8.31302 -8.31303 -8.31301 -8.31308 -8.31305
          -8.31319 -8.31314 -8.31323 -8.31316 -8.31323 -8.31316 -8.31323 -8.31314 -8.31319 -8.31305 -8.31308 -8.31301
          -8.31302 -8.31302 -8.98327 -8.98327 -8.98326 -8.98333 -8.9833 -8.98345 -8.9834 -8.98349 -8.98341 -8.98349
          -8.98341 -8.98349 -8.98339 -8.98345 -8.9833 -8.98332 -8.98325 -8.98327 -8.98327 -9.65351 -9.65351 -9.65349
          -9.65356 -9.65353 -9.65368 -9.65363 -9.65372 -9.65365 -9.65372 -9.65365 -9.65372 -9.65363 -9.65368 -9.65353
          -9.65356 -9.65349 -9.65351 -9.65351 -10.3237 -10.3237 -10.3237 -10.3238 -10.3237 -10.3239 -10.3238 -10.3239
          -10.3238 -10.3239 -10.3238 -10.3239 -10.3238 -10.3239 -10.3237 -10.3238 -10.3237 -10.3237 -10.3237 -10.9939
          -10.9939 -10.9939 -10.9939 -10.9939 -10.994 -10.994 -10.994 -10.994 -10.994 -10.994 -10.994 -10.994
          -10.994 -10.9939 -10.9939 -10.9939 -10.9939 -10.9939 -11.6641 -11.6641 -11.6641 -11.6641 -11.6641 -11.6641
          -11.6641 -11.6641 -11.6641 -11.6641 -11.6641 -11.6641 -11.6641 -11.6641 -11.6641 -11.6641 -11.6641 -11.6641
          -11.6641
        </DataArray>
        <DataArray type="Float32" Name="X^H2O" NumberOfComponents="1" format="ascii">
          0.0001 0.0001 0.0001 9.99999e-05 0.0001 0.0001 0.0001 9.99999e-05 0.0001 0.0001 0.0001 9.99999e-05
          0.0001 0.0001 0.0001 9.99999e-05 0.0001 0.0001 0.0001 9.99999e-05 0.0001 0.0001 0.0001 9.99999e-05
          0.0001 0.0001 0.0001 9.99999e-05 0.0001 0.0001 0.0001 9.99999e-05 0.0001 0.0001 0.0001 9.99999e-05
          0.0001 0.0001 0.0001 9.99999e-05 0.0001 9.99999e-05 0.0001 9.99999e-05 0.0001 9.99999e-05 0.0001 9.99999e-05
          0.0001 9.99999e-05 0.0001 9.99999e-05 0.0001 9.99999e-05 0.0001 9.99999e-05 0.0001 0.0001 9.99998e-05 0.0001
          9.99998e-05 0.0001 9.99998e-05 0.0001 9.99998e-05 0.0001 9.99998e-05 0.0001 9.99998e-05 0.0001 9.99998e-05 0.0001
          9.99998e-05 0.0001 9.99997e-05 0.0001 0.0001 9.99996e-05 0.000100001 9.99996e-05 0.000100001 9.99997e-05 0.0001 9.99997e-05
          0.0001 9.99997e-05 0.0001 9.99997e-05 0.0001 9.99997e-05 0.000100001 9.99996e-05 0.000100001 9.99996e-05 0.0001 0.0001
          9.99993e-05 0.000100001 9.99994e-05 0.000100001 9.99982e-05 9.99999e-05 9.99989e-05 0.0001 9.99991e-05 0.0001 9.99989e-05 9.99999e-05
          9.99983e-05 0.000100001 9.99994e-05 0.000100001 9.99993e-05 0.0001 0.0001 9.9999e-05 0.000100002 9.9999e-05 0.000100001 9.99924e-05
          9.99965e-05 9.9996e-05 9.99982e-05 9.99967e-05 9.99982e-05 9.9996e-05 9.99964e-05 9.99925e-05 0.000100001 9.9999e-05 0.000100002 9.9999e-05
          0.0001 0.0001 9.99985e-05 0.000100002 9.99985e-05 0.000100001 9.99768e-05 9.99862e-05 9.99879e-05 9.9992e-05 9.99903e-05 9.9992e-05
          9.99879e-05 9.99862e-05 9.99771e-05 0.000100002 9.99985e-05 0.000100002 9.99985e-05 0.0001 0.0001 9.99981e-05 0.000100003 9.9998e-05
          0.000100001 9.99454e-05 9.99643e-05 9.99707e-05 9.99782e-05 9.99764e-05 9.99782e-05 9.99706e-05 9.99641e-05 9.9946e-05 0.000100002 9.9998e-05
          0.000100003 9.99981e-05 0.0001 0.0001 9.99976e-05 0.000100004 9.99972e-05 0.000100001 9.98917e-05 9.99249e-05 9.99396e-05 9.99526e-05
          9.99511e-05 9.99525e-05 9.99394e-05 9.99246e-05 9.98927e-05 0.000100003 9.99972e-05 0.000100004 9.99976e-05 0.0001 0.0001 9.99973e-05
          0.000100004 9.99964e-05 0.0001 9.98098e-05 9.98626e-05 9.98901e-05 9.9911e-05 9.99103e-05 9.99109e-05 9.98898e-05 9.98623e-05 9.98115e-05
          0.000100003 9.99964e-05 0.000100004 9.99973e-05 0.0001 0.0001 9.9997e-05 0.000100005 9.99954e-05 9.99994e-05 9.96953e-05 9.97729e-05
          9.98177e-05 9.98493e-05 9.985e-05 9.98491e-05 9.98173e-05 9.97725e-05 9.96978e-05 0.000100003 9.99954e-05 0.000100005 9.9997e-05 0.0001
          0.0001 9.9997e-05 0.000100006 9.99944e-05 9.99977e-05 9.95448e-05 9.96523e-05 9.9719e-05 9.9764e-05 9.97669e-05 9.97638e-05 9.97185e-05
          9.96517e-05 9.95483e-05 0.000100003 9.99945e-05 0.000100006 9.9997e-05 0.0001 0.0001 9.99969e-05 0.000100006 9.99934e-05 9.99953e-05
          9.93555e-05 9.94987e-05 9.95916e-05 9.96527e-05 9.96583e-05 9.96524e-05 9.9591e-05 9.94981e-05 9.936e-05 0.000100002 9.99936e-05 0.000100006
          9.99969e-05 0.0001 0.0001 9.99973e-05 0.000100007 9.99926e-05 9.99917e-05 9.91265e-05 9.93123e-05 9.94347e-05 9.95139e-05 9.9523e-05
          9.95136e-05 9.94339e-05 9.93115e-05 9.91321e-05 9.99997e-05 9.99928e-05 0.000100007 9.99973e-05 0.0001 0.0001 9.99976e-05 0.000100007
          9.99919e-05 9.99864e-05 9.8862e-05 9.90955e-05 9.92496e-05 9.93484e-05 9.93616e-05 9.9348e-05 9.92488e-05 9.90946e-05 9.88687e-05 9.99958e-05
          9.99921e-05 0.000100007 9.99976e-05 0.0001 0.0001 9.99983e-05 0.000100007 9.99914e-05 9.99788e-05 9.85704e-05 9.88534e-05 9.904e-05
          9.91588e-05 9.91765e-05 9.91583e-05 9.90391e-05 9.88523e-05 9.85781e-05 9.99894e-05 9.99917e-05 0.000100007 9.99983e-05 0.0001 0.0001
          9.99989e-05 0.000100006 9.99913e-05 9.99688e-05 9.82642e-05 9.85933e-05 9.88115e-05 9.89494e-05 9.8972e-05 9.89489e-05 9.88105e-05 9.85923e-05
          9.82727e-05 9.99801e-05 9.99917e-05 0.000100006 9.99989e-05 0.0001 0.0001 0.000100008 0.000100012 9.99957e-05 9.99667e-05 9.81163e-05
          9.84641e-05 9.86953e-05 9.88414e-05 9.88659e-05 9.88409e-05 9.86944e-05 9.84631e-05 9.8125e-05 9.99781e-05 9.9996e-05 0.000100012 0.000100008
          0.0001
        </DataArray>
        <DataArray type="Float32" Name="temperature" NumberOfComponents="1" format="ascii">
          283.15 283.15 283.15 283.15 283.15 283.15 283.15 283.15 283.15 283.15 283.15 283.15
          283.15 283.15 283.15 283.15 283.15 283.15 283.15 283.15 283.15 283.15 283.15 283.15
          283.15 283.15 283.15 283.15 283.15 283.15 283.15 283.15 283.15 283.15 283.15 283.15
          283.15 283.15 283.15 283.15 283.15 283.15 283.15 283.15 283.15 283.15 283.15 283.15
          283.15 283.15 283.15 283.15 283.15 283.15 283.15 283.15 283.15 283.15 283.15 283.15
          283.15 283.15 283.15 283.15 283.15 283.15 283.15 283.15 283.15 283.15 283.15 283.15
          283.15 283.15 283.15 283.15 283.15 283.15 283.15 283.15 283.15 283.15 283.15 283.15
          283.15 283.15 283.15 283.15 283.15 283.15 283.15 283.15 283.15 283.15 283.15 283.15
          283.15 283.15 283.15 283.15 283.15 283.15 283.15 283.15 283.15 283.15 283.15 283.15
          283.15 283.15 283.15 283.15 283.15 283.15 283.15 283.15 283.15 283.15 283.15 283.151
          283.151 283.15 283.15 283.15 283.15 283.15 283.151 283.151 283.15 283.15 283.15 283.15
          283.15 283.15 283.15 283.15 283.15 283.15 283.152 283.152 283.151 283.151 283.151 283.151
          283.151 283.152 283.152 283.15 283.15 283.15 283.15 283.15 283.15 283.15 283.15 283.15
          283.15 283.155 283.154 283.153 283.153 283.152 283.153 283.153 283.154 283.155 283.15 283.15
          283.15 283.15 283.15 283.15 283.15 283.15 283.15 283.151 283.16 283.158 283.156 283.155
          283.155 283.155 283.156 283.158 283.16 283.15 283.15 283.15 283.15 283.15 283.15 283.15
          283.151 283.15 283.151 283.169 283.164 283.161 283.16 283.159 283.16 283.161 283.165 283.168
          283.151 283.15 283.151 283.15 283.15 283.15 283.15 283.151 283.15 283.151 283.18 283.174
          283.168 283.166 283.164 283.166 283.168 283.174 283.18 283.151 283.15 283.151 283.15 283.15
          283.15 283.15 283.151 283.15 283.151 283.195 283.186 283.178 283.175 283.173 283.175 283.178
          283.186 283.195 283.151 283.15 283.151 283.15 283.15 283.15 283.15 283.151 283.149 283.152
          283.214 283.202 283.19 283.186 283.184 283.186 283.19 283.202 283.213 283.151 283.149 283.151
          283.15 283.15 283.15 283.15 283.151 283.149 283.153 283.237 283.22 283.206 283.2 283.197
          283.2 283.206 283.221 283.236 283.152 283.149 283.151 283.15 283.15 283.15 283.15 283.151
          283.149 283.153 283.263 283.242 283.224 283.217 283.213 283.217 283.224 283.243 283.262 283.152
          283.149 283.151 283.15 283.15 283.15 283.15 283.151 283.149 283.154 283.292 283.267 283.245
          283.236 283.232 283.236 283.245 283.267 283.291 283.153 283.149 283.151 283.15 283.15 283.15
          283.15 283.151 283.149 283.155 283.323 283.293 283.268 283.257 283.252 283.257 283.268 283.293
          283.322 283.154 283.149 283.151 283.15 283.15 283.15 283.151 283.151 283.15 283.156 283.339
          283.307 283.28 283.268 283.263 283.268 283.28 283.307 283.338 283.155 283.15 283.151 283.151
          283.15
        </DataArray>
        <DataArray type="Float32" Name="rhoG" NumberOfComponents="1" format="ascii">
          1.23005 1.23005 1.23004 1.23004 1.23005 1.23004 1.23005 1.23004 1.23005 1.23004 1.23005 1.23004
          1.23005 1.23004 1.23005 1.23004 1.23005 1.23004 1.23005 1.23004 1.23005 1.23004 1.23005 1.23004
          1.23005 1.23004 1.23005 1.23004 1.23005 1.23004 1.23005 1.23004 1.23005 1.23004 1.23005 1.23004
          1.23005 1.23004 1.23003 1.23003 1.23003 1.23003 1.23003 1.23003 1.23003 1.23003 1.23003 1.23003
          1.23003 1.23003 1.23003 1.23003 1.23003 1.23003 1.23003 1.23003 1.23003 1.23003 1.23002 1.23002
          1.23003 1.23002 1.23003 1.23002 1.23003 1.23002 1.23003 1.23002 1.23003 1.23002 1.23003 1.23002
          1.23003 1.23002 1.23002 1.23003 1.23002 1.23002 1.23002 1.23002 1.23002 1.23002 1.23002 1.23002
          1.23002 1.23002 1.23002 1.23002 1.23002 1.23002 1.23002 1.23002 1.23002 1.23002 1.23002 1.23001
          1.23001 1.23001 1.23001 1.23001 1.23001 1.23001 1.23001 1.23001 1.23001 1.23001 1.23001 1.23001
          1.23001 1.23001 1.23001 1.23001 1.23001 1.23001 1.23 1.23 1.23 1.23 1.23 1.23
          1.23 1.23 1.23 1.23 1.23 1.23 1.23 1.23 1.23 1.23 1.23 1.23
          1.23 1.22999 1.22999 1.22999 1.22999 1.22999 1.22998 1.22998 1.22999 1.22999 1.22999 1.22999
          1.22999 1.22998 1.22998 1.22999 1.22999 1.22999 1.22999 1.22999 1.22998 1.22998 1.22998 1.22998
          1.22998 1.22996 1.22997 1.22997 1.22997 1.22997 1.22997 1.22997 1.22997 1.22996 1.22998 1.22998
          1.22998 1.22998 1.22998 1.22998 1.22998 1.22997 1.22998 1.22997 1.22993 1.22994 1.22995 1.22995
          1.22996 1.22995 1.22995 1.22994 1.22993 1.22997 1.22998 1.22997 1.22998 1.22998 1.22997 1.22997
          1.22996 1.22997 1.22996 1.22989 1.2299 1.22992 1.22993 1.22993 1.22993 1.22992 1.2299 1.22989
          1.22996 1.22997 1.22996 1.22997 1.22997 1.22996 1.22996 1.22996 1.22996 1.22995 1.22983 1.22986
          1.22988 1.22989 1.2299 1.22989 1.22988 1.22986 1.22983 1.22996 1.22996 1.22996 1.22996 1.22996
          1.22995 1.22995 1.22995 1.22995 1.22994 1.22976 1.22979 1.22983 1.22984 1.22985 1.22984 1.22983
          1.22979 1.22976 1.22995 1.22995 1.22995 1.22995 1.22995 1.22994 1.22994 1.22994 1.22994 1.22993
          1.22967 1.22972 1.22977 1.22979 1.2298 1.22979 1.22977 1.22972 1.22967 1.22994 1.22994 1.22994
          1.22994 1.22994 1.22993 1.22993 1.22993 1.22994 1.22992 1.22956 1.22963 1.22969 1.22972 1.22973
          1.22972 1.22969 1.22963 1.22956 1.22993 1.22994 1.22993 1.22993 1.22993 1.22993 1.22993 1.22992
          1.22993 1.22991 1.22944 1.22953 1.2296 1.22964 1.22965 1.22964 1.2296 1.22952 1.22944 1.22992
          1.22993 1.22992 1.22993 1.22993 1.22992 1.22992 1.22991 1.22992 1.2299 1.2293 1.22941 1.22951
          1.22954 1.22956 1.22954 1.2295 1.22941 1.22931 1.2299 1.22992 1.22991 1.22992 1.22992 1.22991
          1.22991 1.22991 1.22991 1.22989 1.22916 1.22929 1.2294 1.22945 1.22947 1.22944 1.2294 1.22929
          1.22916 1.22989 1.22991 1.22991 1.22991 1.22991 1.2299 1.2299 1.2299 1.2299 1.22987 1.22908
          1.22922 1.22934 1.22939 1.22941 1.22939 1.22934 1.22922 1.22909 1.22988 1.2299 1.2299 1.2299
          1.2299
        </DataArray>
        <DataArray type="Float32" Name="mu" NumberOfComponents="1" format="ascii">
          1.75168e-05 1.75168e-05 1.75168e-05 1.75168e-05 1.75168e-05 1.75168e-05 1.75168e-05 1.75168e-05 1.75168e-05 1.75168e-05 1.75168e-05 1.75168e-05
          1.75168e-05 1.75168e-05 1.75168e-05 1.75168e-05 1.75168e-05 1.75168e-05 1.75168e-05 1.75168e-05 1.75168e-05 1.75168e-05 1.75168e-05 1.75168e-05
          1.75168e-05 1.75168e-05 1.75168e-05 1.75168e-05 1.75168e-05 1.75168e-05 1.75168e-05 1.75168e-05 1.75168e-05 1.75168e-05 1.75168e-05 1.75168e-05
          1.75168e-05 1.75168e-05 1.75168e-05 1.75168e-05 1.75168e-05 1.75168e-05 1.75168e-05 1.75168e-05 1.75168e-05 1.75168e-05 1.75168e-05 1.75168e-05
          1.75168e-05 1.75168e-05 1.75168e-05 1.75168e-05 1.75168e-05 1.75168e-05 1.75168e-05 1.75168e-05 1.75168e-05 1.75168e-05 1.75168e-05 1.75168e-05
          1.75168e-05 1.75168e-05 1.75168e-05 1.75168e-05 1.75168e-05 1.75168e-05 1.75168e-05 1.75168e-05 1.75168e-05 1.75168e-05 1.75168e-05 1.75168e-05
          1.75168e-05 1.75168e-05 1.75168e-05 1.75168e-05 1.75168e-05 1.75168e-05 1.75168e-05 1.75168e-05 1.75168e-05 1.75168e-05 1.75168e-05 1.75168e-05
          1.75168e-05 1.75168e-05 1.75168e-05 1.75168e-05 1.75168e-05 1.75168e-05 1.75168e-05 1.75168e-05 1.75168e-05 1.75168e-05 1.75168e-05 1.75168e-05
          1.75168e-05 1.75168e-05 1.75168e-05 1.75168e-05 1.75168e-05 1.75168e-05 1.75168e-05 1.75168e-05 1.75168e-05 1.75168e-05 1.75168e-05 1.75168e-05
          1.75168e-05 1.75168e-05 1.75168e-05 1.75168e-05 1.75168e-05 1.75168e-05 1.75168e-05 1.75168e-05 1.75168e-05 1.75168e-05 1.75168e-05 1.75169e-05
          1.75169e-05 1.75169e-05 1.75169e-05 1.75168e-05 1.75169e-05 1.75169e-05 1.75169e-05 1.75169e-05 1.75168e-05 1.75168e-05 1.75168e-05 1.75168e-05
          1.75168e-05 1.75168e-05 1.75168e-05 1.75169e-05 1.75168e-05 1.75168e-05 1.75169e-05 1.75169e-05 1.75169e-05 1.75169e-05 1.75169e-05 1.75169e-05
          1.75169e-05 1.75169e-05 1.75169e-05 1.75168e-05 1.75168e-05 1.75169e-05 1.75168e-05 1.75168e-05 1.75168e-05 1.75168e-05 1.75169e-05 1.75168e-05
          1.75169e-05 1.75171e-05 1.7517e-05 1.7517e-05 1.7517e-05 1.75169e-05 1.7517e-05 1.7517e-05 1.7517e-05 1.75171e-05 1.75169e-05 1.75168e-05
          1.75169e-05 1.75168e-05 1.75168e-05 1.75168e-05 1.75168e-05 1.75169e-05 1.75168e-05 1.75169e-05 1.75173e-05 1.75172e-05 1.75171e-05 1.75171e-05
          1.75171e-05 1.75171e-05 1.75171e-05 1.75172e-05 1.75173e-05 1.75169e-05 1.75168e-05 1.75169e-05 1.75168e-05 1.75168e-05 1.75168e-05 1.75168e-05
          1.75169e-05 1.75168e-05 1.75169e-05 1.75177e-05 1.75175e-05 1.75174e-05 1.75173e-05 1.75173e-05 1.75173e-05 1.75174e-05 1.75175e-05 1.75177e-05
          1.75169e-05 1.75168e-05 1.75169e-05 1.75168e-05 1.75168e-05 1.75168e-05 1.75168e-05 1.75169e-05 1.75168e-05 1.75169e-05 1.75183e-05 1.7518e-05
          1.75177e-05 1.75176e-05 1.75175e-05 1.75176e-05 1.75177e-05 1.7518e-05 1.75183e-05 1.75169e-05 1.75168e-05 1.75169e-05 1.75168e-05 1.75168e-05
          1.75168e-05 1.75168e-05 1.75169e-05 1.75168e-05 1.75169e-05 1.7519e-05 1.75186e-05 1.75182e-05 1.7518e-05 1.75179e-05 1.7518e-05 1.75182e-05
          1.75186e-05 1.7519e-05 1.75169e-05 1.75168e-05 1.75169e-05 1.75168e-05 1.75168e-05 1.75168e-05 1.75168e-05 1.75169e-05 1.75168e-05 1.75169e-05
          1.75199e-05 1.75194e-05 1.75188e-05 1.75186e-05 1.75185e-05 1.75186e-05 1.75188e-05 1.75194e-05 1.75199e-05 1.75169e-05 1.75168e-05 1.75169e-05
          1.75168e-05 1.75168e-05 1.75168e-05 1.75168e-05 1.75169e-05 1.75168e-05 1.7517e-05 1.75211e-05 1.75203e-05 1.75196e-05 1.75193e-05 1.75191e-05
          1.75193e-05 1.75196e-05 1.75203e-05 1.7521e-05 1.75169e-05 1.75168e-05 1.75169e-05 1.75168e-05 1.75168e-05 1.75168e-05 1.75168e-05 1.75169e-05
          1.75168e-05 1.7517e-05 1.75223e-05 1.75213e-05 1.75205e-05 1.75201e-05 1.75199e-05 1.75201e-05 1.75205e-05 1.75213e-05 1.75223e-05 1.7517e-05
          1.75168e-05 1.75169e-05 1.75168e-05 1.75168e-05 1.75168e-05 1.75168e-05 1.75169e-05 1.75168e-05 1.7517e-05 1.75238e-05 1.75225e-05 1.75215e-05
          1.7521e-05 1.75208e-05 1.7521e-05 1.75215e-05 1.75225e-05 1.75237e-05 1.7517e-05 1.75168e-05 1.75169e-05 1.75168e-05 1.75168e-05 1.75168e-05
          1.75168e-05 1.75169e-05 1.75168e-05 1.75171e-05 1.75253e-05 1.75238e-05 1.75226e-05 1.75221e-05 1.75218e-05 1.75221e-05 1.75226e-05 1.75238e-05
          1.75252e-05 1.7517e-05 1.75168e-05 1.75169e-05 1.75168e-05 1.75168e-05 1.75168e-05 1.75169e-05 1.75169e-05 1.75168e-05 1.75171e-05 1.7526e-05
          1.75245e-05 1.75232e-05 1.75226e-05 1.75223e-05 1.75226e-05 1.75232e-05 1.75245e-05 1.7526e-05 1.75171e-05 1.75168e-05 1.75169e-05 1.75169e-05
          1.75168e-05
        </DataArray>
        <DataArray type="Float32" Name="h" NumberOfComponents="1" format="ascii">
          10292.9 10292.9 10292.9 10292.9 10292.9 10292.9 10292.9 10292.9 10292.9 10292.9 10292.9 10292.9
          10292.9 10292.9 10292.9 10292.9 10292.9 10292.9 10292.9 10292.9 10292.9 10292.9 10292.9 10292.9
          10292.9 10292.9 10292.9 10292.9 10292.9 10292.9 10292.9 10292.9 10292.9 10292.9 10292.9 10292.9
          10292.9 10292.9 10292.9 10293 10293 10292.9 10293 10292.9 10293 10292.9 10293 10292.9
          10293 10292.9 10293 10292.9 10293 10292.9 10293 10293 10292.9 10292.9 10293 10293
          10292.9 10293 10292.9 10293 10292.9 10293 10292.9 10293 10292.9 10293 10292.9 10293
          10292.9 10293 10293 10292.9 10292.9 10293 10293 10292.9 10293 10292.9 10293 10292.9
          10293 10292.9 10293 10292.9 10293 10292.9 10293 10292.9 10293 10293 10292.9 10292.9
          10293 10293.1 10292.9 10293 10293 10293.1 10292.9 10293 10292.9 10293 10292.9 10293.1
          10293 10293 10292.9 10293.1 10293 10292.9 10292.9 10293 10293.1 10292.9 10293.1 10293.5
          10293.5 10293.2 10293.3 10293.1 10293.3 10293.2 10293.5 10293.5 10293.1 10292.9 10293.1 10293
          10292.9 10292.9 10293 10293.2 10292.8 10293.2 10295 10294.6 10293.9 10294 10293.7 10294
          10293.9 10294.6 10295 10293.1 10292.8 10293.2 10293 10292.9 10292.9 10292.9 10293.3 10292.8
          10293.3 10298 10296.9 10295.6 10295.4 10295 10295.4 10295.6 10296.9 10298 10293.2 10292.8
          10293.3 10292.9 10292.9 10292.9 10292.9 10293.4 10292.7 10293.5 10303.2 10300.9 10298.5 10298.1
          10297.4 10298.1 10298.5 10300.9 10303.1 10293.3 10292.7 10293.4 10292.9 10292.9 10292.9 10292.9
          10293.5 10292.6 10293.7 10311.2 10307.2 10303.3 10302.3 10301.3 10302.3 10303.3 10307.2 10311
          10293.5 10292.6 10293.5 10292.8 10292.9 10292.9 10292.8 10293.6 10292.6 10294 10322.3 10316.2
          10310.3 10308.6 10307.2 10308.6 10310.4 10316.2 10322.1 10293.7 10292.6 10293.6 10292.8 10292.9
          10292.9 10292.8 10293.7 10292.5 10294.4 10337 10328.3 10319.9 10317.1 10315.2 10317.1 10320
          10328.3 10336.7 10294 10292.5 10293.7 10292.8 10292.9 10292.9 10292.8 10293.8 10292.4 10294.9
          10355.5 10343.6 10332.4 10328.3 10325.8 10328.3 10332.4 10343.6 10355.1 10294.3 10292.4 10293.8
          10292.8 10292.9 10292.9 10292.8 10293.8 10292.3 10295.5 10377.8 10362.1 10347.7 10342.1 10339
          10342.2 10347.8 10362.2 10377.4 10294.8 10292.3 10293.8 10292.8 10292.9 10292.9 10292.8 10293.8
          10292.3 10296.2 10403.7 10383.7 10365.8 10358.6 10354.8 10358.6 10365.9 10383.8 10403.1 10295.4
          10292.3 10293.8 10292.8 10292.9 10292.9 10292.9 10293.8 10292.3 10297.1 10432.3 10407.7 10386.3
          10377.4 10372.9 10377.4 10386.4 10407.8 10431.6 10296.2 10292.2 10293.8 10292.9 10292.9 10292.9
          10292.9 10293.7 10292.3 10298.1 10462.3 10433.4 10408.8 10398.1 10393 10398.1 10408.8 10433.5
          10461.6 10297.1 10292.3 10293.7 10292.9 10292.9 10292.9 10293.8 10294.3 10292.8 10299 10478.3
          10447 10420.6 10409 10403.5 10409 10420.7 10447.1 10477.6 10298 10292.7 10294.3 10293.8
          10292.9
        </DataArray>
        <DataArray type="Float32" Name="v" NumberOfComponents="3" format="ascii">
          0 0 0 0 0.104938 0 0 0 0 -7.71709e-05 0.104588 0
          0 0.197531 0 0.000884726 0.197182 0 0 0.277778 0 0.000876071 0.277584 0
          0 0.345679 0 0.00150284 0.345543 0 0 0.401235 0 0.00122684 0.401399 0
          0 0.444444 0 0.00131273 0.444619 0 0 0.475309 0 0.000810145 0.475668 0
          0 0.493827 0 0.000495807 0.494116 0 0 0.5 0 -3.04712e-06 0.500406 0
          0 0.493827 0 -0.000501776 0.494116 0 0 0.475309 0 -0.000815863 0.475667 0
          0 0.444444 0 -0.0013178 0.444618 0 0 0.401235 0 -0.001231 0.401399 0
          0 0.345679 0 -0.00150554 0.345542 0 0 0.277778 0 -0.000877604 0.277583 0
          0 0.197531 0 -0.000885589 0.197182 0 0 0.104938 0 7.70185e-05 0.104588 0
          0 0 0 0 0 0 0 0 0 -9.93635e-05 0.104028 0
          0.00106851 0.196626 0 0.0010709 0.277244 0 0.0018755 0.345301 0 0.00153689 0.401498 0
          0.00151487 0.444789 0 0.000934193 0.476125 0 0.0005459 0.494508 0 -3.1984e-06 0.500963 0
          -0.000552227 0.494508 0 -0.000940364 0.476124 0 -0.00152046 0.444788 0 -0.00154149 0.401496 0
          -0.00187801 0.345299 0 -0.00107204 0.277243 0 -0.00106909 0.196625 0 9.94508e-05 0.104027 0
          0 0 0 0 0 0 -0.000139062 0.103356 0 0.00134793 0.195939 0
          0.00137578 0.276801 0 0.00243628 0.344964 0 0.00201824 0.401898 0 0.00186051 0.445182 0
          0.001141 0.476744 0 0.000629388 0.49501 0 -3.32275e-06 0.501592 0 -0.000636134 0.49501 0
          -0.00114773 0.476743 0 -0.00186728 0.44518 0 -0.00202414 0.401894 0 -0.00243796 0.344959 0
          -0.00137569 0.276799 0 -0.00134805 0.195938 0 0.000139599 0.103355 0 0 0 0
          0 0 0 -0.000232482 0.10247 0 0.00180427 0.195024 0 0.00182078 0.276122 0
          0.00372499 0.344411 0 0.00310198 0.402392 0 0.00221131 0.44569 0 0.00138602 0.477449 0
          0.000677222 0.495608 0 -3.45842e-06 0.502282 0 -0.000684518 0.495607 0 -0.00139349 0.477449 0
          -0.00222001 0.445689 0 -0.00311012 0.402384 0 -0.00372518 0.344401 0 -0.00181862 0.27612 0
          -0.00180378 0.195023 0 0.000233687 0.10247 0 0 0 0 0 0 0
          -0.000340978 0.10129 0 0.00231052 0.193864 0 0.0023135 0.274846 0 0.00529691 0.343198 0
          0.00450312 0.403958 0 0.00267173 0.446913 0 0.0017206 0.478293 0 0.000751047 0.496399 0
          -3.58018e-06 0.502963 0 -0.000758738 0.496399 0 -0.00172864 0.478293 0 -0.00268154 0.446913 0
          -0.00451241 0.403945 0 -0.00529624 0.343181 0 -0.00231013 0.274845 0 -0.00230955 0.193863 0
          0.000342631 0.101289 0 0 0 0 0 0 0 -0.000390168 0.0998435 0
          0.00268606 0.192444 0 0.00273003 0.273149 0 0.00620646 0.3415 0 0.00537055 0.405801 0
          0.00322506 0.448443 0 0.00207588 0.479271 0 0.000896495 0.497371 0 -3.6874e-06 0.503741 0
          -0.000904426 0.497371 0 -0.00208428 0.479272 0 -0.0032352 0.448444 0 -0.00537995 0.405781 0
          -0.00620557 0.341476 0 -0.00272631 0.273149 0 -0.00268478 0.192444 0 0.000392034 0.0998437 0
          0 0 0 0 0 0 -0.000409485 0.0982362 0 0.00293493 0.190833 0
          0.00301734 0.271299 0 0.00671651 0.339654 0 0.00583837 0.407945 0 0.00357731 0.45024 0
          0.00229423 0.480475 0 0.000993768 0.49851 0 -3.66959e-06 0.504655 0 -0.00100166 0.498511 0
          -0.00230265 0.480478 0 -0.00358738 0.450243 0 -0.00584753 0.407919 0 -0.00671548 0.339621 0
          -0.00301352 0.2713 0 -0.0029335 0.190834 0 0.000411407 0.0982371 0 0 0 0
          0 0 0 -0.000402125 0.0965123 0 0.00305189 0.189096 0 0.00316745 0.269332 0
          0.00693254 0.337697 0 0.00606252 0.410003 0 0.0037982 0.452038 0 0.0024344 0.481719 0
          0.00106789 0.499706 0 -3.55106e-06 0.505626 0 -0.00107551 0.499708 0 -0.00244255 0.481723 0
          -0.00380786 0.452043 0 -0.00607114 0.40997 0 -0.00693149 0.337657 0 -0.00316378 0.269333 0
          -0.00305046 0.189098 0 0.000403963 0.096514 0 0 0 0 0 0 0
          -0.000382329 0.0947724 0 0.00305097 0.187329 0 0.0031886 0.267383 0 0.00691425 0.335762 0
          0.00607151 0.412158 0 0.00383842 0.453929 0 0.00246155 0.483079 0 0.00108583 0.500976 0
          -3.28649e-06 0.506682 0 -0.00109291 0.500978 0 -0.00246911 0.483084 0 -0.00384742 0.453935 0
          -0.00607941 0.412119 0 -0.00691317 0.335715 0 -0.00318517 0.267385 0 -0.00304962 0.187332 0
          0.000384002 0.0947749 0 0 0 0 0 0 0 -0.000356087 0.093049 0
          0.0029472 0.185584 0 0.00309669 0.26543 0 0.00672582 0.333823 0 0.00593153 0.414143 0