<?xml version="1.0"?>
<VTKFile type="UnstructuredGrid" version="0.1" byte_order="LittleEndian">
  <UnstructuredGrid>
    <Piece NumberOfCells="324" NumberOfPoints="361">
      <PointData Scalars="temperature" Vectors="v">
        <DataArray type="Float32" Name="temperature" NumberOfComponents="1" format="ascii">
          283.15 283.15 283.15 283.15 283.15 283.15 283.15 283.15 283.15 283.15 283.15 283.15
          283.15 283.15 283.15 283.15 283.15 283.15 283.15 283.15 283.15 283.15 283.15 283.15
          283.15 283.15 283.15 283.15 283.15 283.15 283.15 283.15 283.15 283.15 283.15 283.15
          283.15 283.15 283.15 283.15 283.15 283.15 283.15 283.15 283.15 283.15 283.15 283.15
          283.15 283.15 283.15 283.15 283.15 283.15 283.15 283.15 283.15 283.15 283.15 283.15
          283.15 283.151 283.15 283.151 283.15 283.151 283.15 283.151 283.15 283.151 283.15 283.151
          283.15 283.15 283.15 283.15 283.15 283.15 283.15 283.15 283.154 283.156 283.159 283.16
          283.16 283.16 283.16 283.16 283.159 283.156 283.154 283.15 283.15 283.15 283.15 283.15
          283.15 283.15 283.151 283.158 283.444 283.599 283.65 283.662 283.663 283.662 283.65 283.599
          283.444 283.158 283.151 283.15 283.15 283.15 283.15 283.15 283.15 283.152 283.164 283.616
          283.839 283.919 283.938 283.944 283.938 283.919 283.839 283.616 283.164 283.152 283.15 283.15
          283.15 283.15 283.15 283.151 283.154 283.174 283.74 283.975 284.046 284.061 284.066 284.061
          284.046 283.975 283.74 283.174 283.154 283.151 283.15 283.15 283.15 283.15 283.151 283.159
          283.196 283.867 284.059 284.105 284.113 284.117 284.113 284.105 284.059 283.867 283.196 283.159
          283.151 283.15 283.15 283.15 283.15 283.153 283.17 283.248 284.006 284.109 284.131 284.135
          284.137 284.135 284.131 284.109 284.006 283.248 283.17 283.153 283.15 283.15 283.15 283.151
          283.156 283.192 283.36 284.087 284.133 284.143 284.144 284.145 284.144 284.143 284.133 284.087
          283.36 283.192 283.156 283.151 283.15 283.15 283.151 283.163 283.234 283.497 284.12 284.143
          284.147 284.148 284.148 284.148 284.147 284.143 284.12 283.497 283.234 283.163 283.151 283.15
          283.15 283.152 283.171 283.275 283.585 284.133 284.147 284.149 284.149 284.149 284.149 284.149
          284.147 284.133 283.585 283.275 283.171 283.152 283.15 283.15 283.152 283.179 283.309 283.657
          284.132 284.142 284.142 284.142 284.142 284.142 284.142 284.142 284.132 283.657 283.309 283.179
          283.152 283.15 283.15 283.151 283.161 283.207 283.339 283.603 283.662 283.656 283.651 283.648
          283.651 283.656 283.662 283.603 283.339 283.207 283.161 283.151 283.15 283.15 283.15 283.151
          283.158 283.182 283.253 283.298 283.314 283.311 283.315 283.311 283.314 283.298 283.253 283.182
          283.158 283.151 283.15 283.15 283.15 283.15 283.15 283.151 283.153 283.163 283.176 283.185
          283.185 283.188 283.185 283.185 283.176 283.163 283.153 283.151 283.15 283.15 283.15 283.15
          283.15 283.15 283.15 283.15 283.151 283.153 283.155 283.156 283.157 283.156 283.155 283.153
          283.151 283.15 283.15 283.15 283.15 283.15 283.15 283.15 283.15 283.15 283.15 283.15
          283.15 283.15 283.15 283.15 283.15 283.15 283.15 283.15 283.15 283.15 283.15 283.15
          283.15
        </DataArray>
        <DataArray type="Float32" Name="pg" NumberOfComponents="1" format="ascii">
          100000 100000 99999.7 99999.7 100000 99999.7 100000 99999.7 100000 99999.7 100000 99999.7
          100000 99999.7 100000 99999.7 100000 99999.7 100000 99999.7 100000 99999.7 100000 99999.7
          100000 99999.7 100000 99999.7 100000 99999.7 100000 99999.7 100000 99999.7 100000 99999.7
          100000 99999.7 99999.1 99999.1 99999 99999 99999 99999 99999 99999 99999 99999
          99999 99999 99999 99999 99999 99999 99999 99999.1 99999.1 99998.4 99998.4 99998.4
          99998.4 99998.4 99998.4 99998.4 99998.4 99998.4 99998.4 99998.4 99998.4 99998.4 99998.4 99998.4
          99998.4 99998.4 99998.4 99998.4 99997.7 99997.7 99997.7 99997.7 99997.7 99997.7 99997.7 99997.7
          99997.7 99997.7 99997.7 99997.7 99997.7 99997.7 99997.7 99997.7 99997.7 99997.7 99997.7 99997
          99997 99997 99997 99997 99997 99997 99997 99997 99997 99997 99997 99997
          99997 99997 99997 99997 99997 99997 99996.4 99996.4 99996.4 99996.4 99996.4 99996.4
          99996.4 99996.4 99996.4 99996.4 99996.4 99996.4 99996.4 99996.4 99996.4 99996.4 99996.4 99996.4
          99996.4 99995.7 99995.7 99995.7 99995.7 99995.7 99995.7 99995.7 99995.7 99995.7 99995.7 99995.7
          99995.7 99995.7 99995.7 99995.7 99995.7 99995.7 99995.7 99995.7 99995 99995 99995 99995
          99995 99995 99995 99995 99995 99995 99995 99995 99995 99995 99995 99995
          99995 99995 99995 99994.4 99994.4 99994.4 99994.4 99994.4 99994.4 99994.4 99994.4 99994.4
          99994.4 99994.4 99994.4 99994.4 99994.4 99994.4 99994.4 99994.4 99994.4 99994.4 99993.7 99993.7
          99993.7 99993.7 99993.7 99993.7 99993.7 99993.7 99993.7 99993.7 99993.7 99993.7 99993.7 99993.7
          99993.7 99993.7 99993.7 99993.7 99993.7 99993 99993 99993 99993 99993 99993 99993
          99993 99993 99993 99993 99993 99993 99993 99993 99993 99993 99993 99993
          99992.4 99992.4 99992.4 99992.4 99992.4 99992.4 99992.4 99992.4 99992.4 99992.4 99992.4 99992.4
          99992.4 99992.4 99992.4 99992.4 99992.4 99992.4 99992.4 99991.7 99991.7 99991.7 99991.7 99991.7
          99991.7 99991.7 99991.7 99991.7 99991.7 99991.7 99991.7 99991.7 99991.7 99991.7 99991.7 99991.7
          99991.7 99991.7 99991 99991 99991 99991 99991 99991 99991 99991 99991 99991
          99991 99991 99991 99991 99991 99991 99991 99991 99991 99990.3 99990.3 99990.3
          99990.3 99990.3 99990.3 99990.3 99990.4 99990.4 99990.4 99990.4 99990.4 99990.3 99990.3 99990.3
          99990.3 99990.3 99990.3 99990.3 99989.7 99989.7 99989.7 99989.7 99989.7 99989.7 99989.7 99989.7
          99989.7 99989.7 99989.7 99989.7 99989.7 99989.7 99989.7 99989.7 99989.7 99989.7 99989.7 99989
          99989 99989 99989 99989 99989 99989 99989 99989 99989 99989 99989 99989
          99989 99989 99989 99989 99989 99989 99988.3 99988.3 99988.3 99988.3 99988.3 99988.3
          99988.3 99988.3 99988.3 99988.3 99988.3 99988.3 99988.3 99988.3 99988.3 99988.3 99988.3 99988.3
          99988.3
        </DataArray>
        <DataArray type="Float32" Name="delP" NumberOfComponents="1" format="ascii">
          0.391368 0.391368 -0.279015 -0.279015 0.391313 -0.279071 0.391126 -0.279256 0.391002 -0.279377 0.390705 -0.279667
          0.390605 -0.279763 0.390319 -0.280046 0.390331 -0.280034 0.390164 -0.280199 0.390331 -0.280034 0.390319 -0.280046
          0.390605 -0.279763 0.390705 -0.279667 0.391002 -0.279377 0.391126 -0.279256 0.391313 -0.279071 0.391368 -0.279015
          0.391368 -0.279015 -0.949218 -0.949219 -0.94928 -0.949529 -0.94968 -0.950121 -0.950275 -0.950654 -0.950643 -0.950849
          -0.950643 -0.950654 -0.950275 -0.950121 -0.94968 -0.949529 -0.94928 -0.949219 -0.949218 -1.6195 -1.6195 -1.61956
          -1.61983 -1.61999 -1.62045 -1.6206 -1.62102 -1.621 -1.62123 -1.621 -1.62102 -1.6206 -1.62045 -1.61999
          -1.61983 -1.61956 -1.6195 -1.6195 -2.28944 -2.28945 -2.2895 -2.28991 -2.2901 -2.29102 -2.29134 -2.29196
          -2.29195 -2.29225 -2.29195 -2.29196 -2.29134 -2.29102 -2.2901 -2.28991 -2.2895 -2.28945 -2.28944 -2.95957
          -2.95957 -2.9596 -2.96004 -2.9602 -2.96133 -2.96168 -2.96237 -2.96233 -2.96265 -2.96233 -2.96237 -2.96168
          -2.96133 -2.9602 -2.96004 -2.9596 -2.95957 -2.95957 -3.62916 -3.62916 -3.62922 -3.62965 -3.62983 -3.63073
          -3.6309 -3.63149 -3.6314 -3.63172 -3.6314 -3.63149 -3.6309 -3.63073 -3.62983 -3.62965 -3.62922 -3.62916
          -3.62916 -4.29909 -4.29909 -4.29912 -4.29946 -4.29958 -4.30031 -4.30033 -4.30072 -4.3006 -4.30083 -4.3006
          -4.30072 -4.30033 -4.30031 -4.29958 -4.29946 -4.29912 -4.29909 -4.29909 -4.96833 -4.96833 -4.96841 -4.96872
          -4.96888 -4.96944 -4.96932 -4.96959 -4.96946 -4.96964 -4.96946 -4.96959 -4.96932 -4.96944 -4.96888 -4.96872
          -4.96841 -4.96833 -4.96833 -5.63814 -5.63814 -5.6382 -5.63831 -5.63846 -5.6386 -5.63844 -5.63844 -5.63836
          -5.63838 -5.63836 -5.63844 -5.63844 -5.6386 -5.63846 -5.63831 -5.6382 -5.63814 -5.63814 -6.30709 -6.30709
          -6.30723 -6.30728 -6.30762 -6.30742 -6.30743 -6.3073 -6.30732 -6.30727 -6.30732 -6.3073 -6.30743 -6.30742
          -6.30762 -6.30728 -6.30723 -6.30709 -6.30709 -6.97694 -6.97694 -6.97699 -6.97679 -6.97689 -6.9763 -6.97627
          -6.97586 -6.97593 -6.9757 -6.97593 -6.97586 -6.97627 -6.9763 -6.97689 -6.97679 -6.97699 -6.97694 -6.97694
          -7.64571 -7.64571 -7.64577 -7.64559 -7.6457 -7.64517 -7.64518 -7.64483 -7.64494 -7.64474 -7.64494 -7.64483
          -7.64518 -7.64517 -7.6457 -7.64559 -7.64577 -7.64571 -7.64571 -8.31583 -8.31583 -8.31571 -8.31517 -8.31479
          -8.31378 -8.31369 -8.31303 -8.31315 -8.31278 -8.31315 -8.31303 -8.31369 -8.31378 -8.31479 -8.31517 -8.31571
          -8.31583 -8.31583 -8.98457 -8.98457 -8.98445 -8.98396 -8.98349 -8.98257 -8.98253 -8.98211 -8.98222 -8.982
          -8.98222 -8.98211 -8.98253 -8.98257 -8.98349 -8.98396 -8.98445 -8.98457 -8.98457 -9.65529 -9.65529 -9.65512
          -9.65455 -9.65411 -9.65309 -9.65279 -9.65215 -9.6522 -9.65186 -9.6522 -9.65215 -9.65279 -9.65309 -9.65411
          -9.65455 -9.65512 -9.65529 -9.65529 -10.3241 -10.3241 -10.324 -10.3238 -10.3236 -10.3233 -10.3232 -10.3229
          -10.323 -10.3228 -10.323 -10.3229 -10.3232 -10.3233 -10.3236 -10.3238 -10.324 -10.3241 -10.3241 -10.9954
          -10.9954 -10.9953 -10.9949 -10.9945 -10.9938 -10.9936 -10.993 -10.993 -10.9927 -10.993 -10.993 -10.9936
          -10.9938 -10.9945 -10.9949 -10.9953 -10.9954 -10.9954 -11.6641 -11.6641 -11.6641 -11.6641 -11.6641 -11.6641
          -11.6641 -11.6641 -11.6641 -11.6641 -11.6641 -11.6641 -11.6641 -11.6641 -11.6641 -11.6641 -11.6641 -11.6641
          -11.6641
        </DataArray>
        <DataArray type="Float32" Name="xH2Og" NumberOfComponents="1" format="ascii">
          0.000160744 0.000160744 0.000160744 0.000160743 0.000160744 0.000160744 0.000160744 0.000160743 0.000160744 0.000160744 0.000160744 0.000160743
          0.000160744 0.000160745 0.000160744 0.000160743 0.000160744 0.000160745 0.000160744 0.000160743 0.000160744 0.000160745 0.000160744 0.000160743
          0.000160744 0.000160745 0.000160744 0.000160743 0.000160744 0.000160744 0.000160744 0.000160743 0.000160744 0.000160744 0.000160744 0.000160743
          0.000160744 0.000160744 0.000160744 0.000160744 0.000160744 0.000160743 0.000160744 0.000160742 0.000160743 0.000160742 0.000160744 0.000160741
          0.000160744 0.000160742 0.000160743 0.000160742 0.000160744 0.000160743 0.000160744 0.000160744 0.000160744 0.000160744 0.000160743 0.000160744
          0.000160742 0.000160736 0.00016074 0.000160743 0.000160742 0.000160744 0.000160741 0.000160744 0.000160742 0.000160743 0.00016074 0.000160736
          0.000160742 0.000160744 0.000160743 0.000160744 0.000160744 0.000160744 0.000160745 0.00016074 0.000160688 0.000160644 0.000160597 0.000160575
          0.000160573 0.000160572 0.000160573 0.000160575 0.000160597 0.000160645 0.000160688 0.00016074 0.000160745 0.000160744 0.000160744 0.000160744
          0.000160743 0.000160743 0.000160734 0.000160606 0.000156027 0.00015354 0.000152716 0.00015253 0.000152506 0.00015253 0.000152716 0.00015354
          0.000156027 0.000160606 0.000160734 0.000160743 0.000160743 0.000160744 0.000160744 0.000160744 0.000160742 0.000160721 0.000160505 0.000153262
          0.000149685 0.000148402 0.000148101 0.00014799 0.000148101 0.000148402 0.000149685 0.000153263 0.000160505 0.000160721 0.000160742 0.000160744
          0.000160744 0.000160744 0.000160742 0.000160736 0.000160685 0.000160341 0.000151261 0.000147503 0.000146356 0.000146119 0.000146022 0.000146119
          0.000146356 0.000147503 0.000151261 0.000160341 0.000160685 0.000160736 0.000160742 0.000160744 0.000160744 0.000160743 0.000160726 0.000160604
          0.000159981 0.000149239 0.000146143 0.000145403 0.000145272 0.000145211 0.000145272 0.000145403 0.000146143 0.000149239 0.000159981 0.000160604
          0.000160726 0.000160743 0.000160744 0.000160744 0.00016074 0.000160701 0.000160426 0.00015915 0.000147002 0.000145333 0.000144972 0.000144915
          0.000144883 0.000144915 0.000144972 0.000145333 0.000147002 0.00015915 0.000160426 0.000160701 0.00016074 0.000160744 0.000160744 0.000160738
          0.00016065 0.000160063 0.00015736 0.000145704 0.000144955 0.000144791 0.000144767 0.000144752 0.000144767 0.000144791 0.000144955 0.000145704
          0.00015736 0.000160063 0.00016065 0.000160738 0.000160744 0.000160744 0.000160728 0.000160537 0.000159388 0.000155153 0.000145175 0.000144786
          0.000144718 0.000144707 0.000144702 0.000144707 0.000144718 0.000144786 0.000145175 0.000155153 0.000159388 0.000160537 0.000160728 0.000160744
          0.000160744 0.000160718 0.0001604 0.000158728 0.000153759 0.000144965 0.000144715 0.000144689 0.000144683 0.000144682 0.000144683 0.000144689
          0.000144715 0.000144965 0.000153759 0.000158728 0.0001604 0.000160718 0.000160744 0.000160744 0.000160702 0.000160279 0.000158184 0.000152607
          0.000144983 0.000144809 0.000144807 0.000144805 0.000144811 0.000144805 0.000144807 0.000144809 0.000144983 0.000152607 0.000158184 0.000160279
          0.000160702 0.000160744 0.000160744 0.000160731 0.000160575 0.000159824 0.000157704 0.000153464 0.000152503 0.000152602 0.000152682 0.000152729
          0.000152682 0.000152602 0.000152503 0.000153464 0.000157704 0.000159824 0.000160575 0.000160731 0.000160744 0.000160744 0.000160738 0.000160717
          0.000160609 0.00016022 0.000159079 0.000158344 0.000158105 0.00015814 0.000158082 0.00015814 0.000158105 0.000158343 0.000159079 0.00016022
          0.000160609 0.000160717 0.000160738 0.000160744 0.000160744 0.000160748 0.000160746 0.000160739 0.000160699 0.000160533 0.00016032 0.000160175
          0.000160171 0.000160127 0.000160171 0.000160175 0.00016032 0.000160533 0.000160699 0.000160739 0.000160746 0.000160748 0.000160744 0.000160744
          0.000160736 0.000160736 0.000160737 0.000160734 0.000160723 0.000160691 0.000160658 0.000160651 0.00016064 0.000160651 0.000160658 0.000160691
          0.000160723 0.000160734 0.000160737 0.000160736 0.000160736 0.000160744 0.000160744 0.000160744 0.000160744 0.000160744 0.000160744 0.000160744
          0.000160744 0.000160744 0.000160744 0.000160744 0.000160744 0.000160744 0.000160744 0.000160744 0.000160744 0.000160744 0.000160744 0.000160744
          0.000160744
        </DataArray>
        <DataArray type="Float32" Name="xAirg" NumberOfComponents="1" format="ascii">
          0.999839 0.999839 0.999839 0.999839 0.999839 0.999839 0.999839 0.999839 0.999839 0.999839 0.999839 0.999839
          0.999839 0.999839 0.999839 0.999839 0.999839 0.999839 0.999839 0.999839 0.999839 0.999839 0.999839 0.999839
          0.999839 0.999839 0.999839 0.999839 0.999839 0.999839 0.999839 0.999839 0.999839 0.999839 0.999839 0.999839
          0.999839 0.999839 0.999839 0.999839 0.999839 0.999839 0.999839 0.999839 0.999839 0.999839 0.999839 0.999839
          0.999839 0.999839 0.999839 0.999839 0.999839 0.999839 0.999839 0.999839 0.999839 0.999839 0.999839 0.999839
          0.999839 0.999839 0.999839 0.999839 0.999839 0.999839 0.999839 0.999839 0.999839 0.999839 0.999839 0.999839
          0.999839 0.999839 0.999839 0.999839 0.999839 0.999839 0.999839 0.999839 0.999839 0.999839 0.999839 0.999839
          0.999839 0.999839 0.999839 0.999839 0.999839 0.999839 0.999839 0.999839 0.999839 0.999839 0.999839 0.999839
          0.999839 0.999839 0.999839 0.999839 0.999844 0.999846 0.999847 0.999847 0.999847 0.999847 0.999847 0.999846
          0.999844 0.999839 0.999839 0.999839 0.999839 0.999839 0.999839 0.999839 0.999839 0.999839 0.999839 0.999847
          0.99985 0.999852 0.999852 0.999852 0.999852 0.999852 0.99985 0.999847 0.999839 0.999839 0.999839 0.999839
          0.999839 0.999839 0.999839 0.999839 0.999839 0.99984 0.999849 0.999852 0.999854 0.999854 0.999854 0.999854
          0.999854 0.999852 0.999849 0.99984 0.999839 0.999839 0.999839 0.999839 0.999839 0.999839 0.999839 0.999839
          0.99984 0.999851 0.999854 0.999855 0.999855 0.999855 0.999855 0.999855 0.999854 0.999851 0.99984 0.999839
          0.999839 0.999839 0.999839 0.999839 0.999839 0.999839 0.99984 0.999841 0.999853 0.999855 0.999855 0.999855
          0.999855 0.999855 0.999855 0.999855 0.999853 0.999841 0.99984 0.999839 0.999839 0.999839 0.999839 0.999839
          0.999839 0.99984 0.999843 0.999854 0.999855 0.999855 0.999855 0.999855 0.999855 0.999855 0.999855 0.999854
          0.999843 0.99984 0.999839 0.999839 0.999839 0.999839 0.999839 0.999839 0.999841 0.999845 0.999855 0.999855
          0.999855 0.999855 0.999855 0.999855 0.999855 0.999855 0.999855 0.999845 0.999841 0.999839 0.999839 0.999839
          0.999839 0.999839 0.99984 0.999841 0.999846 0.999855 0.999855 0.999855 0.999855 0.999855 0.999855 0.999855
          0.999855 0.999855 0.999846 0.999841 0.99984 0.999839 0.999839 0.999839 0.999839 0.99984 0.999842 0.999847
          0.999855 0.999855 0.999855 0.999855 0.999855 0.999855 0.999855 0.999855 0.999855 0.999847 0.999842 0.99984
          0.999839 0.999839 0.999839 0.999839 0.999839 0.99984 0.999842 0.999847 0.999847 0.999847 0.999847 0.999847
          0.999847 0.999847 0.999847 0.999847 0.999842 0.99984 0.999839 0.999839 0.999839 0.999839 0.999839 0.999839
          0.999839 0.99984 0.999841 0.999842 0.999842 0.999842 0.999842 0.999842 0.999842 0.999842 0.999841 0.99984
          0.999839 0.999839 0.999839 0.999839 0.999839 0.999839 0.999839 0.999839 0.999839 0.999839 0.99984 0.99984
          0.99984 0.99984 0.99984 0.99984 0.99984 0.999839 0.999839 0.999839 0.999839 0.999839 0.999839 0.999839
          0.999839 0.999839 0.999839 0.999839 0.999839 0.999839 0.999839 0.999839 0.999839 0.999839 0.999839 0.999839
          0.999839 0.999839 0.999839 0.999839 0.999839 0.999839 0.999839 0.999839 0.999839 0.999839 0.999839 0.999839
          0.999839 0.999839 0.999839 0.999839 0.999839 0.999839 0.999839 0.999839 0.999839 0.999839 0.999839 0.999839
          0.999839
        </DataArray>
        <DataArray type="Float32" Name="h" NumberOfComponents="1" format="ascii">
          10292.9 10292.9 10292.9 10293.2 10292.9 10293.2 10292.9 10293.2 10292.9 10293.3 10292.9 10293.2
          10292.9 10293.3 10292.9 10293.2 10292.9 10293.3 10292.9 10293.2 10292.9 10293.3 10292.9 10293.2
          10292.9 10293.3 10292.9 10293.2 10292.9 10293.3 10292.9 10293.2 10292.9 10293.2 10292.9 10293.2
          10292.9 10292.9 10292.9 10293.2 10293.3 10293.2 10293.3 10293.2 10293.2 10293.1 10293.2 10293.1
          10293.2 10293.1 10293.2 10293.2 10293.3 10293.2 10293.3 10293.2 10292.9 10292.9 10293.1 10293.2
          10293.2 10293.7 10293.4 10293.4 10293.3 10293.5 10293.3 10293.5 10293.3 10293.4 10293.4 10293.7
          10293.2 10293.2 10293.1 10292.9 10292.9 10293.2 10293.3 10293.3 10296.4 10298.7 10301.5 10302.5
          10302.9 10302.6 10302.9 10302.5 10301.5 10298.7 10296.5 10293.3 10293.3 10293.2 10292.9 10292.9
          10293.1 10293.2 10293.5 10301 10581.2 10733.5 10783.5 10795.2 10796.3 10795.2 10783.5 10733.5
          10581.2 10301 10293.5 10293.2 10293.1 10292.9 10292.9 10293.2 10293.3 10294.4 10306.9 10750.2
          10969.1 11047.1 11065.8 11072.1 11065.8 11047.1 10969.1 10750.2 10306.9 10294.4 10293.3 10293.2
          10292.9 10292.9 10293.1 10293.5 10296.5 10316.5 10872.2 11102 11171.5 11186.3 11191.9 11186.3
          11171.5 11102 10872.2 10316.5 10296.5 10293.5 10293.1 10292.9 10292.9 10293.2 10294.2 10301.5
          10338.4 10996.1 11184.9 11229.6 11237.8 11241.2 11237.8 11229.6 11184.9 10996.1 10338.4 10301.5
          10294.2 10293.2 10292.9 10292.9 10293.2 10295.5 10312.3 10389 11133 11234.1 11255.8 11259.3
          11261.1 11259.3 11255.8 11234.1 11133 10389 10312.3 10295.5 10293.2 10292.9 10292.9 10293.5
          10298.7 10334.5 10498.6 11212.6 11256.9 11266.8 11268.2 11269.1 11268.2 11266.8 11256.9 11212.6
          10498.6 10334.5 10298.7 10293.5 10292.9 10292.9 10293.9 10305.4 10375.5 10633.7 11244.7 11267.1
          11271.3 11271.8 11272.3 11271.8 11271.3 11267.1 11244.7 10633.7 10375.5 10305.4 10293.9 10292.9
          10292.9 10294.8 10313.9 10416 10719.2 11257.3 11271.2 11273 11273.1 11273.4 11273.1 11273
          11271.2 11257.3 10719.2 10416 10313.9 10294.8 10292.9 10292.9 10295.4 10321.1 10449.1 10789.9
          11256.5 11266 11266.5 11266.2 11266.4 11266.2 11266.5 11266 11256.5 10789.9 10449.1 10321
          10295.4 10292.9 10292.9 10294.1 10303.4 10349.1 10478.1 10737.4 10795.4 10789.6 10784.3 10781.9
          10784.3 10789.6 10795.4 10737.4 10478.1 10349.1 10303.4 10294.1 10292.9 10292.9 10292.9 10294.1
          10300.6 10324 10393.8 10438.4 10453.4 10450.8 10454.9 10450.8 10453.4 10438.4 10393.8 10324
          10300.6 10294.1 10292.9 10292.9 10292.9 10293.3 10293.3 10293.8 10296.1 10306.1 10318.7 10327.6
          10327.5 10330.5 10327.5 10327.6 10318.7 10306.1 10296.1 10293.8 10293.3 10293.3 10292.9 10292.9
          10292.5 10292.5 10292.6 10292.8 10293.9 10295.8 10298.2 10298.4 10299.5 10298.4 10298.2 10295.8
          10293.9 10292.8 10292.6 10292.5 10292.5 10292.9 10292.9 10292.9 10292.9 10292.9 10292.9 10292.9
          10292.9 10292.9 10292.9 10292.9 10292.9 10292.9 10292.9 10292.9 10292.9 10292.9 10292.9 10292.9
          10292.9
        </DataArray>
        <DataArray type="Float32" Name="rho" NumberOfComponents="1" format="ascii">
          1.23005 1.23005 1.23004 1.23004 1.23005 1.23004 1.23005 1.23004 1.23005 1.23004 1.23005 1.23004
          1.23005 1.23004 1.23005 1.23004 1.23005 1.23004 1.23005 1.23004 1.23005 1.23004 1.23005 1.23004
          1.23005 1.23004 1.23005 1.23004 1.23005 1.23004 1.23005 1.23004 1.23005 1.23004 1.23005 1.23004
          1.23005 1.23004 1.23003 1.23003 1.23003 1.23003 1.23003 1.23003 1.23003 1.23003 1.23003 1.23003
          1.23003 1.23003 1.23003 1.23003 1.23003 1.23003 1.23003 1.23003 1.23003 1.23002 1.23002 1.23002
          1.23002 1.23002 1.23002 1.23002 1.23002 1.23002 1.23002 1.23002 1.23002 1.23002 1.23002 1.23002
          1.23002 1.23002 1.23002 1.23002 1.23002 1.23002 1.23002 1.23002 1.23 1.22999 1.22998 1.22997
          1.22997 1.22997 1.22997 1.22997 1.22998 1.22999 1.23 1.23002 1.23002 1.23002 1.23002 1.23001
          1.23001 1.23001 1.23001 1.22997 1.22874 1.22806 1.22784 1.22779 1.22779 1.22779 1.22784 1.22806
          1.22874 1.22997 1.23001 1.23001 1.23001 1.23001 1.23 1.23 1.23 1.22999 1.22994 1.22798
          1.22702 1.22668 1.22659 1.22657 1.22659 1.22668 1.22702 1.22798 1.22994 1.22999 1.23 1.23
          1.23 1.22999 1.22999 1.22999 1.22998 1.22989 1.22744 1.22643 1.22612 1.22606 1.22603 1.22606
          1.22612 1.22643 1.22744 1.22989 1.22998 1.22999 1.22999 1.22999 1.22998 1.22998 1.22998 1.22995
          1.22978 1.22688 1.22605 1.22586 1.22582 1.22581 1.22582 1.22586 1.22605 1.22688 1.22978 1.22995
          1.22998 1.22998 1.22998 1.22998 1.22997 1.22996 1.22989 1.22955 1.22627 1.22583 1.22573 1.22572
          1.22571 1.22572 1.22573 1.22583 1.22627 1.22955 1.22989 1.22996 1.22997 1.22998 1.22997 1.22996
          1.22994 1.22978 1.22906 1.22592 1.22572 1.22568 1.22567 1.22567 1.22567 1.22568 1.22572 1.22592
          1.22906 1.22978 1.22994 1.22996 1.22997 1.22996 1.22995 1.2299 1.22959 1.22845 1.22577 1.22567
          1.22565 1.22565 1.22565 1.22565 1.22565 1.22567 1.22577 1.22845 1.22959 1.2299 1.22995 1.22996
          1.22995 1.22994 1.22986 1.22941 1.22807 1.2257 1.22564 1.22563 1.22563 1.22563 1.22563 1.22563
          1.22564 1.2257 1.22807 1.22941 1.22986 1.22994 1.22995 1.22994 1.22993 1.22982 1.22925 1.22775
          1.2257 1.22566 1.22565 1.22566 1.22565 1.22566 1.22565 1.22566 1.2257 1.22775 1.22925 1.22982
          1.22993 1.22994 1.22993 1.22993 1.22989 1.22969 1.22912 1.22797 1.22772 1.22774 1.22777 1.22778
          1.22777 1.22774 1.22772 1.22797 1.22912 1.22969 1.22989 1.22993 1.22993 1.22993 1.22993 1.22992
          1.22989 1.22979 1.22948 1.22928 1.22922 1.22923 1.22921 1.22923 1.22922 1.22928 1.22948 1.22979
          1.22989 1.22992 1.22993 1.22993 1.22992 1.22992 1.22992 1.22991 1.2299 1.22986 1.2298 1.22976
          1.22976 1.22975 1.22976 1.22976 1.2298 1.22986 1.2299 1.22991 1.22992 1.22992 1.22992 1.22991
          1.22991 1.22991 1.22991 1.22991 1.22991 1.2299 1.22989 1.22989 1.22988 1.22989 1.22989 1.2299
          1.22991 1.22991 1.22991 1.22991 1.22991 1.22991 1.2299 1.2299 1.2299 1.2299 1.2299 1.2299
          1.2299 1.2299 1.2299 1.2299 1.2299 1.2299 1.2299 1.2299 1.2299 1.2299 1.2299 1.2299
          1.2299
        </DataArray>
        <DataArray type="Float32" Name="mu" NumberOfComponents="1" format="ascii">
          1.75168e-05 1.75168e-05 1.75168e-05 1.75169e-05 1.75168e-05 1.75169e-05 1.75168e-05 1.75169e-05 1.75168e-05 1.75169e-05 1.75168e-05 1.75169e-05
          1.75168e-05 1.75169e-05 1.75168e-05 1.75169e-05 1.75168e-05 1.75169e-05 1.75168e-05 1.75168e-05 1.75168e-05 1.75169e-05 1.75168e-05 1.75169e-05
          1.75168e-05 1.75169e-05 1.75168e-05 1.75169e-05 1.75168e-05 1.75169e-05 1.75168e-05 1.75169e-05 1.75168e-05 1.75169e-05 1.75168e-05 1.75169e-05
          1.75168e-05 1.75168e-05 1.75168e-05 1.75169e-05 1.75169e-05 1.75169e-05 1.75169e-05 1.75168e-05 1.75169e-05 1.75168e-05 1.75169e-05 1.75168e-05
          1.75169e-05 1.75168e-05 1.75169e-05 1.75168e-05 1.75169e-05 1.75169e-05 1.75169e-05 1.75169e-05 1.75168e-05 1.75168e-05 1.75168e-05 1.75169e-05
          1.75168e-05 1.75169e-05 1.75169e-05 1.75169e-05 1.75169e-05 1.75169e-05 1.75169e-05 1.75169e-05 1.75169e-05 1.75169e-05 1.75169e-05 1.75169e-05
          1.75168e-05 1.75169e-05 1.75168e-05 1.75168e-05 1.75168e-05 1.75168e-05 1.75169e-05 1.75169e-05 1.7517e-05 1.75171e-05 1.75173e-05 1.75173e-05
          1.75173e-05 1.75173e-05 1.75173e-05 1.75173e-05 1.75173e-05 1.75171e-05 1.7517e-05 1.75169e-05 1.75169e-05 1.75168e-05 1.75168e-05 1.75168e-05
          1.75168e-05 1.75169e-05 1.75169e-05 1.75172e-05 1.75312e-05 1.75387e-05 1.75412e-05 1.75418e-05 1.75418e-05 1.75418e-05 1.75412e-05 1.75387e-05
          1.75312e-05 1.75172e-05 1.75169e-05 1.75169e-05 1.75168e-05 1.75168e-05 1.75168e-05 1.75168e-05 1.75169e-05 1.75169e-05 1.75175e-05 1.75395e-05
          1.75504e-05 1.75543e-05 1.75552e-05 1.75555e-05 1.75552e-05 1.75543e-05 1.75504e-05 1.75395e-05 1.75175e-05 1.75169e-05 1.75169e-05 1.75168e-05
          1.75168e-05 1.75168e-05 1.75168e-05 1.75169e-05 1.7517e-05 1.7518e-05 1.75456e-05 1.7557e-05 1.75604e-05 1.75612e-05 1.75615e-05 1.75612e-05
          1.75604e-05 1.7557e-05 1.75456e-05 1.7518e-05 1.7517e-05 1.75169e-05 1.75168e-05 1.75168e-05 1.75168e-05 1.75169e-05 1.75169e-05 1.75173e-05
          1.75191e-05 1.75517e-05 1.75611e-05 1.75633e-05 1.75637e-05 1.75639e-05 1.75637e-05 1.75633e-05 1.75611e-05 1.75517e-05 1.75191e-05 1.75173e-05
          1.75169e-05 1.75169e-05 1.75168e-05 1.75168e-05 1.75169e-05 1.7517e-05 1.75178e-05 1.75216e-05 1.75585e-05 1.75635e-05 1.75646e-05 1.75648e-05
          1.75649e-05 1.75648e-05 1.75646e-05 1.75635e-05 1.75585e-05 1.75216e-05 1.75178e-05 1.7517e-05 1.75169e-05 1.75168e-05 1.75168e-05 1.75169e-05
          1.75171e-05 1.75189e-05 1.75271e-05 1.75625e-05 1.75647e-05 1.75652e-05 1.75652e-05 1.75653e-05 1.75652e-05 1.75652e-05 1.75647e-05 1.75625e-05
          1.75271e-05 1.75189e-05 1.75171e-05 1.75169e-05 1.75168e-05 1.75168e-05 1.75169e-05 1.75175e-05 1.75209e-05 1.75338e-05 1.75641e-05 1.75652e-05
          1.75654e-05 1.75654e-05 1.75654e-05 1.75654e-05 1.75654e-05 1.75652e-05 1.75641e-05 1.75338e-05 1.75209e-05 1.75175e-05 1.75169e-05 1.75168e-05
          1.75168e-05 1.75169e-05 1.75179e-05 1.7523e-05 1.7538e-05 1.75647e-05 1.75654e-05 1.75655e-05 1.75655e-05 1.75655e-05 1.75655e-05 1.75655e-05
          1.75654e-05 1.75647e-05 1.7538e-05 1.7523e-05 1.75179e-05 1.75169e-05 1.75168e-05 1.75168e-05 1.7517e-05 1.75182e-05 1.75246e-05 1.75415e-05
          1.75647e-05 1.75651e-05 1.75652e-05 1.75651e-05 1.75652e-05 1.75651e-05 1.75652e-05 1.75651e-05 1.75647e-05 1.75415e-05 1.75246e-05 1.75182e-05
          1.7517e-05 1.75168e-05 1.75168e-05 1.75169e-05 1.75174e-05 1.75196e-05 1.7526e-05 1.75389e-05 1.75418e-05 1.75415e-05 1.75412e-05 1.75411e-05
          1.75412e-05 1.75415e-05 1.75418e-05 1.75389e-05 1.7526e-05 1.75196e-05 1.75174e-05 1.75169e-05 1.75168e-05 1.75168e-05 1.75168e-05 1.75169e-05
          1.75172e-05 1.75184e-05 1.75218e-05 1.75241e-05 1.75248e-05 1.75247e-05 1.75249e-05 1.75247e-05 1.75248e-05 1.75241e-05 1.75218e-05 1.75184e-05
          1.75172e-05 1.75169e-05 1.75168e-05 1.75168e-05 1.75168e-05 1.75169e-05 1.75169e-05 1.75169e-05 1.7517e-05 1.75175e-05 1.75181e-05 1.75186e-05
          1.75186e-05 1.75187e-05 1.75186e-05 1.75186e-05 1.75181e-05 1.75175e-05 1.7517e-05 1.75169e-05 1.75169e-05 1.75169e-05 1.75168e-05 1.75168e-05
          1.75168e-05 1.75168e-05 1.75168e-05 1.75168e-05 1.75169e-05 1.7517e-05 1.75171e-05 1.75171e-05 1.75172e-05 1.75171e-05 1.75171e-05 1.7517e-05
          1.75169e-05 1.75168e-05 1.75168e-05 1.75168e-05 1.75168e-05 1.75168e-05 1.75168e-05 1.75168e-05 1.75168e-05 1.75168e-05 1.75168e-05 1.75168e-05
          1.75168e-05 1.75168e-05 1.75168e-05 1.75168e-05 1.75168e-05 1.75168e-05 1.75168e-05 1.75168e-05 1.75168e-05 1.75168e-05 1.75168e-05 1.75168e-05
          1.75168e-05
        </DataArray>
        <DataArray type="Float32" Name="v" NumberOfComponents="3" format="ascii">
          0 0 0 0 0 0 0 0 0 0.000770632 -0.00435402 0
          0 0 0 0.00598849 -0.00425619 0 0 0 0 0.00716469 -0.00250502 0
          0 0 0 0.0101906 -0.00134513 0 0 0 0 0.00927971 0.00323632 0