<?xml version="1.0"?>
<VTKFile type="UnstructuredGrid" version="0.1" byte_order="LittleEndian">
  <UnstructuredGrid>
    <Piece NumberOfCells="324" NumberOfPoints="361">
      <PointData Scalars="temperature" Vectors="v">
        <DataArray type="Float32" Name="temperature" NumberOfComponents="1" format="ascii">
          283.15 283.15 283.15 283.15 283.15 283.15 283.15 283.15 283.15 283.15 283.15 283.15
          283.15 283.15 283.15 283.15 283.15 283.15 283.15 283.15 283.15 283.15 283.15 283.15
          283.15 283.15 283.15 283.15 283.15 283.15 283.15 283.15 283.15 283.15 283.15 283.15
          283.15 283.15 283.15 283.15 283.15 283.15 283.15 283.15 283.15 283.15 283.15 283.15
          283.15 283.15 283.15 283.15 283.15 283.15 283.15 283.15 283.15 283.15 283.15 283.151
          283.15 283.151 283.15 283.151 283.149 283.151 283.149 283.151 283.149 283.151 283.15 283.151
          283.15 283.151 283.15 283.15 283.15 283.15 283.151 283.149 283.151 283.149 283.151 283.149
          283.151 283.149 283.151 283.149 283.151 283.149 283.151 283.149 283.151 283.15 283.15 283.15
          283.15 283.151 283.149 283.152 283.162 283.162 283.157 283.159 283.156 283.159 283.157 283.162
          283.162 283.151 283.149 283.151 283.15 283.15 283.15 283.15 283.151 283.149 283.154 283.199
          283.194 283.183 283.183 283.178 283.183 283.183 283.194 283.198 283.152 283.149 283.151 283.15
          283.15 283.15 283.149 283.152 283.148 283.156 283.263 283.252 283.233 283.229 283.222 283.229
          283.233 283.252 283.261 283.153 283.148 283.152 283.149 283.15 283.15 283.149 283.152 283.148
          283.158 283.348 283.333 283.304 283.296 283.287 283.296 283.305 283.333 283.346 283.155 283.148
          283.152 283.149 283.15 283.15 283.149 283.152 283.148 283.16 283.446 283.429 283.392 283.379
          283.368 283.379 283.392 283.429 283.442 283.156 283.148 283.152 283.149 283.15 283.15 283.15
          283.152 283.148 283.162 283.547 283.531 283.488 283.472 283.46 283.472 283.488 283.531 283.543
          283.158 283.148 283.152 283.15 283.15 283.15 283.15 283.151 283.148 283.164 283.645 283.632
          283.586 283.567 283.554 283.567 283.586 283.631 283.642 283.16 283.148 283.151 283.15 283.15
          283.15 283.15 283.151 283.149 283.166 283.739 283.725 283.678 283.658 283.645 283.658 283.678
          283.724 283.735 283.163 283.149 283.151 283.15 283.15 283.15 283.15 283.151 283.149 283.172
          283.825 283.807 283.763 283.743 283.73 283.743 283.763 283.807 283.822 283.17 283.149 283.151
          283.15 283.15 283.15 283.15 283.15 283.151 283.188 283.884 283.869 283.83 283.811 283.8
          283.811 283.83 283.869 283.882 283.186 283.151 283.15 283.15 283.15 283.15 283.15 283.15
          283.152 283.202 283.903 283.898 283.869 283.853 283.844 283.853 283.869 283.898 283.901 283.201
          283.152 283.15 283.15 283.15 283.15 283.151 283.149 283.153 283.208 283.878 283.89 283.874
          283.864 283.858 283.864 283.874 283.89 283.878 283.21 283.153 283.149 283.151 283.15 283.15
          283.15 283.149 283.153 283.205 283.818 283.849 283.847 283.843 283.841 283.843 283.847 283.848
          283.819 283.208 283.154 283.149 283.15 283.15 283.15 283.149 283.148 283.152 283.202 283.788
          283.828 283.832 283.831 283.83 283.831 283.832 283.827 283.789 283.204 283.152 283.148 283.149
          283.15
        </DataArray>
        <DataArray type="Float32" Name="pg" NumberOfComponents="1" format="ascii">
          100000 100000 99999.7 99999.7 100000 99999.7 100000 99999.7 100000 99999.7 100000 99999.7
          100000 99999.7 100000 99999.7 100000 99999.7 100000 99999.7 100000 99999.7 100000 99999.7
          100000 99999.7 100000 99999.7 100000 99999.7 100000 99999.7 100000 99999.7 100000 99999.7
          100000 99999.7 99999.1 99999.1 99999.1 99999.1 99999.1 99999.1 99999.1 99999.1 99999.1 99999.1
          99999.1 99999.1 99999.1 99999.1 99999.1 99999.1 99999.1 99999.1 99999.1 99998.4 99998.4 99998.4
          99998.4 99998.4 99998.4 99998.4 99998.4 99998.4 99998.4 99998.4 99998.4 99998.4 99998.4 99998.4
          99998.4 99998.4 99998.4 99998.4 99997.7 99997.7 99997.7 99997.7 99997.7 99997.7 99997.7 99997.7
          99997.7 99997.7 99997.7 99997.7 99997.7 99997.7 99997.7 99997.7 99997.7 99997.7 99997.7 99997
          99997 99997 99997 99997 99997 99997 99997 99997 99997 99997 99997 99997
          99997 99997 99997 99997 99997 99997 99996.4 99996.4 99996.4 99996.4 99996.4 99996.4
          99996.4 99996.4 99996.4 99996.4 99996.4 99996.4 99996.4 99996.4 99996.4 99996.4 99996.4 99996.4
          99996.4 99995.7 99995.7 99995.7 99995.7 99995.7 99995.7 99995.7 99995.7 99995.7 99995.7 99995.7
          99995.7 99995.7 99995.7 99995.7 99995.7 99995.7 99995.7 99995.7 99995 99995 99995 99995
          99995 99995 99995 99995 99995 99995 99995 99995 99995 99995 99995 99995
          99995 99995 99995 99994.4 99994.4 99994.4 99994.4 99994.4 99994.4 99994.4 99994.4 99994.4
          99994.4 99994.4 99994.4 99994.4 99994.4 99994.4 99994.4 99994.4 99994.4 99994.4 99993.7 99993.7
          99993.7 99993.7 99993.7 99993.7 99993.7 99993.7 99993.7 99993.7 99993.7 99993.7 99993.7 99993.7
          99993.7 99993.7 99993.7 99993.7 99993.7 99993 99993 99993 99993 99993 99993 99993
          99993 99993 99993 99993 99993 99993 99993 99993 99993 99993 99993 99993
          99992.4 99992.4 99992.4 99992.4 99992.4 99992.4 99992.4 99992.4 99992.4 99992.4 99992.4 99992.4
          99992.4 99992.4 99992.4 99992.4 99992.4 99992.4 99992.4 99991.7 99991.7 99991.7 99991.7 99991.7
          99991.7 99991.7 99991.7 99991.7 99991.7 99991.7 99991.7 99991.7 99991.7 99991.7 99991.7 99991.7
          99991.7 99991.7 99991 99991 99991 99991 99991 99991 99991 99991 99991 99991
          99991 99991 99991 99991 99991 99991 99991 99991 99991 99990.3 99990.3 99990.3
          99990.3 99990.3 99990.3 99990.3 99990.3 99990.3 99990.3 99990.3 99990.3 99990.3 99990.3 99990.3
          99990.3 99990.3 99990.3 99990.3 99989.7 99989.7 99989.7 99989.7 99989.7 99989.7 99989.7 99989.7
          99989.7 99989.7 99989.7 99989.7 99989.7 99989.7 99989.7 99989.7 99989.7 99989.7 99989.7 99989
          99989 99989 99989 99989 99989 99989 99989 99989 99989 99989 99989 99989
          99989 99989 99989 99989 99989 99989 99988.3 99988.3 99988.3 99988.3 99988.3 99988.3
          99988.3 99988.3 99988.3 99988.3 99988.3 99988.3 99988.3 99988.3 99988.3 99988.3 99988.3 99988.3
          99988.3
        </DataArray>
        <DataArray type="Float32" Name="delP" NumberOfComponents="1" format="ascii">
          0.395083 0.395083 -0.275311 -0.275311 0.395089 -0.275306 0.395032 -0.275361 0.395041 -0.275353 0.394947 -0.275446
          0.394974 -0.275419 0.394873 -0.275519 0.39493 -0.275463 0.394846 -0.275547 0.394931 -0.275462 0.394875 -0.275518
          0.394977 -0.275417 0.39495 -0.275443 0.395044 -0.275349 0.395036 -0.275358 0.395092 -0.275302 0.395087 -0.275307
          0.395087 -0.275307 -0.945674 -0.945674 -0.945668 -0.945735 -0.945726 -0.945838 -0.945807 -0.945924 -0.945858 -0.945956
          -0.945858 -0.945923 -0.945804 -0.945835 -0.945722 -0.945732 -0.945664 -0.945671 -0.94567 -1.61603 -1.61603 -1.61602
          -1.6161 -1.61609 -1.61624 -1.6162 -1.61634 -1.61626 -1.61638 -1.61626 -1.61634 -1.6162 -1.61623 -1.61609
          -1.6161 -1.61602 -1.61602 -1.61602 -2.28634 -2.28634 -2.28633 -2.28645 -2.28644 -2.28664 -2.28659 -2.28677
          -2.28667 -2.28682 -2.28667 -2.28677 -2.28659 -2.28664 -2.28643 -2.28644 -2.28633 -2.28634 -2.28634 -2.95663
          -2.95664 -2.95662 -2.95678 -2.95676 -2.95707 -2.95699 -2.95723 -2.9571 -2.95729 -2.9571 -2.95723 -2.95699
          -2.95706 -2.95676 -2.95678 -2.95661 -2.95663 -2.95663 -3.62687 -3.62687 -3.62685 -3.62706 -3.62704 -3.62747
          -3.62738 -3.62768 -3.62751 -3.62774 -3.62751 -3.62768 -3.62737 -3.62746 -3.62703 -3.62706 -3.62684 -3.62687
          -3.62687 -4.29706 -4.29706 -4.29703 -4.2973 -4.29727 -4.29782 -4.29772 -4.29808 -4.29788 -4.29815 -4.29788
          -4.29808 -4.29772 -4.29781 -4.29727 -4.29729 -4.29703 -4.29706 -4.29706 -4.96717 -4.96717 -4.96713 -4.96744
          -4.96742 -4.96805 -4.96796 -4.96838 -4.96816 -4.96846 -4.96816 -4.96838 -4.96796 -4.96805 -4.96741 -4.96743
          -4.96713 -4.96716 -4.96716 -5.6372 -5.6372 -5.63717 -5.6375 -5.63749 -5.63817 -5.63809 -5.63854 -5.63833
          -5.63864 -5.63833 -5.63854 -5.63809 -5.63817 -5.63748 -5.63749 -5.63717 -5.6372 -5.6372 -6.30713 -6.30713
          -6.30711 -6.30744 -6.30744 -6.30814 -6.30807 -6.30853 -6.30833 -6.30864 -6.30833 -6.30853 -6.30807 -6.30814
          -6.30744 -6.30744 -6.30711 -6.30713 -6.30713 -6.97699 -6.97699 -6.97697 -6.97728 -6.9773 -6.97797 -6.97793
          -6.97837 -6.97819 -6.97848 -6.97819 -6.97837 -6.97793 -6.97797 -6.9773 -6.97728 -6.97697 -6.97699 -6.97699
          -7.64674 -7.64674 -7.64674 -7.64701 -7.64705 -7.64764 -7.64762 -7.64802 -7.64788 -7.64813 -7.64788 -7.64802
          -7.64762 -7.64764 -7.64705 -7.64701 -7.64674 -7.64674 -7.64674 -8.31642 -8.31642 -8.31643 -8.31665 -8.31672
          -8.31718 -8.3172 -8.31752 -8.31744 -8.31764 -8.31744 -8.31752 -8.3172 -8.31719 -8.31672 -8.31665 -8.31643
          -8.31642 -8.31642 -8.98602 -8.98602 -8.98605 -8.98619 -8.98629 -8.98657 -8.98664 -8.98687 -8.98685 -8.98698
          -8.98685 -8.98687 -8.98664 -8.98657 -8.9863 -8.98619 -8.98605 -8.98602 -8.98602 -9.65558 -9.65558 -9.65561
          -9.65569 -9.65579 -9.6559 -9.656 -9.65615 -9.65617 -9.65624 -9.65617 -9.65615 -9.65601 -9.6559 -9.65579
          -9.65569 -9.65561 -9.65558 -9.65558 -10.3251 -10.3251 -10.3251 -10.3251 -10.3252 -10.3252 -10.3253 -10.3254
          -10.3254 -10.3255 -10.3254 -10.3254 -10.3253 -10.3252 -10.3252 -10.3251 -10.3251 -10.3251 -10.3251 -10.9946
          -10.9946 -10.9946 -10.9946 -10.9947 -10.9946 -10.9947 -10.9947 -10.9947 -10.9947 -10.9947 -10.9947 -10.9947
          -10.9946 -10.9947 -10.9946 -10.9946 -10.9946 -10.9946 -11.6641 -11.6641 -11.6641 -11.6641 -11.6641 -11.6641
          -11.6641 -11.6641 -11.6641 -11.6641 -11.6641 -11.6641 -11.6641 -11.6641 -11.6641 -11.6641 -11.6641 -11.6641
          -11.6641
        </DataArray>
        <DataArray type="Float32" Name="xH2Og" NumberOfComponents="1" format="ascii">
          0.0001 0.0001 0.0001 9.99987e-05 0.0001 0.000100001 0.0001 9.99986e-05 0.0001 0.000100001 0.0001 9.99986e-05
          0.0001 0.000100001 0.0001 9.99986e-05 0.0001 0.000100001 0.0001 9.99986e-05 0.0001 0.000100001 0.0001 9.99986e-05
          0.0001 0.000100001 0.0001 9.99986e-05 0.0001 0.000100001 0.0001 9.99986e-05 0.0001 0.000100001 0.0001 9.99987e-05
          0.0001 0.0001 0.0001 9.99985e-05 0.000100003 9.99971e-05 0.000100003 9.99969e-05 0.000100003 9.99968e-05 0.000100003 9.99968e-05
          0.000100003 9.99968e-05 0.000100003 9.99969e-05 0.000100003 9.99971e-05 0.000100003 9.99985e-05 0.0001 0.0001 9.99973e-05 0.000100004
          9.9995e-05 0.000100005 9.99947e-05 0.000100005 9.99946e-05 0.000100005 9.99945e-05 0.000100005 9.99946e-05 0.000100005 9.99947e-05 0.000100005
          9.9995e-05 0.000100004 9.99972e-05 0.0001 0.0001 9.99966e-05 0.000100006 9.99925e-05 0.000100007 9.99903e-05 0.000100007 9.99912e-05
          0.000100008 9.99912e-05 0.000100008 9.9991e-05 0.000100007 9.99915e-05 0.000100009 9.99925e-05 0.000100006 9.99965e-05 0.0001 0.0001
          9.99944e-05 0.000100009 9.99884e-05 0.000100006 9.98547e-05 9.99076e-05 9.99051e-05 9.99384e-05 9.99179e-05 9.99381e-05 9.99044e-05 9.99068e-05
          9.98602e-05 0.000100014 9.99885e-05 0.000100009 9.99943e-05 0.0001 0.0001 9.99936e-05 0.000100012 9.99841e-05 0.000100001 9.94718e-05
          9.95922e-05 9.96356e-05 9.97041e-05 9.96844e-05 9.97034e-05 9.96341e-05 9.95908e-05 9.94849e-05 0.000100018 9.99844e-05 0.000100013 9.99935e-05
          0.0001 0.0001 9.99923e-05 0.000100015 9.99797e-05 9.99897e-05 9.8821e-05 9.90154e-05 9.91308e-05 9.92511e-05 9.9237e-05 9.925e-05
          9.91286e-05 9.9014e-05 9.88429e-05 0.000100017 9.99801e-05 0.000100015 9.99923e-05 0.0001 0.0001 9.99929e-05 0.000100016 9.99767e-05
          9.99746e-05 9.79611e-05 9.82104e-05 9.84061e-05 9.85849e-05 9.85795e-05 9.85836e-05 9.84035e-05 9.82094e-05 9.79913e-05 0.00010001 9.99774e-05
          0.000100016 9.99929e-05 0.0001 0.0001 9.99931e-05 0.000100016 9.99751e-05 9.99556e-05 9.69823e-05 9.72549e-05 9.75221e-05 9.77553e-05
          9.77595e-05 9.7754e-05 9.75195e-05 9.72549e-05 9.70185e-05 9.99957e-05 9.9976e-05 0.000100016 9.99931e-05 0.0001 0.0001 9.99946e-05
          0.000100015 9.99755e-05 9.99346e-05 9.597e-05 9.62381e-05 9.65573e-05 9.68322e-05 9.6845e-05 9.6831e-05 9.65551e-05 9.62391e-05 9.60095e-05
          9.99762e-05 9.99765e-05 0.000100015 9.99947e-05 0.0001 0.0001 9.99957e-05 0.000100012 9.99772e-05 9.99111e-05 9.49827e-05 9.5236e-05
          9.55842e-05 9.58836e-05 9.59035e-05 9.58827e-05 9.55827e-05 9.52378e-05 9.50227e-05 9.99514e-05 9.99784e-05 0.000100012 9.99958e-05 0.0001
          0.0001 9.99979e-05 0.000100009 9.99804e-05 9.98808e-05 9.40551e-05 9.43029e-05 9.46596e-05 9.49656e-05 9.49911e-05 9.4965e-05 9.46587e-05
          9.43051e-05 9.40932e-05 9.9918e-05 9.9982e-05 0.000100009 9.9998e-05 0.0001 0.0001 9.99997e-05 0.000100004 9.99835e-05 9.98056e-05
          9.32072e-05 9.34711e-05 9.38199e-05 9.41165e-05 9.41468e-05 9.41164e-05 9.38199e-05 9.34737e-05 9.32405e-05 9.98363e-05 9.99861e-05 0.000100004
          9.99999e-05 0.0001 0.0001 0.000100003 9.99994e-05 9.9984e-05 9.96376e-05 9.26329e-05 9.2845e-05 9.31602e-05 9.34262e-05 9.34591e-05
          9.34266e-05 9.31612e-05 9.28486e-05 9.26576e-05 9.96564e-05 9.99874e-05 9.99994e-05 0.000100003 0.0001 0.0001 0.000100004 9.99948e-05
          9.99821e-05 9.94795e-05 9.24647e-05 9.25391e-05 9.27834e-05 9.29945e-05 9.30251e-05 9.29955e-05 9.27857e-05 9.25443e-05 9.24778e-05 9.94826e-05
          9.99849e-05 9.99948e-05 0.000100004 0.0001 0.0001 0.000100004 9.99921e-05 9.99818e-05 9.9397e-05 9.27299e-05 9.26062e-05 9.2744e-05
          9.28797e-05 9.29017e-05 9.28812e-05 9.27474e-05 9.26128e-05 9.27301e-05 9.93841e-05 9.9983e-05 9.99921e-05 0.000100005 0.0001 0.0001
          0.000100003 9.99917e-05 9.99853e-05 9.94179e-05 9.33496e-05 9.3014e-05 9.30244e-05 9.30756e-05 9.3083e-05 9.30775e-05 9.30285e-05 9.30211e-05
          9.33389e-05 9.93935e-05 9.99846e-05 9.99916e-05 0.000100004 0.0001 0.0001 9.99868e-05 9.99778e-05 9.9975e-05 9.94612e-05 9.38058e-05
          9.33603e-05 9.32918e-05 9.32942e-05 9.329e-05 9.32961e-05 9.3296e-05 9.33672e-05 9.37905e-05 9.94328e-05 9.99736e-05 9.99776e-05 9.99871e-05
          0.0001
        </DataArray>
        <DataArray type="Float32" Name="xAirg" NumberOfComponents="1" format="ascii">
          0.9999 0.9999 0.9999 0.9999 0.9999 0.9999 0.9999 0.9999 0.9999 0.9999 0.9999 0.9999
          0.9999 0.9999 0.9999 0.9999 0.9999 0.9999 0.9999 0.9999 0.9999 0.9999 0.9999 0.9999
          0.9999 0.9999 0.9999 0.9999 0.9999 0.9999 0.9999 0.9999 0.9999 0.9999 0.9999 0.9999
          0.9999 0.9999 0.9999 0.9999 0.9999 0.9999 0.9999 0.9999 0.9999 0.9999 0.9999 0.9999
          0.9999 0.9999 0.9999 0.9999 0.9999 0.9999 0.9999 0.9999 0.9999 0.9999 0.9999 0.9999
          0.9999 0.9999 0.9999 0.9999 0.9999 0.9999 0.9999 0.9999 0.9999 0.9999 0.9999 0.9999
          0.9999 0.9999 0.9999 0.9999 0.9999 0.9999 0.9999 0.9999 0.9999 0.9999 0.9999 0.9999
          0.9999 0.9999 0.9999 0.9999 0.9999 0.9999 0.9999 0.9999 0.9999 0.9999 0.9999 0.9999
          0.9999 0.9999 0.9999 0.9999 0.9999 0.9999 0.9999 0.9999 0.9999 0.9999 0.9999 0.9999
          0.9999 0.9999 0.9999 0.9999 0.9999 0.9999 0.9999 0.9999 0.9999 0.9999 0.9999 0.999901
          0.9999 0.9999 0.9999 0.9999 0.9999 0.9999 0.9999 0.999901 0.9999 0.9999 0.9999 0.9999
          0.9999 0.9999 0.9999 0.9999 0.9999 0.9999 0.999901 0.999901 0.999901 0.999901 0.999901 0.999901
          0.999901 0.999901 0.999901 0.9999 0.9999 0.9999 0.9999 0.9999 0.9999 0.9999 0.9999 0.9999
          0.9999 0.999902 0.999902 0.999902 0.999901 0.999901 0.999901 0.999902 0.999902 0.999902 0.9999 0.9999
          0.9999 0.9999 0.9999 0.9999 0.9999 0.9999 0.9999 0.9999 0.999903 0.999903 0.999902 0.999902
          0.999902 0.999902 0.999902 0.999903 0.999903 0.9999 0.9999 0.9999 0.9999 0.9999 0.9999 0.9999
          0.9999 0.9999 0.9999 0.999904 0.999904 0.999903 0.999903 0.999903 0.999903 0.999903 0.999904 0.999904
          0.9999 0.9999 0.9999 0.9999 0.9999 0.9999 0.9999 0.9999 0.9999 0.9999 0.999905 0.999905
          0.999904 0.999904 0.999904 0.999904 0.999904 0.999905 0.999905 0.9999 0.9999 0.9999 0.9999 0.9999
          0.9999 0.9999 0.9999 0.9999 0.9999 0.999906 0.999906 0.999905 0.999905 0.999905 0.999905 0.999905
          0.999906 0.999906 0.9999 0.9999 0.9999 0.9999 0.9999 0.9999 0.9999 0.9999 0.9999 0.9999
          0.999907 0.999907 0.999906 0.999906 0.999906 0.999906 0.999906 0.999907 0.999907 0.9999 0.9999 0.9999
          0.9999 0.9999 0.9999 0.9999 0.9999 0.9999 0.9999 0.999907 0.999907 0.999907 0.999907 0.999907
          0.999907 0.999907 0.999907 0.999907 0.9999 0.9999 0.9999 0.9999 0.9999 0.9999 0.9999 0.9999
          0.9999 0.999901 0.999908 0.999907 0.999907 0.999907 0.999907 0.999907 0.999907 0.999907 0.999907 0.999901
          0.9999 0.9999 0.9999 0.9999 0.9999 0.9999 0.9999 0.9999 0.999901 0.999907 0.999907 0.999907
          0.999907 0.999907 0.999907 0.999907 0.999907 0.999907 0.999901 0.9999 0.9999 0.9999 0.9999 0.9999
          0.9999 0.9999 0.9999 0.999901 0.999907 0.999907 0.999907 0.999907 0.999907 0.999907 0.999907 0.999907
          0.999907 0.999901 0.9999 0.9999 0.9999 0.9999 0.9999 0.9999 0.9999 0.9999 0.999901 0.999906
          0.999907 0.999907 0.999907 0.999907 0.999907 0.999907 0.999907 0.999906 0.999901 0.9999 0.9999 0.9999
          0.9999
        </DataArray>
        <DataArray type="Float32" Name="h" NumberOfComponents="1" format="ascii">
          10201.1 10201.1 10201.1 10201.1 10201.1 10201.2 10201.1 10201 10201.1 10201.3 10201.1 10201
          10201.1 10201.3 10201.1 10201 10201.1 10201.3 10201.1 10201 10201.1 10201.3 10201.1 10201
          10201.1 10201.3 10201.1 10201 10201.1 10201.3 10201.1 10201 10201.1 10201.2 10201.1 10201.1
          10201.1 10201.1 10201.1 10201.1 10201.5 10200.9 10201.5 10200.8 10201.5 10200.8 10201.5 10200.8
          10201.5 10200.8 10201.5 10200.8 10201.5 10200.9 10201.5 10201.1 10201.1 10201.1 10201.1 10201.7
          10200.7 10201.7 10200.6 10201.7 10200.6 10201.7 10200.6 10201.7 10200.6 10201.7 10200.6 10201.7
          10200.7 10201.7 10201.1 10201.1 10201.1 10201 10202 10200.5 10202.2 10200.5 10202.1 10200.4
          10202.1 10200.4 10202.1 10200.4 10202.1 10200.4 10202 10200.5 10202 10201 10201.1 10201.1
          10200.8 10202.3 10200.1 10203.1 10213 10212.6 10208.2 10209.6 10206.9 10209.6 10208.3 10212.7
          10212.5 10202.4 10200.1 10202.3 10200.8 10201.1 10201.1 10200.7 10202.6 10199.8 10204.7 10249.8
          10244.6 10234 10233.5 10229.2 10233.6 10234.2 10244.7 10248.7 10203.2 10199.7 10202.6 10200.7
          10201.1 10201.1 10200.6 10202.8 10199.4 10206.7 10313.1 10302.4 10283 10279.1 10272.6 10279.2
          10283.2 10302.5 10311.2 10204.3 10199.3 10202.9 10200.6 10201.1 10201.1 10200.6 10203 10199.1
          10209 10397.4 10382.7 10354 10345.6 10336.8 10345.8 10354.2 10382.8 10394.7 10205.8 10199
          10203 10200.6 10201.1 10201.1 10200.6 10202.9 10199 10211.2 10493.6 10477.8 10440.8 10428.2
          10417.3 10428.3 10441.1 10477.8 10490.4 10207.6 10198.9 10202.9 10200.6 10201.1 10201.1 10200.7
          10202.8 10199.1 10213.3 10593.7 10578.8 10536 10519.9 10507.5 10520 10536.2 10578.7 10590.2
          10209.6 10199 10202.8 10200.7 10201.1 10201.1 10200.8 10202.5 10199.3 10215.1 10691.6 10678
          10632.2 10613.8 10600.6 10613.9 10632.4 10677.8 10688 10211.5 10199.2 10202.5 10200.8 10201.1
          10201.1 10201 10202.2 10199.8 10217.3 10784 10770.1 10724.1 10704.5 10691.2 10704.5 10724.2
          10769.9 10780.6 10214 10199.6 10202.2 10201 10201.1 10201.1 10201.2 10201.7 10200.5 10223.4
          10869 10851.8 10807.8 10787.9 10775.4 10787.9 10807.8 10851.6 10866 10220.6 10200.3 10201.7
          10201.2 10201.1 10201.1 10201.5 10201.2 10201.9 10238.3 10927.6 10912.9 10874.2 10855.5 10844.5
          10855.5 10874.1 10912.6 10925.4 10236.6 10201.6 10201.2 10201.5 10201.1 10201.1 10201.6 10200.8
          10203.4 10252.2 10946.3 10942 10912.8 10897.3 10888.6 10897.2 10912.5 10941.6 10945.1 10251.9
          10203.2 10200.8 10201.6 10201.1 10201.1 10201.6 10200.5 10204.4 10258.9 10922.1 10934.3 10918.1
          10907.7 10902.1 10907.6 10917.8 10933.7 10922.1 10260 10204.4 10200.5 10201.7 10201.1 10201.1
          10201.5 10200.4 10204.6 10256 10862.3 10893 10891.5 10887.6 10885.3 10887.4 10891.1 10892.4
          10863.2 10258.1 10204.7 10200.4 10201.5 10201.1 10201.1 10199.8 10199 10203.1 10252.2 10832.8
          10872.2 10876.9 10875.7 10874.8 10875.5 10876.5 10871.6 10834.1 10254.6 10203.2 10199 10199.8
          10201.1
        </DataArray>
        <DataArray type="Float32" Name="rho" NumberOfComponents="1" format="ascii">
          1.23008 1.23008 1.23007 1.23007 1.23008 1.23007 1.23008 1.23007 1.23008 1.23007 1.23008 1.23007
          1.23008 1.23007 1.23008 1.23007 1.23008 1.23007 1.23008 1.23007 1.23008 1.23007 1.23008 1.23007
          1.23008 1.23007 1.23008 1.23007 1.23008 1.23007 1.23008 1.23007 1.23008 1.23007 1.23008 1.23007
          1.23008 1.23007 1.23006 1.23006 1.23006 1.23006 1.23006 1.23006 1.23006 1.23006 1.23006 1.23006
          1.23006 1.23006 1.23006 1.23006 1.23006 1.23006 1.23006 1.23006 1.23006 1.23005 1.23005 1.23005
          1.23005 1.23005 1.23006 1.23005 1.23006 1.23005 1.23006 1.23005 1.23006 1.23005 1.23006 1.23005
          1.23005 1.23005 1.23005 1.23005 1.23004 1.23005 1.23004 1.23005 1.23004 1.23005 1.23004 1.23005
          1.23004 1.23005 1.23004 1.23005 1.23004 1.23005 1.23004 1.23005 1.23004 1.23005 1.23004 1.23004
          1.23004 1.23003 1.23004 1.23003 1.22998 1.22999 1.23001 1.23 1.23001 1.23 1.23001 1.22999
          1.22999 1.23003 1.23004 1.23003 1.23004 1.23004 1.23003 1.23003 1.23002 1.23003 1.23001 1.22981
          1.22984 1.22988 1.22989 1.22991 1.22989 1.22988 1.22984 1.22982 1.23002 1.23003 1.23002 1.23003
          1.23003 1.23002 1.23002 1.23001 1.23003 1.23 1.22953 1.22958 1.22966 1.22968 1.22971 1.22968
          1.22966 1.22958 1.22954 1.23001 1.23003 1.23001 1.23002 1.23002 1.23001 1.23001 1.23 1.23002
          1.22998 1.22915 1.22922 1.22934 1.22938 1.22942 1.22938 1.22934 1.22922 1.22916 1.22999 1.23002
          1.23 1.23001 1.23001 1.23 1.23001 1.23 1.23001 1.22996 1.22872 1.22879 1.22895 1.22901
          1.22906 1.22901 1.22895 1.22879 1.22874 1.22998 1.23001 1.23 1.23001 1.23 1.23 1.23
          1.22999 1.23 1.22994 1.22828 1.22834 1.22853 1.2286 1.22865 1.2286 1.22853 1.22834 1.22829
          1.22996 1.23 1.22999 1.23 1.23 1.22999 1.22999 1.22998 1.23 1.22993 1.22784 1.2279
          1.2281 1.22818 1.22824 1.22818 1.2281 1.2279 1.22786 1.22994 1.23 1.22998 1.22999 1.22999
          1.22998 1.22998 1.22997 1.22998 1.22991 1.22743 1.22749 1.22769 1.22778 1.22783 1.22778 1.22769
          1.22749 1.22744 1.22992 1.22999 1.22997 1.22998 1.22998 1.22997 1.22997 1.22997 1.22997 1.22987
          1.22705 1.22713 1.22732 1.2274 1.22746 1.2274 1.22732 1.22713 1.22706 1.22989 1.22997 1.22997
          1.22997 1.22997 1.22996 1.22996 1.22996 1.22996 1.2298 1.22679 1.22685 1.22702 1.2271 1.22715
          1.2271 1.22702 1.22685 1.2268 1.22981 1.22996 1.22996 1.22996 1.22996 1.22995 1.22995 1.22996
          1.22994 1.22973 1.2267 1.22672 1.22684 1.22691 1.22695 1.22691 1.22684 1.22672 1.2267 1.22973
          1.22995 1.22996 1.22995 1.22995 1.22995 1.22994 1.22995 1.22993 1.22969 1.22679 1.22674 1.22681
          1.22686 1.22688 1.22686 1.22681 1.22674 1.22679 1.22969 1.22993 1.22995 1.22994 1.22995 1.22994
          1.22994 1.22994 1.22992 1.2297 1.22705 1.22691 1.22692 1.22694 1.22695 1.22694 1.22692 1.22692
          1.22704 1.22969 1.22992 1.22994 1.22994 1.22994 1.22993 1.22994 1.22994 1.22992 1.22971 1.22717
          1.227 1.22698 1.22698 1.22699 1.22698 1.22698 1.227 1.22716 1.2297 1.22992 1.22994 1.22994
          1.22993
        </DataArray>
        <DataArray type="Float32" Name="mu" NumberOfComponents="1" format="ascii">
          1.75174e-05 1.75174e-05 1.75174e-05 1.75174e-05 1.75174e-05 1.75174e-05 1.75174e-05 1.75174e-05 1.75174e-05 1.75174e-05 1.75174e-05 1.75174e-05
          1.75174e-05 1.75174e-05 1.75174e-05 1.75174e-05 1.75174e-05 1.75174e-05 1.75174e-05 1.75174e-05 1.75174e-05 1.75174e-05 1.75174e-05 1.75174e-05
          1.75174e-05 1.75174e-05 1.75174e-05 1.75174e-05 1.75174e-05 1.75174e-05 1.75174e-05 1.75174e-05 1.75174e-05 1.75174e-05 1.75174e-05 1.75174e-05
          1.75174e-05 1.75174e-05 1.75174e-05 1.75174e-05 1.75174e-05 1.75174e-05 1.75174e-05 1.75174e-05 1.75174e-05 1.75174e-05 1.75174e-05 1.75174e-05
          1.75174e-05 1.75174e-05 1.75174e-05 1.75174e-05 1.75174e-05 1.75174e-05 1.75174e-05 1.75174e-05 1.75174e-05 1.75174e-05 1.75174e-05 1.75174e-05
          1.75174e-05 1.75174e-05 1.75174e-05 1.75174e-05 1.75174e-05 1.75174e-05 1.75174e-05 1.75174e-05 1.75174e-05 1.75174e-05 1.75174e-05 1.75174e-05
          1.75174e-05 1.75174e-05 1.75174e-05 1.75174e-05 1.75174e-05 1.75174e-05 1.75174e-05 1.75173e-05 1.75174e-05 1.75173e-05 1.75174e-05 1.75173e-05
          1.75174e-05 1.75173e-05 1.75174e-05 1.75173e-05 1.75174e-05 1.75173e-05 1.75174e-05 1.75173e-05 1.75174e-05 1.75174e-05 1.75174e-05 1.75174e-05
          1.75174e-05 1.75174e-05 1.75173e-05 1.75175e-05 1.7518e-05 1.75179e-05 1.75177e-05 1.75178e-05 1.75177e-05 1.75178e-05 1.75177e-05 1.75179e-05
          1.75179e-05 1.75174e-05 1.75173e-05 1.75174e-05 1.75174e-05 1.75174e-05 1.75174e-05 1.75174e-05 1.75174e-05 1.75173e-05 1.75176e-05 1.75198e-05
          1.75195e-05 1.7519e-05 1.7519e-05 1.75188e-05 1.7519e-05 1.7519e-05 1.75195e-05 1.75197e-05 1.75175e-05 1.75173e-05 1.75175e-05 1.75174e-05
          1.75174e-05 1.75174e-05 1.75174e-05 1.75175e-05 1.75173e-05 1.75176e-05 1.75229e-05 1.75224e-05 1.75214e-05 1.75212e-05 1.75209e-05 1.75212e-05
          1.75214e-05 1.75224e-05 1.75228e-05 1.75175e-05 1.75173e-05 1.75175e-05 1.75173e-05 1.75174e-05 1.75174e-05 1.75174e-05 1.75175e-05 1.75173e-05
          1.75178e-05 1.7527e-05 1.75263e-05 1.75249e-05 1.75245e-05 1.75241e-05 1.75245e-05 1.75249e-05 1.75263e-05 1.75269e-05 1.75176e-05 1.75173e-05
          1.75175e-05 1.75174e-05 1.75174e-05 1.75174e-05 1.75174e-05 1.75175e-05 1.75173e-05 1.75179e-05 1.75318e-05 1.7531e-05 1.75292e-05 1.75285e-05
          1.7528e-05 1.75285e-05 1.75292e-05 1.7531e-05 1.75316e-05 1.75177e-05 1.75173e-05 1.75175e-05 1.75174e-05 1.75174e-05 1.75174e-05 1.75174e-05
          1.75175e-05 1.75173e-05 1.7518e-05 1.75367e-05 1.75359e-05 1.75338e-05 1.7533e-05 1.75324e-05 1.7533e-05 1.75339e-05 1.75359e-05 1.75365e-05
          1.75178e-05 1.75173e-05 1.75175e-05 1.75174e-05 1.75174e-05 1.75174e-05 1.75174e-05 1.75174e-05 1.75173e-05 1.75181e-05 1.75415e-05 1.75408e-05
          1.75386e-05 1.75377e-05 1.7537e-05 1.75377e-05 1.75386e-05 1.75408e-05 1.75413e-05 1.75179e-05 1.75173e-05 1.75174e-05 1.75174e-05 1.75174e-05
          1.75174e-05 1.75174e-05 1.75174e-05 1.75173e-05 1.75182e-05 1.7546e-05 1.75453e-05 1.75431e-05 1.75421e-05 1.75415e-05 1.75421e-05 1.75431e-05
          1.75453e-05 1.75459e-05 1.7518e-05 1.75173e-05 1.75174e-05 1.75174e-05 1.75174e-05 1.75174e-05 1.75174e-05 1.75174e-05 1.75173e-05 1.75185e-05
          1.75502e-05 1.75493e-05 1.75472e-05 1.75462e-05 1.75456e-05 1.75462e-05 1.75472e-05 1.75493e-05 1.755e-05 1.75183e-05 1.75173e-05 1.75174e-05
          1.75174e-05 1.75174e-05 1.75174e-05 1.75174e-05 1.75174e-05 1.75174e-05 1.75192e-05 1.75531e-05 1.75523e-05 1.75505e-05 1.75495e-05 1.7549e-05
          1.75495e-05 1.75504e-05 1.75523e-05 1.7553e-05 1.75191e-05 1.75174e-05 1.75174e-05 1.75174e-05 1.75174e-05 1.75174e-05 1.75174e-05 1.75174e-05
          1.75175e-05 1.75199e-05 1.7554e-05 1.75538e-05 1.75523e-05 1.75516e-05 1.75512e-05 1.75516e-05 1.75523e-05 1.75538e-05 1.75539e-05 1.75199e-05
          1.75175e-05 1.75174e-05 1.75174e-05 1.75174e-05 1.75174e-05 1.75174e-05 1.75173e-05 1.75175e-05 1.75202e-05 1.75528e-05 1.75534e-05 1.75526e-05
          1.75521e-05 1.75518e-05 1.75521e-05 1.75526e-05 1.75534e-05 1.75528e-05 1.75203e-05 1.75175e-05 1.75173e-05 1.75174e-05 1.75174e-05 1.75174e-05
          1.75174e-05 1.75173e-05 1.75175e-05 1.75201e-05 1.75499e-05 1.75514e-05 1.75513e-05 1.75511e-05 1.7551e-05 1.75511e-05 1.75513e-05 1.75513e-05
          1.75499e-05 1.75202e-05 1.75176e-05 1.75173e-05 1.75174e-05 1.75174e-05 1.75174e-05 1.75173e-05 1.75173e-05 1.75175e-05 1.75199e-05 1.75484e-05
          1.75503e-05 1.75506e-05 1.75505e-05 1.75505e-05 1.75505e-05 1.75506e-05 1.75503e-05 1.75485e-05 1.752e-05 1.75175e-05 1.75173e-05 1.75173e-05
          1.75174e-05
        </DataArray>
        <DataArray type="Float32" Name="v" NumberOfComponents="3" format="ascii">
          0 0 0 0 0.104938 0 0 0 0 0.000123594 0.103837 0
          0 0.197531 0 0.00277509 0.196455 0 0 0.277778 0 0.00305794 0.277212 0
          0 0.345679 0 0.00469258 0.345367 0 0 0.401235 0 0.0040605 0.402038 0
          0 0.444444 0 0.00413297 0.445382 0 0 0.475309 0 0.00267139 0.476841 0
          0 0.493827 0 0.00156315 0.495203 0 0 0.5 0 -1.3252e-05 0.5017 0
          0 0.493827 0 -0.00158934 0.495203 0 0 0.475309 0 -0.00269664 0.476839 0
          0 0.444444 0 -0.00415518 0.445379 0 0 0.401235 0 -0.00407768 0.402034 0
          0 0.345679 0 -0.0047003 0.345363 0 0 0.277778 0 -0.00305976 0.277209 0
          0 0.197531 0 -0.00277501 0.196453 0 0 0.104938 0 -0.000122146 0.103837 0
          0 0 0 0 0 0 0 0 0 4.01846e-05 0.102073 0
          0.00335419 0.19475 0 0.00368023 0.276083 0 0.00597821 0.34458 0 0.00517834 0.401996 0