<?xml version="1.0"?>
<VTKFile type="UnstructuredGrid" version="0.1" byte_order="LittleEndian">
  <UnstructuredGrid>
    <Piece NumberOfCells="4096" NumberOfPoints="4225">
      <CellData Scalars="p" Vectors="velocity">
        <DataArray type="Float32" Name="p" NumberOfComponents="1" format="ascii">
          105101 105101 105101 105101 105101 105101 105101 105101 105101 105101 105101 105101
          105101 105101 105101 105101 105101 105101 105101 105101 105101 105101 105101 105101
          105101 105101 105101 105101 105101 105101 105101 105101 105101 105101 105101 105101
          105101 105101 105101 105101 105101 105101 105101 105101 105101 105101 105101 105101
          105101 105101 105101 105101 105101 105101 105101 105101 105101 105101 105101 105101
          105101 105101 105101 105101 104948 104948 104948 104948 104948 104948 104948 104948
          104948 104948 104948 104948 104948 104948 104948 104948 104948 104948 104948 104948
          104948 104948 104948 104948 104948 104948 104948 104948 104948 104948 104948 104948
          104948 104948 104948 104948 104948 104948 104948 104948 104948 104948 104948 104948
          104948 104948 104948 104948 104948 104948 104948 104948 104948 104948 104948 104948
          104948 104948 104948 104948 104948 104948 104948 104948 104794 104794 104794 104794
          104794 104794 104794 104794 104794 104794 104794 104794 104794 104794 104794 104794
          104794 104794 104794 104794 104794 104794 104794 104794 104794 104794 104794 104794
          104794 104794 104794 104794 104794 104794 104794 104794 104794 104794 104794 104794
          104794 104794 104794 104794 104794 104794 104794 104794 104794 104794 104794 104794
          104794 104794 104794 104794 104794 104794 104794 104794 104794 104794 104794 104794
          104641 104641 104641 104641 104641 104641 104641 104641 104641 104641 104641 104641
          104641 104641 104641 104641 104641 104641 104641 104641 104641 104641 104641 104641
          104641 104641 104641 104641 104641 104641 104641 104641 104641 104641 104641 104641
          104641 104641 104641 104641 104641 104641 104641 104641 104641 104641 104641 104641
          104641 104641 104641 104641 104641 104641 104641 104641 104641 104641 104641 104641
          104641 104641 104641 104641 104488 104488 104488 104488 104488 104488 104488 104488
          104488 104488 104488 104488 104488 104488 104488 104488 104488 104488 104488 104488
          104488 104488 104488 104488 104488 104488 104488 104488 104488 104488 104488 104488
          104488 104488 104488 104488 104488 104488 104488 104488 104488 104488 104488 104488
          104488 104488 104488 104488 104488 104488 104488 104488 104488 104488 104488 104488
          104488 104488 104488 104488 104488 104488 104488 104488 104335 104335 104335 104335
          104335 104335 104335 104335 104335 104335 104335 104335 104335 104335 104335 104335
          104335 104335 104335 104335 104335 104335 104335 104335 104335 104335 104335 104335
          104335 104335 104335 104335 104335 104335 104335 104335 104335 104335 104335 104335
          104335 104335 104335 104335 104335 104335 104335 104335 104335 104335 104335 104335
          104335 104335 104335 104335 104335 104335 104335 104335 104335 104335 104335 104335
          104181 104181 104181 104181 104181 104181 104181 104181 104181 104181 104181 104181
          104181 104181 104181 104181 104181 104181 104181 104181 104181 104181 104181 104181
          104181 104181 104181 104181 104181 104181 104181 104181 104181 104181 104181 104181
          104181 104181 104181 104181 104181 104181 104181 104181 104181 104181 104181 104181
          104181 104181 104181 104181 104181 104181 104181 104181 104181 104181 104181 104181
          104181 104181 104181 104181 104028 104028 104028 104028 104028 104028 104028 104028
          104028 104028 104028 104028 104028 104028 104028 104028 104028 104028 104028 104028
          104028 104028 104028 104028 104028 104028 104028 104028 104028 104028 104028 104028
          104028 104028 104028 104028 104028 104028 104028 104028 104028 104028 104028 104028
          104028 104028 104028 104028 104028 104028 104028 104028 104028 104028 104028 104028
          104028 104028 104028 104028 104028 104028 104028 104028 103875 103875 103875 103875
          103875 103875 103875 103875 103875 103875 103875 103875 103875 103875 103875 103875
          103875 103875 103875 103875 103875 103875 103875 103875 103875 103875 103875 103875
          103875 103875 103875 103875 103875 103875 103875 103875 103875 103875 103875 103875
          103875 103875 103875 103875 103875 103875 103875 103875 103875 103875 103875 103875
          103875 103875 103875 103875 103875 103875 103875 103875 103875 103875 103875 103875
          103721 103721 103721 103721 103721 103721 103721 103721 103721 103721 103721 103721
          103721 103721 103721 103721 103721 103721 103721 103721 103721 103721 103721 103721
          103721 103721 103721 103721 103721 103721 103721 103721 103721 103721 103721 103721
          103721 103721 103721 103721 103721 103721 103721 103721 103721 103721 103721 103721
          103721 103721 103721 103721 103721 103721 103721 103721 103721 103721 103721 103721
          103721 103721 103721 103721 103568 103568 103568 103568 103568 103568 103568 103568
          103568 103568 103568 103568 103568 103568 103568 103568 103568 103568 103568 103568
          103568 103568 103568 103568 103568 103568 103568 103568 103568 103568 103568 103568
          103568 103568 103568 103568 103568 103568 103568 103568 103568 103568 103568 103568
          103568 103568 103568 103568 103568 103568 103568 103568 103568 103568 103568 103568
          103568 103568 103568 103568 103568 103568 103568 103568 103415 103415 103415 103415
          103415 103415 103415 103415 103415 103415 103415 103415 103415 103415 103415 103415
          103415 103415 103415 103415 103415 103415 103415 103415 103415 103415 103415 103415
          103415 103415 103415 103415 103415 103415 103415 103415 103415 103415 103415 103415
          103415 103415 103415 103415 103415 103415 103415 103415 103415 103415 103415 103415
          103415 103415 103415 103415 103415 103415 103415 103415 103415 103415 103415 103415
          103262 103262 103262 103262 103262 103262 103262 103262 103262 103262 103262 103262
          103262 103262 103262 103262 103262 103262 103262 103262 103262 103262 103262 103262
          103262 103262 103262 103262 103262 103262 103262 103262 103262 103262 103262 103262
          103262 103262 103262 103262 103262 103262 103262 103262 103262 103262 103262 103262
          103262 103262 103262 103262 103262 103262 103262 103262 103262 103262 103262 103262
          103262 103262 103262 103262 103108 103108 103108 103108 103108 103108 103108 103108
          103108 103108 103108 103108 103108 103108 103108 103108 103108 103108 103108 103108
          103108 103108 103108 103108 103108 103108 103108 103108 103108 103108 103108 103108
          103108 103108 103108 103108 103108 103108 103108 103108 103108 103108 103108 103108
          103108 103108 103108 103108 103108 103108 103108 103108 103108 103108 103108 103108
          103108 103108 103108 103108 103108 103108 103108 103108 102955 102955 102955 102955
          102955 102955 102955 102955 102955 102955 102955 102955 102955 102955 102955 102955
          102955 102955 102955 102955 102955 102955 102955 102955 102955 102955 102955 102955
          102955 102955 102955 102955 102955 102955 102955 102955 102955 102955 102955 102955
          102955 102955 102955 102955 102955 102955 102955 102955 102955 102955 102955 102955
          102955 102955 102955 102955 102955 102955 102955 102955 102955 102955 102955 102955
          102802 102802 102802 102802 102802 102802 102802 102802 102802 102802 102802 102802
          102802 102802 102802 102802 102802 102802 102802 102802 102802 102802 102802 102802
          102802 102802 102802 102802 102802 102802 102802 102802 102802 102802 102802 102802
          102802 102802 102802 102802 102802 102802 102802 102802 102802 102802 102802 102802
          102802 102802 102802 102802 102802 102802 102802 102802 102802 102802 102802 102802
          102802 102802 102802 102802 102648 102648 102648 102648 102648 102648 102648 102648
          102648 102648 102648 102648 102648 102648 102648 102648 102648 102648 102648 102648
          102648 102648 102648 102648 102648 102648 102648 102648 102648 102648 102648 102648
          102648 102648 102648 102648 102648 102648 102648 102648 102648 102648 102648 102648
          102648 102648 102648 102648 102648 102648 102648 102648 102648 102648 102648 102648
          102648 102648 102648 102648 102648 102648 102648 102648 102495 102495 102495 102495
          102495 102495 102495 102495 102495 102495 102495 102495 102495 102495 102495 102495
          102495 102495 102495 102495 102495 102495 102495 102495 102495 102495 102495 102495
          102495 102495 102495 102495 102495 102495 102495 102495 102495 102495 102495 102495
          102495 102495 102495 102495 102495 102495 102495 102495 102495 102495 102495 102495
          102495 102495 102495 102495 102495 102495 102495 102495 102495 102495 102495 102495
          102342 102342 102342 102342 102342 102342 102342 102342 102342 102342 102342 102342
          102342 102342 102342 102342 102342 102342 102342 102342 102342 102342 102342 102342
          102342 102342 102342 102342 102342 102342 102342 102342 102342 102342 102342 102342
          102342 102342 102342 102342 102342 102342 102342 102342 102342 102342 102342 102342
          102342 102342 102342 102342 102342 102342 102342 102342 102342 102342 102342 102342
          102342 102342 102342 102342 102189 102189 102189 102189 102189 102189 102189 102189
          102189 102189 102189 102189 102189 102189 102189 102189 102189 102189 102189 102189
          102189 102189 102189 102189 102189 102189 102189 102189 102189 102189 102189 102189
          102189 102189 102189 102189 102189 102189 102189 102189 102189 102189 102189 102189
          102189 102189 102189 102189 102189 102189 102189 102189 102189 102189 102189 102189
          102189 102189 102189 102189 102189 102189 102189 102189 102035 102035 102035 102035
          102035 102035 102035 102035 102035 102035 102035 102035 102035 102035 102035 102035
          102035 102035 102035 102035 102035 102035 102035 102035 102035 102035 102035 102035
          102035 102035 102035 102035 102035 102035 102035 102035 102035 102035 102035 102035
          102035 102035 102035 102035 102035 102035 102035 102035 102035 102035 102035 102035
          102035 102035 102035 102035 102035 102035 102035 102035 102035 102035 102035 102035
          101882 101882 101882 101882 101882 101882 101882 101882 101882 101882 101882 101882
          101882 101882 101882 101882 101882 101882 101882 101882 101882 101882 101882 101882
          101882 101882 101882 101882 101882 101882 101882 101882 101882 101882 101882 101882
          101882 101882 101882 101882 101882 101882 101882 101882 101882 101882 101882 101882
          101882 101882 101882 101882 101882 101882 101882 101882 101882 101882 101882 101882
          101882 101882 101882 101882 101729 101729 101729 101729 101729 101729 101729 101729
          101729 101729 101729 101729 101729 101729 101729 101729 101729 101729 101729 101729
          101729 101729 101729 101729 101729 101729 101729 101729 101729 101729 101729 101729
          101729 101729 101729 101729 101729 101729 101729 101729 101729 101729 101729 101729
          101729 101729 101729 101729 101729 101729 101729 101729 101729 101729 101729 101729
          101729 101729 101729 101729 101729 101729 101729 101729 101575 101575 101575 101575
          101575 101575 101575 101575 101575 101575 101575 101575 101575 101575 101575 101575
          101575 101575 101575 101575 101575 101575 101575 101575 101575 101575 101575 101575
          101575 101575 101575 101575 101575 101575 101575 101575 101575 101575 101575 101575
          101575 101575 101575 101575 101575 101575 101575 101575 101575 101575 101575 101575
          101575 101575 101575 101575 101575 101575 101575 101575 101575 101575 101575 101575
          101422 101422 101422 101422 101422 101422 101422 101422 101422 101422 101422 101422
          101422 101422 101422 101422 101422 101422 101422 101422 101422 101422 101422 101422
          101422 101422 101422 101422 101422 101422 101422 101422 101422 101422 101422 101422
          101422 101422 101422 101422 101422 101422 101422 101422 101422 101422 101422 101422
          101422 101422 101422 101422 101422 101422 101422 101422 101422 101422 101422 101422
          101422 101422 101422 101422 101269 101269 101269 101269 101269 101269 101269 101269
          101269 101269 101269 101269 101269 101269 101269 101269 101269 101269 101269 101269
          101269 101269 101269 101269 101269 101269 101269 101269 101269 101269 101269 101269
          101269 101269 101269 101269 101269 101269 101269 101269 101269 101269 101269 101269
          101269 101269 101269 101269 101269 101269 101269 101269 101269 101269 101269 101269
          101269 101269 101269 101269 101269 101269 101269 101269 101116 101116 101116 101116
          101116 101116 101116 101116 101116 101116 101116 101116 101116 101116 101116 101116
          101116 101116 101116 101116 101116 101116 101116 101116 101116 101116 101116 101116
          101116 101116 101116 101116 101116 101116 101116 101116 101116 101116 101116 101116
          101116 101116 101116 101116 101116 101116 101116 101116 101116 101116 101116 101116
          101116 101116 101116 101116 101116 101116 101116 101116 101116 101116 101116 101116
          100962 100962 100962 100962 100962 100962 100962 100962 100962 100962 100962 100962
          100962 100962 100962 100962 100962 100962 100962 100962 100962 100962 100962 100962
          100962 100962 100962 100962 100962 100962 100962 100962 100962 100962 100962 100962
          100962 100962 100962 100962 100962 100962 100962 100962 100962 100962 100962 100962
          100962 100962 100962 100962 100962 100962 100962 100962 100962 100962 100962 100962
          100962 100962 100962 100962 100809 100809 100809 100809 100809 100809 100809 100809
          100809 100809 100809 100809 100809 100809 100809 100809 100809 100809 100809 100809
          100809 100809 100809 100809 100809 100809 100809 100809 100809 100809 100809 100809
          100809 100809 100809 100809 100809 100809 100809 100809 100809 100809 100809 100809
          100809 100809 100809 100809 100809 100809 100809 100809 100809 100809 100809 100809
          100809 100809 100809 100809 100809 100809 100809 100809 100656 100656 100656 100656
          100656 100656 100656 100656 100656 100656 100656 100656 100656 100656 100656 100656
          100656 100656 100656 100656 100656 100656 100656 100656 100656 100656 100656 100656
          100656 100656 100656 100656 100656 100656 100656 100656 100656 100656 100656 100656
          100656 100656 100656 100656 100656 100656 100656 100656 100656 100656 100656 100656
          100656 100656 100656 100656 100656 100656 100656 100656 100656 100656 100656 100656
          100502 100502 100502 100502 100502 100502 100502 100502 100502 100502 100502 100502
          100502 100502 100502 100502 100502 100502 100502 100502 100502 100502 100502 100502
          100502 100502 100502 100502 100502 100502 100502 100502 100502 100502 100502 100502
          100502 100502 100502 100502 100502 100502 100502 100502 100502 100502 100502 100502
          100502 100502 100502 100502 100502 100502 100502 100502 100502 100502 100502 100502
          100502 100502 100502 100502 100349 100349 100349 100349 100349 100349 100349 100349
          100349 100349 100349 100349 100349 100349 100349 100349 100349 100349 100349 100349
          100349 100349 100349 100349 100349 100349 100349 100349 100349 100349 100349 100349
          100349 100349 100349 100349 100349 100349 100349 100349 100349 100349 100349 100349
          100349 100349 100349 100349 100349 100349 100349 100349 100349 100349 100349 100349
          100349 100349 100349 100349 100349 100349 100349 100349 100196 100196 100196 100196
          100196 100196 100196 100196 100196 100196 100196 100196 100196 100196 100196 100196
          100196 100196 100196 100196 100196 100196 100196 100196 100196 100196 100196 100196
          100196 100196 100196 100196 100196 100196 100196 100196 100196 100196 100196 100196
          100196 100196 100196 100196 100196 100196 100196 100196 100196 100196 100196 100196
          100196 100196 100196 100196 100196 100196 100196 100196 100196 100196 100196 100196
          100043 100043 100043 100043 100043 100043 100043 100043 100043 100043 100043 100043
          100043 100043 100043 100043 100043 100043 100043 100043 100043 100043 100043 100043
          100043 100043 100043 100043 100043 100043 100043 100043 100043 100043 100043 100043
          100043 100043 100043 100043 100043 100043 100043 100043 100043 100043 100043 100043
          100043 100043 100043 100043 100043 100043 100043 100043 100043 100043 100043 100043
          100043 100043 100043 100043 99889.4 99889.4 99889.4 99889.4 99889.4 99889.4 99889.4 99889.4
          99889.4 99889.4 99889.4 99889.4 99889.4 99889.4 99889.4 99889.4 99889.4 99889.4 99889.4 99889.4
          99889.4 99889.4 99889.4 99889.4 99889.4 99889.4 99889.4 99889.4 99889.4 99889.4 99889.4 99889.4
          99889.4 99889.4 99889.4 99889.4 99889.4 99889.4 99889.4 99889.4 99889.4 99889.4 99889.4 99889.4
          99889.4 99889.4 99889.4 99889.4 99889.4 99889.4 99889.4 99889.4 99889.4 99889.4 99889.4 99889.4
          99889.4 99889.4 99889.4 99889.4 99889.4 99889.4 99889.4 99889.4 99736.1 99736.1 99736.1 99736.1
          99736.1 99736.1 99736.1 99736.1 99736.1 99736.1 99736.1 99736.1 99736.1 99736.1 99736.1 99736.1
          99736.1 99736.1 99736.1 99736.1 99736.1 99736.1 99736.1 99736.1 99736.1 99736.1 99736.1 99736.1
          99736.1 99736.1 99736.1 99736.1 99736.1 99736.1 99736.1 99736.1 99736.1 99736.1 99736.1 99736.1
          99736.1 99736.1 99736.1 99736.1 99736.1 99736.1 99736.1 99736.1 99736.1 99736.1 99736.1 99736.1
          99736.1 99736.1 99736.1 99736.1 99736.1 99736.1 99736.1 99736.1 99736.1 99736.1 99736.1 99736.1
          99582.8 99582.8 99582.8 99582.8 99582.8 99582.8 99582.8 99582.8 99582.8 99582.8 99582.8 99582.8
          99582.8 99582.8 99582.8 99582.8 99582.8 99582.8 99582.8 99582.8 99582.8 99582.8 99582.8 99582.8
          99582.8 99582.8 99582.8 99582.8 99582.8 99582.8 99582.8 99582.8 99582.8 99582.8 99582.8 99582.8
          99582.8 99582.8 99582.8 99582.8 99582.8 99582.8 99582.8 99582.8 99582.8 99582.8 99582.8 99582.8
          99582.8 99582.8 99582.8 99582.8 99582.8 99582.8 99582.8 99582.8 99582.8 99582.8 99582.8 99582.8
          99582.8 99582.8 99582.8 99582.8 99429.5 99429.5 99429.5 99429.5 99429.5 99429.5 99429.5 99429.5
          99429.5 99429.5 99429.5 99429.5 99429.5 99429.5 99429.5 99429.5 99429.5 99429.5 99429.5 99429.5
          99429.5 99429.5 99429.5 99429.5 99429.5 99429.5 99429.5 99429.5 99429.5 99429.5 99429.5 99429.5
          99429.5 99429.5 99429.5 99429.5 99429.5 99429.5 99429.5 99429.5 99429.5 99429.5 99429.5 99429.5
          99429.5 99429.5 99429.5 99429.5 99429.5 99429.5 99429.5 99429.5 99429.5 99429.5 99429.5 99429.5
          99429.5 99429.5 99429.5 99429.5 99429.5 99429.5 99429.5 99429.5 99276.2 99276.2 99276.2 99276.2
          99276.2 99276.2 99276.2 99276.2 99276.2 99276.2 99276.2 99276.2 99276.2 99276.2 99276.2 99276.2
          99276.2 99276.2 99276.2 99276.2 99276.2 99276.2 99276.2 99276.2 99276.2 99276.2 99276.2 99276.2
          99276.2 99276.2 99276.2 99276.2 99276.2 99276.2 99276.2 99276.2 99276.2 99276.2 99276.2 99276.2
          99276.2 99276.2 99276.2 99276.2 99276.2 99276.2 99276.2 99276.2 99276.2 99276.2 99276.2 99276.2
          99276.2 99276.2 99276.2 99276.2 99276.2 99276.2 99276.2 99276.2 99276.2 99276.2 99276.2 99276.2
          99123 99123 99123 99123 99123 99123 99123 99123 99123 99123 99123 99123
          99123 99123 99123 99123 99123 99123 99123 99123 99123 99123 99123 99123
          99123 99123 99123 99123 99123 99123 99123 99123 99123 99123 99123 99123
          99123 99123 99123 99123 99123 99123 99123 99123 99123 99123 99123 99123
          99123 99123 99123 99123 99123 99123 99123 99123 99123 99123 99123 99123
          99123 99123 99123 99123 98969.7 98969.7 98969.7 98969.7 98969.7 98969.7 98969.7 98969.7
          98969.7 98969.7 98969.7 98969.7 98969.7 98969.7 98969.7 98969.7 98969.7 98969.7 98969.7 98969.7
          98969.7 98969.7 98969.7 98969.7 98969.7 98969.7 98969.7 98969.7 98969.7 98969.7 98969.7 98969.7
          98969.7 98969.7 98969.7 98969.7 98969.7 98969.7 98969.7 98969.7 98969.7 98969.7 98969.7 98969.7
          98969.7 98969.7 98969.7 98969.7 98969.7 98969.7 98969.7 98969.7 98969.7 98969.7 98969.7 98969.7
          98969.7 98969.7 98969.7 98969.7 98969.7 98969.7 98969.7 98969.7 98816.4 98816.4 98816.4 98816.4
          98816.4 98816.4 98816.4 98816.4 98816.4 98816.4 98816.4 98816.4 98816.4 98816.4 98816.4 98816.4
          98816.4 98816.4 98816.4 98816.4 98816.4 98816.4 98816.4 98816.4 98816.4 98816.4 98816.4 98816.4
          98816.4 98816.4 98816.4 98816.4 98816.4 98816.4 98816.4 98816.4 98816.4 98816.4 98816.4 98816.4
          98816.4 98816.4 98816.4 98816.4 98816.4 98816.4 98816.4 98816.4 98816.4 98816.4 98816.4 98816.4
          98816.4 98816.4 98816.4 98816.4 98816.4 98816.4 98816.4 98816.4 98816.4 98816.4 98816.4 98816.4
          98663.1 98663.1 98663.1 98663.1 98663.1 98663.1 98663.1 98663.1 98663.1 98663.1 98663.1 98663.1
          98663.1 98663.1 98663.1 98663.1 98663.1 98663.1 98663.1 98663.1 98663.1 98663.1 98663.1 98663.1
          98663.1 98663.1 98663.1 98663.1 98663.1 98663.1 98663.1 98663.1 98663.1 98663.1 98663.1 98663.1
          98663.1 98663.1 98663.1 98663.1 98663.1 98663.1 98663.1 98663.1 98663.1 98663.1 98663.1 98663.1
          98663.1 98663.1 98663.1 98663.1 98663.1 98663.1 98663.1 98663.1 98663.1 98663.1 98663.1 98663.1
          98663.1 98663.1 98663.1 98663.1 98509.8 98509.8 98509.8 98509.8 98509.8 98509.8 98509.8 98509.8
          98509.8 98509.8 98509.8 98509.8 98509.8 98509.8 98509.8 98509.8 98509.8 98509.8 98509.8 98509.8
          98509.8 98509.8 98509.8 98509.8 98509.8 98509.8 98509.8 98509.8 98509.8 98509.8 98509.8 98509.8
          98509.8 98509.8 98509.8 98509.8 98509.8 98509.8 98509.8 98509.8 98509.8 98509.8 98509.8 98509.8
          98509.8 98509.8 98509.8 98509.8 98509.8 98509.8 98509.8 98509.8 98509.8 98509.8 98509.8 98509.8
          98509.8 98509.8 98509.8 98509.8 98509.8 98509.8 98509.8 98509.8 98356.5 98356.5 98356.5 98356.5
          98356.5 98356.5 98356.5 98356.5 98356.5 98356.5 98356.5 98356.5 98356.5 98356.5 98356.5 98356.5
          98356.5 98356.5 98356.5 98356.5 98356.5 98356.5 98356.5 98356.5 98356.5 98356.5 98356.5 98356.5
          98356.5 98356.5 98356.5 98356.5 98356.5 98356.5 98356.5 98356.5 98356.5 98356.5 98356.5 98356.5
          98356.5 98356.5 98356.5 98356.5 98356.5 98356.5 98356.5 98356.5 98356.5 98356.5 98356.5 98356.5
          98356.5 98356.5 98356.5 98356.5 98356.5 98356.5 98356.5 98356.5 98356.5 98356.5 98356.5 98356.5
          98203.3 98203.3 98203.3 98203.3 98203.3 98203.3 98203.3 98203.3 98203.3 98203.3 98203.3 98203.3
          98203.3 98203.3 98203.3 98203.3 98203.3 98203.3 98203.3 98203.3 98203.3 98203.3 98203.3 98203.3
          98203.3 98203.3 98203.3 98203.3 98203.3 98203.3 98203.3 98203.3 98203.3 98203.3 98203.3 98203.3
          98203.3 98203.3 98203.3 98203.3 98203.3 98203.3 98203.3 98203.3 98203.3 98203.3 98203.3 98203.3
          98203.3 98203.3 98203.3 98203.3 98203.3 98203.3 98203.3 98203.3 98203.3 98203.3 98203.3 98203.3
          98203.3 98203.3 98203.3 98203.3 98050 98050 98050 98050 98050 98050 98050 98050
          98050 98050 98050 98050 98050 98050 98050 98050 98050 98050 98050 98050
          98050 98050 98050 98050 98050 98050 98050 98050 98050 98050 98050 98050
          98050 98050 98050 98050 98050 98050 98050 98050 98050 98050 98050 98050
          98050 98050 98050 98050 98050 98050 98050 98050 98050 98050 98050 98050
          98050 98050 98050 98050 98050 98050 98050 98050 97896.7 97896.7 97896.7 97896.7
          97896.7 97896.7 97896.7 97896.7 97896.7 97896.7 97896.7 97896.7 97896.7 97896.7 97896.7 97896.7
          97896.7 97896.7 97896.7 97896.7 97896.7 97896.7 97896.7 97896.7 97896.7 97896.7 97896.7 97896.7
          97896.7 97896.7 97896.7 97896.7 97896.7 97896.7 97896.7 97896.7 97896.7 97896.7 97896.7 97896.7
          97896.7 97896.7 97896.7 97896.7 97896.7 97896.7 97896.7 97896.7 97896.7 97896.7 97896.7 97896.7
          97896.7 97896.7 97896.7 97896.7 97896.7 97896.7 97896.7 97896.7 97896.7 97896.7 97896.7 97896.7
          97743.4 97743.4 97743.4 97743.4 97743.4 97743.4 97743.4 97743.4 97743.4 97743.4 97743.4 97743.4
          97743.4 97743.4 97743.4 97743.4 97743.4 97743.4 97743.4 97743.4 97743.4 97743.4 97743.4 97743.4
          97743.4 97743.4 97743.4 97743.4 97743.4 97743.4 97743.4 97743.4 97743.4 97743.4 97743.4 97743.4
          97743.4 97743.4 97743.4 97743.4 97743.4 97743.4 97743.4 97743.4 97743.4 97743.4 97743.4 97743.4
          97743.4 97743.4 97743.4 97743.4 97743.4 97743.4 97743.4 97743.4 97743.4 97743.4 97743.4 97743.4
          97743.4 97743.4 97743.4 97743.4 97590.1 97590.1 97590.1 97590.1 97590.1 97590.1 97590.1 97590.1
          97590.1 97590.1 97590.1 97590.1 97590.1 97590.1 97590.1 97590.1 97590.1 97590.1 97590.1 97590.1
          97590.1 97590.1 97590.1 97590.1 97590.1 97590.1 97590.1 97590.1 97590.1 97590.1 97590.1 97590.1
          97590.1 97590.1 97590.1 97590.1 97590.1 97590.1 97590.1 97590.1 97590.1 97590.1 97590.1 97590.1
          97590.1 97590.1 97590.1 97590.1 97590.1 97590.1 97590.1 97590.1 97590.1 97590.1 97590.1 97590.1
          97590.1 97590.1 97590.1 97590.1 97590.1 97590.1 97590.1 97590.1 97436.9 97436.9 97436.9 97436.9
          97436.9 97436.9 97436.9 97436.9 97436.9 97436.9 97436.9 97436.9 97436.9 97436.9 97436.9 97436.9
          97436.9 97436.9 97436.9 97436.9 97436.9 97436.9 97436.9 97436.9 97436.9 97436.9 97436.9 97436.9
          97436.9 97436.9 97436.9 97436.9 97436.9 97436.9 97436.9 97436.9 97436.9 97436.9 97436.9 97436.9
          97436.9 97436.9 97436.9 97436.9 97436.9 97436.9 97436.9 97436.9 97436.9 97436.9 97436.9 97436.9
          97436.9 97436.9 97436.9 97436.9 97436.9 97436.9 97436.9 97436.9 97436.9 97436.9 97436.9 97436.9
          97283.6 97283.6 97283.6 97283.6 97283.6 97283.6 97283.6 97283.6 97283.6 97283.6 97283.6 97283.6
          97283.6 97283.6 97283.6 97283.6 97283.6 97283.6 97283.6 97283.6 97283.6 97283.6 97283.6 97283.6
          97283.6 97283.6 97283.6 97283.6 97283.6 97283.6 97283.6 97283.6 97283.6 97283.6 97283.6 97283.6
          97283.6 97283.6 97283.6 97283.6 97283.6 97283.6 97283.6 97283.6 97283.6 97283.6 97283.6 97283.6
          97283.6 97283.6 97283.6 97283.6 97283.6 97283.6 97283.6 97283.6 97283.6 97283.6 97283.6 97283.6
          97283.6 97283.6 97283.6 97283.6 97130.3 97130.3 97130.3 97130.3 97130.3 97130.3 97130.3 97130.3
          97130.3 97130.3 97130.3 97130.3 97130.3 97130.3 97130.3 97130.3 97130.3 97130.3 97130.3 97130.3
          97130.3 97130.3 97130.3 97130.3 97130.3 97130.3 97130.3 97130.3 97130.3 97130.3 97130.3 97130.3
          97130.3 97130.3 97130.3 97130.3 97130.3 97130.3 97130.3 97130.3 97130.3 97130.3 97130.3 97130.3
          97130.3 97130.3 97130.3 97130.3 97130.3 97130.3 97130.3 97130.3 97130.3 97130.3 97130.3 97130.3
          97130.3 97130.3 97130.3 97130.3 97130.3 97130.3 97130.3 97130.3 96977 96977 96977 96977
          96977 96977 96977 96977 96977 96977 96977 96977 96977 96977 96977 96977
          96977 96977 96977 96977 96977 96977 96977 96977 96977 96977 96977 96977
          96977 96977 96977 96977 96977 96977 96977 96977 96977 96977 96977 96977
          96977 96977 96977 96977 96977 96977 96977 96977 96977 96977 96977 96977
          96977 96977 96977 96977 96977 96977 96977 96977 96977 96977 96977 96977
          96823.7 96823.7 96823.7 96823.7 96823.7 96823.7 96823.7 96823.7 96823.7 96823.7 96823.7 96823.7
          96823.7 96823.7 96823.7 96823.7 96823.7 96823.7 96823.7 96823.7 96823.7 96823.7 96823.7 96823.7
          96823.7 96823.7 96823.7 96823.7 96823.7 96823.7 96823.7 96823.7 96823.7 96823.7 96823.7 96823.7
          96823.7 96823.7 96823.7 96823.7 96823.7 96823.7 96823.7 96823.7 96823.7 96823.7 96823.7 96823.7
          96823.7 96823.7 96823.7 96823.7 96823.7 96823.7 96823.7 96823.7 96823.7 96823.7 96823.7 96823.7
          96823.7 96823.7 96823.7 96823.7 96670.5 96670.5 96670.5 96670.5 96670.5 96670.5 96670.5 96670.5
          96670.5 96670.5 96670.5 96670.5 96670.5 96670.5 96670.5 96670.5 96670.5 96670.5 96670.5 96670.5
          96670.5 96670.5 96670.5 96670.5 96670.5 96670.5 96670.5 96670.5 96670.5 96670.5 96670.5 96670.5
          96670.5 96670.5 96670.5 96670.5 96670.5 96670.5 96670.5 96670.5 96670.5 96670.5 96670.5 96670.5
          96670.5 96670.5 96670.5 96670.5 96670.5 96670.5 96670.5 96670.5 96670.5 96670.5 96670.5 96670.5
          96670.5 96670.5 96670.5 96670.5 96670.5 96670.5 96670.5 96670.5 96517.2 96517.2 96517.2 96517.2
          96517.2 96517.2 96517.2 96517.2 96517.2 96517.2 96517.2 96517.2 96517.2 96517.2 96517.2 96517.2
          96517.2 96517.2 96517.2 96517.2 96517.2 96517.2 96517.2 96517.2 96517.2 96517.2 96517.2 96517.2
          96517.2 96517.2 96517.2 96517.2 96517.2 96517.2 96517.2 96517.2 96517.2 96517.2 96517.2 96517.2
          96517.2 96517.2 96517.2 96517.2 96517.2 96517.2 96517.2 96517.2 96517.2 96517.2 96517.2 96517.2
          96517.2 96517.2 96517.2 96517.2 96517.2 96517.2 96517.2 96517.2 96517.2 96517.2 96517.2 96517.2