<?xml version="1.0"?>
<VTKFile type="UnstructuredGrid" version="0.1" byte_order="LittleEndian">
  <UnstructuredGrid>
    <Piece NumberOfCells="1024" NumberOfPoints="1089">
      <PointData Scalars="temperature" Vectors="v">
        <DataArray type="Float32" Name="temperature" NumberOfComponents="1" format="ascii">
          283.15 283.15 283.15 283.15 283.15 283.15 283.15 283.15 283.15 283.15 283.15 283.15
          283.15 283.15 283.15 283.15 283.15 283.15 283.15 283.15 283.15 283.15 283.15 283.15
          283.15 283.15 283.15 283.15 283.15 283.15 283.15 283.15 283.15 283.15 283.15 283.15
          283.15 283.15 283.15 283.15 283.15 283.15 283.15 283.15 283.15 283.15 283.15 283.15
          283.15 283.15 283.15 283.15 283.15 283.15 283.15 283.15 283.15 283.15 283.15 283.15
          283.15 283.15 283.15 283.15 283.15 283.15 283.15 283.15 283.15 283.15 283.15 283.15
          283.15 283.15 283.15 283.15 283.15 283.15 283.15 283.15 283.15 283.15 283.15 283.15
          283.15 283.15 283.15 283.15 283.15 283.15 283.15 283.15 283.15 283.15 283.15 283.15
          283.15 283.15 283.15 283.15 283.15 283.15 283.15 283.15 283.15 283.15 283.15 283.15
          283.15 283.15 283.15 283.15 283.15 283.15 283.15 283.15 283.15 283.15 283.15 283.15
          283.15 283.15 283.15 283.15 283.15 283.15 283.15 283.15 283.15 283.15 283.15 283.15
          283.15 283.15 283.15 283.15 283.15 283.15 283.15 283.15 283.15 283.15 283.15 283.15
          283.15 283.15 283.15 283.15 283.15 283.15 283.15 283.15 283.15 283.15 283.15 283.15
          283.15 283.15 283.15 283.15 283.15 283.15 283.15 283.15 283.15 283.15 283.15 283.15
          283.15 283.15 283.15 283.15 283.15 283.15 283.15 283.15 283.15 283.15 283.15 283.15
          283.15 283.15 283.15 283.15 283.15 283.15 283.15 283.15 283.15 283.15 283.15 283.15
          283.15 283.15 283.15 283.15 283.15 283.15 283.15 283.15 283.15 283.15 283.15 283.15
          283.15 283.15 283.15 283.15 283.15 283.15 283.15 283.15 283.15 283.15 283.15 283.15
          283.15 283.15 283.15 283.15 283.15 283.15 283.15 283.15 283.15 283.15 283.15 283.15
          283.15 283.15 283.15 283.15 283.15 283.15 283.15 283.15 283.15 283.15 283.15 283.15
          283.15 283.15 283.15 283.15 283.15 283.15 283.15 283.15 283.15 283.15 283.15 283.15
          283.15 283.15 283.15 283.15 283.15 283.15 283.15 283.15 283.15 283.15 283.15 283.15
          283.15 283.15 283.15 283.15 283.15 283.15 283.15 283.15 283.15 283.15 283.15 283.15
          283.15 283.15 283.15 283.15 283.15 283.15 283.15 283.15 283.15 283.15 283.15 283.15
          283.15 283.15 283.15 283.15 283.15 283.15 283.15 283.15 283.15 283.15 283.15 283.15
          283.15 283.15 283.15 283.15 283.15 283.15 283.15 283.15 283.15 283.15 283.15 283.15
          283.15 283.15 283.15 283.15 283.15 283.15 283.15 283.15 283.15 283.15 283.15 283.15
          283.15 283.15 283.15 283.15 283.15 283.15 283.15 283.15 283.15 283.15 283.15 283.15
          283.15 283.15 283.15 283.15 283.15 283.15 283.15 283.15 283.15 283.15 283.15 283.15
          283.15 283.15 283.15 283.15 283.15 283.15 283.15 283.15 283.15 283.15 283.15 283.15
          283.15 283.15 283.15 283.15 283.15 283.15 283.15 283.15 283.15 283.15 283.15 283.15
          283.15 283.15 283.15 283.15 283.15 283.15 283.15 283.15 283.15 283.15 283.15 283.15
          283.15 283.15 283.15 283.15 283.15 283.15 283.15 283.15 283.15 283.15 283.15 283.15
          283.15 283.15 283.15 283.15 283.15 283.15 283.15 283.15 283.15 283.15 283.15 283.15
          283.15 283.15 283.15 283.15 283.15 283.15 283.15 283.15 283.15 283.15 283.15 283.15
          283.15 283.15 283.15 283.15 283.15 283.15 283.15 283.15 283.15 283.15 283.15 283.15
          283.15 283.15 283.15 283.15 283.15 283.15 283.15 283.15 283.15 283.15 283.15 283.15
          283.15 283.15 283.15 283.15 283.15 283.15 283.15 283.15 283.15 283.15 283.15 283.15
          283.15 283.15 283.15 283.15 283.15 283.15 283.15 283.15 283.15 283.15 283.15 283.15
          283.15 283.15 283.15 283.15 283.15 283.15 283.15 283.15 283.15 283.15 283.15 283.15
          283.15 283.15 283.15 283.15 283.15 283.15 283.15 283.15 283.15 283.15 283.15 283.15
          283.15 283.15 283.15 283.15 283.15 283.15 283.15 283.15 283.15 283.15 283.15 283.15
          283.15 283.15 283.15 283.15 283.15 283.15 283.15 283.15 283.15 283.15 283.15 283.15
          283.15 283.15 283.15 283.15 283.15 283.15 283.15 283.15 283.15 283.15 283.15 283.15
          283.15 283.15 283.15 283.15 283.15 283.15 283.15 283.15 283.15 283.15 283.15 283.15
          283.15 283.15 283.15 283.15 283.15 283.15 283.15 283.15 283.15 283.15 283.15 283.15
          283.15 283.15 283.15 283.15 283.15 283.15 283.15 283.15 283.15 283.15 283.15 283.15
          283.15 283.15 283.15 283.15 283.15 283.15 283.15 283.15 283.15 283.15 283.15 283.15
          283.15 283.15 283.15 283.15 283.15 283.15 283.15 283.15 283.15 283.15 283.15 283.15
          283.15 283.15 283.15 283.15 283.15 283.15 283.15 283.15 283.15 283.15 283.15 283.15
          283.15 283.15 283.15 283.15 283.15 283.15 283.15 283.15 283.15 283.15 283.15 283.15
          283.15 283.15 283.15 283.15 283.15 283.15 283.15 283.15 283.15 283.15 283.15 283.15
          283.15 283.15 283.15 283.15 283.15 283.15 283.15 283.15 283.15 283.15 283.15 283.15
          283.15 283.15 283.15 283.15 283.15 283.15 283.15 283.15 283.15 283.15 283.15 283.15
          283.15 283.15 283.15 283.15 283.15 283.15 283.15 283.15 283.15 283.15 283.15 283.15
          283.15 283.15 283.15 283.15 283.15 283.15 283.15 283.15 283.15 283.15 283.15 283.15
          283.15 283.15 283.15 283.15 283.15 283.15 283.15 283.15 283.15 283.15 283.15 283.15
          283.15 283.15 283.15 283.15 283.15 283.15 283.15 283.15 283.15 283.15 283.15 283.15
          283.15 283.15 283.15 283.15 283.15 283.15 283.15 283.15 283.15 283.15 283.15 283.15
          283.15 283.15 283.15 283.15 283.15 283.15 283.15 283.15 283.15 283.15 283.15 283.15
          283.15 283.15 283.15 283.15 283.15 283.15 283.15 283.15 283.15 283.15 283.15 283.15
          283.15 283.15 283.15 283.15 283.15 283.15 283.15 283.15 283.15 283.15 283.15 283.15
          283.15 283.15 283.15 283.15 283.15 283.15 283.15 283.15 283.15 283.15 283.15 283.15
          283.15 283.15 283.15 283.15 283.15 283.15 283.15 283.15 283.15 283.15 283.15 283.15
          283.15 283.15 283.15 283.15 283.15 283.15 283.15 283.15 283.15 283.15 283.15 283.15
          283.15 283.15 283.15 283.15 283.15 283.15 283.15 283.15 283.15 283.15 283.15 283.15
          283.15 283.15 283.15 283.15 283.15 283.15 283.15 283.15 283.15 283.15 283.15 283.15
          283.15 283.15 283.15 283.15 283.15 283.15 283.15 283.15 283.15 283.15 283.15 283.15
          283.15 283.15 283.15 283.15 283.15 283.15 283.15 283.15 283.15 283.15 283.15 283.15
          283.15 283.15 283.15 283.15 283.15 283.15 283.15 283.15 283.15 283.15 283.15 283.15
          283.15 283.15 283.15 283.15 283.15 283.15 283.15 283.15 283.15 283.15 283.15 283.15
          283.15 283.15 283.15 283.15 283.15 283.15 283.15 283.15 283.15 283.15 283.15 283.15
          283.15 283.15 283.15 283.15 283.15 283.15 283.15 283.15 283.15 283.15 283.15 283.15
          283.15 283.15 283.15 283.15 283.15 283.15 283.15 283.15 283.15 283.15 283.15 283.15
          283.15 283.15 283.15 283.15 283.15 283.15 283.15 283.15 283.15 283.15 283.15 283.15
          283.15 283.15 283.15 283.15 283.15 283.15 283.15 283.15 283.15 283.15 283.15 283.15
          283.15 283.15 283.15 283.15 283.15 283.15 283.15 283.15 283.15 283.15 283.15 283.15
          283.15 283.15 283.15 283.15 283.15 283.15 283.15 283.15 283.15 283.15 283.15 283.15
          283.15 283.15 283.15 283.15 283.15 283.15 283.15 283.15 283.15 283.15 283.15 283.15
          283.15 283.15 283.15 283.15 283.15 283.15 283.15 283.15 283.15 283.15 283.15 283.15
          283.15 283.15 283.15 283.15 283.15 283.15 283.15 283.15 283.15 283.15 283.15 283.15
          283.15 283.15 283.15 283.15 283.15 283.15 283.15 283.15 283.15 283.15 283.15 283.15
          283.15 283.15 283.15 283.15 283.15 283.15 283.15 283.15 283.15 283.15 283.15 283.15
          283.15 283.15 283.15 283.15 283.15 283.15 283.15 283.15 283.15 283.15 283.15 283.15
          283.15 283.15 283.15 283.15 283.15 283.15 283.15 283.15 283.15 283.15 283.15 283.15
          283.15 283.15 283.15 283.15 283.15 283.15 283.15 283.15 283.15 283.15 283.15 283.15
          283.15 283.15 283.15 283.15 283.15 283.15 283.15 283.15 283.15 283.15 283.15 283.15
          283.15 283.15 283.15 283.15 283.15 283.15 283.15 283.15 283.15 283.15 283.15 283.15
          283.15 283.15 283.15 283.15 283.15 283.15 283.15 283.15 283.15 283.15 283.15 283.15
          283.15 283.15 283.15 283.15 283.15 283.15 283.15 283.15 283.15 283.15 283.15 283.15
          283.15 283.15 283.15 283.15 283.15 283.15 283.15 283.15 283.15
        </DataArray>
        <DataArray type="Float32" Name="P" NumberOfComponents="1" format="ascii">
          100000 100000 100000 100000 100000 100000 100000 100000 100000 100000 100000 100000
          100000 100000 100000 100000 100000 100000 100000 100000 100000 100000 100000 100000
          100000 100000 100000 100000 100000 100000 100000 100000 100000 100000 100000 100000
          100000 100000 100000 100000 100000 100000 100000 100000 100000 100000 100000 100000
          100000 100000 100000 100000 100000 100000 100000 100000 100000 100000 100000 100000
          100000 100000 100000 100000 100000 100000 100000 100000 100000 100000 100000 100000
          100000 100000 100000 100000 100000 100000 100000 100000 100000 100000 100000 100000
          100000 100000 100000 100000 100000 100000 100000 100000 100000 100000 100000 100000
          100000 100000 100000 100000 100000 100000 100000 100000 100000 100000 100000 100000
          100000 100000 100000 100000 100000 100000 100000 100000 100000 100000 100000 100000
          100000 100000 100000 100000 100000 100000 100000 100000 100000 100000 100000 100000
          100000 100000 100000 100000 100000 100000 100000 100000 100000 100000 100000 100000
          100000 100000 100000 100000 100000 100000 100000 100000 100000 100000 100000 100000
          100000 100000 100000 100000 100000 100000 100000 100000 100000 100000 100000 100000
          100000 100000 100000 100000 100000 100000 100000 100000 100000 100000 100000 100000
          100000 100000 100000 100000 100000 100000 100000 100000 100000 100000 100000 100000
          100000 100000 100000 100000 100000 100000 100000 100000 100000 100000 100000 100000
          100000 100000 100000 100000 100000 100000 100000 100000 100000 100000 100000 100000
          100000 100000 100000 100000 100000 100000 100000 100000 100000 100000 100000 100000
          100000 100000 100000 100000 100000 100000 100000 100000 100000 100000 100000 100000
          100000 100000 100000 100000 100000 100000 100000 100000 100000 100000 100000 100000
          100000 100000 100000 100000 100000 100000 100000 100000 100000 100000 100000 100000
          100000 100000 100000 100000 100000 100000 100000 100000 100000 100000 100000 100000
          100000 100000 100000 100000 100000 100000 100000 100000 100000 100000 100000 100000
          100000 100000 100000 100000 100000 100000 100000 100000 100000 100000 100000 100000
          100000 100000 100000 100000 100000 100000 100000 100000 100000 100000 100000 100000
          100000 100000 100000 100000 100000 100000 100000 100000 100000 100000 100000 100000
          100000 100000 100000 100000 100000 100000 100000 100000 100000 100000 100000 100000
          100000 100000 100000 100000 100000 100000 100000 100000 100000 100000 100000 100000
          100000 100000 100000 100000 100000 100000 100000 100000 100000 100000 100000 100000
          100000 100000 100000 100000 100000 100000 100000 100000 100000 100000 100000 100000
          100000 100000 100000 100000 100000 100000 100000 100000 100000 100000 100000 100000
          100000 100000 100000 100000 100000 100000 100000 100000 100000 100000 100000 100000
          100000 100000 100000 100000 100000 100000 100000 100000 100000 100000 100000 100000
          100000 100000 100000 100000 100000 100000 100000 100000 100000 100000 100000 100000
          100000 100000 100000 100000 100000 100000 100000 100000 100000 100000 100000 100000
          100000 100000 100000 100000 100000 100000 100000 100000 100000 100000 100000 100000
          100000 100000 100000 100000 100000 100000 100000 100000 100000 100000 100000 100000
          100000 100000 100000 100000 100000 100000 100000 100000 100000 100000 100000 100000
          100000 100000 100000 100000 100000 100000 100000 100000 100000 100000 100000 100000
          100000 100000 100000 100000 100000 100000 100000 100000 100000 100000 100000 100000
          100000 100000 100000 100000 100000 100000 100000 100000 100000 100000 100000 100000
          100000 100000 100000 100000 100000 100000 100000 100000 100000 100000 100000 100000
          100000 100000 100000 100000 100000 100000 100000 100000 100000 100000 100000 100000
          100000 100000 100000 100000 100000 100000 100000 100000 100000 100000 100000 100000
          100000 100000 100000 100000 100000 100000 100000 100000 100000 100000 100000 100000
          100000 100000 100000 100000 100000 100000 100000 100000 100000 100000 100000 100000
          100000 100000 100000 100000 100000 100000 99999.9 99999.9 99999.9 99999.9 99999.9 99999.9
          99999.9 99999.9 99999.9 99999.9 99999.9 99999.9 99999.9 99999.9 99999.9 100000 100000 100000
          100000 100000 100000 100000 100000 100000 100000 100000 100000 100000 100000 100000
          100000 99999.9 99999.9 99999.9 99999.9 99999.9 99999.9 99999.9 99999.9 99999.9 99999.9 99999.9
          99999.9 99999.9 99999.9 99999.9 99999.9 99999.9 99999.9 99999.9 100000 100000 100000 100000
          100000 100000 100000 99999.9 99999.9 99999.9 99999.9 99999.9 99999.9 99999.9 99999.9 99999.9
          99999.9 99999.9 99999.9 99999.9 99999.9 99999.9 99999.9 99999.9 99999.9 99999.9 99999.9 99999.9
          99999.9 99999.9 99999.9 99999.9 99999.9 99999.9 99999.9 99999.9 99999.9 99999.9 99999.9 99999.9
          99999.9 99999.9 99999.9 99999.9 99999.9 99999.9 99999.9 99999.9 99999.9 99999.9 99999.9 99999.9
          99999.9 99999.9 99999.9 99999.9 99999.9 99999.9 99999.9 99999.9 99999.9 99999.9 99999.9 99999.9
          99999.9 99999.9 99999.9 99999.9 99999.9 99999.9 99999.9 99999.9 99999.9 99999.9 99999.9 99999.9
          99999.9 99999.9 99999.9 99999.9 99999.9 99999.9 99999.9 99999.9 99999.9 99999.9 99999.9 99999.9
          99999.9 99999.9 99999.9 99999.9 99999.9 99999.9 99999.9 99999.9 99999.9 99999.9 99999.9 99999.9
          99999.9 99999.9 99999.9 99999.9 99999.9 99999.9 99999.9 99999.9 99999.9 99999.9 99999.9 99999.9
          99999.9 99999.9 99999.9 99999.9 99999.9 99999.9 99999.9 99999.9 99999.9 99999.9 99999.9 99999.9
          99999.9 99999.9 99999.9 99999.9 99999.9 99999.9 99999.9 99999.9 99999.9 99999.9 99999.9 99999.9
          99999.9 99999.9 99999.9 99999.9 99999.9 99999.9 99999.9 99999.9 99999.9 99999.9 99999.9 99999.9
          99999.9 99999.9 99999.9 99999.9 99999.9 99999.9 99999.9 99999.9 99999.9 99999.9 99999.9 99999.9
          99999.9 99999.9 99999.9 99999.9 99999.9 99999.9 99999.9 99999.9 99999.9 99999.9 99999.9 99999.9
          99999.9 99999.9 99999.9 99999.9 99999.9 99999.9 99999.9 99999.9 99999.9 99999.9 99999.9 99999.9
          99999.9 99999.9 99999.9 99999.9 99999.9 99999.9 99999.9 99999.9 99999.9 99999.9 99999.9 99999.9
          99999.9 99999.9 99999.9 99999.9 99999.9 99999.9 99999.9 99999.9 99999.9 99999.9 99999.9 99999.9
          99999.9 99999.9 99999.9 99999.9 99999.9 99999.9 99999.9 99999.9 99999.9 99999.9 99999.9 99999.9
          99999.9 99999.9 99999.9 99999.9 99999.9 99999.9 99999.9 99999.9 99999.9 99999.9 99999.9 99999.9
          99999.9 99999.9 99999.9 99999.9 99999.9 99999.9 99999.9 99999.9 99999.9 99999.9 99999.9 99999.9
          99999.9 99999.9 99999.9 99999.9 99999.9 99999.9 99999.9 99999.9 99999.9 99999.9 99999.9 99999.9
          99999.9 99999.9 99999.9 99999.9 99999.9 99999.9 99999.9 99999.9 99999.9 99999.9 99999.9 99999.9
          99999.9 99999.9 99999.9 99999.9 99999.9 99999.9 99999.9 99999.9 99999.9 99999.9 99999.9 99999.9
          99999.9 99999.9 99999.9 99999.9 99999.9 99999.9 99999.9 99999.9 99999.9 99999.9 99999.9 99999.9
          99999.9 99999.9 99999.9 99999.9 99999.9 99999.9 99999.9 99999.9 99999.9 99999.9 99999.9 99999.9
          99999.9 99999.9 99999.9 99999.9 99999.9 99999.9 99999.9 99999.9 99999.9 99999.9 99999.9 99999.9
          99999.9 99999.9 99999.9 99999.9 99999.9 99999.9 99999.9 99999.9 99999.9 99999.9 99999.9 99999.9
          99999.9 99999.9 99999.9 99999.9 99999.9 99999.9 99999.9 99999.9 99999.9 99999.9 99999.9 99999.9
          99999.9 99999.9 99999.9 99999.9 99999.9 99999.9 99999.9 99999.9 99999.9 99999.9 99999.9 99999.9
          99999.9 99999.9 99999.9 99999.9 99999.9 99999.9 99999.9 99999.9 99999.9 99999.9 99999.9 99999.9
          99999.9 99999.9 99999.9 99999.9 99999.9 99999.9 99999.9 99999.9 99999.9 99999.9 99999.9 99999.9
          99999.9 99999.9 99999.9 99999.9 99999.9 99999.9 99999.9 99999.9 99999.9 99999.9 99999.9 99999.9
          99999.9 99999.9 99999.9 99999.9 99999.9 99999.9 99999.9 99999.9 99999.9 99999.9 99999.9 99999.9
          99999.9 99999.9 99999.9 99999.9 99999.9 99999.9 99999.9 99999.9 99999.9 99999.9 99999.9 99999.9
          99999.9 99999.9 99999.9 99999.9 99999.9 99999.9 99999.9 99999.9 99999.9 99999.9 99999.9 99999.9
          99999.9 99999.9 99999.9 99999.9 99999.9 99999.9 99999.9 99999.9 99999.9 99999.9 99999.9 99999.9
          99999.9 99999.9 99999.9 99999.9 99999.9 99999.9 99999.9 99999.9 99999.9 99999.9 99999.9 99999.9
          99999.9 99999.9 99999.9 99999.9 99999.9 99999.9 99999.9 99999.9 99999.9 99999.9 99999.9 99999.9
          99999.9 99999.9 99999.9 99999.9 99999.9 99999.9 99999.9 99999.9 99999.9
        </DataArray>
        <DataArray type="Float32" Name="delP" NumberOfComponents="1" format="ascii">
          0.0361651 0.0361665 0.0313502 0.0313515 0.0358995 0.0309141 0.0360941 0.0312551 0.0352315 0.0301872 0.0356309 0.030861
          0.0337526 0.0287876 0.0344552 0.0298115 0.0309491 0.026241 0.032292 0.0278247 0.0263344 0.0222719 0.0290833 0.0248884
          0.0194953 0.0169774 0.0251494 0.0213249 0.0102851 0.0112393 0.0216035 0.0180881 0 0.00811993 0.0216035 0.0180881
          0.0102851 0.0112393 0.0251494 0.0213249 0.0194953 0.0169774 0.0290833 0.0248884 0.0263344 0.0222719 0.032292 0.0278247
          0.0309491 0.026241 0.0344552 0.0298115 0.0337526 0.0287876 0.0356309 0.030861 0.0352315 0.0301872 0.0360941 0.0312551
          0.0358995 0.0309141 0.0361665 0.0313515 0.0361651 0.0313502 0.0266821 0.0266835 0.0262833 0.0266175 0.0256788 0.0263202
          0.0245283 0.0253984 0.0223754 0.0235715 0.0190563 0.0209123 0.0148098 0.0178716 0.0104134 0.0154455 0.00761081 0.0154455
          0.0104134 0.0178716 0.0148098 0.0209123 0.0190563 0.0235715 0.0223754 0.0253984 0.0245283 0.0263202 0.0256788 0.0266175
          0.0262833 0.0266835 0.0266821 0.0217418 0.0217432 0.0213333 0.0216647 0.0207664 0.0213777 0.0197267 0.0204824 0.0178131
          0.0187411 0.0149912 0.0163079 0.011675 0.0137024 0.00877385 0.0118494 0.00771849 0.0118494 0.00877385 0.0137024 0.011675
          0.0163079 0.0149912 0.0187411 0.0178131 0.0204824 0.0197267 0.0213777 0.0207664 0.0216647 0.0213333 0.0217432 0.0217418
          0.0172543 0.0172552 0.016936 0.0172183 0.0165184 0.0170098 0.0156824 0.0162073 0.0140388 0.014605 0.0116032 0.0124174
          0.0087905 0.0101754 0.00631565 0.00863678 0.00512027 0.00863678 0.00631565 0.0101754 0.0087905 0.0124174 0.0116032 0.014605
          0.0140388 0.0162073 0.0156824 0.0170098 0.0165184 0.0172183 0.016936 0.0172552 0.0172543 0.012195 0.0121957 0.011905
          0.0121428 0.0115266 0.0119081 0.010738 0.0110655 0.00919295 0.00946743 0.00699367 0.00739895 0.0046215 0.00541479 0.00277339
          0.0041851 0.00213931 0.0041851 0.00277339 0.00541479 0.0046215 0.00739895 0.00699367 0.00946743 0.00919295 0.0110655 0.010738
          0.0119081 0.0115266 0.0121428 0.011905 0.0121957 0.012195 0.00788938 0.00788965 0.00768216 0.00787851 0.00742493 0.00769968
          0.00675818 0.00690185 0.00534373 0.00537517 0.00331985 0.00344049 0.00115347 0.00162565 -0.000568999 0.000491381 -0.00128352 0.000491381
          -0.000568999 0.00162565 0.00115347 0.00344049 0.00331985 0.00537517 0.00534373 0.00690185 0.00675818 0.00769968 0.00742493 0.00787851
          0.00768216 0.00788965 0.00788938 0.00269844 0.00269846 0.00251177 0.00265729 0.00225257 0.00240296 0.00153745 0.0014827 7.40437e-05
          -0.000143071 -0.00192082 -0.00208989 -0.00393876 -0.00381673 -0.00541831 -0.00481986 -0.00593518 -0.00481986 -0.00541831 -0.00381673 -0.00393876
          -0.00208989 -0.00192082 -0.000143071 7.40437e-05 0.0014827 0.00153745 0.00240296 0.00225257 0.00265729 0.00251177 0.00269846 0.00269844
          -0.0014292 -0.00142953 -0.00155543 -0.00143769 -0.0017379 -0.00167276 -0.00241484 -0.00260944 -0.00385869 -0.00423966 -0.00581092 -0.00614926
          -0.00776801 -0.00782081 -0.00922198 -0.00880428 -0.009776 -0.00880428 -0.00922198 -0.00782081 -0.00776801 -0.00614926 -0.00581092 -0.00423966
          -0.00385869 -0.00260944 -0.00241484 -0.00167276 -0.0017379 -0.00143769 -0.00155543 -0.00142953 -0.0014292 -0.00676069 -0.00676116 -0.00688599
          -0.00682137 -0.00712633 -0.0071946 -0.00795188 -0.00834243 -0.00956925 -0.0101682 -0.0116354 -0.0121938 -0.0136103 -0.0138896 -0.0150031
          -0.0148416 -0.015494 -0.0148416 -0.0150031 -0.0138896 -0.0136103 -0.0121938 -0.0116354 -0.0101682 -0.00956925 -0.00834243 -0.00795188
          -0.0071946 -0.00712633 -0.00682137 -0.00688599 -0.00676116 -0.00676069 -0.010704 -0.0107047 -0.0107899 -0.0107454 -0.0109983 -0.0111427
          -0.0118574 -0.0123628 -0.0135292 -0.0142452 -0.0156207 -0.0162846 -0.0175929 -0.0179712 -0.018987 -0.0189227 -0.0194942 -0.0189227
          -0.018987 -0.0179712 -0.0175929 -0.0162846 -0.0156207 -0.0142452 -0.0135292 -0.0123628 -0.0118574 -0.0111427 -0.0109983 -0.0107454
          -0.0107899 -0.0107047 -0.010704 -0.0161668 -0.0161676 -0.0162714 -0.0162861 -0.0165964 -0.0168895 -0.0176958 -0.0183999 -0.0196328
          -0.0205472 -0.021924 -0.0227647 -0.0240001 -0.0245357 -0.0254178 -0.0255055 -0.0259154 -0.0255055 -0.0254178 -0.0245357 -0.0240001
          -0.0227647 -0.021924 -0.0205472 -0.0196328 -0.0183999 -0.0176958 -0.0168895 -0.0165964 -0.0162861 -0.0162714 -0.0161676 -0.0161668
          -0.0199029 -0.0199039 -0.0199837 -0.0200175 -0.020317 -0.0206867 -0.0215026 -0.0223042 -0.023527 -0.0245222 -0.0258566 -0.0267561
          -0.0279315 -0.028516 -0.0293412 -0.029478 -0.0298403 -0.029478 -0.0293412 -0.028516 -0.0279315 -0.0267561 -0.0258566 -0.0245222
          -0.023527 -0.0223042 -0.0215026 -0.0206867 -0.020317 -0.0200175 -0.0199837 -0.0199039 -0.0199029 -0.0254626 -0.0254636 -0.0255778
          -0.0256813 -0.026085 -0.0266213 -0.0275841 -0.0285848 -0.0299257 -0.0310986 -0.0324883 -0.0335291 -0.0346962 -0.0353913 -0.0361597
          -0.0363891 -0.0366683 -0.0363891 -0.0361597 -0.0353913 -0.0346962 -0.0335291 -0.0324883 -0.0310986 -0.0299257 -0.0285848 -0.0275841
          -0.0266213 -0.026085 -0.0256813 -0.0255778 -0.0254636 -0.0254626 -0.0289528 -0.0289539 -0.0290546 -0.0291813 -0.0296045 -0.0302196
          -0.0312164 -0.0322925 -0.0336331 -0.034846 -0.0361976 -0.0372511 -0.0383639 -0.0390657 -0.0397865 -0.0400322 -0.0402807 -0.0400322
          -0.0397865 -0.0390657 -0.0383639 -0.0372511 -0.0361976 -0.034846 -0.0336331 -0.0322925 -0.0312164 -0.0302196 -0.0296045 -0.0291813
          -0.0290546 -0.0289539 -0.0289528 -0.0345472 -0.0345482 -0.0346938 -0.0349046 -0.0354701 -0.0362659 -0.03744 -0.0387036 -0.0401787
          -0.0415386 -0.0429605 -0.0441173 -0.0452452 -0.046019 -0.0467174 -0.0470171 -0.0472229 -0.0470171 -0.0467174 -0.046019 -0.0452452
          -0.0441173 -0.0429605 -0.0415386 -0.0401787 -0.0387036 -0.03744 -0.0362659 -0.0354701 -0.0349046 -0.0346938 -0.0345482 -0.0345472
          -0.0377416 -0.0377429 -0.0378807 -0.0381236 -0.0387283 -0.0395984 -0.0408027 -0.0421051 -0.0435555 -0.0449029 -0.0462589 -0.0473773
          -0.048431 -0.0491707 -0.0498138 -0.0501042 -0.0502866 -0.0501042 -0.0498138 -0.0491707 -0.048431 -0.0473773 -0.0462589 -0.0449029
          -0.0435555 -0.0421051 -0.0408027 -0.0395984 -0.0387283 -0.0381236 -0.0378807 -0.0377429 -0.0377416 -0.0432793 -0.0432804 -0.0434686
          -0.0438134 -0.0445858 -0.0456381 -0.0470205 -0.0484793 -0.0500476 -0.051497 -0.0529087 -0.0540868 -0.055153 -0.0559288 -0.0565604
          -0.0568768 -0.0570377 -0.0568768 -0.0565604 -0.0559288 -0.055153 -0.0540868 -0.0529087 -0.051497 -0.0500476 -0.0484793 -0.0470205
          -0.0456381 -0.0445858 -0.0438134 -0.0434686 -0.0432804 -0.0432793 -0.0461236 -0.0461247 -0.0463088 -0.0466988 -0.0475161 -0.0486236
          -0.0500026 -0.0514441 -0.0529353 -0.0543077 -0.0556058 -0.0566907 -0.0576499 -0.058353 -0.0589135 -0.0591998 -0.0593394 -0.0591998
          -0.0589135 -0.058353 -0.0576499 -0.0566907 -0.0556058 -0.0543077 -0.0529353 -0.0514441 -0.0500026 -0.0486236 -0.0475161 -0.0466988
          -0.0463088 -0.0461247 -0.0461236 -0.0514839 -0.0514847 -0.0517214 -0.0522323 -0.0532234 -0.0544918 -0.0560162 -0.0575589 -0.0591239
          -0.0605403 -0.0618608 -0.0629589 -0.0639144 -0.0646208 -0.0651691 -0.0654603 -0.0655896 -0.0654603 -0.0651691 -0.0646208 -0.0639144
          -0.0629589 -0.0618608 -0.0605403 -0.0591239 -0.0575589 -0.0560162 -0.0544918 -0.0532234 -0.0522323 -0.0517214 -0.0514847 -0.0514839
          -0.0539247 -0.0539257 -0.0541645 -0.0547347 -0.0557566 -0.0570377 -0.0584962 -0.0599477 -0.0613659 -0.0626365 -0.0637899 -0.064744
          -0.0655594 -0.0661609 -0.066623 -0.0668684 -0.0669768 -0.0668684 -0.066623 -0.0661609 -0.0655594 -0.064744 -0.0637899 -0.0626365
          -0.0613659 -0.0599477 -0.0584962 -0.0570377 -0.0557566 -0.0547347 -0.0541645 -0.0539257 -0.0539247 -0.058958 -0.0589586 -0.0592554
          -0.0599581 -0.0611305 -0.0625183 -0.0640572 -0.0655339 -0.0669658 -0.0682177 -0.0693555 -0.0702808 -0.0710751 -0.0716541 -0.0721013
          -0.0723364 -0.0724417 -0.0723364 -0.0721013 -0.0716541 -0.0710751 -0.0702808 -0.0693555 -0.0682177 -0.0669658 -0.0655339 -0.0640572
          -0.0625183 -0.0611305 -0.0599581 -0.0592554 -0.0589586 -0.058958 -0.06095 -0.0609507 -0.0612684 -0.0620326 -0.0631956 -0.0645241
          -0.0659158 -0.0672195 -0.0684374 -0.0694843 -0.0704143 -0.0711602 -0.0717946 -0.0722495 -0.0726036 -0.0727839 -0.0728698 -0.0727839
          -0.0726036 -0.0722495 -0.0717946 -0.0711602 -0.0704143 -0.0694843 -0.0684374 -0.0672195 -0.0659158 -0.0645241 -0.0631956 -0.0620326
          -0.0612684 -0.0609507 -0.06095 -0.0654834 -0.0654835 -0.0658777 -0.0667564 -0.0680105 -0.0693537 -0.0707419 -0.0719866 -0.0731622
          -0.0741381 -0.0750265 -0.0757157 -0.0763222 -0.0767402 -0.0770818 -0.0772433 -0.077332 -0.0772433 -0.0770818 -0.0767402 -0.0763222
          -0.0757157 -0.0750265 -0.0741381 -0.0731622 -0.0719866 -0.0707419 -0.0693537 -0.0680105 -0.0667564 -0.0658777 -0.0654835 -0.0654834
          -0.0670002 -0.0670002 -0.0674551 -0.0683572 -0.0695353 -0.0707219 -0.0718882 -0.0728921 -0.073816 -0.074557 -0.0752288 -0.0757304
          -0.0761812 -0.0764748 -0.0767302 -0.0768361 -0.0769096 -0.0768361 -0.0767302 -0.0764748 -0.0761812 -0.0757304 -0.0752288 -0.074557
          -0.073816 -0.0728921 -0.0718882 -0.0707219 -0.0695353 -0.0683572 -0.0674551 -0.0670002 -0.0670002 -0.0708584 -0.0708574 -0.0714166
          -0.0723521 -0.073529 -0.0746141 -0.075704 -0.0765827 -0.0774374 -0.0780823 -0.0787125 -0.0791519 -0.0795844 -0.0798411 -0.0800938
          -0.0801793 -0.0802615 -0.0801793 -0.0800938 -0.0798411 -0.0795844 -0.0791519 -0.0787125 -0.0780823 -0.0774374 -0.0765827 -0.075704
          -0.0746141 -0.073529 -0.0723521 -0.0714166 -0.0708574 -0.0708584 -0.0719182 -0.0719168 -0.0725715 -0.0734254 -0.0744483 -0.0752865
          -0.0761248 -0.0767417 -0.0773617 -0.0777878 -0.0782351 -0.0785122 -0.0788205 -0.0789726 -0.0791596 -0.0791973 -0.0792709 -0.0791973
          -0.0791596 -0.0789726 -0.0788205 -0.0785122 -0.0782351 -0.0777878 -0.0773617 -0.0767417 -0.0761248 -0.0752865 -0.0744483 -0.0734254
          -0.0725715 -0.0719168 -0.0719182 -0.0749644 -0.0749613 -0.0756952 -0.0764325 -0.0773539 -0.0780033 -0.0787399 -0.0792172 -0.0797844
          -0.0801279 -0.0805593 -0.0807915 -0.0811031 -0.0812305 -0.0814283 -0.0814499 -0.0815368 -0.0814499 -0.0814283 -0.0812305 -0.0811031
          -0.0807915 -0.0805593 -0.0801279 -0.0797844 -0.0792172 -0.0787399 -0.0780033 -0.0773539 -0.0764325 -0.0756952 -0.0749613 -0.0749644
          -0.0756486 -0.0756446 -0.0764055 -0.0769319 -0.07765 -0.0780425 -0.0785727 -0.0788437 -0.0792489 -0.079439 -0.0797536 -0.0798769
          -0.0801125 -0.0801701 -0.0803295 -0.0803179 -0.0804024 -0.0803179 -0.0803295 -0.0801701 -0.0801125 -0.0798769 -0.0797536 -0.079439
          -0.0792489 -0.0788437 -0.0785727 -0.0780425 -0.07765 -0.0769319 -0.0764055 -0.0756446 -0.0756486 -0.0777789 -0.0777723 -0.0784265
          -0.0787322 -0.0792957 -0.0795238 -0.0799864 -0.0801718 -0.0805664 -0.0807177 -0.0810467 -0.0811539 -0.0814105 -0.0814598 -0.0816381
          -0.0816176 -0.0817155 -0.0816176 -0.0816381 -0.0814598 -0.0814105 -0.0811539 -0.0810467 -0.0807177 -0.0805664 -0.0801718 -0.0799864
          -0.0795238 -0.0792957 -0.0787322 -0.0784265 -0.0777723 -0.0777789 -0.0781153 -0.0781067 -0.0785973 -0.078716 -0.0791227 -0.079219
          -0.0795807 -0.0796766 -0.0800027 -0.080089 -0.0803706 -0.0804306 -0.0806569 -0.0806749 -0.0808386 -0.0808022 -0.0809009 -0.0808022
          -0.0808386 -0.0806749 -0.0806569 -0.0804306 -0.0803706 -0.080089 -0.0800027 -0.0796766 -0.0795807 -0.079219 -0.0791227 -0.078716