<?xml version="1.0"?>
<VTKFile type="UnstructuredGrid" version="0.1" byte_order="LittleEndian">
  <UnstructuredGrid>
    <Piece NumberOfCells="324" NumberOfPoints="361">
      <PointData Scalars="temperature" Vectors="v">
        <DataArray type="Float32" Name="temperature" NumberOfComponents="1" format="ascii">
          283.15 283.15 283.15 283.15 283.15 283.15 283.15 283.15 283.15 283.15 283.15 283.15
          283.15 283.15 283.15 283.15 283.15 283.15 283.15 283.15 283.15 283.15 283.15 283.15
          283.15 283.15 283.15 283.15 283.15 283.15 283.15 283.15 283.15 283.15 283.15 283.15
          283.15 283.15 283.15 283.15 283.15 283.15 283.15 283.15 283.15 283.15 283.15 283.15
          283.15 283.15 283.15 283.15 283.15 283.15 283.15 283.15 283.15 283.15 283.15 283.15
          283.15 283.15 283.15 283.15 283.15 283.15 283.15 283.15 283.15 283.15 283.15 283.15
          283.15 283.15 283.15 283.15 283.15 283.15 283.15 283.15 283.15 283.15 283.15 283.15
          283.15 283.15 283.15 283.15 283.15 283.15 283.15 283.15 283.15 283.15 283.15 283.15
          283.15 283.15 283.15 283.15 283.15 283.15 283.15 283.15 283.15 283.15 283.15 283.15
          283.15 283.15 283.15 283.15 283.15 283.15 283.15 283.15 283.15 283.15 283.15 283.151
          283.15 283.15 283.15 283.15 283.15 283.15 283.15 283.151 283.15 283.15 283.15 283.15
          283.15 283.15 283.15 283.15 283.15 283.15 283.152 283.152 283.151 283.151 283.151 283.151
          283.151 283.152 283.152 283.15 283.15 283.15 283.15 283.15 283.15 283.15 283.15 283.15
          283.15 283.155 283.154 283.153 283.152 283.152 283.152 283.153 283.154 283.155 283.15 283.15
          283.15 283.15 283.15 283.15 283.15 283.15 283.15 283.15 283.161 283.158 283.156 283.155
          283.155 283.155 283.156 283.158 283.161 283.15 283.15 283.15 283.15 283.15 283.15 283.15
          283.15 283.15 283.15 283.169 283.164 283.161 283.159 283.159 283.159 283.161 283.164 283.169
          283.15 283.15 283.15 283.15 283.15 283.15 283.15 283.15 283.15 283.15 283.18 283.173
          283.168 283.166 283.165 283.166 283.168 283.173 283.18 283.15 283.15 283.15 283.15 283.15
          283.15 283.15 283.15 283.15 283.151 283.195 283.185 283.178 283.174 283.173 283.174 283.178
          283.185 283.195 283.151 283.15 283.15 283.15 283.15 283.15 283.15 283.15 283.15 283.151
          283.214 283.201 283.191 283.185 283.184 283.185 283.191 283.201 283.214 283.151 283.15 283.15
          283.15 283.15 283.15 283.15 283.15 283.15 283.151 283.237 283.22 283.206 283.199 283.197
          283.199 283.206 283.22 283.237 283.151 283.15 283.15 283.15 283.15 283.15 283.15 283.15
          283.15 283.152 283.263 283.242 283.225 283.216 283.213 283.216 283.225 283.242 283.263 283.152
          283.15 283.15 283.15 283.15 283.15 283.15 283.15 283.15 283.153 283.292 283.266 283.246
          283.235 283.232 283.235 283.246 283.266 283.292 283.153 283.15 283.15 283.15 283.15 283.15
          283.15 283.15 283.15 283.154 283.323 283.292 283.269 283.256 283.252 283.256 283.269 283.292
          283.323 283.154 283.15 283.15 283.15 283.15 283.15 283.151 283.151 283.151 283.154 283.339
          283.306 283.281 283.267 283.263 283.267 283.281 283.306 283.339 283.154 283.151 283.151 283.151
          283.15
        </DataArray>
        <DataArray type="Float32" Name="pg" NumberOfComponents="1" format="ascii">
          100000 100000 99999.7 99999.7 100000 99999.7 100000 99999.7 100000 99999.7 100000 99999.7
          100000 99999.7 100000 99999.7 100000 99999.7 100000 99999.7 100000 99999.7 100000 99999.7
          100000 99999.7 100000 99999.7 100000 99999.7 100000 99999.7 100000 99999.7 100000 99999.7
          100000 99999.7 99999.1 99999.1 99999.1 99999.1 99999.1 99999.1 99999.1 99999.1 99999.1 99999.1
          99999.1 99999.1 99999.1 99999.1 99999.1 99999.1 99999.1 99999.1 99999.1 99998.4 99998.4 99998.4
          99998.4 99998.4 99998.4 99998.4 99998.4 99998.4 99998.4 99998.4 99998.4 99998.4 99998.4 99998.4
          99998.4 99998.4 99998.4 99998.4 99997.7 99997.7 99997.7 99997.7 99997.7 99997.7 99997.7 99997.7
          99997.7 99997.7 99997.7 99997.7 99997.7 99997.7 99997.7 99997.7 99997.7 99997.7 99997.7 99997
          99997 99997 99997 99997 99997 99997 99997 99997 99997 99997 99997 99997
          99997 99997 99997 99997 99997 99997 99996.4 99996.4 99996.4 99996.4 99996.4 99996.4
          99996.4 99996.4 99996.4 99996.4 99996.4 99996.4 99996.4 99996.4 99996.4 99996.4 99996.4 99996.4
          99996.4 99995.7 99995.7 99995.7 99995.7 99995.7 99995.7 99995.7 99995.7 99995.7 99995.7 99995.7
          99995.7 99995.7 99995.7 99995.7 99995.7 99995.7 99995.7 99995.7 99995 99995 99995 99995
          99995 99995 99995 99995 99995 99995 99995 99995 99995 99995 99995 99995
          99995 99995 99995 99994.4 99994.4 99994.4 99994.4 99994.4 99994.4 99994.4 99994.4 99994.4
          99994.4 99994.4 99994.4 99994.4 99994.4 99994.4 99994.4 99994.4 99994.4 99994.4 99993.7 99993.7
          99993.7 99993.7 99993.7 99993.7 99993.7 99993.7 99993.7 99993.7 99993.7 99993.7 99993.7 99993.7
          99993.7 99993.7 99993.7 99993.7 99993.7 99993 99993 99993 99993 99993 99993 99993
          99993 99993 99993 99993 99993 99993 99993 99993 99993 99993 99993 99993
          99992.4 99992.4 99992.4 99992.4 99992.4 99992.4 99992.4 99992.4 99992.4 99992.4 99992.4 99992.4
          99992.4 99992.4 99992.4 99992.4 99992.4 99992.4 99992.4 99991.7 99991.7 99991.7 99991.7 99991.7
          99991.7 99991.7 99991.7 99991.7 99991.7 99991.7 99991.7 99991.7 99991.7 99991.7 99991.7 99991.7
          99991.7 99991.7 99991 99991 99991 99991 99991 99991 99991 99991 99991 99991
          99991 99991 99991 99991 99991 99991 99991 99991 99991 99990.3 99990.3 99990.3
          99990.3 99990.3 99990.3 99990.3 99990.3 99990.3 99990.3 99990.3 99990.3 99990.3 99990.3 99990.3
          99990.3 99990.3 99990.3 99990.3 99989.7 99989.7 99989.7 99989.7 99989.7 99989.7 99989.7 99989.7
          99989.7 99989.7 99989.7 99989.7 99989.7 99989.7 99989.7 99989.7 99989.7 99989.7 99989.7 99989
          99989 99989 99989 99989 99989 99989 99989 99989 99989 99989 99989 99989
          99989 99989 99989 99989 99989 99989 99988.3 99988.3 99988.3 99988.3 99988.3 99988.3
          99988.3 99988.3 99988.3 99988.3 99988.3 99988.3 99988.3 99988.3 99988.3 99988.3 99988.3 99988.3
          99988.3
        </DataArray>
        <DataArray type="Float32" Name="delP" NumberOfComponents="1" format="ascii">
          0.401352 0.401351 -0.26903 -0.26903 0.401354 -0.269028 0.401348 -0.269033 0.401353 -0.269028 0.401344 -0.269037
          0.401351 -0.26903 0.40134 -0.269041 0.401349 -0.269031 0.401339 -0.269042 0.401349 -0.269031 0.40134 -0.269041
          0.401351 -0.26903 0.401344 -0.269037 0.401353 -0.269028 0.401348 -0.269033 0.401354 -0.269028 0.401351 -0.26903
          0.401352 -0.26903 -0.939401 -0.939401 -0.939398 -0.939404 -0.939399 -0.93941 -0.939402 -0.939414 -0.939403 -0.939415
          -0.939403 -0.939414 -0.939402 -0.93941 -0.939399 -0.939404 -0.939398 -0.939401 -0.939401 -1.60977 -1.60977 -1.60977
          -1.60978 -1.60977 -1.60978 -1.60977 -1.60979 -1.60978 -1.60979 -1.60978 -1.60979 -1.60977 -1.60978 -1.60977
          -1.60978 -1.60977 -1.60977 -1.60977 -2.28013 -2.28013 -2.28013 -2.28014 -2.28013 -2.28015 -2.28014 -2.28015
          -2.28014 -2.28016 -2.28014 -2.28015 -2.28014 -2.28015 -2.28013 -2.28014 -2.28013 -2.28013 -2.28013 -2.95049
          -2.95049 -2.95049 -2.9505 -2.95049 -2.95051 -2.9505 -2.95052 -2.9505 -2.95052 -2.9505 -2.95052 -2.9505
          -2.95051 -2.95049 -2.9505 -2.95049 -2.95049 -2.95049 -3.62084 -3.62084 -3.62084 -3.62085 -3.62084 -3.62087
          -3.62085 -3.62088 -3.62086 -3.62088 -3.62086 -3.62088 -3.62085 -3.62087 -3.62084 -3.62085 -3.62084 -3.62084
          -3.62084 -4.29119 -4.29119 -4.29118 -4.2912 -4.29119 -4.29123 -4.29121 -4.29124 -4.29121 -4.29125 -4.29121
          -4.29124 -4.29121 -4.29123 -4.29119 -4.2912 -4.29118 -4.29119 -4.29119 -4.96152 -4.96152 -4.96151 -4.96154
          -4.96152 -4.96158 -4.96155 -4.96159 -4.96156 -4.9616 -4.96156 -4.96159 -4.96155 -4.96158 -4.96152 -4.96154
          -4.96151 -4.96152 -4.96152 -5.63185 -5.63185 -5.63184 -5.63188 -5.63186 -5.63193 -5.63189 -5.63195 -5.6319
          -5.63195 -5.6319 -5.63195 -5.63189 -5.63193 -5.63186 -5.63188 -5.63184 -5.63185 -5.63185 -6.30216 -6.30216
          -6.30215 -6.30219 -6.30217 -6.30226 -6.30222 -6.30229 -6.30224 -6.30229 -6.30224 -6.30229 -6.30222 -6.30226
          -6.30217 -6.30219 -6.30215 -6.30216 -6.30216 -6.97247 -6.97247 -6.97245 -6.97251 -6.97248 -6.97259 -6.97254
          -6.97262 -6.97256 -6.97263 -6.97256 -6.97262 -6.97254 -6.97259 -6.97248 -6.97251 -6.97245 -6.97247 -6.97247
          -7.64275 -7.64275 -7.64274 -7.6428 -7.64277 -7.6429 -7.64285 -7.64293 -7.64286 -7.64294 -7.64286 -7.64293
          -7.64285 -7.6429 -7.64277 -7.6428 -7.64274 -7.64275 -7.64275 -8.31302 -8.31302 -8.31301 -8.31307 -8.31305
          -8.31319 -8.31314 -8.31323 -8.31315 -8.31323 -8.31315 -8.31323 -8.31314 -8.31319 -8.31305 -8.31307 -8.31301
          -8.31302 -8.31302 -8.98327 -8.98327 -8.98325 -8.98332 -8.9833 -8.98345 -8.98339 -8.98349 -8.98341 -8.98349
          -8.98341 -8.98349 -8.98339 -8.98345 -8.9833 -8.98332 -8.98325 -8.98327 -8.98327 -9.6535 -9.6535 -9.65349
          -9.65355 -9.65353 -9.65368 -9.65363 -9.65371 -9.65365 -9.65372 -9.65365 -9.65371 -9.65363 -9.65368 -9.65353
          -9.65355 -9.65349 -9.6535 -9.6535 -10.3237 -10.3237 -10.3237 -10.3238 -10.3237 -10.3239 -10.3238 -10.3239
          -10.3238 -10.3239 -10.3238 -10.3239 -10.3238 -10.3239 -10.3237 -10.3238 -10.3237 -10.3237 -10.3237 -10.9939
          -10.9939 -10.9939 -10.9939 -10.9939 -10.994 -10.994 -10.994 -10.994 -10.994 -10.994 -10.994 -10.994
          -10.994 -10.9939 -10.9939 -10.9939 -10.9939 -10.9939 -11.6641 -11.6641 -11.6641 -11.6641 -11.6641 -11.6641
          -11.6641 -11.6641 -11.6641 -11.6641 -11.6641 -11.6641 -11.6641 -11.6641 -11.6641 -11.6641 -11.6641 -11.6641
          -11.6641
        </DataArray>
        <DataArray type="Float32" Name="xH2Og" NumberOfComponents="1" format="ascii">
          0.000160744 0.000160744 0.000160744 0.000160744 0.000160744 0.000160744 0.000160744 0.000160744 0.000160744 0.000160744 0.000160744 0.000160744
          0.000160744 0.000160744 0.000160744 0.000160744 0.000160744 0.000160744 0.000160744 0.000160744 0.000160744 0.000160744 0.000160744 0.000160744
          0.000160744 0.000160744 0.000160744 0.000160744 0.000160744 0.000160744 0.000160744 0.000160744 0.000160744 0.000160744 0.000160744 0.000160744
          0.000160744 0.000160744 0.000160744 0.000160744 0.000160744 0.000160744 0.000160744 0.000160744 0.000160744 0.000160744 0.000160744 0.000160744
          0.000160744 0.000160744 0.000160744 0.000160744 0.000160744 0.000160744 0.000160744 0.000160744 0.000160744 0.000160744 0.000160744 0.000160744
          0.000160744 0.000160744 0.000160744 0.000160744 0.000160744 0.000160744 0.000160744 0.000160744 0.000160744 0.000160744 0.000160744 0.000160744
          0.000160744 0.000160744 0.000160744 0.000160744 0.000160744 0.000160744 0.000160744 0.000160744 0.000160744 0.000160744 0.000160744 0.000160744
          0.000160744 0.000160744 0.000160744 0.000160744 0.000160744 0.000160744 0.000160744 0.000160744 0.000160744 0.000160744 0.000160744 0.000160744
          0.000160744 0.000160744 0.000160744 0.000160744 0.000160742 0.000160742 0.000160743 0.000160743 0.000160743 0.000160743 0.000160743 0.000160742
          0.000160742 0.000160744 0.000160744 0.000160744 0.000160744 0.000160744 0.000160744 0.000160744 0.000160744 0.000160744 0.000160743 0.000160733
          0.000160736 0.000160738 0.000160739 0.000160739 0.000160739 0.000160738 0.000160736 0.000160733 0.000160743 0.000160744 0.000160744 0.000160744
          0.000160744 0.000160744 0.000160743 0.000160744 0.000160743 0.000160743 0.000160708 0.000160719 0.000160726 0.000160729 0.000160729 0.000160729
          0.000160726 0.000160719 0.000160708 0.000160743 0.000160743 0.000160744 0.000160743 0.000160744 0.000160744 0.000160743 0.000160744 0.000160743
          0.000160743 0.000160658 0.000160683 0.000160698 0.000160706 0.000160708 0.000160706 0.000160698 0.000160683 0.000160658 0.000160743 0.000160743
          0.000160744 0.000160743 0.000160744 0.000160744 0.000160743 0.000160744 0.000160743 0.000160742 0.000160573 0.000160618 0.000160649 0.000160664
          0.000160668 0.000160664 0.000160649 0.000160618 0.000160573 0.000160742 0.000160743 0.000160744 0.000160743 0.000160744 0.000160744 0.000160743
          0.000160744 0.000160743 0.00016074 0.000160443 0.000160517 0.00016057 0.000160595 0.000160603 0.000160595 0.00016057 0.000160517 0.000160443
          0.00016074 0.000160743 0.000160744 0.000160743 0.000160744 0.000160744 0.000160743 0.000160744 0.000160743 0.000160738 0.00016026 0.000160371
          0.000160454 0.000160495 0.000160506 0.000160495 0.000160454 0.000160371 0.00016026 0.000160738 0.000160743 0.000160744 0.000160743 0.000160744
          0.000160744 0.000160743 0.000160744 0.000160743 0.000160734 0.000160019 0.000160175 0.000160296 0.000160356 0.000160373 0.000160356 0.000160296
          0.000160175 0.000160019 0.000160734 0.000160743 0.000160744 0.000160743 0.000160744 0.000160744 0.000160743 0.000160744 0.000160743 0.000160729
          0.000159717 0.000159926 0.000160092 0.000160175 0.0001602 0.000160175 0.000160092 0.000159926 0.000159717 0.000160729 0.000160743 0.000160744
          0.000160743 0.000160744 0.000160744 0.000160743 0.000160744 0.000160743 0.000160723 0.00015935 0.000159624 0.00015984 0.000159951 0.000159983
          0.000159951 0.00015984 0.000159624 0.00015935 0.000160723 0.000160743 0.000160744 0.000160743 0.000160744 0.000160744 0.000160743 0.000160744
          0.000160743 0.000160714 0.000158926 0.000159274 0.000159543 0.000159683 0.000159724 0.000159683 0.000159543 0.000159274 0.000158926 0.000160714
          0.000160743 0.000160744 0.000160743 0.000160744 0.000160744 0.000160743 0.000160744 0.000160743 0.000160701 0.000158459 0.000158882 0.000159206
          0.000159376 0.000159426 0.000159376 0.000159206 0.000158882 0.000158459 0.000160701 0.000160743 0.000160744 0.000160743 0.000160744 0.000160744
          0.000160744 0.000160744 0.000160742 0.000160685 0.000157968 0.000158463 0.000158839 0.000159038 0.000159098 0.000159038 0.000158839 0.000158463
          0.000157968 0.000160685 0.000160742 0.000160744 0.000160744 0.000160744 0.000160744 0.000160758 0.000160754 0.00016075 0.000160682 0.00015773
          0.000158255 0.000158652 0.000158865 0.000158927 0.000158865 0.000158652 0.000158255 0.00015773 0.000160682 0.00016075 0.000160754 0.000160758
          0.000160744
        </DataArray>
        <DataArray type="Float32" Name="xAirg" NumberOfComponents="1" format="ascii">
          0.999839 0.999839 0.999839 0.999839 0.999839 0.999839 0.999839 0.999839 0.999839 0.999839 0.999839 0.999839
          0.999839 0.999839 0.999839 0.999839 0.999839 0.999839 0.999839 0.999839 0.999839 0.999839 0.999839 0.999839
          0.999839 0.999839 0.999839 0.999839 0.999839 0.999839 0.999839 0.999839 0.999839 0.999839 0.999839 0.999839
          0.999839 0.999839 0.999839 0.999839 0.999839 0.999839 0.999839 0.999839 0.999839 0.999839 0.999839 0.999839
          0.999839 0.999839 0.999839 0.999839 0.999839 0.999839 0.999839 0.999839 0.999839 0.999839 0.999839 0.999839
          0.999839 0.999839 0.999839 0.999839 0.999839 0.999839 0.999839 0.999839 0.999839 0.999839 0.999839 0.999839
          0.999839 0.999839 0.999839 0.999839 0.999839 0.999839 0.999839 0.999839 0.999839 0.999839 0.999839 0.999839
          0.999839 0.999839 0.999839 0.999839 0.999839 0.999839 0.999839 0.999839 0.999839 0.999839 0.999839 0.999839
          0.999839 0.999839 0.999839 0.999839 0.999839 0.999839 0.999839 0.999839 0.999839 0.999839 0.999839 0.999839
          0.999839 0.999839 0.999839 0.999839 0.999839 0.999839 0.999839 0.999839 0.999839 0.999839 0.999839 0.999839
          0.999839 0.999839 0.999839 0.999839 0.999839 0.999839 0.999839 0.999839 0.999839 0.999839 0.999839 0.999839
          0.999839 0.999839 0.999839 0.999839 0.999839 0.999839 0.999839 0.999839 0.999839 0.999839 0.999839 0.999839
          0.999839 0.999839 0.999839 0.999839 0.999839 0.999839 0.999839 0.999839 0.999839 0.999839 0.999839 0.999839
          0.999839 0.999839 0.999839 0.999839 0.999839 0.999839 0.999839 0.999839 0.999839 0.999839 0.999839 0.999839
          0.999839 0.999839 0.999839 0.999839 0.999839 0.999839 0.999839 0.999839 0.999839 0.999839 0.999839 0.999839
          0.999839 0.999839 0.999839 0.999839 0.999839 0.999839 0.999839 0.999839 0.999839 0.999839 0.999839 0.999839
          0.999839 0.999839 0.999839 0.99984 0.999839 0.999839 0.999839 0.999839 0.999839 0.999839 0.999839 0.99984
          0.999839 0.999839 0.999839 0.999839 0.999839 0.999839 0.999839 0.999839 0.999839 0.999839 0.99984 0.99984
          0.99984 0.999839 0.999839 0.999839 0.99984 0.99984 0.99984 0.999839 0.999839 0.999839 0.999839 0.999839
          0.999839 0.999839 0.999839 0.999839 0.999839 0.99984 0.99984 0.99984 0.99984 0.99984 0.99984 0.99984
          0.99984 0.99984 0.999839 0.999839 0.999839 0.999839 0.999839 0.999839 0.999839 0.999839 0.999839 0.999839
          0.99984 0.99984 0.99984 0.99984 0.99984 0.99984 0.99984 0.99984 0.99984 0.999839 0.999839 0.999839
          0.999839 0.999839 0.999839 0.999839 0.999839 0.999839 0.999839 0.999841 0.99984 0.99984 0.99984 0.99984
          0.99984 0.99984 0.99984 0.999841 0.999839 0.999839 0.999839 0.999839 0.999839 0.999839 0.999839 0.999839
          0.999839 0.999839 0.999841 0.999841 0.99984 0.99984 0.99984 0.99984 0.99984 0.999841 0.999841 0.999839
          0.999839 0.999839 0.999839 0.999839 0.999839 0.999839 0.999839 0.999839 0.999839 0.999842 0.999841 0.999841
          0.999841 0.999841 0.999841 0.999841 0.999841 0.999842 0.999839 0.999839 0.999839 0.999839 0.999839 0.999839
          0.999839 0.999839 0.999839 0.999839 0.999842 0.999842 0.999841 0.999841 0.999841 0.999841 0.999841 0.999842
          0.999842 0.999839 0.999839 0.999839 0.999839 0.999839 0.999839 0.999839 0.999839 0.999839 0.999839 0.999842
          0.999842 0.999841 0.999841 0.999841 0.999841 0.999841 0.999842 0.999842 0.999839 0.999839 0.999839 0.999839
          0.999839
        </DataArray>
        <DataArray type="Float32" Name="h" NumberOfComponents="1" format="ascii">
          10292.9 10292.9 10292.9 10292.9 10292.9 10292.9 10292.9 10292.9 10292.9 10292.9 10292.9 10292.9
          10292.9 10292.9 10292.9 10292.9 10292.9 10292.9 10292.9 10292.9 10292.9 10292.9 10292.9 10292.9
          10292.9 10292.9 10292.9 10292.9 10292.9 10292.9 10292.9 10292.9 10292.9 10292.9 10292.9 10292.9
          10292.9 10292.9 10292.9 10293 10292.9 10292.9 10292.9 10292.9 10292.9 10292.9 10292.9 10292.9
          10292.9 10292.9 10292.9 10292.9 10292.9 10292.9 10292.9 10293 10292.9 10292.9 10293 10292.9
          10292.9 10292.9 10292.9 10292.9 10292.9 10292.9 10292.9 10292.9 10292.9 10292.9 10292.9 10292.9
          10292.9 10292.9 10293 10292.9 10292.9 10293 10293 10292.9 10292.9 10292.9 10292.9 10292.9
          10292.9 10292.9 10292.9 10292.9 10292.9 10292.9 10292.9 10292.9 10293 10293 10292.9 10292.9
          10293.1 10293 10292.9 10292.9 10293.1 10293 10293 10293 10293 10293 10293 10293
          10293.1 10292.9 10292.9 10293 10293.1 10292.9 10292.9 10293.1 10293 10293 10293 10293.6
          10293.4 10293.3 10293.2 10293.2 10293.2 10293.3 10293.4 10293.6 10293 10293 10293 10293.1
          10292.9 10292.9 10293.1 10293 10293 10293 10295.1 10294.4 10294 10293.9 10293.8 10293.9
          10294 10294.4 10295.1 10293 10293 10293 10293.1 10292.9 10292.9 10293.1 10293 10293
          10293 10298.1 10296.7 10295.7 10295.3 10295.1 10295.3 10295.7 10296.7 10298.1 10293 10293
          10293 10293.1 10292.9 10292.9 10293.1 10293.1 10293 10293.1 10303.4 10300.6 10298.7 10297.8
          10297.6 10297.8 10298.7 10300.6 10303.4 10293.1 10293 10293.1 10293.1 10292.9 10292.9 10293.1
          10293.1 10293 10293.2 10311.3 10306.8 10303.5 10302 10301.5 10302 10303.5 10306.8 10311.3
          10293.2 10293 10293.1 10293.1 10292.9 10292.9 10293.1 10293.1 10293 10293.4 10322.5 10315.7
          10310.6 10308.2 10307.4 10308.2 10310.6 10315.7 10322.5 10293.4 10293 10293.1 10293.1 10292.9
          10292.9 10293.1 10293.1 10293 10293.6 10337.2 10327.7 10320.3 10316.6 10315.5 10316.6 10320.3
          10327.7 10337.2 10293.6 10293 10293.1 10293.1 10292.9 10292.9 10293.1 10293.1 10293 10293.8
          10355.7 10342.9 10332.7 10327.7 10326.1 10327.7 10332.7 10342.9 10355.7 10293.8 10293 10293.1
          10293.1 10292.9 10292.9 10293.1 10293.1 10293 10294.2 10378.1 10361.3 10348.1 10341.4 10339.4
          10341.4 10348.1 10361.3 10378.1 10294.2 10293 10293.1 10293.1 10292.9 10292.9 10293.1 10293.1
          10293.1 10294.8 10404 10382.8 10366.2 10357.8 10355.2 10357.8 10366.2 10382.8 10404 10294.8
          10293.1 10293.1 10293.1 10292.9 10292.9 10293 10293.1 10293.1 10295.5 10432.6 10406.6 10386.8
          10376.5 10373.3 10376.5 10386.8 10406.6 10432.6 10295.5 10293.1 10293.1 10293 10292.9 10292.9
          10293 10293.1 10293.1 10296.4 10462.6 10432.3 10409.2 10397.1 10393.4 10397.1 10409.2 10432.3
          10462.6 10296.4 10293.1 10293.1 10293 10292.9 10292.9 10294 10293.7 10293.6 10297.3 10478.6
          10445.9 10421.1 10408 10403.9 10408 10421.1 10445.9 10478.6 10297.3 10293.6 10293.7 10294
          10292.9
        </DataArray>
        <DataArray type="Float32" Name="rho" NumberOfComponents="1" format="ascii">
          1.23005 1.23005 1.23004 1.23004 1.23005 1.23004 1.23005 1.23004 1.23005 1.23004 1.23005 1.23004
          1.23005 1.23004 1.23005 1.23004 1.23005 1.23004 1.23005 1.23004 1.23005 1.23004 1.23005 1.23004
          1.23005 1.23004 1.23005 1.23004 1.23005 1.23004 1.23005 1.23004 1.23005 1.23004 1.23005 1.23004
          1.23005 1.23004 1.23003 1.23003 1.23003 1.23003 1.23003 1.23003 1.23003 1.23003 1.23003 1.23003
          1.23003 1.23003 1.23003 1.23003 1.23003 1.23003 1.23003 1.23003 1.23003 1.23003 1.23002 1.23003
          1.23003 1.23003 1.23003 1.23003 1.23003 1.23003 1.23003 1.23003 1.23003 1.23003 1.23003 1.23003
          1.23003 1.23003 1.23002 1.23003 1.23002 1.23002 1.23002 1.23002 1.23002 1.23002 1.23002 1.23002
          1.23002 1.23002 1.23002 1.23002 1.23002 1.23002 1.23002 1.23002 1.23002 1.23002 1.23002 1.23001
          1.23001 1.23001 1.23001 1.23001 1.23001 1.23001 1.23001 1.23001 1.23001 1.23001 1.23001 1.23001
          1.23001 1.23001 1.23001 1.23001 1.23001 1.23001 1.23 1.23 1.23 1.23 1.23 1.23
          1.23 1.23 1.23 1.23 1.23 1.23 1.23 1.23 1.23 1.23 1.23 1.23
          1.23 1.22999 1.22999 1.22999 1.22999 1.22999 1.22998 1.22999 1.22999 1.22999 1.22999 1.22999
          1.22999 1.22999 1.22998 1.22999 1.22999 1.22999 1.22999 1.22999 1.22998 1.22998 1.22998 1.22998
          1.22998 1.22996 1.22997 1.22997 1.22997 1.22997 1.22997 1.22997 1.22997 1.22996 1.22998 1.22998
          1.22998 1.22998 1.22998 1.22998 1.22997 1.22997 1.22998 1.22997 1.22993 1.22994 1.22995 1.22995
          1.22996 1.22995 1.22995 1.22994 1.22993 1.22997 1.22998 1.22997 1.22997 1.22998 1.22997 1.22997
          1.22997 1.22997 1.22997 1.22989 1.22991 1.22992 1.22993 1.22993 1.22993 1.22992 1.22991 1.22989
          1.22997 1.22997 1.22997 1.22997 1.22997 1.22996 1.22996 1.22996 1.22996 1.22996 1.22983 1.22986
          1.22988 1.22989 1.2299 1.22989 1.22988 1.22986 1.22983 1.22996 1.22996 1.22996 1.22996 1.22996
          1.22995 1.22995 1.22995 1.22995 1.22995 1.22976 1.2298 1.22983 1.22985 1.22985 1.22985 1.22983
          1.2298 1.22976 1.22995 1.22995 1.22995 1.22995 1.22995 1.22994 1.22994 1.22994 1.22994 1.22994
          1.22967 1.22972 1.22977 1.22979 1.2298 1.22979 1.22977 1.22972 1.22967 1.22994 1.22994 1.22994
          1.22994 1.22994 1.22993 1.22993 1.22993 1.22993 1.22993 1.22956 1.22963 1.22969 1.22972 1.22973
          1.22972 1.22969 1.22963 1.22956 1.22993 1.22993 1.22993 1.22993 1.22993 1.22993 1.22993 1.22993
          1.22993 1.22992 1.22944 1.22953 1.2296 1.22964 1.22965 1.22964 1.2296 1.22953 1.22944 1.22992
          1.22993 1.22993 1.22993 1.22993 1.22992 1.22992 1.22992 1.22992 1.22991 1.2293 1.22942 1.2295
          1.22955 1.22956 1.22955 1.2295 1.22942 1.2293 1.22991 1.22992 1.22992 1.22992 1.22992 1.22991
          1.22991 1.22991 1.22991 1.22989 1.22916 1.22929 1.2294 1.22945 1.22947 1.22945 1.2294 1.22929
          1.22916 1.22989 1.22991 1.22991 1.22991 1.22991 1.2299 1.2299 1.2299 1.2299 1.22988 1.22908
          1.22923 1.22934 1.22939 1.22941 1.22939 1.22934 1.22923 1.22908 1.22988 1.2299 1.2299 1.2299
          1.2299
        </DataArray>
        <DataArray type="Float32" Name="mu" NumberOfComponents="1" format="ascii">
          1.75168e-05 1.75168e-05 1.75168e-05 1.75168e-05 1.75168e-05 1.75168e-05 1.75168e-05 1.75168e-05 1.75168e-05 1.75168e-05 1.75168e-05 1.75168e-05
          1.75168e-05 1.75168e-05 1.75168e-05 1.75168e-05 1.75168e-05 1.75168e-05 1.75168e-05 1.75168e-05 1.75168e-05 1.75168e-05 1.75168e-05 1.75168e-05
          1.75168e-05 1.75168e-05 1.75168e-05 1.75168e-05 1.75168e-05 1.75168e-05 1.75168e-05 1.75168e-05 1.75168e-05 1.75168e-05 1.75168e-05 1.75168e-05
          1.75168e-05 1.75168e-05 1.75168e-05 1.75168e-05 1.75168e-05 1.75168e-05 1.75168e-05 1.75168e-05 1.75168e-05 1.75168e-05 1.75168e-05 1.75168e-05
          1.75168e-05 1.75168e-05 1.75168e-05 1.75168e-05 1.75168e-05 1.75168e-05 1.75168e-05 1.75168e-05 1.75168e-05 1.75168e-05 1.75168e-05 1.75168e-05
          1.75168e-05 1.75168e-05 1.75168e-05 1.75168e-05 1.75168e-05 1.75168e-05 1.75168e-05 1.75168e-05 1.75168e-05 1.75168e-05 1.75168e-05 1.75168e-05
          1.75168e-05 1.75168e-05 1.75168e-05 1.75168e-05 1.75168e-05 1.75168e-05 1.75168e-05 1.75168e-05 1.75168e-05 1.75168e-05 1.75168e-05 1.75168e-05
          1.75168e-05 1.75168e-05 1.75168e-05 1.75168e-05 1.75168e-05 1.75168e-05 1.75168e-05 1.75168e-05 1.75168e-05 1.75168e-05 1.75168e-05 1.75168e-05
          1.75168e-05 1.75168e-05 1.75168e-05 1.75168e-05 1.75168e-05 1.75168e-05 1.75168e-05 1.75168e-05 1.75168e-05 1.75168e-05 1.75168e-05 1.75168e-05
          1.75168e-05 1.75168e-05 1.75168e-05 1.75168e-05 1.75168e-05 1.75168e-05 1.75168e-05 1.75168e-05 1.75168e-05 1.75168e-05 1.75168e-05 1.75169e-05
          1.75169e-05 1.75169e-05 1.75169e-05 1.75169e-05 1.75169e-05 1.75169e-05 1.75169e-05 1.75169e-05 1.75168e-05 1.75168e-05 1.75168e-05 1.75168e-05
          1.75168e-05 1.75168e-05 1.75168e-05 1.75168e-05 1.75168e-05 1.75168e-05 1.75169e-05 1.75169e-05 1.75169e-05 1.75169e-05 1.75169e-05 1.75169e-05
          1.75169e-05 1.75169e-05 1.75169e-05 1.75168e-05 1.75168e-05 1.75168e-05 1.75168e-05 1.75168e-05 1.75168e-05 1.75168e-05 1.75168e-05 1.75168e-05
          1.75168e-05 1.75171e-05 1.7517e-05 1.7517e-05 1.7517e-05 1.75169e-05 1.7517e-05 1.7517e-05 1.7517e-05 1.75171e-05 1.75168e-05 1.75168e-05
          1.75168e-05 1.75168e-05 1.75168e-05 1.75168e-05 1.75168e-05 1.75168e-05 1.75168e-05 1.75168e-05 1.75174e-05 1.75172e-05 1.75171e-05 1.75171e-05
          1.75171e-05 1.75171e-05 1.75171e-05 1.75172e-05 1.75174e-05 1.75168e-05 1.75168e-05 1.75168e-05 1.75168e-05 1.75168e-05 1.75168e-05 1.75168e-05
          1.75168e-05 1.75168e-05 1.75169e-05 1.75178e-05 1.75175e-05 1.75174e-05 1.75173e-05 1.75173e-05 1.75173e-05 1.75174e-05 1.75175e-05 1.75178e-05
          1.75169e-05 1.75168e-05 1.75168e-05 1.75168e-05 1.75168e-05 1.75168e-05 1.75168e-05 1.75168e-05 1.75168e-05 1.75169e-05 1.75183e-05 1.7518e-05
          1.75177e-05 1.75176e-05 1.75176e-05 1.75176e-05 1.75177e-05 1.7518e-05 1.75183e-05 1.75169e-05 1.75168e-05 1.75168e-05 1.75168e-05 1.75168e-05
          1.75168e-05 1.75168e-05 1.75168e-05 1.75168e-05 1.75169e-05 1.7519e-05 1.75186e-05 1.75182e-05 1.7518e-05 1.7518e-05 1.7518e-05 1.75182e-05
          1.75186e-05 1.7519e-05 1.75169e-05 1.75168e-05 1.75168e-05 1.75168e-05 1.75168e-05 1.75168e-05 1.75168e-05 1.75168e-05 1.75168e-05 1.75169e-05
          1.752e-05 1.75193e-05 1.75188e-05 1.75186e-05 1.75185e-05 1.75186e-05 1.75188e-05 1.75193e-05 1.752e-05 1.75169e-05 1.75168e-05 1.75168e-05
          1.75168e-05 1.75168e-05 1.75168e-05 1.75168e-05 1.75168e-05 1.75168e-05 1.75169e-05 1.75211e-05 1.75202e-05 1.75196e-05 1.75192e-05 1.75191e-05
          1.75192e-05 1.75196e-05 1.75202e-05 1.75211e-05 1.75169e-05 1.75168e-05 1.75168e-05 1.75168e-05 1.75168e-05 1.75168e-05 1.75168e-05 1.75168e-05
          1.75168e-05 1.75169e-05 1.75224e-05 1.75213e-05 1.75205e-05 1.75201e-05 1.75199e-05 1.75201e-05 1.75205e-05 1.75213e-05 1.75224e-05 1.75169e-05
          1.75168e-05 1.75168e-05 1.75168e-05 1.75168e-05 1.75168e-05 1.75168e-05 1.75168e-05 1.75168e-05 1.7517e-05 1.75238e-05 1.75225e-05 1.75215e-05
          1.7521e-05 1.75208e-05 1.7521e-05 1.75215e-05 1.75225e-05 1.75238e-05 1.7517e-05 1.75168e-05 1.75168e-05 1.75168e-05 1.75168e-05 1.75168e-05
          1.75168e-05 1.75168e-05 1.75168e-05 1.7517e-05 1.75253e-05 1.75238e-05 1.75226e-05 1.7522e-05 1.75218e-05 1.7522e-05 1.75226e-05 1.75238e-05
          1.75253e-05 1.7517e-05 1.75168e-05 1.75168e-05 1.75168e-05 1.75168e-05 1.75168e-05 1.75169e-05 1.75169e-05 1.75169e-05 1.75171e-05 1.75261e-05
          1.75244e-05 1.75232e-05 1.75226e-05 1.75224e-05 1.75226e-05 1.75232e-05 1.75244e-05 1.75261e-05 1.75171e-05 1.75169e-05 1.75169e-05 1.75169e-05
          1.75168e-05
        </DataArray>
        <DataArray type="Float32" Name="v" NumberOfComponents="3" format="ascii">
          0 0 0 0 0.104938 0 0 0 0 -0.000115323 0.104588 0
          0 0.197531 0 0.000884754 0.197178 0 0 0.277778 0 0.000845432 0.277584 0
          0 0.345679 0 0.00150332 0.345537 0 0 0.401235 0 0.00120675 0.4014 0
          0 0.444444 0 0.00131441 0.444612 0 0 0.475309 0 0.000801612 0.475668 0
          0 0.493827 0 0.000498477 0.494109 0 0 0.5 0 4.31208e-09 0.500406 0