<?xml version="1.0"?>
<VTKFile type="UnstructuredGrid" version="0.1" byte_order="LittleEndian">
  <UnstructuredGrid>
    <Piece NumberOfCells="4096" NumberOfPoints="4225">
      <PointData Scalars="S_liq">
        <DataArray type="Float32" Name="S_liq" NumberOfComponents="1" format="ascii">
          1 1 1 1 1 1 1 1 1 1 1 1
          1 1 1 1 1 1 1 1 1 1 1 1
          1 1 1 1 1 1 1 1 1 1 1 1
          1 1 1 1 1 1 1 1 1 1 1 0.973844
          0.8 0.842328 0.8 0.838746 0.8 0.840215 0.8 0.84107 0.8 0.841412 0.8 0.841273
          0.8 0.840316 0.8 0.836029 0.8 0.805849 0.8 0.803503 0.8 0.802695 0.8 0.802135
          0.8 0.801548 0.8 0.800803 0.8 0.799774 0.8 0.798827 0.8 0.808264 0.964896 0.939642
          1 1 1 1 1 1 1 1 1 1 1 1
          1 1 1 1 1 1 1 1 1 1 1 1
          1 1 1 1 1 1 1 1 1 1 1 1
          1 1 1 1 1 1 1 1 1 1 1 1
          1 1 1 1 1 1 1 1 1 1 1 1
          1 1 1 1 1 1 1 1 1 1 0.883242 0.884838
          0.887664 0.889095 0.88967 0.889474 0.888086 0.881575 0.841083 0.837187 0.835945 0.835026 0.834033 0.832763
          0.830973 0.828931 0.837746 0.974723 1 1 1 1 1 1 1 1
          1 1 1 1 1 1 1 1 1 1 1 1
          1 1 1 1 1 1 1 1 1 1 1 1
          1 1 1 1 1 1 1 1 1 1 1 1
          1 1 1 0.968508 0.973491 0.976845 0.978536 0.979224 0.979051 0.977607 0.970531 0.912993
          0.907182 0.905063 0.903335 0.901411 0.898957 0.895505 0.890903 0.899367 1 1 1 1
          1 1 1 1 1 1 1 1 1 1 1 1
          1 1 1 1 1 1 1 1 1 1 1 1
          1 1 1 1 1 1 1 1 1 1 1 1
          1 1 1 1 1 1 1 1 1 1 1 1
          1 1 1 1 1 1 1 1 1 0.999009 0.997092 0.994321
          0.998923 1 1 1 1 1 1 1 1 1 1 1
          1 1 1 1 1 1 1 1 1 1 1 1
          1 1 1 1 1 1 1 1 1 1 1 1
          1 1 1 1 1 1 1 1 1 1 1 1
          1 1 1 1 1 1 1 1 1 1 1 1
          1 1 1 1 1 1 1 1 1 1 1 1
          1 1 1 1 1 1 1 1 1 1 1 1
          1 1 1 1 1 1 1 1 1 1 1 1
          1 1 1 1 1 1 1 1 1 1 1 1
          1 1 1 1 1 1 1 1 1 1 1 1
          1 1 1 1 1 1 1 1 1 1 1 1
          1 1 1 1 1 1 1 1 1 1 1 1
          1 1 1 1 1 1 1 1 1 1 1 1
          1 1 1 1 1 1 1 1 1 1 1 1
          1 1 1 1 1 1 1 1 1 1 1 1
          1 1 1 1 1 1 1 1 1 1 1 1
          1 1 1 1 1 1 1 1 1 1 1 1
          1 1 1 1 1 1 1 1 1 1 1 1
          1 1 1 1 1 1 1 1 1 1 1 1
          1 1 1 1 1 1 1 1 1 1 1 1
          1 1 1 1 1 1 1 1 1 1 1 1
          1 1 1 1 1 1 1 1 1 1 1 1
          1 1 1 1 1 1 1 1 1 1 1 1
          1 1 1 1 1 1 1 1 1 1 1 1
          1 1 1 1 1 1 1 1 1 1 1 1
          1 1 1 1 1 1 1 1 1 1 1 1
          1 1 1 1 1 1 1 1 1 1 1 1
          1 1 1 1 1 1 1 1 1 1 1 1
          1 1 1 1 1 1 1 1 1 1 1 1
          1 1 1 1 1 1 1 1 1 1 1 1
          1 1 1 1 1 1 1 1 1 1 1 1
          1 1 1 1 1 1 1 1 1 1 1 1
          1 1 1 1 1 1 1 1 1 1 1 1
          1 1 1 1 1 1 1 1 1 1 1 1
          1 1 1 1 1 1 1 1 1 1 1 1
          1 1 1 1 1 1 1 1 1 1 1 1
          1 1 1 1 1 1 1 1 1 1 1 1
          1 1 1 1 1 1 1 1 1 1 1 1
          1 1 1 1 1 1 1 1 1 1 1 1
          1 1 1 1 1 1 1 1 1 1 1 1
          1 1 1 1 1 1 1 1 1 1 1 1
          1 1 1 1 1 1 1 1 1 1 1 1
          1 1 1 1 1 1 1 1 1 1 1 1
          1 1 1 1 1 1 1 1 1 1 1 1
          1 1 1 1 1 1 1 1 1 1 1 1
          1 1 1 1 1 1 1 1 1 1 1 1
          1 1 1 1 1 1 1 1 1 1 1 1
          1 1 1 1 1 1 1 1 1 1 1 1
          1 1 1 1 1 1 1 1 1 1 1 1
          1 1 1 1 1 1 1 1 1 1 1 1
          1 1 1 1 1 1 1 1 1 1 1 1
          1 1 1 1 1 1 1 1 1 1 1 1
          1 1 1 1 1 1 1 1 1 1 1 1
          1 1 1 1 1 1 1 1 1 1 1 1
          1 1 1 1 1 1 1 1 1 1 1 1
          1 1 1 1 1 1 1 1 1 1 1 1
          1 1 1 1 1 1 1 1 1 1 1 1
          1 1 1 1 1 1 1 1 1 1 1 1
          1 1 1 1 1 1 1 1 1 1 1 1
          1 1 1 1 1 1 1 1 1 1 1 1
          1 1 1 1 1 1 1 1 1 1 1 1
          1 1 1 1 1 1 1 1 1 1 1 1
          1 1 1 1 1 1 1 1 1 1 1 1
          1 1 1 1 1 1 1 1 1 1 1 1
          1 1 1 1 1 1 1 1 1 1 1 1
          1 1 1 1 1 1 1 1 1 1 1 1
          1 1 1 1 1 1 1 1 1 1 1 1
          1 1 1 1 1 1 1 1 1 1 1 1
          1 1 1 1 1 1 1 1 1 1 1 1
          1 1 1 1 1 1 1 1 1 1 1 1
          1 1 1 1 1 1 1 1 1 1 1 1
          1 1 1 1 1 1 1 1 1 1 1 1
          1 1 1 1 1 1 1 1 1 1 1 1
          1 1 1 1 1 1 1 1 1 1 1 1
          1 1 1 1 1 1 1 1 1 1 1 1
          1 1 1 1 1 1 1 1 1 1 1 1
          1 1 1 1 1 1 1 1 1 1 1 1
          1 1 1 1 1 1 1 1 1 1 1 1
          1 1 1 1 1 1 1 1 1 1 1 1
          1 1 1 1 1 1 1 1 1 1 1 1
          1 1 1 1 1 1 1 1 1 1 1 1
          1 1 1 1 1 1 1 1 1 1 1 1
          1 1 1 1 1 1 1 1 1 1 1 1
          1 1 1 1 1 1 1 1 1 1 1 1
          1 1 1 1 1 1 1 1 1 1 1 1
          1 1 1 1 1 1 1 1 1 1 1 1
          1 1 1 1 1 1 1 1 1 1 1 1
          1 1 1 1 1 1 1 1 1 1 1 1
          1 1 1 1 1 1 1 1 1 1 1 1
          1 1 1 1 1 1 1 1 1 1 1 1
          1 1 1 1 1 1 1 1 1 1 1 1
          1 1 1 1 1 1 1 1 1 1 1 1
          1 1 1 1 1 1 1 1 1 1 1 1
          1 1 1 1 1 1 1 1 1 1 1 1
          1 1 1 1 1 1 1 1 1 1 1 1
          1 1 1 1 1 1 1 1 1 1 1 1
          1 1 1 1 1 1 1 1 1 1 1 1
          1 1 1 1 1 1 1 1 1 1 1 1
          1 1 1 1 1 1 1 1 1 1 1 1
          1 1 1 1 1 1 1 1 1 1 1 1
          1 1 1 1 1 1 1 1 1 1 1 1
          1 1 1 1 1 1 1 1 1 1 1 1
          1 1 1 1 1 1 1 1 1 1 1 1
          1 1 1 1 1 1 1 1 1 1 1 1
          1 1 1 1 1 1 1 1 1 1 1 1
          1 1 1 1 1 1 1 1 1 1 1 1
          1 1 1 1 1 1 1 1 1 1 1 1
          1 1 1 1 1 1 1 1 1 1 1 1
          1 1 1 1 1 1 1 1 1 1 1 1
          1 1 1 1 1 1 1 1 1 1 1 1
          1 1 1 1 1 1 1 1 1 1 1 1
          1 1 1 1 1 1 1 1 1 1 1 1
          1 1 1 1 1 1 1 1 1 1 1 1
          1 1 1 1 1 1 1 1 1 1 1 1
          1 1 1 1 1 1 1 1 1 1 1 1
          1 1 1 1 1 1 1 1 1 1 1 1
          1 1 1 1 1 1 1 1 1 1 1 1
          1 1 1 1 1 1 1 1 1 1 1 1
          1 1 1 1 1 1 1 1 1 1 1 1
          1 1 1 1 1 1 1 1 1 1 1 1
          1 1 1 1 1 1 1 1 1 1 1 1
          1 1 1 1 1 1 1 1 1 1 1 1
          1 1 1 1 1 1 1 1 1 1 1 1
          1 1 1 1 1 1 1 1 1 1 1 1
          1 1 1 1 1 1 1 1 1 1 1 1
          1 1 1 1 1 1 1 1 1 1 1 1
          1 1 1 1 1 1 1 1 1 1 1 1
          1 1 1 1 1 1 1 1 1 1 1 1
          1 1 1 1 1 1 1 1 1 1 1 1
          1 1 1 1 1 1 1 1 1 1 1 1
          1 1 1 1 1 1 1 1 1 1 1 1
          1 1 1 1 1 1 1 1 1 1 1 1
          1 1 1 1 1 1 1 1 1 1 1 1
          1 1 1 1 1 1 1 1 1 1 1 1
          1 1 1 1 1 1 1 1 1 1 1 1
          1 1 1 1 1 1 1 1 1 1 1 1
          1 1 1 1 1 1 1 1 1 1 1 1
          1 1 1 1 1 1 1 1 1 1 1 1
          1 1 1 1 1 1 1 1 1 1 1 1
          1 1 1 1 1 1 1 1 1 1 1 1
          1 1 1 1 1 1 1 1 1 1 1 1
          1 1 1 1 1 1 1 1 1 1 1 1
          1 1 1 1 1 1 1 1 1 1 1 1
          1 1 1 1 1 1 1 1 1 1 1 1
          1 1 1 1 1 1 1 1 1 1 1 1
          1 1 1 1 1 1 1 1 1 1 1 1
          1 1 1 1 1 1 1 1 1 1 1 1
          1 1 1 1 1 1 1 1 1 1 1 1
          1 1 1 1 1 1 1 1 1 1 1 1
          1 1 1 1 1 1 1 1 1 1 1 1
          1 1 1 1 1 1 1 1 1 1 1 1
          1 1 1 1 1 1 1 1 1 1 1 1
          1 1 1 1 1 1 1 1 1 1 1 1
          1 1 1 1 1 1 1 1 1 1 1 1
          1 1 1 1 1 1 1 1 1 1 1 1
          1 1 1 1 1 1 1 1 1 1 1 1
          1 1 1 1 1 1 1 1 1 1 1 1
          1 1 1 1 1 1 1 1 1 1 1 1
          1 1 1 1 1 1 1 1 1 1 1 1
          1 1 1 1 1 1 1 1 1 1 1 1
          1 1 1 1 1 1 1 1 1 1 1 1
          1 1 1 1 1 1 1 1 1 1 1 1
          1 1 1 1 1 1 1 1 1 1 1 1
          1 1 1 1 1 1 1 1 1 1 1 1
          1 1 1 1 1 1 1 1 1 1 1 1
          1 1 1 1 1 1 1 1 1 1 1 1
          1 1 1 1 1 1 1 1 1 1 1 1
          1 1 1 1 1 1 1 1 1 1 1 1
          1 1 1 1 1 1 1 1 1 1 1 1
          1 1 1 1 1 1 1 1 1 1 1 1
          1 1 1 1 1 1 1 1 1 1 1 1
          1 1 1 1 1 1 1 1 1 1 1 1
          1 1 1 1 1 1 1 1 1 1 1 1
          1 1 1 1 1 1 1 1 1 1 1 1
          1 1 1 1 1 1 1 1 1 1 1 1
          1 1 1 1 1 1 1 1 1 1 1 1
          1 1 1 1 1 1 1 1 1 1 1 1
          1 1 1 1 1 1 1 1 1 1 1 1
          1 1 1 1 1 1 1 1 1 1 1 1
          1 1 1 1 1 1 1 1 1 1 1 1
          1 1 1 1 1 1 1 1 1 1 1 1
          1 1 1 1 1 1 1 1 1 1 1 1
          1 1 1 1 1 1 1 1 1 1 1 1
          1 1 1 1 1 1 1 1 1 1 1 1
          1 1 1 1 1 1 1 1 1 1 1 1
          1 1 1 1 1 1 1 1 1 1 1 1
          1 1 1 1 1 1 1 1 1 1 1 1
          1 1 1 1 1 1 1 1 1 1 1 1
          1 1 1 1 1 1 1 1 1 1 1 1
          1 1 1 1 1 1 1 1 1 1 1 1
          1 1 1 1 1 1 1 1 1 1 1 1
          1 1 1 1 1 1 1 1 1 1 1 1
          1 1 1 1 1 1 1 1 1 1 1 1
          1 1 1 1 1 1 1 1 1 1 1 1
          1 1 1 1 1 1 1 1 1 1 1 1
          1 1 1 1 1 1 1 1 1 1 1 1
          1 1 1 1 1 1 1 1 1 1 1 1
          1 1 1 1 1 1 1 1 1 1 1 1
          1 1 1 1 1 1 1 1 1 1 1 1
          1 1 1 1 1 1 1 1 1 1 1 1
          1 1 1 1 1 1 1 1 1 1 1 1
          1 1 1 1 1 1 1 1 1 1 1 1
          1 1 1 1 1 1 1 1 1 1 1 1
          1 1 1 1 1 1 1 1 1 1 1 1
          1 1 1 1 1 1 1 1 1 1 1 1
          1 1 1 1 1 1 1 1 1 1 1 1
          1 1 1 1 1 1 1 1 1 1 1 1
          1 1 1 1 1 1 1 1 1 1 1 1
          1 1 1 1 1 1 1 1 1 1 1 1
          1 1 1 1 1 1 1 1 1 1 1 1
          1 1 1 1 1 1 1 1 1 1 1 1
          1 1 1 1 1 1 1 1 1 1 1 1
          1 1 1 1 1 1 1 1 1 1 1 1
          1 1 1 1 1 1 1 1 1 1 1 1
          1 1 1 1 1 1 1 1 1 1 1 1
          1 1 1 1 1 1 1 1 1 1 1 1
          1 1 1 1 1 1 1 1 1 1 1 1
          1 1 1 1 1 1 1 1 1 1 1 1
          1 1 1 1 1 1 1 1 1 1 1 1
          1 1 1 1 1 1 1 1 1 1 1 1
          1 1 1 1 1 1 1 1 1 1 1 1
          1 1 1 1 1 1 1 1 1 1 1 1
          1 1 1 1 1 1 1 1 1 1 1 1
          1 1 1 1 1 1 1 1 1 1 1 1
          1 1 1 1 1 1 1 1 1 1 1 1
          1 1 1 1 1 1 1 1 1 1 1 1
          1 1 1 1 1 1 1 1 1 1 1 1
          1 1 1 1 1 1 1 1 1 1 1 1
          1 1 1 1 1 1 1 1 1 1 1 1
          1 1 1 1 1 1 1 1 1 1 1 1
          1 1 1 1 1 1 1 1 1 1 1 1
          1 1 1 1 1 1 1 1 1 1 1 1
          1 1 1 1 1 1 1 1 1 1 1 1
          1 1 1 1 1 1 1 1 1 1 1 1
          1 1 1 1 1 1 1 1 1 1 1 1
          1 1 1 1 1 1 1 1 1 1 1 1
          1 1 1 1 1 1 1 1 1 1 1 1
          1 1 1 1 1 1 1 1 1 1 1 1
          1 1 1 1 1 1 1 1 1 1 1 1
          1 1 1 1 1 1 1 1 1 1 1 1
          1 1 1 1 1 1 1 1 1 1 1 1
          1 1 1 1 1 1 1 1 1 1 1 1
          1 1 1 1 1 1 1 1 1 1 1 1
          1 1 1 1 1 1 1 1 1 1 1 1
          1 1 1 1 1 1 1 1 1 1 1 1
          1 1 1 1 1 1 1 1 1 1 1 1
          1 1 1 1 1 1 1 1 1 1 1 1
          1 1 1 1 1 1 1 1 1 1 1 1
          1 1 1 1 1 1 1 1 1 1 1 1
          1 1 1 1 1 1 1 1 1 1 1 1
          1 1 1 1 1 1 1 1 1 1 1 1
          1 1 1 1 1 1 1 1 1 1 1 1
          1 1 1 1 1 1 1 1 1 1 1 1
          1 1 1 1 1 1 1 1 1 1 1 1
          1 1 1 1 1 1 1 1 1 1 1 1
          1 1 1 1 1 1 1 1 1 1 1 1
          1 1 1 1 1 1 1 1 1 1 1 1
          1 1 1 1 1 1 1 1 1 1 1 1
          1 1 1 1 1 1 1 1 1 1 1 1
          1 1 1 1 1 1 1 1 1 1 1 1
          1 1 1 1 1 1 1 1 1 1 1 1
          1 1 1 1 1 1 1 1 1 1 1 1
          1 1 1 1 1 1 1 1 1 1 1 1
          1 1 1 1 1 1 1 1 1 1 1 1
          1 1 1 1 1 1 1 1 1 1 1 1
          1 1 1 1 1 1 1 1 1 1 1 1
          1 1 1 1 1 1 1 1 1 1 1 1
          1 1 1 1 1 1 1 1 1 1 1 1
          1 1 1 1 1 1 1 1 1 1 1 1
          1 1 1 1 1 1 1 1 1 1 1 1
          1 1 1 1 1 1 1 1 1 1 1 1
          1 1 1 1 1 1 1 1 1 1 1 1
          1 1 1 1 1 1 1 1 1 1 1 1
          1 1 1 1 1 1 1 1 1 1 1 1
          1 1 1 1 1 1 1 1 1 1 1 1
          1 1 1 1 1 1 1 1 1 1 1 1
          1 1 1 1 1 1 1 1 1 1 1 1
          1 1 1 1 1 1 1 1 1 1 1 1
          1 1 1 1 1 1 1 1 1 1 1 1
          1 1 1 1 1 1 1 1 1 1 1 1
          1 1 1 1 1 1 1 1 1 1 1 1
          1 1 1 1 1 1 1 1 1 1 1 1
          1 1 1 1 1 1 1 1 1 1 1 1
          1 1 1 1 1 1 1 1 1 1 1 1
          1 1 1 1 1 1 1 1 1 1 1 1
          1 1 1 1 1 1 1 1 1 1 1 1
          1 1 1 1 1 1 1 1 1 1 1 1
          1 1 1 1 1 1 1 1 1 1 1 1
          1 1 1 1 1 1 1 1 1 1 1 1
          1 1 1 1 1 1 1 1 1 1 1 1
          1 1 1 1 1 1 1 1 1 1 1 1
          1 1 1 1 1 1 1 1 1 1 1 1
          1 1 1 1 1 1 1 1 1 1 1 1
          1 1 1 1 1 1 1 1 1 1 1 1
          1 1 1 1 1 1 1 1 1 1 1 1
          1 1 1 1 1 1 1 1 1 1 1 1
          1 1 1 1 1 1 1 1 1 1 1 1
          1 1 1 1 1 1 1 1 1 1 1 1
          1 1 1 1 1 1 1 1 1 1 1 1
          1 1 1 1 1 1 1 1 1 1 1 1
          1 1 1 1 1 1 1 1 1 1 1 1
          1 1 1 1 1 1 1 1 1 1 1 1
          1 1 1 1 1 1 1 1 1 1 1 1
          1 1 1 1 1 1 1 1 1 1 1 1
          1 1 1 1 1 1 1 1 1 1 1 1
          1 1 1 1 1 1 1 1 1 1 1 1
          1 1 1 1 1 1 1 1 1 1 1 1
          1 1 1 1 1 1 1 1 1 1 1 1
          1 1 1 1 1 1 1 1 1 1 1 1
          1 1 1 1 1 1 1 1 1 1 1 1
          1 1 1 1 1 1 1 1 1 1 1 1
          1 1 1 1 1 1 1 1 1 1 1 1
          1 1 1 1 1 1 1 1 1 1 1 1
          1 1 1 1 1 1 1 1 1 1 1 1
          1 1 1 1 1 1 1 1 1 1 1 1
          1 1 1 1 1 1 1 1 1 1 1 1
          1 1 1 1 1 1 1 1 1 1 1 1
          1 1 1 1 1 1 1 1 1 1 1 1
          1 1 1 1 1 1 1 1 1 1 1 1
          1 1 1 1 1 1 1 1 1 1 1 1
          1 1 1 1 1 1 1 1 1 1 1 1
          1 1 1 1 1 1 1 1 1 1 1 1
          1 1 1 1 1 1 1 1 1 1 1 1
          1 1 1 1 1 1 1 1 1 1 1 1
          1 1 1 1 1 1 1 1 1 1 1 1
          1 1 1 1 1 1 1 1 1 1 1 1
          1 1 1 1 1 1 1 1 1 1 1 1
          1
        </DataArray>
        <DataArray type="Float32" Name="p_liq" NumberOfComponents="1" format="ascii">
          9.91e+06 9.91012e+06 9.90387e+06 9.904e+06 9.91026e+06 9.90415e+06 9.91041e+06 9.90429e+06 9.91056e+06 9.90444e+06 9.91071e+06 9.9046e+06
          9.91087e+06 9.90476e+06 9.91103e+06 9.90492e+06 9.91119e+06 9.90508e+06 9.91136e+06 9.90525e+06 9.91153e+06 9.90542e+06 9.9117e+06 9.90559e+06
          9.91187e+06 9.90576e+06 9.91205e+06 9.90594e+06 9.91222e+06 9.90611e+06 9.9124e+06 9.90629e+06 9.91258e+06 9.90647e+06 9.91276e+06 9.90665e+06
          9.91294e+06 9.90683e+06 9.9131e+06 9.907e+06 9.91324e+06 9.90715e+06 9.91333e+06 9.90727e+06 9.91329e+06 9.90732e+06 9.91275e+06 9.90731e+06
          9.91e+06 9.90731e+06 9.91e+06 9.90734e+06 9.91e+06 9.90746e+06 9.91e+06 9.90753e+06 9.91e+06 9.90756e+06 9.91e+06 9.90754e+06
          9.91e+06 9.90746e+06 9.91e+06 9.90725e+06 9.91e+06 9.90672e+06 9.91e+06 9.90659e+06 9.91e+06 9.90651e+06 9.91e+06 9.90646e+06
          9.91e+06 9.9064e+06 9.91e+06 9.90633e+06 9.91e+06 9.90624e+06 9.91e+06 9.90611e+06 9.91e+06 9.90612e+06 9.91164e+06 9.90619e+06
          9.91192e+06 9.90613e+06 9.91191e+06 9.90606e+06 9.91183e+06 9.90596e+06 9.91175e+06 9.90587e+06 9.91168e+06 9.90579e+06 9.91163e+06 9.90574e+06
          9.91163e+06 9.90572e+06 9.91177e+06 9.90572e+06 9.91178e+06 9.9057e+06 9.91173e+06 9.90564e+06 9.91164e+06 9.90554e+06 9.91154e+06 9.90543e+06
          9.91142e+06 9.90531e+06 9.91128e+06 9.90518e+06 9.91114e+06 9.90504e+06 9.911e+06 9.90489e+06 9.91085e+06 9.90474e+06 9.9107e+06 9.9046e+06
          9.91056e+06 9.90444e+06 9.91041e+06 9.9043e+06 9.91026e+06 9.90415e+06 9.91012e+06 9.90401e+06 9.91e+06 9.90387e+06 9.89774e+06 9.89788e+06
          9.89803e+06 9.89818e+06 9.89833e+06 9.89848e+06 9.89864e+06 9.8988e+06 9.89897e+06 9.89914e+06 9.8993e+06 9.89948e+06 9.89965e+06 9.89982e+06
          9.9e+06 9.90018e+06 9.90036e+06 9.90055e+06 9.90073e+06 9.90091e+06 9.9011e+06 9.90128e+06 9.90148e+06 9.90174e+06 9.90279e+06 9.9033e+06
          9.90353e+06 9.90364e+06 9.90368e+06 9.90366e+06 9.90356e+06 9.90331e+06 9.90264e+06 9.90246e+06 9.90235e+06 9.90226e+06 9.90218e+06 9.90207e+06
          9.90191e+06 9.90167e+06 9.90125e+06 9.90072e+06 9.90039e+06 9.90022e+06 9.90008e+06 9.89997e+06 9.89988e+06 9.89981e+06 9.89976e+06 9.89973e+06
          9.89966e+06 9.89957e+06 9.89946e+06 9.89934e+06 9.89921e+06 9.89908e+06 9.89893e+06 9.89879e+06 9.89864e+06 9.89849e+06 9.89833e+06 9.89818e+06
          9.89803e+06 9.89788e+06 9.89774e+06 9.89161e+06 9.89176e+06 9.8919e+06 9.89206e+06 9.89221e+06 9.89237e+06 9.89253e+06 9.89269e+06 9.89285e+06
          9.89302e+06 9.89319e+06 9.89336e+06 9.89353e+06 9.89371e+06 9.89389e+06 9.89407e+06 9.89425e+06 9.89444e+06 9.89463e+06 9.89483e+06 9.89504e+06
          9.89528e+06 9.89558e+06 9.89604e+06 9.8971e+06 9.89762e+06 9.89787e+06 9.898e+06 9.89806e+06 9.89804e+06 9.89796e+06 9.89777e+06 9.89739e+06
          9.89723e+06 9.89712e+06 9.89702e+06 9.89693e+06 9.89682e+06 9.89665e+06 9.89637e+06 9.89583e+06 9.8949e+06 9.89459e+06 9.89436e+06 9.89419e+06
          9.89405e+06 9.89394e+06 9.89386e+06 9.89379e+06 9.89374e+06 9.89363e+06 9.89352e+06 9.89339e+06 9.89326e+06 9.89312e+06 9.89298e+06 9.89284e+06
          9.89268e+06 9.89253e+06 9.89238e+06 9.89222e+06 9.89207e+06 9.89191e+06 9.89176e+06 9.89161e+06 9.88548e+06 9.88563e+06 9.88578e+06 9.88593e+06
          9.88609e+06 9.88625e+06 9.88641e+06 9.88657e+06 9.88674e+06 9.8869e+06 9.88707e+06 9.88724e+06 9.88741e+06 9.88759e+06 9.88777e+06 9.88795e+06
          9.88814e+06 9.88833e+06 9.88853e+06 9.88874e+06 9.88896e+06 9.88923e+06 9.88955e+06 9.88999e+06 9.89048e+06 9.89091e+06 9.89118e+06 9.89134e+06
          9.89141e+06 9.89141e+06 9.89133e+06 9.89114e+06 9.89084e+06 9.89072e+06 9.89061e+06 9.8905e+06 9.89039e+06 9.89029e+06 9.89016e+06 9.88994e+06
          9.88947e+06 9.88904e+06 9.88869e+06 9.88844e+06 9.88825e+06 9.8881e+06 9.88798e+06 9.88789e+06 9.88781e+06 9.88775e+06 9.88761e+06 9.88747e+06
          9.88733e+06 9.88719e+06 9.88704e+06 9.88689e+06 9.88674e+06 9.88658e+06 9.88643e+06 9.88627e+06 9.88611e+06 9.88595e+06 9.88579e+06 9.88563e+06
          9.88548e+06 9.87934e+06 9.8795e+06 9.87965e+06 9.87981e+06 9.87997e+06 9.88013e+06 9.88029e+06 9.88045e+06 9.88061e+06 9.88078e+06 9.88095e+06
          9.88112e+06 9.88129e+06 9.88147e+06 9.88165e+06 9.88183e+06 9.88202e+06 9.88221e+06 9.88241e+06 9.88262e+06 9.88286e+06 9.88312e+06 9.88342e+06
          9.88376e+06 9.88411e+06 9.88443e+06 9.88466e+06 9.88482e+06 9.8849e+06 9.8849e+06 9.88484e+06 9.88471e+06 9.88452e+06 9.88443e+06 9.88433e+06
          9.88423e+06 9.88412e+06 9.88399e+06 9.88382e+06 9.8836e+06 9.8833e+06 9.88299e+06 9.8827e+06 9.88247e+06 9.88228e+06 9.88213e+06 9.882e+06
          9.8819e+06 9.88181e+06 9.88174e+06 9.88158e+06 9.88143e+06 9.88127e+06 9.88112e+06 9.88096e+06 9.88081e+06 9.88065e+06 9.88049e+06 9.88032e+06
          9.88016e+06 9.88e+06 9.87984e+06 9.87967e+06 9.87951e+06 9.87934e+06 9.87321e+06 9.87337e+06 9.87353e+06 9.87368e+06 9.87384e+06 9.874e+06
          9.87416e+06 9.87433e+06 9.87449e+06 9.87466e+06 9.87483e+06 9.875e+06 9.87517e+06 9.87534e+06 9.87552e+06 9.8757e+06 9.87589e+06 9.87608e+06
          9.87628e+06 9.87649e+06 9.87672e+06 9.87696e+06 9.87723e+06 9.87751e+06 9.87778e+06 9.87803e+06 9.87823e+06 9.87837e+06 9.87845e+06 9.87847e+06
          9.87843e+06 9.87834e+06 9.87822e+06 9.87814e+06 9.87806e+06 9.87796e+06 9.87785e+06 9.87772e+06 9.87756e+06 9.87736e+06 9.87713e+06 9.87689e+06
          9.87666e+06 9.87646e+06 9.87628e+06 9.87613e+06 9.876e+06 9.8759e+06 9.8758e+06 9.87572e+06 9.87555e+06 9.87538e+06 9.87522e+06 9.87505e+06
          9.87489e+06 9.87472e+06 9.87456e+06 9.87439e+06 9.87422e+06 9.87406e+06 9.87389e+06 9.87372e+06 9.87355e+06 9.87338e+06 9.87321e+06 9.86708e+06
          9.86724e+06 9.8674e+06 9.86756e+06 9.86772e+06 9.86788e+06 9.86804e+06 9.8682e+06 9.86837e+06 9.86853e+06 9.8687e+06 9.86887e+06 9.86904e+06
          9.86922e+06 9.8694e+06 9.86958e+06 9.86976e+06 9.86995e+06 9.87015e+06 9.87035e+06 9.87056e+06 9.87079e+06 9.87102e+06 9.87126e+06 9.87149e+06
          9.87169e+06 9.87186e+06 9.87198e+06 9.87206e+06 9.87209e+06 9.87207e+06 9.87202e+06 9.87193e+06 9.87187e+06 9.8718e+06 9.87171e+06 9.87161e+06
          9.87148e+06 9.87134e+06 9.87117e+06 9.87098e+06 9.87078e+06 9.87059e+06 9.87041e+06 9.87025e+06 9.87011e+06 9.86998e+06 9.86988e+06 9.86978e+06
          9.8697e+06 9.86951e+06 9.86933e+06 9.86916e+06 9.86898e+06 9.86881e+06 9.86864e+06 9.86847e+06 9.86829e+06 9.86812e+06 9.86795e+06 9.86778e+06
          9.8676e+06 9.86743e+06 9.86726e+06 9.86708e+06 9.86095e+06 9.86111e+06 9.86127e+06 9.86143e+06 9.86159e+06 9.86175e+06 9.86191e+06 9.86208e+06
          9.86224e+06 9.86241e+06 9.86258e+06 9.86274e+06 9.86292e+06 9.86309e+06 9.86326e+06 9.86344e+06 9.86362e+06 9.86381e+06 9.864e+06 9.8642e+06
          9.8644e+06 9.8646e+06 9.86481e+06 9.86502e+06 9.86521e+06 9.86539e+06 9.86554e+06 9.86565e+06 9.86572e+06 9.86576e+06 9.86576e+06 9.86572e+06
          9.86566e+06 9.86562e+06 9.86556e+06 9.86548e+06 9.86538e+06 9.86527e+06 9.86514e+06 9.86499e+06 9.86484e+06 9.86467e+06 9.8645e+06 9.86435e+06
          9.8642e+06 9.86407e+06 9.86395e+06 9.86384e+06 9.86374e+06 9.86366e+06 9.86347e+06 9.86328e+06 9.8631e+06 9.86291e+06 9.86273e+06 9.86255e+06
          9.86238e+06 9.8622e+06 9.86202e+06 9.86184e+06 9.86166e+06 9.86148e+06 9.86131e+06 9.86113e+06 9.86095e+06 9.85482e+06 9.85498e+06 9.85514e+06
          9.8553e+06 9.85546e+06 9.85562e+06 9.85578e+06 9.85595e+06 9.85611e+06 9.85628e+06 9.85645e+06 9.85662e+06 9.85678e+06 9.85696e+06 9.85713e+06
          9.85731e+06 9.85748e+06 9.85766e+06 9.85785e+06 9.85804e+06 9.85823e+06 9.85842e+06 9.8586e+06 9.85879e+06 9.85896e+06 9.85911e+06 9.85924e+06
          9.85935e+06 9.85942e+06 9.85946e+06 9.85947e+06 9.85946e+06 9.85941e+06 9.85938e+06 9.85933e+06 9.85926e+06 9.85917e+06 9.85908e+06 9.85896e+06
          9.85883e+06 9.8587e+06 9.85855e+06 9.85841e+06 9.85827e+06 9.85814e+06 9.85802e+06 9.8579e+06 9.8578e+06 9.8577e+06 9.85761e+06 9.85742e+06
          9.85722e+06 9.85703e+06 9.85684e+06 9.85666e+06 9.85647e+06 9.85629e+06 9.8561e+06 9.85592e+06 9.85574e+06 9.85555e+06 9.85537e+06 9.85519e+06
          9.855e+06 9.85482e+06 9.84869e+06 9.84885e+06 9.84901e+06 9.84917e+06 9.84933e+06 9.84949e+06 9.84966e+06 9.84982e+06 9.84998e+06 9.85015e+06
          9.85032e+06 9.85048e+06 9.85065e+06 9.85082e+06 9.85099e+06 9.85117e+06 9.85134e+06 9.85152e+06 9.8517e+06 9.85187e+06 9.85205e+06 9.85223e+06
          9.8524e+06 9.85257e+06 9.85272e+06 9.85286e+06 9.85298e+06 9.85308e+06 9.85315e+06 9.8532e+06 9.85322e+06 9.85321e+06 9.85318e+06 9.85316e+06
          9.85311e+06 9.85306e+06 9.85298e+06 9.85289e+06 9.85279e+06 9.85268e+06 9.85256e+06 9.85244e+06 9.85231e+06 9.85219e+06 9.85207e+06 9.85195e+06
          9.85184e+06 9.85174e+06 9.85164e+06 9.85156e+06 9.85136e+06 9.85116e+06 9.85096e+06 9.85077e+06 9.85058e+06 9.85038e+06 9.8502e+06 9.85001e+06
          9.84982e+06 9.84963e+06 9.84944e+06 9.84925e+06 9.84906e+06 9.84888e+06 9.84869e+06 9.84256e+06 9.84272e+06 9.84288e+06 9.84304e+06 9.8432e+06
          9.84336e+06 9.84353e+06 9.84369e+06 9.84386e+06 9.84402e+06 9.84419e+06 9.84435e+06 9.84452e+06 9.84469e+06 9.84486e+06 9.84503e+06 9.8452e+06
          9.84537e+06 9.84554e+06 9.84571e+06 9.84588e+06 9.84605e+06 9.84621e+06 9.84636e+06 9.8465e+06 9.84663e+06 9.84674e+06 9.84684e+06 9.84691e+06
          9.84695e+06 9.84698e+06 9.84699e+06 9.84697e+06 9.84695e+06 9.84692e+06 9.84687e+06 9.8468e+06 9.84673e+06 9.84664e+06 9.84654e+06 9.84644e+06
          9.84633e+06 9.84621e+06 9.8461e+06 9.84599e+06 9.84588e+06 9.84578e+06 9.84568e+06 9.84558e+06 9.8455e+06 9.8453e+06 9.84509e+06 9.84489e+06
          9.84469e+06 9.8445e+06 9.8443e+06 9.8441e+06 9.84391e+06 9.84372e+06 9.84352e+06 9.84333e+06 9.84314e+06 9.84294e+06 9.84275e+06 9.84256e+06
          9.83642e+06 9.83659e+06 9.83675e+06 9.83691e+06 9.83707e+06 9.83724e+06 9.8374e+06 9.83756e+06 9.83772e+06 9.83789e+06 9.83805e+06 9.83822e+06
          9.83838e+06 9.83855e+06 9.83872e+06 9.83888e+06 9.83905e+06 9.83922e+06 9.83938e+06 9.83955e+06 9.83971e+06 9.83987e+06 9.84002e+06 9.84016e+06
          9.8403e+06 9.84042e+06 9.84052e+06 9.84061e+06 9.84068e+06 9.84074e+06 9.84077e+06 9.84078e+06 9.84078e+06 9.84076e+06 9.84073e+06 9.84069e+06
          9.84064e+06 9.84057e+06 9.84049e+06 9.84041e+06 9.84032e+06 9.84022e+06 9.84012e+06 9.84001e+06 9.83991e+06 9.83981e+06 9.83971e+06 9.83961e+06
          9.83952e+06 9.83943e+06 9.83923e+06 9.83902e+06 9.83882e+06 9.83862e+06 9.83841e+06 9.83821e+06 9.83801e+06 9.83781e+06 9.83762e+06 9.83742e+06
          9.83722e+06 9.83702e+06 9.83682e+06 9.83662e+06 9.83642e+06 9.83029e+06 9.83046e+06 9.83062e+06 9.83078e+06 9.83094e+06 9.8311e+06 9.83127e+06
          9.83143e+06 9.8316e+06 9.83176e+06 9.83192e+06 9.83209e+06 9.83225e+06 9.83242e+06 9.83258e+06 9.83274e+06 9.83291e+06 9.83307e+06 9.83323e+06
          9.83339e+06 9.83354e+06 9.8337e+06 9.83384e+06 9.83398e+06 9.8341e+06 9.83422e+06 9.83432e+06 9.83441e+06 9.83448e+06 9.83454e+06 9.83457e+06
          9.8346e+06 9.8346e+06 9.83459e+06 9.83456e+06 9.83453e+06 9.83448e+06 9.83442e+06 9.83436e+06 9.83428e+06 9.8342e+06 9.83411e+06 9.83402e+06
          9.83392e+06 9.83383e+06 9.83373e+06 9.83364e+06 9.83354e+06 9.83345e+06 9.83336e+06 9.83316e+06 9.83295e+06 9.83274e+06 9.83254e+06 9.83233e+06
          9.83212e+06 9.83192e+06 9.83172e+06 9.83151e+06 9.83131e+06 9.83111e+06 9.8309e+06 9.8307e+06 9.8305e+06 9.83029e+06 9.82416e+06 9.82432e+06
          9.82449e+06 9.82465e+06 9.82481e+06 9.82498e+06 9.82514e+06 9.8253e+06 9.82546e+06 9.82563e+06 9.82579e+06 9.82595e+06 9.82612e+06 9.82628e+06
          9.82644e+06 9.8266e+06 9.82676e+06 9.82692e+06 9.82708e+06 9.82723e+06 9.82738e+06 9.82753e+06 9.82767e+06 9.8278e+06 9.82792e+06 9.82803e+06
          9.82813e+06 9.82822e+06 9.82829e+06 9.82835e+06 9.8284e+06 9.82842e+06 9.82843e+06 9.82842e+06 9.82841e+06 9.82838e+06 9.82834e+06 9.82829e+06
          9.82823e+06 9.82816e+06 9.82809e+06 9.82801e+06 9.82792e+06 9.82784e+06 9.82774e+06 9.82765e+06 9.82756e+06 9.82747e+06 9.82738e+06 9.82729e+06
          9.82709e+06 9.82688e+06 9.82667e+06 9.82646e+06 9.82625e+06 9.82604e+06 9.82583e+06 9.82562e+06 9.82541e+06 9.8252e+06 9.825e+06 9.82479e+06
          9.82458e+06 9.82437e+06 9.82416e+06 9.81803e+06 9.81819e+06 9.81836e+06 9.81852e+06 9.81868e+06 9.81884e+06 9.81901e+06 9.81917e+06 9.81933e+06
          9.8195e+06 9.81966e+06 9.81982e+06 9.81998e+06 9.82014e+06 9.8203e+06 9.82046e+06 9.82062e+06 9.82078e+06 9.82093e+06 9.82108e+06 9.82123e+06
          9.82137e+06 9.8215e+06 9.82163e+06 9.82175e+06 9.82186e+06 9.82196e+06 9.82205e+06 9.82212e+06 9.82218e+06 9.82223e+06 9.82227e+06 9.82228e+06
          9.82228e+06 9.82226e+06 9.82224e+06 9.82221e+06 9.82216e+06 9.82211e+06 9.82205e+06 9.82198e+06 9.82191e+06 9.82183e+06 9.82175e+06 9.82166e+06
          9.82158e+06 9.82149e+06 9.8214e+06 9.82131e+06 9.82122e+06 9.82102e+06 9.8208e+06 9.82059e+06 9.82038e+06 9.82016e+06 9.81995e+06 9.81974e+06
          9.81952e+06 9.81931e+06 9.8191e+06 9.81888e+06 9.81867e+06 9.81846e+06 9.81824e+06 9.81803e+06 9.8119e+06 9.81206e+06 9.81223e+06 9.81239e+06
          9.81255e+06 9.81271e+06 9.81288e+06 9.81304e+06 9.8132e+06 9.81336e+06 9.81352e+06 9.81369e+06 9.81385e+06 9.81401e+06 9.81416e+06 9.81432e+06
          9.81448e+06 9.81463e+06 9.81478e+06 9.81493e+06 9.81507e+06 9.81521e+06 9.81535e+06 9.81547e+06 9.81559e+06 9.8157e+06 9.8158e+06 9.81589e+06
          9.81596e+06 9.81603e+06 9.81608e+06 9.81612e+06 9.81614e+06 9.81614e+06 9.81613e+06 9.81611e+06 9.81608e+06 9.81604e+06 9.816e+06 9.81594e+06
          9.81588e+06 9.81582e+06 9.81574e+06 9.81566e+06 9.81558e+06 9.8155e+06 9.81542e+06 9.81533e+06 9.81524e+06 9.81515e+06 9.81494e+06 9.81473e+06
          9.81451e+06 9.8143e+06 9.81408e+06 9.81386e+06 9.81364e+06 9.81343e+06 9.81321e+06 9.81299e+06 9.81277e+06 9.81255e+06 9.81234e+06 9.81212e+06
          9.8119e+06 9.80577e+06 9.80593e+06 9.8061e+06 9.80626e+06 9.80642e+06 9.80658e+06 9.80675e+06 9.80691e+06 9.80707e+06 9.80723e+06 9.80739e+06
          9.80755e+06 9.80771e+06 9.80787e+06 9.80803e+06 9.80819e+06 9.80834e+06 9.80849e+06 9.80864e+06 9.80879e+06 9.80893e+06 9.80906e+06 9.8092e+06
          9.80932e+06 9.80944e+06 9.80955e+06 9.80965e+06 9.80974e+06 9.80982e+06 9.80988e+06 9.80994e+06 9.80999e+06 9.81e+06 9.81001e+06 9.81001e+06
          9.80999e+06 9.80997e+06 9.80994e+06 9.80989e+06 9.80984e+06 9.80979e+06 9.80973e+06 9.80966e+06 9.80958e+06 9.80951e+06 9.80943e+06 9.80934e+06
          9.80926e+06 9.80917e+06 9.80908e+06 9.80887e+06 9.80865e+06 9.80843e+06 9.80821e+06 9.80799e+06 9.80777e+06 9.80755e+06 9.80733e+06 9.80711e+06
          9.80688e+06 9.80666e+06 9.80644e+06 9.80622e+06 9.80599e+06 9.80577e+06 9.79964e+06 9.7998e+06 9.79996e+06 9.80013e+06 9.80029e+06 9.80045e+06
          9.80062e+06 9.80078e+06 9.80094e+06 9.8011e+06 9.80126e+06 9.80142e+06 9.80158e+06 9.80174e+06 9.8019e+06 9.80205e+06 9.8022e+06 9.80235e+06
          9.8025e+06 9.80264e+06 9.80279e+06 9.80292e+06 9.80305e+06 9.80318e+06 9.80329e+06 9.8034e+06 9.8035e+06 9.8036e+06 9.80368e+06 9.80375e+06
          9.80382e+06 9.80387e+06 9.80388e+06 9.80389e+06 9.80389e+06 9.80388e+06 9.80386e+06 9.80384e+06 9.8038e+06 9.80375e+06 9.8037e+06 9.80364e+06
          9.80358e+06 9.80351e+06 9.80344e+06 9.80336e+06 9.80328e+06 9.80319e+06 9.8031e+06 9.80301e+06 9.8028e+06 9.80258e+06 9.80236e+06 9.80213e+06
          9.80191e+06 9.80168e+06 9.80146e+06 9.80123e+06 9.801e+06 9.80078e+06 9.80055e+06 9.80032e+06 9.80009e+06 9.79987e+06 9.79964e+06 9.79351e+06
          9.79367e+06 9.79383e+06 9.794e+06 9.79416e+06 9.79432e+06 9.79449e+06 9.79465e+06 9.79481e+06 9.79497e+06 9.79513e+06 9.79529e+06 9.79545e+06
          9.79561e+06 9.79576e+06 9.79592e+06 9.79607e+06 9.79622e+06 9.79636e+06 9.79651e+06 9.79665e+06 9.79678e+06 9.79691e+06 9.79704e+06 9.79716e+06
          9.79727e+06 9.79737e+06 9.79747e+06 9.79755e+06 9.79763e+06 9.7977e+06 9.79776e+06 9.79778e+06 9.79779e+06 9.79779e+06 9.79778e+06 9.79777e+06
          9.79774e+06 9.79771e+06 9.79767e+06 9.79762e+06 9.79757e+06 9.7975e+06 9.79744e+06 9.79737e+06 9.79729e+06 9.79721e+06 9.79712e+06 9.79704e+06
          9.79695e+06 9.79673e+06 9.79651e+06 9.79628e+06 9.79606e+06 9.79583e+06 9.7956e+06 9.79537e+06 9.79514e+06 9.7949e+06 9.79467e+06 9.79444e+06
          9.79421e+06 9.79397e+06 9.79374e+06 9.79351e+06 9.78738e+06 9.78754e+06 9.7877e+06 9.78787e+06 9.78803e+06 9.78819e+06 9.78836e+06 9.78852e+06
          9.78868e+06 9.78884e+06 9.789e+06 9.78916e+06 9.78932e+06 9.78948e+06 9.78963e+06 9.78978e+06 9.78994e+06 9.79009e+06 9.79023e+06 9.79038e+06
          9.79052e+06 9.79065e+06 9.79078e+06 9.79091e+06 9.79103e+06 9.79114e+06 9.79124e+06 9.79134e+06 9.79143e+06 9.79152e+06 9.79159e+06 9.79165e+06
          9.79168e+06 9.79169e+06 9.7917e+06 9.79169e+06 9.79168e+06 9.79166e+06 9.79163e+06 9.79159e+06 9.79155e+06 9.7915e+06 9.79144e+06 9.79137e+06