<?xml version="1.0"?>
<VTKFile type="UnstructuredGrid" version="0.1" byte_order="LittleEndian">
  <UnstructuredGrid>
    <Piece NumberOfCells="100" NumberOfPoints="121">
      <CellData Scalars="wetting potential">
        <DataArray type="Float32" Name="wetting potential" NumberOfComponents="1" format="ascii">
          100180 100433 100633 100797 100880 100754 100606 100456 100304 100139 100207 100446
          100642 100817 100933 100759 100607 100457 100307 100168 100283 100470 100655 100852
          101057 101170 101361 101818 101028 100235 100355 100492 100667 100885 101234 101584
          101924 103024 101583 100212 100285 101550 102375 101940 101448 101592 101718 101383
          100799 100174 100189 102476 103889 102962 101575 101599 101645 101149 100564 100150
          100131 100474 101013 103772 104037 104016 103198 100810 100424 100127 100115 100353
          100612 104806 106112 106110 104814 100580 100341 100112 100110 100324 100528 100884
          102171 102163 100860 100501 100311 100107 100109 100320 100527 100810 101241 101229
          100784 100504 100307 100105
        </DataArray>
        <DataArray type="Float32" Name="wetting saturation" NumberOfComponents="1" format="ascii">
          1 1 1 1 1 1 1 1 1 1 0.999961 1
          1 1 1 1 1 1 1 0.994345 0.966914 1 1 1
          1 1 0.999812 0.998791 0.999724 0.8803 0.809661 0.999948 1 1 0.998276 0.916234
          0.429074 0.240112 0.286891 0.776158 0.736548 0.999401 0.998242 0.999626 0.924477 0.999991 0.96348 0.564282
          0.731161 0.988595 0.708339 0.213734 0.207 0.514273 0.823073 0.999915 0.97659 0.626979 0.844348 0.997206
          0.961793 0.616414 0.460044 0.996759 0.99406 0.99407 0.996281 0.616463 0.869658 0.998439 0.998363 0.887154
          0.620533 0.155527 0.157426 0.157424 0.155745 0.614646 0.898352 0.999193 0.999999 0.988323 0.807676 0.354603
          0.261839 0.260993 0.34173 0.803864 0.988152 1 1 0.99998 0.973038 0.850912 0.593281 0.59301
          0.847264 0.969925 0.999975 1
        </DataArray>
      </CellData>
      <Points>
        <DataArray type="Float32" Name="Coordinates" NumberOfComponents="3" format="ascii">
          0 0 0 2 0 0 0 1 0 2 1 0
          4 0 0 4 1 0 6 0 0 6 1 0
          8 0 0 8 1 0 10 0 0 10 1 0
          12 0 0 12 1 0 14 0 0 14 1 0
          16 0 0 16 1 0 18 0 0 18 1 0
          20 0 0 20 1 0 0 2 0 2 2 0
          4 2 0 6 2 0 8 2 0 10 2 0
          12 2 0 14 2 0 16 2 0 18 2 0
          20 2 0 0 3 0 2 3 0 4 3 0
          6 3 0 8 3 0 10 3 0 12 3 0
          14 3 0 16 3 0 18 3 0 20 3 0
          0 4 0 2 4 0 4 4 0 6 4 0
          8 4 0 10 4 0 12 4 0 14 4 0
          16 4 0 18 4 0 20 4 0 0 5 0
          2 5 0 4 5 0 6 5 0 8 5 0
          10 5 0 12 5 0 14 5 0 16 5 0
          18 5 0 20 5 0 0 6 0 2 6 0
          4 6 0 6 6 0 8 6 0 10 6 0
          12 6 0 14 6 0 16 6 0 18 6 0
          20 6 0 0 7 0 2 7 0 4 7 0
          6 7 0 8 7 0 10 7 0 12 7 0
          14 7 0 16 7 0 18 7 0 20 7 0
          0 8 0 2 8 0 4 8 0 6 8 0
          8 8 0 10 8 0 12 8 0 14 8 0
          16 8 0 18 8 0 20 8 0 0 9 0
          2 9 0 4 9 0 6 9 0 8 9 0
          10 9 0 12 9 0 14 9 0 16 9 0
          18 9 0 20 9 0 0 10 0 2 10 0
          4 10 0 6 10 0 8 10 0 10 10 0
          12 10 0 14 10 0 16 10 0 18 10 0
          20 10 0
        </DataArray>
      </Points>
      <Cells>
        <DataArray type="Int32" Name="connectivity" NumberOfComponents="1" format="ascii">
          0 1 3 2 1 4 5 3 4 6 7 5
          6 8 9 7 8 10 11 9 10 12 13 11
          12 14 15 13 14 16 17 15 16 18 19 17
          18 20 21 19 2 3 23 22 3 5 24 23
          5 7 25 24 7 9 26 25 9 11 27 26
          11 13 28 27 13 15 29 28 15 17 30 29
          17 19 31 30 19 21 32 31 22 23 34 33
          23 24 35 34 24 25 36 35 25 26 37 36
          26 27 38 37 27 28 39 38 28 29 40 39
          29 30 41 40 30 31 42 41 31 32 43 42
          33 34 45 44 34 35 46 45 35 36 47 46
          36 37 48 47 37 38 49 48 38 39 50 49
          39 40 51 50 40 41 52 51 41 42 53 52
          42 43 54 53 44 45 56 55 45 46 57 56
          46 47 58 57 47 48 59 58 48 49 60 59
          49 50 61 60 50 51 62 61 51 52 63 62
          52 53 64 63 53 54 65 64 55 56 67 66
          56 57 68 67 57 58 69 68 58 59 70 69
          59 60 71 70 60 61 72 71 61 62 73 72
          62 63 74 73 63 64 75 74 64 65 76 75
          66 67 78 77 67 68 79 78 68 69 80 79
          69 70 81 80 70 71 82 81 71 72 83 82
          72 73 84 83 73 74 85 84 74 75 86 85
          75 76 87 86 77 78 89 88 78 79 90 89
          79 80 91 90 80 81 92 91 81 82 93 92
          82 83 94 93 83 84 95 94 84 85 96 95
          85 86 97 96 86 87 98 97 88 89 100 99
          89 90 101 100 90 91 102 101 91 92 103 102
          92 93 104 103 93 94 105 104 94 95 106 105
          95 96 107 106 96 97 108 107 97 98 109 108
          99 100 111 110 100 101 112 111 101 102 113 112
          102 103 114 113 103 104 115 114 104 105 116 115
          105 106 117 116 106 107 118 117 107 108 119 118
          108 109 120 119
        </DataArray>
        <DataArray type="Int32" Name="offsets" NumberOfComponents="1" format="ascii">
          4 8 12 16 20 24 28 32 36 40 44 48
          52 56 60 64 68 72 76 80 84 88 92 96
          100 104 108 112 116 120 124 128 132 136 140 144
          148 152 156 160 164 168 172 176 180 184 188 192
          196 200 204 208 212 216 220 224 228 232 236 240
          244 248 252 256 260 264 268 272 276 280 284 288
          292 296 300 304 308 312 316 320 324 328 332 336
          340 344 348 352 356 360 364 368 372 376 380 384
          388 392 396 400
        </DataArray>
        <DataArray type="UInt8" Name="types" NumberOfComponents="1" format="ascii">
          9 9 9 9 9 9 9 9 9 9 9 9
          9 9 9 9 9 9 9 9 9 9 9 9
          9 9 9 9 9 9 9 9 9 9 9 9
          9 9 9 9 9 9 9 9 9 9 9 9
          9 9 9 9 9 9 9 9 9 9 9 9
          9 9 9 9 9 9 9 9 9 9 9 9
          9 9 9 9 9 9 9 9 9 9 9 9
          9 9 9 9 9 9 9 9 9 9 9 9
          9 9 9 9
        </DataArray>
      </Cells>
    </Piece>
  </UnstructuredGrid>
</VTKFile>
