<?xml version="1.0"?>
<VTKFile type="UnstructuredGrid" version="0.1" byte_order="LittleEndian">
  <UnstructuredGrid>
    <Piece NumberOfCells="1928" NumberOfPoints="5784">
      <PointData Scalars="S_aq">
        <DataArray type="Float32" Name="S_aq" NumberOfComponents="1" format="ascii">
          0.5 0.702606 0.858871 0.5 0.5 0.702606 0.858871 0.702606 0.947375 0.998829 0.858871 0.998999
          0.858871 0.947375 0.998999 0.947375 0.99997 0.998999 1 0.998999 0.99997 0.5 0.722491 0.702606
          0.947375 0.702606 0.722491 0.5 0.5 0.722491 0.801044 0.971258 0.722491 0.947375 0.722491 0.971258
          0.947375 0.971258 0.99997 0.999994 0.99997 0.971258 1 0.998829 1 0.998829 0.998999 1
          1 1 1 1 1 0.998999 1 1 1 1 1 1
          1 1 1 1 1 1 1 1 1 1 1 1
          1 1 1 1 1 1 1 1 1 1 0.99997 1
          1 1 1 0.999994 1 0.99997 1 1 1 1 1 1
          1 1 1 1 1 1 1 1 1 0.5 0.801044 0.722491
          0.5 0.717872 0.801044 0.5 0.5 0.717872 0.801044 0.717872 0.967837 0.801044 0.995576 0.971258
          0.999994 0.971258 0.995576 0.999994 0.995576 1 0.801044 0.967837 0.995576 0.995576 0.967837 0.999926
          0.995576 0.999926 1 0.5 0.680897 0.717872 0.5 0.5 0.680897 0.932216 0.717872 0.680897
          0.932216 0.967837 0.717872 0.5 0.754228 0.680897 0.932216 0.680897 0.754228 0.932216 0.999926 0.967837
          0.932216 0.990058 0.999926 0.932216 0.754228 0.990058 1 0.999926 0.990058 0.999994 1 1
          1 1 1 1 1 1 0.995576 1 1 1 1 1
          1 1 1 1 1 1 1 1 1 1 1 0.999926
          1 1 1 1 1 1 1 1 1 1 1 1
          1 1 1 1 1 1 1 1 1 1 1 1
          1 1 1 1 1 1 1 1 1 1 1 1
          1 1 1 1 1 1 1 1 1 1 1 1
          1 1 1 1 1 1 1 1 1 1 1 1
          1 1 1 1 1 1 1 1 1 1 1 1
          1 1 1 1 1 1 1 1 1 1 1 1
          1 1 1 1 1 1 1 1 1 1 1 1
          1 1 1 1 1 1 1 1 1 1 1 1
          1 1 1 1 1 1 1 1 1 1 1 1
          1 1 1 1 1 1 1 1 1 1 1 1
          1 1 1 1 1 1 1 1 1 1 1 1
          1 1 1 1 1 1 1 1 1 1 1 1
          1 1 1 1 1 1 1 1 1 1 1 1
          1 1 1 1 1 1 1 1 1 1 1 1
          1 1 1 1 1 1 1 1 1 1 1 1
          1 1 1 1 1 1 1 1 1 1 1 1
          1 1 1 1 1 1 1 1 1 1 1 1
          1 1 1 1 1 1 1 1 1 1 1 1
          1 1 1 1 1 1 1 1 1 1 1 1
          1 1 1 1 1 1 1 1 1 1 1 1
          1 1 1 1 1 1 1 1 1 1 1 1
          1 1 1 1 1 1 1 1 1 1 1 1
          1 1 1 1 1 1 1 1 1 1 1 1
          1 1 1 1 1 1 1 1 1 1 1 1
          1 1 1 1 1 1 1 1 1 1 1 1
          1 1 1 1 1 1 1 1 1 1 1 1
          1 1 1 1 1 1 1 1 1 1 1 1
          1 1 1 1 1 1 1 1 1 1 1 1
          1 1 1 1 1 1 1 1 1 1 1 1
          1 1 1 1 1 1 1 1 1 1 1 1
          1 1 1 1 1 1 1 1 1 1 1 1
          1 1 1 1 1 1 1 1 1 1 1 1
          1 1 1 1 1 1 1 1 1 1 1 1
          1 1 1 1 1 1 1 1 1 1 1 1
          1 1 1 1 1 1 1 1 1 1 1 1
          1 1 1 1 1 1 1 1 1 1 1 1
          1 1 1 1 1 1 1 1 1 1 1 1
          1 1 1 1 1 1 1 1 1 1 1 1
          1 1 1 1 1 1 1 1 1 1 1 1
          1 1 1 1 1 1 1 1 1 1 1 1
          1 1 1 1 1 1 1 1 1 1 1 1
          1 1 1 1 1 1 1 1 1 1 1 1
          1 1 1 1 1 1 1 1 1 1 1 1
          1 1 1 1 1 1 1 1 1 1 1 1
          1 1 1 1 1 1 1 1 1 1 1 1
          1 1 1 1 1 1 1 1 1 1 1 1
          1 1 1 1 1 1 1 1 1 1 1 1
          1 1 1 1 1 1 1 1 1 1 1 1
          1 1 1 1 1 1 1 1 1 1 1 1
          1 1 1 1 1 1 1 1 1 1 1 1
          1 1 1 1 1 1 1 1 1 1 1 1
          1 1 1 1 1 1 1 1 1 1 1 1
          1 1 1 1 1 1 1 1 1 1 1 1
          1 1 1 1 1 1 1 1 1 1 1 1
          1 1 1 1 1 1 1 1 1 1 1 1
          1 1 1 1 1 1 1 1 1 1 1 1
          1 1 1 1 1 1 1 1 1 1 1 1
          1 1 1 1 1 1 1 1 1 1 1 1
          1 1 1 1 1 1 1 1 1 1 1 1
          1 1 1 1 1 1 1 1 1 1 1 1
          1 1 1 0.5 0.5 0.754228 0.5 0.704872 0.754228 0.968302 0.754228 0.704872
          0.5 0.5 0.704872 0.5 0.77544 0.704872 0.968302 0.704872 0.77544 0.968302 0.990058 0.754228
          1 0.990058 0.999996 0.968302 0.999996 0.990058 0.968302 0.77544 0.982898 0.968302 0.982898 0.999996
          0.968302 0.999996 0.999996 0.5 0.66997 0.77544 0.5 0.5 0.66997 0.77544 0.66997 0.891946
          0.77544 0.891946 0.993655 0.5 0.659819 0.66997 0.5 0.5 0.659819 0.839454 0.891946 0.66997
          0.839454 0.996362 0.891946 0.839454 0.66997 0.659819 0.839454 0.87003 0.996362 0.77544 0.993655 0.982898
          0.999996 0.982898 0.993655 0.999996 1 1 0.999996 0.993655 1 0.993655 0.891946 0.996362
          1 0.993655 0.996362 1 0.996362 0.998865 1 1 0.993655 1 1 1
          1 0.999996 1 1 1 0.999996 0.999996 1 0.999996 1 0.999996 1
          1 1 1 1 1 1 1 1 1 1 1 1
          1 1 1 1 1 1 1 1 1 1 1 1
          1 1 1 1 1 1 1 1 1 1 1 1
          1 1 1 1 1 1 1 1 1 1 1 1
          1 1 1 1 1 1 1 1 1 1 1 1
          1 1 1 1 1 1 1 1 1 1 1 1
          1 1 1 1 1 1 0.5 0.665768 0.659819 0.5 0.5 0.665768
          0.839454 0.659819 0.87003 0.665768 0.87003 0.659819 0.929983 0.87003 0.665768 0.5 0.622287 0.665768
          0.665768 0.622287 0.767467 0.5 0.5 0.622287 0.5 0.601119 0.622287 0.74671 0.622287 0.601119
          0.929983 0.665768 0.767467 0.74671 0.767467 0.622287 0.74671 0.975419 0.767467 0.929983 0.767467 0.975419
          0.998865 0.996362 0.87003 0.929983 0.998865 0.87003 0.929983 0.9999 0.998865 0.998865 0.9999 1
          1 0.998865 1 1 1 1 1 1 0.9999 1 1 1
          0.929983 0.975419 0.9999 0.999993 0.9999 0.975419 0.999993 1 0.9999 1 0.9999 1
          1 1 1 1 1 1 1 1 1 0.5 0.5 0.601119
          0.74671 0.601119 0.665249 0.5 0.665249 0.601119 1 0.665249 0.5 0.74671 0.864903 0.971601
          0.74671 0.971601 0.975419 0.74671 0.665249 0.864903 1 0.864903 0.665249 0.971601 0.864903 0.998268
          1 0.998268 0.864903 1 1 0.5 1 0.670379 1 1 1 0.665249
          1 0.803201 1 1 0.5 0.670379 1 0.670379 0.803201 0.71636 0.803201 0.670379
          1 1 0.864903 1 0.803201 0.9596 1 0.9596 1 0.71636 0.9596 0.803201
          1 0.9596 0.999971 0.959349 0.999971 0.9596 0.999993 0.975419 0.971601 0.999993 0.971601 0.998268
          1 0.999993 0.998268 0.999993 1 1 0.999993 1 1 1 1 0.998268
          1 1 0.998268 1 1 1 1 1 1 1 1 1
          1 1 1 1 1 1 1 1 1 1 1 1
          1 1 1 1 0.999971 1 1 0.999971 1 1 1 1
          1 1 1 1 1 1 1 1 0.999971 1 1 1
          1 1 1 1 1 1 1 1 1 1 1 1
          1 1 1 1 1 1 1 1 1 1 1 1
          1 1 1 1 1 1 1 1 1 1 1 1
          1 1 1 1 1 1 1 1 1 1 1 1
          1 1 1 1 1 1 1 1 1 1 1 1
          1 1 1 1 1 1 1 1 1 1 1 1
          1 1 1 1 1 1 1 1 1 1 1 1
          1 1 1 1 1 1 1 1 1 1 1 1
          1 1 1 1 1 1 1 1 1 1 1 1
          1 1 1 1 1 1 1 1 1 1 1 1
          1 1 1 1 1 1 1 1 1 1 1 1
          1 1 1 1 1 1 1 1 1 1 1 1
          1 1 1 1 1 1 1 1 1 1 1 1
          1 1 1 1 1 1 1 1 1 1 1 1
          1 1 1 1 1 1 1 1 1 1 1 1
          1 1 1 1 1 1 1 1 1 1 1 1
          1 1 1 1 1 1 1 1 1 1 1 1
          1 1 1 1 1 1 1 1 1 1 1 1
          1 1 1 1 1 1 1 1 1 1 1 1
          1 1 1 1 1 1 1 1 1 1 1 1
          1 1 1 1 1 1 1 1 1 1 1 1
          1 1 1 1 1 1 1 1 1 1 1 1
          1 1 1 1 1 1 1 1 1 1 1 1
          1 1 1 1 1 1 1 1 1 1 1 1
          1 1 1 1 1 1 1 1 1 1 1 1
          1 1 1 1 1 1 1 1 1 1 1 1
          1 1 1 1 1 1 1 1 1 1 1 1
          1 1 1 1 1 1 1 1 1 1 1 1
          1 1 1 1 1 1 1 1 1 1 1 1
          1 1 1 1 1 1 1 1 1 1 1 1
          1 1 1 1 1 1 1 1 1 1 1 1
          1 1 1 1 1 1 1 1 1 1 1 1
          1 1 1 1 1 1 1 1 1 1 1 1
          1 1 1 1 1 1 1 1 1 1 1 1
          1 1 1 1 1 1 1 1 1 1 1 1
          1 1 1 1 1 1 1 1 1 1 1 1
          1 1 1 1 1 1 1 1 1 1 1 1
          1 1 1 1 1 1 1 1 1 1 1 1
          1 1 1 1 1 1 1 1 1 1 1 1
          1 1 1 1 1 1 1 1 1 1 1 1
          1 1 1 1 1 1 1 1 1 1 1 1
          1 1 1 1 1 1 1 1 1 1 1 1
          1 1 1 1 1 1 1 1 1 1 1 1
          1 1 1 1 1 1 1 1 1 1 1 1
          1 1 1 1 1 1 1 1 1 1 1 1
          1 1 1 1 1 1 1 1 1 1 1 1
          1 1 1 1 1 1 1 1 1 1 1 1
          1 1 1 1 1 1 1 1 1 1 1 1
          1 1 1 1 1 1 1 1 1 1 1 1
          1 1 1 1 1 1 1 1 1 1 1 1
          1 1 1 1 1 1 1 1 1 1 1 1
          1 1 1 1 1 1 1 1 1 1 1 1
          1 1 1 1 1 1 1 1 1 1 1 1
          1 1 1 1 1 1 1 1 1 1 1 1
          1 1 1 1 1 1 1 1 1 1 1 1
          1 1 1 1 1 1 1 1 1 1 1 1
          1 1 1 1 1 1 1 1 1 1 1 1
          1 1 1 1 1 1 1 1 1 1 1 1
          1 1 1 1 1 1 1 1 1 1 1 1
          1 1 1 1 1 1 1 1 1 1 1 1
          1 1 1 1 1 1 1 1 1 1 1 1
          1 1 1 1 1 1 1 1 1 1 1 1
          1 1 1 1 1 1 1 1 1 1 1 1
          1 1 1 1 1 1 1 1 1 1 1 1
          1 1 1 1 1 1 1 1 1 1 1 1
          1 1 1 1 1 1 1 1 1 1 1 1
          1 1 1 1 1 1 1 1 1 1 1 1
          1 1 1 1 1 1 1 1 1 1 1 1
          1 1 1 1 1 1 1 1 1 1 1 1
          1 1 1 1 1 1 1 1 1 1 1 1
          1 1 1 1 1 1 1 1 1 1 1 1
          1 1 1 1 1 1 1 1 1 1 1 1
          1 1 1 1 1 1 1 1 1 1 1 1
          1 1 1 1 1 1 1 1 1 1 1 1
          1 1 1 1 1 1 1 1 1 1 1 1
          1 1 1 1 1 1 1 1 1 1 1 1
          1 1 1 1 1 1 1 1 1 1 1 1
          1 1 1 1 1 1 1 1 1 1 1 1
          1 1 1 1 1 1 1 1 1 1 1 1
          1 1 1 1 1 1 1 1 1 1 1 1
          1 1 1 1 1 1 1 1 1 1 1 1
          1 1 1 1 1 1 1 1 1 1 1 1
          1 1 1 1 1 1 1 1 1 1 1 1
          1 1 1 1 1 1 1 1 1 1 1 1
          1 1 1 1 1 1 1 1 1 1 1 1
          1 1 1 1 1 1 1 1 1 1 1 1
          1 1 1 1 1 1 1 1 1 1 1 1
          1 1 1 1 1 1 1 1 1 1 1 1
          1 1 1 1 1 1 1 1 1 1 1 1
          1 1 1 1 1 1 1 1 1 1 1 1
          1 1 1 1 1 1 1 1 1 1 1 1
          1 1 1 1 1 1 1 1 1 1 1 1
          1 1 1 1 1 1 1 1 1 1 1 1
          1 1 1 1 1 1 1 1 1 1 1 1
          1 1 1 1 1 1 1 1 1 1 1 1
          1 1 1 1 1 1 1 1 1 1 1 1
          1 1 1 1 1 1 1 1 1 1 1 1
          1 1 1 1 1 1 1 1 1 1 1 1
          1 1 1 1 1 1 1 1 1 1 1 1
          1 1 1 1 1 1 1 1 1 1 1 1
          1 1 1 1 1 1 1 1 1 1 1 1
          1 1 1 1 1 1 1 1 1 1 1 1
          1 1 1 1 1 1 1 1 1 1 1 1
          1 1 1 1 1 1 1 1 1 1 1 1
          1 1 1 1 1 1 1 1 1 1 1 1
          1 1 1 1 1 1 1 1 1 1 1 1
          1 1 1 1 1 1 1 1 1 1 1 1
          1 1 1 1 1 1 1 1 1 1 1 1
          1 1 1 1 1 1 1 1 1 1 1 1
          1 1 1 1 1 1 1 1 1 1 1 1
          1 1 1 1 1 1 1 1 1 1 1 1
          1 1 1 1 1 1 1 1 1 1 1 1
          1 1 1 1 1 1 1 1 1 1 1 1
          1 1 1 1 1 1 1 1 1 1 1 1
          1 1 1 1 1 1 1 1 1 1 1 1
          1 1 1 1 1 1 1 1 1 1 1 1
          1 1 1 1 1 1 1 1 1 1 1 1
          1 1 1 1 1 1 1 1 1 1 1 1
          1 1 1 1 1 1 1 1 1 1 1 1
          1 1 1 1 1 1 1 1 1 1 1 1
          1 1 1 1 1 1 1 1 1 1 1 1
          1 1 1 1 1 1 1 1 1 1 1 1
          1 1 1 1 1 1 1 1 1 1 1 1
          1 1 1 1 1 1 1 1 1 1 1 1
          1 1 1 1 1 1 1 1 1 1 1 1
          1 1 1 1 1 1 1 1 1 1 1 1
          1 1 1 1 1 1 1 1 1 1 1 1
          1 1 1 1 1 1 1 1 1 1 1 1
          1 1 1 1 1 1 1 1 1 1 1 1
          1 1 1 1 1 1 1 1 1 1 1 1
          1 1 1 1 1 1 1 1 1 1 1 1
          1 1 1 1 1 1 1 1 1 1 1 1
          1 1 1 1 1 1 1 1 1 1 1 1
          1 1 1 1 1 1 1 1 1 1 1 1
          1 1 1 1 1 1 1 1 1 1 1 1
          1 1 1 1 1 1 1 1 1 1 1 1
          1 1 1 1 1 1 1 1 1 1 1 1
          1 1 1 1 1 1 1 1 1 1 1 1
          1 1 1 1 1 1 1 1 1 1 1 1
          1 1 1 1 1 1 1 1 1 1 1 1
          1 1 1 1 1 1 1 1 1 1 1 1
          1 1 1 1 1 1 1 1 1 1 1 1
          1 1 1 1 1 1 1 1 1 1 1 1
          1 1 1 1 1 1 1 1 1 1 1 1
          1 1 1 1 1 1 1 1 1 1 1 1
          1 1 1 1 1 1 1 1 1 1 1 1
          1 1 1 1 1 1 1 1 1 1 1 1
          1 1 1 1 1 1 1 1 1 1 1 1
          1 1 1 1 1 1 1 1 1 1 1 1
          1 1 0.999981 1 0.999981 0.998646 1 1 1 1 1 1
          1 1 1 1 1 1 1 1 1 1 1 1
          1 1 1 1 1 1 1 0.999999 1 1 1 1
          1 1 0.983195 1 1 0.999999 0.999999 1 0.998646 0.999999 0.983195 1
          0.999999 0.9765 0.983195 0.999999 0.998646 0.9765 0.813008 0.9765 0.998646 1 0.983195 0.999996
          0.683128 0.983195 0.9765 0.683128 0.967119 0.983195 0.999996 0.983195 0.967119 1 0.999996 1
          1 1 1 1 1 0.999996 1 1 1 1 1 1
          1 1 1 1 1 1 1 1 1 1 1 1
          1 1 1 1 1 1 1 1 1 1 1 1
          1 1 1 1 1 1 1 1 1 1 1 1
          1 1 1 1 1 1 1 1 1 1 1 1
          1 1 1 1 1 1 1 1 1 1 1 1
          1 1 1 1 1 1 1 1 1 1 1 1
          1 1 1 1 1 1 1 1 1 1 1 1
          1 1 1 1 1 1 1 1 1 1 1 1
          1 1 1 1 1 1 0.984293 0.999981 1 1 0.984293 1
          0.984293 0.91358 0.999981 0.91358 0.998646 0.999981 1 1 0.984293 0.984293 1 0.999953
          0.984293 0.999953 0.91358 1 1 1 1 1 1 1 1 1
          1 1 1 1 1 1 1 1 1 1 1 1
          1 1 1 1 0.999953 1 1 0.998501 0.999953 1 1 1
          1 1 1 1 1 1 1 1 1 1 1 1
          1 1 1 1 1 1 1 1 1 1 1 1
          1 1 1 1 1 1 1 1 1 1 1 1
          1 1 1 1 1 1 1 1 1 1 1 1
          1 1 1 1 1 1 1 1 1 1 1 1
          1 1 1 1 1 1 1 1 1 1 1 1
          1 1 1 1 1 1 1 1 1 1 1 1
          1 1 1 1 1 1 1 1 1 1 1 1
          1 1 1 1 1 1 1 1 1 1 1 1
          1 1 1 1 1 1 1 1 1 1 1 1
          1 1 1 1 1 1 1 1 1 1 1 1
          1 1 1 1 1 1 1 1 1 1 1 1
          0.91358 0.813008 0.998646 0.91358 0.998501 0.813008 0.683128 0.9765 0.813008 0.683128 0.813008 0.944016
          0.91358 0.999953 0.998501 0.813008 0.998501 0.944016 0.998501 0.999972 0.944016 0.967119 0.683128 0.944016
          0.999972 0.967119 0.944016 0.999998 0.967119 0.999972 1 1 0.998501 0.998501 1 0.999972
          1 1 1 1 1 1 1 0.999998 0.999972 1 0.999972 1
          0.999998 0.999996 0.967119 1 0.999996 0.999998 1 1 0.999998 1 1 0.999998
          1 1 1 1 1 1 1 1 1 1 1 1
          1 1 1 1 1 1 1 1 1 1 1 1
          1 0.999998 1 1 1 1 0.5 0.586373 0.670379 0.5 0.5 0.586373
          0.71636 0.670379 0.586373 0.71636 0.586373 0.625479 0.71636 0.625479 0.765519 0.5 0.625479 0.586373
          0.5 0.596768 0.625479 0.706658 0.765519 0.625479 0.959349 0.9596 0.71636 0.959349 0.71636 0.765519
          0.959349 0.765519 0.954148 0.706658 0.954148 0.765519 0.959349 0.954148 0.99997 0.5 0.5 0.596768
          0.706658 0.625479 0.596768 0.706658 0.596768 0.651278 0.5 0.651278 0.596768 0.5 0.624513 0.651278
          0.706658 0.86424 0.954148 0.998897 0.954148 0.86424 0.706658 0.651278 0.86424 0.770653 0.86424 0.651278
          0.998897 0.86424 0.984527 0.770653 0.984527 0.86424 0.959349 0.99997 0.999971 1 0.999971 0.99997
          0.998897 0.99997 0.954148 1 0.99997 1 1 0.99997 1 1 1 1
          1 1 1 1 1 1 1 1 1 0.998897 1 0.99997
          0.998897 0.984527 0.999921 0.998897 0.999921 1 1 1 1 1 1 1
          1 1 1 1 1 0.999921 1 1 1 0.5 0.5 0.624513
          0.770653 0.651278 0.624513 0.770653 0.624513 0.674422 0.5 0.674422 0.624513 0.770653 0.923292 0.984527
          0.770653 0.674422 0.923292 0.5 0.5 0.674422 0.5 0.744822 0.674422 0.744822 0.923292 0.674422
          0.744822 0.978626 0.923292 0.999921 0.984527 0.923292 0.999866 0.999921 0.923292 1 0.999921 1
          1 1 1 0.999866 1 0.999921 0.999866 1 1 1 1 1
          0.999866 0.923292 0.978626 0.999866 0.978626 0.999998 0.999866 0.999998 1 1 1 0.999998
          1 1 1 1 1 1 1 1 1 1 1 1
          1 1 1 1 1 1 1 1 1 1 1 1
          1 1 1 1 1 1 1 1 1 1 1 1
          1 1 1 1 1 1 1 1 1 1 1 1
          1 1 1 1 1 1 1 1 1 1 1 1
          1 1 1 1 1 1 1 1 1 1 1 1
          1 1 1 1 1 1 1 1 1 1 1 1
          1 1 1 1 1 1 1 1 1 1 1 1
          1 1 1 1 1 1 1 1 1 1 1 1
          1 1 1 1 1 1 1 1 1 1 1 1
          1 1 1 1 1 1 1 1 1 1 1 1
          1 1 1 1 1 1 1 1 1 1 1 1
          1 1 1 1 1 1 1 1 1 1 1 1
          1 1 1 1 1 1 1 1 1 1 1 1
          1 1 1 1 1 1 1 1 1 1 1 1
          1 1 1 1 1 1 1 1 1 1 1 1
          1 1 1 1 1 1 1 1 1 1 1 1
          1 1 1 1 1 1 1 1 1 1 1 1
          1 1 1 1 1 1 1 1 1 1 1 1
          1 1 1 1 1 1 1 1 1 1 1 1
          1 1 1 1 1 1 1 1 1 1 1 1
          1 1 1 0.5 0.67884 0.744822 0.744822 0.934813 0.978626 0.744822 0.67884 0.934813
          0.5 0.5 0.67884 0.5 0.789077 0.67884 0.789077 0.934813 0.67884 0.999906 0.999998 0.978626
          0.999906 0.978626 0.934813 1 0.999998 1 0.999906 1 0.999998 0.999906 0.934813 0.993757
          0.934813 0.789077 0.993757 0.999906 1 1 0.999906 0.993757 1 0.5 0.684379 0.789077
          0.5 0.684379 0.5 0.884293 0.789077 0.684379 0.5 0.884293 0.684379 0.884293 0.993757 0.789077
          0.993757 1 1 0.884293 0.999453 0.993757 0.999453 1 0.993757 1 1 1
          1 1 1 1 1 1 1 1 1 1 1 1
          1 1 1 1 1 1 1 1 1 1 1 1
          1 1 1 1 1 1 1 1 1 1 1 1
          1 1 1 1 1 1 1 1 1 1 1 1
          1 1 1 1 1 1 1 1 1 1 1 1
          1 1 1 1 1 1 1 1 1 1 1 1
          1 1 1 1 1 1 1 1 1 1 1 1
          1 1 1 1 1 1 1 1 1 1 1 1
          1 1 1 1 1 1 1 1 1 1 1 1
          1 1 1 1 1 1 0.999453 1 1 0.999453 1 1
          1 1 1 1 1 1 1 1 1 1 1 1
          1 1 1 1 1 1 1 1 1 1 1 1
          1 1 1 1 1 1 1 1 1 1 1 1
          1 1 1 1 1 1 1 1 1 1 1 1
          1 1 1 1 1 1 1 1 1 1 1 1
          1 1 1 1 1 1 1 1 1 1 1 1
          1 1 1 1 1 1 1 1 1 1 1 1
          1 1 1 1 1 1 1 1 1 1 1 1
          1 1 1 1 1 1 1 1 1 1 1 1
          1 1 1 1 1 1 1 1 1 1 1 1
          1 1 1 1 1 1 1 1 1 1 1 1
          1 1 1 1 1 1 1 1 1 1 1 1
          1 1 1 1 1 1 1 1 1 1 1 1
          1 1 1 1 1 1 1 1 1 1 1 1
          1 1 1 1 1 1 1 1 1 1 1 1
          1 1 1 1 1 1 1 1 1 1 1 1
          1 1 1 1 1 1 1 1 1 1 1 1
          1 1 1 1 1 1 1 1 1 1 1 1
          1 1 1 1 1 1 1 1 1 1 1 1
          1 1 1 1 1 1 1 1 1 1 1 1
          1 1 1 1 1 1 1 1 1 1 1 1
          1 1 1 1 1 1 1 1 1 1 1 1
          1 1 1 1 1 1 1 1 1 1 1 1
          1 1 1 1 1 1 1 1 1 1 1 1
          1 1 1 1 1 1 1 1 1 1 1 1
          1 1 1 1 1 1 1 1 1 1 1 1
          1 1 1 1 1 1 1 1 1 1 1 1
          1 1 1 1 1 1 1 1 1 1 1 1
          1 1 1 1 1 1 1 1 1 1 1 1
          1 1 1 1 1 1 1 1 1 1 1 1
          1 1 1 1 1 1 1 1 1 1 1 1
          1 1 1 1 1 1 1 1 1 1 1 1
          1 1 1 1 1 1 1 1 1 1 1 1
          1 1 1 1 1 1 1 1 1 1 1 1
          1 1 1 1 1 1 1 1 1 1 1 1
          1 1 1 1 1 1 1 1 1 1 1 1
          1 1 1 1 1 1 1 1 1 1 1 1
          1 1 1 1 1 1 1 1 1 1 1 1
          1 1 1 1 1 1 1 1 1 1 1 1
          1 1 1 1 1 1 1 1 1 1 1 1
          1 1 1 1 1 1 1 1 1 1 1 1
          1 1 1 1 1 1 1 1 1 1 1 1
          1 1 1 1 1 1 1 1 1 1 1 1
          1 1 1 1 1 1 1 1 1 1 1 1
          1 1 1 1 1 1 1 1 1 1 1 1
          1 1 1 1 1 1 1 1 1 1 1 1
          1 1 1 1 1 1 1 1 1 1 1 1
          1 1 1 1 1 1 1 1 1 1 1 1
          1 1 1 1 1 1 1 1 1 1 1 1
          1 1 1 1 1 1 1 1 1 1 1 1
          1 1 1 1 1 1 1 1 1 1 1 1
          1 1 1 1 1 1 1 1 1 1 1 1
          1 1 1 1 1 1 1 1 1 1 1 1
          1 1 1 1 1 1 1 1 1 1 1 1
          1 1 1 1 1 1 1 1 1 1 1 1
          1 1 1 1 1 1 1 1 1 1 1 1
          1 1 1 1 1 1 1 1 1 1 1 1
          1 1 1 1 1 1 1 1 1 1 1 1
          1 1 1 1 1 1 1 1 1 1 1 1
          1 1 1 1 1 1 1 1 1 1 1 1
          1 1 1 1 1 1 1 1 1 1 1 1
          1 1 1 1 1 1 1 1 1 1 1 1
          1 1 1 1 1 1 1 1 1 1 1 1
          1 1 1 1 1 1 1 1 1 1 1 1
          1 1 1 1 1 1 1 1 1 1 1 1
          1 1 1 1 1 1 1 1 1 1 1 1
          1 1 1 1 1 1 1 1 1 1 1 1
          1 1 1 1 1 1 1 1 1 1 1 1
          1 1 1 1 1 1 1 1 1 1 1 1
          1 1 1 1 1 1 1 1 1 1 1 1
          1 1 1 1 1 1 1 1 1 1 1 1
          1 1 1 1 1 1 1 1 1 1 1 1
          1 1 1 1 1 1 1 1 1 1 1 1
          1 1 1 1 1 1 1 1 1 1 1 1
          1 1 1 1 1 1 1 1 1 1 1 1
          1 1 1 1 1 1 1 1 1 1 1 1
          1 1 1 1 1 1 1 1 1 1 1 1
          1 1 1 1 1 1 1 1 1 1 1 1
          1 1 1 1 1 1 1 1 1 1 1 1
          1 1 1 1 1 1 1 1 1 1 1 1
          1 1 1 1 1 1 1 1 1 1 1 1
          1 1 1 1 1 1 1 1 1 1 1 1
          1 1 1 1 1 1 1 1 1 1 1 1
          1 1 1 1 1 1 1 1 1 1 1 1
          1 1 1 1 1 1 1 1 1 1 1 1
          1 1 1 1 1 1 1 1 1 1 1 1
          1 1 1 1 1 1 1 1 1 1 1 1
          1 1 1 1 1 1 1 1 1 1 1 1
          1 1 1 1 1 1 1 1 1 1 1 1
          1 1 1 1 1 1 1 1 1 1 1 1
          1 1 1 1 1 1 1 1 1 1 1 1
          1 1 1 1 1 1 1 1 1 1 1 1
          1 1 1 1 1 1 1 1 1 1 1 1
          1 1 1 1 1 1 1 1 1 1 1 1
          1 1 1 1 1 1 1 1 1 1 1 1
          1 1 1 1 1 1 1 1 1 1 1 1
          1 1 1 1 1 1 1 1 1 1 1 1
          1 1 1 1 1 1 1 1 1 1 1 1
          1 1 1 1 1 1 1 1 1 1 1 1
          1 1 1 1 1 1 1 1 1 1 1 1
          1 1 1 1 1 1 1 1 1 1 1 1
          1 1 1 1 1 1 1 1 1 1 1 1
          1 1 1 1 1 1 0.975285 1 1 1 1 1
          1 1 1 1 1 1 1 1 1 1 1 1
          1 1 1 1 1 1 0.975285 1 1 0.975285 1 1
          1 1 1 1 1 1 0.975285 1 0.999999 1 1 1
          1 0.999999 1 0.999999 1 1 1 1 0.999999 1 0.999999 1
          0.975285 0.999999 1 1 1 1 1 1 1 1 0.999999 1
          1 1 1 1 1 1 0.975285 0.999995 0.999999 0.975285 0.999999 0.999995
          1 0.999999 0.999995 1 0.999995 0.999999 1 1 0.999999 1 1 1
          1 1 1 1 1 1 1 1 1 1 1 1
          1 1 1 1 1 1 1 1 1 1 1 1
          1 1 1 1 1 1 1 1 1 1 1 1
          1 1 1 1 1 1 1 1 1 1 1 1
          1 1 1 1 1 1 1 1 0.999999 1 0.999999 1
          1 1 1 1 1 1 1 1 1 1 1 1
          1 1 1 1 1 1 1 1 1 1 1 1
          1 1 1 1 1 1 1 1 1 1 1 1
          1 1 1 1 1 1 1 1 1 1 1 1
          1 1 1 1 1 1 1 1 1 1 1 1
          1 1 1 1 1 1 1 1 1 1 1 1
          1 1 1 1 1 1 1 1 1 1 1 1
          1 1 1 1 1 1 1 1 1 1 1 1
          1 1 1 1 1 1 1 1 1 1 1 1
          1 1 1 1 1 1 1 1 1 1 1 1
          1 1 1 1 1 1 1 1 1 1 1 1
          1 1 1 1 1 1 1 1 1 1 1 1
          1 1 1 1 1 1 1 1 1 1 1 1
          1 1 1 1 1 1 1 1 1 1 1 1
          1 1 1 1 1 1 1 1 1 1 1 1
        </DataArray>
        <DataArray type="Float32" Name="p_aq" NumberOfComponents="1" format="ascii">
          200000 195826 186325 200000 200000 195826 186325 195826 181829 173497 186325 175857
          186325 181829 175857 181829 174866 175857 170303 175857 174866 200000 194556 195826
          181829 195826 194556 200000 200000 194556 188286 179962 194556 181829 194556 179962
          181829 179962 174866 174273 174866 179962 167351 173497 170273 173497 175857 170273
          167351 170273 164857 170303 170273 175857 170303 164857 170273 164533 164857 170303
          161910 167351 164857 160173 161910 164857 157235 161910 160173 157235 160173 156680
          160213 160173 164857 164533 160213 164857 160213 156680 160173 170303 174866 169396
          164533 170303 169396 174273 169396 174866 155522 160213 157544 164533 157544 160213
          164533 162289 157544 164533 169396 162289 155090 157544 162289 200000 188286 194556
          200000 196113 188286 200000 200000 196113 188286 196113 181245 188286 175879 179962
          174273 179962 175879 174273 175879 171574 188286 181245 175879 175879 181245 176608
          175879 176608 171875 200000 197425 196113 200000 200000 197425 183241 196113 197425
          183241 181245 196113 200000 194836 197425 183241 197425 194836 183241 176608 181245
          183241 178229 176608 183241 194836 178229 172657 176608 178229 174273 171574 169396
          167077 162289 169396 167077 169396 171574 175879 171875 171574 167077 171574 171875
          167077 161686 162289 155090 162289 161686 155090 161686 155620 172657 171875 176608
          172657 167549 171875 167077 171875 167549 172657 169303 167549 164660 167549 169303
          167077 167549 161686 164660 161686 167549 155620 161686 159722 164660 159722 161686
          153234 157235 156680 153234 156680 153048 149769 153234 150824 153234 153048 150824
          149772 150824 153048 155522 153048 156680 155522 156680 160213 149772 153048 151843
          155522 151843 153048 149769 150824 147620 146726 149769 147620 146726 147620 145393
          149772 147620 150824 143952 146726 145393 141210 143952 143339 143952 145393 143339
          144974 143339 145393 144974 145393 147620 144974 142508 143339 149772 147131 147620
          144974 147620 147131 148839 147131 149772 148839 149772 151843 148839 145589 147131
          144974 147131 145589 144974 142839 142508 144974 145589 142839 143729 142839 145589
          155522 157544 152618 155522 152618 151843 148839 151843 152618 152618 157544 152597
          155090 152597 157544 148629 152618 152597 148839 145964 145589 148839 152618 148629
          148839 148629 145964 143729 145589 145964 143729 145964 143547 144874 143547 145964
          144874 145964 148629 144874 141696 143547 144874 148629 145100 144874 145100 142885
          140998 139715 141210 141210 143339 140998 140998 138998 139715 140998 143339 142508
          140998 142508 140683 140998 140683 138998 140683 139147 138998 137707 139715 138998
          137707 138998 137027 135251 137707 137027 137595 137027 138998 137595 138998 139147
          137595 135573 137027 140683 142508 142839 140683 142839 140310 140683 140310 139147
          140310 142839 141753 143729 141753 142839 140310 141753 139905 137595 139147 138148
          140310 138148 139147 136004 135573 137595 136004 137595 138148 140310 139905 138148
          139905 137882 138148 136004 138148 136419 137882 136419 138148 135251 137027 135573
          135251 135573 133407 132327 135251 133407 135573 133768 133407 131779 133407 133768
          132327 133407 130620 128867 132327 130620 131779 130620 133407 128867 130620 128816
          131779 128816 130620 136004 133768 135573 136004 134073 133768 136004 136419 134073
          131290 133768 134073 131779 133768 131290 131779 131290 128816 131780 131290 134073
          128816 131290 128868 143729 141472 141753 143729 143547 141472 139905 141753 141472
          139905 141472 139481 141696 141472 143547 139481 141472 141696 139481 141696 139048
          139905 139481 137882 135972 136419 137882 135972 137882 137748 139481 137748 137882
          139481 139048 137748 135972 137748 136795 144874 142885 141696 141696 142885 140577
          139048 141696 140577 142154 140577 142885 142154 139970 140577 139048 140577 138612
          139048 136795 137748 139048 138612 136795 138612 140577 139970 138612 139970 138176
          138612 136931 136795 138612 138176 136931 135972 134073 136419 135972 134258 134073
          131780 134073 134258 135972 136795 134258 131780 128868 131290 131780 129518 128868
          131780 134258 131843 131780 131843 129518 136795 135469 134258 136795 136931 135469
          133824 131843 134258 133824 134258 135469 135270 135469 136931 133824 135469 135270
          133824 135270 133464 131843 133824 130892 130892 129518 131843 130892 133824 133464
          149679 148629 152597 155090 149679 152597 155090 155620 149679 149679 145100 148629
          145036 145100 149679 145036 142457 145100 145036 149679 147292 149679 155620 151632
          155620 155531 151632 155620 159722 155531 157841 155531 159722 152819 151632 155531
          149679 151632 147292 145036 147292 143276 144858 143276 147292 149735 147292 151632
          149735 151632 152819 149735 149292 147045 149735 147045 147292 144858 147292 147045
          144858 147045 144376 142154 142885 145100 142154 140102 139970 142154 145100 142457
          142154 142457 140102 139916 140102 142457 138176 139970 140102 138176 140102 137744
          138176 136793 136931 138176 137744 136793 137744 140102 139916 137744 136457 136793
          137744 137317 136457 141405 139916 142457 141405 142457 145036 137744 139916 137317
          137317 139916 138832 141405 138832 139916 138614 138832 141405 137317 138832 136897
          136897 138832 138614 135270 136931 136793 134819 135270 136793 134819 133464 135270
          134819 136793 136457 134819 136457 135532 130892 133464 131835 134819 131835 133464
          130892 131835 129117 134819 133396 131835 131520 131835 133396 131520 129117 131835
          137317 135532 136457 137317 136897 135532 134819 135532 133396 133769 133396 135532
          136897 135027 135532 133769 135532 135027 131486 131520 133396 133769 131486 133396
          131520 131486 129117 133769 132464 131486 133769 135027 132464 129407 131486 132464
          141405 145036 143276 141405 143276 140611 140611 143276 142490 138614 141405 140611
          136483 138614 138275 139705 138275 140611 138614 140611 138275 144858 142490 143276
          144858 144376 142490 142196 142490 144376 142196 140381 142490 139705 140611 142490
          139705 137490 138275 139705 138312 137490 139705 142490 140381 139705 140381 138312
          136483 136897 138614 136483 135027 136897 136483 134519 135027 136483 138275 136089
          136089 138275 137490 136089 134519 136483 136089 134332 134519 134519 132464 135027
          132111 132464 134519 129407 132464 130056 132111 130056 132464 132111 134519 134332
          136089 137490 135705 135705 137490 136670 136089 135705 134332 138312 136670 137490
          138312 136810 136670 135705 136670 135330 135705 135330 133238 132111 134332 133238
          135705 133238 134332 132111 133238 130934 135330 133518 133238 131505 130934 133238
          131505 133238 133518 200000 200000 194836 200000 197104 194836 180764 194836 197104
          200000 200000 197104 200000 191314 197104 180764 197104 191314 180764 178229 194836
          172657 178229 174316 180764 174316 178229 180764 191314 181508 180764 181508 177332
          180764 177332 174316 200000 196482 191314 200000 200000 196482 191314 196482 188398
          191314 188398 181873 200000 197527 196482 200000 200000 197527 188812 188398 196482
          188812 182458 188398 188812 196482 197527 188812 188065 182458 191314 181873 181508
          177332 181508 181873 177332 176325 173569 177332 181873 176325 181873 188398 182458
          179245 181873 182458 179245 182458 182124 179245 176325 181873 179245 176115 176325
          172657 174316 169303 170176 169303 174316 177332 173569 174316 170176 174316 173569
          170176 165893 169303 164660 169303 165893 164660 165893 162292 164660 162292 159722
          157841 159722 162292 170176 166390 165893 162527 165893 166390 162527 162292 165893
          162292 162527 157841 172847 173569 176325 172847 170257 173569 170176 173569 170257
          170176 170257 166390 169456 166390 170257 172847 176325 173279 176115 173279 176325
          172847 169456 170257 172847 173279 169456 171904 169456 173279 162527 166390 161620
          162527 161620 157874 163600 161620 166390 163600 166390 169456 163600 169456 167114
          163600 160446 161620 163600 160765 160446 200000 196775 197527 200000 200000 196775
          188812 197527 188065 196775 188065 197527 186501 188065 196775 200000 198097 196775
          196775 198097 192738 200000 200000 198097 200000 198265 198097 193246 198097 198265
          186501 196775 192738 193246 192738 198097 193246 185402 192738 186501 192738 185402
          182124 182458 188065 186501 182124 188065 186501 181803 182124 182124 181803 179044