<?xml version="1.0"?>
<VTKFile type="UnstructuredGrid" version="0.1" byte_order="LittleEndian">
  <UnstructuredGrid>
    <Piece NumberOfCells="1536" NumberOfPoints="1617">
      <PointData Scalars="x^tracer_0" Vectors="velocity_DefaultPhaseName (m/s)">
        <DataArray type="Float32" Name="x^tracer_0" NumberOfComponents="1" format="ascii">
          0 0 0 0 0 0 0 0 0 0 0 0
          0 0 0 0 0 0 0 0 0 0 0 0
          3.26653e-23 3.67553e-23 4.08641e-21 4.53679e-21 1.93194e-19 2.11896e-19 4.85008e-18 5.2612e-18 7.56019e-17 8.11921e-17 8.03757e-16 8.55374e-16
          6.2112e-15 6.55592e-15 3.65394e-14 3.82821e-14 1.6947e-13 1.76371e-13 6.36844e-13 6.58818e-13 1.98151e-12 2.03893e-12 5.1947e-12 5.31976e-12
          1.16376e-11 1.18673e-11 2.25368e-11 2.28956e-11 3.8081e-11 3.85595e-11 5.65729e-11 5.71178e-11 7.43537e-11 7.48795e-11 8.69312e-11 8.73516e-11
          9.09647e-11 9.12265e-11 8.60728e-11 8.61719e-11 7.54051e-11 7.53792e-11 6.4585e-11 6.44905e-11 5.9447e-11 5.93366e-11 6.3493e-11 6.34036e-11
          7.61382e-11 7.60876e-11 9.2655e-11 9.26436e-11 1.06116e-10 1.06129e-10 1.10576e-10 1.10594e-10 1.03872e-10 1.03874e-10 8.85563e-11 8.85405e-11
          7.07014e-11 7.06821e-11 5.73945e-11 5.74e-11 5.4062e-11 5.41195e-11 6.24173e-11 6.25345e-11 7.96437e-11 7.97966e-11 9.93113e-11 9.94483e-11
          0 0 0 0 0 0 0 0 0 0 0 0
          0 0 4.56721e-23 5.54665e-21 2.5481e-19 6.2222e-18 9.44518e-17 9.79205e-16 7.39005e-15 4.25255e-14 1.93248e-13 7.12701e-13
          2.1799e-12 5.62678e-12 1.24306e-11 2.37734e-11 3.97266e-11 5.84412e-11 7.61496e-11 8.83594e-11 9.1845e-11 8.63939e-11 7.52968e-11 6.42403e-11
          5.90468e-11 6.31657e-11 7.5949e-11 9.2607e-11 1.06159e-10 1.10631e-10 1.0387e-10 8.84839e-11 7.0617e-11 5.74089e-11 5.42816e-11 6.2873e-11
          8.02417e-11 9.9848e-11 0 0 0 0 0 0 0 0 0 0
          0 0 0 6.3518e-23 7.53999e-21 3.3816e-19 8.05609e-18 1.19295e-16 1.20695e-15 8.89639e-15 5.00546e-14 2.22691e-13
          8.05209e-13 2.41828e-12 6.13859e-12 1.3357e-11 2.51987e-11 4.15984e-11 6.05385e-11 7.81382e-11 8.99168e-11 9.27837e-11 8.67137e-11 7.51468e-11
          6.38326e-11 5.85779e-11 6.27765e-11 7.57147e-11 9.25359e-11 1.06196e-10 1.10683e-10 1.03855e-10 8.83862e-11 7.05091e-11 5.74276e-11 5.4558e-11
          6.34424e-11 8.0984e-11 1.00507e-10 0 0 0 0 0 0 0 0 0
          0 0 0 0 1.00274e-22 1.15272e-20 4.99696e-19 1.14958e-17 1.64386e-16 1.60724e-15 1.14635e-14 6.25149e-14
          2.70094e-13 9.50368e-13 2.78351e-12 6.90555e-12 1.47169e-11 2.7251e-11 4.42454e-11 6.34537e-11 8.08557e-11 9.2007e-11 9.40141e-11 8.71055e-11
          7.49131e-11 6.32586e-11 5.79216e-11 6.22236e-11 7.53689e-11 9.2414e-11 1.06228e-10 1.10741e-10 1.03827e-10 8.82488e-11 7.03647e-11 5.74692e-11
          5.49679e-11 6.42636e-11 8.20365e-11 1.0142e-10 0 0 0 0 0 0 0 0
          0 0 0 0 0 1.82956e-22 2.01037e-20 8.31166e-19 1.82251e-17 2.48555e-16 2.32141e-15 1.58511e-14
          8.29719e-14 3.45058e-13 1.17211e-12 3.32387e-12 8.00735e-12 1.66183e-11 3.00491e-11 4.77702e-11 6.72497e-11 8.4318e-11 9.461e-11 9.55021e-11
          8.75403e-11 7.45787e-11 6.25091e-11 5.70678e-11 6.14901e-11 7.48892e-11 9.22193e-11 1.06237e-10 1.10797e-10 1.03782e-10 8.8072e-11 7.01913e-11
          5.75518e-11 5.55393e-11 6.53661e-11 8.34164e-11 1.02582e-10 0 0 0 0 0 0 0
          0 0 0 0 0 0 3.94675e-22 4.06906e-20 1.5759e-18 3.23876e-17 4.14883e-16 3.65097e-15
          2.35766e-14 1.17177e-13 4.64578e-13 1.51054e-12 4.11629e-12 9.56503e-12 1.92175e-11 3.37576e-11 5.2309e-11 7.20065e-11 8.85432e-11 9.77008e-11
          9.72085e-11 8.79878e-11 7.41291e-11 6.1578e-11 5.60062e-11 6.05554e-11 7.4247e-11 9.19237e-11 1.06204e-10 1.10835e-10 1.0371e-10 8.78542e-11
          6.9998e-11 5.76995e-11 5.63102e-11 6.67894e-11 8.51451e-11 1.03978e-10 0 0 0 0 0 0
          0 0 0 0 0 0 0 1.03477e-21 9.74843e-20 3.45254e-18 6.51038e-17 7.68924e-16
          6.27407e-15 3.77897e-14 1.76215e-13 6.59208e-13 2.03327e-12 5.28281e-12 1.176e-11 2.2737e-11 3.85985e-11 5.80361e-11 7.78196e-11 9.35496e-11
          1.01249e-10 9.90919e-11 8.84213e-11 7.35569e-11 6.04645e-11 5.47278e-11 5.93952e-11 7.34083e-11 9.14936e-11 1.06101e-10 1.10839e-10 1.03601e-10
          8.75904e-11 6.97944e-11 5.79436e-11 5.73303e-11 6.85842e-11 8.72473e-11 1.05589e-10 0 0 0 0 0
          0 0 0 0 0 0 0 0 3.40096e-21 2.82202e-19 8.85682e-18 1.49237e-16
          1.58965e-15 1.18077e-14 6.5324e-14 2.82127e-13 9.85043e-13 2.85558e-12 7.01772e-12 1.48632e-11 2.74889e-11 4.48655e-11 6.5168e-11 8.47994e-11
          9.93534e-11 1.05219e-10 1.01112e-10 8.88231e-11 7.2867e-11 5.91785e-11 5.32279e-11 5.7984e-11 7.23354e-11 9.08925e-11 1.059e-10 1.10784e-10
          1.03434e-10 8.72695e-11 6.95902e-11 5.83242e-11 5.86649e-11 7.08141e-11 8.97486e-11 1.07378e-10 0 0 0 0
          0 0 0 0 0 0 0 0 0 1.44441e-20 1.00561e-18 2.68894e-17
          3.92286e-16 3.67435e-15 2.43439e-14 1.21674e-13 4.8017e-13 1.54729e-12 4.17642e-12 9.63165e-12 1.92776e-11 3.39074e-11 5.29409e-11 7.3968e-11
          9.30695e-11 1.05968e-10 1.09574e-10 1.03236e-10 8.91922e-11 7.20845e-11 5.77457e-11 5.151e-11 5.62988e-11 7.09914e-11 9.00848e-11 1.05572e-10
          1.10642e-10 1.0318e-10 8.68714e-11 6.9395e-11 5.88943e-11 6.03987e-11 7.35568e-11 9.26728e-11 1.09291e-10 0 0 0
          0 0 0 0 0 0 0 0 0 0 8.11498e-20 4.46508e-18
          9.71173e-17 1.18366e-15 9.48297e-15 5.48419e-14 2.43445e-13 8.65921e-13 2.5468e-12 6.34244e-12 1.3622e-11 2.56e-11 4.25892e-11 6.33137e-11
          8.47494e-11 1.02765e-10 1.13407e-10 1.1428e-10 1.05448e-10 8.95558e-11 7.12665e-11 5.62178e-11 4.95935e-11 5.43262e-11 6.93492e-11 8.90457e-11
          1.0509e-10 1.10378e-10 1.02793e-10 8.6363e-11 6.92199e-11 5.97254e-11 6.2643e-11 7.69062e-11 9.60365e-11 1.11249e-10 0 0
          0 0 0 0 0 0 0 0 0 0 0 6.09181e-19
          2.47344e-17 4.15881e-16 4.07743e-15 2.71593e-14 1.34169e-13 5.20165e-13 1.64578e-12 4.37175e-12 9.95956e-12 1.97819e-11 3.47043e-11 5.43408e-11
          7.65962e-11 9.78768e-11 1.14034e-10 1.21685e-10 1.19318e-10 1.07763e-10 8.99875e-11 7.05202e-11 5.4688e-11 4.75264e-11 5.20768e-11 6.74103e-11
          8.77794e-11 1.04448e-10 1.0995e-10 1.02207e-10 8.56947e-11 6.90811e-11 6.09185e-11 6.55446e-11 8.0973e-11 9.98415e-11 1.13131e-10 0
          0 0 0 0 0 0 0 0 0 0 0 0
          6.0523e-18 1.68485e-16 2.08021e-15 1.58162e-14 8.52748e-14 3.52707e-13 1.17614e-12 3.27096e-12 7.77415e-12 1.60809e-11 2.93602e-11 4.78457e-11
          7.02253e-11 9.35333e-11 1.13765e-10 1.27044e-10 1.30842e-10 1.24707e-10 1.10253e-10 9.06379e-11 7.00386e-11 5.33206e-11 4.54071e-11 4.9611e-11
          6.52403e-11 8.63543e-11 1.03671e-10 1.09315e-10 1.01331e-10 8.47992e-11 6.9011e-11 6.26214e-11 6.92986e-11 8.58833e-11 1.04063e-10 1.14776e-10
          0 0 0 0 0 0 0 0 0 0 0 0
          0 7.61914e-17 1.35743e-15 1.17735e-14 6.73435e-14 2.87553e-13 9.79744e-13 2.77546e-12 6.72025e-12 1.41847e-11 2.64862e-11 4.42492e-11
          6.67426e-11 9.15648e-11 1.14975e-10 1.32863e-10 1.41992e-10 1.40973e-10 1.3054e-10 1.13082e-10 9.17853e-11 7.01676e-11 5.24046e-11 4.34194e-11
          4.70873e-11 6.30369e-11 8.49662e-11 1.0286e-10 1.0843e-10 1.00039e-10 8.35978e-11 6.9082e-11 6.50595e-11 7.41655e-11 9.17744e-11 1.08634e-10
          1.15969e-10 0 0 0 0 0 0 0 0 0 0 0
          0 0 1.07661e-15 1.18397e-14 7.06159e-14 2.99439e-13 1.00152e-12 2.78711e-12 6.66301e-12 1.39745e-11 2.60957e-11 4.38648e-11
          6.69325e-11 9.33378e-11 1.19622e-10 1.41583e-10 1.5545e-10 1.59007e-10 1.52201e-10 1.36981e-10 1.16481e-10 9.38683e-11 7.15357e-11 5.24448e-11
          4.18707e-11 4.48447e-11 6.12517e-11 8.4041e-11 1.02235e-10 1.07263e-10 9.81768e-11 8.20225e-11 6.94537e-11 6.85815e-11 8.04879e-11 9.87795e-11
          1.13425e-10 1.16439e-10 0 0 0 0 0 0 0 0 0 0
          0 0 0 1.29515e-14 9.16566e-14 3.86392e-13 1.2366e-12 3.27865e-12 7.51515e-12 1.52589e-11 2.78695e-11 4.62678e-11
          7.03443e-11 9.84999e-11 1.276e-10 1.53499e-10 1.72055e-10 1.80286e-10 1.77216e-10 1.64089e-10 1.43886e-10 1.2038e-10 9.70354e-11 7.53837e-11
          5.40984e-11 4.10795e-11 4.34969e-11 6.07771e-11 8.43826e-11 1.02198e-10 1.05796e-10 9.55674e-11 8.00712e-11 7.04563e-11 7.37195e-11 8.86897e-11
          1.06979e-10 1.1819e-10 1.15849e-10 0 0 0 0 0 0 0 0 0
          0 0 0 0 5.89097e-12 2.32037e-11 5.44318e-11 9.62943e-11 1.3988e-10 1.74067e-10 1.90323e-10 1.86073e-10
          1.64936e-10 1.34249e-10 1.01704e-10 7.2892e-11 5.05723e-11 3.55511e-11 2.82979e-11 2.98443e-11 4.08312e-11 5.92274e-11 7.86022e-11 8.65041e-11
          7.63727e-11 5.99265e-11 4.78458e-11 5.1235e-11 6.91289e-11 9.15631e-11 1.05917e-10 1.05153e-10 9.21965e-11 7.75172e-11 7.21335e-11 8.0705e-11
          9.88289e-11 1.16045e-10 1.22353e-10 1.13702e-10 0 0 0 0 0 0 0 0
          0 0 0 0 0 9.61945e-10 1.65863e-11 6.92432e-12 6.00254e-12 5.02175e-12 3.99353e-12 3.00448e-12
          2.13532e-12 1.436e-12 9.18289e-13 5.63332e-13 3.36082e-13 9.62671e-10 1.82339e-11 2.87053e-12 2.57873e-12 2.41947e-12 2.27345e-12 2.16253e-12
          2.07733e-12 7.41449e-11 6.09254e-11 5.63254e-11 6.53615e-11 8.47646e-11 1.03384e-10 1.10071e-10 1.01775e-10 8.55655e-11 7.36137e-11 7.51378e-11
          9.05616e-11 1.11392e-10 1.25702e-10 1.25273e-10 1.09525e-10 0 0 0 0 0 0 0
          0 0 0 0 0 0 9.91681e-10 9.1831e-12 1.76523e-13 9.19026e-14 6.116e-14 3.90347e-14
          2.37925e-14 1.38473e-14 7.714e-15 4.13597e-15 2.15425e-15 1.10534e-15 9.85599e-10 1.45425e-11 1.49229e-13 3.18863e-14 2.39969e-14 1.86469e-14
          1.5103e-14 1.29637e-14 8.697e-11 6.99707e-11 7.24532e-11 8.60438e-11 1.02856e-10 1.11835e-10 1.06596e-10 9.05299e-11 7.47121e-11 7.06397e-11
          8.27911e-11 1.0563e-10 1.26941e-10 1.35226e-10 1.2597e-10 1.0282e-10 0 0 0 0 0 0
          0 0 0 0 0 0 0 9.91562e-10 8.98076e-12 4.3461e-14 9.63873e-16 4.65351e-16
          2.50148e-16 1.2895e-16 6.37613e-17 3.03423e-17 1.3983e-17 6.30174e-18 2.81638e-18 9.87181e-10 1.31844e-11 9.03625e-14 6.21742e-16 1.26532e-16
[...]
      <CellData Scalars="process rank">
        <DataArray type="Float32" Name="process rank" NumberOfComponents="1" format="ascii">
          0 0 0 0 0 0 0 0 0 0 0 0
          0 0 0 0 0 0 0 0 0 0 0 0
          0 0 0 0 0 0 0 0 0 0 0 0
          0 0 0 0 0 0 0 0 0 0 0 0
          0 0 0 0 0 0 0 0 0 0 0 0
          0 0 0 0 0 0 0 0 0 0 0 0
          0 0 0 0 0 0 0 0 0 0 0 0
          0 0 0 0 0 0 0 0 0 0 0 0
          0 0 0 0 0 0 0 0 0 0 0 0
          0 0 0 0 0 0 0 0 0 0 0 0
          0 0 0 0 0 0 0 0 0 0 0 0
          0 0 0 0 0 0 0 0 0 0 0 0
          0 0 0 0 0 0 0 0 0 0 0 0
          0 0 0 0 0 0 0 0 0 0 0 0
          0 0 0 0 0 0 0 0 0 0 0 0
          0 0 0 0 0 0 0 0 0 0 0 0
          0 0 0 0 0 0 0 0 0 0 0 0
          0 0 0 0 0 0 0 0 0 0 0 0
          0 0 0 0 0 0 0 0 0 0 0 0
          0 0 0 0 0 0 0 0 0 0 0 0
          0 0 0 0 0 0 0 0 0 0 0 0
          0 0 0 0 0 0 0 0 0 0 0 0
          0 0 0 0 0 0 0 0 0 0 0 0
          0 0 0 0 0 0 0 0 0 0 0 0
          0 0 0 0 0 0 0 0 0 0 0 0
          0 0 0 0 0 0 0 0 0 0 0 0
          0 0 0 0 0 0 0 0 0 0 0 0
          0 0 0 0 0 0 0 0 0 0 0 0
          0 0 0 0 0 0 0 0 0 0 0 0
          0 0 0 0 0 0 0 0 0 0 0 0
          0 0 0 0 0 0 0 0 0 0 0 0
          0 0 0 0 0 0 0 0 0 0 0 0
          0 0 0 0 0 0 0 0 0 0 0 0
          0 0 0 0 0 0 0 0 0 0 0 0
          0 0 0 0 0 0 0 0 0 0 0 0
          0 0 0 0 0 0 0 0 0 0 0 0
          0 0 0 0 0 0 0 0 0 0 0 0
          0 0 0 0 0 0 0 0 0 0 0 0
          0 0 0 0 0 0 0 0 0 0 0 0
          0 0 0 0 0 0 0 0 0 0 0 0
          0 0 0 0 0 0 0 0 0 0 0 0
          0 0 0 0 0 0 0 0 0 0 0 0
          0 0 0 0 0 0 0 0 0 0 0 0
          0 0 0 0 0 0 0 0 0 0 0 0
          0 0 0 0 0 0 0 0 0 0 0 0
          0 0 0 0 0 0 0 0 0 0 0 0
          0 0 0 0 0 0 0 0 0 0 0 0
          0 0 0 0 0 0 0 0 0 0 0 0
          0 0 0 0 0 0 0 0 0 0 0 0
          0 0 0 0 0 0 0 0 0 0 0 0
          0 0 0 0 0 0 0 0 0 0 0 0
          0 0 0 0 0 0 0 0 0 0 0 0
          0 0 0 0 0 0 0 0 0 0 0 0
          0 0 0 0 0 0 0 0 0 0 0 0
          0 0 0 0 0 0 0 0 0 0 0 0
          0 0 0 0 0 0 0 0 0 0 0 0
          0 0 0 0 0 0 0 0 0 0 0 0
          0 0 0 0 0 0 0 0 0 0 0 0
          0 0 0 0 0 0 0 0 0 0 0 0
          0 0 0 0 0 0 0 0 0 0 0 0
          0 0 0 0 0 0 0 0 0 0 0 0
          0 0 0 0 0 0 0 0 0 0 0 0
          0 0 0 0 0 0 0 0 0 0 0 0
          0 0 0 0 0 0 0 0 0 0 0 0
          0 0 0 0 0 0 0 0 0 0 0 0
          0 0 0 0 0 0 0 0 0 0 0 0
          0 0 0 0 0 0 0 0 0 0 0 0
          0 0 0 0 0 0 0 0 0 0 0 0
          0 0 0 0 0 0 0 0 0 0 0 0
          0 0 0 0 0 0 0 0 0 0 0 0
          0 0 0 0 0 0 0 0 0 0 0 0
          0 0 0 0 0 0 0 0 0 0 0 0
          0 0 0 0 0 0 0 0 0 0 0 0
          0 0 0 0 0 0 0 0 0 0 0 0
          0 0 0 0 0 0 0 0 0 0 0 0
          0 0 0 0 0 0 0 0 0 0 0 0
          0 0 0 0 0 0 0 0 0 0 0 0
          0 0 0 0 0 0 0 0 0 0 0 0
          0 0 0 0 0 0 0 0 0 0 0 0
          0 0 0 0 0 0 0 0 0 0 0 0
          0 0 0 0 0 0 0 0 0 0 0 0
          0 0 0 0 0 0 0 0 0 0 0 0
          0 0 0 0 0 0 0 0 0 0 0 0
          0 0 0 0 0 0 0 0 0 0 0 0
          0 0 0 0 0 0 0 0 0 0 0 0
          0 0 0 0 0 0 0 0 0 0 0 0
          0 0 0 0 0 0 0 0 0 0 0 0
          0 0 0 0 0 0 0 0 0 0 0 0
          0 0 0 0 0 0 0 0 0 0 0 0
          0 0 0 0 0 0 0 0 0 0 0 0
          0 0 0 0 0 0 0 0 0 0 0 0
          0 0 0 0 0 0 0 0 0 0 0 0
          0 0 0 0 0 0 0 0 0 0 0 0
          0 0 0 0 0 0 0 0 0 0 0 0
          0 0 0 0 0 0 0 0 0 0 0 0
          0 0 0 0 0 0 0 0 0 0 0 0
          0 0 0 0 0 0 0 0 0 0 0 0
          0 0 0 0 0 0 0 0 0 0 0 0
          0 0 0 0 0 0 0 0 0 0 0 0
          0 0 0 0 0 0 0 0 0 0 0 0
          0 0 0 0 0 0 0 0 0 0 0 0
          0 0 0 0 0 0 0 0 0 0 0 0
          0 0 0 0 0 0 0 0 0 0 0 0
          0 0 0 0 0 0 0 0 0 0 0 0
          0 0 0 0 0 0 0 0 0 0 0 0
          0 0 0 0 0 0 0 0 0 0 0 0
          0 0 0 0 0 0 0 0 0 0 0 0
          0 0 0 0 0 0 0 0 0 0 0 0
          0 0 0 0 0 0 0 0 0 0 0 0
          0 0 0 0 0 0 0 0 0 0 0 0
          0 0 0 0 0 0 0 0 0 0 0 0
          0 0 0 0 0 0 0 0 0 0 0 0
          0 0 0 0 0 0 0 0 0 0 0 0
          0 0 0 0 0 0 0 0 0 0 0 0
          0 0 0 0 0 0 0 0 0 0 0 0
          0 0 0 0 0 0 0 0 0 0 0 0
          0 0 0 0 0 0 0 0 0 0 0 0
          0 0 0 0 0 0 0 0 0 0 0 0
          0 0 0 0 0 0 0 0 0 0 0 0
          0 0 0 0 0 0 0 0 0 0 0 0
          0 0 0 0 0 0 0 0 0 0 0 0
          0 0 0 0 0 0 0 0 0 0 0 0
          0 0 0 0 0 0 0 0 0 0 0 0
          0 0 0 0 0 0 0 0 0 0 0 0
          0 0 0 0 0 0 0 0 0 0 0 0
          0 0 0 0 0 0 0 0 0 0 0 0
          0 0 0 0 0 0 0 0 0 0 0 0
          0 0 0 0 0 0 0 0 0 0 0 0
        </DataArray>
      </CellData>
      <Points>
        <DataArray type="Float32" Name="Coordinates" NumberOfComponents="3" format="ascii">
          0 0 0 0.125 0 0 0 0.125 0 0.125 0.125 0
          0.25 0 0 0.25 0.125 0 0.375 0 0 0.375 0.125 0
          0.5 0 0 0.5 0.125 0 0.625 0 0 0.625 0.125 0
          0.75 0 0 0.75 0.125 0 0.875 0 0 0.875 0.125 0
          1 0 0 1 0.125 0 1.125 0 0 1.125 0.125 0
          1.25 0 0 1.25 0.125 0 1.375 0 0 1.375 0.125 0
          1.5 0 0 1.5 0.125 0 1.625 0 0 1.625 0.125 0
          1.75 0 0 1.75 0.125 0 1.875 0 0 1.875 0.125 0
          2 0 0 2 0.125 0 2.125 0 0 2.125 0.125 0
          2.25 0 0 2.25 0.125 0 2.375 0 0 2.375 0.125 0
          2.5 0 0 2.5 0.125 0 2.625 0 0 2.625 0.125 0
          2.75 0 0 2.75 0.125 0 2.875 0 0 2.875 0.125 0
          3 0 0 3 0.125 0 3.125 0 0 3.125 0.125 0
          3.25 0 0 3.25 0.125 0 3.375 0 0 3.375 0.125 0
          3.5 0 0 3.5 0.125 0 3.625 0 0 3.625 0.125 0
          3.75 0 0 3.75 0.125 0 3.875 0 0 3.875 0.125 0
          4 0 0 4 0.125 0 4.125 0 0 4.125 0.125 0
          4.25 0 0 4.25 0.125 0 4.375 0 0 4.375 0.125 0
          4.5 0 0 4.5 0.125 0 4.625 0 0 4.625 0.125 0
          4.75 0 0 4.75 0.125 0 4.875 0 0 4.875 0.125 0
          5 0 0 5 0.125 0 5.125 0 0 5.125 0.125 0
          5.25 0 0 5.25 0.125 0 5.375 0 0 5.375 0.125 0
          5.5 0 0 5.5 0.125 0 5.625 0 0 5.625 0.125 0
          5.75 0 0 5.75 0.125 0 5.875 0 0 5.875 0.125 0
          6 0 0 6 0.125 0 0 0.25 0 0.125 0.25 0
          0.25 0.25 0 0.375 0.25 0 0.5 0.25 0 0.625 0.25 0
          0.75 0.25 0 0.875 0.25 0 1 0.25 0 1.125 0.25 0
          1.25 0.25 0 1.375 0.25 0 1.5 0.25 0 1.625 0.25 0
          1.75 0.25 0 1.875 0.25 0 2 0.25 0 2.125 0.25 0
          2.25 0.25 0 2.375 0.25 0 2.5 0.25 0 2.625 0.25 0
          2.75 0.25 0 2.875 0.25 0 3 0.25 0 3.125 0.25 0
          3.25 0.25 0 3.375 0.25 0 3.5 0.25 0 3.625 0.25 0
          3.75 0.25 0 3.875 0.25 0 4 0.25 0 4.125 0.25 0
          4.25 0.25 0 4.375 0.25 0 4.5 0.25 0 4.625 0.25 0
          4.75 0.25 0 4.875 0.25 0 5 0.25 0 5.125 0.25 0
          5.25 0.25 0 5.375 0.25 0 5.5 0.25 0 5.625 0.25 0
          5.75 0.25 0 5.875 0.25 0 6 0.25 0 0 0.375 0
          0.125 0.375 0 0.25 0.375 0 0.375 0.375 0 0.5 0.375 0
          0.625 0.375 0 0.75 0.375 0 0.875 0.375 0 1 0.375 0
          1.125 0.375 0 1.25 0.375 0 1.375 0.375 0 1.5 0.375 0
          1.625 0.375 0 1.75 0.375 0 1.875 0.375 0 2 0.375 0
          2.125 0.375 0 2.25 0.375 0 2.375 0.375 0 2.5 0.375 0
          2.625 0.375 0 2.75 0.375 0 2.875 0.375 0 3 0.375 0
          3.125 0.375 0 3.25 0.375 0 3.375 0.375 0 3.5 0.375 0
          3.625 0.375 0 3.75 0.375 0 3.875 0.375 0 4 0.375 0
          4.125 0.375 0 4.25 0.375 0 4.375 0.375 0 4.5 0.375 0
          4.625 0.375 0 4.75 0.375 0 4.875 0.375 0 5 0.375 0
          5.125 0.375 0 5.25 0.375 0 5.375 0.375 0 5.5 0.375 0
          5.625 0.375 0 5.75 0.375 0 5.875 0.375 0 6 0.375 0
          0 0.5 0 0.125 0.5 0 0.25 0.5 0 0.375 0.5 0
          0.5 0.5 0 0.625 0.5 0 0.75 0.5 0 0.875 0.5 0
          1 0.5 0 1.125 0.5 0 1.25 0.5 0 1.375 0.5 0
          1.5 0.5 0 1.625 0.5 0 1.75 0.5 0 1.875 0.5 0
          2 0.5 0 2.125 0.5 0 2.25 0.5 0 2.375 0.5 0
          2.5 0.5 0 2.625 0.5 0 2.75 0.5 0 2.875 0.5 0
          3 0.5 0 3.125 0.5 0 3.25 0.5 0 3.375 0.5 0
          3.5 0.5 0 3.625 0.5 0 3.75 0.5 0 3.875 0.5 0
          4 0.5 0 4.125 0.5 0 4.25 0.5 0 4.375 0.5 0
          4.5 0.5 0 4.625 0.5 0 4.75 0.5 0 4.875 0.5 0
          5 0.5 0 5.125 0.5 0 5.25 0.5 0 5.375 0.5 0
          5.5 0.5 0 5.625 0.5 0 5.75 0.5 0 5.875 0.5 0
          6 0.5 0 0 0.625 0 0.125 0.625 0 0.25 0.625 0
          0.375 0.625 0 0.5 0.625 0 0.625 0.625 0 0.75 0.625 0
          0.875 0.625 0 1 0.625 0 1.125 0.625 0 1.25 0.625 0
          1.375 0.625 0 1.5 0.625 0 1.625 0.625 0 1.75 0.625 0
          1.875 0.625 0 2 0.625 0 2.125 0.625 0 2.25 0.625 0
          2.375 0.625 0 2.5 0.625 0 2.625 0.625 0 2.75 0.625 0
          2.875 0.625 0 3 0.625 0 3.125 0.625 0 3.25 0.625 0
          3.375 0.625 0 3.5 0.625 0 3.625 0.625 0 3.75 0.625 0
          3.875 0.625 0 4 0.625 0 4.125 0.625 0 4.25 0.625 0
          4.375 0.625 0 4.5 0.625 0 4.625 0.625 0 4.75 0.625 0
          4.875 0.625 0 5 0.625 0 5.125 0.625 0 5.25 0.625 0
          5.375 0.625 0 5.5 0.625 0 5.625 0.625 0 5.75 0.625 0
          5.875 0.625 0 6 0.625 0 0 0.75 0 0.125 0.75 0
          0.25 0.75 0 0.375 0.75 0 0.5 0.75 0 0.625 0.75 0
          0.75 0.75 0 0.875 0.75 0 1 0.75 0 1.125 0.75 0
          1.25 0.75 0 1.375 0.75 0 1.5 0.75 0 1.625 0.75 0
          1.75 0.75 0 1.875 0.75 0 2 0.75 0 2.125 0.75 0
          2.25 0.75 0 2.375 0.75 0 2.5 0.75 0 2.625 0.75 0
          2.75 0.75 0 2.875 0.75 0 3 0.75 0 3.125 0.75 0
          3.25 0.75 0 3.375 0.75 0 3.5 0.75 0 3.625 0.75 0
          3.75 0.75 0 3.875 0.75 0 4 0.75 0 4.125 0.75 0
          4.25 0.75 0 4.375 0.75 0 4.5 0.75 0 4.625 0.75 0
          4.75 0.75 0 4.875 0.75 0 5 0.75 0 5.125 0.75 0
          5.25 0.75 0 5.375 0.75 0 5.5 0.75 0 5.625 0.75 0
          5.75 0.75 0 5.875 0.75 0 6 0.75 0 0 0.875 0
          0.125 0.875 0 0.25 0.875 0 0.375 0.875 0 0.5 0.875 0
          0.625 0.875 0 0.75 0.875 0 0.875 0.875 0 1 0.875 0
          1.125 0.875 0 1.25 0.875 0 1.375 0.875 0 1.5 0.875 0
          1.625 0.875 0 1.75 0.875 0 1.875 0.875 0 2 0.875 0
          2.125 0.875 0 2.25 0.875 0 2.375 0.875 0 2.5 0.875 0
          2.625 0.875 0 2.75 0.875 0 2.875 0.875 0 3 0.875 0
          3.125 0.875 0 3.25 0.875 0 3.375 0.875 0 3.5 0.875 0
          3.625 0.875 0 3.75 0.875 0 3.875 0.875 0 4 0.875 0
          4.125 0.875 0 4.25 0.875 0 4.375 0.875 0 4.5 0.875 0
          4.625 0.875 0 4.75 0.875 0 4.875 0.875 0 5 0.875 0
          5.125 0.875 0 5.25 0.875 0 5.375 0.875 0 5.5 0.875 0
          5.625 0.875 0 5.75 0.875 0 5.875 0.875 0 6 0.875 0
          0 1 0 0.125 1 0 0.25 1 0 0.375 1 0
          0.5 1 0 0.625 1 0 0.75 1 0 0.875 1 0
          1 1 0 1.125 1 0 1.25 1 0 1.375 1 0
          1.5 1 0 1.625 1 0 1.75 1 0 1.875 1 0
          2 1 0 2.125 1 0 2.25 1 0 2.375 1 0
          2.5 1 0 2.625 1 0 2.75 1 0 2.875 1 0
          3 1 0 3.125 1 0 3.25 1 0 3.375 1 0
          3.5 1 0 3.625 1 0 3.75 1 0 3.875 1 0
          4 1 0 4.125 1 0 4.25 1 0 4.375 1 0
          4.5 1 0 4.625 1 0 4.75 1 0 4.875 1 0
          5 1 0 5.125 1 0 5.25 1 0 5.375 1 0
          5.5 1 0 5.625 1 0 5.75 1 0 5.875 1 0
          6 1 0 0 1.125 0 0.125 1.125 0 0.25 1.125 0
          0.375 1.125 0 0.5 1.125 0 0.625 1.125 0 0.75 1.125 0
          0.875 1.125 0 1 1.125 0 1.125 1.125 0 1.25 1.125 0
          1.375 1.125 0 1.5 1.125 0 1.625 1.125 0 1.75 1.125 0
          1.875 1.125 0 2 1.125 0 2.125 1.125 0 2.25 1.125 0
          2.375 1.125 0 2.5 1.125 0 2.625 1.125 0 2.75 1.125 0
          2.875 1.125 0 3 1.125 0 3.125 1.125 0 3.25 1.125 0
          3.375 1.125 0 3.5 1.125 0 3.625 1.125 0 3.75 1.125 0
          3.875 1.125 0 4 1.125 0 4.125 1.125 0 4.25 1.125 0
          4.375 1.125 0 4.5 1.125 0 4.625 1.125 0 4.75 1.125 0
          4.875 1.125 0 5 1.125 0 5.125 1.125 0 5.25 1.125 0
          5.375 1.125 0 5.5 1.125 0 5.625 1.125 0 5.75 1.125 0
          5.875 1.125 0 6 1.125 0 0 1.25 0 0.125 1.25 0
          0.25 1.25 0 0.375 1.25 0 0.5 1.25 0 0.625 1.25 0
          0.75 1.25 0 0.875 1.25 0 1 1.25 0 1.125 1.25 0
          1.25 1.25 0 1.375 1.25 0 1.5 1.25 0 1.625 1.25 0
          1.75 1.25 0 1.875 1.25 0 2 1.25 0 2.125 1.25 0
          2.25 1.25 0 2.375 1.25 0 2.5 1.25 0 2.625 1.25 0
          2.75 1.25 0 2.875 1.25 0 3 1.25 0 3.125 1.25 0
          3.25 1.25 0 3.375 1.25 0 3.5 1.25 0 3.625 1.25 0
          3.75 1.25 0 3.875 1.25 0 4 1.25 0 4.125 1.25 0
          4.25 1.25 0 4.375 1.25 0 4.5 1.25 0 4.625 1.25 0
          4.75 1.25 0 4.875 1.25 0 5 1.25 0 5.125 1.25 0
          5.25 1.25 0 5.375 1.25 0 5.5 1.25 0 5.625 1.25 0
          5.75 1.25 0 5.875 1.25 0 6 1.25 0 0 1.375 0
          0.125 1.375 0 0.25 1.375 0 0.375 1.375 0 0.5 1.375 0
          0.625 1.375 0 0.75 1.375 0 0.875 1.375 0 1 1.375 0
          1.125 1.375 0 1.25 1.375 0 1.375 1.375 0 1.5 1.375 0
          1.625 1.375 0 1.75 1.375 0 1.875 1.375 0 2 1.375 0
          2.125 1.375 0 2.25 1.375 0 2.375 1.375 0 2.5 1.375 0
          2.625 1.375 0 2.75 1.375 0 2.875 1.375 0 3 1.375 0
          3.125 1.375 0 3.25 1.375 0 3.375 1.375 0 3.5 1.375 0
          3.625 1.375 0 3.75 1.375 0 3.875 1.375 0 4 1.375 0
          4.125 1.375 0 4.25 1.375 0 4.375 1.375 0 4.5 1.375 0
          4.625 1.375 0 4.75 1.375 0 4.875 1.375 0 5 1.375 0
          5.125 1.375 0 5.25 1.375 0 5.375 1.375 0 5.5 1.375 0
          5.625 1.375 0 5.75 1.375 0 5.875 1.375 0 6 1.375 0
          0 1.5 0 0.125 1.5 0 0.25 1.5 0 0.375 1.5 0
          0.5 1.5 0 0.625 1.5 0 0.75 1.5 0 0.875 1.5 0
          1 1.5 0 1.125 1.5 0 1.25 1.5 0 1.375 1.5 0
          1.5 1.5 0 1.625 1.5 0 1.75 1.5 0 1.875 1.5 0
          2 1.5 0 2.125 1.5 0 2.25 1.5 0 2.375 1.5 0
          2.5 1.5 0 2.625 1.5 0 2.75 1.5 0 2.875 1.5 0
          3 1.5 0 3.125 1.5 0 3.25 1.5 0 3.375 1.5 0
          3.5 1.5 0 3.625 1.5 0 3.75 1.5 0 3.875 1.5 0
          4 1.5 0 4.125 1.5 0 4.25 1.5 0 4.375 1.5 0
          4.5 1.5 0 4.625 1.5 0 4.75 1.5 0 4.875 1.5 0
          5 1.5 0 5.125 1.5 0 5.25 1.5 0 5.375 1.5 0
          5.5 1.5 0 5.625 1.5 0 5.75 1.5 0 5.875 1.5 0
          6 1.5 0 0 1.625 0 0.125 1.625 0 0.25 1.625 0
          0.375 1.625 0 0.5 1.625 0 0.625 1.625 0 0.75 1.625 0
          0.875 1.625 0 1 1.625 0 1.125 1.625 0 1.25 1.625 0
          1.375 1.625 0 1.5 1.625 0 1.625 1.625 0 1.75 1.625 0
          1.875 1.625 0 2 1.625 0 2.125 1.625 0 2.25 1.625 0
          2.375 1.625 0 2.5 1.625 0 2.625 1.625 0 2.75 1.625 0
          2.875 1.625 0 3 1.625 0 3.125 1.625 0 3.25 1.625 0
          3.375 1.625 0 3.5 1.625 0 3.625 1.625 0 3.75 1.625 0
          3.875 1.625 0 4 1.625 0 4.125 1.625 0 4.25 1.625 0
          4.375 1.625 0 4.5 1.625 0 4.625 1.625 0 4.75 1.625 0
          4.875 1.625 0 5 1.625 0 5.125 1.625 0 5.25 1.625 0
          5.375 1.625 0 5.5 1.625 0 5.625 1.625 0 5.75 1.625 0
          5.875 1.625 0 6 1.625 0 0 1.75 0 0.125 1.75 0
          0.25 1.75 0 0.375 1.75 0 0.5 1.75 0 0.625 1.75 0
          0.75 1.75 0 0.875 1.75 0 1 1.75 0 1.125 1.75 0
          1.25 1.75 0 1.375 1.75 0 1.5 1.75 0 1.625 1.75 0
          1.75 1.75 0 1.875 1.75 0 2 1.75 0 2.125 1.75 0
          2.25 1.75 0 2.375 1.75 0 2.5 1.75 0 2.625 1.75 0
          2.75 1.75 0 2.875 1.75 0 3 1.75 0 3.125 1.75 0
          3.25 1.75 0 3.375 1.75 0 3.5 1.75 0 3.625 1.75 0
          3.75 1.75 0 3.875 1.75 0 4 1.75 0 4.125 1.75 0
          4.25 1.75 0 4.375 1.75 0 4.5 1.75 0 4.625 1.75 0
          4.75 1.75 0 4.875 1.75 0 5 1.75 0 5.125 1.75 0
          5.25 1.75 0 5.375 1.75 0 5.5 1.75 0 5.625 1.75 0
          5.75 1.75 0 5.875 1.75 0 6 1.75 0 0 1.875 0
          0.125 1.875 0 0.25 1.875 0 0.375 1.875 0 0.5 1.875 0
          0.625 1.875 0 0.75 1.875 0 0.875 1.875 0 1 1.875 0
          1.125 1.875 0 1.25 1.875 0 1.375 1.875 0 1.5 1.875 0
          1.625 1.875 0 1.75 1.875 0 1.875 1.875 0 2 1.875 0
          2.125 1.875 0 2.25 1.875 0 2.375 1.875 0 2.5 1.875 0
          2.625 1.875 0 2.75 1.875 0 2.875 1.875 0 3 1.875 0
          3.125 1.875 0 3.25 1.875 0 3.375 1.875 0 3.5 1.875 0
          3.625 1.875 0 3.75 1.875 0 3.875 1.875 0 4 1.875 0
          4.125 1.875 0 4.25 1.875 0 4.375 1.875 0 4.5 1.875 0
          4.625 1.875 0 4.75 1.875 0 4.875 1.875 0 5 1.875 0
          5.125 1.875 0 5.25 1.875 0 5.375 1.875 0 5.5 1.875 0
          5.625 1.875 0 5.75 1.875 0 5.875 1.875 0 6 1.875 0
          0 2 0 0.125 2 0 0.25 2 0 0.375 2 0
          0.5 2 0 0.625 2 0 0.75 2 0 0.875 2 0
          1 2 0 1.125 2 0 1.25 2 0 1.375 2 0
          1.5 2 0 1.625 2 0 1.75 2 0 1.875 2 0
          2 2 0 2.125 2 0 2.25 2 0 2.375 2 0
          2.5 2 0 2.625 2 0 2.75 2 0 2.875 2 0
          3 2 0 3.125 2 0 3.25 2 0 3.375 2 0
          3.5 2 0 3.625 2 0 3.75 2 0 3.875 2 0
          4 2 0 4.125 2 0 4.25 2 0 4.375 2 0
          4.5 2 0 4.625 2 0 4.75 2 0 4.875 2 0
          5 2 0 5.125 2 0 5.25 2 0 5.375 2 0
          5.5 2 0 5.625 2 0 5.75 2 0 5.875 2 0
          6 2 0 0 2.125 0 0.125 2.125 0 0.25 2.125 0
          0.375 2.125 0 0.5 2.125 0 0.625 2.125 0 0.75 2.125 0
          0.875 2.125 0 1 2.125 0 1.125 2.125 0 1.25 2.125 0
          1.375 2.125 0 1.5 2.125 0 1.625 2.125 0 1.75 2.125 0
          1.875 2.125 0 2 2.125 0 2.125 2.125 0 2.25 2.125 0
          2.375 2.125 0 2.5 2.125 0 2.625 2.125 0 2.75 2.125 0
          2.875 2.125 0 3 2.125 0 3.125 2.125 0 3.25 2.125 0
          3.375 2.125 0 3.5 2.125 0 3.625 2.125 0 3.75 2.125 0
          3.875 2.125 0 4 2.125 0 4.125 2.125 0 4.25 2.125 0
          4.375 2.125 0 4.5 2.125 0 4.625 2.125 0 4.75 2.125 0
          4.875 2.125 0 5 2.125 0 5.125 2.125 0 5.25 2.125 0
          5.375 2.125 0 5.5 2.125 0 5.625 2.125 0 5.75 2.125 0
          5.875 2.125 0 6 2.125 0 0 2.25 0 0.125 2.25 0
          0.25 2.25 0 0.375 2.25 0 0.5 2.25 0 0.625 2.25 0
          0.75 2.25 0 0.875 2.25 0 1 2.25 0 1.125 2.25 0
          1.25 2.25 0 1.375 2.25 0 1.5 2.25 0 1.625 2.25 0
          1.75 2.25 0 1.875 2.25 0 2 2.25 0 2.125 2.25 0
          2.25 2.25 0 2.375 2.25 0 2.5 2.25 0 2.625 2.25 0
          2.75 2.25 0 2.875 2.25 0 3 2.25 0 3.125 2.25 0
          3.25 2.25 0 3.375 2.25 0 3.5 2.25 0 3.625 2.25 0
          3.75 2.25 0 3.875 2.25 0 4 2.25 0 4.125 2.25 0
          4.25 2.25 0 4.375 2.25 0 4.5 2.25 0 4.625 2.25 0
          4.75 2.25 0 4.875 2.25 0 5 2.25 0 5.125 2.25 0
          5.25 2.25 0 5.375 2.25 0 5.5 2.25 0 5.625 2.25 0
          5.75 2.25 0 5.875 2.25 0 6 2.25 0 0 2.375 0
          0.125 2.375 0 0.25 2.375 0 0.375 2.375 0 0.5 2.375 0
          0.625 2.375 0 0.75 2.375 0 0.875 2.375 0 1 2.375 0
          1.125 2.375 0 1.25 2.375 0 1.375 2.375 0 1.5 2.375 0
          1.625 2.375 0 1.75 2.375 0 1.875 2.375 0 2 2.375 0
          2.125 2.375 0 2.25 2.375 0 2.375 2.375 0 2.5 2.375 0
          2.625 2.375 0 2.75 2.375 0 2.875 2.375 0 3 2.375 0
          3.125 2.375 0 3.25 2.375 0 3.375 2.375 0 3.5 2.375 0
          3.625 2.375 0 3.75 2.375 0 3.875 2.375 0 4 2.375 0
          4.125 2.375 0 4.25 2.375 0 4.375 2.375 0 4.5 2.375 0
          4.625 2.375 0 4.75 2.375 0 4.875 2.375 0 5 2.375 0
          5.125 2.375 0 5.25 2.375 0 5.375 2.375 0 5.5 2.375 0
          5.625 2.375 0 5.75 2.375 0 5.875 2.375 0 6 2.375 0
          0 2.5 0 0.125 2.5 0 0.25 2.5 0 0.375 2.5 0
          0.5 2.5 0 0.625 2.5 0 0.75 2.5 0 0.875 2.5 0
          1 2.5 0 1.125 2.5 0 1.25 2.5 0 1.375 2.5 0
          1.5 2.5 0 1.625 2.5 0 1.75 2.5 0 1.875 2.5 0
          2 2.5 0 2.125 2.5 0 2.25 2.5 0 2.375 2.5 0
          2.5 2.5 0 2.625 2.5 0 2.75 2.5 0 2.875 2.5 0
          3 2.5 0 3.125 2.5 0 3.25 2.5 0 3.375 2.5 0
          3.5 2.5 0 3.625 2.5 0 3.75 2.5 0 3.875 2.5 0
          4 2.5 0 4.125 2.5 0 4.25 2.5 0 4.375 2.5 0
          4.5 2.5 0 4.625 2.5 0 4.75 2.5 0 4.875 2.5 0
          5 2.5 0 5.125 2.5 0 5.25 2.5 0 5.375 2.5 0
          5.5 2.5 0 5.625 2.5 0 5.75 2.5 0 5.875 2.5 0
          6 2.5 0 0 2.625 0 0.125 2.625 0 0.25 2.625 0
          0.375 2.625 0 0.5 2.625 0 0.625 2.625 0 0.75 2.625 0
          0.875 2.625 0 1 2.625 0 1.125 2.625 0 1.25 2.625 0
          1.375 2.625 0 1.5 2.625 0 1.625 2.625 0 1.75 2.625 0
          1.875 2.625 0 2 2.625 0 2.125 2.625 0 2.25 2.625 0
          2.375 2.625 0 2.5 2.625 0 2.625 2.625 0 2.75 2.625 0
          2.875 2.625 0 3 2.625 0 3.125 2.625 0 3.25 2.625 0
          3.375 2.625 0 3.5 2.625 0 3.625 2.625 0 3.75 2.625 0
          3.875 2.625 0 4 2.625 0 4.125 2.625 0 4.25 2.625 0
          4.375 2.625 0 4.5 2.625 0 4.625 2.625 0 4.75 2.625 0