<?xml version="1.0"?>
<VTKFile type="UnstructuredGrid" version="0.1" byte_order="LittleEndian">
  <UnstructuredGrid>
    <Piece NumberOfCells="3667" NumberOfPoints="3794">
      <CellData Scalars="S_liq">
        <DataArray type="Float32" Name="S_liq" NumberOfComponents="1" format="ascii">
          0.528544 0.560788 0.489603 0.557678 0.532109 0.581855 0.597525 0.611856 0.577537 0.495233 0.39435 0.446943
          0.379112 0.490424 0.528747 0.593423 0.554902 0.575069 0.628508 0.645741 0.663783 0.684213 0.710394 0.756126
          0.609631 0.644565 0.626798 0.593894 0.658929 0.672379 0.697158 0.66259 0.646914 0.675035 0.438274 0.352781
          0.486508 0.520168 0.412886 0.547278 0.569128 0.354876 0.448777 0.493978 0.391054 0.506662 0.52475 0.548871
          0.570024 0.534774 0.555083 0.612371 0.623556 0.588474 0.650128 0.628903 0.688451 0.606864 0.617806 0.587943
          0.605865 0.640791 0.658899 0.628898 0.670539 0.902571 1 1 1 1 0.773545 0.938723
          1 1 1 1 1 1 1 1 1 1 1 1
          1 1 1 1 1 1 1 1 1 1 1 1
          0.757483 0.906227 0.951068 1 1 0.701188 0.777786 0.730331 0.837026 1 1 1
          1 1 1 1 1 1 1 1 1 1 1 0.467786
          0.410188 0.473669 0.502635 0.532032 0.57525 0.555673 0.568938 0.58249 0.508948 0.539177 0.423268 0.482201
          0.564853 0.577513 0.591523 0.591123 0.60637 0.616138 0.596607 0.615033 0.62328 0.636215 0.653642 0.669535
          0.610914 0.623082 0.634998 0.605422 0.618574 0.633913 0.648828 0.652807 0.675417 0.413827 0.518385 0.472394
          0.507788 0.550393 0.569987 0.534618 0.554907 0.571287 0.385651 0.443467 0.514412 0.393423 0.485392 0.537178
          0.558603 0.532503 0.57611 0.586178 0.601122 0.615792 0.650525 0.626142 0.673353 0.589161 0.604062 0.617993
          0.594491 0.610438 0.627118 0.631036 0.653007 0.681113 0.69806 0.745418 0.695423 0.870512 1 1
          1 0.740527 0.849302 0.700884 0.741009 1 1 1 1 1 1 1
          1 1 1 1 1 0.690161 0.847282 0.715007 0.793888 1 1 1
          0.965594 1 0.701636 0.776933 1 0.913582 1 1 1 1 1 1
          1 1 1 1 1 1 1 1 1 1 1 1
          1 1 1 1 1 1 1 1 1 1 1 1
          1 1 1 1 1 1 1 1 1 1 1 1
          1 1 1 1 1 1 1 1 1 1 1 1
          1 1 1 1 1 1 1 1 1 1 1 1
          1 1 1 1 1 1 1 1 1 1 1 1
          1 1 1 1 1 1 1 1 1 1 1 1
          1 1 1 1 1 1 1 1 1 1 1 1
          1 1 1 1 1 1 1 1 1 1 1 1
          1 1 1 1 1 1 1 1 1 1 1 1
          1 1 1 1 1 1 1 1 1 1 1 1
          1 1 1 1 1 1 1 1 1 1 1 1
          1 1 1 1 1 1 1 1 1 1 1 1
          1 1 1 1 1 1 1 1 1 1 1 1
          1 1 1 1 1 1 1 1 1 1 1 1
          1 1 1 1 1 1 1 1 1 1 1 1
          1 1 1 1 1 1 1 1 1 1 1 1
          1 1 1 1 1 1 1 1 1 1 1 1
          1 1 1 1 1 1 1 1 1 1 0.467107 0.51446
          0.409133 0.491749 0.524247 0.557067 0.576848 0.551924 0.454537 0.394236 0.492608 0.448437 0.362954 0.48954
          0.573936 0.522168 0.547329 0.569555 0.596363 0.614389 0.632733 0.64487 0.669521 0.654399 0.593614 0.612724
          0.589385 0.631133 0.682531 0.65312 0.678376 0.416585 0.361663 0.444158 0.489482 0.521375 0.542501 0.561512
          0.551174 0.39135 0.460222 0.492919 0.411066 0.529013 0.576767 0.609453 0.627714 0.582639 0.603551 0.649632
          0.670169 0.621982 0.598635 0.616854 0.6408 0.671135 0.653814 0.708913 0.775982 0.914419 1 1
          1 0.999344 1 1 0.739345 0.840579 0.723238 0.943974 1 1 1 1
          1 1 1 1 1 1 1 1 1 1 1 1
          1 1 0.771256 0.697369 0.727598 0.829194 1 1 1 0.696439 0.744703 0.694954
          0.89208 1 1 1 1 1 1 1 1 1 1 1
          1 1 1 1 1 1 1 1 1 0.443909 0.482981 0.517754
          0.484247 0.489083 0.54795 0.550092 0.582899 0.519394 0.514842 0.564315 0.577954 0.606838 0.588294 0.606665
          0.626613 0.630162 0.645146 0.641507 0.68851 0.629849 0.651157 0.684209 0.675149 0.703793 0.697885 0.725831
          0.537593 0.54118 0.576413 0.559144 0.590273 0.615894 0.621765 0.595262 0.615896 0.557057 0.575941 0.573365
          0.606101 0.60969 0.631467 0.628401 0.632789 0.642113 0.645766 0.665918 0.690873 0.727093 0.810082 0.635796
          0.663389 0.684612 0.649408 0.680256 0.708245 0.715521 0.780887 0.963831 0.757074 0.886177 1 0.73301
          0.858876 1 1 1 1 0.825207 1 0.97143 1 1 1 1
          1 1 1 1 1 1 1 1 1 1 1 1
          1 1 1 1 1 1 1 1 1 1 1 1
          1 1 1 1 1 1 1 1 1 1 1 1
          1 1 1 1 1 1 1 1 1 1 1 1
          1 1 1 1 1 1 1 1 1 1 1 1
          1 1 1 1 1 1 1 1 1 1 1 1
          1 1 1 1 1 1 1 1 1 1 1 1
          1 1 1 1 1 1 1 1 1 1 1 1
          1 1 1 1 1 1 1 1 1 1 1 1
          1 1 1 1 1 1 1 1 1 1 1 1
          1 1 1 1 1 1 1 1 1 1 1 1
          1 1 1 1 1 1 1 1 1 1 1 1
          1 1 1 1 1 1 1 1 1 1 1 1
          1 1 1 1 1 1 1 1 1 1 1 1
          1 1 1 1 1 1 1 1 1 1 1 1
          1 1 1 1 1 1 1 1 1 1 1 1
          1 1 1 1 1 1 1 1 1 1 1 1
          1 1 1 1 1 1 1 1 1 1 1 1
          1 1 1 1 1 1 1 1 1 1 1 1
          1 1 1 1 1 1 1 1 1 1 1 1
          1 1 1 1 1 1 1 1 1 1 1 1
          1 1 1 1 1 1 1 1 1 1 1 1
          1 1 1 1 1 1 1 1 1 1 1 1
          1 1 1 1 1 1 1 1 1 1 1 1
          1 1 1 1 1 1 1 1 1 1 1 1
          1 1 1 1 1 1 1 1 1 1 1 1
          1 1 1 1 1 1 1 1 1 1 1 1
          1 1 1 1 1 1 1 1 1 1 1 1
          1 1 1 1 1 1 1 1 1 1 1 1
          1 1 1 1 1 1 1 1 1 1 1 1
          1 1 1 1 1 1 1 1 1 1 1 1
          1 1 1 1 1 1 1 1 1 1 1 1
          1 1 1 1 1 1 1 1 1 1 1 1
          1 1 1 1 1 1 1 1 1 1 1 1
          1 1 1 1 1 1 1 1 1 1 1 1
          1 1 1 1 1 1 1 1 1 1 1 1
          1 1 1 1 1 1 1 1 1 1 1 1
          1 1 1 1 1 1 1 1 1 1 1 1
          1 1 1 1 1 1 1 1 1 1 1 1
          1 1 1 1 1 1 1 1 1 1 1 1
          1 1 1 1 1 1 1 1 1 1 1 1
          1 1 1 1 1 1 1 1 1 1 1 1
          1 1 1 1 1 1 1 1 1 1 1 1
          1 1 1 1 1 1 1 1 1 1 1 1
          1 1 1 1 1 1 1 1 1 1 1 1
          1 1 1 1 1 1 1 1 1 1 1 1
          1 1 1 1 1 1 1 1 1 1 1 1
          1 1 1 1 1 1 1 1 1 1 1 1
          1 1 1 1 1 1 1 1 1 1 1 1
          1 1 1 1 1 1 1 1 1 1 1 1
          1 1 1 1 1 1 1 1 1 1 1 1
          1 1 1 1 1 1 1 1 1 1 1 1
          1 1 1 1 1 1 1 1 1 1 1 1
          1 1 1 1 1 1 1 1 1 1 1 1
          1 1 1 1 1 1 1 1 1 1 1 1
          1 1 1 1 1 1 1 1 1 1 1 1
          1 1 1 1 1 1 1 1 1 1 1 1
          1 1 1 1 1 1 1 1 1 1 1 1
          1 1 1 1 1 1 1 1 1 1 1 1
          1 1 1 1 1 1 1 1 1 1 1 1
          1 1 1 1 1 1 1 1 1 1 1 1
          1 1 1 1 1 1 1 1 1 1 1 1
          1 1 1 1 1 1 1 1 1 1 1 1
          1 1 1 1 1 1 1 1 1 1 1 1
          1 1 1 1 1 1 1 1 1 1 1 1
          1 1 1 1 1 1 1 1 1 1 1 1
          1 1 1 1 1 1 1 1 1 1 1 1
          1 1 1 1 1 1 1 1 1 1 1 1
          1 1 1 1 1 1 1 1 1 1 1 1
          1 1 1 1 1 1 1 1 1 1 1 1
          1 1 1 1 1 1 1 1 1 1 1 1
          1 1 1 1 1 1 1 1 1 1 1 1
          1 1 1 1 1 1 1 1 1 1 1 1
          1 1 1 1 1 1 1 1 1 1 1 1
          1 1 1 1 1 1 1 1 1 1 1 1
          1 1 1 1 1 1 1 1 1 1 1 1
          1 1 1 1 1 1 1 1 1 1 1 1
          1 1 1 1 1 1 1 1 1 1 1 1
          1 1 1 1 1 1 1 1 1 1 1 1
          1 1 1 1 1 1 1 1 1 1 1 1
          1 1 1 1 1 1 1 1 1 1 1 1
          1 1 1 1 1 1 1 1 1 1 1 1
          1 1 1 1 1 1 1 1 1 1 1 1
          1 1 1 1 1 1 1 1 1 1 1 1
          1 1 1 1 1 1 1 1 1 1 1 1
          1 1 1 1 1 1 1 1 1 1 1 1
          1 1 1 1 1 1 1 1 1 1 1 1
          1 1 1 1 1 1 1 1 1 1 1 1
          1 1 1 1 1 1 1 1 1 1 1 1
          1 1 1 1 1 1 1 1 1 1 1 1
          1 1 1 1 1 1 1 1 1 1 1 1
          1 1 1 1 1 1 1 1 1 1 1 1
          1 1 1 1 1 1 1 1 1 1 1 1
          1 1 1 1 1 1 1 1 1 1 1 1
          1 1 1 1 1 1 1 1 1 1 1 1
          1 1 1 1 1 1 1 1 1 1 1 1
          1 1 1 1 1 1 1 1 1 1 1 1
          1 1 1 1 1 1 1 1 1 1 1 1
          1 1 1 1 1 1 1 1 1 1 1 1
          1 1 1 1 1 1 1 1 0.590071 0.61677 0.588057 0.603673
          0.644154 0.651582 0.642894 0.660012 0.666668 0.599437 0.625568 0.612157 0.618137 0.659789 0.684264 0.698186
          0.66378 0.703932 0.757825 0.862618 1 1 0.677223 0.722608 0.714159 0.856829 0.90733 1
          1 1 1 0.689842 0.690641 0.750011 0.775328 0.773962 0.757506 0.850128 0.890067 0.955292
          0.945088 0.941383 1 1 1 1 0.834543 1 1 1 1 1
          1 1 1 1 1 1 1 1 1 1 1 1
          1 1 1 1 1 1 1 1 1 1 1 1
          1 1 1 1 1 1 1 1 1 1 1 1
          1 1 1 1 1 1 1 1 1 1 1 1
          1 1 1 1 1 1 1 1 1 1 1 1
          1 1 1 1 1 1 1 1 1 1 1 1
          1 1 1 1 1 1 1 1 1 1 1 1
          1 1 1 1 1 1 1 1 1 1 1 1
          1 1 1 1 1 1 1 1 1 1 1 1
          1 1 1 1 1 1 1 1 1 1 1 1
          1 1 1 1 1 1 1 1 1 1 1 1
          1 1 1 1 1 1 1 1 1 1 1 1
          1 1 1 1 1 1 1 1 1 1 1 1
          1 1 1 1 1 1 1 1 1 1 1 1
          1 1 1 1 1 1 1 1 1 1 1 1
          1 1 1 1 1 1 1 1 1 1 1 1
          1 1 1 1 1 1 1 1 1 1 1 1
          1 1 1 1 1 1 1 1 1 1 1 1
          1 1 1 1 1 1 1 1 1 1 1 1
          1 1 1 1 1 1 1 1 1 1 1 1
          1 1 1 1 1 1 1 1 1 1 1 1
          1 1 1 1 1 1 1 1 1 1 1 1
          1 1 1 1 1 1 1 1 1 1 1 1
          1 1 1 1 1 1 1 1 1 1 1 1
          1 1 1 1 1 1 1 1 1 1 1 1
          1 1 1 1 1 1 1 1 1 1 1 1
          1 1 1 1 1 1 1 1 1 1 1 1
          1 1 1 1 1 1 1 1 1 1 1 1
          1 1 1 1 1 1 1 1 1 1 1 1
          1 1 1 1 1 1 1 1 1 1 1 1
          1 1 1 1 1 1 1 1 1 1 1 1
          1 1 1 1 1 1 1 1 1 1 1 1
          1 1 1 1 1 1 1 1 1 1 1 1
          1 1 1 1 1 1 1 1 1 1 1 1
          1 1 1 1 1 1 1 1 1 1 1 1
          1 1 1 1 1 1 1 1 1 1 1 1
          1 1 1 1 1 1 1 1 1 1 1 1
          1 1 1 1 1 1 1 1 1 1 1 1
          1 1 1 1 1 1 1 1 1 1 1 1
          1 1 1 1 1 1 1 1 1 1 1 1
          1 1 1 1 1 1 1 1 1 1 1 1
          1 1 1 1 1 1 1 1 1 1 1 1
          1 1 1 1 1 1 1 1 1 1 1 1
          1 1 1 1 1 1 1 1 1 1 1 1
          1 1 1 1 1 1 1 1 1 1 1 1
          1 1 1 1 1 1 1 1 1 1 1 1
          1 1 1 1 1 1 1 1 1 1 1 1
          1 1 1 1 1 1 1 1 1 1 1 1
          1 1 1 1 1 1 1 1 1 1 1 1
          1 1 1 1 1 1 1 1 1 1 1 1
          1 1 1 1 1 1 1 1 1 1 1 1
          1 1 1 1 1 1 1 1 1 1 1 1
          1 1 1 1 1 1 1 1 1 1 1 1
          1 1 1 1 1 1 1 1 1 1 1 1
          1 1 1 1 1 1 1 1 1 1 1 1
          1 1 1 1 1 1 1 1 1 1 1 1
          1 1 1 1 1 1 1 1 1 1 1 1
          1 1 1 1 1 1 1 1 1 1 1 1
          1 1 1 1 1 1 1 1 1 1 1 1
          1 1 1 1 1 1 1 1 1 1 1 1
          1 1 1 1 1 1 1 1 1 1 1 1
          1 1 1 1 1 1 1 1 1 1 1 1
          1 1 1 1 1 1 1 1 1 1 1 1
          1 1 1 1 1 1 1 1 1 1 1 1
          1 1 1 1 1 1 1 1 1 1 1 1
          1 1 1 1 1 1 1 1 1 1 1 1
          1 1 1 1 1 1 1 1 1 1 1 1
          1 1 1 1 1 1 1 1 1 1 1 1
          1 1 1 1 1 1 1 1 1 1 1 1
          1 1 1 1 1 1 1 1 1 1 1 1
          1 1 1 1 1 1 1 1 1 1 1 1
          1 1 1 1 1 1 1 1 1 1 1 1
          1 1 1 1 1 1 1 1 1 1 1 1
          1 1 1 1 1 1 1 1 1 1 1 1
          1 1 1 1 1 1 1 1 1 1 1 1
          1 1 1 1 1 1 1 1 1 1 1 1
          1 1 1 1 1 1 1 1 1 1 1 1
          1 1 1 1 1 1 1 1 1 1 1 1
          1 1 1 1 1 1 1 1 1 1 1 1
          1 1 1 1 1 1 1 1 1 1 1 1
          1 1 1 1 1 1 1 1 1 1 1 1
          1 1 1 1 1 1 1 1 1 1 1 1
          1 1 1 1 1 1 1 1 1 1 1 1
          1 1 1 1 1 1 1 1 1 1 1 1
          1 1 1 1 1 1 1 1 1 1 1 1
          1 1 1 1 1 1 1 1 1 1 1 1
          1 1 1 1 1 1 1 1 1 1 1 1
          1 1 1 1 1 1 1 1 1 1 1 1
          1 1 1 1 1 1 1 1 1 1 1 1
          1 1 1 1 1 1 1 1 1 1 1 1
          1 1 1 1 1 1 1 1 1 1 1 1
          1 1 1 1 1 1 1 1 1 1 1 1
          1 1 1 1 1 1 1 1 1 1 1 1
          1 1 1 1 1 1 1 1 1 1 1 1
          1 1 1 1 1 1 1 1 1 1 1 1
          1 1 1 1 1 1 1 1 1 1 1 1
          1 1 1 1 1 1 1 1 1 1 1 1
          1 1 1 1 1 1 1 1 1 1 1 1
          1 1 1 1 1 1 1 1 1 1 1 1
          1 1 1 1 1 1 1 1 1 1 1 1
          1 1 1 1 1 1 1 1 1 1 1 1
          1 1 1 1 1 1 1 1 1 1 1 1
          1 1 1 1 1 1 1 1 1 1 1 1
          1 1 1 1 1 1 1 1 1 1 1 1
          1 1 1 1 1 1 1 1 1 1 1 1
          1 1 1 1 1 1 1 1 1 1 1 1
          1 1 1 1 1 1 1 1 1 1 1 1
          1 1 1 1 1 1 1 1 1 1 1 1
          1 1 1 1 1 1 1 1 1 1 1 1
          1 1 1 1 1 1 1 1 1 1 1 1
          1 1 1 1 1 1 1 1 1 1 1 1
          1 1 1 1 1 1 1 1 1 1 1 1
          1 1 1 1 1 1 1 1 1 1 1 1
          1 1 1 1 1 1 1 1 1 1 1 1
          1 1 1 1 1 1 1 1 1 1 1 1
          1 1 1 1 1 1 1 1 1 1 1 1
          1 1 1 1 1 1 1 1 1 1 1 1
          1 1 1 1 1 1 1 1 1 1 1 1
          1 1 1 1 1 1 1 1 1 1 1 1
          1 1 1 1 1 1 1 1 1 1 1 1
          1 1 1 1 1 1 1 1 1 1 1 1
          1 1 1 1 1 1 1 1 1 1 1 1
          1 1 1 1 1 1 1 1 1 1 1 1
          1 1 1 1 1 1 1 1 1 1 1 1
          1 1 1 1 1 1 1 1 1 1 1 1
          1 1 1 1 1 1 1 1 1 1 1 1
          1 1 1 1 1 1 1 1 1 1 1 1
          1 1 1 1 1 1 1 1 1 1 1 1
          1 1 1 1 1 1 1 1 1 1 1 1
          1 1 1 1 1 1 1 1 1 1 1 1
          1 1 1 1 1 1 1 1 1 1 1 1
          1 1 1 1 1 1 1 1 1 1 1 1
          1 1 1 1 1 1 1 1 1 1 1 1
          1 1 1 1 1 1 1 1 1 1 1 1
          1 1 1 1 1 1 1 1 1 1 1 1
          1 1 1 1 1 1 1 1 1 1 1 1
          1 1 1 1 1 1 1 1 1 1 1 1
          1 1 1 1 1 1 1 1 1 1 1 1
          1 1 1 1 1 1 1 1 1 1 1 1
          1 1 1 1 1 1 1 1 1 1 1 1
          1 1 1 1 1 1 1 1 1 1 1 1
          1 1 1 1 1 1 1 1 1 1 1 1
          1 1 1 1 1 1 1 1 1 1 1 1
          1 1 1 1 1 1 1 1 1 1 1 1
          1 1 1 1 1 1 1 1 1 1 1 1
          1 1 1 1 1 1 1 1 1 1 1 1
          1 1 1 1 1 1 1 1 1 1 1 1
          1 1 1 1 1 1 1
        </DataArray>
        <DataArray type="Float32" Name="p_liq" NumberOfComponents="1" format="ascii">
          4.37599e+07 4.36086e+07 4.38541e+07 4.34416e+07 4.3612e+07 4.33628e+07 4.30718e+07 4.27705e+07 4.31532e+07 4.37676e+07 4.3963e+07 4.38528e+07
          4.40137e+07 4.37069e+07 4.34908e+07 4.27871e+07 4.31688e+07 4.27739e+07 4.24051e+07 4.19643e+07 4.14857e+07 4.09822e+07 4.04453e+07 3.9817e+07
          4.23737e+07 4.13616e+07 4.18776e+07 4.23377e+07 4.09089e+07 4.04743e+07 3.99034e+07 4.06719e+07 4.10601e+07 4.01953e+07 4.38944e+07 4.40438e+07
          4.37004e+07 4.34313e+07 4.39576e+07 4.31026e+07 4.27141e+07 4.40392e+07 4.38638e+07 4.36477e+07 4.3997e+07 4.35388e+07 4.33537e+07 4.30206e+07
          4.26422e+07 4.3244e+07 4.29205e+07 4.18299e+07 4.13329e+07 4.22793e+07 4.06177e+07 4.0957e+07 3.96992e+07 4.17847e+07 4.13094e+07 4.22284e+07
          4.17685e+07 4.06326e+07 4.01988e+07 4.10555e+07 3.9788e+07 3.89228e+07 3.79969e+07 3.74715e+07 3.7086e+07 3.67416e+07 3.90779e+07 3.80826e+07
          3.74548e+07 3.70103e+07 3.73338e+07 3.68671e+07 3.61198e+07 3.64294e+07 3.58051e+07 3.66126e+07 3.62582e+07 3.59752e+07 3.52674e+07 3.4941e+07
          3.46061e+07 3.55231e+07 3.50836e+07 3.4795e+07 3.44653e+07 3.57405e+07 3.60441e+07 3.64347e+07 3.5282e+07 3.50235e+07 3.54532e+07 3.47056e+07
          3.89703e+07 3.80105e+07 3.77472e+07 3.71632e+07 3.66826e+07 3.93036e+07 3.86361e+07 3.89564e+07 3.83218e+07 3.65345e+07 3.75055e+07 3.70192e+07
          3.6223e+07 3.57791e+07 3.50768e+07 3.46608e+07 3.50834e+07 3.46122e+07 3.60611e+07 3.5582e+07 3.5505e+07 3.50239e+07 3.45504e+07 4.37675e+07
          4.3931e+07 4.37999e+07 4.36574e+07 4.34283e+07 4.2572e+07 4.31292e+07 4.28337e+07 4.25557e+07 4.35956e+07 4.33352e+07 4.38406e+07 4.35876e+07
          4.29947e+07 4.26859e+07 4.238e+07 4.21998e+07 4.18046e+07 4.1355e+07 4.22361e+07 4.14398e+07 4.11322e+07 4.07668e+07 4.02823e+07 4.00587e+07
          4.1862e+07 4.1474e+07 4.10774e+07 4.19823e+07 4.15695e+07 4.11094e+07 4.06152e+07 4.0559e+07 3.99566e+07 4.38012e+07 4.32876e+07 4.35603e+07
          4.32596e+07 4.29252e+07 4.25162e+07 4.29334e+07 4.25824e+07 4.22129e+07 4.3751e+07 4.35724e+07 4.31599e+07 4.36632e+07 4.33493e+07 4.29136e+07
          4.26062e+07 4.29465e+07 4.22452e+07 4.21109e+07 4.16958e+07 4.12423e+07 4.03823e+07 4.08274e+07 3.97782e+07 4.18128e+07 4.139e+07 4.09795e+07
          4.18386e+07 4.13931e+07 4.09211e+07 4.05801e+07 4.00892e+07 3.94484e+07 3.93248e+07 3.87868e+07 3.94224e+07 3.81112e+07 3.64428e+07 3.73627e+07
          3.69047e+07 3.87656e+07 3.80327e+07 3.9353e+07 3.8727e+07 3.72629e+07 3.63772e+07 3.68184e+07 3.59788e+07 3.54622e+07 3.49897e+07 3.45146e+07
          3.5927e+07 3.58809e+07 3.54294e+07 3.49669e+07 3.44975e+07 3.92367e+07 3.80036e+07 3.87264e+07 3.80859e+07 3.7208e+07 3.67447e+07 3.6315e+07
          3.72731e+07 3.65694e+07 3.89223e+07 3.82573e+07 3.68504e+07 3.73981e+07 3.69043e+07 3.66341e+07 3.63399e+07 3.57683e+07 3.61784e+07 3.53372e+07
          3.4895e+07 3.44432e+07 3.59796e+07 3.55899e+07 3.5182e+07 3.47724e+07 3.43415e+07 3.46568e+07 3.43118e+07 3.42702e+07 3.39096e+07 3.35168e+07
          3.41197e+07 3.3057e+07 3.25407e+07 3.37668e+07 3.43587e+07 3.4011e+07 3.3697e+07 3.34031e+07 3.3381e+07 3.29351e+07 3.24442e+07 3.20888e+07
          3.17203e+07 3.13972e+07 3.10932e+07 3.07696e+07 3.04449e+07 3.13399e+07 3.06547e+07 3.1981e+07 3.16274e+07 3.14238e+07 3.17124e+07 3.0999e+07
          3.03866e+07 3.10584e+07 3.42717e+07 3.39076e+07 3.36038e+07 3.4186e+07 3.37915e+07 3.34475e+07 3.31537e+07 3.28264e+07 3.2438e+07 3.26323e+07
          3.41035e+07 3.3672e+07 3.32882e+07 3.29511e+07 3.22842e+07 3.28238e+07 3.20182e+07 3.12966e+07 3.06446e+07 3.08624e+07 3.15959e+07 3.18846e+07
          3.13077e+07 3.05039e+07 3.09297e+07 3.05679e+07 3.03036e+07 2.98474e+07 2.94719e+07 3.0138e+07 2.90856e+07 2.87014e+07 2.85533e+07 2.96457e+07
          2.98655e+07 2.95975e+07 2.93226e+07 2.89522e+07 2.92685e+07 2.84891e+07 2.88952e+07 2.83228e+07 2.79639e+07 2.81901e+07 2.76388e+07 2.73267e+07
          2.6953e+07 2.70683e+07 2.79143e+07 2.81096e+07 2.76154e+07 2.73309e+07 2.66922e+07 2.71153e+07 2.67427e+07 3.00419e+07 2.968e+07 3.02778e+07
          2.93015e+07 2.89138e+07 2.84987e+07 3.00458e+07 2.97118e+07 2.93403e+07 2.99366e+07 2.96911e+07 2.93786e+07 2.89498e+07 2.85341e+07 2.81146e+07
          2.78439e+07 2.76053e+07 2.7374e+07 2.70945e+07 2.67142e+07 2.79115e+07 2.81631e+07 2.76161e+07 2.72942e+07 2.70011e+07 2.66174e+07 3.40649e+07
          3.36314e+07 3.32538e+07 3.30951e+07 3.24643e+07 3.2859e+07 3.25648e+07 3.4061e+07 3.36622e+07 3.33202e+07 3.29567e+07 3.26789e+07 3.22219e+07
          3.30203e+07 3.27141e+07 3.24278e+07 3.15529e+07 3.12407e+07 3.20743e+07 3.16867e+07 3.08852e+07 3.05025e+07 3.12893e+07 3.1803e+07 3.13504e+07
          3.08933e+07 3.04864e+07 3.09321e+07 3.05321e+07 3.36597e+07 3.40258e+07 3.33647e+07 3.31276e+07 3.36028e+07 3.33315e+07 3.26128e+07 3.29388e+07
          3.22384e+07 3.39368e+07 3.32147e+07 3.349e+07 3.37419e+07 3.34337e+07 3.31015e+07 3.24591e+07 3.20927e+07 3.27919e+07 3.18074e+07 3.13536e+07
          3.0165e+07 3.0938e+07 3.05517e+07 3.0224e+07 3.16948e+07 3.12859e+07 3.05162e+07 3.01967e+07 3.08903e+07 3.01768e+07 2.97684e+07 2.99517e+07
          2.94947e+07 2.89847e+07 2.85749e+07 2.89188e+07 2.85099e+07 3.00972e+07 2.96549e+07 2.93828e+07 2.97541e+07 2.924e+07 2.91199e+07 2.87922e+07
          2.83902e+07 2.82131e+07 2.79102e+07 2.81102e+07 2.7718e+07 2.73548e+07 2.67746e+07 2.79649e+07 2.75068e+07 2.71035e+07 2.65871e+07 2.68212e+07
          2.98153e+07 2.942e+07 2.94327e+07 2.90763e+07 2.87066e+07 2.82972e+07 2.99496e+07 2.97466e+07 2.93931e+07 2.90311e+07 2.86395e+07 2.89955e+07
          2.82386e+07 2.78663e+07 2.73985e+07 2.65131e+07 2.69401e+07 2.65372e+07 2.78275e+07 2.74083e+07 2.69875e+07 2.6568e+07 4.3486e+07 4.31024e+07
          4.35147e+07 4.32662e+07 4.28799e+07 4.2615e+07 4.22133e+07 4.25385e+07 4.33078e+07 4.34506e+07 4.31125e+07 4.32569e+07 4.33876e+07 4.3e+07
          4.2121e+07 4.27004e+07 4.23678e+07 4.19841e+07 4.17776e+07 4.12936e+07 4.07735e+07 4.04055e+07 3.98155e+07 4.01968e+07 4.1672e+07 4.117e+07
          4.15496e+07 4.06295e+07 3.95483e+07 4.00339e+07 3.93735e+07 4.32498e+07 4.33121e+07 4.30666e+07 4.28075e+07 4.2479e+07 4.21883e+07 4.18776e+07
          4.19019e+07 4.32051e+07 4.28917e+07 4.2494e+07 4.31042e+07 4.21396e+07 4.14595e+07 4.10552e+07 4.05223e+07 4.14752e+07 4.09998e+07 3.99323e+07
          3.92818e+07 4.05038e+07 4.09724e+07 4.05212e+07 3.99892e+07 3.91018e+07 3.95377e+07 3.90853e+07 3.82006e+07 3.73023e+07 3.6793e+07 3.64707e+07
          3.6141e+07 3.69971e+07 3.66162e+07 3.62913e+07 3.87521e+07 3.77992e+07 3.86161e+07 3.72273e+07 3.64174e+07 3.61525e+07 3.67138e+07 3.61534e+07
          3.57791e+07 3.53986e+07 3.59548e+07 3.55908e+07 3.52089e+07 3.50103e+07 3.44696e+07 3.4807e+07 3.41235e+07 3.58285e+07 3.54615e+07 3.50781e+07
          3.46753e+07 3.42502e+07 3.78331e+07 3.86328e+07 3.79851e+07 3.73429e+07 3.67189e+07 3.6381e+07 3.61179e+07 3.85886e+07 3.79534e+07 3.86942e+07
          3.71689e+07 3.63835e+07 3.60436e+07 3.6468e+07 3.57895e+07 3.53915e+07 3.50069e+07 3.57454e+07 3.46399e+07 3.42753e+07 3.45894e+07 3.39069e+07
          3.42841e+07 3.5338e+07 3.49357e+07 3.5695e+07 3.53007e+07 3.48148e+07 3.39944e+07 3.42022e+07 3.44772e+07 4.25226e+07 4.24128e+07 4.20347e+07
          4.17661e+07 4.18818e+07 4.16887e+07 4.1739e+07 4.13188e+07 4.12005e+07 4.06059e+07 4.09637e+07 4.13933e+07 4.10334e+07 4.05258e+07 4.08571e+07
          4.04439e+07 4.01207e+07 3.98254e+07 4.00862e+07 3.92032e+07 4.06392e+07 4.02635e+07 3.96132e+07 3.99031e+07 3.83377e+07 3.87375e+07 3.75983e+07
          3.9288e+07 4.00749e+07 3.96819e+07 3.87486e+07 3.83644e+07 3.93854e+07 3.98575e+07 3.9312e+07 3.85242e+07 3.78518e+07 3.72798e+07 3.63137e+07
          3.6882e+07 3.82004e+07 3.78117e+07 3.67753e+07 3.71762e+07 3.64751e+07 3.9591e+07 3.92305e+07 3.87967e+07 3.78769e+07 3.69069e+07 3.8015e+07
          3.7799e+07 3.74659e+07 3.64559e+07 3.6155e+07 3.58036e+07 3.70477e+07 3.63553e+07 3.54711e+07 3.54e+07 3.47314e+07 3.41836e+07 3.79122e+07
          3.71601e+07 3.60588e+07 3.57172e+07 3.64457e+07 3.60191e+07 3.75088e+07 3.70658e+07 3.70705e+07 3.6851e+07 3.6544e+07 3.57004e+07 3.59265e+07
          3.62371e+07 3.51245e+07 3.543e+07 3.42536e+07 3.39928e+07 3.44904e+07 3.37586e+07 3.40154e+07 3.54685e+07 3.4802e+07 3.49034e+07 3.48552e+07
          3.41524e+07 3.41928e+07 3.35986e+07 3.34108e+07 3.65061e+07 3.61477e+07 3.51141e+07 3.51369e+07 3.41415e+07 3.5505e+07 3.49637e+07 3.44061e+07
          3.40742e+07 3.38779e+07 3.32168e+07 3.31636e+07 3.39523e+07 3.39996e+07 3.4106e+07 3.35536e+07 3.32814e+07 3.27062e+07 3.29017e+07 3.31345e+07
          3.29353e+07 3.21967e+07 3.19303e+07 3.25597e+07 3.21384e+07 3.18404e+07 3.15988e+07 3.12522e+07 3.39352e+07 3.3536e+07 3.31383e+07 3.2648e+07
          3.29142e+07 3.23139e+07 3.25888e+07 3.21871e+07 3.37235e+07 3.38576e+07 3.33498e+07 3.29954e+07 3.27359e+07 3.23584e+07 3.20115e+07 3.19414e+07
          3.15553e+07 3.11685e+07 3.17773e+07 3.13902e+07 3.07886e+07 3.00671e+07 3.04151e+07 3.10177e+07 3.16111e+07 3.12337e+07 3.08733e+07 3.06564e+07
          3.02784e+07 3.05517e+07 3.02408e+07 3.35163e+07 3.32451e+07 3.35456e+07 3.29872e+07 3.1796e+07 3.26502e+07 3.20452e+07 3.17186e+07 3.33702e+07
          3.37093e+07 3.31051e+07 3.22621e+07 3.26708e+07 3.17264e+07 3.14595e+07 3.10989e+07 3.07202e+07 3.03967e+07 2.98837e+07 3.00961e+07 3.13813e+07
          3.10333e+07 3.13504e+07 3.10377e+07 3.06505e+07 3.02356e+07 2.97805e+07 2.98902e+07 2.96029e+07 2.99058e+07 2.93236e+07 2.8605e+07 2.89854e+07
          2.82114e+07 2.93958e+07 2.90699e+07 2.96359e+07 2.8609e+07 2.82089e+07 2.86916e+07 2.78104e+07 2.74193e+07 2.70314e+07 2.66444e+07 2.63217e+07
          2.74092e+07 2.77926e+07 2.70542e+07 2.67398e+07 2.67039e+07 2.64944e+07 2.92586e+07 2.95237e+07 2.82989e+07 2.8839e+07 2.8437e+07 2.92981e+07
          2.88817e+07 2.96161e+07 2.8121e+07 2.84891e+07 2.81493e+07 2.76957e+07 2.73387e+07 2.79888e+07 2.72295e+07 2.7001e+07 2.62541e+07 2.68849e+07
          2.6539e+07 2.78564e+07 2.75652e+07 2.75094e+07 2.78286e+07 2.7165e+07 2.68062e+07 2.64307e+07 3.3451e+07 3.25928e+07 3.2867e+07 3.20981e+07
          3.15158e+07 3.31556e+07 3.19479e+07 3.22124e+07 3.17801e+07 3.13229e+07 3.07101e+07 3.12542e+07 3.10402e+07 3.08628e+07 3.02807e+07 2.98862e+07
          3.1113e+07 3.09635e+07 3.0389e+07 3.03905e+07 2.98241e+07 2.93582e+07 3.24592e+07 3.13544e+07 3.11898e+07 3.09292e+07 3.15685e+07 3.09783e+07
          3.06854e+07 3.04987e+07 3.04125e+07 3.01922e+07 3.05686e+07 2.99725e+07 2.96979e+07 2.92424e+07 2.93647e+07 2.89387e+07 2.98267e+07 2.93612e+07
          2.88727e+07 2.83263e+07 2.85241e+07 2.95702e+07 2.87924e+07 2.92162e+07 2.84755e+07 2.81473e+07 2.92696e+07 2.89235e+07 2.85957e+07 2.8472e+07
          2.86249e+07 2.84639e+07 2.8141e+07 2.838e+07 2.79869e+07 2.71577e+07 2.7819e+07 2.75035e+07 2.67914e+07 2.64118e+07 2.62331e+07 2.58967e+07
          2.77158e+07 2.73652e+07 2.70246e+07 2.67609e+07 2.66571e+07 2.64204e+07 2.58238e+07 2.60375e+07 2.88133e+07 2.89646e+07 2.83925e+07 2.84476e+07
          2.86323e+07 2.81507e+07 2.82534e+07 2.80303e+07 2.7476e+07 2.76573e+07 2.72769e+07 2.83011e+07 2.79265e+07 2.80689e+07 2.75783e+07 2.78935e+07
          2.75792e+07 2.73153e+07 2.72284e+07 2.68942e+07 2.70801e+07 2.67429e+07 2.65177e+07 2.62031e+07 2.58578e+07 2.55337e+07 2.68396e+07 2.63748e+07
          2.60028e+07 2.63925e+07 2.56616e+07 2.53764e+07 2.65603e+07 2.61709e+07 2.58277e+07 2.5587e+07 2.49487e+07 2.52584e+07 2.50768e+07 2.62998e+07
          2.59639e+07 2.53804e+07 2.55611e+07 2.53018e+07 2.49699e+07 2.46647e+07 2.43443e+07 2.39947e+07 2.4796e+07 2.44882e+07 2.34689e+07 2.31647e+07
          2.37148e+07 2.3005e+07 2.41259e+07 2.45772e+07 2.41903e+07 2.35725e+07 2.38258e+07 2.33067e+07 2.35231e+07 2.32084e+07 2.6359e+07 2.5662e+07
          2.60514e+07 2.63338e+07 2.58086e+07 2.60335e+07 2.53303e+07 2.49613e+07 2.56372e+07 2.62427e+07 2.59258e+07 2.53082e+07 2.49466e+07 2.45855e+07
          2.42073e+07 2.38441e+07 2.38451e+07 2.34931e+07 2.31519e+07 2.45874e+07 2.42158e+07 2.3841e+07 2.31127e+07 2.34727e+07 2.2897e+07 2.26657e+07
          2.24012e+07 2.27633e+07 2.24943e+07 2.21775e+07 2.21077e+07 2.18022e+07 2.14927e+07 2.1862e+07 2.15523e+07 2.12745e+07 2.2522e+07 2.2879e+07
          2.21795e+07 2.12665e+07 2.18465e+07 2.15276e+07 2.12238e+07 2.09903e+07 2.07557e+07 2.05117e+07 2.10124e+07 2.07398e+07 2.04254e+07 2.02175e+07
          1.98898e+07 2.01107e+07 1.95896e+07 2.10347e+07 2.07606e+07 2.11324e+07 2.04185e+07 1.98732e+07 2.00857e+07 1.96045e+07 2.28112e+07 2.24569e+07
          2.21023e+07 2.17444e+07 2.13892e+07 2.16034e+07 2.12253e+07 2.27528e+07 2.23797e+07 2.23115e+07 2.19932e+07 2.18718e+07 2.14345e+07 2.08395e+07
          2.04729e+07 2.08744e+07 2.05562e+07 2.01248e+07 1.98505e+07 1.96396e+07 2.07512e+07 2.02592e+07 2.10568e+07 1.99574e+07 1.96699e+07 2.61114e+07
          2.58045e+07 2.64415e+07 2.55199e+07 2.52309e+07 2.49254e+07 2.51702e+07 2.54072e+07 2.49419e+07 2.46814e+07 2.62929e+07 2.59782e+07 2.56754e+07
          2.55254e+07 2.58529e+07 2.52622e+07 2.50537e+07 2.48402e+07 2.50537e+07 2.4602e+07 2.42411e+07 2.38491e+07 2.34635e+07 2.30914e+07 2.43686e+07
          2.45723e+07 2.38178e+07 2.41228e+07 2.34556e+07 2.30917e+07 2.31197e+07 2.61967e+07 2.61654e+07 2.57979e+07 2.54683e+07 2.53015e+07 2.48049e+07
          2.50505e+07 2.46419e+07 2.54533e+07 2.61617e+07 2.57797e+07 2.52369e+07 2.5024e+07 2.48537e+07 2.4645e+07 2.52402e+07 2.47594e+07 2.43039e+07
          2.40539e+07 2.37768e+07 2.436e+07 2.34608e+07 2.3482e+07 2.28164e+07 2.31639e+07 2.40667e+07 2.37775e+07 2.4382e+07 2.40845e+07 2.37855e+07
          2.32209e+07 2.28983e+07 2.35104e+07 2.27114e+07 2.27103e+07 2.23084e+07 2.18729e+07 2.12146e+07 2.2752e+07 2.23663e+07 2.19706e+07 2.1505e+07
          2.16255e+07 2.13321e+07 2.08457e+07 2.05235e+07 2.02582e+07 1.99698e+07 1.93853e+07 1.96693e+07 2.06223e+07 2.10098e+07 1.99249e+07 1.93834e+07
          1.95801e+07 2.24457e+07 2.2059e+07 2.16856e+07 2.13195e+07 2.25434e+07 2.21644e+07 2.18707e+07 2.17784e+07 2.13821e+07 2.09838e+07 2.14678e+07
          2.10655e+07 2.09432e+07 2.0527e+07 2.00896e+07 1.93089e+07 1.97014e+07 1.9369e+07 2.05744e+07 2.01645e+07 2.06605e+07 1.97639e+07 1.93903e+07
          1.92729e+07 1.88994e+07 1.90261e+07 1.85379e+07 1.82065e+07 1.79291e+07 1.80037e+07 1.93012e+07 1.86738e+07 1.91143e+07 1.87438e+07 1.83109e+07
          1.83664e+07 1.8043e+07 1.77581e+07 1.77053e+07 1.74794e+07 1.72455e+07 1.69775e+07 1.77376e+07 1.74874e+07 1.72418e+07 1.6984e+07 1.66772e+07
          1.63827e+07 1.6099e+07 1.67165e+07 1.64404e+07 1.61662e+07 1.74951e+07 1.72421e+07 1.6986e+07 1.6176e+07 1.67265e+07 1.64527e+07 1.93903e+07
          1.91285e+07 1.8753e+07 1.77593e+07 1.80462e+07 1.83713e+07 1.77333e+07 1.93457e+07 1.90576e+07 1.86829e+07 1.83138e+07 1.80009e+07 1.76807e+07
          1.79018e+07 1.74953e+07 1.72377e+07 1.69778e+07 1.74892e+07 1.72403e+07 1.69793e+07 1.67109e+07 1.64226e+07 1.61093e+07 1.67015e+07 1.63959e+07
          1.60558e+07 1.74886e+07 1.72669e+07 1.75582e+07 1.70072e+07 1.67168e+07 1.63944e+07 1.60332e+07 1.58446e+07 1.56139e+07 1.5368e+07 1.59061e+07
          1.56471e+07 1.50927e+07 1.4747e+07 1.59282e+07 1.53611e+07 1.57017e+07 1.58417e+07 1.5431e+07 1.50034e+07 1.45862e+07 1.43463e+07 1.39278e+07
          1.37708e+07 1.3523e+07 1.32468e+07 1.30528e+07 1.41512e+07 1.39996e+07 1.36346e+07 1.34888e+07 1.32127e+07 1.27628e+07 1.29703e+07 1.55922e+07
          1.57203e+07 1.52665e+07 1.50707e+07 1.44077e+07 1.47253e+07 1.54523e+07 1.56896e+07 1.51965e+07 1.49571e+07 1.44632e+07 1.4643e+07 1.42312e+07
          1.38932e+07 1.35717e+07 1.33732e+07 1.2712e+07 1.31329e+07 1.28428e+07 1.41944e+07 1.38532e+07 1.34912e+07 1.33386e+07 1.26435e+07 1.30446e+07
          1.28098e+07 1.85219e+07 1.91315e+07 1.88382e+07 1.8196e+07 1.77243e+07 1.81253e+07 1.84053e+07 1.78648e+07 1.89408e+07 1.86776e+07 1.91687e+07
          1.8562e+07 1.88079e+07 1.81065e+07 1.83315e+07 1.78869e+07 1.76781e+07 1.80777e+07 1.8251e+07 1.7858e+07 1.75865e+07 1.73468e+07 1.70794e+07
          1.74906e+07 1.71973e+07 1.67728e+07 1.64374e+07 1.60658e+07 1.68573e+07 1.72556e+07 1.69045e+07 1.65133e+07 1.6159e+07 1.90627e+07 1.84285e+07
          1.9069e+07 1.86359e+07 1.84168e+07 1.81098e+07 1.78612e+07 1.75584e+07 1.82486e+07 1.78235e+07 1.87917e+07 1.91014e+07 1.85379e+07 1.88766e+07
          1.90147e+07 1.86403e+07 1.80793e+07 1.8215e+07 1.80073e+07 1.82852e+07 1.77447e+07 1.72344e+07 1.68982e+07 1.65631e+07 1.62199e+07 1.65755e+07
          1.58838e+07 1.75088e+07 1.71837e+07 1.68545e+07 1.74328e+07 1.65673e+07 1.62591e+07 1.59425e+07 1.63177e+07 1.54751e+07 1.56962e+07 1.51858e+07