<?xml version="1.0"?>
<VTKFile type="UnstructuredGrid" version="0.1" byte_order="LittleEndian">
  <UnstructuredGrid>
    <Piece NumberOfCells="10" NumberOfPoints="18">
      <PointData Scalars="S_liq" Vectors="velocity_liq (m/s)">
        <DataArray type="Float32" Name="S_liq" NumberOfComponents="1" format="ascii">
          0.314489 0.314489 0.301886 0.301886 0.314489 0.301886 0.277423 0.277423 0.277423 0.260011 0.260011 0.260011
          0.180557 0.180557 0.180557 0.00940728 0.00940728 0.00940728
        </DataArray>
        <DataArray type="Float32" Name="p_liq" NumberOfComponents="1" format="ascii">
          92016.6 92016.6 91872.2 91872.2 92016.6 91872.2 91444.8 91444.8 91444.8 90741.8 90741.8 90741.8
          82725.3 82725.3 82725.3 65357.7 65357.7 65357.7
        </DataArray>
        <DataArray type="Float32" Name="rho_liq" NumberOfComponents="1" format="ascii">
          1012.49 1012.49 1012.8 1012.8 1012.49 1012.8 1016.43 1016.43 1016.43 1026.47 1026.47 1026.47
          1081.96 1081.96 1081.96 1414.94 1414.94 1414.94
        </DataArray>
        <DataArray type="Float32" Name="mob_liq" NumberOfComponents="1" format="ascii">
          1.25808 1.25808 0.705028 0.705028 1.25808 0.705028 0.128274 0.128274 0.128274 0.00862469 0.00862469 0.00862469
          0 0 0 0 0 0
        </DataArray>
        <DataArray type="Float32" Name="S_gas" NumberOfComponents="1" format="ascii">
          0.685511 0.685511 0.698114 0.698114 0.685511 0.698114 0.722577 0.722577 0.722577 0.739989 0.739989 0.739989
          0.819443 0.819443 0.819443 0.990593 0.990593 0.990593
        </DataArray>
        <DataArray type="Float32" Name="p_gas" NumberOfComponents="1" format="ascii">
          100003 100003 100003 100003 100003 100003 100003 100003 100003 100003 100003 100003
          100003 100003 100003 100001 100001 100001
        </DataArray>
        <DataArray type="Float32" Name="rho_gas" NumberOfComponents="1" format="ascii">
          1.19396 1.19396 1.19396 1.19396 1.19396 1.19396 1.19396 1.19396 1.19396 1.19399 1.19399 1.19399
          1.19421 1.19421 1.19421 1.19577 1.19577 1.19577
        </DataArray>
        <DataArray type="Float32" Name="mob_gas" NumberOfComponents="1" format="ascii">
          46090.3 46090.3 48460.4 48460.4 46090.3 48460.4 53042.3 53042.3 53042.3 55160.6 55160.6 55160.6
          55543.3 55543.3 55543.3 55543.2 55543.2 55543.2
        </DataArray>
        <DataArray type="Float32" Name="pc" NumberOfComponents="1" format="ascii">
          7986.63 7986.63 8130.94 8130.94 7986.63 8130.94 8558.25 8558.25 8558.25 9261.19 9261.19 9261.19
          17277.5 17277.5 17277.5 34643.1 34643.1 34643.1
        </DataArray>
        <DataArray type="Float32" Name="porosity" NumberOfComponents="1" format="ascii">
          0.4 0.4 0.4 0.4 0.4 0.4 0.4 0.4 0.4 0.4 0.4 0.4
          0.4 0.4 0.4 0.389698 0.389698 0.389698
        </DataArray>
        <DataArray type="Float32" Name="x^H2O_liq" NumberOfComponents="1" format="ascii">
          0.993699 0.993699 0.993555 0.993555 0.993699 0.993555 0.991876 0.991876 0.991876 0.987218 0.987218 0.987218
          0.961022 0.961022 0.961022 0.774709 0.774709 0.774709
        </DataArray>
        <DataArray type="Float32" Name="x^Air_liq" NumberOfComponents="1" format="ascii">
          1.57535e-05 1.57535e-05 1.57532e-05 1.57532e-05 1.57535e-05 1.57532e-05 1.57528e-05 1.57528e-05 1.57528e-05 1.57539e-05 1.57539e-05 1.57539e-05
          1.57614e-05 1.57614e-05 1.57614e-05 1.58171e-05 1.58171e-05 1.58171e-05
        </DataArray>
        <DataArray type="Float32" Name="x^NaCl_liq" NumberOfComponents="1" format="ascii">
          0.00628512 0.00628512 0.00642911 0.00642911 0.00628512 0.00642911 0.00810847 0.00810847 0.00810847 0.0127666 0.0127666 0.0127666
          0.0389625 0.0389625 0.0389625 0.225276 0.225276 0.225276
        </DataArray>
        <DataArray type="Float32" Name="rhoMolar_liq" NumberOfComponents="1" format="ascii">
          55420 55420 55419.4 55419.4 55420 55419.4 55412.1 55412.1 55412.1 55390.5 55390.5 55390.5
          55228.7 55228.7 55228.7 52168.2 52168.2 52168.2
        </DataArray>
        <DataArray type="Float32" Name="x^H2O_gas" NumberOfComponents="1" format="ascii">
          0.0186903 0.0186903 0.0186887 0.0186887 0.0186903 0.0186887 0.0186604 0.0186604 0.0186604 0.018574 0.018574 0.018574
          0.0180823 0.0180823 0.0180823 0.0145777 0.0145777 0.0145777
        </DataArray>
        <DataArray type="Float32" Name="x^Air_gas" NumberOfComponents="1" format="ascii">
          0.98131 0.98131 0.981311 0.981311 0.98131 0.981311 0.98134 0.98134 0.98134 0.981426 0.981426 0.981426
          0.981918 0.981918 0.981918 0.985422 0.985422 0.985422
        </DataArray>
        <DataArray type="Float32" Name="x^NaCl_gas" NumberOfComponents="1" format="ascii">
          -0 -0 -0 -0 -0 -0 -0 -0 -0 -0 -0 -0
          -0 -0 -0 -0 -0 -0
        </DataArray>
        <DataArray type="Float32" Name="rhoMolar_gas" NumberOfComponents="1" format="ascii">
          41.5216 41.5216 41.5215 41.5215 41.5216 41.5215 41.521 41.521 41.521 41.5208 41.5208 41.5208
          41.5206 41.5206 41.5206 41.5193 41.5193 41.5193
        </DataArray>
        <DataArray type="Float32" Name="phase presence" NumberOfComponents="1" format="ascii">
          3 3 3 3 3 3 3 3 3 3 3 3
          3 3 3 3 3 3
        </DataArray>
        <DataArray type="Float32" Name="precipitateVolumeFraction^NaCl" NumberOfComponents="1" format="ascii">
          0 0 0 0 0 0 0 0 0 0 0 0
          0 0 0 0.0103019 0.0103019 0.0103019
        </DataArray>
        <DataArray type="Float32" Name="T" NumberOfComponents="1" format="ascii">
          289.677 289.677 289.678 289.678 289.677 289.678 289.681 289.681 289.681 289.682 289.682 289.682
          289.683 289.683 289.683 289.684 289.684 289.684
        </DataArray>
        <DataArray type="Float32" Name="velocity_liq (m/s)" NumberOfComponents="3" format="ascii">
          -8.95234e-22 1.17223e-09 0 -5.95907e-22 1.17223e-09 0 -2.16783e-21 2.24411e-09 0 -8.8001e-22 2.24411e-09 0
          -2.96581e-22 1.17223e-09 0 4.07816e-22 2.24411e-09 0 -2.98942e-21 3.87315e-09 0 -8.47406e-22 3.87315e-09 0
          1.29461e-21 3.87315e-09 0 -5.08883e-21 4.30794e-09 0 -9.61889e-22 4.30794e-09 0 3.16505e-21 4.30794e-09 0
          0 2.09278e-09 0 0 2.09278e-09 0 0 2.09278e-09 0 0 0 0
          0 0 0 0 0 0
        </DataArray>
        <DataArray type="Float32" Name="velocity_gas (m/s)" NumberOfComponents="3" format="ascii">
          -5.36561e-19 -8.02882e-10 0 -2.91755e-18 -8.02882e-10 0 5.6768e-18 7.55942e-10 0 4.74242e-18 7.55942e-10 0
          -5.29854e-18 -8.02882e-10 0 3.80804e-18 7.55942e-10 0 5.71181e-18 3.33307e-08 0 3.72426e-18 3.33307e-08 0
          1.7367e-18 3.33307e-08 0 2.33668e-18 3.14376e-07 0 3.84173e-18 3.14376e-07 0 5.34678e-18 3.14376e-07 0
          -2.84617e-18 4.04753e-06 0 -1.06171e-18 4.04753e-06 0 7.22756e-19 4.04753e-06 0 -3.2016e-18 7.53065e-06 0
          -4.15119e-19 7.53065e-06 0 2.37136e-18 7.53065e-06 0
        </DataArray>
        <DataArray type="Float32" Name="Permeability" NumberOfComponents="1" format="ascii">
          1e-13 1e-13 1e-13 1e-13 1e-13 1e-13 1e-13 1e-13 1e-13 1e-13 1e-13 1e-13
          9.72442e-14 9.72442e-14 9.72442e-14 9.19334e-14 9.19334e-14 9.19334e-14
        </DataArray>
      </PointData>
      <CellData Scalars="process rank">
        <DataArray type="Float32" Name="process rank" NumberOfComponents="1" format="ascii">
          0 0 0 0 0 0 0 0 0 0
        </DataArray>
      </CellData>
      <Points>
        <DataArray type="Float32" Name="Coordinates" NumberOfComponents="3" format="ascii">
          0 0 0 0.01 0 0 0 0.0075 0 0.01 0.0075 0
          0.02 0 0 0.02 0.0075 0 0 0.015 0 0.01 0.015 0
          0.02 0.015 0 0 0.016978 0 0.01 0.016978 0 0.02 0.016978 0
          0 0.0186264 0 0.01 0.0186264 0 0.02 0.0186264 0 0 0.02 0
          0.01 0.02 0 0.02 0.02 0
        </DataArray>
      </Points>
      <Cells>
        <DataArray type="Int32" Name="connectivity" NumberOfComponents="1" format="ascii">
          0 1 3 2 1 4 5 3 2 3 7 6
          3 5 8 7 6 7 10 9 7 8 11 10
          9 10 13 12 10 11 14 13 12 13 16 15
          13 14 17 16
        </DataArray>
        <DataArray type="Int32" Name="offsets" NumberOfComponents="1" format="ascii">
          4 8 12 16 20 24 28 32 36 40
        </DataArray>
        <DataArray type="UInt8" Name="types" NumberOfComponents="1" format="ascii">
          9 9 9 9 9 9 9 9 9 9
        </DataArray>
      </Cells>
    </Piece>
  </UnstructuredGrid>
</VTKFile>
