<?xml version="1.0"?>
<VTKFile type="UnstructuredGrid" version="0.1" byte_order="LittleEndian">
  <UnstructuredGrid>
    <Piece NumberOfCells="2204" NumberOfPoints="2924">
      <CellData Scalars="wetting pressure">
        <DataArray type="Float32" Name="wetting pressure" NumberOfComponents="1" format="ascii">
          265451 270471 271873 270782 267706 262829 256105 247275 235799 220576 265455 270485
          271898 270822 267766 262917 256223 247404 235900 220614 265462 270507 271939 270886
          267857 263062 256437 247661 236106 220691 265469 270529 271980 270947 267911 263175
          256672 248027 236415 220805 265473 270543 272007 270999 236759 220924 265474 270543
          272007 271000 236766 220924 265469 270529 271980 270948 267910 263177 256678 248030
          236418 220806 265462 270507 271939 270886 267857 263063 256439 247662 236108 220692
          265455 270485 271898 270822 267766 262918 256224 247405 235900 220614 265451 270472
          271873 270782 267707 262829 256105 247276 235799 220576 261898 264270 264533 262920
          259641 254780 248285 239986 229637 217038 261903 264286 264564 262972 259721 254899
          248444 240156 229768 217087 261911 264313 264615 263058 259853 255115 248761 240522
          230058 217192 261920 264340 264668 263155 241146 230573 217371 261925 264356 264698
          263190 217626 261925 264356 264698 263190 217621 261920 264340 264668 263155 241152
          230575 217371 261911 264313 264615 263058 259853 255115 248761 240524 230059 217192
          261903 264286 264564 262972 259721 254900 248445 240157 229769 217087 261898 264270
          264533 262920 259641 254780 248286 239987 229638 217038 260141 260160 259038 256674
          253079 248247 242112 234578 225595 215306 260148 260182 259079 256745 253194 248421
          242341 234814 225773 215371 260158 260217 259149 256869 253396 248760 242835 235351
          226188 215517 260170 260254 259223 257006 227014 215781 260176 260276 259267 257078
          216164 260176 260276 259267 257078 216162 260170 260254 259223 257006 227005 215779
          260158 260217 259150 256869 253396 248760 242836 235351 226186 215516 260148 260182
          259079 256745 253194 248421 242341 234814 225773 215371 260141 260160 259038 256674
          253079 248247 242113 234578 225595 215306 259019 257172 254742 251587 247641 242843
          237113 230383 222683 214212 259027 257200 254798 251685 247801 243085 237420 230685
          222902 214290 259041 257248 254894 251859 248101 243587 238116 231385 223414 214466
          259056 257297 254996 252054 224421 214777 259065 257328 255060 252176 215194 259065
          257328 255060 252176 215194 259056 257297 254996 252054 224415 214775 259041 257248
          254894 251859 248101 243587 238116 231385 223413 214466 259027 257200 254799 251686
          247802 243085 237420 230685 222902 214290 259019 257172 254743 251588 247642 242844
          237113 230383 222683 214212 258149 254739 251117 247195 242896 238133 232806 226856
          220324 213368 258160 254776 251190 247322 243104 238439 233180 227209 220570 213455
          258178 254837 251314 247549 243502 239086 234029 228012 221125 213643 258197 254901
          251447 247806 222142 213952 258209 254941 251532 247974 214316 258209 254941 251532
          247974 214320 258197 254901 251447 247805 222137 213952 258178 254837 251314 247549
          243502 239086 234030 228013 221124 213643 258160 254776 251190 247322 243104 238439
          233181 227209 220570 213455 258149 254739 251117 247195 242896 238133 232807 226856
          220324 213369 257351 252483 247721 243052 238408 233680 228752 223559 218142 212598
          257365 252529 247812 243212 238665 234046 229181 223950 218406 212690 257388 252606
          247968 243494 239154 234811 230133 224809 218972 212879 257412 252686 248133 243808
          219912 213165 257427 252737 248240 244016 213451 257427 252737 248240 244016 213452
          257412 252686 248133 243808 219908 213165 257388 252606 247968 243494 239154 234811
          230135 224809 218972 212879 257365 252529 247812 243212 238665 234047 229182 223951
          218406 212690 257351 252483 247721 243052 238409 233681 228753 223561 218143 212599
          256489 250075 244140 238727 233750 229065 224532 220099 215822 211769 256507 250132
          244254 238925 234066 229503 225028 220537 216111 211867 256535 250228 244447 239274
          234660 230395 226085 221459 216704 212064 256565 250327 244651 239653 217609 212340
          256583 250390 244783 239906 212587 256583 250390 244783 239906 212586 256565 250327
          244651 239653 217606 212340 256535 250228 244448 239274 234661 230396 226087 221460
          216706 212065 256507 250132 244254 238925 234066 229504 225030 220539 216114 211868
          256489 250075 244140 238727 233750 229066 224534 220101 215825 211769 255380 247130
          239926 233767 228485 223860 219718 216045 212993 210701 255402 247201 240069 234020
          228892 224420 220334 216575 213333 210815 255437 247319 240311 234463 229653 225529
          221599 217668 214011 211038 255472 247441 240565 234938 219340 214970 211334 255495
          247518 240731 235259 215945 211592 255495 247518 240731 235260 215954 211593 255472
          247441 240565 234938 219348 214977 211336 255437 247319 240311 234464 229654 225530
          221602 217676 214019 211040 255402 247201 240069 234020 228892 224421 220338 216582
          213339 210817 255380 247130 239926 233766 228484 223861 219721 216050 212998 210702
          253639 243070 234525 227677 222156 217616 213821 210840 209066 209005 253664 243155
          234702 228004 222713 218401 214668 211538 209493 209145 253705 243297 235003 228585
          223792 219981 216438 213023 210358 209418 253748 243444 235321 229211 215012 211582
          209775 253774 243536 235527 229673 212589 210060 253774 243536 235528 229673 212591
          210061 253748 243444 235322 229211 215028 211604 209779 253705 243297 235004 228586
          223792 219981 216440 213045 210376 209423 253664 243155 234702 228004 222710 218400
          214673 211551 209504 209149 253639 243070 234525 227676 222154 217616 213826 210849
          209074 209008 250096 236902 227252 219935 214289 209843 206266 203732 203001 205496
          250123 236997 227455 220331 215033 211011 207478 204629 203519 205660 250169 237156
          227804 221037 204622 205987 250216 237320 228176 221871 206407 250244 237417 228374
          206783 250245 237418 228377 206784 250216 237321 228178 221871 206405 250169 237156
          227806 221044 204665 205996 250123 236997 227455 220329 215020 211001 207483 204657
          203539 205666 250096 236902 227252 219933 214285 209841 206271 203745 203012 205500
          271017 269112 269097 271037 266640 264661 264628 266630 266711 263944 263888 266678
          262280 259562 259474 262229 271037 269098 269112 271017 266630 264628 264661 266638
          266678 263888 263945 266711 262229 259474 259562 262279 262694 260684 260635 262676
          259153 257132 257120 259152 258328 255657 255630 258284 254849 252316 252422 254909
          262677 260635 260684 262694 259153 257120 257132 259152 258284 255630 255657 258329
          254909 252422 252316 254849 256030 254014 254068 256053 253241 251279 251382 253289
          251851 249496 249717 252024 249261 247072 247328 249484 256053 254068 254014 256029
          253290 251382 251279 253240 252024 249717 249497 251851 249484 247328 247073 249261
          250737 248814 248957 250805 248421 246549 246706 248504 246928 244865 245124 247165
          244745 242778 243034 244985 250805 248957 248814 250735 248505 246706 246548 248420
          247165 245124 244865 246928 244985 243034 242779 244745 246255 244398 244565 246347
          244148 242306 242480 244250 242649 240759 241010 242890 240595 238768 239018 240836
          246348 244566 244398 246252 244251 242480 242306 244147 242890 241010 240759 242649
          240836 239018 238768 240594 242088 240232 240412 242195 239990 238132 238318 240106
          238545 236775 237024 238788 236467 234751 235002 236713 242196 240413 240232 242085
          240107 238319 238132 239989 238788 237025 236775 238545 236713 235002 234751 236467
          237853 235976 236170 237975 235599 233726 233930 235732 234333 232670 232924 234583
          232114 230508 230768 232372 237976 236170 235975 237850 235733 233930 233726 235599
          234583 232924 232671 234333 232372 230769 230509 232114 233225 231359 231578 233369
          230669 228850 229090 230835 229789 228247 228517 230060 227344 225876 226162 227634
          233370 231579 231360 233223 230835 229094 228853 230672 230061 228518 228248 229790
          227637 226163 225878 227346 227915 226186 226458 228102 224936 223371 223686 225158
          224778 223399 223711 225099 222112 220838 221189 222476 228102 226459 226189 227916
          225157 223691 223378 224943 225100 223711 223401 224782 222478 221190 220839 222117
          221663 220437 220813 221910 218199 217398 217799 218505 219398 218233 218646 219821
          216594 215534 215975 217033 221912 220815 220442 221665 218506 217800 217401 218200
          219822 218646 218227 219399 217027 215966 215515 216585 217264 215730 215354 216872
          214620 213064 212639 214180 216880 215367 215735 217268 214199 212653 213076 214632
          226879 225126 224895 226626 224607 222959 222712 224339 221941 220406 220672 222232
          219444 217960 218257 219774 217735 216445 217456 218653 214620 213478 214661 215742
          218647 217446 216424 217716 215728 214640 213460 214605 260731 257036 257113 260709
          256453 252844 252856 256378 260709 257114 257037 260733 256379 252857 252844 256453
          252635 249255 249276 252640 249460 246230 246357 249585 252640 249276 249256 252635
          249585 246358 246231 249461 246851 243828 244008 247056 244587 241746 241950 244824
          247057 244009 243829 246852 244824 241950 241747 244587 242512 239833 240042 242755
          240540 238004 238214 240781 242755 240042 239834 242512 240781 238214 238004 240540
          238625 236230 236431 238862 236729 234463 234655 236962 238861 236430 236230 238625
          236962 234654 234463 236729 234825 232675 232861 235056 232885 230844 231030 233116
          235056 232861 232675 234825 233116 231031 230845 232885 230886 228950 229145 231121
          228804 226965 227181 229047 231121 229145 228950 230887 229047 227182 226966 228805
          226625 224893 225126 226879 224338 222709 222957 224606 222234 220676 220413 221943
          219775 218259 217967 219447 220585 219078 219837 221236 216763 215603 216632 217749
          221231 219839 219074 220581 217751 216632 215600 216760 229385 227790 227062 228813
          226907 225391 224625 226296 227152 225273 225795 227605 224043 222315 222900 224572
          223612 222032 222866 224284 220809 219342 220228 221509 258423 255699 255749 258435
          254869 252227 252337 254920 258438 255751 255699 258423 254921 252338 252228 254868
          251719 249181 249344 251789 248941 246527 246784 249076 251789 249347 249185 251719
          249076 246785 246527 248937 246434 244130 244510 246670 244140 241939 242398 244449
          246670 244511 244135 246435 244448 242398 241938 244135 241954 239833 240365 242333
          239847 237797 238367 240266 242333 240366 239838 241956 240265 238368 237795 239843
          237747 235757 236368 238205 235636 233704 234337 236117 238205 236369 235761 237749
          236116 234338 233702 235632 233457 231580 232247 233969 231199 229381 230071 231734
          233970 232248 231584 233460 231733 230072 229380 231195 228810 227057 227789 229384
          226299 224624 225390 226906 224288 222868 222038 223620 221518 220229 219339 220825
          256006 254048 253987 255942 253186 251255 251144 253088 250524 248571 248720 250653
          248146 246211 246407 248310 250652 248719 248572 250518 248309 246406 246207 248139
          245925 243978 244223 246121 243775 241832 242110 243997 246120 244223 243980 245918
          243998 242109 241828 243767 241673 239705 240018 241922 239541 237568 237903 239810
          241920 240018 239707 241666 239811 237903 237564 239534 237364 235365 235730 237658
          235069 233073 233462 235387 237657 235730 235367 237358 235388 233461 233070 235063
          232637 230640 231065 232989 230011 228059 228516 230404 232988 231066 230644 232632
          230404 228517 228058 230009 227603 225798 225281 227151 224571 222905 222317 224046
          225617 223300 223500 225783 221560 219370 219546 221700 225784 223504 223298 225618
          221700 219547 219370 221562 262715 260770 260769 262727 259120 257176 257200 259154
          262729 260769 260770 262715 259154 257200 257174 259114 255948 253988 254048 256006
          253095 251146 251255 253186 215007 213294 214636 216157 212093 210566 211769 213328
          216146 214597 213296 214998 213310 211766 210573 212080 213817 211799 212459 214123
          210933 209142 209568 211375 214107 212412 211804 213790 211367 209572 209156 210933
          245350 240690 241011 245465 242643 238425 238618 242708 245466 241013 240700 245353
          242709 238621 238434 242642 240425 236738 236724 240563 238490 234960 235073 238693
          240564 236725 236743 240428 238693 235073 234963 238490 236772 233475 233579 236970
          235125 232029 232148 235320 236970 233577 233476 236773 235318 232140 232028 235124
          233537 230654 230770 233708 231950 228860 229274 232080 233701 230732 230645 233535
          232073 229235 228822 231948 230277 227214 227758 230420 228566 225611 226197 228722
          230419 227755 227207 230276 228722 226197 225610 228566 215467 213876 215197 216647
          212289 211030 212187 213414 216645 215186 213863 215463 213400 212167 210999 212273
          246308 242999 243521 246717 243803 240674 241395 244322 246720 243524 243007 246310
          244322 241397 240678 243800 241538 238588 239570 242157 239461 236656 237701 240157
          242158 239573 238593 241539 240157 237702 236659 239458 237463 234789 235930 238233
          235521 232963 234160 236334 238234 235931 234792 237465 236335 234162 232966 235518
          226810 223998 224626 226981 224980 222310 223003 225172 226982 224626 223999 226810
          225172 223002 222312 224982 223064 220530 221332 223276 221020 218582 219487 221252
          223277 221328 220540 223071 221254 219483 218603 221022 218825 216540 217516 219101
          216436 214215 214883 216732 233573 231129 232395 234433 231600 229256 230559 232493
          234434 232396 231129 233575 232494 230560 229258 231598 229560 227308 228593 230493
          227435 225252 226397 228400 230495 228583 227306 229563 228400 226396 225256 227434
          225196 223113 224277 226195 222843 220839 222046 223875 226196 224276 223124 225200
          223875 222051 220858 222844 220345 218457 219743 221438 217746 215965 217432 218869
          219123 217500 216558 218855 216734 214866 214220 216444 221439 219740 218475 220349
          218876 217382 215964 217742 252541 248940 249138 252657 249190 245688 246015 249407
          252660 249138 248944 252541 249409 246018 245703 249190 219125 217208 218174 219894
          215109 213502 214624 215947 219888 218173 217205 219122 215944 214619 213491 215104
          211496 209720 210863 212780 209032 207049 208443 210059 212789 210904 209841 211537
          210082 208501 207482 209074 212225 210419 211936 213611 209693 207305 209335 210858
          213606 211941 210418 212208 210836 209340 207311 209616 210375 208904 208580 209927
          207959 206164 205661 207575 209908 208552 208898 210369 207557 205623 206145 207964
          252728 247601 247780 252899 248685 243729 243987 248888 252900 247781 247605 252730
          248889 243986 243748 248686 231597 225685 226554 232406 230236 224502 225460 231061
          232406 226552 225722 231598 231060 225456 224532 230241 228938 223487 224450 229802
          227628 222432 223333 228566 229799 224445 223516 228938 228545 223331 222459 227629
          227380 222252 221486 226295 226057 221012 220391 224839 235314 229056 229387 235835
          233224 227041 227652 234156 235842 229388 229061 235310 234159 227651 227076 233228
          235127 231222 232226 236071 233343 229607 230686 234393 236072 232227 231247 235131
          234392 230679 229627 233347 226308 221455 222217 227503 224836 220360 220990 226107
          239232 234985 235726 239859 237057 232938 233828 237833 239865 235723 234987 239230
          237835 233825 232960 237060 231635 228107 229201 232742 229947 226580 227615 231071
          232741 229199 228127 231638 231068 227599 226596 229952 223406 219371 219862 224239
          222010 218308 218723 222729 224245 219860 219399 223412 222731 218718 218335 222023
          208728 207282 208500 210154 205227 203609 205108 207231 209164 208055 207279 208166
          206401 204825 203930 205042 210196 208577 207321 208746 207293 205264 203673 205264
          228268 225115 226097 229374 226544 223576 224535 227636 229373 226094 225132 228271
          227634 224527 223595 226550 208096 207245 208018 209115 204884 203870 204779 206320
          224779 222047 222973 225842 222921 220357 221263 223957 220672 217334 217705 221306
          219251 216179 216489 219844 221307 217700 217359 220676 219848 216490 216183 219256
          225841 222975 222066 224781 223958 221259 220360 222920
        </DataArray>
        <DataArray type="Float32" Name="nonwetting pressure" NumberOfComponents="1" format="ascii">
          265451 270471 271873 270782 267706 262829 256105 247275 235799 220576 265455 270485
          271898 270822 267766 262917 256223 247404 235900 220614 265462 270507 271939 270886
          267857 263062 256437 247661 236106 220691 265469 270529 271980 270947 267911 263175
          256672 248027 236415 220805 265473 270543 272007 270999 236759 220924 265474 270543
          272007 271000 236766 220924 265469 270529 271980 270948 267910 263177 256678 248030
          236418 220806 265462 270507 271939 270886 267857 263063 256439 247662 236108 220692
          265455 270485 271898 270822 267766 262918 256224 247405 235900 220614 265451 270472
          271873 270782 267707 262829 256105 247276 235799 220576 261898 264270 264533 262920
          259641 254780 248285 239986 229637 217038 261903 264286 264564 262972 259721 254899
          248444 240156 229768 217087 261911 264313 264615 263058 259853 255115 248761 240522
          230058 217192 261920 264340 264668 263155 241146 230573 217371 261925 264356 264698
          263190 217626 261925 264356 264698 263190 217621 261920 264340 264668 263155 241152
          230575 217371 261911 264313 264615 263058 259853 255115 248761 240524 230059 217192
          261903 264286 264564 262972 259721 254900 248445 240157 229769 217087 261898 264270
          264533 262920 259641 254780 248286 239987 229638 217038 260141 260160 259038 256674
          253079 248247 242112 234578 225595 215306 260148 260182 259079 256745 253194 248421
          242341 234814 225773 215371 260158 260217 259149 256869 253396 248760 242835 235351
          226188 215517 260170 260254 259223 257006 227014 215781 260176 260276 259267 257078
          216164 260176 260276 259267 257078 216162 260170 260254 259223 257006 227005 215779
          260158 260217 259150 256869 253396 248760 242836 235351 226186 215516 260148 260182
          259079 256745 253194 248421 242341 234814 225773 215371 260141 260160 259038 256674
          253079 248247 242113 234578 225595 215306 259019 257172 254742 251587 247641 242843
          237113 230383 222683 214212 259027 257200 254798 251685 247801 243085 237420 230685
          222902 214290 259041 257248 254894 251859 248101 243587 238116 231385 223414 214466
          259056 257297 254996 252054 224421 214777 259065 257328 255060 252176 215194 259065
          257328 255060 252176 215194 259056 257297 254996 252054 224415 214775 259041 257248
          254894 251859 248101 243587 238116 231385 223413 214466 259027 257200 254799 251686
          247802 243085 237420 230685 222902 214290 259019 257172 254743 251588 247642 242844
          237113 230383 222683 214212 258149 254739 251117 247195 242896 238133 232806 226856
          220324 213368 258160 254776 251190 247322 243104 238439 233180 227209 220570 213455
          258178 254837 251314 247549 243502 239086 234029 228012 221125 213643 258197 254901
          251447 247806 222142 213952 258209 254941 251532 247974 214316 258209 254941 251532
          247974 214320 258197 254901 251447 247805 222137 213952 258178 254837 251314 247549
          243502 239086 234030 228013 221124 213643 258160 254776 251190 247322 243104 238439
          233181 227209 220570 213455 258149 254739 251117 247195 242896 238133 232807 226856
          220324 213369 257351 252483 247721 243052 238408 233680 228752 223559 218142 212598
          257365 252529 247812 243212 238665 234046 229181 223950 218406 212690 257388 252606
          247968 243494 239154 234811 230133 224809 218972 212879 257412 252686 248133 243808
          219912 213165 257427 252737 248240 244016 213451 257427 252737 248240 244016 213452
          257412 252686 248133 243808 219908 213165 257388 252606 247968 243494 239154 234811
          230135 224809 218972 212879 257365 252529 247812 243212 238665 234047 229182 223951
          218406 212690 257351 252483 247721 243052 238409 233681 228753 223561 218143 212599
          256489 250075 244140 238727 233750 229065 224532 220099 215822 211769 256507 250132
          244254 238925 234066 229503 225028 220537 216111 211867 256535 250228 244447 239274
          234660 230395 226085 221459 216704 212064 256565 250327 244651 239653 217609 212340
          256583 250390 244783 239906 212587 256583 250390 244783 239906 212586 256565 250327
          244651 239653 217606 212340 256535 250228 244448 239274 234661 230396 226087 221460
          216706 212065 256507 250132 244254 238925 234066 229504 225030 220539 216114 211868
          256489 250075 244140 238727 233750 229066 224534 220101 215825 211769 255380 247130
          239926 233767 228485 223860 219718 216045 212993 210701 255402 247201 240069 234020
          228892 224420 220334 216575 213333 210815 255437 247319 240311 234463 229653 225529
          221599 217668 214011 211038 255472 247441 240565 234938 219340 214970 211334 255495
          247518 240731 235259 215945 211592 255495 247518 240731 235260 215954 211593 255472
          247441 240565 234938 219348 214977 211336 255437 247319 240311 234464 229654 225530
          221602 217676 214019 211040 255402 247201 240069 234020 228892 224421 220338 216582
          213339 210817 255380 247130 239926 233766 228484 223861 219721 216050 212998 210702
          253639 243070 234525 227677 222156 217616 213821 210840 209066 209005 253664 243155
          234702 228004 222713 218401 214668 211538 209493 209145 253705 243297 235003 228585
          223792 219981 216438 213023 210358 209418 253748 243444 235321 229211 215012 211582
          209775 253774 243536 235527 229673 212589 210060 253774 243536 235528 229673 212591
          210061 253748 243444 235322 229211 215028 211604 209779 253705 243297 235004 228586
          223792 219981 216440 213045 210376 209423 253664 243155 234702 228004 222710 218400
          214673 211551 209504 209149 253639 243070 234525 227676 222154 217616 213826 210849
          209074 209008 250096 236902 227252 219935 214289 209843 206266 203732 203001 205496
          250123 236997 227455 220331 215033 211011 207478 204629 203519 205660 250169 237156
          227804 221037 204622 205987 250216 237320 228176 221871 206407 250244 237417 228374
          206783 250245 237418 228377 206784 250216 237321 228178 221871 206405 250169 237156
          227806 221044 204665 205996 250123 236997 227455 220329 215020 211001 207483 204657
          203539 205666 250096 236902 227252 219933 214285 209841 206271 203745 203012 205500
          271017 269112 269292 271037 266640 264676 264971 266630 266718 263944 263985 266924
          262316 259583 259728 262684 271037 269292 269112 271017 266630 264971 264676 266638
          266924 263985 263945 266718 262684 259728 259583 262315 262694 260724 261093 262676
          259153 257210 257670 259152 258421 255735 256051 258912 255028 252490 252964 255656
          262677 261093 260724 262694 259153 257670 257210 259152 258912 256052 255735 258422
          255656 252965 252491 255029 256030 254141 254683 256053 253241 251449 252038 253289
          252120 249763 250317 252836 249589 247392 247949 250327 256053 254683 254141 256029
          253290 252038 251449 253240 252836 250317 249764 252120 250327 247949 247392 249589
          250737 249017 249636 250805 248421 246768 247397 248504 247288 245208 245752 248023
          245121 243131 243663 245852 250805 249636 249016 250735 248505 247397 246768 248420
          248023 245752 245208 247288 245852 243663 243131 245121 246255 244626 245263 246347
          244148 242538 243181 244250 243033 241115 241640 243763 240982 239126 239647 241713
          246348 245263 244626 246252 244251 243181 242538 244147 243763 241640 241115 243033
          241713 239647 239126 240982 242088 240464 241113 242195 239990 238364 239020 240106
          238935 237133 237653 239669 236860 235110 235629 237598 242196 241113 240464 242085
          240107 239020 238364 239989 239669 237653 237134 238935 237598 235630 235110 236860
          237853 236207 236871 237975 235599 233959 234634 235732 234727 233029 233551 235472
          232512 230868 231395 233265 237976 236871 236207 237850 235733 234634 233959 235599
          235472 233551 233030 234728 233265 231395 230869 232512 233225 231596 232288 233369
          230669 229094 229811 230835 230193 228609 229144 230960 227758 226242 226790 228543
          233370 232288 231596 233223 230835 229813 229096 230672 230960 229145 228610 230194
          228544 226791 226243 227759 227915 226445 227199 228102 224936 223664 224474 225158
          225207 223772 224342 226021 222569 221226 221833 223429 228102 227200 226448 227916
          225157 224476 223669 224943 226022 224342 223773 225209 223430 221833 221226 222572
          221663 220844 221750 221910 218578 218606 219555 219196 219963 218701 219381 220893
          217957 216751 217504 218922 221912 221750 220846 221665 219195 219553 218602 218575
          220892 219379 218693 219961 218918 217499 216739 217948 217773 216077 215588 217219
          215867 214064 213466 215214 217228 215602 216082 217777 215223 213470 214067 215872
          227320 225437 225093 226910 225045 223264 222906 224622 222226 220597 220972 222668
          219736 218155 218558 220215 217794 216510 217708 218910 215224 214089 215566 216694
          218902 217697 216490 217774 216681 215552 214076 215209 260731 257036 257131 260750
          256453 252844 252934 256518 260750 257132 257037 260733 256518 252934 252844 256453
          252685 249286 249456 252918 249600 246334 246642 249977 252919 249457 249287 252686
          249978 246642 246335 249601 247074 244000 244348 247505 244857 241957 242309 245292
          247506 244349 244001 247075 245292 242309 241958 244857 242800 240061 240403 243227
          240835 238238 238571 241251 243227 240403 240062 242801 241251 238571 238238 240835
          238920 236462 236782 239328 237023 234691 234999 237424 239328 236781 236461 238921
          237424 234998 234691 237024 235117 232897 233198 235513 233174 231060 231361 233569
          235513 233198 232898 235117 233569 231361 231060 233175 231173 229159 229468 231569
          229089 227168 227498 229491 231569 229469 229159 231174 229492 227499 227169 229090
          226909 225091 225436 227320 224621 222903 223262 225044 222670 220976 220604 222228
          220215 218558 218159 219738 220585 219078 219964 221236 216763 216024 217395 217827
          221231 219965 219074 220581 217824 217387 216015 216760 229515 227944 227062 228813
          227046 225550 224625 226296 227152 225273 225852 227605 224043 222315 222974 224572
          223612 222032 223035 224437 220825 219342 220412 221690 258423 255699 255749 258435
          254869 252227 252337 254920 258438 255751 255699 258423 254921 252338 252228 254868
          251719 249181 249376 251808 248941 246527 246859 249124 251809 249378 249185 251719
          249123 246859 246527 248937 246434 244130 244616 246744 244140 241939 242523 244543
          246744 244617 244135 246435 244542 242523 241938 244135 241954 239833 240501 242438
          239847 237797 238508 240378 242438 240502 239838 241956 240377 238509 237795 239843
          237747 235757 236512 238321 235636 233704 234483 236236 238321 236513 235761 237749
          236235 234484 233702 235632 233457 231580 232395 234090 231199 229381 230221 231858
          234091 232396 231584 233460 231858 230222 229380 231195 228810 227057 227942 229514
          226299 224624 225549 227045 224441 223037 222038 223620 221696 220413 219339 220836
          256006 254048 253987 255942 253186 251255 251144 253088 250524 248571 248732 250653
          248146 246211 246429 248310 250652 248731 248572 250518 248309 246428 246207 248139
          245925 243978 244253 246121 243775 241832 242144 243997 246120 244252 243980 245918
          243998 242144 241828 243767 241673 239705 240055 241922 239541 237568 237941 239810
          241920 240054 239707 241666 239811 237941 237564 239534 237364 235365 235769 237658
          235069 233073 233502 235387 237657 235769 235367 237358 235388 233501 233070 235063
          232637 230640 231108 232989 230011 228059 228564 230404 232988 231108 230644 232632