<?xml version="1.0"?>
<VTKFile type="UnstructuredGrid" version="0.1" byte_order="LittleEndian">
  <UnstructuredGrid>
    <Piece NumberOfCells="80" NumberOfPoints="162">
      <PointData Scalars="pressuere" Vectors="velocity_liq (m/s)">
        <DataArray type="Float32" Name="p" NumberOfComponents="1" format="ascii">
          121579 121315 121579 121315 121051 121051 120787 120787 120522 120522 120258 120258
          119994 119994 119730 119730 119465 119465 119201 119201 118936 118936 118672 118672
          118407 118407 118141 118141 117876 117876 117609 117609 117343 117343 117075 117075
          116808 116808 116539 116539 116270 116270 116001 116001 115731 115731 115461 115461
          115191 115191 114920 114920 114649 114649 114378 114378 114107 114107 113836 113836
          113565 113565 113294 113294 113022 113022 112751 112751 112480 112480 112209 112209
          111937 111937 111666 111666 111395 111395 111123 111123 110852 110852 110581 110581
          110309 110309 110038 110038 109767 109767 109496 109496 109224 109224 108953 108953
          108682 108682 108410 108410 108139 108139 107868 107868 107596 107596 107325 107325
          107054 107054 106783 106783 106511 106511 106240 106240 105969 105969 105697 105697
          105426 105426 105155 105155 104883 104883 104612 104612 104341 104341 104070 104070
          103798 103798 103527 103527 103256 103256 102984 102984 102713 102713 102442 102442
          102170 102170 101899 101899 101628 101628 101357 101357 101085 101085 100814 100814
          100543 100543 100271 100271 100000 100000
        </DataArray>
        <DataArray type="Float32" Name="delp" NumberOfComponents="1" format="ascii">
          21579.3 21315.1 21579.3 21315.1 21050.8 21050.8 20786.6 20786.6 20522.4 20522.4 20258.1 20258.1
          19993.9 19993.9 19729.6 19729.6 19465.3 19465.3 19200.9 19200.9 18936.3 18936.3 18671.6 18671.6
          18406.7 18406.7 18141.4 18141.4 17875.7 17875.7 17609.5 17609.5 17342.7 17342.7 17075.4 17075.4
          16807.5 16807.5 16539.1 16539.1 16270.2 16270.2 16000.8 16000.8 15731 15731 15460.9 15460.9
          15190.5 15190.5 14919.9 14919.9 14649.1 14649.1 14378.2 14378.2 14107.1 14107.1 13836 13836
          13564.8 13564.8 13293.6 13293.6 13022.4 13022.4 12751.1 12751.1 12479.8 12479.8 12208.6 12208.6
          11937.3 11937.3 11666 11666 11394.7 11394.7 11123.4 11123.4 10852.1 10852.1 10580.8 10580.8
          10309.5 10309.5 10038.2 10038.2 9766.88 9766.88 9495.58 9495.58 9224.28 9224.28 8952.98 8952.98
          8681.68 8681.68 8410.38 8410.38 8139.08 8139.08 7867.77 7867.77 7596.47 7596.47 7325.17 7325.17
          7053.87 7053.87 6782.57 6782.57 6511.27 6511.27 6239.96 6239.96 5968.66 5968.66 5697.36 5697.36
          5426.06 5426.06 5154.76 5154.76 4883.45 4883.45 4612.15 4612.15 4340.85 4340.85 4069.55 4069.55
          3798.24 3798.24 3526.94 3526.94 3255.64 3255.64 2984.34 2984.34 2713.03 2713.03 2441.73 2441.73
          2170.43 2170.43 1899.12 1899.12 1627.82 1627.82 1356.52 1356.52 1085.21 1085.21 813.911 813.911
          542.607 542.607 271.304 271.304 0 0
        </DataArray>
        <DataArray type="Float32" Name="velocity_liq (m/s)" NumberOfComponents="3" format="ascii">
          0.0001 5.50706e-18 0 0.0001 -3.44192e-19 0 0.0001 5.50706e-18 0 0.0001 -3.44192e-19 0
          0.0001 3.09773e-18 0 0.0001 3.09773e-18 0 0.0001 -1.06699e-17 0 0.0001 -1.06699e-17 0
          0.0001 2.75349e-18 0 0.0001 2.75349e-18 0 0.0001 -1.37669e-17 0 0.0001 -1.37669e-17 0
          0.0001 -5.50631e-18 0 0.0001 -5.50631e-18 0 0.0001 2.27097e-17 0 0.0001 2.27097e-17 0
          9.99999e-05 1.22114e-17 0 9.99999e-05 1.22114e-17 0 9.99998e-05 -1.44405e-17 0 9.99998e-05 -1.44405e-17 0
          9.99996e-05 -1.11664e-17 0 9.99996e-05 -1.11664e-17 0 9.99993e-05 -8.40984e-18 0 9.99993e-05 -8.40984e-18 0
          9.99989e-05 -1.81709e-17 0 9.99989e-05 -1.81709e-17 0 9.99985e-05 3.42288e-19 0 9.99985e-05 3.42288e-19 0
          9.9998e-05 9.90758e-18 0 9.9998e-05 9.90758e-18 0 9.99975e-05 -2.55706e-18 0 9.99975e-05 -2.55706e-18 0
          9.9997e-05 2.21141e-17 0 9.9997e-05 2.21141e-17 0 9.99965e-05 -6.95972e-18 0 9.99965e-05 -6.95972e-18 0
          9.9996e-05 -1.99898e-17 0 9.9996e-05 -1.99898e-17 0 9.99955e-05 -2.19813e-18 0 9.99955e-05 -2.19813e-18 0
          9.9995e-05 -4.22004e-18 0 9.9995e-05 -4.22004e-18 0 9.99946e-05 4.21383e-18 0 9.99946e-05 4.21383e-18 0
          9.99943e-05 5.05028e-18 0 9.99943e-05 5.05028e-18 0 9.9994e-05 -5.04507e-19 0 9.9994e-05 -5.04507e-19 0
          9.99938e-05 6.72115e-19 0 9.99938e-05 6.72115e-19 0 9.99936e-05 1.07468e-17 0 9.99936e-05 1.07468e-17 0
          9.99934e-05 8.89515e-18 0 9.99934e-05 8.89515e-18 0 9.99933e-05 0 0 9.99933e-05 0 0
          9.99933e-05 6.70883e-18 0 9.99933e-05 6.70883e-18 0 9.99932e-05 7.21049e-18 0 9.99932e-05 7.21049e-18 0
          9.99932e-05 1.94486e-17 0 9.99932e-05 1.94486e-17 0 9.99932e-05 5.02929e-19 0 9.99932e-05 5.02929e-19 0
          9.99932e-05 -1.19018e-17 0 9.99932e-05 -1.19018e-17 0 9.99932e-05 3.52007e-18 0 9.99932e-05 3.52007e-18 0
          9.99932e-05 -6.53706e-18 0 9.99932e-05 -6.53706e-18 0 9.99932e-05 -1.87727e-17 0 9.99932e-05 -1.87727e-17 0
          9.99932e-05 -1.34088e-18 0 9.99932e-05 -1.34088e-18 0 9.99932e-05 -6.70436e-18 0 9.99932e-05 -6.70436e-18 0
          9.99932e-05 -1.84369e-18 0 9.99932e-05 -1.84369e-18 0 9.99932e-05 2.3465e-18 0 9.99932e-05 2.3465e-18 0
          9.99932e-05 1.50846e-17 0 9.99932e-05 1.50846e-17 0 9.99932e-05 1.19001e-17 0 9.99932e-05 1.19001e-17 0
          9.99932e-05 7.20707e-18 0 9.99932e-05 7.20707e-18 0 9.99933e-05 8.21271e-18 0 9.99933e-05 8.21271e-18 0
          9.99933e-05 1.34085e-17 0 9.99933e-05 1.34085e-17 0 9.99933e-05 1.34085e-18 0 9.99933e-05 1.34085e-18 0
          9.99933e-05 -4.86058e-18 0 9.99933e-05 -4.86058e-18 0 9.99933e-05 -1.50845e-17 0 9.99933e-05 -1.50845e-17 0
          9.99933e-05 -1.40789e-17 0 9.99933e-05 -1.40789e-17 0 9.99933e-05 1.08944e-17 0 9.99933e-05 1.08944e-17 0
          9.99933e-05 -2.8493e-18 0 9.99933e-05 -2.8493e-18 0 9.99934e-05 -3.35212e-18 0 9.99934e-05 -3.35212e-18 0
          9.99934e-05 1.34085e-18 0 9.99934e-05 1.34085e-18 0 9.99934e-05 -5.6986e-18 0 9.99934e-05 -5.6986e-18 0
          9.99934e-05 9.38592e-18 0 9.99934e-05 9.38592e-18 0 9.99934e-05 1.47493e-17 0 9.99934e-05 1.47493e-17 0
          9.99934e-05 1.67606e-18 0 9.99934e-05 1.67606e-18 0 9.99934e-05 -3.18451e-18 0 9.99934e-05 -3.18451e-18 0
          9.99934e-05 -1.67606e-19 0 9.99934e-05 -1.67606e-19 0 9.99935e-05 2.8493e-18 0 9.99935e-05 2.8493e-18 0
          9.99935e-05 -8.04507e-18 0 9.99935e-05 -8.04507e-18 0 9.99935e-05 -2.17887e-18 0 9.99935e-05 -2.17887e-18 0
          9.99935e-05 5.19577e-18 0 9.99935e-05 5.19577e-18 0 9.99935e-05 1.67606e-18 0 9.99935e-05 1.67606e-18 0
          9.99935e-05 0 0 9.99935e-05 0 0 9.99935e-05 0 0 9.99935e-05 0 0
          9.99936e-05 -1.00563e-18 0 9.99936e-05 -1.00563e-18 0 9.99936e-05 3.0169e-18 0 9.99936e-05 3.0169e-18 0
          9.99936e-05 2.68169e-18 0 9.99936e-05 2.68169e-18 0 9.99936e-05 -3.1845e-18 0 9.99936e-05 -3.1845e-18 0
          9.99936e-05 -1.67605e-19 0 9.99936e-05 -1.67605e-19 0 9.99936e-05 -1.00563e-18 0 9.99936e-05 -1.00563e-18 0
          9.99936e-05 3.35211e-19 0 9.99936e-05 3.35211e-19 0 9.99936e-05 3.35211e-19 0 9.99936e-05 3.35211e-19 0
          9.99937e-05 -3.3521e-19 0 9.99937e-05 -3.3521e-19 0 9.99937e-05 -1.67605e-19 0 9.99937e-05 -1.67605e-19 0
          9.99937e-05 1.50845e-18 0 9.99937e-05 1.50845e-18 0 9.99937e-05 5.02815e-19 0 9.99937e-05 5.02815e-19 0
          9.99937e-05 -3.3521e-19 0 9.99937e-05 -3.3521e-19 0 9.99937e-05 0 0 9.99937e-05 0 0
          9.99937e-05 0 0 9.99937e-05 0 0
        </DataArray>
        <DataArray type="Float32" Name="x^H2O_liq" NumberOfComponents="1" format="ascii">
          1 1 1 1 1 1 1 1 1 1 1 1
          1 1 1 1 1 1 1 1 1 1 1 1
          1 1 1 1 1 1 1 1 1 1 1 1
          1 1 1 1 1 1 1 1 1 1 1 1
          1 1 1 1 1 1 1 1 1 1 1 1
          1 1 1 1 1 1 1 1 1 1 1 1
          1 1 1 1 1 1 1 1 1 1 1 1
          1 1 1 1 1 1 1 1 1 1 1 1
          1 1 1 1 1 1 1 1 1 1 1 1
          1 1 1 1 1 1 1 1 1 1 1 1
          1 1 1 1 1 1 1 1 1 1 1 1
          1 1 1 1 1 1 1 1 1 1 1 1
          1 1 1 1 1 1 1 1 1 1 1 1
          1 1 1 1 1 1
        </DataArray>
        <DataArray type="Float32" Name="x^N2_liq" NumberOfComponents="1" format="ascii">
          1e-10 1e-10 1e-10 1e-10 1e-10 1e-10 1e-10 1e-10 1e-10 1e-10 1e-10 1e-10
          1e-10 1e-10 1e-10 1e-10 1e-10 1e-10 1e-10 1e-10 1e-10 1e-10 1e-10 1e-10
          1e-10 1e-10 1e-10 1e-10 1e-10 1e-10 1e-10 1e-10 1e-10 1e-10 1e-10 1e-10
          1e-10 1e-10 1e-10 1e-10 1e-10 1e-10 1e-10 1e-10 1e-10 1e-10 1e-10 1e-10
          1e-10 1e-10 1e-10 1e-10 1e-10 1e-10 1e-10 1e-10 1e-10 1e-10 1e-10 1e-10
          1e-10 1e-10 1e-10 1e-10 1e-10 1e-10 1e-10 1e-10 1e-10 1e-10 1e-10 1e-10
          1e-10 1e-10 1e-10 1e-10 1e-10 1e-10 1e-10 1e-10 1e-10 1e-10 1e-10 1e-10
          1e-10 1e-10 1e-10 1e-10 1e-10 1e-10 1e-10 1e-10 1e-10 1e-10 1e-10 1e-10
          1e-10 1e-10 1e-10 1e-10 1e-10 1e-10 1e-10 1e-10 1e-10 1e-10 1e-10 1e-10
          1e-10 1e-10 1e-10 1e-10 1e-10 1e-10 1e-10 1e-10 1e-10 1e-10 1e-10 1e-10
          1e-10 1e-10 1e-10 1e-10 1e-10 1e-10 1e-10 1e-10 1e-10 1e-10 1e-10 1e-10
          1e-10 1e-10 1e-10 1e-10 1e-10 1e-10 1e-10 1e-10 1e-10 1e-10 1e-10 1e-10
          1e-10 1e-10 1e-10 1e-10 1e-10 1e-10 1e-10 1e-10 1e-10 1e-10 1e-10 1e-10
          1e-10 1e-10 1e-10 1e-10 1e-10 1e-10
        </DataArray>
        <DataArray type="Float32" Name="X^H2O_liq" NumberOfComponents="1" format="ascii">
          1 1 1 1 1 1 1 1 1 1 1 1
          1 1 1 1 1 1 1 1 1 1 1 1
          1 1 1 1 1 1 1 1 1 1 1 1
          1 1 1 1 1 1 1 1 1 1 1 1
          1 1 1 1 1 1 1 1 1 1 1 1
          1 1 1 1 1 1 1 1 1 1 1 1
          1 1 1 1 1 1 1 1 1 1 1 1
          1 1 1 1 1 1 1 1 1 1 1 1
          1 1 1 1 1 1 1 1 1 1 1 1
          1 1 1 1 1 1 1 1 1 1 1 1
          1 1 1 1 1 1 1 1 1 1 1 1
          1 1 1 1 1 1 1 1 1 1 1 1
          1 1 1 1 1 1 1 1 1 1 1 1
          1 1 1 1 1 1
        </DataArray>
        <DataArray type="Float32" Name="X^N2_liq" NumberOfComponents="1" format="ascii">
          1.55499e-10 1.55499e-10 1.55499e-10 1.55499e-10 1.55499e-10 1.55499e-10 1.55499e-10 1.55499e-10 1.55499e-10 1.55499e-10 1.55499e-10 1.55499e-10
          1.55499e-10 1.55499e-10 1.55499e-10 1.55499e-10 1.55499e-10 1.55499e-10 1.55499e-10 1.55499e-10 1.55499e-10 1.55499e-10 1.55499e-10 1.55499e-10
          1.55499e-10 1.55499e-10 1.55499e-10 1.55499e-10 1.55499e-10 1.55499e-10 1.55499e-10 1.55499e-10 1.55499e-10 1.55499e-10 1.55499e-10 1.55499e-10
          1.55499e-10 1.55499e-10 1.55499e-10 1.55499e-10 1.55499e-10 1.55499e-10 1.55499e-10 1.55499e-10 1.55499e-10 1.55499e-10 1.55499e-10 1.55499e-10
          1.55499e-10 1.55499e-10 1.55499e-10 1.55499e-10 1.55499e-10 1.55499e-10 1.55499e-10 1.55499e-10 1.55499e-10 1.55499e-10 1.55499e-10 1.55499e-10
          1.55499e-10 1.55499e-10 1.55499e-10 1.55499e-10 1.55499e-10 1.55499e-10 1.55499e-10 1.55499e-10 1.55499e-10 1.55499e-10 1.55499e-10 1.55499e-10
          1.55499e-10 1.55499e-10 1.55499e-10 1.55499e-10 1.55499e-10 1.55499e-10 1.55499e-10 1.55499e-10 1.55499e-10 1.55499e-10 1.55499e-10 1.55499e-10
          1.55499e-10 1.55499e-10 1.55499e-10 1.55499e-10 1.55499e-10 1.55499e-10 1.55499e-10 1.55499e-10 1.55499e-10 1.55499e-10 1.55499e-10 1.55499e-10
          1.55499e-10 1.55499e-10 1.55499e-10 1.55499e-10 1.55499e-10 1.55499e-10 1.55499e-10 1.55499e-10 1.55499e-10 1.55499e-10 1.55499e-10 1.55499e-10
          1.55499e-10 1.55499e-10 1.55499e-10 1.55499e-10 1.55499e-10 1.55499e-10 1.55499e-10 1.55499e-10 1.55499e-10 1.55499e-10 1.55499e-10 1.55499e-10
          1.55499e-10 1.55499e-10 1.55499e-10 1.55499e-10 1.55499e-10 1.55499e-10 1.55499e-10 1.55499e-10 1.55499e-10 1.55499e-10 1.55499e-10 1.55499e-10
          1.55499e-10 1.55499e-10 1.55499e-10 1.55499e-10 1.55499e-10 1.55499e-10 1.55499e-10 1.55499e-10 1.55499e-10 1.55499e-10 1.55499e-10 1.55499e-10
          1.55499e-10 1.55499e-10 1.55499e-10 1.55499e-10 1.55499e-10 1.55499e-10 1.55499e-10 1.55499e-10 1.55499e-10 1.55499e-10 1.55499e-10 1.55499e-10
          1.55499e-10 1.55499e-10 1.55499e-10 1.55499e-10 1.55499e-10 1.55499e-10
        </DataArray>
        <DataArray type="Float32" Name="rho" NumberOfComponents="1" format="ascii">
          998.631 998.631 998.631 998.631 998.631 998.631 998.631 998.631 998.631 998.631 998.631 998.631
          998.632 998.632 998.633 998.633 998.635 998.635 998.639 998.639 998.645 998.645 998.653 998.653
          998.663 998.663 998.673 998.673 998.684 998.684 998.696 998.696 998.708 998.708 998.721 998.721
          998.733 998.733 998.744 998.744 998.754 998.754 998.763 998.763 998.77 998.77 998.776 998.776
          998.781 998.781 998.785 998.785 998.788 998.788 998.79 998.79 998.792 998.792 998.793 998.793
          998.793 998.793 998.794 998.794 998.794 998.794 998.794 998.794 998.794 998.794 998.794 998.794
          998.794 998.794 998.794 998.794 998.794 998.794 998.794 998.794 998.794 998.794 998.794 998.794
          998.794 998.794 998.794 998.794 998.794 998.794 998.794 998.794 998.793 998.793 998.793 998.793
          998.793 998.793 998.793 998.793 998.793 998.793 998.793 998.793 998.793 998.793 998.792 998.792
          998.792 998.792 998.792 998.792 998.792 998.792 998.792 998.792 998.792 998.792 998.792 998.792
          998.792 998.792 998.792 998.792 998.791 998.791 998.791 998.791 998.791 998.791 998.791 998.791
          998.791 998.791 998.791 998.791 998.791 998.791 998.79 998.79 998.79 998.79 998.79 998.79
          998.79 998.79 998.79 998.79 998.79 998.79 998.79 998.79 998.79 998.79 998.789 998.789
          998.789 998.789 998.789 998.789 998.789 998.789
        </DataArray>
        <DataArray type="Float32" Name="mu" NumberOfComponents="1" format="ascii">
          0.00105696 0.00105696 0.00105696 0.00105696 0.00105696 0.00105696 0.00105697 0.00105697 0.00105698 0.00105698 0.00105702 0.00105702
          0.00105711 0.00105711 0.00105729 0.00105729 0.0010576 0.0010576 0.0010581 0.0010581 0.00105884 0.00105884 0.00105984 0.00105984
          0.00106111 0.00106111 0.00106284 0.00106284 0.00106486 0.00106486 0.00106704 0.00106704 0.00106931 0.00106931 0.00107157 0.00107157
          0.00107375 0.00107375 0.00107577 0.00107577 0.00107759 0.00107759 0.00107918 0.00107918 0.00108053 0.00108053 0.00108164 0.00108164
          0.00108255 0.00108255 0.00108326 0.00108326 0.00108381 0.00108381 0.00108423 0.00108423 0.00108454 0.00108454 0.00108476 0.00108476
          0.00108492 0.00108492 0.00108504 0.00108504 0.00108512 0.00108512 0.00108517 0.00108517 0.00108521 0.00108521 0.00108523 0.00108523
          0.00108525 0.00108525 0.00108526 0.00108526 0.00108526 0.00108526 0.00108527 0.00108527 0.00108527 0.00108527 0.00108527 0.00108527
          0.00108527 0.00108527 0.00108528 0.00108528 0.00108528 0.00108528 0.00108528 0.00108528 0.00108528 0.00108528 0.00108528 0.00108528
          0.00108528 0.00108528 0.00108528 0.00108528 0.00108528 0.00108528 0.00108528 0.00108528 0.00108528 0.00108528 0.00108528 0.00108528
          0.00108528 0.00108528 0.00108528 0.00108528 0.00108528 0.00108528 0.00108528 0.00108528 0.00108528 0.00108528 0.00108528 0.00108528
          0.00108528 0.00108528 0.00108528 0.00108528 0.00108528 0.00108528 0.00108528 0.00108528 0.00108528 0.00108528 0.00108528 0.00108528
          0.00108528 0.00108528 0.00108528 0.00108528 0.00108528 0.00108528 0.00108528 0.00108528 0.00108528 0.00108528 0.00108528 0.00108528
          0.00108528 0.00108528 0.00108528 0.00108528 0.00108528 0.00108528 0.00108528 0.00108528 0.00108528 0.00108528 0.00108528 0.00108528
          0.00108528 0.00108528 0.00108528 0.00108528 0.00108531 0.00108531
        </DataArray>
        <DataArray type="Float32" Name="T" NumberOfComponents="1" format="ascii">
          291 291 291 291 291 291 291 291 290.999 290.999 290.998 290.998
          290.994 290.994 290.987 290.987 290.975 290.975 290.955 290.955 290.926 290.926 290.886 290.886
          290.835 290.835 290.774 290.774 290.705 290.705 290.63 290.63 290.551 290.551 290.473 290.473
          290.398 290.398 290.329 290.329 290.266 290.266 290.211 290.211 290.165 290.165 290.126 290.126
          290.095 290.095 290.071 290.071 290.052 290.052 290.037 290.037 290.027 290.027 290.019 290.019
          290.013 290.013 290.009 290.009 290.007 290.007 290.005 290.005 290.004 290.004 290.003 290.003
          290.002 290.002 290.002 290.002 290.002 290.002 290.001 290.001 290.001 290.001 290.001 290.001
          290.001 290.001 290.001 290.001 290.001 290.001 290.001 290.001 290.001 290.001 290.001 290.001
          290.001 290.001 290.001 290.001 290.001 290.001 290.001 290.001 290.001 290.001 290.001 290.001
          290.001 290.001 290.001 290.001 290.001 290.001 290.001 290.001 290.001 290.001 290.001 290.001
          290.001 290.001 290.001 290.001 290.001 290.001 290.001 290.001 290.001 290.001 290.001 290.001
          290.001 290.001 290.001 290.001 290.001 290.001 290.001 290.001 290.001 290.001 290.001 290.001
          290.001 290.001 290.001 290.001 290.001 290.001 290.001 290.001 290.001 290.001 290.001 290.001
          290.001 290.001 290.001 290.001 290 290
        </DataArray>
        <DataArray type="Float32" Name="temperatureExact" NumberOfComponents="1" format="ascii">
          291 291 291 291 291 291 291 291 291 291 291 291
          291 291 291 291 291 291 291 291 291 291 291 291
          291 291 291 291 291 291 291 291 291 291 290 290
          290 290 290 290 290 290 290 290 290 290 290 290
          290 290 290 290 290 290 290 290 290 290 290 290
          290 290 290 290 290 290 290 290 290 290 290 290
          290 290 290 290 290 290 290 290 290 290 290 290
          290 290 290 290 290 290 290 290 290 290 290 290
          290 290 290 290 290 290 290 290 290 290 290 290
          290 290 290 290 290 290 290 290 290 290 290 290
          290 290 290 290 290 290 290 290 290 290 290 290
          290 290 290 290 290 290 290 290 290 290 290 290
          290 290 290 290 290 290 290 290 290 290 290 290
          290 290 290 290 290 290
        </DataArray>
      </PointData>
      <CellData Scalars="process rank">
        <DataArray type="Float32" Name="process rank" NumberOfComponents="1" format="ascii">
          0 0 0 0 0 0 0 0 0 0 0 0
          0 0 0 0 0 0 0 0 0 0 0 0
          0 0 0 0 0 0 0 0 0 0 0 0
          0 0 0 0 0 0 0 0 0 0 0 0
          0 0 0 0 0 0 0 0 0 0 0 0
          0 0 0 0 0 0 0 0 0 0 0 0
          0 0 0 0 0 0 0 0
        </DataArray>
      </CellData>
      <Points>
        <DataArray type="Float32" Name="Coordinates" NumberOfComponents="3" format="ascii">
          0 0 0 0.25 0 0 0 1 0 0.25 1 0
          0.5 0 0 0.5 1 0 0.75 0 0 0.75 1 0
          1 0 0 1 1 0 1.25 0 0 1.25 1 0
          1.5 0 0 1.5 1 0 1.75 0 0 1.75 1 0
          2 0 0 2 1 0 2.25 0 0 2.25 1 0
          2.5 0 0 2.5 1 0 2.75 0 0 2.75 1 0
          3 0 0 3 1 0 3.25 0 0 3.25 1 0
          3.5 0 0 3.5 1 0 3.75 0 0 3.75 1 0
          4 0 0 4 1 0 4.25 0 0 4.25 1 0
          4.5 0 0 4.5 1 0 4.75 0 0 4.75 1 0
          5 0 0 5 1 0 5.25 0 0 5.25 1 0
          5.5 0 0 5.5 1 0 5.75 0 0 5.75 1 0
          6 0 0 6 1 0 6.25 0 0 6.25 1 0
          6.5 0 0 6.5 1 0 6.75 0 0 6.75 1 0
          7 0 0 7 1 0 7.25 0 0 7.25 1 0
          7.5 0 0 7.5 1 0 7.75 0 0 7.75 1 0
          8 0 0 8 1 0 8.25 0 0 8.25 1 0
          8.5 0 0 8.5 1 0 8.75 0 0 8.75 1 0
          9 0 0 9 1 0 9.25 0 0 9.25 1 0
          9.5 0 0 9.5 1 0 9.75 0 0 9.75 1 0
          10 0 0 10 1 0 10.25 0 0 10.25 1 0
          10.5 0 0 10.5 1 0 10.75 0 0 10.75 1 0
          11 0 0 11 1 0 11.25 0 0 11.25 1 0
          11.5 0 0 11.5 1 0 11.75 0 0 11.75 1 0
          12 0 0 12 1 0 12.25 0 0 12.25 1 0
          12.5 0 0 12.5 1 0 12.75 0 0 12.75 1 0
          13 0 0 13 1 0 13.25 0 0 13.25 1 0
          13.5 0 0 13.5 1 0 13.75 0 0 13.75 1 0
          14 0 0 14 1 0 14.25 0 0 14.25 1 0
          14.5 0 0 14.5 1 0 14.75 0 0 14.75 1 0
          15 0 0 15 1 0 15.25 0 0 15.25 1 0
          15.5 0 0 15.5 1 0 15.75 0 0 15.75 1 0
          16 0 0 16 1 0 16.25 0 0 16.25 1 0
          16.5 0 0 16.5 1 0 16.75 0 0 16.75 1 0
          17 0 0 17 1 0 17.25 0 0 17.25 1 0
          17.5 0 0 17.5 1 0 17.75 0 0 17.75 1 0
          18 0 0 18 1 0 18.25 0 0 18.25 1 0
          18.5 0 0 18.5 1 0 18.75 0 0 18.75 1 0
          19 0 0 19 1 0 19.25 0 0 19.25 1 0
          19.5 0 0 19.5 1 0 19.75 0 0 19.75 1 0
          20 0 0 20 1 0
        </DataArray>
      </Points>
      <Cells>
        <DataArray type="Int32" Name="connectivity" NumberOfComponents="1" format="ascii">
          0 1 3 2 1 4 5 3 4 6 7 5
          6 8 9 7 8 10 11 9 10 12 13 11
          12 14 15 13 14 16 17 15 16 18 19 17
          18 20 21 19 20 22 23 21 22 24 25 23
          24 26 27 25 26 28 29 27 28 30 31 29
          30 32 33 31 32 34 35 33 34 36 37 35
          36 38 39 37 38 40 41 39 40 42 43 41
          42 44 45 43 44 46 47 45 46 48 49 47
          48 50 51 49 50 52 53 51 52 54 55 53
          54 56 57 55 56 58 59 57 58 60 61 59
          60 62 63 61 62 64 65 63 64 66 67 65
          66 68 69 67 68 70 71 69 70 72 73 71
          72 74 75 73 74 76 77 75 76 78 79 77
          78 80 81 79 80 82 83 81 82 84 85 83
          84 86 87 85 86 88 89 87 88 90 91 89
          90 92 93 91 92 94 95 93 94 96 97 95
          96 98 99 97 98 100 101 99 100 102 103 101
          102 104 105 103 104 106 107 105 106 108 109 107
          108 110 111 109 110 112 113 111 112 114 115 113
          114 116 117 115 116 118 119 117 118 120 121 119
          120 122 123 121 122 124 125 123 124 126 127 125
          126 128 129 127 128 130 131 129 130 132 133 131
          132 134 135 133 134 136 137 135 136 138 139 137
          138 140 141 139 140 142 143 141 142 144 145 143
          144 146 147 145 146 148 149 147 148 150 151 149
          150 152 153 151 152 154 155 153 154 156 157 155
          156 158 159 157 158 160 161 159
        </DataArray>
        <DataArray type="Int32" Name="offsets" NumberOfComponents="1" format="ascii">
          4 8 12 16 20 24 28 32 36 40 44 48
          52 56 60 64 68 72 76 80 84 88 92 96
          100 104 108 112 116 120 124 128 132 136 140 144
          148 152 156 160 164 168 172 176 180 184 188 192
          196 200 204 208 212 216 220 224 228 232 236 240
          244 248 252 256 260 264 268 272 276 280 284 288
          292 296 300 304 308 312 316 320
        </DataArray>
        <DataArray type="UInt8" Name="types" NumberOfComponents="1" format="ascii">
          9 9 9 9 9 9 9 9 9 9 9 9
          9 9 9 9 9 9 9 9 9 9 9 9
          9 9 9 9 9 9 9 9 9 9 9 9
          9 9 9 9 9 9 9 9 9 9 9 9
          9 9 9 9 9 9 9 9 9 9 9 9
          9 9 9 9 9 9 9 9 9 9 9 9
          9 9 9 9 9 9 9 9
        </DataArray>
      </Cells>
    </Piece>
  </UnstructuredGrid>
</VTKFile>
