<?xml version="1.0"?>
<VTKFile type="UnstructuredGrid" version="0.1" byte_order="LittleEndian">
  <UnstructuredGrid>
    <Piece NumberOfCells="2500" NumberOfPoints="2601">
      <PointData Scalars="x^tracer_0" Vectors="velocity_Groundwater (m/s)">
        <DataArray type="Float32" Name="x^tracer_0" NumberOfComponents="1" format="ascii">
          1.20888e-11 1.26673e-11 1.40921e-11 1.47864e-11 1.43363e-11 1.67666e-11 1.69265e-11 1.98075e-11 2.02159e-11 2.3632e-11 2.39681e-11 2.79566e-11
          2.79575e-11 3.25181e-11 3.19833e-11 3.70892e-11 3.58766e-11 4.1484e-11 3.95028e-11 4.55585e-11 4.27593e-11 4.92067e-11 4.55721e-11 5.23546e-11
          4.7891e-11 5.49542e-11 4.96852e-11 5.69773e-11 5.09387e-11 5.84109e-11 5.16472e-11 5.92529e-11 5.18157e-11 5.95094e-11 5.14563e-11 5.91928e-11
          5.05877e-11 5.83211e-11 4.92348e-11 5.69176e-11 4.7429e-11 5.50115e-11 4.52095e-11 5.26391e-11 4.26244e-11 4.98463e-11 3.97333e-11 4.66908e-11
          3.66092e-11 4.32468e-11 3.33364e-11 3.96072e-11 2.99992e-11 3.58733e-11 2.66665e-11 3.21128e-11 2.33944e-11 2.83834e-11 2.02324e-11 2.47399e-11
          1.72256e-11 2.12348e-11 1.44146e-11 1.79181e-11 1.18346e-11 1.48361e-11 9.51422e-12 1.20289e-11 7.4734e-12 9.52825e-12 5.72234e-12 7.3553e-12
          4.26041e-12 5.51847e-12 3.07611e-12 4.01257e-12 2.14797e-12 2.81908e-12 1.44645e-12 1.90778e-12 9.36731e-13 1.23978e-12 5.81875e-13 7.71406e-13
          3.45985e-13 4.58471e-13 1.96804e-13 2.60021e-13 1.07429e-13 1.41108e-13 5.69851e-14 7.41718e-14 3.03847e-14 3.90804e-14 1.74524e-14 2.2188e-14
          1.17808e-14 1.48964e-14 9.63566e-15 1.22039e-14 9.11368e-15 1.15649e-14 2.03667e-11 2.14313e-11 2.43943e-11 2.88463e-11 3.43348e-11 4.0425e-11
          4.67359e-11 5.29569e-11 5.88503e-11 6.42453e-11 6.90272e-11 7.31248e-11 7.64995e-11 7.91346e-11 8.10286e-11 8.21888e-11 8.26282e-11 8.23627e-11
          8.1411e-11 7.97939e-11 7.75363e-11 7.46688e-11 7.12309e-11 6.72768e-11 6.28837e-11 5.8166e-11 5.32699e-11 4.82638e-11 4.32083e-11 3.81699e-11
          3.32201e-11 2.84336e-11 2.38861e-11 1.96501e-11 1.57913e-11 1.23627e-11 9.40095e-12 6.92155e-12 4.91748e-12 3.35941e-12 2.19899e-12 1.37448e-12
          8.17967e-13 4.62738e-13 2.49359e-13 1.29503e-13 6.71425e-14 3.7575e-14 2.5162e-14 2.07947e-14 1.98187e-14 3.16348e-11 3.33746e-11 3.80878e-11
          4.50008e-11 5.333e-11 6.23675e-11 7.15298e-11 8.03733e-11 8.85873e-11 9.59732e-11 1.02419e-10 1.07873e-10 1.12325e-10 1.15788e-10 1.18287e-10
          1.1985e-10 1.20505e-10 1.20275e-10 1.1918e-10 1.17237e-10 1.1446e-10 1.10867e-10 1.06485e-10 1.01353e-10 9.55455e-11 8.91966e-11 8.25096e-11
          7.55588e-11 6.84103e-11 6.11476e-11 5.38693e-11 4.66873e-11 3.9723e-11 3.31019e-11 2.69459e-11 2.13652e-11 1.64482e-11 1.22527e-11 8.79938e-12
          6.06884e-12 4.00389e-12 2.51716e-12 1.50285e-12 8.50346e-13 4.56688e-13 2.35494e-13 1.20965e-13 6.73628e-14 4.54961e-14 3.82524e-14 3.67799e-14
          4.88758e-11 5.16354e-11 5.89147e-11 6.93232e-11 8.15479e-11 9.44729e-11 1.07239e-10 1.1925e-10 1.30135e-10 1.39701e-10 1.4788e-10 1.54682e-10
          1.60163e-10 1.64392e-10 1.67444e-10 1.69381e-10 1.70252e-10 1.7009e-10 1.6891e-10 1.66716e-10 1.635e-10 1.59251e-10 1.53961e-10 1.47638e-10
          1.40328e-10 1.3216e-10 1.23379e-10 1.14066e-10 1.04298e-10 9.41788e-11 8.38422e-11 7.34484e-11 6.31806e-11 5.3238e-11 4.38251e-11 3.51386e-11
          2.73504e-11 2.05916e-11 1.49372e-11 1.0397e-11 6.91455e-12 4.37529e-12 2.62419e-12 1.48817e-12 7.98929e-13 4.10821e-13 2.10439e-13 1.17747e-13
          8.11126e-14 6.99143e-14 6.79836e-14 7.30364e-11 7.71485e-11 8.77083e-11 1.0239e-10 1.19128e-10 1.3628e-10 1.52683e-10 1.67621e-10 1.80734e-10
          1.91917e-10 2.01222e-10 2.08786e-10 2.14776e-10 2.19357e-10 2.22673e-10 2.24833e-10 2.25909e-10 2.25937e-10 2.24919e-10 2.22826e-10 2.1961e-10
          2.15203e-10 2.09536e-10 2.02549e-10 1.9422e-10 1.84624e-10 1.73989e-10 1.62395e-10 1.49927e-10 1.36712e-10 1.22921e-10 1.08773e-10 9.45258e-11
          8.04748e-11 6.69356e-11 5.4226e-11 4.26411e-11 3.24258e-11 2.37481e-11 1.66787e-11 1.11823e-11 7.12513e-12 4.29695e-12 2.44584e-12 1.31544e-12
          6.76805e-13 3.47649e-13 1.97226e-13 1.40044e-13 1.24551e-13 1.22705e-13 1.047e-10 1.10398e-10 1.24624e-10 1.43777e-10 1.64843e-10 1.85598e-10
          2.04633e-10 2.21228e-10 2.35168e-10 2.46557e-10 2.55665e-10 2.62827e-10 2.6837e-10 2.72579e-10 2.75679e-10 2.77826e-10 2.79107e-10 2.79551e-10
          2.79129e-10 2.77762e-10 2.75334e-10 2.71697e-10 2.66686e-10 2.60133e-10 2.519e-10 2.4194e-10 2.30369e-10 2.17236e-10 2.02619e-10 1.86654e-10
          1.69544e-10 1.51563e-10 1.33056e-10 1.14432e-10 9.6145e-11 7.86725e-11 6.2478e-11 4.79705e-11 3.54606e-11 2.51245e-11 1.69821e-11 1.08988e-11
          6.61277e-12 3.78187e-12 2.04104e-12 1.05365e-12 5.45521e-13 3.16599e-13 2.34002e-13 2.15821e-13 2.15667e-13 1.43786e-10 1.51102e-10 1.68811e-10
          1.91766e-10 2.15905e-10 2.38497e-10 2.58052e-10 2.74048e-10 2.86592e-10 2.9613e-10 3.03243e-10 3.0851e-10 3.12438e-10 3.15434e-10 3.1779e-10
          3.19692e-10 3.21227e-10 3.22395e-10 3.23119e-10 3.23256e-10 3.22604e-10 3.20916e-10 3.17907e-10 3.13274e-10 3.06719e-10 2.98003e-10 2.87026e-10
          2.73752e-10 2.58207e-10 2.40501e-10 2.20843e-10 1.99545e-10 1.77034e-10 1.53837e-10 1.30573e-10 1.07913e-10 8.65363e-11 6.70719e-11 5.00327e-11
          3.57557e-11 2.43626e-11 1.57499e-11 9.61731e-12 5.52996e-12 2.99856e-12 1.55692e-12 8.16617e-13 4.89225e-13 3.79692e-13 3.64365e-13 3.69485e-13
          1.8935e-10 1.98032e-10 2.18317e-10 2.43406e-10 2.68279e-10 2.89927e-10 3.07062e-10 3.19604e-10 3.28162e-10 3.3363e-10 3.36938e-10 3.38909e-10
          3.40206e-10 3.41313e-10 3.42555e-10 3.44109e-10 3.46032e-10 3.48275e-10 3.50699e-10 3.5309e-10 3.55158e-10 3.56556e-10 3.56879e-10 3.55678e-10
          3.52481e-10 3.46814e-10 3.38279e-10 3.2668e-10 3.11928e-10 2.94044e-10 2.73186e-10 2.49665e-10 2.23959e-10 1.96709e-10 1.68701e-10 1.40827e-10
          1.14026e-10 8.92017e-11 6.71325e-11 4.83802e-11 3.3224e-11 2.16338e-11 1.3296e-11 7.68967e-12 4.19335e-12 2.19484e-12 1.17241e-12 7.31734e-13
          6.00705e-13 6.00676e-13 6.17996e-13 2.39551e-10 2.49032e-10 2.70248e-10 2.94918e-10 3.17383e-10 3.34738e-10 3.46244e-10 3.52502e-10 3.54744e-10
          3.54341e-10 3.52539e-10 3.50339e-10 3.4848e-10 3.47452e-10 3.47545e-10 3.48879e-10 3.51445e-10 3.55124e-10 3.5971e-10 3.64917e-10 3.70385e-10
          3.75684e-10 3.80312e-10 3.83699e-10 3.85212e-10 3.8415e-10 3.79788e-10 3.71705e-10 3.59613e-10 3.43365e-10 3.22993e-10 2.9874e-10 2.71081e-10
          2.40735e-10 2.08642e-10 1.75926e-10 1.43814e-10 1.13531e-10 8.61793e-11 6.26106e-11 4.33219e-11 2.84064e-11 1.75704e-11 1.02227e-11 5.61075e-12
          2.96712e-12 1.62338e-12 1.06536e-12 9.30124e-13 9.68861e-13 1.01059e-12 2.91789e-10 3.01221e-10 3.21153e-10 3.42309e-10 3.58932e-10 3.68706e-10
          3.7177e-10 3.69572e-10 3.63988e-10 3.56798e-10 3.49449e-10 3.42999e-10 3.38145e-10 3.35292e-10 3.34617e-10 3.36134e-10 3.3973e-10 3.45202e-10
          3.52272e-10 3.60598e-10 3.69771e-10 3.79311e-10 3.88663e-10 3.97181e-10 4.04119e-10 4.08601e-10 4.09626e-10 4.065e-10 3.98668e-10 3.85738e-10
          3.67528e-10 3.4413e-10 3.15947e-10 2.83714e-10 2.4849e-10 2.11614e-10 1.74608e-10 1.39054e-10 1.06423e-10 7.7913e-11 5.42958e-11 3.5838e-11
          2.23041e-11 1.30552e-11 7.21673e-12 3.86543e-12 2.18008e-12 1.51806e-12 1.41395e-12 1.53136e-12 1.61758e-12 3.42988e-10 3.51345e-10 3.67513e-10
          3.82004e-10 3.89652e-10 3.89225e-10 3.81984e-10 3.7026e-10 3.56477e-10 3.42663e-10 3.30297e-10 3.20338e-10 3.13321e-10 3.09468e-10 3.08783e-10
          3.11124e-10 3.16253e-10 3.2387e-10 3.33627e-10 3.45138e-10 3.57971e-10 3.71634e-10 3.85562e-10 3.99094e-10 4.11441e-10 4.21636e-10 4.28505e-10
          4.31082e-10 4.28512e-10 4.20096e-10 4.05371e-10 3.84195e-10 3.56816e-10 3.23914e-10 2.86609e-10 2.46415e-10 2.0514e-10 1.64725e-10 1.27042e-10
          9.36718e-11 6.57093e-11 4.36378e-11 2.73162e-11 1.60845e-11 8.96151e-12 4.87565e-12 2.85535e-12 2.1275e-12 2.11541e-12 2.37464e-12 2.53662e-12
          3.89964e-10 3.96186e-10 4.06212e-10 4.11324e-10 4.07683e-10 3.95538e-10 3.77374e-10 3.56301e-10 3.35089e-10 3.15799e-10 2.99753e-10 2.87661e-10
          2.79792e-10 2.76115e-10 2.76417e-10 2.80375e-10 2.87611e-10 2.97724e-10 3.10299e-10 3.24914e-10 3.41131e-10 3.58477e-10 3.76419e-10 3.9433e-10
          4.11448e-10 4.26814e-10 4.39214e-10 4.47454e-10 4.50388e-10 4.46992e-10 4.36481e-10 4.18419e-10 3.92826e-10 3.60255e-10 3.21815e-10 2.79146e-10
          2.34301e-10 1.8957e-10 1.47226e-10 1.09252e-10 7.70936e-11 5.14816e-11 3.23991e-11 1.91896e-11 1.07853e-11 5.98154e-12 3.66746e-12 2.94488e-12
          3.11999e-12 3.61558e-12 3.89978e-12 4.29794e-10 4.32937e-10 4.34894e-10 4.2875e-10 4.12642e-10 3.88539e-10 3.60085e-10 3.30944e-10 3.03976e-10
          2.81045e-10 2.63144e-10 2.50627e-10 2.43429e-10 2.41235e-10 2.43597e-10 2.50007e-10 2.59945e-10 2.72906e-10 2.88409e-10 3.06001e-10 3.25244e-10
          3.45696e-10 3.66881e-10 3.88247e-10 4.09113e-10 4.28616e-10 4.45623e-10 4.58795e-10 4.66744e-10 4.68149e-10 4.61899e-10 4.4724e-10 4.23919e-10
          3.92298e-10 3.53415e-10 3.08971e-10 2.6122e-10 2.12758e-10 1.66241e-10 1.24052e-10 8.79873e-11 5.90405e-11 3.73362e-11 2.22421e-11 1.26252e-11
          7.16946e-12 4.64434e-12 4.03957e-12 4.54123e-12 5.40836e-12 5.88098e-12 4.60134e-10 4.59499e-10 4.52164e-10 4.33944e-10 4.05418e-10 3.70315e-10
          3.33227e-10 2.98079e-10 2.67554e-10 2.43123e-10 2.25334e-10 2.14126e-10 2.09085e-10 2.09615e-10 2.15042e-10 2.24687e-10 2.37891e-10 2.54047e-10
          2.72606e-10 2.93077e-10 3.1502e-10 3.38022e-10 3.6167e-10 3.85504e-10 4.08963e-10 4.31333e-10 4.51662e-10 4.68554e-10 4.8046e-10 4.85827e-10
          4.83259e-10 4.71695e-10 4.50595e-10 4.20099e-10 3.81125e-10 3.3538e-10 2.85261e-10 2.33623e-10 1.83465e-10 1.37535e-10 9.79651e-11 6.60032e-11
[...]
      <CellData Scalars="process rank">
        <DataArray type="Float32" Name="process rank" NumberOfComponents="1" format="ascii">
          0 0 0 0 0 0 0 0 0 0 0 0
          0 0 0 0 0 0 0 0 0 0 0 0
          0 0 0 0 0 0 0 0 0 0 0 0
          0 0 0 0 0 0 0 0 0 0 0 0
          0 0 0 0 0 0 0 0 0 0 0 0
          0 0 0 0 0 0 0 0 0 0 0 0
          0 0 0 0 0 0 0 0 0 0 0 0
          0 0 0 0 0 0 0 0 0 0 0 0
          0 0 0 0 0 0 0 0 0 0 0 0
          0 0 0 0 0 0 0 0 0 0 0 0
          0 0 0 0 0 0 0 0 0 0 0 0
          0 0 0 0 0 0 0 0 0 0 0 0
          0 0 0 0 0 0 0 0 0 0 0 0
          0 0 0 0 0 0 0 0 0 0 0 0
          0 0 0 0 0 0 0 0 0 0 0 0
          0 0 0 0 0 0 0 0 0 0 0 0
          0 0 0 0 0 0 0 0 0 0 0 0
          0 0 0 0 0 0 0 0 0 0 0 0
          0 0 0 0 0 0 0 0 0 0 0 0
          0 0 0 0 0 0 0 0 0 0 0 0
          0 0 0 0 0 0 0 0 0 0 0 0
          0 0 0 0 0 0 0 0 0 0 0 0
          0 0 0 0 0 0 0 0 0 0 0 0
          0 0 0 0 0 0 0 0 0 0 0 0
          0 0 0 0 0 0 0 0 0 0 0 0
          0 0 0 0 0 0 0 0 0 0 0 0
          0 0 0 0 0 0 0 0 0 0 0 0
          0 0 0 0 0 0 0 0 0 0 0 0
          0 0 0 0 0 0 0 0 0 0 0 0
          0 0 0 0 0 0 0 0 0 0 0 0
          0 0 0 0 0 0 0 0 0 0 0 0
          0 0 0 0 0 0 0 0 0 0 0 0
          0 0 0 0 0 0 0 0 0 0 0 0
          0 0 0 0 0 0 0 0 0 0 0 0
          0 0 0 0 0 0 0 0 0 0 0 0
          0 0 0 0 0 0 0 0 0 0 0 0
          0 0 0 0 0 0 0 0 0 0 0 0
          0 0 0 0 0 0 0 0 0 0 0 0
          0 0 0 0 0 0 0 0 0 0 0 0
          0 0 0 0 0 0 0 0 0 0 0 0
          0 0 0 0 0 0 0 0 0 0 0 0
          0 0 0 0 0 0 0 0 0 0 0 0
          0 0 0 0 0 0 0 0 0 0 0 0
          0 0 0 0 0 0 0 0 0 0 0 0
          0 0 0 0 0 0 0 0 0 0 0 0
          0 0 0 0 0 0 0 0 0 0 0 0
          0 0 0 0 0 0 0 0 0 0 0 0
          0 0 0 0 0 0 0 0 0 0 0 0
          0 0 0 0 0 0 0 0 0 0 0 0
          0 0 0 0 0 0 0 0 0 0 0 0
          0 0 0 0 0 0 0 0 0 0 0 0
          0 0 0 0 0 0 0 0 0 0 0 0
          0 0 0 0 0 0 0 0 0 0 0 0
          0 0 0 0 0 0 0 0 0 0 0 0
          0 0 0 0 0 0 0 0 0 0 0 0
          0 0 0 0 0 0 0 0 0 0 0 0
          0 0 0 0 0 0 0 0 0 0 0 0
          0 0 0 0 0 0 0 0 0 0 0 0
          0 0 0 0 0 0 0 0 0 0 0 0
          0 0 0 0 0 0 0 0 0 0 0 0
          0 0 0 0 0 0 0 0 0 0 0 0
          0 0 0 0 0 0 0 0 0 0 0 0
          0 0 0 0 0 0 0 0 0 0 0 0
          0 0 0 0 0 0 0 0 0 0 0 0
          0 0 0 0 0 0 0 0 0 0 0 0
          0 0 0 0 0 0 0 0 0 0 0 0
          0 0 0 0 0 0 0 0 0 0 0 0
          0 0 0 0 0 0 0 0 0 0 0 0
          0 0 0 0 0 0 0 0 0 0 0 0
          0 0 0 0 0 0 0 0 0 0 0 0
          0 0 0 0 0 0 0 0 0 0 0 0
          0 0 0 0 0 0 0 0 0 0 0 0
          0 0 0 0 0 0 0 0 0 0 0 0
          0 0 0 0 0 0 0 0 0 0 0 0
          0 0 0 0 0 0 0 0 0 0 0 0
          0 0 0 0 0 0 0 0 0 0 0 0
          0 0 0 0 0 0 0 0 0 0 0 0
          0 0 0 0 0 0 0 0 0 0 0 0
          0 0 0 0 0 0 0 0 0 0 0 0
          0 0 0 0 0 0 0 0 0 0 0 0
          0 0 0 0 0 0 0 0 0 0 0 0
          0 0 0 0 0 0 0 0 0 0 0 0
          0 0 0 0 0 0 0 0 0 0 0 0
          0 0 0 0 0 0 0 0 0 0 0 0
          0 0 0 0 0 0 0 0 0 0 0 0
          0 0 0 0 0 0 0 0 0 0 0 0
          0 0 0 0 0 0 0 0 0 0 0 0
          0 0 0 0 0 0 0 0 0 0 0 0
          0 0 0 0 0 0 0 0 0 0 0 0
          0 0 0 0 0 0 0 0 0 0 0 0
          0 0 0 0 0 0 0 0 0 0 0 0
          0 0 0 0 0 0 0 0 0 0 0 0
          0 0 0 0 0 0 0 0 0 0 0 0
          0 0 0 0 0 0 0 0 0 0 0 0
          0 0 0 0 0 0 0 0 0 0 0 0
          0 0 0 0 0 0 0 0 0 0 0 0
          0 0 0 0 0 0 0 0 0 0 0 0
          0 0 0 0 0 0 0 0 0 0 0 0
          0 0 0 0 0 0 0 0 0 0 0 0
          0 0 0 0 0 0 0 0 0 0 0 0
          0 0 0 0 0 0 0 0 0 0 0 0
          0 0 0 0 0 0 0 0 0 0 0 0
          0 0 0 0 0 0 0 0 0 0 0 0
          0 0 0 0 0 0 0 0 0 0 0 0
          0 0 0 0 0 0 0 0 0 0 0 0
          0 0 0 0 0 0 0 0 0 0 0 0
          0 0 0 0 0 0 0 0 0 0 0 0
          0 0 0 0 0 0 0 0 0 0 0 0
          0 0 0 0 0 0 0 0 0 0 0 0
          0 0 0 0 0 0 0 0 0 0 0 0
          0 0 0 0 0 0 0 0 0 0 0 0
          0 0 0 0 0 0 0 0 0 0 0 0
          0 0 0 0 0 0 0 0 0 0 0 0
          0 0 0 0 0 0 0 0 0 0 0 0
          0 0 0 0 0 0 0 0 0 0 0 0
          0 0 0 0 0 0 0 0 0 0 0 0
          0 0 0 0 0 0 0 0 0 0 0 0
          0 0 0 0 0 0 0 0 0 0 0 0
          0 0 0 0 0 0 0 0 0 0 0 0
          0 0 0 0 0 0 0 0 0 0 0 0
          0 0 0 0 0 0 0 0 0 0 0 0
          0 0 0 0 0 0 0 0 0 0 0 0
          0 0 0 0 0 0 0 0 0 0 0 0
          0 0 0 0 0 0 0 0 0 0 0 0
          0 0 0 0 0 0 0 0 0 0 0 0
          0 0 0 0 0 0 0 0 0 0 0 0
          0 0 0 0 0 0 0 0 0 0 0 0
          0 0 0 0 0 0 0 0 0 0 0 0
          0 0 0 0 0 0 0 0 0 0 0 0
          0 0 0 0 0 0 0 0 0 0 0 0
          0 0 0 0 0 0 0 0 0 0 0 0
          0 0 0 0 0 0 0 0 0 0 0 0
          0 0 0 0 0 0 0 0 0 0 0 0
          0 0 0 0 0 0 0 0 0 0 0 0
          0 0 0 0 0 0 0 0 0 0 0 0
          0 0 0 0 0 0 0 0 0 0 0 0
          0 0 0 0 0 0 0 0 0 0 0 0
          0 0 0 0 0 0 0 0 0 0 0 0
          0 0 0 0 0 0 0 0 0 0 0 0
          0 0 0 0 0 0 0 0 0 0 0 0
          0 0 0 0 0 0 0 0 0 0 0 0
          0 0 0 0 0 0 0 0 0 0 0 0
          0 0 0 0 0 0 0 0 0 0 0 0
          0 0 0 0 0 0 0 0 0 0 0 0
          0 0 0 0 0 0 0 0 0 0 0 0
          0 0 0 0 0 0 0 0 0 0 0 0
          0 0 0 0 0 0 0 0 0 0 0 0
          0 0 0 0 0 0 0 0 0 0 0 0
          0 0 0 0 0 0 0 0 0 0 0 0
          0 0 0 0 0 0 0 0 0 0 0 0
          0 0 0 0 0 0 0 0 0 0 0 0
          0 0 0 0 0 0 0 0 0 0 0 0
          0 0 0 0 0 0 0 0 0 0 0 0
          0 0 0 0 0 0 0 0 0 0 0 0
          0 0 0 0 0 0 0 0 0 0 0 0
          0 0 0 0 0 0 0 0 0 0 0 0
          0 0 0 0 0 0 0 0 0 0 0 0
          0 0 0 0 0 0 0 0 0 0 0 0
          0 0 0 0 0 0 0 0 0 0 0 0
          0 0 0 0 0 0 0 0 0 0 0 0
          0 0 0 0 0 0 0 0 0 0 0 0
          0 0 0 0 0 0 0 0 0 0 0 0
          0 0 0 0 0 0 0 0 0 0 0 0
          0 0 0 0 0 0 0 0 0 0 0 0
          0 0 0 0 0 0 0 0 0 0 0 0
          0 0 0 0 0 0 0 0 0 0 0 0
          0 0 0 0 0 0 0 0 0 0 0 0
          0 0 0 0 0 0 0 0 0 0 0 0
          0 0 0 0 0 0 0 0 0 0 0 0
          0 0 0 0 0 0 0 0 0 0 0 0
          0 0 0 0 0 0 0 0 0 0 0 0
          0 0 0 0 0 0 0 0 0 0 0 0
          0 0 0 0 0 0 0 0 0 0 0 0
          0 0 0 0 0 0 0 0 0 0 0 0
          0 0 0 0 0 0 0 0 0 0 0 0
          0 0 0 0 0 0 0 0 0 0 0 0
          0 0 0 0 0 0 0 0 0 0 0 0
          0 0 0 0 0 0 0 0 0 0 0 0
          0 0 0 0 0 0 0 0 0 0 0 0
          0 0 0 0 0 0 0 0 0 0 0 0
          0 0 0 0 0 0 0 0 0 0 0 0
          0 0 0 0 0 0 0 0 0 0 0 0
          0 0 0 0 0 0 0 0 0 0 0 0
          0 0 0 0 0 0 0 0 0 0 0 0
          0 0 0 0 0 0 0 0 0 0 0 0
          0 0 0 0 0 0 0 0 0 0 0 0
          0 0 0 0 0 0 0 0 0 0 0 0
          0 0 0 0 0 0 0 0 0 0 0 0
          0 0 0 0 0 0 0 0 0 0 0 0
          0 0 0 0 0 0 0 0 0 0 0 0
          0 0 0 0 0 0 0 0 0 0 0 0
          0 0 0 0 0 0 0 0 0 0 0 0
          0 0 0 0 0 0 0 0 0 0 0 0
          0 0 0 0 0 0 0 0 0 0 0 0
          0 0 0 0 0 0 0 0 0 0 0 0
          0 0 0 0 0 0 0 0 0 0 0 0
          0 0 0 0 0 0 0 0 0 0 0 0
          0 0 0 0 0 0 0 0 0 0 0 0
          0 0 0 0 0 0 0 0 0 0 0 0
          0 0 0 0 0 0 0 0 0 0 0 0
          0 0 0 0 0 0 0 0 0 0 0 0
          0 0 0 0 0 0 0 0 0 0 0 0
          0 0 0 0 0 0 0 0 0 0 0 0
          0 0 0 0 0 0 0 0 0 0 0 0
          0 0 0 0 0 0 0 0 0 0 0 0
          0 0 0 0 0 0 0 0 0 0 0 0
          0 0 0 0 0 0 0 0 0 0 0 0
          0 0 0 0 0 0 0 0 0 0 0 0
          0 0 0 0
        </DataArray>
      </CellData>
      <Points>
        <DataArray type="Float32" Name="Coordinates" NumberOfComponents="3" format="ascii">
          0 0 0 0.02 0 0 0 0.02 0 0.02 0.02 0
          0.04 0 0 0.04 0.02 0 0.06 0 0 0.06 0.02 0
          0.08 0 0 0.08 0.02 0 0.1 0 0 0.1 0.02 0
          0.12 0 0 0.12 0.02 0 0.14 0 0 0.14 0.02 0
          0.16 0 0 0.16 0.02 0 0.18 0 0 0.18 0.02 0
          0.2 0 0 0.2 0.02 0 0.22 0 0 0.22 0.02 0
          0.24 0 0 0.24 0.02 0 0.26 0 0 0.26 0.02 0
          0.28 0 0 0.28 0.02 0 0.3 0 0 0.3 0.02 0
          0.32 0 0 0.32 0.02 0 0.34 0 0 0.34 0.02 0
          0.36 0 0 0.36 0.02 0 0.38 0 0 0.38 0.02 0
          0.4 0 0 0.4 0.02 0 0.42 0 0 0.42 0.02 0
          0.44 0 0 0.44 0.02 0 0.46 0 0 0.46 0.02 0
          0.48 0 0 0.48 0.02 0 0.5 0 0 0.5 0.02 0
          0.52 0 0 0.52 0.02 0 0.54 0 0 0.54 0.02 0
          0.56 0 0 0.56 0.02 0 0.58 0 0 0.58 0.02 0
          0.6 0 0 0.6 0.02 0 0.62 0 0 0.62 0.02 0
          0.64 0 0 0.64 0.02 0 0.66 0 0 0.66 0.02 0
          0.68 0 0 0.68 0.02 0 0.7 0 0 0.7 0.02 0
          0.72 0 0 0.72 0.02 0 0.74 0 0 0.74 0.02 0
          0.76 0 0 0.76 0.02 0 0.78 0 0 0.78 0.02 0
          0.8 0 0 0.8 0.02 0 0.82 0 0 0.82 0.02 0
          0.84 0 0 0.84 0.02 0 0.86 0 0 0.86 0.02 0
          0.88 0 0 0.88 0.02 0 0.9 0 0 0.9 0.02 0
          0.92 0 0 0.92 0.02 0 0.94 0 0 0.94 0.02 0
          0.96 0 0 0.96 0.02 0 0.98 0 0 0.98 0.02 0
          1 0 0 1 0.02 0 0 0.04 0 0.02 0.04 0
          0.04 0.04 0 0.06 0.04 0 0.08 0.04 0 0.1 0.04 0
          0.12 0.04 0 0.14 0.04 0 0.16 0.04 0 0.18 0.04 0
          0.2 0.04 0 0.22 0.04 0 0.24 0.04 0 0.26 0.04 0
          0.28 0.04 0 0.3 0.04 0 0.32 0.04 0 0.34 0.04 0
          0.36 0.04 0 0.38 0.04 0 0.4 0.04 0 0.42 0.04 0
          0.44 0.04 0 0.46 0.04 0 0.48 0.04 0 0.5 0.04 0
          0.52 0.04 0 0.54 0.04 0 0.56 0.04 0 0.58 0.04 0
          0.6 0.04 0 0.62 0.04 0 0.64 0.04 0 0.66 0.04 0
          0.68 0.04 0 0.7 0.04 0 0.72 0.04 0 0.74 0.04 0
          0.76 0.04 0 0.78 0.04 0 0.8 0.04 0 0.82 0.04 0
          0.84 0.04 0 0.86 0.04 0 0.88 0.04 0 0.9 0.04 0
          0.92 0.04 0 0.94 0.04 0 0.96 0.04 0 0.98 0.04 0
          1 0.04 0 0 0.06 0 0.02 0.06 0 0.04 0.06 0
          0.06 0.06 0 0.08 0.06 0 0.1 0.06 0 0.12 0.06 0
          0.14 0.06 0 0.16 0.06 0 0.18 0.06 0 0.2 0.06 0
          0.22 0.06 0 0.24 0.06 0 0.26 0.06 0 0.28 0.06 0
          0.3 0.06 0 0.32 0.06 0 0.34 0.06 0 0.36 0.06 0
          0.38 0.06 0 0.4 0.06 0 0.42 0.06 0 0.44 0.06 0
          0.46 0.06 0 0.48 0.06 0 0.5 0.06 0 0.52 0.06 0
          0.54 0.06 0 0.56 0.06 0 0.58 0.06 0 0.6 0.06 0
          0.62 0.06 0 0.64 0.06 0 0.66 0.06 0 0.68 0.06 0
          0.7 0.06 0 0.72 0.06 0 0.74 0.06 0 0.76 0.06 0
          0.78 0.06 0 0.8 0.06 0 0.82 0.06 0 0.84 0.06 0
          0.86 0.06 0 0.88 0.06 0 0.9 0.06 0 0.92 0.06 0
          0.94 0.06 0 0.96 0.06 0 0.98 0.06 0 1 0.06 0
          0 0.08 0 0.02 0.08 0 0.04 0.08 0 0.06 0.08 0
          0.08 0.08 0 0.1 0.08 0 0.12 0.08 0 0.14 0.08 0
          0.16 0.08 0 0.18 0.08 0 0.2 0.08 0 0.22 0.08 0
          0.24 0.08 0 0.26 0.08 0 0.28 0.08 0 0.3 0.08 0
          0.32 0.08 0 0.34 0.08 0 0.36 0.08 0 0.38 0.08 0
          0.4 0.08 0 0.42 0.08 0 0.44 0.08 0 0.46 0.08 0
          0.48 0.08 0 0.5 0.08 0 0.52 0.08 0 0.54 0.08 0
          0.56 0.08 0 0.58 0.08 0 0.6 0.08 0 0.62 0.08 0
          0.64 0.08 0 0.66 0.08 0 0.68 0.08 0 0.7 0.08 0
          0.72 0.08 0 0.74 0.08 0 0.76 0.08 0 0.78 0.08 0
          0.8 0.08 0 0.82 0.08 0 0.84 0.08 0 0.86 0.08 0
          0.88 0.08 0 0.9 0.08 0 0.92 0.08 0 0.94 0.08 0
          0.96 0.08 0 0.98 0.08 0 1 0.08 0 0 0.1 0
          0.02 0.1 0 0.04 0.1 0 0.06 0.1 0 0.08 0.1 0
          0.1 0.1 0 0.12 0.1 0 0.14 0.1 0 0.16 0.1 0
          0.18 0.1 0 0.2 0.1 0 0.22 0.1 0 0.24 0.1 0
          0.26 0.1 0 0.28 0.1 0 0.3 0.1 0 0.32 0.1 0
          0.34 0.1 0 0.36 0.1 0 0.38 0.1 0 0.4 0.1 0
          0.42 0.1 0 0.44 0.1 0 0.46 0.1 0 0.48 0.1 0
          0.5 0.1 0 0.52 0.1 0 0.54 0.1 0 0.56 0.1 0
          0.58 0.1 0 0.6 0.1 0 0.62 0.1 0 0.64 0.1 0
          0.66 0.1 0 0.68 0.1 0 0.7 0.1 0 0.72 0.1 0
          0.74 0.1 0 0.76 0.1 0 0.78 0.1 0 0.8 0.1 0
          0.82 0.1 0 0.84 0.1 0 0.86 0.1 0 0.88 0.1 0
          0.9 0.1 0 0.92 0.1 0 0.94 0.1 0 0.96 0.1 0
          0.98 0.1 0 1 0.1 0 0 0.12 0 0.02 0.12 0
          0.04 0.12 0 0.06 0.12 0 0.08 0.12 0 0.1 0.12 0
          0.12 0.12 0 0.14 0.12 0 0.16 0.12 0 0.18 0.12 0
          0.2 0.12 0 0.22 0.12 0 0.24 0.12 0 0.26 0.12 0
          0.28 0.12 0 0.3 0.12 0 0.32 0.12 0 0.34 0.12 0
          0.36 0.12 0 0.38 0.12 0 0.4 0.12 0 0.42 0.12 0
          0.44 0.12 0 0.46 0.12 0 0.48 0.12 0 0.5 0.12 0
          0.52 0.12 0 0.54 0.12 0 0.56 0.12 0 0.58 0.12 0
          0.6 0.12 0 0.62 0.12 0 0.64 0.12 0 0.66 0.12 0
          0.68 0.12 0 0.7 0.12 0 0.72 0.12 0 0.74 0.12 0
          0.76 0.12 0 0.78 0.12 0 0.8 0.12 0 0.82 0.12 0
          0.84 0.12 0 0.86 0.12 0 0.88 0.12 0 0.9 0.12 0
          0.92 0.12 0 0.94 0.12 0 0.96 0.12 0 0.98 0.12 0
          1 0.12 0 0 0.14 0 0.02 0.14 0 0.04 0.14 0
          0.06 0.14 0 0.08 0.14 0 0.1 0.14 0 0.12 0.14 0
          0.14 0.14 0 0.16 0.14 0 0.18 0.14 0 0.2 0.14 0
          0.22 0.14 0 0.24 0.14 0 0.26 0.14 0 0.28 0.14 0
          0.3 0.14 0 0.32 0.14 0 0.34 0.14 0 0.36 0.14 0
          0.38 0.14 0 0.4 0.14 0 0.42 0.14 0 0.44 0.14 0
          0.46 0.14 0 0.48 0.14 0 0.5 0.14 0 0.52 0.14 0
          0.54 0.14 0 0.56 0.14 0 0.58 0.14 0 0.6 0.14 0
          0.62 0.14 0 0.64 0.14 0 0.66 0.14 0 0.68 0.14 0
          0.7 0.14 0 0.72 0.14 0 0.74 0.14 0 0.76 0.14 0
          0.78 0.14 0 0.8 0.14 0 0.82 0.14 0 0.84 0.14 0
          0.86 0.14 0 0.88 0.14 0 0.9 0.14 0 0.92 0.14 0
          0.94 0.14 0 0.96 0.14 0 0.98 0.14 0 1 0.14 0
          0 0.16 0 0.02 0.16 0 0.04 0.16 0 0.06 0.16 0
          0.08 0.16 0 0.1 0.16 0 0.12 0.16 0 0.14 0.16 0
          0.16 0.16 0 0.18 0.16 0 0.2 0.16 0 0.22 0.16 0
          0.24 0.16 0 0.26 0.16 0 0.28 0.16 0 0.3 0.16 0
          0.32 0.16 0 0.34 0.16 0 0.36 0.16 0 0.38 0.16 0
          0.4 0.16 0 0.42 0.16 0 0.44 0.16 0 0.46 0.16 0
          0.48 0.16 0 0.5 0.16 0 0.52 0.16 0 0.54 0.16 0
          0.56 0.16 0 0.58 0.16 0 0.6 0.16 0 0.62 0.16 0
          0.64 0.16 0 0.66 0.16 0 0.68 0.16 0 0.7 0.16 0
          0.72 0.16 0 0.74 0.16 0 0.76 0.16 0 0.78 0.16 0
          0.8 0.16 0 0.82 0.16 0 0.84 0.16 0 0.86 0.16 0
          0.88 0.16 0 0.9 0.16 0 0.92 0.16 0 0.94 0.16 0
          0.96 0.16 0 0.98 0.16 0 1 0.16 0 0 0.18 0
          0.02 0.18 0 0.04 0.18 0 0.06 0.18 0 0.08 0.18 0
          0.1 0.18 0 0.12 0.18 0 0.14 0.18 0 0.16 0.18 0
          0.18 0.18 0 0.2 0.18 0 0.22 0.18 0 0.24 0.18 0
          0.26 0.18 0 0.28 0.18 0 0.3 0.18 0 0.32 0.18 0
          0.34 0.18 0 0.36 0.18 0 0.38 0.18 0 0.4 0.18 0
          0.42 0.18 0 0.44 0.18 0 0.46 0.18 0 0.48 0.18 0
          0.5 0.18 0 0.52 0.18 0 0.54 0.18 0 0.56 0.18 0
          0.58 0.18 0 0.6 0.18 0 0.62 0.18 0 0.64 0.18 0
          0.66 0.18 0 0.68 0.18 0 0.7 0.18 0 0.72 0.18 0
          0.74 0.18 0 0.76 0.18 0 0.78 0.18 0 0.8 0.18 0
          0.82 0.18 0 0.84 0.18 0 0.86 0.18 0 0.88 0.18 0
          0.9 0.18 0 0.92 0.18 0 0.94 0.18 0 0.96 0.18 0
          0.98 0.18 0 1 0.18 0 0 0.2 0 0.02 0.2 0
          0.04 0.2 0 0.06 0.2 0 0.08 0.2 0 0.1 0.2 0
          0.12 0.2 0 0.14 0.2 0 0.16 0.2 0 0.18 0.2 0
          0.2 0.2 0 0.22 0.2 0 0.24 0.2 0 0.26 0.2 0
          0.28 0.2 0 0.3 0.2 0 0.32 0.2 0 0.34 0.2 0
          0.36 0.2 0 0.38 0.2 0 0.4 0.2 0 0.42 0.2 0
          0.44 0.2 0 0.46 0.2 0 0.48 0.2 0 0.5 0.2 0
          0.52 0.2 0 0.54 0.2 0 0.56 0.2 0 0.58 0.2 0
          0.6 0.2 0 0.62 0.2 0 0.64 0.2 0 0.66 0.2 0
          0.68 0.2 0 0.7 0.2 0 0.72 0.2 0 0.74 0.2 0
          0.76 0.2 0 0.78 0.2 0 0.8 0.2 0 0.82 0.2 0
          0.84 0.2 0 0.86 0.2 0 0.88 0.2 0 0.9 0.2 0
          0.92 0.2 0 0.94 0.2 0 0.96 0.2 0 0.98 0.2 0
          1 0.2 0 0 0.22 0 0.02 0.22 0 0.04 0.22 0
          0.06 0.22 0 0.08 0.22 0 0.1 0.22 0 0.12 0.22 0
          0.14 0.22 0 0.16 0.22 0 0.18 0.22 0 0.2 0.22 0
          0.22 0.22 0 0.24 0.22 0 0.26 0.22 0 0.28 0.22 0
          0.3 0.22 0 0.32 0.22 0 0.34 0.22 0 0.36 0.22 0
          0.38 0.22 0 0.4 0.22 0 0.42 0.22 0 0.44 0.22 0
          0.46 0.22 0 0.48 0.22 0 0.5 0.22 0 0.52 0.22 0
          0.54 0.22 0 0.56 0.22 0 0.58 0.22 0 0.6 0.22 0
          0.62 0.22 0 0.64 0.22 0 0.66 0.22 0 0.68 0.22 0
          0.7 0.22 0 0.72 0.22 0 0.74 0.22 0 0.76 0.22 0
          0.78 0.22 0 0.8 0.22 0 0.82 0.22 0 0.84 0.22 0
          0.86 0.22 0 0.88 0.22 0 0.9 0.22 0 0.92 0.22 0
          0.94 0.22 0 0.96 0.22 0 0.98 0.22 0 1 0.22 0
          0 0.24 0 0.02 0.24 0 0.04 0.24 0 0.06 0.24 0
          0.08 0.24 0 0.1 0.24 0 0.12 0.24 0 0.14 0.24 0
          0.16 0.24 0 0.18 0.24 0 0.2 0.24 0 0.22 0.24 0
          0.24 0.24 0 0.26 0.24 0 0.28 0.24 0 0.3 0.24 0
          0.32 0.24 0 0.34 0.24 0 0.36 0.24 0 0.38 0.24 0
          0.4 0.24 0 0.42 0.24 0 0.44 0.24 0 0.46 0.24 0
          0.48 0.24 0 0.5 0.24 0 0.52 0.24 0 0.54 0.24 0
          0.56 0.24 0 0.58 0.24 0 0.6 0.24 0 0.62 0.24 0
          0.64 0.24 0 0.66 0.24 0 0.68 0.24 0 0.7 0.24 0
          0.72 0.24 0 0.74 0.24 0 0.76 0.24 0 0.78 0.24 0
          0.8 0.24 0 0.82 0.24 0 0.84 0.24 0 0.86 0.24 0
          0.88 0.24 0 0.9 0.24 0 0.92 0.24 0 0.94 0.24 0
          0.96 0.24 0 0.98 0.24 0 1 0.24 0 0 0.26 0
          0.02 0.26 0 0.04 0.26 0 0.06 0.26 0 0.08 0.26 0
          0.1 0.26 0 0.12 0.26 0 0.14 0.26 0 0.16 0.26 0
          0.18 0.26 0 0.2 0.26 0 0.22 0.26 0 0.24 0.26 0
          0.26 0.26 0 0.28 0.26 0 0.3 0.26 0 0.32 0.26 0
          0.34 0.26 0 0.36 0.26 0 0.38 0.26 0 0.4 0.26 0
          0.42 0.26 0 0.44 0.26 0 0.46 0.26 0 0.48 0.26 0
          0.5 0.26 0 0.52 0.26 0 0.54 0.26 0 0.56 0.26 0
          0.58 0.26 0 0.6 0.26 0 0.62 0.26 0 0.64 0.26 0
          0.66 0.26 0 0.68 0.26 0 0.7 0.26 0 0.72 0.26 0
          0.74 0.26 0 0.76 0.26 0 0.78 0.26 0 0.8 0.26 0
          0.82 0.26 0 0.84 0.26 0 0.86 0.26 0 0.88 0.26 0
          0.9 0.26 0 0.92 0.26 0 0.94 0.26 0 0.96 0.26 0
          0.98 0.26 0 1 0.26 0 0 0.28 0 0.02 0.28 0
          0.04 0.28 0 0.06 0.28 0 0.08 0.28 0 0.1 0.28 0
          0.12 0.28 0 0.14 0.28 0 0.16 0.28 0 0.18 0.28 0
          0.2 0.28 0 0.22 0.28 0 0.24 0.28 0 0.26 0.28 0
          0.28 0.28 0 0.3 0.28 0 0.32 0.28 0 0.34 0.28 0
          0.36 0.28 0 0.38 0.28 0 0.4 0.28 0 0.42 0.28 0
          0.44 0.28 0 0.46 0.28 0 0.48 0.28 0 0.5 0.28 0
          0.52 0.28 0 0.54 0.28 0 0.56 0.28 0 0.58 0.28 0
          0.6 0.28 0 0.62 0.28 0 0.64 0.28 0 0.66 0.28 0
          0.68 0.28 0 0.7 0.28 0 0.72 0.28 0 0.74 0.28 0
          0.76 0.28 0 0.78 0.28 0 0.8 0.28 0 0.82 0.28 0
          0.84 0.28 0 0.86 0.28 0 0.88 0.28 0 0.9 0.28 0
          0.92 0.28 0 0.94 0.28 0 0.96 0.28 0 0.98 0.28 0
          1 0.28 0 0 0.3 0 0.02 0.3 0 0.04 0.3 0
          0.06 0.3 0 0.08 0.3 0 0.1 0.3 0 0.12 0.3 0
          0.14 0.3 0 0.16 0.3 0 0.18 0.3 0 0.2 0.3 0
          0.22 0.3 0 0.24 0.3 0 0.26 0.3 0 0.28 0.3 0
          0.3 0.3 0 0.32 0.3 0 0.34 0.3 0 0.36 0.3 0
          0.38 0.3 0 0.4 0.3 0 0.42 0.3 0 0.44 0.3 0
          0.46 0.3 0 0.48 0.3 0 0.5 0.3 0 0.52 0.3 0
          0.54 0.3 0 0.56 0.3 0 0.58 0.3 0 0.6 0.3 0
          0.62 0.3 0 0.64 0.3 0 0.66 0.3 0 0.68 0.3 0
          0.7 0.3 0 0.72 0.3 0 0.74 0.3 0 0.76 0.3 0
          0.78 0.3 0 0.8 0.3 0 0.82 0.3 0 0.84 0.3 0
          0.86 0.3 0 0.88 0.3 0 0.9 0.3 0 0.92 0.3 0
          0.94 0.3 0 0.96 0.3 0 0.98 0.3 0 1 0.3 0
          0 0.32 0 0.02 0.32 0 0.04 0.32 0 0.06 0.32 0
          0.08 0.32 0 0.1 0.32 0 0.12 0.32 0 0.14 0.32 0
          0.16 0.32 0 0.18 0.32 0 0.2 0.32 0 0.22 0.32 0
          0.24 0.32 0 0.26 0.32 0 0.28 0.32 0 0.3 0.32 0
          0.32 0.32 0 0.34 0.32 0 0.36 0.32 0 0.38 0.32 0
          0.4 0.32 0 0.42 0.32 0 0.44 0.32 0 0.46 0.32 0
          0.48 0.32 0 0.5 0.32 0 0.52 0.32 0 0.54 0.32 0
          0.56 0.32 0 0.58 0.32 0 0.6 0.32 0 0.62 0.32 0
          0.64 0.32 0 0.66 0.32 0 0.68 0.32 0 0.7 0.32 0
          0.72 0.32 0 0.74 0.32 0 0.76 0.32 0 0.78 0.32 0
          0.8 0.32 0 0.82 0.32 0 0.84 0.32 0 0.86 0.32 0
          0.88 0.32 0 0.9 0.32 0 0.92 0.32 0 0.94 0.32 0
          0.96 0.32 0 0.98 0.32 0 1 0.32 0 0 0.34 0
          0.02 0.34 0 0.04 0.34 0 0.06 0.34 0 0.08 0.34 0
          0.1 0.34 0 0.12 0.34 0 0.14 0.34 0 0.16 0.34 0
          0.18 0.34 0 0.2 0.34 0 0.22 0.34 0 0.24 0.34 0
          0.26 0.34 0 0.28 0.34 0 0.3 0.34 0 0.32 0.34 0
          0.34 0.34 0 0.36 0.34 0 0.38 0.34 0 0.4 0.34 0
          0.42 0.34 0 0.44 0.34 0 0.46 0.34 0 0.48 0.34 0
          0.5 0.34 0 0.52 0.34 0 0.54 0.34 0 0.56 0.34 0
          0.58 0.34 0 0.6 0.34 0 0.62 0.34 0 0.64 0.34 0
          0.66 0.34 0 0.68 0.34 0 0.7 0.34 0 0.72 0.34 0
          0.74 0.34 0 0.76 0.34 0 0.78 0.34 0 0.8 0.34 0