<?xml version="1.0"?>
<VTKFile type="UnstructuredGrid" version="0.1" byte_order="LittleEndian">
  <UnstructuredGrid>
    <Piece NumberOfCells="1670" NumberOfPoints="911">
      <CellData Scalars="S_aq">
        <DataArray type="Float32" Name="S_aq" NumberOfComponents="1" format="ascii">
          0.216868 0.16307 0.167252 0.286679 0.277527 0.277522 0.163302 0.286655 0.16749 0.221917 0.19719 0.235933
          0.217844 0.206255 0.187761 0.241529 0.208563 0.215464 0.201206 0.22952 0.249664 0.181935 0.232452 0.242093
          0.186876 0.249324 0.229295 0.196515 0.225712 0.162971 0.207436 0.285982 0.216683 0.165567 0.279168 0.221955
          0.202673 0.182561 0.231294 0.241791 0.232232 0.194205 0.206318 0.202988 0.22486 0.200117 0.190075 0.22298
          0.171736 0.267056 0.223674 0.201256 0.241447 0.187376 0.287 0.16185 0.162182 0.286849 0.241369 0.187687
          0.208581 0.213085 0.278253 0.210865 0.165918 0.191001 0.258569 0.235043 0.192109 0.212423 0.25677 0.210812
          0.177724 0.207362 0.223419 0.192978 0.194503 0.232025 0.244335 0.17689 0.257843 0.176966 0.22904 0.234857
          0.188223 0.192018 0.222275 0.226144 0.160993 0.217948 0.288274 0.20616 0.247085 0.218299 0.205836 0.247728
          0.183148 0.279498 0.16507 0.165369 0.279372 0.247683 0.183455 0.235385 0.259147 0.176172 0.176062 0.25729
          0.185095 0.243986 0.185827 0.177653 0.160965 0.288483 0.257257 0.16122 0.288493 0.257185 0.177913 0.215057
          0.265488 0.20828 0.17234 0.173874 0.165539 0.279342 0.264006 0.16579 0.279358 0.263959 0.174129 0.183006
          0.247276 0.247339 0.183517 0.201216 0.20601 0.218111 0.235021 0.208104 0.255418 0.20362 0.215752 0.259442
          0.220809 0.178682 0.176013 0.234468 0.231868 0.267755 0.194797 0.231575 0.28001 0.192825 0.234138 0.171241
          0.280668 0.192231 0.165019 0.193807 0.268366 0.170655 0.164373 0.198851 0.191496 0.192043 0.181408 0.215612
          0.196737 0.208524 0.241493 0.200685 0.214287 0.209455 0.20974 0.214075 0.186531 0.249444 0.182007 0.172069
          0.265995 0.266089 0.249426 0.172357 0.182317 0.222645 0.217419 0.206116 0.24813 0.251981 0.23321 0.235158
          0.223334 0.201134 0.228892 0.196611 0.240826 0.187364 0.240879 0.187741 0.197672 0.195845 0.183887 0.181366
          0.196363 0.193652 0.176289 0.259068 0.172291 0.266097 0.266054 0.259012 0.172557 0.176555 0.21422 0.216764
          0.223382 0.225022 0.201117 0.19931 0.281934 0.269587 0.170033 0.163726 0.179853 0.228606 0.196904 0.289792
          0.159675 0.160446 0.28922 0.228184 0.197448 0.250891 0.22334 0.201255 0.206269 0.201888 0.221326 0.201921
          0.262512 0.173861 0.191872 0.214257 0.209563 0.216854 0.41014 0.420595 0.377986 0.371091 0.330011 0.316007
          0.319008 0.720955 0.311104 0.356527 0.324811 0.356739 0.677883 0.406728 0.321704 0.359306 0.593911 0.59773
          0.622709 0.499631 0.520218 0.458145 0.393691 0.382412 0.464829 0.475943 0.351664 0.452632 0.35527 0.399209
          0.391352 0.927408 0.300297 0.367417 0.836382 0.451189 0.52213 0.531128 0.449701 0.619843 0.345237 0.3633
          0.302771 0.314848 0.32986 0.532267 0.442587 0.420072 0.405967 0.547303 0.347191 0.353842 0.68425 0.312363
          0.72538 0.386677 0.299556 0.324857 0.343756 0.339196 0.601169 0.299722 0.672319 0.37074 0.408815 0.40211
          0.303109 0.391448 0.394871 0.346378 0.382261 0.339546 0.405081 0.742369 0.828065 0.927145 0.927377 0.351702
          0.620821 0.338814 0.490962 0.504329 0.546117 0.537198 0.421912 0.471295 0.467752 0.34448 0.467104 0.557092
          0.440612 0.496555 0.436682 0.367365 0.360692 0.359661 0.626807 0.30318 0.372647 0.32155 0.436206 0.727092
          0.362969 0.473806 0.321634 0.40846 0.454088 0.45404 0.611537 0.412513 0.536722 0.487095 0.496289 0.597714
          0.552846 0.68303 0.68043 0.336636 0.556181 0.353009 0.302709 0.69122 0.690981 0.637639 0.333724 0.380685
          0.560575 0.553031 0.39662 0.332347 0.372918 0.433258 0.352833 0.421939 0.313141 0.511073 0.388968 0.400549
          0.299396 0.348872 0.928268 0.559821 0.312271 0.500896 0.333589 0.308706 0.588311 0.422794 0.421767 0.302047
          0.381876 0.484662 0.37968 0.334023 0.409769 0.336911 0.501599 0.362622 0.529741 0.834027 0.835626 0.436737
          0.307387 0.851647 0.847975 0.325883 0.306759 0.409234 0.629909 0.302671 0.334134 0.550073 0.356851 0.352578
          0.542871 0.31211 0.327889 0.301868 0.319727 0.323331 0.345254 0.299318 0.58408 0.436462 0.667606 0.376823
          0.330984 0.43585 0.307136 0.692647 0.337118 0.308716 0.40939 0.307194 0.931686 0.930878 0.618766 0.49139
          0.323271 0.396941 0.748759 0.75201 0.598808 0.441513 0.302439 0.34502 0.73683 0.739051 0.3189 0.507253
          0.439365 0.844355 0.847386 0.338077 0.310893 0.434007 0.432811 0.408071 0.40046 0.327069 0.316821 0.308842
          0.316436 0.684798 0.571757 0.360294 0.328938 0.42066 0.423325 0.407861 0.464963 0.420899 0.319927 0.328088
          0.585647 0.488293 0.617175 0.4667 0.466563 0.312086 0.317289 0.31132 0.488047 0.321606 0.461489 0.537957
          0.689799 0.50707 0.362543 0.743829 0.741695 0.348834 0.448984 0.329048 0.347668 0.344707 0.464425 0.476809
          0.392482 0.536078 0.35716 0.361179 0.400877 0.308277 0.320266 0.391394 0.529424 0.338799 0.472761 0.40453
          0.315625 0.355492 0.349755 0.374302 0.390526 0.298818 0.512407 0.337838 0.312586 0.385934 0.366277 0.361042
          0.382918 0.316573 0.76138 0.434802 0.654913 0.318448 0.298913 0.421996 0.37375 0.468134 0.486144 0.328106
          0.856637 0.515002 0.433934 0.341261 0.575602 0.32389 0.328807 0.332719 0.376656 0.331058 0.309444 0.495258
          0.800799 0.799043 0.298723 0.332813 0.604529 0.338634 0.368243 0.369699 0.347486 0.304694 0.388805 0.332633
          0.341304 0.929984 0.928641 0.301885 0.708038 0.30565 0.325005 0.886152 0.884817 0.421218 0.313872 0.29874
          0.321597 0.420811 0.632627 0.340806 0.346923 0.376456 0.301527 0.6458 0.945419 0.298233 0.945214 0.34224
          0.50742 0.310725 0.369126 0.36915 0.458216 0.444632 0.306321 0.384168 0.301445 0.324791 0.435088 0.53718
          0.644043 0.379256 0.452365 0.36435 0.335371 0.347879 0.88867 0.889378 0.301457 0.343276 0.326108 0.447339
          0.306978 0.576152 0.329455 0.33524 0.547373 0.383585 0.319969 0.353207 0.385519 0.376483 0.308302 0.435398
          0.366013 0.562928 0.588322 0.374409 0.371054 0.315848 0.336699 0.458097 0.46674 0.300936 0.359612 0.316783
          0.316765 0.611414 0.620046 0.321902 0.715437 0.658471 0.560502 0.561942 0.345428 0.339569 0.311186 0.302627
          0.314098 0.603304 0.519444 0.603321 0.543985 0.451689 0.356904 0.302432 0.520857 0.326855 0.350753 0.366251
          0.35075 0.300267 0.483859 0.299231 0.300029 0.385289 0.499221 0.471278 0.527788 0.480641 0.433862 0.511378
          0.534564 0.552819 0.589623 0.388824 0.446803 0.332056 0.327369 0.596691 0.307744 0.435425 0.362347 0.326202
          0.590058 0.445096 0.644557 0.355302 0.575818 0.673954 0.315871 0.348291 0.313474 0.503739 0.323958 0.312331
          0.31986 0.317217 0.817398 0.469623 0.607021 0.627265 0.469529 0.480104 0.469966 0.532871 0.345318 0.436292
          0.615157 0.663405 0.369447 0.926147 0.492991 0.353611 0.313028 0.357316 0.307524 0.326875 0.3029 0.331968
          0.572224 0.32788 0.325477 0.318593 0.352422 0.35458 0.395001 0.32815 0.338858 0.607446 0.441116 0.302392
          0.37371 0.459183 0.328266 0.342296 0.723955 0.720515 0.680875 0.317781 0.347644 0.341403 0.388901 0.567948
          0.620043 0.685055 0.358566 0.381263 0.525198 0.526531 0.351505 0.303787 0.311167 0.92893 0.928459 0.299838
          0.926296 0.415851 0.741948 0.737417 0.468653 0.539139 0.503289 0.667954 0.355299 0.32383 0.828359 0.776433
          0.77633 0.590848 0.555657 0.625416 0.465247 0.321506 0.418572 0.333091 0.404739 0.450563 0.734758 0.564762
          0.505285 0.383436 0.414628 0.336857 0.428378 0.384931 0.462923 0.38427 0.321096 0.339323 0.395466 0.510047
          0.398932 0.410856 0.866555 0.865234 0.409839 0.439492 0.476339 0.418343 0.468741 0.504237 0.590551 0.374673
          0.48058 0.473886 0.527239 0.300088 0.328247 0.40198 0.315354 0.412552 0.335267 0.302465 0.35813 0.566585
          0.496468 0.352734 0.29926 0.39716 0.423019 0.34503 0.365357 0.339065 0.430667 0.747152 0.748016 0.323158
          0.49152 0.395177 0.320046 0.411496 0.8422 0.845375 0.39033 0.346996 0.37595 0.422001 0.367195 0.385607
          0.365086 0.306841 0.631635 0.302128 0.358299 0.32742 0.311573 0.302048 0.438945 0.321889 0.336582 0.437479
          0.489792 0.317025 0.345418 0.366421 0.299447 0.408833 0.446094 0.400609 0.338049 0.406257 0.404379 0.326971
          0.330575 0.364798 0.636262 0.352167 0.405477 0.839273 0.838735 0.538437 0.329007 0.673994 0.51252 0.299088
          0.30234 0.316504 0.68873 0.399781 0.931176 0.931376 0.311402 0.466978 0.754675 0.359936 0.698157 0.301774
          0.533614 0.850867 0.373368 0.307521 0.391643 0.408112 0.398935 0.551496 0.366569 0.557991 0.381255 0.391883
          0.514699 0.49897 0.439684 0.353848 0.315535 0.377784 0.368827 0.454075 0.347561 0.360333 0.332745 0.341282
          0.449602 0.535817 0.368142 0.35034 0.700009 0.589514 0.352397 0.326354 0.372423 0.384318 0.436545 0.317016
          0.338287 0.651117 0.382232 0.433076 0.331309 0.375752 0.315044 0.309696 0.326315 0.383273 0.437617 0.473324
          0.395387 0.581506 0.339019 0.320172 0.417554 0.298954 0.422769 0.621954 0.319952 0.478522 0.363704 0.936219
          0.936097 0.339748 0.307596 0.929278 0.927285 0.335962 0.33925 0.355634 0.411097 0.510049 0.397742 0.864777
          0.863777 0.368775 0.409558 0.646686 0.30711 0.298789 0.311392 0.394924 0.37744 0.646808 0.343132 0.3023
          0.306943 0.373455 0.311242 0.539697 0.446394 0.332487 0.561754 0.307577 0.42249 0.423722 0.33135 0.414931
          0.329234 0.359484 0.704096 0.703431 0.426156 0.310835 0.364278 0.427267 0.368873 0.416378 0.367403 0.308675
          0.38437 0.377984 0.316301 0.3215 0.379706 0.469838 0.319945 0.336076 0.330894 0.445024 0.338836 0.375066
          0.448735 0.36754 0.573313 0.376362 0.387485 0.307401 0.659806 0.683548 0.315333 0.321959 0.323833 0.332848
          0.409546 0.309789 0.765564 0.765444 0.741928 0.741363 0.451687 0.431766 0.390393 0.400861 0.522059 0.532006
          0.490457 0.483476 0.440052 0.424773 0.428066 0.787302 0.419406 0.468433 0.434374 0.468657 0.752876 0.518755
          0.430995 0.471349 0.684145 0.68735 0.708132 0.603687 0.621648 0.566737 0.506091 0.494906 0.572773 0.582753
          0.463328 0.56172 0.467113 0.511481 0.503788 0.946247 0.407719 0.479737 0.877107 0.560388 0.623317 0.631108
          0.559028 0.705772 0.456465 0.475485 0.410391 0.423471 0.439904 0.632069 0.552515 0.531495 0.518023 0.644983
          0.458569 0.465624 0.757974 0.420769 0.79084 0.499189 0.406965 0.434453 0.454895 0.450003 0.690237 0.407111
          0.748559 0.48312 0.520784 0.514316 0.410745 0.503897 0.507243 0.457694 0.49477 0.450358 0.517196 0.804177
          0.870947 0.945988 0.946175 0.463366 0.706534 0.449569 0.59609 0.607858 0.643934 0.636269 0.533232 0.578593
          0.575425 0.455683 0.574809 0.653222 0.550698 0.60098 0.547058 0.47968 0.472787 0.471721 0.711476 0.410749
          0.485068 0.430772 0.546618 0.792291 0.475125 0.580844 0.430906 0.520445 0.563053 0.563009 0.698816 0.524313
          0.635879 0.592644 0.600767 0.687355 0.649645 0.754905 0.757019 0.447223 0.652531 0.464747 0.410275 0.763651
          0.763448 0.720292 0.444085 0.493193 0.656242 0.649808 0.508977 0.442591 0.485365 0.543877 0.464531 0.533252
          0.421614 0.613698 0.501451 0.512809 0.406762 0.460343 0.946731 0.655576 0.420699 0.604857 0.443956 0.416829
          0.679514 0.53408 0.533092 0.409607 0.494389 0.59052 0.492182 0.444409 0.521698 0.44754 0.605454 0.474789
          0.629877 0.875195 0.876547 0.54711 0.415335 0.889007 0.886216 0.435534 0.41468 0.521176 0.714002 0.410198
          0.444521 0.647307 0.468767 0.464265 0.641154 0.420484 0.43777 0.409404 0.428794 0.432762 0.456503 0.406629
          0.675984 0.546833 0.744682 0.48932 0.441117 0.546266 0.415109 0.764805 0.447765 0.416809 0.521334 0.41515
          0.949262 0.948621 0.704861 0.59647 0.432684 0.509269 0.809231 0.811793 0.688274 0.55151 0.410021 0.456266
          0.799894 0.801704 0.427923 0.610345 0.549543 0.885581 0.883247 0.44879 0.419173 0.544569 0.543461 0.520062
          0.512718 0.436816 0.425663 0.416881 0.4252 0.758466 0.665606 0.472348 0.438847 0.532065 0.534579 0.519866
          0.572881 0.532271 0.429062 0.437959 0.677266 0.593699 0.703529 0.574452 0.574349 0.42041 0.426121 0.419606
          0.593491 0.430872 0.569741 0.636973 0.762449 0.610219 0.474713 0.805645 0.803949 0.460299 0.55837 0.439003
          0.459076 0.455913 0.572397 0.583503 0.504914 0.635322 0.469082 0.473264 0.513129 0.416322 0.429413 0.503854
          0.629572 0.449595 0.57991 0.516653 0.424328 0.467314 0.461311 0.486739 0.502992 0.406073 0.614892 0.448561
          0.420999 0.498443 0.478561 0.47314 0.495439 0.425362 0.819245 0.545299 0.734371 0.42742 0.406272 0.533325
          0.486206 0.575737 0.591834 0.437994 0.892672 0.617153 0.544497 0.452229 0.668851 0.433372 0.438745 0.442992
          0.489145 0.441182 0.417574 0.599881 0.849803 0.848445 0.406039 0.44312 0.693072 0.449396 0.480563 0.482049
          0.458884 0.412374 0.501289 0.442875 0.452266 0.947835 0.946818 0.409448 0.777093 0.41347 0.434607 0.915349
          0.914364 0.532588 0.422418 0.406063 0.430875 0.532201 0.716161 0.451755 0.458295 0.488918 0.408972 0.72694
          0.95933 0.959479 0.405451 0.45329 0.610529 0.419013 0.481481 0.481512 0.566796 0.554389 0.414196 0.496663
          0.408925 0.434383 0.545561 0.636244 0.725605 0.491746 0.56146 0.476559 0.44589 0.4593 0.917223 0.917742
          0.40886 0.454402 0.435795 0.556864 0.414949 0.669344 0.439429 0.445724 0.644969 0.496106 0.429101 0.464945
          0.498035 0.488973 0.416336 0.545848 0.478272 0.658159 0.679549 0.486871 0.483463 0.424589 0.447313 0.566692
          0.574515 0.408373 0.47164 0.425591 0.425575 0.698715 0.70587 0.431201 0.363572 0.344249 0.400458 0.301286
          0.305591 0.39701 0.305553 0.396943 0.30124 0.400381 0.358949 0.349148 0.362561 0.345423 0.37361 0.33336
          0.377987 0.328399 0.364838 0.343017 0.321956 0.369873 0.337565 0.327384 0.37207 0.335144 0.322281 0.383239
          0.358673 0.349478 0.400095 0.301723 0.363416 0.344498 0.304792 0.397581 0.327673 0.378618 0.363057 0.344895
          0.363401 0.344487 0.356195 0.341013 0.366662 0.351949 0.364793 0.34305 0.31114 0.392472 0.400497 0.301181
          0.37843 0.327884 0.327921 0.378415 0.301265 0.400448 0.358411 0.349731 0.397265 0.352992 0.305287 0.355209
          0.389047 0.332845 0.316171 0.388343 0.387082 0.317325 0.353505 0.354676 0.36399 0.343869 0.336341 0.347524
          0.342526 0.360544 0.365271 0.380282 0.316534 0.325755 0.380277 0.350154 0.337798 0.357995 0.36964 0.348318
          0.359761 0.401024 0.300548 0.381927 0.323784 0.39772 0.304601 0.382356 0.323271 0.323308 0.38233 0.304677
          0.397662 0.315747 0.374149 0.374153 0.332787 0.388093 0.325823 0.31693 0.387715 0.333907 0.300384 0.401111
          0.387651 0.317004 0.316984 0.387612 0.300384 0.40108 0.391501 0.351061 0.312029 0.357105 0.304704 0.397696
          0.390993 0.312968 0.312944 0.390945 0.304689 0.397651 0.382391 0.323481 0.323681 0.38206 0.371337 0.373023
          0.335629 0.333733 0.386685 0.388784 0.318125 0.315603 0.362368 0.35774 0.345604 0.350362 0.398209 0.393412
          0.392801 0.371375 0.310707 0.373318 0.335819 0.397922 0.304338 0.335633 0.371578 0.333662 0.304007 0.310361
          0.333462 0.37352 0.385994 0.370812 0.366029 0.336822 0.341641 0.370966 0.373927 0.377736 0.333168 0.328395
          0.38205 0.368261 0.368605 0.339259 0.338889 0.373524 0.392001 0.383353 0.3117 0.322145 0.322183 0.383321
          0.311765 0.391936 0.382053 0.32054 0.323029 0.34858 0.343617 0.359514 0.364227 0.372237 0.334906 0.374105
          0.332813 0.378735 0.328142 0.328321 0.378029 0.357376 0.352479 0.355704 0.350757 0.378435 0.385162 0.391982
          0.388628 0.311778 0.315836 0.31582 0.311764 0.388588 0.391941 0.398759 0.393977 0.303384 0.309752 0.341655
          0.366042 0.343097 0.364684 0.401578 0.299743 0.368758 0.338716 0.338479 0.368978 0.299998 0.401319 0.384055
          0.321321 0.353465 0.354724 0.350928 0.357229 0.39043 0.313711 0.344965 0.362935 0.380616 0.365863 0.341816
          0.359022 0.349075
        </DataArray>
        <DataArray type="Float32" Name="p_aq" NumberOfComponents="1" format="ascii">
          100087 100132 100131 100043 100045 100045 100132 100043 100131 100081 100109 100068
          100086 100099 100118 100064 100097 100088 100104 100074 100058 100123 100072 100063
          100119 100059 100074 100110 100078 100132 100098 100043 100087 100131 100045 100081
          100103 100122 100072 100064 100072 100112 100099 100102 100079 100105 100116 100080
          100129 100049 100080 100105 100064 100119 100043 100132 100132 100043 100064 100119
          100096 100091 100045 100094 100131 100115 100053 100069 100114 100092 100054 100094
          100126 100097 100080 100113 100112 100072 100062 100126 100054 100126 100074 100069
          100118 100114 100081 100077 100132 100086 100042 100099 100060 100085 100099 100060
          100122 100045 100131 100131 100045 100060 100122 100069 100053 100127 100127 100054
          100120 100062 100120 100126 100132 100042 100054 100132 100042 100054 100126 100089
          100050 100097 100129 100128 100131 100045 100051 100131 100045 100051 100128 100122
          100060 100060 100122 100104 100099 100086 100069 100097 100055 100102 100088 100053
          100083 100125 100127 100070 100072 100049 100112 100072 100045 100114 100070 100129
          100044 100114 100131 100112 100049 100129 100131 100107 100114 100114 100123 100088
          100109 100096 100064 100105 100090 100095 100095 100090 100119 100059 100123 100129
          100050 100050 100059 100129 100123 100081 100086 100099 100059 100057 100070 100069
          100080 100104 100075 100109 100064 100118 100064 100118 100108 100110 100121 100123
          100110 100112 100127 100053 100129 100050 100050 100053 100129 100127 100090 100087
          100080 100079 100105 100107 100044 100048 100130 100132 100124 100075 100109 100042
          100132 100132 100042 100075 100109 100058 100080 100104 100099 100103 100082 100104
          100051 100128 100114 100090 100095 100087 100009 100008 100013 100015 100026 100032
          100031 100000 100034 100018 100028 100018 100001 100009 100029 100017 100001 100001
          100001 100003 100002 100005 100011 100013 100005 100004 100019 100005 100018 100010
          100011 100000 100039 100015 100000 100005 100002 100002 100005 100001 100021 100016
          100038 100032 100026 100002 100006 100008 100009 100002 100021 100019 100001 100033
          100000 100012 100039 100028 100022 100023 100001 100039 100001 100015 100009 100010
          100037 100011 100011 100021 100013 100023 100009 100000 100000 100000 100000 100019
          100001 100023 100003 100003 100002 100002 100008 100004 100004 100021 100004 100002
          100006 100003 100006 100015 100017 100017 100001 100037 100014 100030 100006 100000
          100016 100004 100029 100009 100005 100005 100001 100008 100002 100004 100003 100001
          100002 100001 100001 100024 100002 100019 100038 100000 100000 100001 100025 100013
          100002 100002 100010 100025 100014 100007 100019 100008 100033 100003 100012 100010
          100039 100020 100000 100002 100033 100003 100025 100035 100001 100007 100008 100038
          100013 100004 100013 100025 100009 100024 100003 100016 100002 100000 100000 100006
          100036 100000 100000 100028 100036 100009 100001 100038 100025 100002 100018 100019
          100002 100033 100027 100038 100030 100029 100021 100039 100001 100006 100001 100014
          100026 100006 100036 100000 100024 100035 100009 100036 100000 100000 100001 100003
          100029 100010 100000 100000 100001 100006 100038 100021 100000 100000 100031 100003
          100006 100000 100000 100023 100034 100007 100007 100009 100010 100027 100031 100035
          100032 100001 100001 100017 100027 100008 100007 100009 100005 100008 100030 100027
          100001 100003 100001 100004 100004 100034 100031 100034 100004 100029 100005 100002
          100000 100003 100016 100000 100000 100020 100005 100027 100020 100021 100005 100004
          100011 100002 100018 100017 100010 100035 100030 100011 100002 100023 100004 100009
          100032 100018 100020 100014 100011 100039 100003 100023 100033 100012 100016 100017
          100012 100032 100000 100006 100001 100031 100039 100008 100014 100004 100004 100027
          100000 100003 100007 100022 100001 100029 100027 100025 100014 100026 100035 100003
          100000 100000 100039 100025 100001 100023 100015 100015 100020 100037 100012 100025
          100022 100000 100000 100038 100000 100036 100028 100000 100000 100008 100033 100039
          100029 100008 100001 100022 100021 100014 100038 100001 100000 100040 100000 100022
          100003 100034 100015 100015 100005 100006 100036 100012 100038 100028 100006 100002
          100001 100013 100005 100016 100024 100020 100000 100000 100038 100022 100028 100006
          100036 100001 100026 100024 100002 100012 100030 100019 100012 100014 100035 100006
          100016 100002 100001 100014 100015 100032 100024 100005 100004 100038 100017 100031
          100032 100001 100001 100029 100000 100001 100002 100002 100021 100023 100034 100038
          100033 100001 100003 100001 100002 100005 100018 100038 100003 100027 100019 100016
          100019 100039 100004 100039 100039 100012 100003 100004 100002 100004 100007 100003
          100002 100002 100001 100012 100006 100026 100027 100001 100035 100006 100017 100028
          100001 100006 100001 100018 100001 100001 100032 100020 100033 100003 100029 100033
          100030 100031 100000 100004 100001 100001 100004 100004 100004 100002 100021 100006
          100001 100001 100015 100000 100003 100019 100033 100018 100035 100027 100038 100026
          100002 100027 100028 100031 100019 100018 100011 100027 100023 100001 100006 100038
          100014 100005 100027 100022 100000 100000 100001 100031 100020 100022 100012 100002
          100001 100001 100017 100013 100002 100002 100019 100037 100034 100000 100000 100039
          100000 100008 100000 100000 100004 100002 100003 100001 100018 100029 100000 100000
          100000 100001 100002 100001 100005 100030 100008 100025 100009 100005 100000 100002
          100003 100012 100008 100024 100007 100012 100005 100012 100030 100023 100011 100003
          100010 100009 100000 100000 100009 100006 100004 100008 100004 100003 100001 100014
          100004 100004 100002 100039 100027 100010 100032 100008 100024 100038 100018 100002
          100003 100019 100039 100010 100007 100021 100016 100023 100007 100000 100000 100029
          100003 100011 100030 100009 100000 100000 100011 100021 100014 100008 100015 100012
          100016 100036 100001 100038 100018 100027 100034 100038 100006 100029 100024 100006
          100003 100031 100021 100016 100039 100009 100006 100010 100023 100009 100009 100027
          100026 100016 100001 100019 100009 100000 100000 100002 100027 100001 100003 100039
          100038 100032 100000 100010 100000 100000 100034 100004 100000 100017 100000 100038
          100002 100000 100014 100035 100011 100009 100010 100002 100016 100002 100013 100011
          100003 100003 100006 100019 100032 100013 100015 100005 100020 100017 100025 100022
          100005 100002 100015 100020 100000 100001 100019 100028 100014 100012 100006 100031
          100023 100001 100013 100007 100026 100014 100032 100034 100028 100012 100006 100004
          100011 100001 100023 100030 100008 100039 100007 100001 100030 100004 100016 100000
          100000 100023 100035 100000 100000 100024 100023 100018 100009 100003 100010 100000
          100000 100015 100009 100001 100036 100039 100034 100011 100013 100001 100022 100038
          100036 100014 100034 100002 100006 100025 100002 100035 100008 100007 100026 100008
          100026 100017 100000 100000 100007 100034 100016 100007 100015 100008 100015 100035
          100012 100013 100032 100029 100013 100004 100030 100024 100026 100006 100023 100014
          100005 100015 100001 100014 100012 100036 100001 100001 100032 100029 100029 100025
          100009 100034 100000 100000 100000 100000 100005 100007 100011 100010 100007 100007
          100010 100011 100018 100022 100021 100000 100023 100013 100020 100013 100001 100008
          100020 100013 100001 100001 100001 100003 100003 100005 100009 100010 100004 100004
          100014 100005 100014 100008 100009 100000 100026 100012 100000 100005 100003 100002
          100005 100001 100015 100012 100026 100022 100018 100002 100005 100007 100008 100002
          100015 100014 100001 100023 100000 100009 100026 100020 100016 100016 100001 100026
          100001 100011 100007 100008 100025 100009 100009 100015 100010 100016 100008 100000
          100000 100000 100000 100014 100001 100017 100003 100003 100002 100002 100006 100004
          100004 100015 100004 100002 100005 100003 100006 100012 100013 100013 100001 100025
          100011 100021 100006 100000 100012 100004 100020 100007 100005 100005 100001 100007
          100002 100003 100003 100001 100002 100001 100001 100017 100002 100014 100026 100001
          100001 100001 100018 100010 100002 100002 100008 100018 100011 100006 100014 100006
          100023 100003 100009 100008 100026 100015 100000 100002 100023 100003 100018 100024
          100001 100006 100006 100026 100010 100004 100010 100018 100007 100017 100003 100012
          100002 100000 100000 100006 100024 100000 100000 100019 100024 100007 100001 100026
          100018 100002 100013 100014 100002 100023 100019 100026 100021 100020 100015 100027
          100001 100006 100001 100010 100018 100006 100024 100001 100017 100024 100007 100024
          100000 100000 100001 100003 100020 100008 100000 100000 100001 100005 100026 100015
          100000 100000 100021 100003 100005 100000 100000 100017 100023 100006 100006 100007
          100008 100019 100022 100024 100022 100001 100002 100013 100019 100007 100006 100007
          100004 100007 100021 100019 100001 100003 100001 100004 100004 100023 100022 100023
          100003 100020 100004 100002 100001 100003 100012 100000 100000 100015 100005 100019
          100015 100015 100004 100004 100009 100002 100013 100013 100008 100024 100021 100009
          100002 100017 100004 100008 100022 100014 100014 100011 100009 100027 100003 100017
          100023 100009 100012 100013 100010 100022 100000 100006 100001 100021 100027 100006
          100011 100004 100003 100019 100000 100003 100006 100016 100002 100020 100019 100018
          100011 100018 100024 100003 100000 100000 100027 100018 100001 100017 100012 100011
          100015 100025 100009 100018 100016 100000 100000 100026 100001 100025 100020 100000
          100000 100006 100022 100027 100020 100006 100001 100016 100015 100011 100026 100001
          100000 100000 100027 100016 100003 100023 100011 100011 100005 100005 100025 100010
          100026 100020 100006 100002 100001 100010 100005 100012 100017 100015 100000 100000
          100026 100016 100019 100005 100024 100002 100019 100017 100002 100010 100021 100014
          100009 100011 100024 100006 100012 100002 100001 100011 100011 100022 100017 100005
          100004 100026 100013 100022 100022 100001 100001 100020 100037 100040 100028 100041
          100041 100029 100041 100029 100041 100028 100038 100040 100037 100040 100035 100041
          100034 100042 100037 100040 100042 100036 100041 100042 100035 100041 100042 100033
          100038 100040 100028 100041 100037 100040 100041 100029 100042 100034 100037 100040
          100037 100040 100039 100041 100037 100039 100037 100040 100042 100030 100028 100041
          100034 100042 100042 100034 100041 100028 100038 100040 100029 100039 100041 100039
          100031 100041 100042 100031 100032 100042 100039 100039 100037 100040 100041 100040
          100041 100038 100037 100033 100042 100042 100033 100040 100041 100038 100036 100040
          100038 100028 100041 100033 100042 100029 100041 100033 100042 100042 100033 100041
          100029 100042 100035 100035 100041 100031 100042 100042 100032 100041 100041 100028
          100032 100042 100042 100032 100041 100028 100031 100039 100042 100038 100041 100029
          100031 100042 100042 100031 100041 100029 100033 100042 100042 100033 100036 100035
          100041 100041 100032 100031 100042 100042 100038 100038 100040 100040 100029 100030
          100030 100036 100042 100035 100041 100029 100041 100041 100036 100041 100041 100041
          100041 100035 100032 100036 100037 100041 100041 100036 100035 100034 100041 100042
          100033 100036 100036 100041 100041 100035 100030 100033 100042 100042 100042 100033
          100042 100030 100033 100042 100042 100040 100040 100038 100037 100035 100041 100035
          100041 100034 100042 100042 100034 100038 100039 100039 100040 100034 100032 100030
          100031 100042 100042 100042 100042 100031 100030 100029 100030 100041 100041 100041
          100037 100040 100037 100028 100041 100036 100041 100041 100036 100041 100028 100033
          100042 100039 100039 100039 100038 100031 100042 100040 100037 100033 100037 100041
          100038 100040
        </DataArray>
        <DataArray type="Float32" Name="rho_aq" NumberOfComponents="1" format="ascii">
          1000 1000 1000 1000 1000 1000 1000 1000 1000 1000 1000 1000
          1000 1000 1000 1000 1000 1000 1000 1000 1000 1000 1000 1000