<?xml version="1.0"?>
<VTKFile type="UnstructuredGrid" version="0.1" byte_order="LittleEndian">
  <UnstructuredGrid>
    <Piece NumberOfCells="1000" NumberOfPoints="1331">
      <CellData Scalars="wetting pressure">
        <DataArray type="Float32" Name="wetting pressure" NumberOfComponents="1" format="ascii">
          265545 270749 272318 271363 268371 263501 256697 247721 236068 220665 265552 270770
          272360 271435 268481 263652 256867 247877 236175 220703 265561 270802 272425 271548
          268662 263928 257193 248185 236385 220775 265568 270827 272478 271647 268803 264242
          257614 248624 236672 220868 265568 270828 272484 271665 268812 264212 257895 249128
          236922 220934 265557 270794 272425 271578 268726 264173 257556 248573 236636 220855
          265538 270733 272315 271407 268502 263765 257045 248062 236303 220746 265516 270664
          272189 271210 268220 263379 256610 247665 236034 220653 265497 270606 272085 271050
          267997 263099 256311 247400 235855 220591 265486 270573 272026 270962 267878 262955
          256161 247268 235766 220560 261995 264556 264992 263523 260332 255476 248891 240435
          229904 217126 262002 264581 265044 263614 260477 255677 249110 240630 230035 217171
          262014 264621 265127 263767 260738 256083 249563 241041 230309 217263 262023 264653
          265200 263909 260952 256666 250264 241715 230753 217397 262023 264657 265219 263978
          261192 256740 250563 242591 231433 217529 262011 264618 265145 263840 260871 256568
          250234 241674 230720 217385 261989 264549 265013 263621 260578 255920 249422 240921
          230228 217234 261965 264470 264865 263379 260205 255392 248844 240410 229889 217120
          261944 264404 264744 263188 259932 255046 248478 240092 229677 217046 261932 264367
          264677 263086 259791 254875 248302 239939 229575 217011 260243 260461 259522 257312
          253813 248980 242737 235028 225857 215391 260252 260494 259592 257439 254022 249264
          243035 235283 226023 215447 260268 260547 259706 257664 254443 249888 243691 235842
          226381 215565 260280 260592 259813 257892 254867 250825 244858 236835 226991 215744
          260282 260602 259850 258022 255347 251137 245393 238154 227974 215930 260267 260555
          259755 257823 254809 250788 244880 236816 226965 215733 260241 260469 259584 257511
          254288 249740 243568 235730 226300 215535 260211 260372 259396 257183 253729 248960
          242754 235049 225867 215392 260186 260292 259246 256938 253365 248498 242277 234647
          225605 215303 260172 260248 259165 256811 253186 248281 242056 234460 225482 215260
          259126 257489 255256 252265 248419 243611 237751 230831 222937 214293 259138 257532
          255345 252432 248699 243981 238125 231140 223135 214359 259157 257599 255496 252736
          249295 244826 238962 231821 223557 214496 259174 257660 255639 253053 249946 246078
          240474 233021 224262 214702 259176 257674 255690 253220 250510 246471 241136 234510
          225322 214907 259159 257618 255576 252978 249882 246021 240733 233056 224247 214692
          259128 257513 255361 252569 249131 244678 238886 231724 223478 214466 259092 257395
          255126 252145 248372 243647 237826 230889 222964 214299 259062 257298 254941 251838
          247907 243061 237230 230402 222654 214194 259045 257245 254842 251681 247684 242793
          236959 230177 222508 214144 258261 255073 251657 247907 243709 238924 233451 227301
          220572 213447 258276 255124 251766 248109 244047 239361 233883 227649 220791 213520
          258299 255207 251948 248478 244769 240358 234835 228403 221249 213668 258319 255280
          252121 248860 245563 241795 236508 229689 221979 213881 258323 255298 252182 249045
          246138 242195 237238 231225 222977 214079 258304 255234 252051 248776 245487 241707
          236984 229766 221970 213872 258266 255110 251797 248291 244585 240195 234786 228309
          221164 213635 258224 254969 251517 247784 243676 238984 233551 227369 220601 213453
          258188 254854 251297 247416 243120 238295 232858 226813 220252 213336 258168 254791
          251178 247229 242856 237978 232542 226554 220086 213279 257469 252832 248285 243794
          239249 234488 229400 224000 218385 212675 257487 252893 248412 244028 239633 234978
          229875 224379 218621 212753 257514 252989 248623 244447 240435 236066 230897 225177
          219099 212907 257538 253074 248821 244872 241294 237574 232613 226477 219817 213118
          257542 253095 248888 245068 241874 237984 233354 227998 220695 213297 257520 253022
          248742 244779 241211 237495 232894 226507 219794 213105 257477 252880 248453 244236
          240227 235874 230783 225046 218995 212868 257428 252717 248130 243657 239209 234544
          229484 224053 218402 212676 257386 252583 247873 243233 238574 233767 228720 223443
          218021 212549 257363 252508 247735 243014 238268 233404 228363 223153 217837 212486
          256613 250441 244732 239502 234623 229893 225184 220534 216060 211843 256633 250512
          244880 239772 235060 230445 225715 220954 216318 211928 256666 250624 245123 240247
          235944 231627 226817 221807 216823 212090 256693 250721 245346 240714 236850 233179
          228560 223122 217533 212300 256698 250746 245421 240923 237442 233608 229306 224626
          218290 212460 256673 250664 245258 240611 236761 233107 228566 223088 217493 212283
          256624 250502 244932 240010 235709 231400 226618 221631 216698 212045 256567 250314
          244561 239353 234579 229947 225255 220575 216067 211840 256519 250158 244263 238861
          233850 229066 224404 219898 215647 211700 256491 250071 244101 238605 233493 228646
          223997 219571 215439 211629 255510 247516 240551 234590 229411 224726 220381 216474
          213222 210771 255534 247600 240729 234918 229946 225398 221019 216970 213521 210869
          255572 247732 241017 235481 230985 226770 222296 217953 214094 211052 255604 247846
          241277 236016 231986 228420 224153 219372 214848 211275 255611 247876 241364 236250
          232618 228897 224945 220908 215521 211426 255583 247784 241181 235904 231891 228342
          224169 219341 214807 211258 255527 247598 240807 235221 230727 226520 222077 217760
          213957 211002 255461 247381 240375 234451 229409 224840 220502 216546 213241 210772
          255405 247200 240024 233863 228530 223780 219491 215752 212755 210610 255374 247098
          239833 233556 228096 223272 219004 215365 212513 210529 253775 243476 235192 228568
          223171 218550 214504 211263 209284 209071 253803 243577 235410 228992 223906 219480
          215356 211899 209654 209190 253848 243733 235760 229706 225283 221321 217067 213180
          210367 209411 253885 243867 236071 230359 226517 223184 219248 214988 211292 209680
          253893 243904 236178 230644 227270 223779 220130 216500 211992 209846 253862 243801
          235970 230240 226417 223077 219589 215050 211274 209667 253799 243590 235536 229429
          225013 221063 216896 213008 210234 209361 253724 243341 235027 228486 223329 218882
          214804 211446 209354 209085 253661 243131 234610 227759 222182 217483 213503 210457
          208766 208893 253625 243014 234385 227384 221632 216834 212896 209987 208479 208798
          250236 237324 227954 220895 215423 210872 206973 204154 203213 205560 250268 237437
          228212 221443 216563 212350 208169 204976 203662 205699 250317 237614 228626 222362
          218639 215469 211001 206805 204575 205969 250358 237766 228988 223170 220382 217429
          213905 210094 205881 206313 250368 237809 229116 223531 221450 218354 214785 211211
          206930 206535 250335 237697 228883 223049 220283 217344 213861 210307 205895 206305
          250267 237466 228394 222079 218375 215225 210831 206662 204451 205920 250186 237191
          227812 220920 216003 211775 207600 204508 203351 205590 250116 236960 227338 220031
          214358 209717 205890 203289 202660 205370 250078 236832 227084 219589 213665 208890
          205151 202738 202333 205263
        </DataArray>
        <DataArray type="Float32" Name="nonwetting pressure" NumberOfComponents="1" format="ascii">
          265545 270749 272318 271363 268371 263501 256697 247721 236068 220665 265552 270770
          272360 271435 268481 263652 256867 247877 236175 220703 265561 270802 272425 271548
          268662 263928 257193 248185 236385 220775 265568 270827 272478 271647 268816 264242
          257614 248624 236672 220868 265568 270828 272484 271665 269219 264356 257953 249128
          236922 220934 265557 270794 272425 271578 268741 264173 257556 248573 236636 220855
          265538 270733 272315 271407 268502 263765 257045 248062 236303 220746 265516 270664
          272189 271210 268220 263379 256610 247665 236034 220653 265497 270606 272085 271050
          267997 263099 256311 247400 235855 220591 265486 270573 272026 270962 267878 262955
          256161 247268 235766 220560 261995 264556 264992 263523 260332 255476 248891 240435
          229904 217126 262002 264581 265044 263614 260477 255677 249110 240630 230035 217171
          262014 264621 265127 263767 260738 256083 249563 241041 230309 217263 262023 264653
          265200 263909 261019 256693 250264 241715 230753 217397 262023 264657 265219 263978
          261876 257078 250743 242671 231433 217529 262011 264618 265145 263840 260944 256603
          250234 241674 230720 217385 261989 264549 265013 263621 260578 255920 249422 240921
          230228 217234 261965 264470 264865 263379 260205 255392 248844 240410 229889 217120
          261944 264404 264744 263188 259932 255046 248478 240092 229677 217046 261932 264367
          264677 263086 259791 254875 248302 239939 229575 217011 260243 260461 259522 257312
          253813 248980 242737 235028 225857 215391 260252 260494 259592 257439 254022 249264
          243035 235283 226023 215447 260268 260547 259706 257664 254443 249888 243691 235842
          226381 215565 260280 260592 259813 257892 255005 250907 244858 236835 226991 215744
          260282 260602 259850 258022 256146 251581 245652 238282 227974 215930 260267 260555
          259755 257823 254953 250877 244880 236816 226965 215733 260241 260469 259584 257511
          254288 249740 243568 235730 226300 215535 260211 260372 259396 257183 253729 248960
          242754 235049 225867 215392 260186 260292 259246 256938 253365 248498 242277 234647
          225605 215303 260172 260248 259165 256811 253186 248281 242056 234460 225482 215260
          259126 257489 255256 252265 248419 243611 237751 230831 222937 214293 259138 257532
          255345 252432 248699 243981 238125 231140 223135 214359 259157 257599 255496 252736
          249295 244826 238962 231821 223557 214496 259174 257660 255639 253053 250124 246199
          240474 233021 224262 214702 259176 257674 255690 253220 251336 246946 241420 234651
          225322 214907 259159 257618 255576 252978 250066 246150 240733 233056 224247 214692
          259128 257513 255361 252569 249131 244678 238886 231724 223478 214466 259092 257395
          255126 252145 248372 243647 237826 230889 222964 214299 259062 257298 254941 251838
          247907 243061 237230 230402 222654 214194 259045 257245 254842 251681 247684 242793
          236959 230177 222508 214144 258261 255073 251657 247907 243709 238924 233451 227301
          220572 213447 258276 255124 251766 248109 244047 239361 233883 227649 220791 213520
          258299 255207 251948 248478 244769 240358 234835 228403 221249 213668 258319 255280
          252121 248860 245750 241929 236508 229689 221979 213881 258323 255298 252182 249045
          246964 242675 237523 231360 222977 214079 258304 255234 252051 248776 245681 241850
          236992 229766 221970 213872 258266 255110 251797 248291 244585 240195 234786 228309
          221164 213635 258224 254969 251517 247784 243676 238984 233551 227369 220601 213453
          258188 254854 251297 247416 243120 238295 232858 226813 220252 213336 258168 254791
          251178 247229 242856 237978 232542 226554 220086 213279 257469 252832 248285 243794
          239249 234488 229400 224000 218385 212675 257487 252893 248412 244028 239633 234978
          229875 224379 218621 212753 257514 252989 248623 244447 240435 236066 230897 225177
          219099 212907 257538 253074 248821 244872 241478 237710 232613 226477 219817 213118
          257542 253095 248888 245068 242692 238462 233633 228118 220695 213297 257520 253022
          248742 244779 241403 237640 232894 226507 219794 213105 257477 252880 248453 244236
          240227 235874 230783 225046 218995 212868 257428 252717 248130 243657 239209 234544
          229484 224053 218402 212676 257386 252583 247873 243233 238574 233767 228720 223443
          218021 212549 257363 252508 247735 243014 238268 233404 228363 223153 217837 212486
          256613 250441 244732 239502 234623 229893 225184 220534 216060 211843 256633 250512
          244880 239772 235060 230445 225715 220954 216318 211928 256666 250624 245123 240247
          235944 231627 226817 221807 216823 212090 256693 250721 245346 240714 237029 233314
          228560 223122 217533 212300 256698 250746 245421 240923 238254 234084 229576 224727
          218290 212460 256673 250664 245258 240611 236948 233250 228566 223088 217493 212283
          256624 250502 244932 240010 235709 231400 226618 221631 216698 212045 256567 250314
          244561 239353 234579 229947 225255 220575 216067 211840 256519 250158 244263 238861
          233850 229066 224404 219898 215647 211700 256491 250071 244101 238605 233493 228646
          223997 219571 215439 211629 255510 247516 240551 234590 229411 224726 220381 216474
          213222 210771 255534 247600 240729 234918 229946 225398 221019 216970 213521 210869
          255572 247732 241017 235481 230985 226770 222296 217953 214094 211052 255604 247846
          241277 236016 232164 228556 224153 219372 214848 211275 255611 247876 241364 236250
          233433 229373 225208 220985 215521 211426 255583 247784 241181 235904 232077 228486
          224169 219341 214807 211258 255527 247598 240807 235221 230727 226520 222077 217760
          213957 211002 255461 247381 240375 234451 229409 224840 220502 216546 213241 210772
          255405 247200 240024 233863 228530 223780 219491 215752 212755 210610 255374 247098
          239833 233556 228096 223272 219004 215365 212513 210529 253775 243476 235192 228568
          223171 218550 214504 211263 209284 209071 253803 243577 235410 228992 223906 219480
          215356 211899 209654 209190 253848 243733 235760 229706 225283 221321 217067 213180
          210367 209411 253885 243867 236071 230359 226714 223333 219248 214988 211292 209680
          253893 243904 236178 230644 228123 224272 220397 216565 211992 209846 253862 243801
          235970 230240 226623 223237 219596 215050 211274 209667 253799 243590 235536 229429
          225013 221063 216896 213008 210234 209361 253724 243341 235027 228486 223329 218882
          214804 211446 209354 209085 253661 243131 234610 227759 222182 217483 213503 210457
          208766 208893 253625 243014 234385 227384 221632 216834 212896 209987 208479 208798
          250236 237324 227954 220895 215423 210872 206973 204154 203213 205560 250268 237437
          228212 221443 216563 212350 208169 204976 203662 205699 250317 237614 228626 222362
          218805 215609 211001 206805 204575 205969 250358 237766 228988 223170 220962 217923
          214177 210104 205881 206313 250368 237809 229116 223531 222821 219291 215403 211493
          206930 206535 250335 237697 228883 223049 220876 217850 214142 210326 205895 206305
          250267 237466 228394 222079 218555 215381 210831 206662 204451 205920 250186 237191
          227812 220920 216003 211775 207600 204508 203351 205590 250116 236960 227338 220031
          214358 209717 205890 203289 202660 205370 250078 236832 227084 219589 213665 208890
          205151 202738 202333 205263
        </DataArray>
        <DataArray type="Float32" Name="wetting saturation" NumberOfComponents="1" format="ascii">
          1 1 1 1 1 1 1 1 1 1 1 1
          1 1 1 1 1 1 1 1 1 1 1 1
          1 1 1 1 1 1 1 1 1 1 0.998728 1
          1 1 1 1 1 1 1 1 0.95928 0.985584 0.99421 1
          1 1 1 1 1 1 0.998468 1 1 1 1 1
          1 1 1 1 1 1 1 1 1 1 1 1
          1 1 1 1 1 1 1 1 1 1 1 1
          1 1 1 1 1 1 1 1 1 1 1 1
          1 1 1 1 1 1 1 1 1 1 1 1
          1 1 1 1 1 1 1 1 1 1 1 1
          1 1 1 1 1 1 1 1 1 1 1 1
          1 1 0.993354 0.997263 1 1 1 1 1 1 1 1
          0.931566 0.966177 0.981976 0.991933 1 1 1 1 1 1 0.992684 0.996508
          1 1 1 1 1 1 1 1 1 1 1 1
          1 1 1 1 1 1 1 1 1 1 1 1
          1 1 1 1 1 1 1 1 1 1 1 1
          1 1 1 1 1 1 1 1 1 1 1 1
          1 1 1 1 1 1 1 1 1 1 1 1
          1 1 1 1 1 1 1 1 1 1 1 1
          1 1 1 1 1 1 0.986257 0.991797 1 1 1 1
          1 1 1 1 0.92016 0.955593 0.974125 0.987241 1 1 1 1
          1 1 0.985574 0.991111 1 1 1 1 1 1 1 1
          1 1 1 1 1 1 1 1 1 1 1 1
          1 1 1 1 1 1 1 1 1 1 1 1
          1 1 1 1 1 1 1 1 1 1 1 1
          1 1 1 1 1 1 1 1 1 1 1 1
          1 1 1 1 1 1 1 1 1 1 1 1
          1 1 1 1 1 1 1 1 1 1 0.982223 0.987868
          1 1 1 1 1 1 1 1 0.917397 0.952484 0.971571 0.985893
          1 1 1 1 1 1 0.981544 0.987154 1 1 1 1
          1 1 1 1 1 1 1 1 1 1 1 1
          1 1 1 1 1 1 1 1 1 1 1 1
          1 1 1 1 1 1 1 1 1 1 1 1
          1 1 1 1 1 1 1 1 1 1 1 1
          1 1 1 1 1 1 1 1 1 1 1 1
          1 1 1 1 1 1 1 1 1 1 1 1
          1 1 0.981275 0.986597 1 1 1 1 1 1 1 1
          0.917458 0.952048 0.971442 0.986515 1 1 1 1 1 1 0.980566 0.985702
          0.999201 1 1 1 1 1 1 1 1 1 1 1
          1 1 1 1 1 1 1 1 1 1 1 1
          1 1 1 1 1 1 1 1 1 1 1 1
          1 1 1 1 1 1 1 1 1 1 1 1
          1 1 1 1 1 1 1 1 1 1 1 1
          1 1 1 1 1 1 1 1 1 1 1 1
          1 1 1 1 1 1 0.981586 0.986404 1 1 1 1
          1 1 1 1 0.918211 0.952223 0.972112 0.988004 1 1 1 1
          1 1 0.980845 0.985591 0.999911 1 1 1 1 1 1 1
          1 1 1 1 1 1 1 1 1 1 1 1
          1 1 1 1 1 1 1 1 1 1 1 1
          1 1 1 1 1 1 1 1 1 1 1 1
          1 1 1 1 1 1 1 1 1 1 1 1
          1 1 1 1 1 1 1 1 1 1 1 1
          1 1 1 1 1 1 1 1 1 1 0.982109 0.986457
          1 1 1 1 1 1 1 1 0.918804 0.952429 0.972933 0.989929
          1 1 1 1 1 1 0.981334 0.985723 1 1 1 1
          1 1 1 1 1 1 1 1 1 1 1 1
          1 1 1 1 1 1 1 1 1 1 1 1
          1 1 1 1 1 1 1 1 1 1 1 1
          1 1 1 1 1 1 1 1 1 1 1 1
          1 1 1 1 1 1 1 1 1 1 1 1
          1 1 1 1 1 1 1 1 1 1 1 1
          1 1 0.982186 0.986323 1 1 1 1 1 1 1 1
          0.91854 0.952425 0.973681 0.992314 1 1 1 1 1 1 0.981385 0.985574
          1 1 1 1 1 1 1 1 1 1 1 1
          1 1 1 1 1 1 1 1 1 1 1 1
          1 1 1 1 1 1 1 1 1 1 1 1
          1 1 1 1 1 1 1 1 1 1 1 1
          1 1 1 1 1 1 1 1 1 1 1 1
          1 1 1 1 1 1 1 1 1 1 1 1
          1 1 1 1 1 1 0.980277 0.985022 1 1 1 1
          1 1 1 1 0.914704 0.950641 0.973243 0.993483 1 1 1 1
          1 1 0.97946 0.98405 0.999318 1 1 1 1 1 1 1
          1 1 1 1 1 1 1 1 1 1 1 1
          1 1 1 1 1 1 1 1 1 1 1 1
          1 1 1 1 1 1 1 1 1 1 1 1
          1 1 1 1 1 1 1 1 1 1 1 1
          1 1 1 1 1 1 1 1 1 1 1 1
          0.98334 0.985979 1 1 1 1 1 1 1 1 0.941936 0.950533
          0.972793 0.998987 1 1 1 1 1 1 0.862882 0.906278 0.938153 0.971833
          1 1 1 1 1 1 0.940723 0.949417 0.971946 0.998156 1 1
          1 1 1 1 0.98195 0.984355 1 1 1 1 1 1
          1 1 1 1 1 1 1 1 1 1 1 1
          1 1 1 1 1 1 1 1 1 1 1 1
          1 1 1 1
        </DataArray>
        <DataArray type="Float32" Name="C^w from cellData" NumberOfComponents="1" format="ascii">
          199.956 199.956 199.956 199.956 199.956 199.956 199.955 199.954 199.953 199.952 199.956 199.956
          199.956 199.956 199.956 199.956 199.955 199.954 199.953 199.952 199.956 199.956 199.956 199.956
          199.953 199.956 199.955 199.954 199.953 199.952 199.956 199.956 199.956 199.942 199.327 199.668
          199.926 199.954 199.953 199.952 199.956 199.956 199.956 199.846 191.621 196.791 198.101 199.32
          199.953 199.952 199.956 199.956 199.956 199.94 199.264 199.618 199.921 199.954 199.953 199.952
          199.956 199.956 199.956 199.956 199.949 199.956 199.955 199.954 199.953 199.952 199.956 199.956
          199.956 199.956 199.956 199.956 199.955 199.954 199.953 199.952 199.956 199.956 199.956 199.956
          199.956 199.956 199.955 199.954 199.953 199.952 199.956 199.956 199.957 199.956 199.956 199.956
          199.955 199.954 199.953 199.952 199.956 199.956 199.956 199.956 199.955 199.955 199.954 199.954
          199.953 199.952 199.956 199.956 199.956 199.956 199.955 199.955 199.954 199.954 199.953 199.952
          199.956 199.956 199.956 199.956 199.841 199.95 199.954 199.954 199.953 199.952 199.956 199.956
          199.956 199.926 198.23 198.927 199.67 199.92 199.953 199.952 199.956 199.956 199.956 199.751
          186.472 192.952 195.959 197.563 199.56 199.952 199.956 199.956 199.956 199.926 198.121 198.787
          199.616 199.918 199.953 199.952 199.956 199.956 199.956 199.956 199.806 199.945 199.954 199.954
          199.953 199.952 199.956 199.956 199.956 199.956 199.955 199.955 199.954 199.954 199.953 199.952
          199.956 199.956 199.956 199.956 199.955 199.955 199.954 199.954 199.953 199.952 199.956 199.956
          199.956 199.956 199.955 199.955 199.954 199.954 199.953 199.952 199.955 199.955 199.955 199.955
          199.955 199.954 199.954 199.953 199.952 199.951 199.955 199.955 199.955 199.955 199.955 199.954
          199.954 199.953 199.952 199.951 199.955 199.955 199.955 199.955 199.64 199.867 199.954 199.953
          199.952 199.951 199.955 199.955 199.955 199.926 196.839 197.623 199.171 199.836 199.952 199.951
          199.955 199.955 199.955 199.777 184.236 190.981 194.237 196.293 199.123 199.951 199.955 199.955
          199.955 199.924 196.69 197.453 199.134 199.832 199.952 199.951 199.955 199.955 199.955 199.955
          199.603 199.843 199.954 199.953 199.952 199.951 199.955 199.955 199.955 199.955 199.955 199.954
          199.954 199.953 199.952 199.951 199.955 199.955 199.955 199.955 199.955 199.954 199.954 199.953
          199.952 199.951 199.955 199.955 199.955 199.955 199.955 199.954 199.954 199.953 199.952 199.951
          199.955 199.955 199.955 199.955 199.954 199.954 199.953 199.953 199.952 199.951 199.955 199.955
          199.955 199.955 199.954 199.954 199.953 199.953 199.952 199.951 199.955 199.955 199.955 199.954
          199.539 199.765 199.953 199.953 199.952 199.951 199.955 199.955 199.955 199.922 195.981 196.687
          199.001 199.807 199.952 199.951 199.955 199.955 199.955 199.807 183.633 190.374 193.64 195.987
          199.134 199.951 199.955 199.955 199.955 199.922 195.825 196.546 198.905 199.802 199.952 199.951
          199.955 199.955 199.955 199.954 199.505 199.726 199.953 199.953 199.952 199.951 199.955 199.955
          199.955 199.955 199.954 199.954 199.953 199.953 199.952 199.951 199.955 199.955 199.955 199.955
          199.954 199.954 199.953 199.953 199.952 199.951 199.955 199.955 199.955 199.955 199.954 199.954
          199.953 199.953 199.952 199.951 199.955 199.955 199.955 199.954 199.954 199.953 199.953 199.952
          199.952 199.951 199.955 199.955 199.955 199.954 199.954 199.953 199.953 199.952 199.952 199.951
          199.955 199.955 199.954 199.954 199.501 199.715 199.953 199.952 199.952 199.951 199.955 199.955
          199.954 199.919 195.764 196.398 198.973 199.827 199.952 199.951 199.955 199.955 199.954 199.871
          183.617 190.28 193.596 196.217 199.325 199.951 199.955 199.955 199.954 199.919 195.599 196.274
          198.784 199.821 199.952 199.951 199.955 199.955 199.954 199.954 199.466 199.669 199.953 199.952
          199.952 199.951 199.955 199.955 199.955 199.954 199.954 199.953 199.953 199.952 199.952 199.951
          199.955 199.955 199.955 199.954 199.954 199.953 199.953 199.952 199.952 199.951 199.955 199.955
          199.955 199.954 199.954 199.953 199.953 199.952 199.952 199.951 199.955 199.955 199.954 199.954
          199.953 199.953 199.952 199.952 199.951 199.951 199.955 199.955 199.954 199.954 199.953 199.953
          199.952 199.952 199.951 199.951 199.955 199.955 199.954 199.954 199.493 199.7 199.952 199.952
          199.952 199.951 199.955 199.955 199.954 199.914 195.82 196.371 198.994 199.863 199.952 199.951
          199.955 199.955 199.954 199.874 183.775 190.311 193.714 196.689 199.556 199.951 199.955 199.955
          199.954 199.914 195.646 196.216 198.884 199.859 199.952 199.951 199.955 199.955 199.954 199.954
          199.456 199.648 199.952 199.952 199.952 199.951 199.955 199.955 199.954 199.954 199.953 199.953
          199.952 199.952 199.951 199.951 199.955 199.955 199.954 199.954 199.953 199.953 199.952 199.952
          199.951 199.951 199.955 199.955 199.954 199.954 199.953 199.953 199.952 199.952 199.951 199.951
          199.955 199.955 199.954 199.953 199.953 199.952 199.952 199.952 199.951 199.951 199.955 199.954
          199.954 199.953 199.953 199.952 199.952 199.952 199.951 199.951 199.955 199.954 199.954 199.953
          199.489 199.691 199.952 199.952 199.951 199.951 199.955 199.954 199.954 199.91 195.923 196.404
          199.028 199.899 199.951 199.951 199.955 199.954 199.954 199.914 183.942 190.358 193.847 197.236
          199.746 199.951 199.955 199.954 199.954 199.91 195.74 196.22 198.992 199.896 199.951 199.951
          199.955 199.954 199.954 199.953 199.449 199.634 199.952 199.952 199.951 199.951 199.955 199.954
          199.954 199.953 199.953 199.952 199.952 199.952 199.951 199.951 199.955 199.954 199.954 199.953
          199.953 199.952 199.952 199.952 199.951 199.951 199.955 199.954 199.954 199.953 199.953 199.952
          199.952 199.952 199.951 199.951 199.955 199.954 199.954 199.953 199.952 199.952 199.952 199.951
          199.951 199.951 199.955 199.954 199.954 199.953 199.952 199.952 199.952 199.951 199.951 199.951
          199.955 199.954 199.954 199.953 199.468 199.66 199.952 199.951 199.951 199.951 199.955 199.954
          199.953 199.906 195.929 196.388 199.051 199.924 199.951 199.951 199.955 199.954 199.953 199.901
          183.976 190.376 193.965 197.795 199.862 199.951 199.955 199.954 199.953 199.907 195.739 196.2
          199.014 199.923 199.951 199.951 199.955 199.954 199.953 199.953 199.428 199.601 199.952 199.951
          199.951 199.951 199.955 199.954 199.953 199.953 199.952 199.952 199.952 199.951 199.951 199.951
          199.955 199.954 199.953 199.953 199.952 199.952 199.951 199.951 199.951 199.951 199.955 199.954
          199.953 199.953 199.952 199.952 199.951 199.951 199.951 199.951 199.955 199.954 199.953 199.952
          199.952 199.951 199.951 199.951 199.951 199.951 199.955 199.954 199.953 199.952 199.952 199.951
          199.951 199.951 199.951 199.951 199.955 199.954 199.953 199.952 199.4 199.557 199.951 199.951
          199.951 199.951 199.955 199.954 199.953 199.907 195.502 196.086 199.019 199.931 199.951 199.951
          199.955 199.954 199.953 199.913 183.287 190.054 193.858 198.076 199.899 199.951 199.955 199.954
          199.953 199.907 195.305 195.926 198.834 199.929 199.951 199.951 199.955 199.954 199.953 199.952
          199.361 199.498 199.951 199.951 199.951 199.951 199.955 199.954 199.953 199.952 199.952 199.951
          199.951 199.951 199.951 199.951 199.955 199.954 199.953 199.952 199.952 199.951 199.951 199.951
          199.951 199.951 199.955 199.954 199.953 199.952 199.952 199.951 199.951 199.951 199.951 199.951
          199.955 199.953 199.952 199.952 199.951 199.951 199.95 199.95 199.95 199.95 199.955 199.953
          199.952 199.952 199.588 199.766 199.95 199.95 199.95 199.95 199.955 199.953 199.952 199.929
          196.062 196.368 198.986 199.95 199.95 199.95 199.955 199.953 199.952 199.914 188.118 189.77
          193.237 198.467 199.95 199.95 199.955 199.953 199.952 199.893 172.876 181.429 187.419 193.03
          199.06 199.95 199.955 199.953 199.952 199.914 187.888 189.565 193.079 198.315 199.95 199.95
          199.955 199.953 199.952 199.929 195.74 195.928 198.872 199.95 199.95 199.95 199.955 199.953
          199.952 199.952 199.484 199.687 199.95 199.95 199.95 199.95 199.955 199.953 199.952 199.952
          199.951 199.951 199.95 199.95 199.95 199.95 199.955 199.953 199.952 199.952 199.951 199.95
          199.95 199.95 199.95 199.95
        </DataArray>
        <DataArray type="Float32" Name="C^n from cellData" NumberOfComponents="1" format="ascii">
          0 0 0 3.4906e-15 6.37896e-11 4.53336e-12 1.40066e-13 2.55147e-15 8.06029e-18 0 0 0
          5.40292e-16 8.6055e-12 1.12078e-07 9.6337e-09 3.72626e-10 7.66062e-12 1.10636e-13 1.40791e-15 7.49707e-18 1.04551e-14 9.69036e-13 7.81485e-09
          9.00308e-05 7.91352e-06 4.65646e-07 1.08905e-08 1.57718e-10 2.0843e-12 2.82581e-13 1.39721e-11 1.03557e-09 3.67184e-06 0.0166261 0.00358543
          0.000410218 1.15054e-05 1.57849e-07 1.93021e-09 6.10921e-10 2.46292e-08 1.39886e-06 0.00142527 0.0420246 0.0246486 0.0187002 0.00771313
          0.000128829 1.62426e-06 4.81489e-13 2.51088e-11 1.87659e-09 4.8193e-06 0.0167874 0.00436784 0.000478634 1.29668e-05 1.77516e-07 2.16748e-09
          2.17458e-16 2.23283e-14 2.1773e-12 1.22061e-08 0.000152998 1.11432e-05 6.28791e-07 1.4171e-08 2.02157e-10 2.64288e-12 0 2.48804e-18
          1.66636e-15 1.79215e-11 2.07635e-07 1.65762e-08 6.2447e-10 1.24293e-11 1.75496e-13 2.10205e-15 0 0 0 1.31449e-14
          1.8202e-10 1.27421e-11 3.818e-13 6.83477e-15 2.01029e-17 0 0 0 0 0 6.48854e-14 3.71942e-15
          6.12256e-17 0 0 0 0 0 0 1.05098e-14 6.5917e-10 3.45131e-11 1.06618e-12 1.60216e-14
          3.98238e-17 0 0 0 5.70184e-16 2.32445e-11 1.58015e-06 8.57716e-08 3.60376e-09 6.7796e-11 6.75392e-13 4.786e-15