<?xml version="1.0"?>
<VTKFile type="UnstructuredGrid" version="0.1" byte_order="LittleEndian">
  <UnstructuredGrid>
    <Piece NumberOfCells="8582" NumberOfPoints="1936">
      <CellData Scalars="wallDistance">
        <DataArray type="Float32" Name="wallDistance" NumberOfComponents="1" format="ascii">
          0.163989 0.100422 0.0674216 0.0674216 0.0337108 0.0337108 0.0337108 0.0337108 0.206218 0.1397 0.144556 0.219176
          0.072278 0.146191 0.072278 0.146191 0.0366027 0.110228 0.0366027 0.109956 0.0366027 0.0732054 0.147061 0.0390564
          0.0781127 0.156225 0.0390564 0.117169 0.0390564 0.117169 0.0392359 0.0392359 0.0392359 0.193385 0.117708 0.0784718
          0.00425486 0.0113394 0.00850973 0.00850973 0.00850973 0.0113394 0.0170195 0.0170195 0.0113394 0.0226788 0.00850973 0.00850973
          0.0274941 0.0314691 0.0137471 0.013714 0.0157346 0.0250534 0.00937406 0.0154558 0.0154558 0.0077279 0.0077279 0.0077279
          0.0238598 0.0118494 0.00592471 0.00592471 0.0604644 0.0467174 0.0614431 0.132156 0.0933452 0.0698116 0.0497668 0.0379095
          0.119245 0.0758405 0.0560363 0.191931 0.115159 0.0767725 0.0767725 0.0383863 0.0383863 0.0383863 0.0383863 0.189579
          0.112806 0.0726878 0.0727023 0.0363511 0.0363439 0.0363439 0.0363511 0.0374784 0.0374784 0.149914 0.0749568 0.0374784
          0.112435 0.112435 0.0374784 0.0410929 0.0491889 0.0858494 0.153528 0.0858494 0.153528 0.0449353 0.0499192 0.0619535
          0.127079 0.198235 0.0898705 0.037483 0.112449 0.037483 0.112449 0.037483 0.037483 0.0749661 0.149932 0.224717
          0.14976 0.12085 0.116784 0.164376 0.101363 0.123918 0.157751 0.0946504 0.0631003 0.0315502 0.0315502 0.157973
          0.0947925 0.063195 0.0315975 0.0315975 0.175539 0.144514 0.11267 0.0800154 0.0644988 0.0808262 0.0481714 0.0323911
          0.0323911 0.0323911 0.0485866 0.0161955 0.17593 0.146246 0.11395 0.081031 0.0813928 0.0487485 0.0651143 0.0325571
          0.0325571 0.0488357 0.0162786 0.0325571 0.0340118 0.0340118 0.0680237 0.133135 0.0680237 0.131663 0.0340118 0.0340118
          0.0340118 0.0331802 0.0340118 0.0331802 0.0995405 0.14713 0.178939 0.0669834 0.0657373 0.158918 0.095351 0.0635674
          0.0635674 0.0317837 0.0317837 0.0317837 0.159158 0.0955319 0.063688 0.063688 0.031844 0.031844 0.031844 0.031844
          0.158929 0.0958291 0.064279 0.064279 0.0322825 0.0322825 0.0322825 0.0322825 0.182759 0.152292 0.119033 0.0857737
          0.0881521 0.0528912 0.0705217 0.0352608 0.0352608 0.0525145 0.0176304 0.0352608 0.0335934 0.0671868 0.10049 0.16687
          0.0335934 0.0335934 0.0334967 0.0670957 0.100286 0.164755 0.0335934 0.0333945 0.0335934 0.0333945 0.0668912 0.0666867
          0.100183 0.149917 0.179775 0.176196 0.147628 0.0988114 0.0665844 0.0665844 0.0332922 0.0332922 0.0332922 0.0332922
          0.175232 0.146525 0.0976832 0.0660857 0.083148 0.0488416 0.0332592 0.0498888 0.0166296 0.0332592 0.0498888 0.0166296
          0.0360964 0.0721929 0.141154 0.0721929 0.141583 0.0360964 0.0360964 0.0360964 0.0360964 0.0357191 0.105698 0.15339
          0.18665 0.0718964 0.0709799 0.0359554 0.102442 0.168822 0.0719108 0.0353788 0.0353788 0.0689452 0.150944 0.183976
          0.10306 0.0707575 0.105114 0.169644 0.0359554 0.0398218 0.0778602 0.115374 0.181907 0.0398218 0.0375133 0.0764434
          0.144097 0.0389301 0.0764434 0.145014 0.0337345 0.0674691 0.100793 0.166295 0.0337052 0.0337052 0.0672963 0.131739
          0.0337345 0.0674104 0.133211 0.0803443 0.0803443 0.114356 0.180889 0.173009 0.238938 0.287585 0.279368 0.160689
          0.22717 0.0803443 0.0803443 0.126677 0.248668 0.190015 0.160689 0.224027 0.285666 0.275297 0.147158 0.194748
          0.226693 0.0444553 0.0444553 0.0444553 0.199833 0.264663 0.220681 0.133222 0.0889107 0.0889107 0.0445392 0.0445392
          0.0445392 0.200426 0.265803 0.222696 0.133617 0.0890783 0.0890783 0.0445405 0.0445405 0.089081 0.133621 0.200432
          0.244864 0.0445405 0.089081 0.177616 0.0445405 0.089081 0.177616 0.0793759 0.169475 0.190171 0.11311 0.236748
          0.307477 0.299449 0.259018 0.227214 0.24879 0.181572 0.20318 0.125017 0.0843122 0.183392 0.203702 0.123206
          0.239223 0.30635 0.300925 0.259848 0.233488 0.254303 0.189021 0.210366 0.128481 0.0808055 0.116761 0.171149
          0.191858 0.236596 0.306238 0.299325 0.258824 0.228688 0.250464 0.125458 0.184036 0.206487 0.168873 0.101452
          0.0677413 0.0677413 0.0338706 0.0338706 0.0338706 0.0385897 0.115351 0.0771793 0.0385897 0.115769 0.196065 0.209266
          0.13951 0.0697552 0.146935 0.039724 0.119172 0.0794479 0.039724 0.039724 0.119172 0.202143 0.21615 0.146395
          0.0738918 0.0738918 0.15334 0.207441 0.217153 0.183762 0.106467 0.0725961 0.185745 0.111322 0.248742 0.26221
          0.265751 0.113513 0.190964 0.234071 0.203592 0.216552 0.108106 0.181719 0.0726481 0.0726481 0.108992 0.182779
          0.0385474 0.0770949 0.145038 0.0770949 0.145038 0.0385474 0.0385474 0.0385474 0.0385474 0.0385474 0.0385474 0.115642
          0.18672 0.0770949 0.0770949 0.0354849 0.106455 0.106455 0.0354849 0.0354849 0.0354849 0.14157 0.0709698 0.17604
          0.105624 0.070416 0.035208 0.035208 0.231918 0.1395 0.0932789 0.0466395 0.0466395 0.0466395 0.324562 0.265556
          0.177045 0.11803 0.11803 0.059015 0.059015 0.059015 0.371113 0.31399 0.303397 0.328024 0.244382 0.270575
          0.166452 0.107437 0.232453 0.263597 0.154968 0.0444366 0.0666548 0.0222183 0.0666548 0.0222183 0.0444366 0.207176
          0.12868 0.111091 0.0888731 0.0444366 0.0888731 0.195062 0.118489 0.078993 0.078993 0.0394965 0.0394965 0.0394965
          0.0394965 0.154865 0.0789373 0.0394686 0.0394686 0.0394686 0.258838 0.260949 0.344163 0.221452 0.304666 0.140348
          0.100852 0.100852 0.243311 0.288939 0.347945 0.162207 0.321722 0.265526 0.177017 0.118012 0.0590058 0.0590058
          0.0590058 0.0577123 0.173137 0.0577123 0.173137 0.0577123 0.115425 0.230849 0.0790623 0.123498 0.215428 0.215428
          0.10128 0.269808 0.190153 0.316249 0.20256 0.164172 0.100484 0.0708427 0.0708427 0.0354213 0.0354213 0.0354213
          0.0354213 0.0518394 0.0518394 0.103679 0.207006 0.0518394 0.103679 0.207006 0.0518394 0.0518394 0.103679 0.155518
          0.233277 0.285117 0.0369252 0.0738504 0.145013 0.0369252 0.110776 0.0369252 0.110776 0.0366031 0.109809 0.0366031
          0.109809 0.0366031 0.0727311 0.143114 0.0351913 0.105574 0.105574 0.0351913 0.0351913 0.140765 0.0703827 0.206295
          0.142728 0.219176 0.14597 0.0729851 0.146191 0.146191 0.0729851 0.0348081 0.139233 0.0696163 0.0348081 0.104424
          0.104424 0.0348081 0.0866838 0.189669 0.192258 0.22486 0.0866838 0.157066 0.208559 0.241161 0.0255218 0.0765653
          0.0765653 0.0255218 0.0765653 0.0255218 0.0510435 0.255218 0.153131 0.127609 0.0765653 0.102087 0.0515173 0.0515173
          0.103035 0.206069 0.0515173 0.154552 0.0515173 0.154552 0.0888553 0.161674 0.0888553 0.161674 0.294924 0.19189
          0.177711 0.252379 0.0503301 0.0503301 0.10066 0.201321 0.0503301 0.15099 0.0503301 0.15099 0.0635471 0.114591
          0.16449 0.16449 0.114591 0.0635471 0.293243 0.216678 0.165634 0.254189 0.20366 0.152616 0.0383013 0.114904
          0.114904 0.0383013 0.0383013 0.0383013 0.152556 0.0766027 0.233765 0.157162 0.231585 0.157735 0.0788674 0.152718
          0.152718 0.0788674 0.287637 0.211034 0.330573 0.226605 0.274322 0.308567 0.273375 0.169897 0.0652376 0.118404
          0.168776 0.0921738 0.168776 0.297057 0.19497 0.184348 0.26095 0.23651 0.144059 0.100983 0.100983 0.0504916
          0.0504916 0.0504916 0.0504916 0.226869 0.195836 0.2127 0.295689 0.307596 0.245797 0.181632 0.215763 0.272668
          0.115109 0.0827181 0.0827181 0.194678 0.253331 0.133045 0.0561105 0.0561105 0.108812 0.261764 0.163219 0.112221
          0.168332 0.266897 0.0561105 0.0561105 0.0561105 0.0561105 0.0561105 0.0561105 0.160652 0.238411 0.29025 0.112221
          0.112221 0.347305 0.295466 0.300681 0.344928 0.244506 0.282408 0.16531 0.107901 0.107901 0.237588 0.270289
          0.158392 0.220056 0.228174 0.297109 0.192831 0.261687 0.122982 0.0875602 0.0875602 0.209549 0.251831 0.30367
          0.139699 0.266425 0.274543 0.35335 0.288794 0.341898 0.354219 0.294021 0.373944 0.139049 0.206076 0.289428
          0.25243 0.262177 0.309265 0.347802 0.26579 0.308577 0.360716 0.0462092 0.0462092 0.0924185 0.135743 0.202554
          0.247094 0.0462092 0.0924185 0.135743 0.224824 0.0462092 0.0462092 0.0462092 0.0924185 0.138628 0.229067 0.262359
          0.302784 0.303363 0.271616 0.125449 0.196746 0.28084 0.248238 0.42311 0.390508 0.484971 0.410041 0.41892
          0.469177 0.449179 0.37425 0.311418 0.324593 0.335015 0.458125 0.398757 0.3726 0.314174 0.327134 0.36379
          0.424142 0.365753 0.374592 0.416072 0.345934 0.406866 0.336568 0.384824 0.44926 0.4233 0.392753 0.403909
          0.44604 0.457214 0.428342 0.327391 0.374839 0.343337 0.37506 0.476207 0.413746 0.393147 0.425749 0.0958317
          0.134865 0.200257 0.20223 0.298413 0.188175 0.255477 0.0959111 0.0959111 0.152022 0.28897 0.228032 0.191822
          0.26185 0.32057 0.173412 0.241939 0.302999 0.304489 0.365904 0.360514 0.31865 0.378745 0.386357 0.316003
          0.367695 0.366678 0.149375 0.222738 0.272902 0.281496 0.343458 0.278849 0.335422 0.312237 0.317997 0.401559
          0.32073 0.366865 0.365855 0.332007 0.403184 0.15429 0.226139 0.287867 0.256277 0.285154 0.316231 0.349556
          0.295727 0.337408 0.396414 0.364131 0.420075 0.407926 0.413343 0.439244 0.40556 0.404164 0.421106 0.438796
          0.434886 0.451038 0.445222 0.333995 0.35011 0.373195 0.373274 0.346484 0.325299 0.385585 0.368771 0.350102
          0.399971 0.373181 0.351281 0.612928 0.578472 0.526392 0.45669 0.50776 0.46556 0.492189 0.423889 0.465045
          0.419873 0.470033 0.435073 0.456117 0.418959 0.439857 0.378966 0.361342 0.661593 0.625521 0.588907 0.547654
          0.592184 0.572101 0.526554 0.49838 0.453207 0.527434 0.530273 0.508051 0.465811 0.00725609 0.00725609 0.00725609
          0.00729515 0.0217683 0.0145122 0.00729515 0.0217025 0.0651075 0.0651075 0.0217025 0.0217025 0.0854755 0.043405 0.0207236
          0.0207236 0.0809615 0.0414472 0.0207236 0.0622468 0.0635474 0.0207236 0.0282522 0.0282522 0.0489758 0.0859158 0.0316225
          0.0775004 0.0357808 0.077228 0.0188844 0.0825834 0.0377689 0.0188844 0.0608807 0.0575394 0.0188844 0.0217027 0.0434053
          0.0868106 0.0217027 0.0648056 0.0217027 0.0648056 0.0220869 0.0220869 0.0441739 0.0834845 0.0220869 0.0630543 0.0220869
          0.0648179 0.0204302 0.0204302 0.0817208 0.0408604 0.0204302 0.0612906 0.0612906 0.0204302 0.0242476 0.0484952 0.0927206
          0.0242476 0.0680628 0.0242476 0.0680628 0.216111 0.139338 0.125195 0.17177 0.0625976 0.109065 0.0625976 0.111093
          0.213758 0.13233 0.169298 0.118123 0.060213 0.105999 0.106219 0.0586135 0.0207329 0.0621988 0.0207329 0.0621988
          0.0207329 0.0414659 0.0829317 0.0205278 0.0410557 0.0821114 0.0205278 0.0615835 0.0205278 0.0615835 0.021371 0.021371
          0.106184 0.064113 0.042742 0.0208332 0.0416664 0.0833328 0.0208332 0.0624321 0.0208332 0.0624321 0.0207246 0.0828985
          0.0414493 0.0207246 0.0621739 0.0621739 0.0207246 0.0214486 0.0214486 0.0214486 0.0643458 0.107243 0.0428972 0.0214486
          0.0428972 0.0852096 0.0428972 0.0852096 0.0214486 0.023203 0.0692677 0.0696089 0.023203 0.023203 0.0900784 0.0464059
          0.0223704 0.0682424 0.0223704 0.0682424 0.0223704 0.0447407 0.0900788 0.0430267 0.0828484 0.159758 0.0860534 0.165212
          0.0432104 0.0430267 0.0430267 0.0432104 0.120828 0.188348 0.0864208 0.0440199 0.0440199 0.0440199 0.19809 0.241904
          0.13206 0.0880398 0.0445722 0.0445722 0.0445722 0.200167 0.264713 0.220792 0.133445 0.0891444 0.0891444 0.0439454
          0.0439454 0.0439454 0.219727 0.131836 0.0878908 0.044147 0.044147 0.176588 0.0882939 0.044147 0.132441 0.132441
          0.044147 0.0440784 0.0440784 0.0440784 0.198353 0.242258 0.132235 0.0881567 0.0881567 0.0440323 0.0440323 0.0440323
          0.220162 0.132097 0.0880646 0.0880646 0.0875009 0.14956 0.18243 0.11406 0.0670392 0.152765 0.187884 0.243495
          0.288265 0.285354 0.201864 0.113353 0.202866 0.19727 0.198118 0.112473 0.233856 0.255832 0.0450585 0.0450585
          0.0675877 0.0225292 0.199723 0.243802 0.157016 0.112646 0.0895275 0.112646 0.0675877 0.0467945 0.0467945 0.0467945
          0.0467945 0.227241 0.140384 0.0935891 0.0935891 0.0478501 0.0481596 0.0481596 0.234075 0.141439 0.0963193 0.219032
          0.148554 0.106398 0.104473 0.146363 0.108417 0.084878 0.0863296 0.223795 0.22746 0.200672 0.125418 0.0821639
          0.0837389 0.191196 0.125895 0.28755 0.214515 0.373643 0.239585 0.211833 0.305515 0.285085 0.150438 0.268026
          0.275231 0.217588 0.127003 0.249175 0.304806 0.309639 0.26351 0.179017 0.260495 0.17045 0.288201 0.307203
          0.236967 0.261881 0.396021 0.335616 0.378159 0.199222 0.331263 0.137201 0.271872 0.201601 0.293611 0.302579
          0.271169 0.296334 0.382859 0.0698659 0.0698659 0.0917971 0.134715 0.235143 0.203731 0.113105 0.161663 0.0218608
          0.0219312 0.0219312 0.107345 0.0655823 0.0438624 0.0432318 0.0656509 0.0656509 0.134715 0.0906255 0.228361 0.196953
          0.156276 0.106327 0.0646066 0.109347 0.151584 0.147004 0.228356 0.0646066 0.106327 0.18705 0.131718 0.129213
          0.212655 0.0961223 0.0961223 0.237964 0.144282 0.266837 0.288367 0.240404 0.142997 0.0949609 0.23902 0.144282
          0.263287 0.284883 0.240404 0.137748 0.0427875 0.0427875 0.201264 0.125271 0.0855751 0.0406764 0.0406764 0.0406764
          0.122029 0.203399 0.0813527 0.0813527 0.0406764 0.0813527 0.158878 0.0813527 0.162727 0.0406764 0.0406778 0.0406831
          0.0406831 0.160736 0.0813662 0.0406831 0.117601 0.117601 0.0406831 0.0447303 0.0447303 0.0894606 0.178921 0.0447303
          0.134191 0.0447303 0.134191 0.0443592 0.0443592 0.0443592 0.221796 0.133078 0.0887185 0.0887185 0.289821 0.17532
          0.11688 0.0584401 0.0584401 0.0584401 0.335663 0.218782 0.293819 0.204358 0.102179 0.19164 0.19164 0.102179
          0.0571812 0.171544 0.171544 0.0571812 0.0571812 0.228725 0.114362 0.0568507 0.170552 0.113701 0.0568507 0.0568507
          0.170552 0.102173 0.217576 0.159874 0.266818 0.188377 0.262047 0.0404602 0.0404602 0.0606903 0.0202301 0.0404602
          0.182292 0.218509 0.141736 0.101151 0.101151 0.0606903 0.0809205 0.272205 0.156333 0.205531 0.107134 0.268975
          0.249884 0.228515 0.130119 0.138857 0.188055 0.0896584 0.0409331 0.0613996 0.0204665 0.0613996 0.0204665 0.0613996
          0.0204665 0.177351 0.214306 0.140397 0.102333 0.102333 0.0613996 0.102333 0.0613996 0.0369549 0.0554324 0.0184775
          0.0554324 0.0184775 0.0554324 0.0184775 0.166297 0.202685 0.129342 0.110865 0.0739098 0.0923873 0.0554324 0.0923873
          0.0739098 0.0369549 0.0390125 0.0390125 0.0390125 0.113367 0.167693 0.20391 0.078025 0.078025 0.0390125 0.0771493
          0.149584 0.078025 0.154299 0.0390125 0.0390125 0.0362174 0.0362174 0.0181087 0.0543261 0.0724348 0.0905434 0.0543261
          0.108652 0.162978 0.197275 0.0362174 0.0724348 0.107442 0.17788 0.0362174 0.0362174 0.0362174 0.0724348 0.107442
          0.17788 0.0466663 0.0466663 0.184433 0.0933327 0.0933327 0.139999 0.0466663 0.0470233 0.0470233 0.0940465 0.188093
          0.0940465 0.0470233 0.14107 0.0508539 0.194386 0.100339 0.097193 0.144216 0.0501697 0.0948907 0.147075 0.245139
          0.261796 0.284672 0.137597 0.241965 0.0911645 0.184497 0.137831 0.251467 0.173304 0.228995 0.105907 0.211672
          0.266866 0.252881 0.155688 0.263788 0.261206 0.163697 0.298811 0.347005 0.304296 0.334273 0.355942 0.414081
          0.375553 0.490625 0.525897 0.551111 0.528881 0.439031 0.476087 0.514489 0.500249 0.492402 0.465482 0.450365
          0.434817 0.370787 0.408738 0.416957 0.421281 0.150232 0.253679 0.303634 0.311312 0.30511 0.340013 0.352648
          0.347223 0.48559 0.453738 0.42175 0.391332 0.396368 0.382508 0.415124 0.388639 0.377897 0.311753 0.213685
          0.305123 0.204752 0.350058 0.320332 0.301294 0.3314 0.238466 0.140447 0.288442 0.48258 0.506055 0.531152
          0.488018 0.429438 0.464938 0.489057 0.505104 0.436481 0.439106 0.409611 0.431148 0.368789 0.343045 0.391017
          0.40755 0.401617 0.351693 0.359488 0.252048 0.293218 0.218946 0.288549 0.691489 0.664691 0.671321 0.570343
          0.652749 0.551019 0.629959 0.522556 0.568172 0.634203 0.535749 0.613177 0.669277 0.629722 0.610581 0.593319
          0.599415 0.508765 0.552405 0.554164 0.4558 0.465974 0.490565 0.534205 0.522695 0.687649 0.659867 0.637528
          0.614013 0.622716 0.521737 0.515169 0.589356 0.578558 0.543332 0.600731 0.547415 0.645215 0.61226 0.59396
          0.562535 0.529326 0.497794 0.491247 0.459256 0.485666 0.452156 0.387041 0.424366 0.395294 0.439028 0.407496
          0.441409 0.406535 0.0371686 0.0557528 0.0185843 0.0557528 0.0185843 0.0557528 0.0185843 0.185629 0.13009 0.0929214
          0.0929214 0.0557528 0.0929214 0.0557528 0.0427065 0.0427065 0.198707 0.12431 0.0854131 0.04104 0.04104 0.0815362
          0.155809 0.0779044 0.0407681 0.115041 0.0372331 0.0744661 0.148932 0.0372331 0.111699 0.0372331 0.111699 0.0371363
          0.148578 0.0742726 0.0742726 0.111409 0.0371363 0.0929279 0.196045 0.208397 0.237744 0.130492 0.220216 0.24696
          0.13977 0.240826 0.252598 0.28048 0.326337 0.313198 0.319194 0.340943 0.0897242 0.191237 0.23089 0.201133
          0.12686 0.241765 0.216585 0.0892847 0.19223 0.193517 0.0892847 0.237959 0.163622 0.280568 0.178569 0.0883374
          0.190166 0.0883374 0.190166 0.23602 0.163183 0.176675 0.276853 0.037423 0.0561345 0.0187115 0.0561345 0.0187115
          0.0561345 0.0187115 0.186127 0.13098 0.0935574 0.0935574 0.0561345 0.0935574 0.0561345 0.0352189 0.0352189 0.0352189
          0.0704379 0.140876 0.0352189 0.0704379 0.140876 0.0352189 0.0704379 0.105657 0.176095 0.0362823 0.0362823 0.0362823
          0.0181412 0.0544235 0.0725647 0.0907058 0.0544235 0.145129 0.0362823 0.108847 0.0362823 0.0362823 0.108847 0.0380178
          0.111927 0.0760356 0.0380178 0.0380178 0.114053 0.286684 0.187218 0.247996 0.175431 0.125769 0.163787 0.087751
          0.141722 0.242778 0.287156 0.292367 0.306581 0.321992 0.333033 0.33491 0.0921327 0.193188 0.216947 0.234793
          0.0921327 0.174848 0.224581 0.242737 0.327339 0.309183 0.297468 0.291311 0.166424 0.247659 0.245097 0.0505279
          0.151584 0.151584 0.0505279 0.0505279 0.0505279 0.202082 0.101056 0.041526 0.041526 0.0830521 0.166104 0.0830521
          0.164449 0.041526 0.041526 0.041526 0.041526 0.124578 0.196434 0.0830521 0.0368332 0.0736664 0.145362 0.0368332
          0.1105 0.0368332 0.1105 0.0392398 0.0392398 0.190367 0.116701 0.0784796 0.0443846 0.0443846 0.162493 0.0840138
          0.0443846 0.133154 0.128788 0.0443846 0.0397604 0.118162 0.0795209 0.0397604 0.119281 0.0386742 0.0386742 0.0386742
          0.0773483 0.116022 0.191847 0.0386742 0.0773483 0.151624 0.0386742 0.0773483 0.152122 0.0377885 0.113365 0.0755769
          0.0377885 0.112583 0.00937988 0.0244958 0.0187598 0.00937988 0.0250555 0.0234418 0.00937988 0.0289683 0.0289683 0.0289683
          0.109275 0.0579365 0.0364631 0.109389 0.0364631 0.109389 0.0364631 0.0729262 0.145852 0.0364803 0.109441 0.0729607
          0.0364803 0.109441 0.210013 0.137087 0.100624 0.145824 0.0924167 0.0373602 0.0747204 0.148961 0.0373602 0.112081
          0.0373602 0.112081 0.0772002 0.0772002 0.0386001 0.116886 0.0798065 0.0798065 0.0399032 0.116678 0.0364861 0.109458
          0.0729722 0.0364861 0.109458 0.121069 0.19785 0.0806238 0.153829 0.203539 0.124978 0.208395 0.0850744 0.174963
          0.210052 0.296338 0.168556 0.261703 0.295759 0.29881 0.215256 0.222055 0.310825 0.0359409 0.108691 0.107923
          0.0359409 0.0359409 0.0359409 0.145177 0.0718818 0.0374405 0.0748809 0.148976 0.0374405 0.0748809 0.149762 0.0374405
          0.0374405 0.0374405 0.0748809 0.111956 0.185996 0.222415 0.149621 0.11368 0.11368 0.241288 0.243728 0.160858
          0.119538 0.119538 0.291819 0.321896 0.374011 0.284456 0.336895 0.180406 0.303607 0.309169 0.223921 0.352541
          0.40498 0.24849 0.0216953 0.0650859 0.0650859 0.0216953 0.0650859 0.0216953 0.0433906 0.212928 0.130172 0.108476
          0.0650859 0.0867811 0.0409773 0.0409773 0.0409773 0.0409773 0.203085 0.12286 0.0819547 0.0819547 0.227543 0.152711
          0.115271 0.115271 0.239103 0.244666 0.159402 0.118235 0.118235 0.0401124 0.0401124 0.0401124 0.0401124 0.200562
          0.120337 0.0802248 0.0802248 0.0401393 0.0401393 0.0401393 0.120418 0.200697 0.0802787 0.0802787 0.0401393 0.0802787
          0.160557 0.0802787 0.160557 0.0401393 0.0401393 0.0412413 0.0412413 0.164965 0.0824825 0.0412413 0.123724 0.123724
          0.0412413 0.03786 0.149072 0.0757199 0.03786 0.112147 0.113519 0.03786 0.0396388 0.0396388 0.193369 0.118916
          0.0792776 0.089119 0.089119 0.128758 0.208035 0.28704 0.267357 0.138599 0.217877 0.0343073 0.102922 0.102922
          0.0343073 0.0343073 0.136653 0.0685242 0.0490431 0.0490431 0.0490431 0.0980863 0.0980863 0.147129 0.245216 0.0490431
          0.0980863 0.196173 0.0490431 0.0490431 0.0980863 0.196173 0.087134 0.156025 0.18522 0.283307 0.209129 0.087134
          0.136177 0.234263 0.174268 0.272354 0.190006 0.0340645 0.102193 0.0340645 0.102193 0.0340645 0.0681289 0.136258
          0.0489274 0.0489274 0.0489274 0.0489274 0.244637 0.146782 0.0978549 0.0978549 0.0516207 0.0516207 0.0516207 0.24856
          0.150705 0.103241 0.103241 0.0874208 0.163141 0.0874208 0.163141 0.285664 0.186543 0.174842 0.250227 0.279241
          0.296237 0.296514 0.277845 0.254572 0.235903 0.171387 0.328284 0.229163 0.300132 0.281463 0.216947 0.231778
          0.249402 0.166268 0.129107 0.129107 0.290546 0.192691 0.142603 0.142603 0.0487622 0.0487622 0.0487622 0.146287
          0.243811 0.0975244 0.0975244 0.0487622 0.0975244 0.195049 0.0975244 0.195049 0.0487622 0.0487622 0.086414 0.160522
          0.21048 0.183938 0.281463 0.086414 0.135176 0.232701 0.197075 0.172828 0.270352 0.0365527 0.109658 0.0365527
          0.109658 0.0365527 0.0731054 0.146211 0.140513 0.24553 0.26913 0.335561 0.31334 0.335124 0.0814267 0.154532
          0.215194 0.199406 0.0814267 0.170656 0.207695 0.191085 0.0672539 0.112361 0.157377 0.188593 0.157377 0.194127
          0.112361 0.0672539 0.264228 0.199142 0.155752 0.2475 0.280031 0.203027 0.157377 0.115474 0.16652 0.20773
          0.234011 0.289829 0.257305 0.283871 0.318387 0.338023 0.33314 0.299169 0.32545 0.362314 0.397343 0.405039
          0.45971 0.361876 0.365662 0.38603 0.440195 0.378723 0.398231 0.452747 0.369482 0.433132 0.402026 0.444845
          0.388067 0.409183 0.435894 0.465532 0.506677 0.500403 0.52761 0.487635 0.515802 0.466169 0.402123 0.430419
          0.472979 0.49421 0.458118 0.0560375 0.0994979 0.146382 0.0777677 0.146382 0.251609 0.164688 0.155413 0.223542
          0.117656 0.15593 0.079383 0.242139 0.161602 0.229794 0.158766 0.109141 0.152601 0.199486 0.252589 0.286024
          0.304713 0.323999 0.276895 0.314846 0.375333 0.287822 0.209453 0.315558 0.233251 0.307049 0.228862 0.703133
          0.66387 0.678164 0.673889 0.647957 0.629549 0.597103 0.595254 0.534673 0.487719 0.655914 0.626426 0.538009
          0.643632 0.589874 0.61673 0.528313 0.426755 0.427459 0.405238 0.569569 0.497722 0.448812 0.422518 0.441678
          0.429297 0.39072 0.373539 0.393567 0.384265 0.345688 0.489513 0.439303 0.472994 0.590625 0.520489 0.439806
          0.471579 0.48125 0.445011 0.422778 0.584608 0.50278 0.454227 0.431543 0.0337226 0.101168 0.101168 0.0337226
          0.0337226 0.13489 0.0674452 0.0382733 0.11482 0.0382733 0.10884 0.0765466 0.0391843 0.117553 0.0391843 0.117553
          0.0783686 0.0390997 0.156399 0.0781993 0.0390997 0.117299 0.117299 0.0390997 0.0410754 0.0410754 0.0821509 0.123021
          0.2033 0.0410754 0.0821509 0.163161 0.0410754 0.0821509 0.164302 0.121941 0.0827571 0.161126 0.248045 0.169903
          0.165514 0.240451 0.0346588 0.102935 0.0346588 0.102935 0.0346588 0.0346588 0.0693176 0.138426 0.0383435 0.076687
          0.115031 0.183068 0.0383435 0.0380018 0.076687 0.141978 0.0383435 0.076687 0.141978 0.216664 0.239881 0.114619
          0.205222 0.0799604 0.0799604 0.125233 0.213287 0.219613 0.13208 0.0880536 0.0880536 0.0440268 0.0440268 0.0440268
          0.0440268 0.08693 0.125273 0.200652 0.17386 0.239267 0.229237 0.08693 0.0833034 0.17725 0.159307 0.221939
          0.211908 0.0481165 0.0481165 0.0481165 0.0962329 0.0962329 0.143562 0.237742 0.0481165 0.048098 0.0481165 0.0961961
          0.188482 0.0481165 0.0481165 0.0962329 0.192392 0.102665 0.229797 0.244431 0.102665 0.180865 0.268897 0.063895
          0.191685 0.191685 0.063895 0.063895 0.063895 0.251022 0.12779 0.153359 0.284058 0.296475 0.336989 0.315704
          0.373147 0.119687 0.247837 0.268223 0.30399 0.119687 0.228891 0.293976 0.311732 0.106392 0.106392 0.161754
          0.255172 0.259484 0.212785 0.315911 0.106392 0.208454 0.263815 0.216899 0.312471 0.0473664 0.0473664 0.0947327
          0.142099 0.233804 0.0473664 0.0473664 0.0473664 0.0947327 0.142099 0.230037 0.0473664 0.0470319 0.0473664 0.0470319
          0.0947327 0.0927081 0.141096 0.229737 0.0521913 0.0546023 0.0546023 0.0521913 0.156574 0.243262 0.108457 0.100308
          0.0546023 0.109205 0.21284 0.109205 0.20469 0.0546023 0.0546023 0.0366236 0.0552758 0.10382 0.0682833 0.0345306
          0.0793354 0.0868817 0.0454345 0.0266987 0.0266987 0.0489701 0.0932303 0.024485 0.0683888 0.024485 0.0684085 0.024119
          0.0430034 0.0835181 0.0244746 0.068766 0.0244746 0.0671224 0.02206 0.0925278 0.045628 0.0219519 0.0661801 0.0676159
          0.0219519 0.0216983 0.0216983 0.0216983 0.108261 0.065095 0.0433967 0.0236401 0.0236401 0.0236401 0.112149 0.0709204
          0.0472802 0.0623881 0.138079 0.138079 0.0623881 0.153337 0.109668 0.201438 0.124776 0.0217243 0.0217243 0.0217243
          0.108622 0.0651729 0.0434486 0.0434486 0.0370202 0.111061 0.186235 0.0740403 0.0370202 0.0370202 0.0740403 0.185101
          0.111061 0.0740403 0.111061 0.185669 0.0370202 0.0616292 0.0995266 0.174874 0.123747 0.200872 0.104314 0.149078
          0.061629 0.0822527 0.124704 0.136547 0.211101 0.123258 0.167183 0.0206237 0.0206237 0.0631622 0.107926 0.0421081
          0.0206237 0.0412474 0.0835523 0.0412474 0.0848802 0.0206237 0.0216048 0.0216048 0.0432096 0.0864193 0.0216048 0.0432096
          0.0864193 0.0216048 0.0432096 0.0648144 0.108024 0.021718 0.021718 0.021718 0.10859 0.0651541 0.043436 0.043436
          0.0224003 0.0224003 0.0448005 0.089601 0.0224003 0.0672008 0.0224003 0.0672008 0.289306 0.209241 0.232161 0.361088
          0.21381 0.298511 0.148656 0.276793 0.223674 0.143845 0.124411 0.167847 0.061629 0.102876 0.061629 0.10365
          0.263259 0.187629 0.340464 0.211237 0.105619 0.234845 0.234845 0.105619 0.1007 0.172606 0.294942 0.237354
          0.1007 0.230195 0.266148 0.203574 0.0512677 0.0732041 0.0256339 0.0254169 0.092528 0.0477873 0.0247265 0.0712732
          0.0244365 0.069237 0.0494531 0.0692141 0.118667 0.21125 0.241878 0.204782 0.13837 0.135938 0.224905 0.305703
          0.249632 0.326501 0.204346 0.279108 0.309708 0.271615 0.335307 0.423568 0.296602 0.0920453 0.182195 0.157677
          0.0664115 0.14466 0.173601 0.134764 0.21398 0.141692 0.15205 0.239414 0.0760251 0.162409 0.0760251 0.162409
          0.0328332 0.101596 0.0328332 0.0992852 0.0328332 0.0328332 0.0656664 0.136231 0.035953 0.0719061 0.138042 0.035953
          0.104033 0.035953 0.107859 0.0325934 0.1274 0.0651868 0.0325934 0.0958594 0.0970973 0.0325934 0.0346355 0.103906
          0.103906 0.0346355 0.0346355 0.0346355 0.138542 0.069271 0.0375349 0.0750608 0.150039 0.0375304 0.112509 0.0375304
          0.112509 0.0435461 0.0435461 0.17917 0.209707 0.11946 0.0819286 0.486175 0.483521 0.505288 0.458717 0.4285
          0.47662 0.491506 0.408255 0.439563 0.434871 0.46076 0.446776 0.46321 0.491467 0.329546 0.377108 0.45001
          0.3979 0.394881 0.415673 0.467659 0.376978 0.381808 0.378532 0.39439 0.418523 0.420054 0.475049 0.416252
          0.430428 0.143246 0.208433 0.274838 0.29818 0.386167 0.289846 0.320383 0.319995 0.408833 0.283797 0.308617
          0.397178 0.0768415 0.142028 0.0768415 0.141687 0.221974 0.252512 0.162265 0.153498 0.216579 0.318824 0.363387
          0.416472 0.376436 0.428127 0.352339 0.342957 0.37467 0.365466 0.356108 0.416837 0.467932 0.389513 0.377236
          0.251607 0.188525 0.281905 0.275086 0.199033 0.30536 0.296156 0.286845 0.250893 0.241494 0.168662 0.278282
          0.313136 0.37051 0.175566 0.280286 0.336991 0.315487 0.229117 0.252633 0.357353 0.407618 0.222527 0.153672
          0.245982 0.159862 0.0799308 0.166051 0.166051 0.0799308 0.324987 0.365535 0.406838 0.373997 0.375791 0.388919
          0.430538 0.378572 0.394839 0.40315 0.426002 0.409409 0.434926 0.405663 0.416032 0.45684 0.282251 0.317922
          0.360043 0.281052 0.323403 0.178944 0.313488 0.228193 0.349384 0.393504 0.247276 0.0313143 0.0939429 0.0313143
          0.0939429 0.0313143 0.0313143 0.0626286 0.125257 0.700336 0.678032 0.676619 0.661049 0.645831 0.660612 0.596232
          0.634218 0.546028 0.500257 0.505387 0.596232 0.586074 0.5811 0.562881 0.620569 0.55593 0.530018 0.535863
          0.52143 0.556831 0.468962 0.575168 0.56864 0.530835 0.695023 0.681382 0.672089 0.657471 0.638685 0.54917
          0.500132 0.636123 0.503334 0.590215 0.584482 0.608536 0.555329 0.558296 0.678614 0.640064 0.657754 0.648712
          0.610893 0.579882 0.487911 0.605466 0.552695 0.647217 0.612796 0.521586 0.595259 0.501825 0.618224 0.557194
          0.461702 0.499921 0.499718 0.494291 0.48816 0.471326 0.42432 0.602133 0.545949 0.499352 0.550994 0.535571
          0.528554 0.480313 0.307948 0.315624 0.346751 0.40316 0.359559 0.418236 0.341238 0.363273 0.329349 0.336171