<?xml version="1.0"?>
<VTKFile type="UnstructuredGrid" version="0.1" byte_order="LittleEndian">
  <UnstructuredGrid>
    <Piece NumberOfCells="100" NumberOfPoints="202">
      <CellData Scalars="S_aq">
        <DataArray type="Float32" Name="S_aq" NumberOfComponents="1" format="ascii">
          0.743931 0.728936 0.718301 0.709804 0.702621 0.696336 0.690708 0.685581 0.680848 0.676431 0.672273 0.668326
          0.664554 0.660924 0.65741 0.653986 0.650627 0.647309 0.644004 0.640684 0.637314 0.633849 0.630235 0.626396
          0.622229 0.61758 0.612224 0.605781 0.597676 0.58679 0.571005 0.54632 0.500049 0.39628 0.222671 0.200004
          0.2 0.2 0.2 0.2 0.2 0.2 0.2 0.2 0.2 0.2 0.2 0.2
          0.2 0.2 0.2 0.2 0.2 0.2 0.2 0.2 0.2 0.2 0.2 0.2
          0.2 0.2 0.2 0.2 0.2 0.2 0.2 0.2 0.2 0.2 0.2 0.2
          0.2 0.2 0.2 0.2 0.2 0.2 0.2 0.2 0.2 0.2 0.2 0.2
          0.2 0.2 0.2 0.2 0.2 0.2 0.2 0.2 0.2 0.2 0.2 0.2
          0.2 0.2 0.2 0.2
        </DataArray>
        <DataArray type="Float32" Name="p_aq" NumberOfComponents="1" format="ascii">
          185285 143867 98286.8 49461.8 -2139.44 -56220.6 -112573 -171041 -231504 -293866 -358047 -423985
          -491627 -560930 -631863 -704398 -778519 -854218 -931495 -1.01036e+06 -1.09084e+06 -1.17297e+06 -1.25681e+06 -1.34245e+06
          -1.43001e+06 -1.51965e+06 -1.61162e+06 -1.70626e+06 -1.80407e+06 -1.90577e+06 -2.01239e+06 -2.12526e+06 -2.24467e+06 -2.3624e+06 -2.43824e+06 -2.47026e+06
          -2.49969e+06 -2.52912e+06 -2.55855e+06 -2.58798e+06 -2.61741e+06 -2.64684e+06 -2.67627e+06 -2.7057e+06 -2.73513e+06 -2.76456e+06 -2.79399e+06 -2.82342e+06
          -2.85285e+06 -2.88228e+06 -2.91171e+06 -2.94114e+06 -2.97057e+06 -3e+06 -3.02943e+06 -3.05886e+06 -3.08829e+06 -3.11772e+06 -3.14715e+06 -3.17658e+06
          -3.20601e+06 -3.23544e+06 -3.26487e+06 -3.2943e+06 -3.32373e+06 -3.35316e+06 -3.38259e+06 -3.41202e+06 -3.44145e+06 -3.47088e+06 -3.50031e+06 -3.52974e+06
          -3.55917e+06 -3.5886e+06 -3.61803e+06 -3.64746e+06 -3.67689e+06 -3.70632e+06 -3.73575e+06 -3.76518e+06 -3.79461e+06 -3.82404e+06 -3.85347e+06 -3.8829e+06
          -3.91233e+06 -3.94176e+06 -3.97119e+06 -4.00062e+06 -4.03005e+06 -4.05948e+06 -4.08891e+06 -4.11834e+06 -4.14777e+06 -4.1772e+06 -4.20663e+06 -4.23606e+06
          -4.26549e+06 -4.29492e+06 -4.32435e+06 -4.35378e+06
        </DataArray>
        <DataArray type="Float32" Name="rho_aq" NumberOfComponents="1" format="ascii">
          1000 1000 1000 1000 1000 1000 1000 1000 1000 1000 1000 1000
          1000 1000 1000 1000 1000 1000 1000 1000 1000 1000 1000 1000
          1000 1000 1000 1000 1000 1000 1000 1000 1000 1000 1000 1000
          1000 1000 1000 1000 1000 1000 1000 1000 1000 1000 1000 1000
          1000 1000 1000 1000 1000 1000 1000 1000 1000 1000 1000 1000
          1000 1000 1000 1000 1000 1000 1000 1000 1000 1000 1000 1000
          1000 1000 1000 1000 1000 1000 1000 1000 1000 1000 1000 1000
          1000 1000 1000 1000 1000 1000 1000 1000 1000 1000 1000 1000
          1000 1000 1000 1000
        </DataArray>
        <DataArray type="Float32" Name="mob_aq" NumberOfComponents="1" format="ascii">
          709.372 643.253 599.11 565.436 538.038 514.856 494.711 476.855 460.784 446.141 432.659 420.136
          408.41 397.352 386.849 376.808 367.14 357.764 348.599 339.56 330.557 321.482 312.205 302.565
          292.34 281.228 268.805 254.386 237.041 215.097 185.91 146.098 88.439 20.0235 0.0104866 1.02466e-15
          0 0 0 0 0 0 0 0 0 0 0 0
          0 0 0 0 0 0 0 0 0 0 0 0
          0 0 0 0 0 0 0 0 0 0 0 0
          0 0 0 0 0 0 0 0 0 0 0 0
          0 0 0 0 0 0 0 0 0 0 0 0
          0 0 0 0
        </DataArray>
        <DataArray type="Float32" Name="S_napl" NumberOfComponents="1" format="ascii">
          0.256069 0.271064 0.281699 0.290196 0.297379 0.303664 0.309292 0.314419 0.319152 0.323569 0.327727 0.331674
          0.335446 0.339075 0.34259 0.346014 0.349373 0.352691 0.355996 0.359316 0.362686 0.366151 0.369765 0.373604
          0.377771 0.38242 0.387776 0.394219 0.402324 0.41321 0.428995 0.45368 0.499951 0.60372 0.777329 0.799996
          0.8 0.8 0.8 0.8 0.8 0.8 0.8 0.8 0.8 0.8 0.8 0.8
          0.8 0.8 0.8 0.8 0.8 0.8 0.8 0.8 0.8 0.8 0.8 0.8
          0.8 0.8 0.8 0.8 0.8 0.8 0.8 0.8 0.8 0.8 0.8 0.8
          0.8 0.8 0.8 0.8 0.8 0.8 0.8 0.8 0.8 0.8 0.8 0.8
          0.8 0.8 0.8 0.8 0.8 0.8 0.8 0.8 0.8 0.8 0.8 0.8
          0.8 0.8 0.8 0.8
        </DataArray>
        <DataArray type="Float32" Name="p_napl" NumberOfComponents="1" format="ascii">
          185285 143867 98286.8 49461.8 -2139.44 -56220.6 -112573 -171041 -231504 -293866 -358047 -423985
          -491627 -560930 -631863 -704398 -778519 -854218 -931495 -1.01036e+06 -1.09084e+06 -1.17297e+06 -1.25681e+06 -1.34245e+06
          -1.43001e+06 -1.51965e+06 -1.61162e+06 -1.70626e+06 -1.80407e+06 -1.90577e+06 -2.01239e+06 -2.12526e+06 -2.24467e+06 -2.3624e+06 -2.43824e+06 -2.47026e+06
          -2.49969e+06 -2.52912e+06 -2.55855e+06 -2.58798e+06 -2.61741e+06 -2.64684e+06 -2.67627e+06 -2.7057e+06 -2.73513e+06 -2.76456e+06 -2.79399e+06 -2.82342e+06
          -2.85285e+06 -2.88228e+06 -2.91171e+06 -2.94114e+06 -2.97057e+06 -3e+06 -3.02943e+06 -3.05886e+06 -3.08829e+06 -3.11772e+06 -3.14715e+06 -3.17658e+06
          -3.20601e+06 -3.23544e+06 -3.26487e+06 -3.2943e+06 -3.32373e+06 -3.35316e+06 -3.38259e+06 -3.41202e+06 -3.44145e+06 -3.47088e+06 -3.50031e+06 -3.52974e+06
          -3.55917e+06 -3.5886e+06 -3.61803e+06 -3.64746e+06 -3.67689e+06 -3.70632e+06 -3.73575e+06 -3.76518e+06 -3.79461e+06 -3.82404e+06 -3.85347e+06 -3.8829e+06
          -3.91233e+06 -3.94176e+06 -3.97119e+06 -4.00062e+06 -4.03005e+06 -4.05948e+06 -4.08891e+06 -4.11834e+06 -4.14777e+06 -4.1772e+06 -4.20663e+06 -4.23606e+06
          -4.26549e+06 -4.29492e+06 -4.32435e+06 -4.35378e+06
        </DataArray>
        <DataArray type="Float32" Name="rho_napl" NumberOfComponents="1" format="ascii">
          1000 1000 1000 1000 1000 1000 1000 1000 1000 1000 1000 1000
          1000 1000 1000 1000 1000 1000 1000 1000 1000 1000 1000 1000
          1000 1000 1000 1000 1000 1000 1000 1000 1000 1000 1000 1000
          1000 1000 1000 1000 1000 1000 1000 1000 1000 1000 1000 1000
          1000 1000 1000 1000 1000 1000 1000 1000 1000 1000 1000 1000
          1000 1000 1000 1000 1000 1000 1000 1000 1000 1000 1000 1000
          1000 1000 1000 1000 1000 1000 1000 1000 1000 1000 1000 1000
          1000 1000 1000 1000 1000 1000 1000 1000 1000 1000 1000 1000
          1000 1000 1000 1000
        </DataArray>
        <DataArray type="Float32" Name="mob_napl" NumberOfComponents="1" format="ascii">
          1.19501 2.41689 3.65498 4.89899 6.1449 7.39161 8.63943 9.88945 11.1433 12.403 13.6708 14.9494
          16.2419 17.5521 18.8843 20.2441 21.6381 23.075 24.5658 26.125 27.7721 29.5334 31.4461 33.5629
          35.963 38.7672 42.1675 46.504 52.3521 60.9155 74.8367 100.37 161.537 368.036 919.057 999.985
          1000 1000 1000 1000 1000 1000 1000 1000 1000 1000 1000 1000
          1000 1000 1000 1000 1000 1000 1000 1000 1000 1000 1000 1000
          1000 1000 1000 1000 1000 1000 1000 1000 1000 1000 1000 1000
          1000 1000 1000 1000 1000 1000 1000 1000 1000 1000 1000 1000
          1000 1000 1000 1000 1000 1000 1000 1000 1000 1000 1000 1000
          1000 1000 1000 1000
        </DataArray>
        <DataArray type="Float32" Name="pc" NumberOfComponents="1" format="ascii">
          0 0 0 0 0 0 0 0 0 0 0 0
          0 0 0 0 0 0 0 0 0 0 0 0
          0 0 0 0 0 0 0 0 0 0 0 0
          0 0 0 0 0 0 0 0 0 0 0 0
          0 0 0 0 0 0 0 0 0 0 0 0
          0 0 0 0 0 0 0 0 0 0 0 0
          0 0 0 0 0 0 0 0 0 0 0 0
          0 0 0 0 0 0 0 0 0 0 0 0
          0 0 0 0
        </DataArray>
        <DataArray type="Float32" Name="porosity" NumberOfComponents="1" format="ascii">
          0.2 0.2 0.2 0.2 0.2 0.2 0.2 0.2 0.2 0.2 0.2 0.2
          0.2 0.2 0.2 0.2 0.2 0.2 0.2 0.2 0.2 0.2 0.2 0.2
          0.2 0.2 0.2 0.2 0.2 0.2 0.2 0.2 0.2 0.2 0.2 0.2
          0.2 0.2 0.2 0.2 0.2 0.2 0.2 0.2 0.2 0.2 0.2 0.2
          0.2 0.2 0.2 0.2 0.2 0.2 0.2 0.2 0.2 0.2 0.2 0.2
          0.2 0.2 0.2 0.2 0.2 0.2 0.2 0.2 0.2 0.2 0.2 0.2
          0.2 0.2 0.2 0.2 0.2 0.2 0.2 0.2 0.2 0.2 0.2 0.2
          0.2 0.2 0.2 0.2 0.2 0.2 0.2 0.2 0.2 0.2 0.2 0.2
          0.2 0.2 0.2 0.2
        </DataArray>
        <DataArray type="Float32" Name="process rank" NumberOfComponents="1" format="ascii">
          0 0 0 0 0 0 0 0 0 0 0 0
          0 0 0 0 0 0 0 0 0 0 0 0
          0 0 0 0 0 0 0 0 0 0 0 0
          0 0 0 0 0 0 0 0 0 0 0 0
          0 0 0 0 0 0 0 0 0 0 0 0
          0 0 0 0 0 0 0 0 0 0 0 0
          0 0 0 0 0 0 0 0 0 0 0 0
          0 0 0 0 0 0 0 0 0 0 0 0
          0 0 0 0
        </DataArray>
        <DataArray type="Float32" Name="Sw_exact" NumberOfComponents="1" format="ascii">
          0.7646 0.7436 0.731 0.7214 0.7136 0.707 0.701 0.6956 0.6908 0.6866 0.6824 0.6788
          0.6752 0.6722 0.6692 0.6662 0.6632 0.6602 0.6578 0.6554 0.653 0.6506 0.6482 0.6458
          0.644 0.6416 0.6398 0.6374 0.6356 0.6338 0.632 0.6302 0.2 0.2 0.2 0.2
          0.2 0.2 0.2 0.2 0.2 0.2 0.2 0.2 0.2 0.2 0.2 0.2
          0.2 0.2 0.2 0.2 0.2 0.2 0.2 0.2 0.2 0.2 0.2 0.2
          0.2 0.2 0.2 0.2 0.2 0.2 0.2 0.2 0.2 0.2 0.2 0.2
          0.2 0.2 0.2 0.2 0.2 0.2 0.2 0.2 0.2 0.2 0.2 0.2
          0.2 0.2 0.2 0.2 0.2 0.2 0.2 0.2 0.2 0.2 0.2 0.2
          0.2 0.2 0.2 0.2
        </DataArray>
      </CellData>
      <Points>
        <DataArray type="Float32" Name="Coordinates" NumberOfComponents="3" format="ascii">
          0 0 0 1 0 0 0 75 0 1 75 0
          2 0 0 2 75 0 3 0 0 3 75 0
          4 0 0 4 75 0 5 0 0 5 75 0
          6 0 0 6 75 0 7 0 0 7 75 0
          8 0 0 8 75 0 9 0 0 9 75 0
          10 0 0 10 75 0 11 0 0 11 75 0
          12 0 0 12 75 0 13 0 0 13 75 0
          14 0 0 14 75 0 15 0 0 15 75 0
          16 0 0 16 75 0 17 0 0 17 75 0
          18 0 0 18 75 0 19 0 0 19 75 0
          20 0 0 20 75 0 21 0 0 21 75 0
          22 0 0 22 75 0 23 0 0 23 75 0
          24 0 0 24 75 0 25 0 0 25 75 0
          26 0 0 26 75 0 27 0 0 27 75 0
          28 0 0 28 75 0 29 0 0 29 75 0
          30 0 0 30 75 0 31 0 0 31 75 0
          32 0 0 32 75 0 33 0 0 33 75 0
          34 0 0 34 75 0 35 0 0 35 75 0
          36 0 0 36 75 0 37 0 0 37 75 0
          38 0 0 38 75 0 39 0 0 39 75 0
          40 0 0 40 75 0 41 0 0 41 75 0
          42 0 0 42 75 0 43 0 0 43 75 0
          44 0 0 44 75 0 45 0 0 45 75 0
          46 0 0 46 75 0 47 0 0 47 75 0
          48 0 0 48 75 0 49 0 0 49 75 0
          50 0 0 50 75 0 51 0 0 51 75 0
          52 0 0 52 75 0 53 0 0 53 75 0
          54 0 0 54 75 0 55 0 0 55 75 0
          56 0 0 56 75 0 57 0 0 57 75 0
          58 0 0 58 75 0 59 0 0 59 75 0
          60 0 0 60 75 0 61 0 0 61 75 0
          62 0 0 62 75 0 63 0 0 63 75 0
          64 0 0 64 75 0 65 0 0 65 75 0
          66 0 0 66 75 0 67 0 0 67 75 0
          68 0 0 68 75 0 69 0 0 69 75 0
          70 0 0 70 75 0 71 0 0 71 75 0
          72 0 0 72 75 0 73 0 0 73 75 0
          74 0 0 74 75 0 75 0 0 75 75 0
          76 0 0 76 75 0 77 0 0 77 75 0
          78 0 0 78 75 0 79 0 0 79 75 0
          80 0 0 80 75 0 81 0 0 81 75 0
          82 0 0 82 75 0 83 0 0 83 75 0
          84 0 0 84 75 0 85 0 0 85 75 0
          86 0 0 86 75 0 87 0 0 87 75 0
          88 0 0 88 75 0 89 0 0 89 75 0
          90 0 0 90 75 0 91 0 0 91 75 0
          92 0 0 92 75 0 93 0 0 93 75 0
          94 0 0 94 75 0 95 0 0 95 75 0
          96 0 0 96 75 0 97 0 0 97 75 0
          98 0 0 98 75 0 99 0 0 99 75 0
          100 0 0 100 75 0
        </DataArray>
      </Points>
      <Cells>
        <DataArray type="Int32" Name="connectivity" NumberOfComponents="1" format="ascii">
          0 1 3 2 1 4 5 3 4 6 7 5
          6 8 9 7 8 10 11 9 10 12 13 11
          12 14 15 13 14 16 17 15 16 18 19 17
          18 20 21 19 20 22 23 21 22 24 25 23
          24 26 27 25 26 28 29 27 28 30 31 29
          30 32 33 31 32 34 35 33 34 36 37 35
          36 38 39 37 38 40 41 39 40 42 43 41
          42 44 45 43 44 46 47 45 46 48 49 47
          48 50 51 49 50 52 53 51 52 54 55 53
          54 56 57 55 56 58 59 57 58 60 61 59
          60 62 63 61 62 64 65 63 64 66 67 65
          66 68 69 67 68 70 71 69 70 72 73 71
          72 74 75 73 74 76 77 75 76 78 79 77
          78 80 81 79 80 82 83 81 82 84 85 83
          84 86 87 85 86 88 89 87 88 90 91 89
          90 92 93 91 92 94 95 93 94 96 97 95
          96 98 99 97 98 100 101 99 100 102 103 101
          102 104 105 103 104 106 107 105 106 108 109 107
          108 110 111 109 110 112 113 111 112 114 115 113
          114 116 117 115 116 118 119 117 118 120 121 119
          120 122 123 121 122 124 125 123 124 126 127 125
          126 128 129 127 128 130 131 129 130 132 133 131
          132 134 135 133 134 136 137 135 136 138 139 137
          138 140 141 139 140 142 143 141 142 144 145 143
          144 146 147 145 146 148 149 147 148 150 151 149
          150 152 153 151 152 154 155 153 154 156 157 155
          156 158 159 157 158 160 161 159 160 162 163 161
          162 164 165 163 164 166 167 165 166 168 169 167
          168 170 171 169 170 172 173 171 172 174 175 173
          174 176 177 175 176 178 179 177 178 180 181 179
          180 182 183 181 182 184 185 183 184 186 187 185
          186 188 189 187 188 190 191 189 190 192 193 191
          192 194 195 193 194 196 197 195 196 198 199 197
          198 200 201 199
        </DataArray>
        <DataArray type="Int32" Name="offsets" NumberOfComponents="1" format="ascii">
          4 8 12 16 20 24 28 32 36 40 44 48
          52 56 60 64 68 72 76 80 84 88 92 96
          100 104 108 112 116 120 124 128 132 136 140 144
          148 152 156 160 164 168 172 176 180 184 188 192
          196 200 204 208 212 216 220 224 228 232 236 240
          244 248 252 256 260 264 268 272 276 280 284 288
          292 296 300 304 308 312 316 320 324 328 332 336
          340 344 348 352 356 360 364 368 372 376 380 384
          388 392 396 400
        </DataArray>
        <DataArray type="UInt8" Name="types" NumberOfComponents="1" format="ascii">
          9 9 9 9 9 9 9 9 9 9 9 9
          9 9 9 9 9 9 9 9 9 9 9 9
          9 9 9 9 9 9 9 9 9 9 9 9
          9 9 9 9 9 9 9 9 9 9 9 9
          9 9 9 9 9 9 9 9 9 9 9 9
          9 9 9 9 9 9 9 9 9 9 9 9
          9 9 9 9 9 9 9 9 9 9 9 9
          9 9 9 9 9 9 9 9 9 9 9 9
          9 9 9 9
        </DataArray>
      </Cells>
    </Piece>
  </UnstructuredGrid>
</VTKFile>
