<?xml version="1.0"?>
<VTKFile type="UnstructuredGrid" version="0.1" byte_order="LittleEndian">
  <UnstructuredGrid>
    <Piece NumberOfCells="1728" NumberOfPoints="2197">
      <PointData Scalars="S_liq">
        <DataArray type="Float32" Name="S_liq" NumberOfComponents="1" format="ascii">
          0.208927 0.208891 0.208921 0.208882 0.208725 0.208672 0.208711 0.208647 0.208808 0.208793 0.208542 0.208485
          0.208737 0.208723 0.208428 0.208319 0.208742 0.20872 0.208421 0.208315 0.208842 0.20881 0.208545 0.208471
          0.20902 0.208984 0.208756 0.208696 0.209245 0.20921 0.209008 0.208954 0.209492 0.209461 0.209277 0.209231
          0.20973 0.209707 0.209536 0.209503 0.209929 0.209914 0.209753 0.209732 0.210062 0.210051 0.209897 0.209884
          0.210108 0.210099 0.209948 0.209936 0.208917 0.208872 0.208687 0.208604 0.208778 0.208366 0.208687 0.208217
          0.20867 0.208176 0.208745 0.208303 0.208899 0.208541 0.209118 0.208797 0.20938 0.209099 0.209647 0.209415
          0.209874 0.209679 0.210025 0.20985 0.210078 0.209909 0.208946 0.208899 0.208698 0.20861 0.208801 0.208353
          0.208692 0.208222 0.208662 0.208113 0.208702 0.208208 0.208823 0.208358 0.209026 0.208542 0.209291 0.208909
          0.209582 0.209304 0.209834 0.209617 0.21 0.209815 0.210058 0.209882 0.209029 0.208987 0.20877 0.208697
          0.208886 0.208508 0.208791 0.208298 0.208733 0.208233 0.20874 0.208268 0.208826 0.208274 0.209008 0.208345
          0.209258 0.208769 0.209554 0.209237 0.209821 0.209584 0.209998 0.209802 0.21006 0.209876 0.209168 0.209132
          0.208904 0.208848 0.209044 0.208706 0.208948 0.208566 0.208889 0.208484 0.208879 0.208451 0.208931 0.208438
          0.209075 0.208526 0.20931 0.208865 0.209598 0.209268 0.209859 0.20961 0.210036 0.209833 0.210098 0.20991
          0.209355 0.209325 0.209091 0.209038 0.209253 0.208909 0.209175 0.208781 0.209111 0.208732 0.209092 0.208703
          0.20913 0.208693 0.209254 0.208772 0.209458 0.209035 0.209712 0.209397 0.209954 0.209707 0.21012 0.209919
          0.210179 0.209994 0.209582 0.209558 0.209329 0.209275 0.209497 0.209166 0.209418 0.209119 0.209376 0.208999
          0.209349 0.208994 0.209388 0.20896 0.209476 0.209128 0.209666 0.209263 0.209882 0.209584 0.210096 0.209864
          0.210246 0.210055 0.210299 0.210122 0.209833 0.209812 0.209608 0.209568 0.20976 0.20947 0.209703 0.209373
          0.20965 0.209341 0.20963 0.209315 0.209655 0.209302 0.209746 0.209357 0.209893 0.209555 0.210082 0.209815
          0.210266 0.210056 0.210396 0.21022 0.210442 0.210277 0.210078 0.210061 0.209887 0.209861 0.210016 0.209797
          0.209963 0.209727 0.20992 0.209671 0.209901 0.209632 0.209919 0.209635 0.209994 0.209686 0.21012 0.209853
          0.210282 0.210052 0.210437 0.21025 0.210547 0.210386 0.210587 0.210435 0.210283 0.210269 0.210118 0.2101
          0.210232 0.210053 0.210186 0.209993 0.210145 0.209936 0.210125 0.209895 0.210141 0.209895 0.210204 0.209963
          0.210315 0.210084 0.210451 0.210252 0.210582 0.210415 0.210676 0.210528 0.21071 0.210569 0.210417 0.210405
          0.210267 0.210253 0.210373 0.210213 0.21033 0.210159 0.210292 0.210105 0.210272 0.210069 0.210286 0.21007
          0.210345 0.210127 0.210442 0.21024 0.210563 0.210386 0.21068 0.210525 0.210763 0.210623 0.210793 0.210659
          0.210463 0.210452 0.210319 0.210305 0.210421 0.210267 0.21038 0.210215 0.210342 0.210163 0.210323 0.210129
          0.210337 0.210133 0.210393 0.210188 0.210487 0.210296 0.210603 0.210433 0.210714 0.210564 0.210793 0.210657
          0.210822 0.21069 0.208206 0.208121 0.208173 0.208065 0.207912 0.207736 0.207712 0.207402 0.207666 0.207356
          0.207805 0.207613 0.208057 0.207941 0.208355 0.208257 0.208673 0.208593 0.208984 0.208929 0.209247 0.209214
          0.209422 0.209401 0.209483 0.209467 0.208102 0.207951 0.20739 0.205602 0.205938 0.207191 0.207617 0.207946
          0.208342 0.20877 0.209125 0.209348 0.209425 0.208055 0.207888 0.207257 0.205028 0.205771 0.206865 0.207115
          0.207286 0.207858 0.208551 0.209013 0.209287 0.209378 0.208075 0.207933 0.207485 0.20699 0.206866 0.206965
          0.206833 0.204823 0.207477 0.208369 0.208925 0.209248 0.209355 0.208176 0.208059 0.207816 0.207523 0.207372
          0.207295 0.207077 0.206989 0.20748 0.208295 0.208904 0.209265 0.209382 0.208358 0.20823 0.207919 0.207713
          0.207683 0.207658 0.207456 0.207417 0.207915 0.208396 0.208991 0.209357 0.209474 0.208634 0.20849 0.207846
          0.206943 0.208006 0.208037 0.207821 0.206555 0.208042 0.208692 0.209205 0.209522 0.209627 0.208989 0.208889
          0.208644 0.208487 0.208476 0.208445 0.208252 0.208185 0.20854 0.209061 0.209472 0.209729 0.209816 0.209356
          0.209309 0.209197 0.20908 0.20898 0.208859 0.208688 0.208897 0.208963 0.209394 0.209729 0.209937 0.210008
          0.209656 0.209627 0.209552 0.209452 0.209342 0.209226 0.209125 0.209118 0.209367 0.209678 0.209943 0.210113
          0.210171 0.209844 0.209821 0.209759 0.20967 0.209571 0.20948 0.209433 0.209483 0.20965 0.209879 0.210089
          0.21023 0.21028 0.209908 0.209887 0.209828 0.209743 0.209649 0.209572 0.209544 0.209603 0.209752 0.209952
          0.210141 0.210272 0.210318 0.20752 0.207429 0.20747 0.207358 0.207198 0.207061 0.206948 0.206718 0.20682
          0.206569 0.206876 0.206672 0.207083 0.206915 0.207391 0.207246 0.207758 0.207641 0.208134 0.208055 0.208458
          0.208411 0.208675 0.208647 0.208752 0.208728 0.207347 0.207192 0.206695 0.20611 0.205822 0.206026 0.206434
          0.206784 0.207273 0.207824 0.208283 0.208572 0.208669 0.20721 0.207021 0.206398 0.204789 0.202854 0.205396
          0.205662 0.205832 0.206579 0.207497 0.208118 0.208482 0.208603 0.207122 0.206904 0.20632 0.205546 0.204478
          0.205252 0.205133 0.202833 0.205959 0.207195 0.207975 0.208421 0.208566 0.207143 0.206904 0.206124 0.206027
          0.205795 0.205692 0.205306 0.205145 0.20566 0.206901 0.207905 0.208433 0.208594 0.20732 0.207079 0.206611
          0.206338 0.206319 0.206227 0.205903 0.204767 0.203166 0.206552 0.208003 0.208546 0.208708 0.207663 0.207427
          0.206326 0.206228 0.206758 0.206724 0.206434 0.206129 0.206558 0.207431 0.208288 0.208755 0.208899 0.208123
          0.207966 0.207636 0.20741 0.207361 0.207208 0.206801 0.206634 0.207206 0.208056 0.208656 0.209017 0.209136
          0.208594 0.208523 0.208353 0.208163 0.207969 0.20771 0.20716 0.20446 0.207568 0.208472 0.208987 0.209278
          0.209374 0.20897 0.208926 0.208807 0.20864 0.208441 0.208195 0.207828 0.207716 0.20819 0.208847 0.209259
          0.209497 0.209576 0.209203 0.209167 0.209068 0.208921 0.20875 0.208576 0.208463 0.20852 0.208782 0.209138
          0.209448 0.209644 0.209711 0.209281 0.209248 0.209154 0.209016 0.208859 0.20872 0.20866 0.208738 0.208957
          0.209248 0.209516 0.209696 0.209758 0.206719 0.206626 0.206661 0.206556 0.206381 0.206275 0.20607 0.205917
          0.205816 0.205619 0.205726 0.2055 0.20585 0.205641 0.206161 0.20597 0.206586 0.206435 0.20704 0.206938
          0.207435 0.207375 0.207701 0.207664 0.207794 0.207764 0.206503 0.206366 0.205985 0.205463 0.20502 0.204961
          0.205009 0.205373 0.205961 0.206644 0.207212 0.207568 0.207688 0.206288 0.206106 0.205579 0.204823 0.204339
          0.204063 0.204038 0.204154 0.205104 0.206233 0.207009 0.207457 0.207604 0.206089 0.205792 0.205137 0.204054
          0.2019 0.203567 0.203163 0.201182 0.204265 0.205905 0.206863 0.207391 0.207562 0.206024 0.205632 0.203662
          0.204287 0.204043 0.203829 0.203355 0.201353 0.204264 0.205842 0.206852 0.207427 0.207609 0.206202 0.205808
          0.205029 0.2047 0.204645 0.204456 0.204196 0.203816 0.205116 0.206108 0.207033 0.207587 0.207766 0.20662
          0.206329 0.205045 0.204498 0.205224 0.205146 0.204995 0.205117 0.205688 0.206595 0.207374 0.207855 0.208014
          0.207172 0.206983 0.206559 0.206195 0.205978 0.205681 0.205232 0.205343 0.206132 0.2071 0.207774 0.208176
          0.208311 0.207716 0.207619 0.207372 0.207055 0.206707 0.206159 0.205516 0.203124 0.206488 0.207548 0.208152
          0.208492 0.208604 0.208146 0.208079 0.207894 0.207624 0.207289 0.206889 0.206412 0.206497 0.207182 0.207976
          0.208472 0.208757 0.208851 0.208415 0.208361 0.208206 0.207978 0.207712 0.207461 0.207342 0.207476 0.207856
          0.208314 0.208696 0.208934 0.209014 0.208506 0.208456 0.208312 0.208102 0.207868 0.207678 0.20762 0.207757
          0.208065 0.208443 0.208777 0.208997 0.209072 0.205797 0.205686 0.205738 0.205617 0.205378 0.205282 0.204948
          0.2048 0.204519 0.204258 0.204268 0.203909 0.204325 0.203977 0.204675 0.204422 0.205193 0.205005 0.205743
          0.205618 0.206218 0.206143 0.206537 0.20649 0.206649 0.20661 0.205573 0.205426 0.205013 0.204402 0.203677
          0.202412 0.203205 0.203651 0.204431 0.205263 0.205942 0.206368 0.206513 0.205344 0.205151 0.204616 0.20379
          0.202864 0.202058 0.201848 0.20217 0.203362 0.204786 0.205696 0.206227 0.206405 0.205123 0.204828 0.204107
          0.203069 0.201229 0.201501 0.201127 0.196615 0.20252 0.204431 0.205517 0.206145 0.206355 0.205044 0.204609
          0.203078 0.202868 0.200401 0.200754 0.201211 0.200552 0.202729 0.204462 0.205606 0.206198 0.20643 0.205229
          0.204807 0.202884 0.202945 0.20159 0.202354 0.202423 0.202809 0.203778 0.204886 0.205844 0.206448 0.206653
          0.205672 0.205361 0.204722 0.203536 0.203488 0.203262 0.203341 0.203777 0.204576 0.205516 0.206307 0.206815
          0.206989 0.206243 0.206057 0.205546 0.204946 0.204303 0.203709 0.203539 0.204145 0.205224 0.206117 0.206796
          0.207225 0.20737 0.206805 0.206671 0.206302 0.205768 0.205027 0.204426 0.200294 0.204788 0.205782 0.206651
          0.207251 0.207614 0.207737 0.20726 0.20716 0.206875 0.206438 0.205889 0.205176 0.205023 0.205516 0.20644
          0.207129 0.207631 0.207937 0.208039 0.207556 0.207475 0.207247 0.206909 0.206527 0.206237 0.206198 0.206482
          0.20697 0.207481 0.20789 0.208151 0.20824 0.207658 0.207585 0.207377 0.207079 0.206767 0.206554 0.206546
          0.206775 0.207172 0.207611 0.207983 0.208226 0.20831 0.204776 0.204623 0.204718 0.204554 0.204197 0.204095
          0.203602 0.20343 0.203013 0.202669 0.202622 0.202129 0.20263 0.202133 0.203026 0.202669 0.203635 0.203411
          0.204282 0.204133 0.204843 0.204746 0.205226 0.205162 0.205363 0.20531 0.204564 0.204372 0.20383 0.203033
          0.201733 0.20005 0.200034 0.201749 0.202755 0.203704 0.204491 0.204998 0.205177 0.204372 0.204137 0.203483
          0.202545 0.201277 0.199231 0.199299 0.200197 0.20171 0.203119 0.204158 0.204811 0.205033 0.204222 0.203936
          0.203064 0.201984 0.200805 0.19958 0.196124 0.197809 0.200863 0.202675 0.203865 0.204676 0.204975 0.204214
          0.203887 0.202942 0.199732 0.200705 0.198491 0.198981 0.198728 0.200652 0.202535 0.203216 0.204761 0.205091
          0.204423 0.204098 0.203267 0.202054 0.20076 0.200585 0.200547 0.200423 0.200613 0.203184 0.204375 0.205119
          0.205403 0.204835 0.204562 0.203775 0.202744 0.201754 0.201204 0.201407 0.202005 0.202954 0.204063 0.205044
          0.20564 0.205847 0.205366 0.205131 0.204405 0.203131 0.202109 0.200192 0.201446 0.202892 0.204056 0.204877
          0.205674 0.206166 0.206334 0.205914 0.205721 0.205136 0.204185 0.203086 0.198669 0.2025 0.203706 0.204771
          0.20561 0.206252 0.206656 0.206794 0.206389 0.206244 0.205818 0.205149 0.204223 0.203699 0.203879 0.204763
          0.205547 0.206213 0.20673 0.20706 0.207173 0.206712 0.206601 0.206285 0.205822 0.20535 0.205073 0.205156
          0.205552 0.206094 0.20662 0.207048 0.207326 0.207422 0.206827 0.206728 0.206452 0.206066 0.205693 0.205481
          0.205534 0.20584 0.206293 0.206764 0.20716 0.207419 0.20751 0.20376 0.203541 0.203699 0.203462 0.202925
          0.202778 0.202058 0.201794 0.201195 0.201083 0.200821 0.200422 0.200907 0.200452 0.201344 0.200968 0.201985
          0.201708 0.202704 0.202479 0.203372 0.20322 0.203851 0.203752 0.204026 0.203948 0.20355 0.203272 0.202434
          0.201028 0.20017 0.199534 0.198887 0.199947 0.200905 0.201952 0.202806 0.203503 0.203756 0.20339 0.203077
          0.20212 0.200528 0.199558 0.196764 0.197222 0.198374 0.199631 0.201065 0.202362 0.203233 0.20357 0.203309
          0.202983 0.201991 0.200305 0.199484 0.198071 0.196556 0.194375 0.198015 0.199693 0.202051 0.203143 0.203531
          0.203378 0.203059 0.202114 0.200962 0.199316 0.198651 0.197795 0.197959 0.198721 0.199803 0.202287 0.203348
          0.203721 0.203625 0.203325 0.20245 0.201156 0.199187 0.198448 0.197824 0.198913 0.200393 0.201626 0.202903
          0.203814 0.20412 0.204038 0.203735 0.202807 0.201405 0.199319 0.198744 0.19856 0.200263 0.201313 0.202592
          0.203655 0.204405 0.204657 0.204564 0.204274 0.2033 0.200187 0.199528 0.197705 0.199881 0.201308 0.200844
          0.203422 0.204413 0.205039 0.20525 0.205128 0.204883 0.204066 0.202678 0.199199 0.200582 0.200823 0.202537
          0.203461 0.204343 0.205162 0.205654 0.205822 0.205635 0.205452 0.204905 0.203966 0.203042 0.202661 0.20311
          0.203797 0.204543 0.205224 0.205791 0.206166 0.206296 0.205988 0.205852 0.205465 0.204914 0.204389 0.204131
          0.20425 0.204663 0.205203 0.205745 0.2062 0.206502 0.206608 0.206114 0.205996 0.205667 0.205217 0.204797
          0.204574 0.204641 0.204964 0.205432 0.205922 0.206341 0.206619 0.206717 0.202952 0.202673 0.202884 0.202579
          0.201875 0.201645 0.200562 0.200241 0.199416 0.19699 0.198963 0.19806 0.199189 0.198757 0.199652 0.199259
          0.200342 0.199875 0.201163 0.200752 0.201984 0.201707 0.202599 0.202454 0.202828 0.20272 0.202719 0.202358
          0.201178 0.198476 0.198329 0.196372 0.197541 0.198024 0.19884 0.199058 0.201009 0.202064 0.202465 0.202546
          0.202142 0.200821 0.198081 0.197852 0.196896 0.195569 0.196082 0.197296 0.198463 0.199562 0.201683 0.202245
          0.202465 0.202041 0.200842 0.197983 0.196552 0.19638 0.195331 0.193065 0.196567 0.197005 0.199436 0.201677
          0.202237 0.202547 0.202144 0.200989 0.19957 0.198224 0.197317 0.196464 0.195489 0.197605 0.199334 0.20079
          0.202021 0.202481 0.202832 0.202424 0.201479 0.199922 0.19884 0.197943 0.197415 0.197038 0.1987 0.20013
          0.201523 0.202517 0.202918 0.203309 0.20295 0.201904 0.200679 0.199327 0.198467 0.198318 0.198774 0.199682
          0.199964 0.202208 0.203144 0.203512 0.203915 0.203606 0.202681 0.20136 0.199793 0.199151 0.198916 0.199834
          0.200557 0.201296 0.20305 0.203925 0.204211 0.204545 0.204298 0.203551 0.202217 0.199214 0.19919 0.200647
          0.201417 0.202181 0.203202 0.204086 0.204702 0.204911 0.205094 0.204908 0.204352 0.203412 0.202415 0.201943
          0.202151 0.202756 0.203523 0.204272 0.204912 0.205341 0.205491 0.205468 0.205327 0.204923 0.204342 0.20377
          0.203436 0.203468 0.203818 0.20435 0.204924 0.205419 0.205752 0.20587 0.205601 0.205476 0.20513 0.204649
          0.204185 0.203904 0.203908 0.204186 0.20464 0.205146 0.205592 0.205894 0.206001 0.202543 0.202267 0.202471
          0.202171 0.201487 0.201253 0.200385 0.199881 0.199249 0.198856 0.19847 0.1979 0.198093 0.196897 0.19835
          0.197205 0.199119 0.198469 0.200092 0.199489 0.201038 0.200693 0.201754 0.201595 0.20202 0.201908 0.202288
          0.201933 0.200814 0.198027 0.19569 0.196733 0.195291 0.195944 0.195687 0.197207 0.199867 0.20118 0.201654
          0.202078 0.201635 0.200384 0.198716 0.196379 0.194889 0.194174 0.193328 0.193806 0.196433 0.198259 0.200861
          0.201454 0.201946 0.201444 0.199357 0.198059 0.196977 0.19552 0.193732 0.191713 0.195708 0.197963 0.199642
          0.200923 0.201465 0.201993 0.201413 0.199976 0.197898 0.196822 0.195511 0.194426 0.194387 0.19646 0.198382
          0.199986 0.201194 0.201682 0.202286 0.201711 0.198791 0.197218 0.196972 0.195296 0.195059 0.195137 0.197145
          0.19829 0.199241 0.201495 0.202069 0.20283 0.202346 0.200998 0.197458 0.197173 0.19477 0.194079 0.195428
          0.196979 0.198544 0.199567 0.202094 0.202656 0.203521 0.203201 0.202217 0.200816 0.199068 0.196161 0.195912
          0.197882 0.198678 0.200685 0.202017 0.203023 0.203421 0.204215 0.203983 0.203313 0.202242 0.200874 0.197153
          0.197096 0.197882 0.201037 0.202215 0.203299 0.203977 0.204214 0.204793 0.204623 0.20413 0.203358 0.20233
          0.201487 0.201212 0.201644 0.202491 0.203474 0.204222 0.204704 0.20487 0.205175 0.205043 0.204669 0.204117
          0.203521 0.203075 0.202944 0.20317 0.203666 0.204266 0.204805 0.205166 0.205293 0.205309 0.205191 0.20486
          0.204388 0.203901 0.203547 0.203447 0.203632 0.204039 0.204541 0.205006 0.205326 0.205439 0.202517 0.202298
          0.202451 0.202216 0.201686 0.201548 0.200812 0.200579 0.199861 0.199506 0.198909 0.198482 0.19829 0.197079
          0.198348 0.197565 0.199013 0.19845 0.199896 0.199416 0.20079 0.200499 0.201465 0.201347 0.201717 0.201632
          0.202281 0.202003 0.201197 0.200071 0.198839 0.197348 0.195372 0.196421 0.197174 0.19708 0.19995 0.201061
          0.201444 0.202077 0.201739 0.200747 0.19928 0.197012 0.19581 0.193328 0.192854 0.196372 0.198199 0.199214
          0.200852 0.201301 0.201942 0.20153 0.200367 0.197783 0.196485 0.194033 0.190794 0.190362 0.195868 0.198209
          0.199805 0.200896 0.201311 0.201978 0.201531 0.200109 0.197104 0.194384 0.192005 0.189523 0.193165 0.195924
          0.198185 0.199912 0.201079 0.201482 0.202262 0.201799 0.200534 0.197695 0.192849 0.189831 0.191716 0.193739
          0.195359 0.197264 0.200056 0.20135 0.201817 0.202788 0.20241 0.201238 0.199432 0.196577 0.195362 0.192409
          0.194829 0.197059 0.197379 0.200357 0.2019 0.202362 0.203459 0.203176 0.20235 0.201048 0.199556 0.19813
          0.196905 0.195412 0.198303 0.20023 0.201718 0.20274 0.20309 0.204134 0.203932 0.20335 0.202465 0.201339
          0.200442 0.199628 0.198588 0.198354 0.201727 0.202936 0.203623 0.203859 0.204696 0.204548 0.204126 0.203486
          0.202731 0.202004 0.201567 0.201531 0.202091 0.202999 0.20385 0.204342 0.204508 0.205065 0.204949 0.20462
          0.204137 0.203598 0.203145 0.202915 0.202999 0.203377 0.203922 0.204447 0.204807 0.204934 0.205194 0.205088
          0.204791 0.204362 0.203899 0.203525 0.203352 0.20344 0.203763 0.204214 0.204657 0.20497 0.205082 0.202651
          0.202479 0.202595 0.202413 0.201996 0.201902 0.20129 0.201153 0.200482 0.200291 0.199728 0.199453 0.199215
          0.198929 0.199175 0.198797 0.199579 0.199215 0.200265 0.199996 0.200999 0.200875 0.201547 0.201477 0.201747
          0.201694 0.202452 0.202241 0.201647 0.200757 0.199707 0.198709 0.198039 0.197515 0.197538 0.19966 0.200586
          0.20132 0.201572 0.202281 0.202028 0.2013 0.200179 0.198906 0.197555 0.196736 0.196213 0.197759 0.19916
          0.200426 0.201182 0.20147 0.202174 0.201876 0.20098 0.199663 0.197863 0.195615 0.195013 0.195823 0.197162
          0.19893 0.20028 0.201159 0.201465 0.202226 0.201895 0.200901 0.199342 0.19718 0.194236 0.192437 0.193656
          0.196391 0.198666 0.200272 0.201269 0.201603 0.202492 0.202171 0.20118 0.19956 0.197443 0.193714 0.18801
          0.192494 0.195832 0.198262 0.200483 0.201567 0.201915 0.202967 0.202681 0.201839 0.20043 0.198585 0.19623
          0.194113 0.193649 0.197537 0.199684 0.201113 0.202093 0.202421 0.203569 0.203341 0.202676 0.20163 0.20031
          0.198938 0.197922 0.198251 0.199329 0.200822 0.202033 0.202811 0.203079 0.204186 0.204014 0.203519 0.202765
          0.201882 0.201027 0.200469 0.200508 0.201252 0.202074 0.20299 0.203571 0.203772 0.204708 0.204579 0.20421
          0.203664 0.203044 0.202493 0.20215 0.202139 0.202511 0.203174 0.203799 0.204223 0.204371 0.205055 0.204951
          0.204658 0.204233 0.203764 0.203362 0.203137 0.203165 0.203449 0.20389 0.204339 0.204658 0.204772 0.205176
          0.205081 0.204814 0.204429 0.20401 0.203658 0.20347 0.203507 0.203758 0.204139 0.204528 0.204811 0.204913
          0.202723 0.202567 0.202673 0.202508 0.202128 0.202045 0.201483 0.201362 0.200753 0.200584 0.200089 0.199881
          0.199662 0.199409 0.199584 0.199316 0.199904 0.19966 0.200501 0.200364 0.201151 0.201068 0.20163 0.201578
          0.201805 0.201763 0.202541 0.202353 0.20182 0.201027 0.200116 0.199282 0.198726 0.198686 0.199284 0.199984
          0.200882 0.201457 0.201665 0.202388 0.202165 0.201528 0.200565 0.199403 0.198346 0.197728 0.197899 0.198533
          0.199655 0.200657 0.201341 0.201576 0.202297 0.202037 0.201293 0.20011 0.198625 0.197265 0.196452 0.196725
          0.197923 0.199308 0.200514 0.201294 0.201565 0.202355 0.202071 0.201247 0.199907 0.198081 0.195963 0.194747
          0.195492 0.197313 0.199084 0.200504 0.201388 0.201689 0.202614 0.202332 0.201505 0.200153 0.198184 0.195518
          0.190236 0.194782 0.197276 0.199337 0.20076 0.201684 0.201994 0.203064 0.202812 0.202068 0.200864 0.199171
          0.196818 0.192637 0.195311 0.198104 0.199998 0.201374 0.202202 0.202486 0.203635 0.203428 0.202825 0.201869
          0.200623 0.199178 0.198256 0.198505 0.199822 0.201153 0.202202 0.202879 0.203113 0.204224 0.204064 0.203604
          0.202901 0.202053 0.201252 0.200785 0.200896 0.201486 0.202328 0.203075 0.203591 0.203773 0.204727 0.204604
          0.204257 0.203742 0.203159 0.202641 0.202349 0.202397 0.202764 0.203293 0.203828 0.204209 0.204346 0.205063
          0.204963 0.204685 0.204281 0.203837 0.203458 0.203248 0.203275 0.203529 0.203925 0.20433 0.204625 0.204733
          0.20518 0.205089 0.204834 0.204466 0.204066 0.203729 0.203546 0.203571 0.203796 0.204146 0.204507 0.204772
          0.204869
        </DataArray>
        <DataArray type="Float32" Name="S_gas" NumberOfComponents="1" format="ascii">
          0.791073 0.791109 0.791079 0.791118 0.791275 0.791328 0.791289 0.791353 0.791192 0.791207 0.791458 0.791515
          0.791263 0.791277 0.791573 0.791681 0.791258 0.79128 0.791579 0.791685 0.791158 0.79119 0.791455 0.791529
          0.79098 0.791016 0.791244 0.791305 0.790755 0.79079 0.790992 0.791047 0.790508 0.790539 0.790723 0.790769
          0.79027 0.790293 0.790464 0.790497 0.790071 0.790086 0.790247 0.790268 0.789938 0.789949 0.790103 0.790116
          0.789892 0.789901 0.790052 0.790064 0.791083 0.791128 0.791313 0.791396 0.791222 0.791634 0.791313 0.791783
          0.79133 0.791824 0.791255 0.791697 0.791101 0.791459 0.790882 0.791203 0.79062 0.790901 0.790353 0.790585
          0.790126 0.790321 0.789975 0.79015 0.789922 0.790091 0.791054 0.791101 0.791303 0.79139 0.791199 0.791647
          0.791308 0.791778 0.791338 0.791887 0.791298 0.791792 0.791177 0.791642 0.790974 0.791458 0.790709 0.791091
          0.790418 0.790696 0.790166 0.790383 0.79 0.790185 0.789942 0.790118 0.790971 0.791013 0.79123 0.791303
          0.791114 0.791492 0.791209 0.791702 0.791267 0.791767 0.79126 0.791732 0.791174 0.791726 0.790992 0.791655
          0.790743 0.791231 0.790446 0.790763 0.790179 0.790416 0.790002 0.790198 0.78994 0.790124 0.790832 0.790868
          0.791096 0.791152 0.790956 0.791294 0.791052 0.791434 0.791111 0.791516 0.791121 0.791549 0.791069 0.791562
          0.790924 0.791474 0.79069 0.791135 0.790402 0.790732 0.790141 0.79039 0.789964 0.790167 0.789902 0.79009
          0.790645 0.790675 0.790909 0.790962 0.790747 0.791091 0.790825 0.791219 0.790889 0.791268 0.790908 0.791297
          0.79087 0.791307 0.790746 0.791228 0.790542 0.790965 0.790288 0.790603 0.790046 0.790293 0.78988 0.790081
          0.789821 0.790006 0.790418 0.790442 0.790671 0.790725 0.790503 0.790834 0.790582 0.790881 0.790624 0.791001
          0.790651 0.791006 0.790612 0.79104 0.790524 0.790873 0.790334 0.790737 0.790118 0.790416 0.789904 0.790136
          0.789754 0.789945 0.789701 0.789878 0.790167 0.790188 0.790392 0.790432 0.79024 0.79053 0.790297 0.790627
          0.79035 0.790659 0.79037 0.790685 0.790345 0.790698 0.790254 0.790642 0.790107 0.790445 0.789918 0.790185
          0.789734 0.789944 0.789604 0.78978 0.789558 0.789723 0.789922 0.789939 0.790113 0.790139 0.789984 0.790203
          0.790037 0.790273 0.79008 0.790329 0.790099 0.790368 0.790081 0.790365 0.790006 0.790314 0.78988 0.790147
          0.789718 0.789948 0.789563 0.78975 0.789453 0.789614 0.789413 0.789565 0.789717 0.789731 0.789882 0.7899
          0.789768 0.789947 0.789814 0.790007 0.789855 0.790064 0.789875 0.790105 0.789859 0.790105 0.789796 0.790037
          0.789685 0.789916 0.789549 0.789748 0.789418 0.789585 0.789324 0.789472 0.78929 0.789431 0.789583 0.789595
          0.789733 0.789747 0.789627 0.789787 0.78967 0.789841 0.789708 0.789895 0.789728 0.789931 0.789714 0.78993
          0.789656 0.789873 0.789558 0.78976 0.789437 0.789614 0.78932 0.789475 0.789237 0.789377 0.789207 0.789341
          0.789537 0.789548 0.789681 0.789695 0.789579 0.789733 0.78962 0.789785 0.789658 0.789837 0.789677 0.789871
          0.789663 0.789868 0.789607 0.789812 0.789513 0.789704 0.789397 0.789567 0.789286 0.789436 0.789207 0.789343
          0.789178 0.78931 0.791794 0.791879 0.791827 0.791935 0.792088 0.792265 0.792288 0.792598 0.792334 0.792644
          0.792195 0.792387 0.791943 0.792059 0.791645 0.791743 0.791327 0.791407 0.791016 0.791071 0.790753 0.790786
          0.790578 0.790599 0.790517 0.790533 0.791898 0.792049 0.79261 0.794398 0.794062 0.792809 0.792383 0.792054
          0.791658 0.79123 0.790875 0.790652 0.790575 0.791945 0.792112 0.792743 0.794972 0.794229 0.793135 0.792885
          0.792714 0.792142 0.791449 0.790987 0.790713 0.790622 0.791925 0.792067 0.792515 0.79301 0.793134 0.793035
          0.793167 0.795177 0.792523 0.791631 0.791075 0.790752 0.790645 0.791824 0.791941 0.792184 0.792477 0.792628
          0.792705 0.792923 0.793011 0.79252 0.791705 0.791096 0.790735 0.790618 0.791642 0.79177 0.792081 0.792287
          0.792317 0.792342 0.792544 0.792583 0.792085 0.791604 0.791009 0.790643 0.790526 0.791366 0.79151 0.792154
          0.793056 0.791994 0.791963 0.792179 0.793445 0.791958 0.791308 0.790795 0.790478 0.790373 0.791011 0.791111
          0.791356 0.791513 0.791524 0.791555 0.791748 0.791815 0.79146 0.790939 0.790528 0.790271 0.790184 0.790644
          0.790691 0.790803 0.79092 0.79102 0.791141 0.791312 0.791103 0.791037 0.790606 0.790271 0.790063 0.789992
          0.790344 0.790373 0.790448 0.790548 0.790658 0.790775 0.790875 0.790882 0.790633 0.790322 0.790057 0.789887
          0.789829 0.790156 0.790179 0.790241 0.79033 0.790429 0.79052 0.790567 0.790517 0.79035 0.790121 0.789911
          0.78977 0.78972 0.790092 0.790113 0.790172 0.790257 0.790351 0.790428 0.790456 0.790397 0.790248 0.790048
          0.789859 0.789728 0.789682 0.79248 0.792571 0.79253 0.792642 0.792802 0.792939 0.793052 0.793282 0.79318
          0.793431 0.793124 0.793328 0.792917 0.793085 0.792609 0.792754 0.792242 0.792359 0.791866 0.791945 0.791542
          0.791589 0.791325 0.791353 0.791248 0.791272 0.792653 0.792808 0.793305 0.79389 0.794178 0.793974 0.793566
          0.793216 0.792727 0.792176 0.791717 0.791428 0.791331 0.79279 0.792979 0.793602 0.795211 0.797146 0.794604
          0.794338 0.794168 0.793421 0.792503 0.791882 0.791518 0.791397 0.792878 0.793096 0.79368 0.794454 0.795521
          0.794748 0.794867 0.797167 0.794041 0.792805 0.792025 0.791579 0.791434 0.792857 0.793096 0.793876 0.793973
          0.794205 0.794308 0.794694 0.794855 0.79434 0.793099 0.792095 0.791567 0.791406 0.79268 0.792921 0.793389
          0.793662 0.793681 0.793773 0.794097 0.795233 0.796834 0.793448 0.791997 0.791454 0.791292 0.792337 0.792573
          0.793674 0.793772 0.793242 0.793276 0.793566 0.793871 0.793442 0.792569 0.791712 0.791245 0.791101 0.791877
          0.792034 0.792364 0.79259 0.792639 0.792792 0.793199 0.793366 0.792794 0.791944 0.791344 0.790983 0.790864
          0.791406 0.791477 0.791647 0.791837 0.792031 0.79229 0.79284 0.79554 0.792432 0.791528 0.791013 0.790722
          0.790626 0.79103 0.791074 0.791193 0.79136 0.791559 0.791805 0.792172 0.792284 0.79181 0.791153 0.790741
          0.790503 0.790424 0.790797 0.790833 0.790932 0.791079 0.79125 0.791424 0.791537 0.79148 0.791218 0.790862
          0.790552 0.790356 0.790289 0.790719 0.790752 0.790846 0.790984 0.791141 0.79128 0.79134 0.791262 0.791043
          0.790752 0.790484 0.790304 0.790242 0.793281 0.793374 0.793339 0.793444 0.793619 0.793725 0.79393 0.794083
          0.794184 0.794381 0.794274 0.7945 0.79415 0.794359 0.793839 0.79403 0.793414 0.793565 0.79296 0.793062
          0.792565 0.792625 0.792299 0.792336 0.792206 0.792236 0.793497 0.793634 0.794015 0.794537 0.79498 0.795039
          0.794991 0.794627 0.794039 0.793356 0.792788 0.792432 0.792312 0.793712 0.793894 0.794421 0.795177 0.795661
          0.795937 0.795962 0.795846 0.794896 0.793767 0.792991 0.792543 0.792396 0.793911 0.794208 0.794863 0.795946
          0.7981 0.796433 0.796837 0.798818 0.795735 0.794095 0.793137 0.792609 0.792438 0.793976 0.794368 0.796338
          0.795713 0.795958 0.796171 0.796645 0.798648 0.795736 0.794158 0.793148 0.792573 0.792391 0.793798 0.794192
          0.794971 0.7953 0.795355 0.795544 0.795804 0.796184 0.794884 0.793892 0.792967 0.792413 0.792234 0.79338
          0.793671 0.794955 0.795502 0.794776 0.794854 0.795005 0.794883 0.794312 0.793405 0.792626 0.792145 0.791986
          0.792828 0.793017 0.793441 0.793805 0.794022 0.794319 0.794768 0.794657 0.793868 0.7929 0.792226 0.791824
          0.791689 0.792284 0.792381 0.792628 0.792945 0.793293 0.793841 0.794484 0.796876 0.793512 0.792452 0.791848
          0.791508 0.791396 0.791853 0.79192 0.792106 0.792376 0.792711 0.793111 0.793588 0.793503 0.792818 0.792024
          0.791528 0.791243 0.791149 0.791585 0.791639 0.791794 0.792022 0.792288 0.792539 0.792658 0.792524 0.792144
          0.791686 0.791304 0.791066 0.790986 0.791494 0.791544 0.791688 0.791898 0.792132 0.792322 0.79238 0.792243