<?xml version="1.0"?>
<VTKFile type="UnstructuredGrid" version="0.1" byte_order="LittleEndian">
  <UnstructuredGrid>
    <Piece NumberOfCells="4840" NumberOfPoints="2893">
      <CellData Scalars="p">
        <DataArray type="Float32" Name="p" NumberOfComponents="1" format="ascii">
          100623 101935 103403 104946 106108 106108 104946 103403 101935 100623 101091 103542
          106868 111711 117478 117478 111711 106868 103542 101091 100724 102264 104042 106004
          107578 107578 106004 104042 102264 100724 101350 104551 109840 122766 183630 183630
          122766 109840 104551 101350 100683 102134 103792 105596 107016 107016 105596 103792
          102134 100683 100236 100715 101197 101629 101903 101903 101629 101197 100715 100236
          100124 100374 100620 100836 100970 100970 100836 100620 100374 100124 100122 100368
          100611 100825 100957 100957 100825 100611 100368 100122 101009 103250 106180 110177
          114496 114496 110177 106180 103250 101009 100837 102651 104851 107490 109860 109860
          107490 104851 102651 100837 100656 102045 103622 105318 106635 106635 105318 103622
          102045 100656 100542 101677 102920 104187 105106 105106 104187 102920 101677 100542
          100175 100531 100895 101229 101444 101444 101229 100895 100531 100175 100317 100964
          101624 102230 102624 102624 102230 101624 100964 100317 100883 102803 105156 108019
          110632 110632 108019 105156 102803 100883 100966 103091 105796 109308 112833 112833
          109308 105796 103091 100966 100923 102947 105496 108751 111945 111945 108751 105496
          102947 100923 100174 100531 100900 101243 101468 101468 101243 100900 100531 100174
          100411 101257 102144 102991 103563 103563 102991 102144 101257 100411 100057 100170
          100280 100372 100428 100428 100372 100280 100170 100057 100058 100173 100283 100377
          100434 100434 100377 100283 100173 100058 101300 104345 109112 118681 140101 140101
          118681 109112 104345 101300 100336 101030 101761 102461 102935 102935 102461 101761
          101030 100336 100620 101924 103382 104913 106066 106066 104913 103382 101924 100620
          100460 101410 102416 103393 104066 104066 103393 102416 101410 100460 100058 100176
          100290 100390 100451 100451 100390 100290 100176 100058 100058 100175 100289 100389
          100450 100450 100389 100289 100175 100058 100672 102095 103710 105449 106808 106808
          105449 103710 102095 100672 100908 102890 105349 108409 111291 111291 108409 105349
          102890 100908 101072 103473 106697 111310 116657 116657 111310 106697 103473 101072
          101267 104213 108700 117114 133309 133309 117114 108700 104213 101267 101024 103299
          106284 110376 114809 114809 110376 106284 103299 101024 100315 100963 101641 102284
          102714 102714 102284 101641 100963 100315 100278 100850 101447 102011 102387 102387
          102011 101447 100850 100278 100090 100273 100459 100626 100732 100732 100626 100459
          100273 100090 100936 102989 105584 108915 112203 112203 108915 105584 102989 100936
          101239 104106 108402 116116 129616 129616 116116 108402 104106 101239 100603 101866
          103262 104706 105776 105776 104706 103262 101866 100603 100708 102210 103927 105796
          107267 107267 105796 103927 102210 100708 100490 101507 102599 103681 104440 104440
          103681 102599 101507 100490 100111 100334 100555 100750 100870 100870 100750 100555
          100334 100111 101166 103818 107571 113513 121702 121702 113513 107571 103818 101166
          100207 100632 101072 101482 101752 101752 101482 101072 100632 100207 100237 100719
          101208 101654 101941 101941 101654 101208 100719 100237 100111 100335 100557 100754
          100875 100875 100754 100557 100335 100111 100476 101465 102528 103580 104321 104321
          103580 102528 101465 100476 100753 102361 104233 106329 108044 108044 106329 104233
          102361 100753 100435 101336 102298 103238 103888 103888 103238 102298 101336 100435
          100734 102302 104129 106181 107872 107872 106181 104129 102302 100734 100124 100376
          100628 100852 100993 100993 100852 100628 100376 100124 100410 101257 102149 103008
          103590 103590 103008 102149 101257 100410 100158 100482 100814 101120 101319 101319
          101120 100814 100482 100158 100033 100097 100160 100213 100245 100245 100213 100160
          100097 100033 100033 100099 100162 100215 100247 100247 100215 100162 100099 100033
          101350 104550 109839 122814 191233 191233 122814 109839 104550 101350 101033 103335
          106380 110614 115310 115310 110614 106380 103335 101033 101161 103800 107522 113376
          121318 121318 113376 107522 103800 101161 100734 102297 104109 106123 107756 107756
          106123 104109 102297 100734 100697 102177 103875 105733 107207 107207 105733 103875
          102177 100697 100350 101066 101808 102504 102964 102964 102504 101808 101066 100350
          100091 100277 100465 100636 100745 100745 100636 100465 100277 100091 101274 104240
          108785 117446 134847 134847 117446 108785 104240 101274 100834 102638 104815 107401
          109689 109689 107401 104815 102638 100834 100103 100312 100528 100728 100858 100858
          100728 100528 100312 100103 100629 101957 103448 105024 106220 106220 105024 103448
          101957 100629 100482 101481 102547 103592 104317 104317 103592 102547 101481 100482
          100943 103010 105613 108931 112177 112177 108931 105613 103010 100943 100113 100339
          100560 100749 100864 100864 100749 100560 100339 100113 100115 100344 100568 100760
          100877 100877 100760 100568 100344 100115 100153 100463 100777 101062 101244 101244
          101062 100777 100463 100153 100377 101155 101973 102758 103288 103288 102758 101973
          101155 100377 101056 103418 106587 111111 116357 116357 111111 106587 103418 101056
          100387 101186 102032 102848 103403 103403 102848 102032 101186 100387 100161 100491
          100831 101146 101351 101351 101146 100831 100491 100161 100337 101027 101743 102413
          102855 102855 102413 101743 101027 100337 100065 100195 100325 100439 100510 100510
          100439 100325 100195 100065 100704 102200 103918 105803 107309 107309 105803 103918
          102200 100704 100818 102581 104694 107175 109337 109337 107175 104694 102581 100818
          100999 103211 106078 109923 113964 113964 109923 106078 103211 100999 100065 100197
          100327 100443 100515 100515 100443 100327 100197 100065 100370 101131 101927 102684
          103192 103192 102684 101927 101131 100370 100374 101149 101974 102775 103324 103324
          102775 101974 101149 100374 101059 103423 106573 111017 116087 116087 111017 106573
          103423 101059 100090 100273 100460 100633 100745 100745 100633 100460 100273 100090
          100411 101263 102167 103044 103647 103647 103044 102167 101263 100411 100376 101151
          101968 102753 103286 103286 102753 101968 101151 100376 100235 100710 101185 101608
          101874 101874 101608 101185 100710 100235 100222 100670 101118 101516 101766 101766
          101516 101118 100670 100222 101272 104233 108760 117309 133873 133873 117309 108760
          104233 101272 100875 102775 105099 107920 110493 110493 107920 105099 102775 100875
          101351 104553 109843 122709 182436 182436 122709 109843 104553 101351 100966 103094
          105815 109386 113039 113039 109386 105815 103094 100966 100557 101717 102980 104253
          105168 105168 104253 102980 101717 100557 100062 100186 100309 100417 100483 100483
          100417 100309 100186 100062 100057 100171 100285 100386 100448 100448 100386 100285
          100171 100057 100055 100166 100275 100371 100430 100430 100371 100275 100166 100055
          100057 100173 100287 100387 100449 100449 100387 100287 100173 100057 100080 100243
          100408 100556 100650 100650 100556 100408 100243 100080 100388 101191 102043 102870
          103436 103436 102870 102043 101191 100388 100896 102848 105256 108223 110988 110988
          108223 105256 102848 100896 100743 102328 104168 106222 107898 107898 106222 104168
          102328 100743 101162 103806 107550 113479 121615 121615 113479 107550 103806 101162
          101216 104012 108113 115111 126145 126145 115111 108113 104012 101216 100372 101137
          101943 102714 103234 103234 102714 101943 101137 100372 100396 101212 102076 102908
          103475 103475 102908 102076 101212 100396 101319 104424 109392 120112 150871 150871
          120112 109392 104424 101319 100691 102156 103831 105652 107088 107088 105652 103831
          102156 100691 100651 102030 103599 105290 106606 106606 105290 103599 102030 100651
          100626 101943 103419 104971 106144 106144 104971 103419 101943 100626 100135 100409
          100684 100929 101082 101082 100929 100684 100409 100135 101301 104351 109147 118927
          141919 141919 118927 109147 104351 101301 100373 101144 101956 102737 103267 103267
          102737 101956 101144 100373 101184 103894 107808 114287 123973 123973 114287 107808
          103894 101184 100112 100338 100565 100768 100896 100896 100768 100565 100338 100112
          100862 102728 104998 107726 110181 110181 107726 104998 102728 100862 100641 101993
          103515 105131 106366 106366 105131 103515 101993 100641 101283 104275 108888 117773
          135868 135868 117773 108888 104275 101283 101050 103391 106491 110816 115647 115647
          110816 106491 103391 101050 101084 103515 106797 111543 117165 117165 111543 106797
          103515 101084 100710 102224 103975 105916 107483 107483 105916 103975 102224 100710
          100631 101962 103461 105050 106261 106261 105050 103461 101962 100631 100254 100768
          101283 101743 102034 102034 101743 101283 100768 100254 100241 100728 101216 101652
          101926 101926 101652 101216 100728 100241 101215 104006 108091 115074 126281 126281
          115074 108091 104006 101215 100348 101064 101813 102526 103003 103003 102526 101813
          101064 100348 100129 100391 100653 100886 101032 101032 100886 100653 100391 100129
          101035 103342 106405 110694 115513 115513 110694 106405 103342 101035 100644 102001
          103522 105129 106351 106351 105129 103522 102001 100644 100500 101537 102651 103751
          104524 104524 103751 102651 101537 100500 100378 101158 101979 102768 103304 103304
          102768 101979 101158 100378 100358 101089 101843 102546 103008 103008 102546 101843
          101089 100358 100358 101091 101845 102546 103006 103006 102546 101845 101091 100358
          100346 101054 101788 102477 102934 102934 102477 101788 101054 100346 100344 101050
          101779 102460 102910 102910 102460 101779 101050 100344 100518 101598 102774 103960
          104809 104809 103960 102774 101598 100518 101250 104146 108515 116484 130908 130908
          116484 108515 104146 101250 100303 100919 101544 102114 102480 102480 102114 101544
          100919 100303 100303 100919 101543 102111 102476 102476 102111 101543 100919 100303
          100585 101808 103149 104519 105520 105520 104519 103149 101808 100585 100524 101614
          102793 103974 104816 104816 103974 102793 101614 100524 100155 100468 100778 101051
          101221 101221 101051 100778 100468 100155 100488 101501 102587 103657 104407 104407
          103657 102587 101501 100488 100752 102360 104244 106370 108123 108123 106370 104244
          102360 100752 100887 102819 105207 108155 110900 110900 108155 105207 102819 100887
          100146 100439 100729 100984 101140 101140 100984 100729 100439 100146 101310 104386
          109263 119469 145373 145373 119469 109263 104386 101310 100115 100347 100573 100770
          100889 100889 100770 100573 100347 100115 100938 102997 105604 108958 112277 112277
          108958 105604 102997 100938 100338 101030 101749 102427 102877 102877 102427 101749
          101030 100338 100769 102419 104365 106587 108447 108447 106587 104365 102419 100769
          100149 100449 100743 101001 101159 101159 101001 100743 100449 100149 100146 100439
          100728 100981 101138 101138 100981 100728 100439 100146 100266 100807 101356 101856
          102176 102176 101856 101356 100807 100266 100880 102795 105151 108039 110708 110708
          108039 105151 102795 100880 101333 104480 109587 121179 160146 160146 121179 109587
          104480 101333 100532 101639 102833 104022 104864 104864 104022 102833 101639 100532
          100644 102002 103526 105140 106372 106372 105140 103526 102002 100644 100110 100330
          100545 100729 100840 100840 100729 100545 100330 100110 100111 100334 100552 100740
          100855 100855 100740 100552 100334 100111 101197 103940 107919 114544 124495 124495
          114544 107919 103940 101197 101298 104340 109115 118816 141778 141778 118816 109115
          104340 101298 100388 101183 102010 102790 103310 103310 102790 102010 101183 100388
          100569 101763 103088 104462 105483 105483 104462 103088 101763 100569 100928 102961
          105506 108718 111805 111805 108718 105506 102961 100928 100273 100831 101403 101930
          102273 102273 101930 101403 100831 100273 100269 100818 101380 101895 102229 102229
          101895 101380 100818 100269 100446 101372 102369 103354 104043 104043 103354 102369
          101372 100446 100109 100327 100540 100723 100834 100834 100723 100540 100327 100109
          100068 100207 100349 100478 100560 100560 100478 100349 100207 100068 100475 101458
          102505 103526 104232 104232 103526 102505 101458 100475 101062 103434 106596 111061
          116148 116148 111061 106596 103434 101062 100081 100245 100414 100569 100669 100669
          100569 100414 100245 100081 100292 100885 101490 102045 102403 102403 102045 101490
          100885 100292 100281 100852 101431 101959 102298 102298 101959 101431 100852 100281
          101334 104484 109600 121286 163760 163760 121286 109600 104484 101334 100508 101567
          102715 103866 104688 104688 103866 102715 101567 100508 100525 101622 102821 104035
          104909 104909 104035 102821 101622 100525 101072 103474 106701 111322 116698 116698
          111322 106701 103474 101072 100775 102440 104411 106674 108583 108583 106674 104411
          102440 100775 101238 104096 108349 115854 128513 128513 115854 108349 104096 101238
          101261 104194 108662 117035 133263 133263 117035 108662 104194 101261 101295 104322
          109037 118377 138849 138849 118377 109037 104322 101295 101011 103258 106206 110256
          114676 114676 110256 106206 103258 101011 100065 100198 100333 100455 100533 100533
          100455 100333 100198 100065 101230 104071 108300 115782 128500 128500 115782 108300
          104071 101230 100831 102627 104792 107356 109612 109612 107356 104792 102627 100831
          101293 104314 109020 118389 139265 139265 118389 109020 104314 101293 100467 101435
          102468 103480 104184 104184 103480 102468 101435 100467 100834 102636 104808 107380
          109645 109645 107380 104808 102636 100834 100795 102506 104545 106912 108938 108938
          106912 104545 102506 100795 101271 104229 108766 117431 134973 134973 117431 108766
          104229 101271 100526 101619 102801 103982 104823 104823 103982 102801 101619 100526
          101117 103639 107111 112320 118860 118860 112320 107111 103639 101117 101310 104387
          109261 119407 144824 144824 119407 109261 104387 101310 100392 101203 102061 102889
          103453 103453 102889 102061 101203 100392 100999 103213 106097 110001 114173 114173
          110001 106097 103213 100999 101176 103859 107687 113860 122648 122648 113860 107687
          103859 101176 101303 104356 109152 118889 141401 141401 118889 109152 104356 101303
          100975 103124 105875 109484 113159 113159 109484 105875 103124 100975 100530 101639
          102860 104109 105020 105020 104109 102860 101639 100530 100015 100046 100075 100099
          100114 100114 100099 100075 100046 100015 100015 100046 100075 100099 100114 100114
          100099 100075 100046 100015 100015 100046 100076 100101 100116 100116 100101 100076
          100046 100015 100016 100046 100076 100101 100116 100116 100101 100076 100046 100016
          100509 101570 102725 103889 104725 104725 103889 102725 101570 100509 100502 101546
          102673 103796 104591 104591 103796 102673 101546 100502 101082 103509 106796 111577
          117290 117290 111577 106796 103509 101082 100469 101439 102472 103480 104177 104177
          103480 102472 101439 100469 100752 102362 104251 106394 108177 108177 106394 104251
          102362 100752 100074 100226 100381 100523 100614 100614 100523 100381 100226 100074
          100073 100220 100371 100509 100598 100598 100509 100371 100220 100073 101311 104391
          109270 119455 145185 145185 119455 109270 104391 101311 100211 100639 101067 101450
          101691 101691 101450 101067 100639 100211 100434 101329 102274 103184 103806 103806
          103184 102274 101329 100434 101298 104338 109102 118716 140692 140692 118716 109102
          104338 101298 100279 100848 101423 101947 102282 102282 101947 101423 100848 100279
          101210 103994 108077 115059 126133 126133 115059 108077 103994 101210 100118 100358
          100602 100824 100966 100966 100824 100602 100358 100118 100513 101584 102752 103932
          104780 104780 103932 102752 101584 100513 100522 101608 102782 103956 104791 104791
          103956 102782 101608 100522 101069 103463 106686 111316 116726 116726 111316 106686
          103463 101069 100318 100971 101647 102280 102698 102698 102280 101647 100971 100318
          101120 103649 107136 112373 118946 118946 112373 107136 103649 101120 100289 100878
          101480 102034 102393 102393 102034 101480 100878 100289 100283 100868 101485 102075
          102473 102473 102075 101485 100868 100283 101234 104085 108337 115912 129107 129107
          115912 108337 104085 101234 100730 102287 104098 106120 107768 107768 106120 104098
          102287 100730 101265 104205 108673 116977 132589 132589 116977 108673 104205 101265
          100767 102408 104331 106510 108321 108321 106510 104331 102408 100767 100766 102409
          104345 106556 108408 108408 106556 104345 102409 100766 100264 100805 101364 101885
          102228 102228 101885 101364 100805 100264 100300 100917 101556 102157 102554 102554
          102157 101556 100917 100300 101259 104184 108631 116914 132643 132643 116914 108631
          104184 101259 100926 102955 105509 108761 111932 111932 108761 105509 102955 100926
          101328 104459 109494 120481 151849 151849 120481 109494 104459 101328 100412 101266
          102182 103082 103708 103708 103082 102182 101266 100412 101163 103807 107546 113458
          121588 121588 113458 107546 103807 101163 100148 100449 100751 101021 101192 101192
          101021 100751 100449 100148 100148 100449 100750 101018 101187 101187 101018 100750
          100449 100148 100241 100729 101221 101665 101947 101947 101665 101221 100729 100241
          100240 100728 101223 101672 101960 101960 101672 101223 100728 100240 100235 100712
          101194 101630 101908 101908 101630 101194 100712 100235 100116 100352 100590 100806
          100944 100944 100806 100590 100352 100116 101098 103571 106955 111970 118149 118149
          111970 106955 103571 101098 100218 100657 101097 101489 101735 101735 101489 101097
          100657 100218 101351 104556 109854 122875 191853 191853 122875 109854 104556 101351
          100441 101360 102352 103339 104034 104034 103339 102352 101360 100441 101340 104507
          109664 121456 162293 162293 121456 109664 104507 101340 101134 103701 107278 112779
          120005 120005 112779 107278 103701 101134 100156 100475 100808 101119 101323 101323
          101119 100808 100475 100156 101336 104490 109612 121230 159868 159868 121230 109612
          104490 101336 100390 101195 102052 102886 103459 103459 102886 102052 101195 100390
          101130 103691 107255 112722 119828 119828 112722 107255 103691 101130 100155 100471
          100798 101102 101301 101301 101102 100798 100471 100155 100061 100184 100308 100420
          100491 100491 100420 100308 100184 100061 101056 103415 106558 110985 115990 115990
          110985 106558 103415 101056 100251 100764 101287 101766 102075 102075 101766 101287
          100764 100251 100263 100802 101365 101894 102245 102245 101894 101365 100802 100263
          100261 100796 101348 101861 102197 102197 101861 101348 100796 100261 101003 103226
          106119 110035 114228 114228 110035 106119 103226 101003 100128 100387 100648 100884
          101033 101033 100884 100648 100387 100128 100964 103086 105793 109322 112875 112875
          109322 105793 103086 100964 101192 103920 107852 114317 123824 123824 114317 107852
          103920 101192 100375 101151 101974 102772 103318 103318 102772 101974 101151 100375
          101216 104012 108108 115096 126140 126140 115096 108108 104012 101216 101306 104372
          109211 119197 143626 143626 119197 109211 104372 101306 100720 102258 104044 106035
          107651 107651 106035 104044 102258 100720 100395 101215 102095 102962 103565 103565
          102962 102095 101215 100395 101274 104239 108786 117488 135107 135107 117488 108786
          104239 101274 101176 103863 107726 114062 123408 123408 114062 107726 103863 101176
          100517 101592 102751 103905 104723 104723 103905 102751 101592 100517 100048 100145
          100238 100317 100365 100365 100317 100238 100145 100048 100371 101138 101955 102750
          103296 103296 102750 101955 101138 100371 100529 101632 102834 104049 104924 104924
          104049 102834 101632 100529 101082 103510 106795 111561 117229 117229 111561 106795
          103510 101082 100152 100462 100782 101079 101273 101273 101079 100782 100462 100152
          100884 102808 105180 108095 110792 110792 108095 105180 102808 100884 101352 104559
          109862 122864 189468 189468 122864 109862 104559 101352 101147 103754 107422 113166
          120911 120911 113166 107422 103754 101147 100272 100831 101417 101973 102344 102344
          101973 101417 100831 100272 100697 102175 103861 105687 107118 107118 105687 103861
          102175 100697 101298 104336 109092 118637 139937 139937 118637 109092 104336 101298
          100048 100143 100235 100313 100359 100359 100313 100235 100143 100048 100778 102449
          104429 106709 108643 108643 106709 104429 102449 100778 100927 102959 105510 108752
          111904 111904 108752 105510 102959 100927 100147 100443 100735 100989 101146 101146
          100989 100735 100443 100147 100144 100433 100717 100965 101117 101117 100965 100717
          100433 100144 100762 102395 104317 106509 108342 108342 106509 104317 102395 100762
          100967 103094 105801 109315 112842 112842 109315 105801 103094 100967 101080 103506
          106791 111563 117231 117231 111563 106791 103506 101080 100862 102731 105010 107765
          110264 110264 107765 105010 102731 100862 100140 100426 100718 100986 101159 101159
          100986 100718 100426 100140 100327 100994 101674 102299 102703 102703 102299 101674
          100994 100327 100318 100967 101627 102232 102622 102622 102232 101627 100967 100318
          100049 100148 100243 100325 100374 100374 100325 100243 100148 100049 100062 100188
          100317 100435 100510 100510 100435 100317 100188 100062 100381 101164 101978 102748
          103261 103261 102748 101978 101164 100381 100048 100144 100237 100315 100362 100362
          100315 100237 100144 100048 100566 101747 103036 104344 105291 105291 104344 103036
          101747 100566 100025 100075 100124 100166 100191 100191 100166 100124 100075 100025
          100421 101285 102189 103050 103630 103630 103050 102189 101285 100421 100133 100404
          100683 100941 101109 101109 100941 100683 100404 100133 100941 103006 105613 108948
          112214 112214 108948 105613 103006 100941 100441 101350 102308 103232 103863 103863
          103232 102308 101350 100441 100631 101962 103452 105024 106214 106214 105024 103452
          101962 100631 101332 104475 109558 120925 157041 157041 120925 109558 104475 101332
          100024 100071 100116 100156 100179 100179 100156 100116 100071 100024 100055 100166
          100279 100380 100443 100443 100380 100279 100166 100055 100055 100167 100279 100381
          100445 100445 100381 100279 100167 100055 100276 100844 101439 102005 102384 102384
          102005 101439 100844 100276 101329 104464 109510 120556 152347 152347 120556 109510
          104464 101329 100509 101569 102714 103855 104665 104665 103855 102714 101569 100509
          100296 100901 101521 102092 102463 102463 102092 101521 100901 100296 100826 102609
          104755 107296 109536 109536 107296 104755 102609 100826 100024 100072 100119 100158
          100182 100182 100158 100119 100072 100024 100135 100411 100693 100950 101116 101116
          100950 100693 100411 100135 101290 104306 108996 118259 138396 138396 118259 108996
          104306 101290 100072 100217 100359 100482 100557 100557 100482 100359 100217 100072
          100303 100927 101582 102207 102627 102627 102207 101582 100927 100303 100310 100941
          101585 102175 102556 102556 102175 101585 100941 100310 100025 100074 100121 100162
          100187 100187 100162 100121 100074 100025 101066 103454 106677 111336 116879 116879
          111336 106677 103454 101066 100632 101964 103460 105049 106266 106266 105049 103460
          101964 100632 100759 102381 104275 106408 108169 108169 106408 104275 102381 100759
          101031 103327 106358 110563 115215 115215 110563 106358 103327 101031 100698 102180
          103876 105725 107187 107187 105725 103876 102180 100698 101329 104462 109510 120606
          153142 153142 120606 109510 104462 101329 100667 102076 103670 105375 106693 106693
          105375 103670 102076 100667 101157 103793 107530 113497 121891 121891 113497 107530
          103793 101157 100736 102307 104135 106182 107858 107858 106182 104135 102307 100736
          100596 101848 103243 104703 105798 105798 104703 103243 101848 100596 100323 100982
          101657 102279 102682 102682 102279 101657 100982 100323 100489 101505 102595 103670
          104422 104422 103670 102595 101505 100489 101121 103656 107176 112560 119576 119576
          112560 107176 103656 101121 100100 100300 100497 100667 100772 100772 100667 100497
          100300 100100 100098 100295 100489 100656 100759 100759 100656 100489 100295 100098
          101253 104157 108541 116556 131182 131182 116556 108541 104157 101253 101063 103440
          106620 111138 116329 116329 111138 106620 103440 101063 100758 102383 104300 106492
          108335 108335 106492 104300 102383 100758 101244 104121 108431 116187 129862 129862
          116187 108431 104121 101244 100633 101970 103475 105077 106306 106306 105077 103475
          101970 100633 100028 100084 100138 100185 100213 100213 100185 100138 100084 100028
          100028 100083 100136 100182 100210 100210 100182 100136 100083 100028 100659 102055
          103639 105342 106665 106665 105342 103639 102055 100659 101304 104361 109167 118959
          142114 142114 118959 109167 104361 101304 100071 100215 100356 100478 100552 100552
          100478 100356 100215 100071 101213 104002 108082 115036 126055 126055 115036 108082
          104002 101213 100983 103154 105951 109666 113510 113510 109666 105951 103154 100983
          100694 102172 103874 105746 107237 107237 105746 103874 102172 100694 100212 100640
          101067 101446 101684 101684 101446 101067 100640 100212 100213 100644 101073 101454
          101693 101693 101454 101073 100644 100213 101109 103610 107046 112172 118522 118522
          112172 107046 103610 101109 100050 100154 100259 100357 100420 100420 100357 100259
          100154 100050 100402 101230 102099 102928 103488 103488 102928 102099 101230 100402
          100491 101507 102592 103656 104398 104398 103656 102592 101507 100491 100309 100937
          101575 102159 102534 102534 102159 101575 100937 100309 100700 102188 103892 105751
          107219 107219 105751 103892 102188 100700 100578 101791 103130 104512 105535 105535
          104512 103130 101791 100578 101225 104050 108236 115565 127742 127742 115565 108236
          104050 101225 100729 102288 104108 106148 107814 107814 106148 104108 102288 100729
          100587 101816 103168 104556 105575 105575 104556 103168 101816 100587 100077 100232
          100383 100514 100594 100594 100514 100383 100232 100077 101214 104003 108081 115023
          125991 125991 115023 108081 104003 101214 100831 102627 104789 107342 109579 109579
          107342 104789 102627 100831 101225 104048 108212 115436 127281 127281 115436 108212
          104048 101225 100049 100148 100251 100346 100408 100408 100346 100251 100148 100049
          101187 103900 107794 114154 123422 123422 114154 107794 103900 101187 100075 100225
          100373 100502 100581 100581 100502 100373 100225 100075 101122 103660 107175 112508
          119337 119337 112508 107175 103660 101122 100034 100102 100167 100222 100254 100254
          100222 100167 100102 100034 100034 100101 100166 100220 100252 100252 100220 100166
          100101 100034 101042 103367 106454 110787 115679 115679 110787 106454 103367 101042
          100230 100698 101171 101599 101871 101871 101599 101171 100698 100230 100035 100105
          100172 100228 100262 100262 100228 100172 100105 100035 100036 100106 100174 100232
          100267 100267 100232 100174 100106 100036 100893 102837 105233 108177 110904 110904
          108177 105233 102837 100893 100259 100789 101336 101843 102175 102175 101843 101336
          100789 100259 100423 101298 102226 103129 103750 103750 103129 102226 101298 100423
          100368 101122 101902 102632 103116 103116 102632 101902 101122 100368 100974 103125