<?xml version="1.0"?>
<VTKFile type="UnstructuredGrid" version="0.1" byte_order="LittleEndian">
  <UnstructuredGrid>
    <Piece NumberOfCells="64" NumberOfPoints="81">
      <PointData Scalars="S_liq">
        <DataArray type="Float32" Name="S_liq" NumberOfComponents="1" format="ascii">
          0.914948 0.914948 0.226041 0.226041 0.914948 0.226041 0.914948 0.226041 0.914948 0.226041 0.914948 0.226041
          0.914948 0.226041 0.914948 0.226042 0.914948 0.226042 0.0618862 0.0618863 0.0618868 0.0618872 0.0618876 0.0618879
          0.0618882 0.0618884 0.0618885 0.0302271 0.0302302 0.0302365 0.0302421 0.0302466 0.0302503 0.0302535 0.0302561 0.0302572
          0.0192445 0.0192614 0.0192899 0.0193118 0.0193297 0.0193443 0.0193572 0.0193682 0.0193736 0.012722 0.0127882 0.012883
          0.012945 0.0129989 0.013041 0.013079 0.0131125 0.0131322 0 0.000522076 0.00122447 0.00159661 0.00195747 0.00221323
          0.00245135 0.00265979 0.00280774 0 0 0 0 0 0 0 0 0
          0 0 0 0 0 0 0 0 0
        </DataArray>
        <DataArray type="Float32" Name="p_liq" NumberOfComponents="1" format="ascii">
          98883.3 98883.3 98035.2 98035.2 98883.3 98035.2 98883.3 98035.2 98883.3 98035.2 98883.3 98035.2
          98883.3 98035.2 98883.3 98035.2 98883.3 98035.2 97469.5 97469.5 97469.5 97469.5 97469.5 97469.5
          97469.5 97469.5 97469.5 97085.5 97085.6 97085.7 97085.8 97085.9 97086 97086 97086.1 97086.1
          96785.5 96786.2 96787.3 96788.1 96788.8 96789.4 96789.8 96790.3 96790.5 96450.7 96454.6 96460.2
          96463.9 96467.1 96469.6 96471.8 96473.8 96475 95697.7 95728.6 95770.1 95792.2 95813.5 95828.7
          95842.7 95855.1 95863.8 95697.6 95697.6 95697.6 95697.6 95697.6 95697.6 95697.6 95697.6 95697.6
          95697.5 95697.5 95697.5 95697.5 95697.5 95697.5 95697.5 95697.5 95697.5
        </DataArray>
        <DataArray type="Float32" Name="rho_liq" NumberOfComponents="1" format="ascii">
          997.051 997.051 997.051 997.051 997.051 997.051 997.051 997.051 997.051 997.051 997.051 997.051
          997.051 997.051 997.051 997.051 997.051 997.051 997.051 997.051 997.051 997.051 997.051 997.051
          997.051 997.051 997.051 997.051 997.051 997.051 997.051 997.051 997.051 997.051 997.051 997.051
          997.05 997.05 997.05 997.05 997.05 997.05 997.05 997.05 997.05 997.05 997.05 997.05
          997.05 997.05 997.05 997.05 997.05 997.05 990.736 997.05 997.05 997.05 997.05 997.05
          997.05 997.05 997.05 439.175 454.763 466.94 473.45 480.219 485.038 489.66 493.838 497.157
          63.7863 87.9502 108.724 119.63 131.409 139.553 147.502 154.598 160.555
        </DataArray>
        <DataArray type="Float32" Name="mob_liq" NumberOfComponents="1" format="ascii">
          846.456 846.456 12.1271 12.1271 846.456 12.1271 846.457 12.1271 846.457 12.1271 846.457 12.1271
          846.458 12.1271 846.458 12.1272 846.458 12.1272 0.251681 0.251683 0.251689 0.251695 0.251699 0.251703
          0.251707 0.251709 0.25171 0.0249398 0.0249487 0.0249664 0.0249821 0.0249948 0.0250052 0.0250142 0.0250215 0.0250245
          0.00491785 0.00493441 0.00496251 0.00498417 0.00500189 0.00501638 0.00502918 0.00504011 0.00504553 0.000864184 0.00088541 0.000916336
          0.000936963 0.000955116 0.000969471 0.000982544 0.000994164 0.00100101 0 0 0 0 0 0
          0 0 0 0 0 0 0 0 0 0 0 0
          0 0 0 0 0 0 0 0 0
        </DataArray>
        <DataArray type="Float32" Name="S_gas" NumberOfComponents="1" format="ascii">
          0.0850522 0.0850522 0.773959 0.773959 0.0850521 0.773959 0.0850521 0.773959 0.085052 0.773959 0.0850519 0.773959
          0.0850519 0.773959 0.0850518 0.773958 0.0850518 0.773958 0.938114 0.938114 0.938113 0.938113 0.938112 0.938112
          0.938112 0.938112 0.938111 0.969773 0.96977 0.969763 0.969758 0.969753 0.96975 0.969746 0.969744 0.969743
          0.980756 0.980739 0.98071 0.980688 0.98067 0.980656 0.980643 0.980632 0.980626 0.987278 0.987212 0.987117
          0.987055 0.987001 0.986959 0.986921 0.986887 0.986868 1 0.999478 0.998776 0.998403 0.998043 0.997787
          0.997549 0.99734 0.997192 1 1 1 1 1 1 1 1 1
          1 1 1 1 1 1 1 1 1
        </DataArray>
        <DataArray type="Float32" Name="p_gas" NumberOfComponents="1" format="ascii">
          100003 100003 100002 100002 100003 100002 100003 100002 100003 100002 100003 100002
          100003 100002 100003 100002 100003 100002 100001 100001 100001 100001 100001 100001
          100001 100001 100001 100001 100001 100001 100001 100001 100001 100001 100001 100001
          100000 100000 100000 100000 100000 100000 100000 100000 100000 100000 100000 100000
          100000 100000 100000 100000 100000 100000 100000 100000 100000 100000 100000 100000
          100000 100000 100000 100000 100000 100000 100000 100000 100000 100000 100000 100000
          100000 100000 100000 100000 100000 100000 100000 100000 100000
        </DataArray>
        <DataArray type="Float32" Name="rho_gas" NumberOfComponents="1" format="ascii">
          1.15429 1.15429 1.15428 1.15428 1.15429 1.15428 1.15429 1.15428 1.15429 1.15428 1.15429 1.15428
          1.15429 1.15428 1.15429 1.15428 1.15429 1.15428 1.15427 1.15427 1.15427 1.15427 1.15427 1.15427
          1.15427 1.15427 1.15427 1.15427 1.15427 1.15427 1.15427 1.15427 1.15427 1.15427 1.15427 1.15427
          1.15426 1.15426 1.15426 1.15426 1.15426 1.15426 1.15426 1.15426 1.15426 1.15426 1.15426 1.15426
          1.15426 1.15426 1.15426 1.15426 1.15426 1.15426 1.15435 1.15426 1.15426 1.15426 1.15426 1.15426
          1.15426 1.15426 1.15426 1.16207 1.16185 1.16168 1.16159 1.16149 1.16142 1.16136 1.1613 1.16125
          1.16734 1.167 1.1667 1.16655 1.16639 1.16627 1.16616 1.16606 1.16598
        </DataArray>
        <DataArray type="Float32" Name="mob_gas" NumberOfComponents="1" format="ascii">
          241.023 241.022 35031.2 35031.2 241.022 35031.2 241.022 35031.2 241.021 35031.2 241.021 35031.2
          241.02 35031.2 241.02 35031.2 241.02 35031.2 51113.8 51113.8 51113.8 51113.7 51113.7 51113.6
          51113.6 51113.6 51113.6 54209.3 54209 54208.6 54208.2 54207.9 54207.6 54207.4 54207.2 54207.1
          54852.4 54851.7 54850.4 54849.4 54848.6 54847.9 54847.4 54846.9 54846.6 55081.4 55079.7 55077.3
          55075.6 55074.2 55073.1 55072.1 55071.2 55070.7 55175.7 55181.4 55181.4 55181.4 55181.4 55181.4
          55181.4 55181.4 55181.4 54681.6 54695.4 54706.3 54712.1 54718.1 54722.4 54726.5 54730.2 54733.2
          54349.6 54370.9 54389.2 54398.8 54409.1 54416.3 54423.3 54429.6 54434.8
        </DataArray>
        <DataArray type="Float32" Name="pc" NumberOfComponents="1" format="ascii">
          1119.5 1119.5 1966.71 1966.71 1119.5 1966.71 1119.5 1966.7 1119.5 1966.7 1119.5 1966.7
          1119.5 1966.7 1119.5 1966.7 1119.5 1966.7 2531.7 2531.7 2531.7 2531.7 2531.69 2531.69
          2531.69 2531.69 2531.69 2915.26 2915.2 2915.08 2914.96 2914.87 2914.8 2914.74 2914.69 2914.66
          3214.96 3214.31 3213.21 3212.37 3211.69 3211.13 3210.64 3210.22 3210.01 3549.57 3545.65 3540.04
          3536.37 3533.18 3530.69 3528.44 3526.45 3525.29 4302.49 4271.59 4230.02 4207.99 4186.64 4171.5
          4157.41 4145.07 4136.32 4302.49 4302.49 4302.49 4302.49 4302.49 4302.49 4302.49 4302.49 4302.49
          4302.49 4302.49 4302.49 4302.49 4302.49 4302.49 4302.49 4302.49 4302.49
        </DataArray>
        <DataArray type="Float32" Name="porosity" NumberOfComponents="1" format="ascii">
          0.41 0.41 0.41 0.41 0.41 0.41 0.41 0.41 0.41 0.41 0.41 0.41
          0.41 0.41 0.41 0.41 0.41 0.41 0.41 0.41 0.41 0.41 0.41 0.41
          0.41 0.41 0.41 0.41 0.41 0.41 0.41 0.41 0.41 0.41 0.41 0.41
          0.41 0.41 0.41 0.41 0.41 0.41 0.41 0.41 0.41 0.41 0.41 0.41
          0.41 0.41 0.41 0.41 0.41 0.41 0.41 0.41 0.41 0.41 0.41 0.41
          0.41 0.41 0.41 0.41 0.41 0.41 0.41 0.41 0.41 0.41 0.41 0.41
          0.41 0.41 0.41 0.41 0.41 0.41 0.41 0.41 0.41
        </DataArray>
        <DataArray type="Float32" Name="x^H2O_liq" NumberOfComponents="1" format="ascii">
          0.999987 0.999987 0.999987 0.999987 0.999987 0.999987 0.999987 0.999987 0.999987 0.999987 0.999987 0.999987
          0.999987 0.999987 0.999987 0.999987 0.999987 0.999987 0.999987 0.999987 0.999987 0.999987 0.999987 0.999987
          0.999987 0.999987 0.999987 0.999987 0.999987 0.999987 0.999987 0.999987 0.999987 0.999987 0.999987 0.999987
          0.999987 0.999987 0.999987 0.999987 0.999987 0.999987 0.999987 0.999987 0.999987 0.999987 0.999987 0.999987
          0.999987 0.999987 0.999987 0.999987 0.999987 0.999987 0.993654 0.999987 0.999987 0.999987 0.999987 0.999987
          0.999987 0.999987 0.999987 0.440456 0.45609 0.468303 0.474833 0.481622 0.486455 0.491091 0.495282 0.49861
          0.0639533 0.0881889 0.109024 0.119963 0.131777 0.139945 0.147918 0.155035 0.161009
        </DataArray>
        <DataArray type="Float32" Name="X^H2O_liq" NumberOfComponents="1" format="ascii">
          0.999978 0.999978 0.999978 0.999978 0.999978 0.999978 0.999978 0.999978 0.999978 0.999978 0.999978 0.999978
          0.999978 0.999978 0.999978 0.999978 0.999978 0.999978 0.999978 0.999978 0.999978 0.999978 0.999978 0.999978
          0.999978 0.999978 0.999978 0.999978 0.999978 0.999978 0.999978 0.999978 0.999978 0.999978 0.999978 0.999978
          0.999978 0.999978 0.999978 0.999978 0.999978 0.999978 0.999978 0.999978 0.999978 0.999978 0.999978 0.999978
          0.999978 0.999978 0.999978 0.999978 0.999978 0.999978 0.993646 0.999978 0.999978 0.999978 0.999978 0.999978
          0.999978 0.999978 0.999978 0.440448 0.456082 0.468295 0.474824 0.481614 0.486447 0.491083 0.495273 0.498602
          0.0639449 0.0881805 0.109016 0.119955 0.131769 0.139937 0.14791 0.155026 0.161001
        </DataArray>
        <DataArray type="Float32" Name="x^Air_liq" NumberOfComponents="1" format="ascii">
          1.34036e-05 1.34036e-05 1.34035e-05 1.34035e-05 1.34036e-05 1.34035e-05 1.34036e-05 1.34035e-05 1.34036e-05 1.34035e-05 1.34036e-05 1.34035e-05
          1.34036e-05 1.34035e-05 1.34036e-05 1.34035e-05 1.34036e-05 1.34035e-05 1.34034e-05 1.34034e-05 1.34034e-05 1.34034e-05 1.34034e-05 1.34034e-05
          1.34034e-05 1.34034e-05 1.34034e-05 1.34033e-05 1.34033e-05 1.34033e-05 1.34033e-05 1.34033e-05 1.34033e-05 1.34033e-05 1.34033e-05 1.34033e-05
          1.34033e-05 1.34033e-05 1.34033e-05 1.34033e-05 1.34033e-05 1.34033e-05 1.34033e-05 1.34033e-05 1.34033e-05 1.34032e-05 1.34032e-05 1.34032e-05
          1.34032e-05 1.34032e-05 1.34032e-05 1.34032e-05 1.34032e-05 1.34032e-05 1.3406e-05 1.34032e-05 1.34032e-05 1.34032e-05 1.34032e-05 1.34032e-05
          1.34032e-05 1.34032e-05 1.34032e-05 1.3649e-05 1.36422e-05 1.36368e-05 1.36339e-05 1.3631e-05 1.36288e-05 1.36268e-05 1.3625e-05 1.36235e-05
          1.38145e-05 1.38038e-05 1.37946e-05 1.37898e-05 1.37847e-05 1.37811e-05 1.37776e-05 1.37744e-05 1.37718e-05
        </DataArray>
        <DataArray type="Float32" Name="X^Air_liq" NumberOfComponents="1" format="ascii">
          2.15465e-05 2.15465e-05 2.15463e-05 2.15463e-05 2.15465e-05 2.15463e-05 2.15465e-05 2.15463e-05 2.15465e-05 2.15463e-05 2.15465e-05 2.15463e-05
          2.15465e-05 2.15463e-05 2.15465e-05 2.15463e-05 2.15465e-05 2.15463e-05 2.15462e-05 2.15462e-05 2.15462e-05 2.15462e-05 2.15462e-05 2.15462e-05
          2.15462e-05 2.15462e-05 2.15462e-05 2.15461e-05 2.15461e-05 2.15461e-05 2.15461e-05 2.15461e-05 2.15461e-05 2.15461e-05 2.15461e-05 2.15461e-05
          2.1546e-05 2.1546e-05 2.1546e-05 2.1546e-05 2.1546e-05 2.1546e-05 2.1546e-05 2.1546e-05 2.1546e-05 2.1546e-05 2.1546e-05 2.1546e-05
          2.1546e-05 2.1546e-05 2.1546e-05 2.1546e-05 2.1546e-05 2.1546e-05 2.15504e-05 2.15459e-05 2.15459e-05 2.15459e-05 2.15459e-05 2.15459e-05
          2.15459e-05 2.15459e-05 2.15459e-05 2.19409e-05 2.19298e-05 2.19212e-05 2.19166e-05 2.19118e-05 2.19084e-05 2.19052e-05 2.19022e-05 2.18998e-05
          2.22043e-05 2.2188e-05 2.21737e-05 2.21661e-05 2.21579e-05 2.21522e-05 2.21466e-05 2.21417e-05 2.21375e-05
        </DataArray>
        <DataArray type="Float32" Name="rhoMolar_liq" NumberOfComponents="1" format="ascii">
          55344.6 55344.6 55344.6 55344.6 55344.6 55344.6 55344.6 55344.6 55344.6 55344.6 55344.6 55344.6
          55344.6 55344.6 55344.6 55344.6 55344.6 55344.6 55344.6 55344.6 55344.6 55344.6 55344.6 55344.6
          55344.6 55344.6 55344.6 55344.6 55344.6 55344.6 55344.6 55344.6 55344.6 55344.6 55344.6 55344.6
          55344.6 55344.6 55344.6 55344.6 55344.6 55344.6 55344.6 55344.6 55344.6 55344.6 55344.6 55344.6
          55344.6 55344.6 55344.6 55344.6 55344.6 55344.6 55344.5 55344.5 55344.5 55344.5 55344.5 55344.5
          55344.5 55344.5 55344.5 55344.5 55344.5 55344.5 55344.5 55344.5 55344.5 55344.5 55344.5 55344.5
          55344.5 55344.5 55344.5 55344.5 55344.5 55344.5 55344.5 55344.5 55344.5
        </DataArray>
        <DataArray type="Float32" Name="x^H2O_gas" NumberOfComponents="1" format="ascii">
          0.0317387 0.0317387 0.031739 0.031739 0.0317387 0.031739 0.0317387 0.031739 0.0317387 0.031739 0.0317387 0.031739
          0.0317387 0.031739 0.0317387 0.031739 0.0317387 0.031739 0.0317392 0.0317392 0.0317392 0.0317392 0.0317392 0.0317392
          0.0317392 0.0317392 0.0317392 0.0317394 0.0317394 0.0317394 0.0317394 0.0317394 0.0317394 0.0317394 0.0317394 0.0317394
          0.0317395 0.0317395 0.0317395 0.0317395 0.0317395 0.0317395 0.0317395 0.0317395 0.0317395 0.0317395 0.0317395 0.0317395
          0.0317395 0.0317395 0.0317395 0.0317395 0.0317395 0.0317395 0.0315386 0.0317396 0.0317396 0.0317396 0.0317396 0.0317396
          0.0317396 0.0317396 0.0317396 0.0139801 0.0144763 0.014864 0.0150712 0.0152867 0.0154401 0.0155872 0.0157202 0.0158259
          0.00202988 0.00279912 0.00346044 0.00380764 0.00418261 0.00444186 0.00469492 0.0049208 0.00511045
        </DataArray>
        <DataArray type="Float32" Name="X^H2O_gas" NumberOfComponents="1" format="ascii">
          0.0199834 0.0199834 0.0199836 0.0199836 0.0199834 0.0199836 0.0199834 0.0199836 0.0199834 0.0199836 0.0199834 0.0199836
          0.0199834 0.0199836 0.0199834 0.0199836 0.0199834 0.0199836 0.0199838 0.0199838 0.0199838 0.0199838 0.0199838 0.0199838
          0.0199838 0.0199838 0.0199838 0.0199839 0.0199839 0.0199839 0.0199839 0.0199839 0.0199839 0.0199839 0.0199839 0.0199839
          0.0199839 0.0199839 0.0199839 0.0199839 0.0199839 0.0199839 0.0199839 0.0199839 0.0199839 0.019984 0.019984 0.019984
          0.019984 0.019984 0.019984 0.019984 0.019984 0.019984 0.0198559 0.019984 0.019984 0.019984 0.019984 0.019984
          0.019984 0.019984 0.019984 0.0087428 0.00905483 0.00929867 0.00942907 0.00956467 0.00966121 0.00975383 0.00983756 0.00990407
          0.0012637 0.0017431 0.00215546 0.00237203 0.002606 0.0027678 0.00292577 0.00306679 0.00318521
        </DataArray>
        <DataArray type="Float32" Name="x^Air_gas" NumberOfComponents="1" format="ascii">
          0.968261 0.968261 0.968261 0.968261 0.968261 0.968261 0.968261 0.968261 0.968261 0.968261 0.968261 0.968261
          0.968261 0.968261 0.968261 0.968261 0.968261 0.968261 0.968261 0.968261 0.968261 0.968261 0.968261 0.968261
          0.968261 0.968261 0.968261 0.968261 0.968261 0.968261 0.968261 0.968261 0.968261 0.968261 0.968261 0.968261
          0.968261 0.968261 0.968261 0.968261 0.968261 0.968261 0.968261 0.968261 0.968261 0.96826 0.96826 0.96826
          0.96826 0.96826 0.96826 0.96826 0.96826 0.96826 0.968461 0.96826 0.96826 0.96826 0.96826 0.96826
          0.96826 0.96826 0.96826 0.98602 0.985524 0.985136 0.984929 0.984713 0.98456 0.984413 0.98428 0.984174
          0.99797 0.997201 0.99654 0.996192 0.995817 0.995558 0.995305 0.995079 0.99489
        </DataArray>
        <DataArray type="Float32" Name="X^Air_gas" NumberOfComponents="1" format="ascii">
          0.980017 0.980017 0.980016 0.980016 0.980017 0.980016 0.980017 0.980016 0.980017 0.980016 0.980017 0.980016
          0.980017 0.980016 0.980017 0.980016 0.980017 0.980016 0.980016 0.980016 0.980016 0.980016 0.980016 0.980016
          0.980016 0.980016 0.980016 0.980016 0.980016 0.980016 0.980016 0.980016 0.980016 0.980016 0.980016 0.980016
          0.980016 0.980016 0.980016 0.980016 0.980016 0.980016 0.980016 0.980016 0.980016 0.980016 0.980016 0.980016
          0.980016 0.980016 0.980016 0.980016 0.980016 0.980016 0.980144 0.980016 0.980016 0.980016 0.980016 0.980016
          0.980016 0.980016 0.980016 0.991257 0.990945 0.990701 0.990571 0.990435 0.990339 0.990246 0.990162 0.990096
          0.998736 0.998257 0.997845 0.997628 0.997394 0.997232 0.997074 0.996933 0.996815
        </DataArray>
        <DataArray type="Float32" Name="rhoMolar_gas" NumberOfComponents="1" format="ascii">
          40.3427 40.3427 40.3423 40.3423 40.3427 40.3423 40.3427 40.3423 40.3427 40.3423 40.3427 40.3423
          40.3427 40.3423 40.3427 40.3423 40.3427 40.3423 40.3421 40.3421 40.3421 40.3421 40.3421 40.3421
          40.3421 40.3421 40.3421 40.3419 40.3419 40.3419 40.3419 40.3419 40.3419 40.3419 40.3419 40.3419
          40.3418 40.3418 40.3418 40.3418 40.3418 40.3418 40.3418 40.3418 40.3418 40.3417 40.3417 40.3417
          40.3417 40.3417 40.3417 40.3417 40.3417 40.3417 40.3416 40.3417 40.3417 40.3417 40.3417 40.3417
          40.3417 40.3417 40.3417 40.3399 40.34 40.34 40.34 40.34 40.34 40.34 40.34 40.34
          40.3395 40.3395 40.3395 40.3395 40.3395 40.3395 40.3396 40.3396 40.3396
        </DataArray>
        <DataArray type="Float32" Name="phase presence" NumberOfComponents="1" format="ascii">
          3 3 3 3 3 3 3 3 3 3 3 3
          3 3 3 3 3 3 3 3 3 3 3 3
          3 3 3 3 3 3 3 3 3 3 3 3
          3 3 3 3 3 3 3 3 3 3 3 3
          3 3 3 3 3 3 2 3 3 3 3 3
          3 3 3 2 2 2 2 2 2 2 2 2
          2 2 2 2 2 2 2 2 2
        </DataArray>
      </PointData>
      <CellData Scalars="process rank">
        <DataArray type="Float32" Name="process rank" NumberOfComponents="1" format="ascii">
          0 0 0 0 0 0 0 0 0 0 0 0
          0 0 0 0 0 0 0 0 0 0 0 0
          0 0 0 0 0 0 0 0 0 0 0 0
          0 0 0 0 0 0 0 0 0 0 0 0
          0 0 0 0 0 0 0 0 0 0 0 0
          0 0 0 0
        </DataArray>
      </CellData>
      <Points>
        <DataArray type="Float32" Name="Coordinates" NumberOfComponents="3" format="ascii">
          0 0 0 0.03125 0 0 0 0.0867169 0 0.03125 0.0867169 0
          0.0625 0 0 0.0625 0.0867169 0 0.09375 0 0 0.09375 0.0867169 0
          0.125 0 0 0.125 0.0867169 0 0.15625 0 0 0.15625 0.0867169 0
          0.1875 0 0 0.1875 0.0867169 0 0.21875 0 0 0.21875 0.0867169 0
          0.25 0 0 0.25 0.0867169 0 0 0.144528 0 0.03125 0.144528 0
          0.0625 0.144528 0 0.09375 0.144528 0 0.125 0.144528 0 0.15625 0.144528 0
          0.1875 0.144528 0 0.21875 0.144528 0 0.25 0.144528 0 0 0.183069 0
          0.03125 0.183069 0 0.0625 0.183069 0 0.09375 0.183069 0 0.125 0.183069 0
          0.15625 0.183069 0 0.1875 0.183069 0 0.21875 0.183069 0 0.25 0.183069 0
          0 0.208763 0 0.03125 0.208763 0 0.0625 0.208763 0 0.09375 0.208763 0
          0.125 0.208763 0 0.15625 0.208763 0 0.1875 0.208763 0 0.21875 0.208763 0
          0.25 0.208763 0 0 0.225892 0 0.03125 0.225892 0 0.0625 0.225892 0
          0.09375 0.225892 0 0.125 0.225892 0 0.15625 0.225892 0 0.1875 0.225892 0
          0.21875 0.225892 0 0.25 0.225892 0 0 0.237312 0 0.03125 0.237312 0
          0.0625 0.237312 0 0.09375 0.237312 0 0.125 0.237312 0 0.15625 0.237312 0
          0.1875 0.237312 0 0.21875 0.237312 0 0.25 0.237312 0 0 0.244925 0
          0.03125 0.244925 0 0.0625 0.244925 0 0.09375 0.244925 0 0.125 0.244925 0
          0.15625 0.244925 0 0.1875 0.244925 0 0.21875 0.244925 0 0.25 0.244925 0
          0 0.25 0 0.03125 0.25 0 0.0625 0.25 0 0.09375 0.25 0
          0.125 0.25 0 0.15625 0.25 0 0.1875 0.25 0 0.21875 0.25 0
          0.25 0.25 0
        </DataArray>
      </Points>
      <Cells>
        <DataArray type="Int32" Name="connectivity" NumberOfComponents="1" format="ascii">
          0 1 3 2 1 4 5 3 4 6 7 5
          6 8 9 7 8 10 11 9 10 12 13 11
          12 14 15 13 14 16 17 15 2 3 19 18
          3 5 20 19 5 7 21 20 7 9 22 21
          9 11 23 22 11 13 24 23 13 15 25 24
          15 17 26 25 18 19 28 27 19 20 29 28
          20 21 30 29 21 22 31 30 22 23 32 31
          23 24 33 32 24 25 34 33 25 26 35 34
          27 28 37 36 28 29 38 37 29 30 39 38
          30 31 40 39 31 32 41 40 32 33 42 41
          33 34 43 42 34 35 44 43 36 37 46 45
          37 38 47 46 38 39 48 47 39 40 49 48
          40 41 50 49 41 42 51 50 42 43 52 51
          43 44 53 52 45 46 55 54 46 47 56 55
          47 48 57 56 48 49 58 57 49 50 59 58
          50 51 60 59 51 52 61 60 52 53 62 61
          54 55 64 63 55 56 65 64 56 57 66 65
          57 58 67 66 58 59 68 67 59 60 69 68
          60 61 70 69 61 62 71 70 63 64 73 72
          64 65 74 73 65 66 75 74 66 67 76 75
          67 68 77 76 68 69 78 77 69 70 79 78
          70 71 80 79
        </DataArray>
        <DataArray type="Int32" Name="offsets" NumberOfComponents="1" format="ascii">
          4 8 12 16 20 24 28 32 36 40 44 48
          52 56 60 64 68 72 76 80 84 88 92 96
          100 104 108 112 116 120 124 128 132 136 140 144
          148 152 156 160 164 168 172 176 180 184 188 192
          196 200 204 208 212 216 220 224 228 232 236 240
          244 248 252 256
        </DataArray>
        <DataArray type="UInt8" Name="types" NumberOfComponents="1" format="ascii">
          9 9 9 9 9 9 9 9 9 9 9 9
          9 9 9 9 9 9 9 9 9 9 9 9
          9 9 9 9 9 9 9 9 9 9 9 9
          9 9 9 9 9 9 9 9 9 9 9 9
          9 9 9 9 9 9 9 9 9 9 9 9
          9 9 9 9
        </DataArray>
      </Cells>
    </Piece>
  </UnstructuredGrid>
</VTKFile>
