<?xml version="1.0"?>
<VTKFile type="PolyData" version="0.1" byte_order="LittleEndian">
  <PolyData>
    <Piece NumberOfLines="137" NumberOfPoints="90">
      <PointData Scalars="p">
        <DataArray type="Float32" Name="p" NumberOfComponents="1" format="ascii">
          98300.7 100000 98483.2 100000 98484.3 100000 100000 100000 96969.2 98115.8 97900.8 100000
          97759 97356.2 97356.2 97356.2 97503 94902.4 94902.4 97356.2 97356.2 94902.4 95894 95556.2
          95049.4 96383.9 96383.9 94976.1 97581.4 97433.5 97969.8 97425.9 97356.2 97277.8 96298.7 96940
          97594.5 97421.9 97463.7 96199.1 95027.3 94605.8 96383.9 94706.1 92892 95457.8 97293.8 97263.1
          97047.3 96987.9 96633.1 96230.1 97038.4 94979.4 97053.6 96585.4 96045.6 92806 93404.5 94601
          96457.4 94967.2 95471.2 91174.2 94500.3 94262 93124.9 95249.5 93952.8 92486.2 91412.1 95985.9
          95962 95969 95964.8 95487.1 96782.5 96230.1 96230.1 95512.2 93732.4 97038.4 95249.5 90000
          90000 92987.8 92486.2 92486.2 90000 93124.9
        </DataArray>
        <DataArray type="Float32" Name="poreInscribedRadius" NumberOfComponents="1" format="ascii">
          0.00010842 0.0002263 0.00018872 8.6711e-05 0.00014246 0.00017024 0.00014006 5.8137e-05 0.00017043 0.00014712 0.00018289 0.00011213
          8.001e-05 0.00026652 0.00010984 0.00018149 0.0001191 0.00010862 6.7563e-05 0.00013353 8.8091e-05 0.00011873 8.6177e-05 0.00014165
          9.7691e-05 0.00014071 8.5166e-05 0.00010965 8.1041e-05 0.00015832 6.1496e-05 0.00011323 0.00033347 6.7184e-05 0.00010274 0.00016438
          0.00011759 8.0701e-05 0.00015113 0.00013784 9.8161e-05 0.00013 8.1223e-05 0.00014997 0.00013153 0.00020701 0.00010946 8.5023e-05
          7.8721e-05 0.00017262 0.00012575 0.00010082 0.00015856 0.00012022 0.00019603 9.1747e-05 0.0001146 0.00025862 0.00012908 0.00025963
          0.00010958 6.7231e-05 0.00012907 0.00015315 9.4275e-05 0.00019972 7.1623e-05 0.00014025 0.00011092 0.00015744 5.0362e-05 0.00022549
          0.00010874 9.8868e-05 0.00010793 0.00015434 8.0185e-05 6.8354e-05 0.00014551 0.00014525 0.00017218 0.00012177 9.0671e-05 0.00015715
          0.00012027 0.00015784 0.00022979 0.00010367 5.3866e-05 0.00024136
        </DataArray>
        <DataArray type="Float32" Name="coordinationNumber" NumberOfComponents="1" format="ascii">
          6 1 4 1 3 1 5 2 6 3 4 1
          2 4 2 3 2 6 1 1 1 1 4 2
          3 2 1 2 3 7 2 4 3 4 6 2
          3 4 3 5 5 3 4 6 4 5 4 4
          4 4 5 7 3 3 2 3 2 5 2 4
          3 2 2 2 3 4 5 4 4 6 2 5
          4 3 2 2 2 1 1 4 2 1 1 3
          1 2 1 1 1 1
        </DataArray>
        <DataArray type="Float32" Name="poreLabel" NumberOfComponents="1" format="ascii">
          -1 2 -1 2 -1 2 2 -1 -1 -1 -1 2
          -1 -1 -1 -1 -1 -1 -1 -1 -1 -1 -1 -1
          -1 -1 -1 -1 -1 -1 -1 -1 -1 -1 -1 -1
          -1 -1 -1 -1 -1 -1 -1 -1 -1 -1 -1 -1
          -1 -1 -1 -1 -1 -1 -1 -1 -1 -1 -1 -1
          -1 -1 -1 -1 -1 -1 -1 -1 -1 -1 -1 -1
          -1 -1 -1 -1 -1 -1 -1 -1 -1 -1 -1 3
          3 -1 -1 -1 3 -1
        </DataArray>
      </PointData>
      <CellData Scalars="process rank" Vectors="velocity_liq (m/s)">
        <DataArray type="Float32" Name="velocity_liq (m/s)" NumberOfComponents="3" format="ascii">
          2.29656 2.29656 -2.29656 5.10206 -0 -5.10206 5.06461 -5.06461 -0 2.64829 -0 -0
          -0 0 0 2.76467 2.76467 2.76467 2.07905 -0 2.07905 3.54354 -0 -3.54354
          -0 0 0 -0.671031 0.671031 0.671031 0.710934 0.710934 -0.710934 -0 0 0
          -3.19428e-14 0 -3.19428e-14 1.25296 -0 -0 -0.721536 0.721536 0.721536 -0 -0 0
          -0 0 -0 -0 0 -0 -0 0 0 -0.569204 0.569204 0
          0.46489 0.46489 -0.46489 1.98856e-14 -1.98856e-14 1.98856e-14 -0.116151 0 0 0.0823941 -0.0823941 -0
          2.11342 -0 -0 3.53966 3.53966 -0 1.20586 -0 -0 3.51346 -0 -3.51346
          -0.183069 0 0 0.130711 0.130711 -0 -0 2.8017e-12 2.8017e-12 0.57023 0.57023 -0.57023
          1.47307 1.47307 1.47307 1.06854 -0 1.06854 -0 -0 0.438582 2.22569 2.22569 -0
          1.18318 -0 -1.18318 -0 -0 3.29486 -0.196401 0 0 -0 2.41467 -0
          -0 0.761438 -0.761438 0 0 -4.59104e-14 2.61949 -2.61949 -0 -0 3.22629 -3.22629
          2.13744 2.13744 -0 -0.818357 0.818357 0.818357 -0 0 0 0.765981 -0 -0
          -0 -0 0.589884 2.94075 2.94075 2.94075 -1.44203 0 1.44203 0 -0.69664 0
          0.992747 -0 0.992747 -0 0.702229 -0 0.962353 -0 0.962353 0 0 -0.791779
          0 -0.77438 0 0.578288 0.578288 -0.578288 0.454703 -0 -0.454703 0.713511 0.713511 0.713511
          -0 2.04201 2.04201 -0 0.844416 0.844416 -0 0.367368 -0 0.383383 -0.383383 0.383383
          2.01946 -0 2.01946 -0 1.17858 1.17858 0.515044 0.515044 -0.515044 1.03862 -0 1.03862
          4.02569 -0 4.02569 0 -0.16271 0.16271 -0 0.978325 -0 1.13629 1.13629 -0
          -0.550534 -0.550534 0.550534 -0 1.8703 1.8703 0.86512 -0.86512 -0 0.187127 -0.187127 -0.187127
          -0 2.7969 -2.7969 2.00549 -0 2.00549 -2.00501 0 2.00501 0.574307 -0.574307 -0.574307
          -0.601421 0 0 -0 -0 1.55618 -0.649518 0.649518 0 -0 -0 1.16894
          -0 1.62362 1.62362 -0.70552 0.70552 0.70552 3.91924 -0 -3.91924 -0 0.228989 -0.228989
          -0 2.17865 -0 1.26336 1.26336 -0 -1.66785 1.66785 0 -0.922254 0.922254 0.922254
          3.03904 -3.03904 -0 0 0 -2.22119 1.49136 -1.49136 1.49136 0.365991 -0.365991 0.365991
          4.89612 -0 -4.89612 0 0 -1.44238 0 -0.279212 0 1.36203 1.36203 1.36203
          -0 0.41628 -0.41628 -0 -0 0.0329642 0.00463455 0.00463455 -0 -0.0230337 -0.0230337 0.0230337
          0 -1.06806 0 -0.00391228 -0.00391228 0.00391228 0.649239 0.649239 0.649239 0.729785 0.729785 0.729785
          1.14966 -0 -0 -0.919338 -0.919338 0 1.3779e-12 -1.3779e-12 -1.3779e-12 6.55001e-13 -6.55001e-13 6.55001e-13
          1.95122 1.95122 1.95122 -0 0.892889 0.892889 1.52442 1.52442 -1.52442 -0 3.44945 -0
          1.40936 -0 -1.40936 -0 -0 0 -0.869328 0.869328 0 -2.1856 0 0
          -1.26068 1.26068 1.26068 -1.18321e-11 0 0 -0.649547 0.649547 -0.649547 9.26588 9.26588 -0
          -1.23693 1.23693 1.23693 3.19451 3.19451 -3.19451 -0 -0 2.29761 -2.61494 2.61494 0
          -0 2.77939 2.77939 -0 -0 2.35763 3.92424 -0 -0 -3.81268e-12 3.81268e-12 0
          1.11044e-12 -0 -1.11044e-12 0 -0.705834 0.705834 4.74552 -0 4.74552 1.58871e-13 -1.58871e-13 -1.58871e-13
          2.81069 -2.81069 2.81069
        </DataArray>
        <DataArray type="Float32" Name="process rank" NumberOfComponents="1" format="ascii">
          0 0 0 0 0 0 0 0 0 0 0 0
          0 0 0 0 0 0 0 0 0 0 0 0
          0 0 0 0 0 0 0 0 0 0 0 0
          0 0 0 0 0 0 0 0 0 0 0 0
          0 0 0 0 0 0 0 0 0 0 0 0
          0 0 0 0 0 0 0 0 0 0 0 0
          0 0 0 0 0 0 0 0 0 0 0 0
          0 0 0 0 0 0 0 0 0 0 0 0
          0 0 0 0 0 0 0 0 0 0 0 0
          0 0 0 0 0 0 0 0 0 0 0 0
          0 0 0 0 0 0 0 0 0 0 0 0
          0 0 0 0 0
        </DataArray>
        <DataArray type="Float32" Name="throatLabel" NumberOfComponents="1" format="ascii">
          2 2 2 2 2 2 2 2 2 -1 -1 -1
          -1 -1 -1 -1 -1 -1 -1 -1 -1 -1 -1 -1
          -1 -1 -1 -1 -1 -1 -1 -1 -1 -1 -1 -1
          -1 -1 -1 -1 -1 -1 -1 -1 -1 -1 -1 -1
          -1 -1 -1 -1 -1 -1 -1 -1 -1 -1 -1 -1
          -1 -1 -1 -1 -1 -1 -1 -1 -1 -1 -1 -1
          -1 -1 -1 -1 -1 -1 -1 -1 -1 -1 -1 -1
          -1 -1 -1 -1 -1 -1 -1 -1 -1 -1 -1 -1
          -1 -1 -1 -1 -1 -1 -1 -1 -1 -1 -1 -1
          -1 -1 -1 -1 -1 -1 -1 -1 -1 -1 -1 -1
          -1 -1 -1 3 -1 3 -1 -1 -1 -1 3 -1
          -1 -1 3 -1 3
        </DataArray>
        <DataArray type="Float32" Name="throatInscribedRadius" NumberOfComponents="1" format="ascii">
          3.3304e-05 3.384e-05 3.3615e-05 3.3259e-05 3.3423e-05 3.3717e-05 3.3301e-05 3.3963e-05 3.3418e-05 3.4247e-05 3.3272e-05 3.37e-05
          3.3125e-05 3.3391e-05 3.3434e-05 3.3768e-05 3.3951e-05 3.3734e-05 3.3508e-05 3.3908e-05 3.3903e-05 3.3674e-05 3.3826e-05 3.3772e-05
          3.3303e-05 3.389e-05 3.3413e-05 3.3431e-05 3.3693e-05 3.353e-05 3.3589e-05 3.3834e-05 3.3987e-05 3.3567e-05 3.3743e-05 3.3553e-05
          3.371e-05 3.3781e-05 3.3426e-05 3.3726e-05 3.3836e-05 3.3664e-05 3.422e-05 3.3429e-05 3.3386e-05 3.305e-05 3.3941e-05 3.3926e-05
          3.3606e-05 3.3937e-05 3.3695e-05 3.3731e-05 3.3671e-05 3.3781e-05 3.3667e-05 3.4584e-05 3.3243e-05 3.3015e-05 3.3252e-05 3.3267e-05
          3.3488e-05 3.3576e-05 3.356e-05 3.3816e-05 3.3764e-05 3.3887e-05 3.4237e-05 3.4047e-05 3.3204e-05 3.2859e-05 3.3938e-05 3.3021e-05
          3.3656e-05 3.3645e-05 3.4391e-05 3.361e-05 3.3463e-05 3.3712e-05 3.3716e-05 3.3657e-05 3.3429e-05 3.3224e-05 3.374e-05 3.3184e-05
          3.3288e-05 3.4084e-05 3.3492e-05 3.3586e-05 3.3937e-05 3.3532e-05 3.3981e-05 3.3517e-05 3.3975e-05 3.3845e-05 3.3562e-05 3.3343e-05
          3.3284e-05 3.3542e-05 3.3486e-05 3.3496e-05 3.3966e-05 3.3533e-05 3.402e-05 3.3455e-05 3.3962e-05 3.3458e-05 3.3693e-05 3.3961e-05
          3.3494e-05 3.3486e-05 3.4314e-05 3.3954e-05 3.3488e-05 3.3852e-05 3.3512e-05 3.3871e-05 3.4113e-05 3.3098e-05 3.3981e-05 3.4127e-05
          3.3649e-05 3.4226e-05 3.3685e-05 3.322e-05 3.2903e-05 3.3521e-05 3.3874e-05 3.374e-05 3.3772e-05 3.344e-05 3.3682e-05 3.3086e-05
          3.3378e-05 3.3359e-05 3.3808e-05 3.3628e-05 3.3247e-05
        </DataArray>
        <DataArray type="Float32" Name="throatLength" NumberOfComponents="1" format="ascii">
          6.6609e-05 3.384e-05 3.3615e-05 9.9777e-05 6.6846e-05 0.00010115 9.9902e-05 6.7925e-05 0.00010025 0.00010274 9.9816e-05 3.37e-05
          9.9376e-05 6.6781e-05 0.0001003 6.7537e-05 6.7903e-05 0.0001012 3.3508e-05 6.7817e-05 0.00010171 6.7347e-05 0.00010148 0.00010132
          6.6606e-05 3.389e-05 6.6826e-05 3.3431e-05 6.7385e-05 6.706e-05 0.00010077 0.0001015 0.00010196 0.0001007 6.7487e-05 0.00010066
          6.7421e-05 3.3781e-05 3.3426e-05 0.00010118 6.7672e-05 0.00010099 3.422e-05 6.6858e-05 6.6772e-05 3.305e-05 6.7881e-05 6.7852e-05
          3.3606e-05 6.7873e-05 3.3695e-05 3.3731e-05 3.3671e-05 3.3781e-05 3.3667e-05 3.4584e-05 6.6486e-05 3.3015e-05 6.6503e-05 9.9802e-05
          6.6975e-05 6.7153e-05 6.7119e-05 3.3816e-05 6.7529e-05 0.00010166 0.00010271 3.4047e-05 3.3204e-05 6.5718e-05 6.7876e-05 6.6043e-05
          3.3656e-05 0.00010094 3.4391e-05 3.361e-05 3.3463e-05 3.3712e-05 6.7432e-05 6.7313e-05 3.3429e-05 9.9673e-05 0.00010122 9.9553e-05
          3.3288e-05 0.00010225 0.00010048 0.00010076 0.00010181 0.0001006 6.7962e-05 3.3517e-05 6.7951e-05 3.3845e-05 3.3562e-05 0.00010003
          3.3284e-05 3.3542e-05 3.3486e-05 6.6992e-05 6.7931e-05 3.3533e-05 0.00010206 6.691e-05 0.00010189 6.6916e-05 6.7385e-05 3.3961e-05
          3.3494e-05 6.6972e-05 3.4314e-05 0.00010186 3.3488e-05 0.00010156 6.7024e-05 0.00010161 0.00010234 3.3098e-05 6.7962e-05 6.8254e-05
          0.00010095 0.00010268 3.3685e-05 3.322e-05 6.5807e-05 3.3521e-05 6.7748e-05 6.748e-05 3.3772e-05 3.344e-05 0.00010104 9.9259e-05
          6.6757e-05 0.00010008 3.3808e-05 0.00010088 9.974e-05
        </DataArray>
        <DataArray type="Float32" Name="transmissibility" NumberOfComponents="1" format="ascii">
          1.03853e-14 2.17901e-14 2.13583e-14 6.89564e-15 1.04972e-14 7.18452e-15 6.92186e-15 1.10144e-14 6.99529e-15 7.52868e-15 6.90373e-15 2.15208e-14
          6.81256e-15 1.04673e-14 7.0052e-15 1.08255e-14 1.10024e-14 7.19547e-15 2.1155e-14 1.09607e-14 7.30394e-15 1.07357e-14 7.25421e-15 7.21938e-15
          1.03846e-14 2.18868e-14 1.04878e-14 2.10095e-14 1.07538e-14 1.05984e-14 7.10273e-15 7.25965e-15 7.3585e-15 7.08906e-15 1.08015e-14 7.08005e-15
          1.07698e-14 2.16763e-14 2.10001e-14 7.19006e-15 1.08912e-14 7.15077e-15 2.25324e-14 1.05029e-14 1.04624e-14 2.02994e-14 1.09931e-14 1.09783e-14
          2.13412e-14 1.09892e-14 2.15112e-14 2.15802e-14 2.14653e-14 2.16763e-14 2.14576e-14 2.32591e-14 1.03285e-14 2.02349e-14 1.03371e-14 6.90054e-15
          1.05587e-14 1.06419e-14 1.0627e-14 2.17438e-14 1.08216e-14 7.29374e-15 7.52208e-15 2.21924e-14 2.05845e-14 9.97473e-15 1.099e-14 1.01228e-14
          2.14366e-14 7.13817e-15 2.28719e-14 2.13488e-14 2.10699e-14 2.15438e-14 1.07757e-14 1.07194e-14 2.10058e-14 6.87382e-15 7.19916e-15 6.84902e-15
          2.07411e-14 7.42176e-15 7.0413e-15 7.10089e-15 7.32608e-15 7.06656e-15 1.10318e-14 2.11721e-14 1.10258e-14 2.17998e-14 2.12575e-14 6.94795e-15
          2.07336e-14 2.12195e-14 2.11134e-14 1.05662e-14 1.10174e-14 2.12024e-14 7.37989e-15 1.05274e-14 7.34192e-15 1.05302e-14 1.07538e-14 2.20247e-14
          2.11285e-14 1.05567e-14 2.27186e-14 7.33716e-15 2.11172e-14 7.27081e-15 1.05813e-14 7.28356e-15 7.4405e-15 2.03879e-14 1.10318e-14 1.11746e-14
          7.14086e-15 7.51462e-15 2.1492e-14 2.06142e-14 1.00147e-14 2.11797e-14 1.09279e-14 1.07987e-14 2.1659e-14 2.10265e-14 7.16253e-15 6.78852e-15
          1.04547e-14 6.95781e-15 2.17283e-14 7.12799e-15 6.88824e-15
        </DataArray>
        <DataArray type="Float32" Name="volumeFlux" NumberOfComponents="1" format="ascii">
          1.76478e-08 3.30508e-08 3.23733e-08 1.17177e-08 0 2.17752e-08 1.30423e-08 2.3122e-08 0 5.45265e-09 5.45265e-09 0
          1.98271e-22 5.58799e-09 5.58799e-09 0 0 0 0 3.70209e-09 3.70209e-09 1.56224e-22 5.316e-10 5.316e-10
          9.37588e-09 2.29974e-08 5.38504e-09 2.22131e-08 8.31293e-10 8.31293e-10 1.7881e-20 4.52249e-09 1.17888e-08 6.81069e-09 1.99746e-09 1.41743e-08
          7.60575e-09 1.50398e-08 8.77755e-10 1.09862e-08 4.93137e-09 2.08115e-22 1.73521e-08 2.03951e-08 1.34772e-08 6.19307e-09 0 3.52649e-09
          2.66477e-09 2.34653e-08 9.26148e-09 3.17049e-09 6.36686e-09 3.20541e-09 6.17047e-09 3.78804e-09 3.42306e-09 4.36704e-09 2.84406e-09 5.47077e-09
          1.29542e-08 5.38504e-09 1.65503e-09 3.03737e-09 1.30232e-08 7.65595e-09 4.18269e-09 6.81069e-09 2.51071e-08 9.93797e-10 4.50729e-09 7.00881e-09
          4.32046e-09 1.19764e-08 5.78817e-09 1.46452e-09 1.77166e-08 1.28933e-08 1.28933e-08 4.50729e-09 2.68835e-09 6.87104e-09 4.18269e-09 5.14886e-09
          1.01773e-08 5.67847e-09 2.4869e-08 1.46119e-09 1.00368e-08 8.03565e-09 1.08944e-08 7.17797e-09 1.9844e-08 1.01773e-08 1.16385e-08 2.81903e-09
          3.0683e-08 6.49109e-09 1.25233e-09 1.05875e-08 2.71675e-09 1.48268e-10 3.03425e-11 1.7861e-10 4.92767e-09 3.03425e-11 5.10628e-09 5.83145e-09
          5.15897e-09 5.83145e-09 1.12404e-20 5.23172e-21 1.51602e-08 5.78817e-09 1.18611e-08 1.58294e-08 9.27763e-09 0 5.67847e-09 1.01819e-08
          9.88937e-09 5.54415e-20 5.10628e-09 5.78444e-08 9.27763e-09 2.4869e-08 1.05455e-08 1.68394e-08 1.79324e-08 1.05455e-08 1.78079e-08 2.36099e-20
          6.99827e-21 4.44328e-09 3.0683e-08 1.24471e-21 2.15248e-08
        </DataArray>
      </CellData>
      <Points>
        <DataArray type="Float32" Name="Coordinates" NumberOfComponents="3" format="ascii">
          2 2 3 1 1 4 2 1 4 1 1 5
          2 1 1 1 2 1 1 2 3 2 1 3
          2 3 4 2 2 4 2 2 2 1 2 4
          1 2 5 2 3 2 1 3 2 2 3 3
          1 3 4 2 4 4 1 3 5 1 4 1
          1 4 2 1 4 4 2 3 5 1 4 5
          2 5 4 2 4 2 1 5 1 1 5 4
          3 1 1 3 2 1 3 1 4 3 1 3
          2 2 1 3 3 1 3 3 3 3 2 3
          3 2 2 2 2 5 3 2 5 3 2 4
          2 4 3 3 4 5 3 3 2 3 4 3
          3 5 4 3 4 2 4 1 2 3 1 2
          4 2 1 4 1 1 4 2 4 4 2 2
          4 3 1 4 2 5 3 3 5 4 4 1
          4 2 3 4 3 5 3 3 4 4 3 3
          3 4 1 3 5 3 4 3 2 4 4 2
          3 5 2 3 4 4 4 5 4 4 3 4
          4 4 3 4 4 5 4 5 3 5 2 2
          4 1 4 4 1 3 5 2 3 5 2 5
          5 3 2 5 1 1 5 1 3 5 3 3
          5 2 4 5 4 1 5 3 4 5 4 5
          5 5 1 4 4 4 5 3 5 5 4 4
          5 5 4 5 4 3
        </DataArray>
      </Points>
      <Lines>
        <DataArray type="Int32" Name="connectivity" NumberOfComponents="1" format="ascii">
          0 1 2 3 4 5 0 6 7 6 8 6
          9 6 10 6 7 11 2 12 8 12 13 14
          15 14 8 16 0 16 17 18 13 19 15 20
          17 21 22 23 24 23 25 26 24 27 17 27
          28 4 29 4 30 2 31 2 29 32 33 32
          13 32 33 10 34 10 35 10 9 0 34 0
          36 0 37 9 38 37 22 37 8 37 15 13
          39 8 40 8 41 22 39 22 42 25 43 40
          17 40 44 40 45 40 24 17 41 17 29 28
          46 28 31 47 36 47 48 47 49 47 50 31
          39 31 38 30 33 29 46 29 51 29 42 29
          52 36 50 35 53 39 34 39 54 38 55 33
          55 42 43 42 56 34 51 34 45 34 57 58
          59 58 50 54 55 60 45 60 52 60 43 45
          61 45 62 43 63 43 64 43 44 65 66 65
          67 65 59 65 57 41 61 64 68 64 69 44
          70 44 46 49 48 49 71 49 48 46 72 73
          74 73 71 73 50 72 74 72 75 72 76 48
          71 51 76 51 77 51 78 51 79 51 67 56
          79 50 57 53 80 53 81 52 71 62 79 59
          71 59 82 67 75 67 83 57 80 57 84 63
          85 68 79 68 66 68 69 85 83 69 86 69
          87 69 66 69 88 70 89 66 83 66
        </DataArray>
        <DataArray type="Int32" Name="offsets" NumberOfComponents="1" format="ascii">
          2 4 6 8 10 12 14 16 18 20 22 24
          26 28 30 32 34 36 38 40 42 44 46 48
          50 52 54 56 58 60 62 64 66 68 70 72
          74 76 78 80 82 84 86 88 90 92 94 96
          98 100 102 104 106 108 110 112 114 116 118 120
          122 124 126 128 130 132 134 136 138 140 142 144
          146 148 150 152 154 156 158 160 162 164 166 168
          170 172 174 176 178 180 182 184 186 188 190 192
          194 196 198 200 202 204 206 208 210 212 214 216
          218 220 222 224 226 228 230 232 234 236 238 240
          242 244 246 248 250 252 254 256 258 260 262 264
          266 268 270 272 274
        </DataArray>
      </Lines>
    </Piece>
  </PolyData>
</VTKFile>
