<?xml version="1.0"?>
<VTKFile type="PolyData" version="0.1" byte_order="LittleEndian">
  <PolyData>
    <Piece NumberOfLines="137" NumberOfPoints="90">
      <PointData Scalars="S_liq">
        <DataArray type="Float32" Name="S_liq" NumberOfComponents="1" format="ascii">
          0.071865 0.0289332 0.0364104 0.127737 0.0570563 0.0391063 0.0629753 0.66805 0.0454184 0.0495154 0.0467623 0.105373
          0.994468 1 1 1 1 1 1 1 1 1 1 1
          1 1 1 1 0.129419 0.0627876 1 0.0787634 0.752375 0.991068 1 1
          1 1 1 0.0677893 1 1 0.13333 1 1 1 0.0723365 1
          1 1 1 0.0825559 1 0.0558229 1 1 1 0.870905 1 1
          1 1 1 1 1 1 1 1 1 1 1 1
          1 1 1 1 1 1 1 1 0.123961 1 1 1
          1 1 1 1 1 1
        </DataArray>
        <DataArray type="Float32" Name="p_liq" NumberOfComponents="1" format="ascii">
          101554 101427 101512 102127 101833 101366 102038 102480 101525 101568 102103 102480
          101518 104507 104507 104507 101537 101992 101992 104507 104507 101992 101932 101953
          101984 101991 101991 101988 101930 102350 101562 101549 104507 103047 101688 101785
          101634 101619 101612 101787 101583 102409 101991 101426 100955 101608 101580 101585
          101596 101598 101684 101641 101815 100723 101647 102200 101670 103674 103086 101910
          102005 101480 101561 100356 101358 101552 101003 101613 101211 100790 100466 101652
          101650 101651 101650 101625 101610 101641 101641 101619 103069 101815 101613 100000
          100000 100934 100790 100790 100000 101003
        </DataArray>
        <DataArray type="Float32" Name="rho_liq" NumberOfComponents="1" format="ascii">
          1000 1000 1000 1000 1000 1000 1000 1000 1000 1000 1000 1000
          1000 1000 1000 1000 1000 1000 1000 1000 1000 1000 1000 1000
          1000 1000 1000 1000 1000 1000 1000 1000 1000 1000 1000 1000
          1000 1000 1000 1000 1000 1000 1000 1000 1000 1000 1000 1000
          1000 1000 1000 1000 1000 1000 1000 1000 1000 1000 1000 1000
          1000 1000 1000 1000 1000 1000 1000 1000 1000 1000 1000 1000
          1000 1000 1000 1000 1000 1000 1000 1000 1000 1000 1000 1000
          1000 1000 1000 1000 1000 1000
        </DataArray>
        <DataArray type="Float32" Name="mob_liq" NumberOfComponents="1" format="ascii">
          1000 1000 1000 1000 1000 1000 1000 1000 1000 1000 1000 1000
          1000 1000 1000 1000 1000 1000 1000 1000 1000 1000 1000 1000
          1000 1000 1000 1000 1000 1000 1000 1000 1000 1000 1000 1000
          1000 1000 1000 1000 1000 1000 1000 1000 1000 1000 1000 1000
          1000 1000 1000 1000 1000 1000 1000 1000 1000 1000 1000 1000
          1000 1000 1000 1000 1000 1000 1000 1000 1000 1000 1000 1000
          1000 1000 1000 1000 1000 1000 1000 1000 1000 1000 1000 1000
          1000 1000 1000 1000 1000 1000
        </DataArray>
        <DataArray type="Float32" Name="S_gas" NumberOfComponents="1" format="ascii">
          0.928135 0.971067 0.96359 0.872263 0.942944 0.960894 0.937025 0.33195 0.954582 0.950485 0.953238 0.894627
          0.00553153 0 0 0 0 0 0 0 0 0 0 0
          0 0 0 0 0.870581 0.937212 0 0.921237 0.247625 0.0089325 0 0
          0 0 0 0.932211 0 0 0.86667 0 0 0 0.927664 0
          0 0 0 0.917444 0 0.944177 0 0 0 0.129095 0 0
          0 0 0 0 0 0 0 0 0 0 0 0
          0 0 0 0 0 0 0 0 0.876039 0 0 0
          0 0 0 0 0 0
        </DataArray>
        <DataArray type="Float32" Name="p_gas" NumberOfComponents="1" format="ascii">
          105001 105000 105001 105000 104987 105000 105000 105000 104715 105003 105003 105000
          102522 104507 104507 104507 101537 101992 101992 104507 104507 101992 101932 101953
          101984 101991 101991 101988 104979 104977 101562 104627 104944 104977 101688 101785
          101634 101619 101612 104625 101583 102409 104978 101426 100955 101608 104978 101585
          101596 101598 101684 104978 101815 104527 101647 102200 101670 104236 103086 101910
          102005 101480 101561 100356 101358 101552 101003 101613 101211 100790 100466 101652
          101650 101651 101650 101625 101610 101641 101641 101619 104544 101815 101613 100000
          100000 100934 100790 100790 100000 101003
        </DataArray>
        <DataArray type="Float32" Name="rho_gas" NumberOfComponents="1" format="ascii">
          1.28399 1.26921 1.28925 1.26921 1.28012 1.26921 1.26921 1.26964 1.28209 1.28074 1.29155 1.26921
          1.25936 1.28556 1.28556 1.28556 1.23951 1.25291 1.25459 1.28556 1.28556 1.25462 1.24956 1.25314
          1.25416 1.25461 1.25462 1.25455 1.28429 1.28701 1.24798 1.28509 1.29086 1.29125 1.24923 1.25083
          1.24404 1.2442 1.24892 1.28323 1.24657 1.25742 1.29125 1.24647 1.23943 1.2474 1.28722 1.24572
          1.24603 1.2477 1.24968 1.28933 1.25159 1.28268 1.25032 1.25709 1.24627 1.28136 1.2678 1.25332
          1.25442 1.24573 1.24913 1.23315 1.24453 1.24893 1.24103 1.24842 1.24285 1.2392 1.23342 1.24974
          1.24996 1.25037 1.25041 1.25006 1.24643 1.25002 1.25029 1.2479 1.28501 1.25244 1.24995 1.23012
          1.23012 1.2408 1.23983 1.23983 1.23012 1.24245
        </DataArray>
        <DataArray type="Float32" Name="mob_gas" NumberOfComponents="1" format="ascii">
          56289.9 55774.9 56473.7 55774.9 56161.3 55774.9 55774.9 55789.8 56346.3 56176.2 56553.4 55774.9
          56495.1 56557.5 56557.5 56557.5 56215.6 56497.3 56557.7 56557.5 56557.5 56558.5 56403.2 56522.9
          56546 56558.6 56558.9 56558.2 56309.8 56406.2 56510.3 56489.2 56554.3 56554.2 56499.9 56514
          56336.4 56348.8 56522 56424.9 56449.8 56474.9 56553.5 56516.2 56471.2 56468.9 56412.8 56418.5
          56424.9 56484.1 56517.5 56486.7 56528 56447.4 56556.7 56555.6 56400.9 56526.9 56548.3 56548.6
          56545.9 56465.6 56552.1 56510.8 56476.2 56548.9 56507.9 56503.4 56481 56536.7 56470.8 56533.8
          56542.9 56557.1 56558.9 56557.1 56432.9 56548.9 56558.8 56482.3 56522.2 56558.7 56558.8 56560.1
          56560.1 56530.2 56559.6 56559.5 56560.1 56559.5
        </DataArray>
        <DataArray type="Float32" Name="pc" NumberOfComponents="1" format="ascii">
          3447.89 3573.31 3489.68 2872.88 3153.75 3633.69 2961.55 2520.4 3189.99 3434.82 2899.82 2520.25
          1003.63 -0 -0 -0 0 -0 -0 -0 -0 -0 -0 -0
          -0 -0 -0 -0 3048.87 2626.25 0 3077.88 437.387 1930.09 0 0
          0 0 -0 2838.43 0 -0 2986.62 -0 -0 -0 3397.89 0
          -0 -0 0 3336.99 -0 3804.72 -0 0 -0 562.135 0 -0
          -0 -0 -0 -0 -0 -0 -0 -0 -0 -0 -0 -0
          -0 -0 -0 -0 -0 0 0 0 1474.46 -0 -0 0
          -0 -0 -0 -0 -0 -0
        </DataArray>
        <DataArray type="Float32" Name="porosity" NumberOfComponents="1" format="ascii">
          1 1 1 1 1 1 1 1 1 1 1 1
          1 1 1 1 1 1 1 1 1 1 1 1
          1 1 1 1 1 1 1 1 1 1 1 1
          1 1 1 1 1 1 1 1 1 1 1 1
          1 1 1 1 1 1 1 1 1 1 1 1
          1 1 1 1 1 1 1 1 1 1 1 1
          1 1 1 1 1 1 1 1 1 1 1 1
          1 1 1 1 1 1
        </DataArray>
        <DataArray type="Float32" Name="poreInscribedRadius" NumberOfComponents="1" format="ascii">
          0.00010842 0.0002263 0.00018872 8.6711e-05 0.00014246 0.00017024 0.00014006 5.8137e-05 0.00017043 0.00014712 0.00018289 0.00011213
          8.001e-05 0.00026652 0.00010984 0.00018149 0.0001191 0.00010862 6.7563e-05 0.00013353 8.8091e-05 0.00011873 8.6177e-05 0.00014165
          9.7691e-05 0.00014071 8.5166e-05 0.00010965 8.1041e-05 0.00015832 6.1496e-05 0.00011323 0.00033347 6.7184e-05 0.00010274 0.00016438
          0.00011759 8.0701e-05 0.00015113 0.00013784 9.8161e-05 0.00013 8.1223e-05 0.00014997 0.00013153 0.00020701 0.00010946 8.5023e-05
          7.8721e-05 0.00017262 0.00012575 0.00010082 0.00015856 0.00012022 0.00019603 9.1747e-05 0.0001146 0.00025862 0.00012908 0.00025963
          0.00010958 6.7231e-05 0.00012907 0.00015315 9.4275e-05 0.00019972 7.1623e-05 0.00014025 0.00011092 0.00015744 5.0362e-05 0.00022549
          0.00010874 9.8868e-05 0.00010793 0.00015434 8.0185e-05 6.8354e-05 0.00014551 0.00014525 0.00017218 0.00012177 9.0671e-05 0.00015715
          0.00012027 0.00015784 0.00022979 0.00010367 5.3866e-05 0.00024136
        </DataArray>
        <DataArray type="Float32" Name="T" NumberOfComponents="1" format="ascii">
          284.838 288.15 283.675 288.15 285.658 288.15 288.15 288.053 284.482 285.563 283.174 288.15
          283.549 283.15 283.15 283.15 285.324 283.537 283.158 283.15 283.15 283.153 284.131 283.376
          283.231 283.152 283.15 283.154 284.712 284.102 283.457 283.579 283.168 283.169 283.523 283.433
          284.555 284.477 283.383 283.985 283.839 283.677 283.174 283.421 283.706 283.717 284.059 284.036
          283.996 283.622 283.412 283.593 283.345 283.842 283.165 283.171 284.147 283.343 283.213 283.215
          283.232 283.739 283.194 283.458 283.673 283.215 283.474 283.5 283.643 283.294 283.71 283.309
          283.252 283.163 283.152 283.163 283.945 283.214 283.152 283.633 283.371 283.152 283.152 283.15
          283.15 283.335 283.15 283.151 283.15 283.15
        </DataArray>
        <DataArray type="Float32" Name="coordinationNumber" NumberOfComponents="1" format="ascii">
          6 1 4 1 3 1 5 2 6 3 4 1
          2 4 2 3 2 6 1 1 1 1 4 2
          3 2 1 2 3 7 2 4 3 4 6 2
          3 4 3 5 5 3 4 6 4 5 4 4
          4 4 5 7 3 3 2 3 2 5 2 4
          3 2 2 2 3 4 5 4 4 6 2 5
          4 3 2 2 2 1 1 4 2 1 1 3
          1 2 1 1 1 1
        </DataArray>
        <DataArray type="Float32" Name="poreLabel" NumberOfComponents="1" format="ascii">
          -1 2 -1 2 -1 2 2 -1 -1 -1 -1 2
          -1 -1 -1 -1 -1 -1 -1 -1 -1 -1 -1 -1
          -1 -1 -1 -1 -1 -1 -1 -1 -1 -1 -1 -1
          -1 -1 -1 -1 -1 -1 -1 -1 -1 -1 -1 -1
          -1 -1 -1 -1 -1 -1 -1 -1 -1 -1 -1 -1
          -1 -1 -1 -1 -1 -1 -1 -1 -1 -1 -1 -1
          -1 -1 -1 -1 -1 -1 -1 -1 -1 -1 -1 3
          3 -1 -1 -1 3 -1
        </DataArray>
      </PointData>
      <CellData Scalars="process rank" Vectors="velocity_liq (m/s)">
        <DataArray type="Float32" Name="velocity_liq (m/s)" NumberOfComponents="3" format="ascii">
          -0.171398 -0.171398 0.171398 0.0489613 -0 -0.0489613 -0.0344561 0.0344561 0 0.0189525 -0 -0
          -0.024663 0.024663 0 0.0133454 0.0133454 0.0133454 0.0130912 -0 0.0130912 -0.00355827 0 0.00355827
          0.000169342 -0.000169342 -0.000169342 0.00600478 -0.00600478 -0.00600478 -0.006428 -0.006428 0.006428 -0 0 0
          -0 0 -0 0.0266307 -0 -0 -0.0153357 0.0153357 0.0153357 -0 -0 0
          -0 0 -0 -0 0 -0 -0 0 0 0.0344703 -0.0344703 -0
          -0.0281532 -0.0281532 0.0281532 -0 0 -0 0.00703397 -0 -0 -0.00498969 0.00498969 0
          -0.00682251 0 0 -0.0503344 -0.0503344 0 -0.118601 0 0 -0.124872 0 0.124872
          0.215084 -0 -0 2.43333 2.43333 -0 0 -0 -0 -0.863636 -0.863636 0.863636
          0.38211 0.38211 0.38211 0.353542 -0 0.353542 0 0 -0.0337329 -0.149006 -0.149006 0
          -0.134545 0 0.134545 0 0 -0.241136 0.031275 -0 -0 0 -0.495991 0
          -0 0.156905 -0.156905 0 0 -0 -0.0246052 0.0246052 0 0 -0.096752 0.096752
          -0.791655 -0.791655 0 0.391024 -0.391024 -0.391024 -0 0 0 0.375737 -0 -0
          0 0 -1.93205 0.865528 0.865528 0.865528 -0.0809449 0 0.0809449 -0 0.0421877 -0
          -1.39585 0 -1.39585 0 -0.0620176 0 0.0295174 -0 0.0295174 -0 -0 0.175986
          0 -0.113216 0 -0.0275334 -0.0275334 0.0275334 -0.0213557 0 0.0213557 -0.121081 -0.121081 -0.121081
          0 -0.0122666 -0.0122666 0 -0.083051 -0.083051 0 -0.0697152 0 0.0527927 -0.0527927 0.0527927
          0.0309434 -0 0.0309434 -0 0.0129807 0.0129807 -0.168124 -0.168124 0.168124 0.343644 -0 0.343644
          0.0725511 -0 0.0725511 -0 0.161763 -0.161763 0 -0.0846211 0 1.38939 1.38939 -0
          -0.569993 -0.569993 0.569993 -0 0.630351 0.630351 0.0613747 -0.0613747 -0 0.128064 -0.128064 -0.128064
          -0 0.265873 -0.265873 -1.97112 0 -1.97112 1.97065 -0 -1.97065 -0.0496752 0.0496752 0.0496752
          -0.916514 0 0 -0 -0 0.618631 0.212021 -0.212021 -0 -0 -0 0.282589
          -0 0.422923 0.422923 -0.124814 0.124814 0.124814 1.18748 -0 -1.18748 -0 0.0753204 -0.0753204
          -0 0.949287 -0 0.610138 0.610138 -0 -0.103348 0.103348 0 -0.973779 0.973779 0.973779
          -2.13543 2.13543 0 0 0 -0.578579 0.401287 -0.401287 0.401287 0.148993 -0.148993 0.148993
          1.61677 -0 -1.61677 -0 -0 0.0847059 -0 0.0124578 -0 -0.0734114 -0.0734114 -0.0734114
          0 -0.0258594 0.0258594 -0 -0 0.00314698 0.000442445 0.000442445 -0 -0.00219895 -0.00219895 0.00219895
          0 -0.0536206 0 -0.000373493 -0.000373493 0.000373493 0.0336222 0.0336222 0.0336222 -0.0401484 -0.0401484 -0.0401484
          -0.0550811 0 0 0.0505765 0.0505765 -0 -0 0 0 -0 0 -0
          0.059507 0.059507 0.059507 -0 0.0633447 0.0633447 0.0883966 0.0883966 -0.0883966 0 -0.093017 0
          -0.051917 0 0.051917 -0 -0 0 -0.153794 0.153794 0 0.698475 -0 -0
          0.23449 -0.23449 -0.23449 -0 0 0 -0.0336381 0.0336381 -0.0336381 12.1324 12.1324 -0
          0.807802 -0.807802 -0.807802 0.967893 0.967893 -0.967893 -0 -0 0.65968 -0.683893 0.683893 0
          -0 0.698692 0.698692 -0 -0 0.676914 1.24661 -0 -0 -0 0 0
          -0 0 0 0 -0.235355 0.235355 1.56704 -0 1.56704 -0 0 0
          0.901928 -0.901928 0.901928
        </DataArray>
        <DataArray type="Float32" Name="velocity_gas (m/s)" NumberOfComponents="3" format="ascii">
          -0 -0 0 -0.232648 0 0.232648 2.41301 -2.41301 -0 -0.118323 0 0
          0.0029752 -0.0029752 -0 13.8277 13.8277 13.8277 -0.152402 0 -0.152402 -0.265076 0 0.265076
          -0 0 0 -0 0 0 -0 -0 0 -0 0 0
          -0 0 -0 -0 0 0 -0 0 0 -0 -0 0
          -0 0 -0 -0 0 -0 -0 0 0 -0 0 0
          -0 -0 0 -0 0 -0 -0 0 0 -0 0 0
          0.923907 -0 -0 1.78866 1.78866 -0 -0 0 0 -0 0 0
          -4.03278 0 0 -0 -0 0 0 -0 -0 -0 -0 0
          -0 -0 -0 -0 0 -0 0 0 -0 -0 -0 0
          -0 0 0 0 0 -0 -0 0 0 0 -0 0
          0 -0 0 0 0 -0 16.5224 -16.5224 -0 0 -0 0
          -0 -0 0 -0 0 0 -0 0 0 -0 0 0
          0 0 -0 -0 -0 -0 -0 0 0 0 -0 0
          -0 0 -0 -0 0.642178 -0 0.180656 -0 0.180656 0 0 -0
          0 -0 0 -0 -0 0 -0 0 0 -0 -0 -0
          -0 0.181086 0.181086 0 -0 -0 0 -0.00270182 0 -0.227808 0.227808 -0.227808
          -0.0815633 0 -0.0815633 0 -0.0772237 -0.0772237 -0 -0 0 -0 0 -0
          17.6006 -0 17.6006 0 -0 0 0 -0 0 -0 -0 0
          -0 -0 0 0 -0 -0 -0 0 0 -0 0 0
          0 -0 0 -0 0 -0 -0 0 0 -0 0 0
          -0 0 0 0 0 -0 -0 0 0 0 0 -0
          0 -0 -0 -0 0 0 -0 0 0 0 -0 0
          0 -0 0 -0 -0 0 -0 0 0 -0 0 0
          -0 0 0 0 0 -0 -0 0 -0 -0 0 -0
          -0 0 0 0 0 -0 0 -0 0 -0 -0 -0
          0 -0 0 0 0 -0 -0 -0 0 -0 -0 0
          0 -0 0 -0 -0 0 -0 -0 -0 -0 -0 -0
          -0 0 0 -0 -0 0 -0 0 0 -0 0 -0
          -0 -0 -0 0 -0 -0 -0 -0 0 -0 25.3217 -0
          -0.997862 0 0.997862 -0 -0 0 -0 0 0 -0 0 0
          -0 0 0 -0 0 0 -0 0 -0 -0 -0 0
          -0 0 0 -0 -0 0 0 0 -0 -0 0 0
          0 -0 -0 0 0 -0 -0 0 0 -0 0 0
          -0 0 0 0 -0 0 -0 0 -0 -0 0 0
          -0 0 -0
        </DataArray>
        <DataArray type="Float32" Name="process rank" NumberOfComponents="1" format="ascii">
          0 0 0 0 0 0 0 0 0 0 0 0
          0 0 0 0 0 0 0 0 0 0 0 0
          0 0 0 0 0 0 0 0 0 0 0 0
          0 0 0 0 0 0 0 0 0 0 0 0
          0 0 0 0 0 0 0 0 0 0 0 0
          0 0 0 0 0 0 0 0 0 0 0 0
          0 0 0 0 0 0 0 0 0 0 0 0
          0 0 0 0 0 0 0 0 0 0 0 0
          0 0 0 0 0 0 0 0 0 0 0 0
          0 0 0 0 0 0 0 0 0 0 0 0
          0 0 0 0 0 0 0 0 0 0 0 0
          0 0 0 0 0
        </DataArray>
        <DataArray type="Float32" Name="throatLabel" NumberOfComponents="1" format="ascii">
          2 2 2 2 2 2 2 2 2 -1 -1 -1
          -1 -1 -1 -1 -1 -1 -1 -1 -1 -1 -1 -1
          -1 -1 -1 -1 -1 -1 -1 -1 -1 -1 -1 -1
          -1 -1 -1 -1 -1 -1 -1 -1 -1 -1 -1 -1
          -1 -1 -1 -1 -1 -1 -1 -1 -1 -1 -1 -1
          -1 -1 -1 -1 -1 -1 -1 -1 -1 -1 -1 -1
          -1 -1 -1 -1 -1 -1 -1 -1 -1 -1 -1 -1
          -1 -1 -1 -1 -1 -1 -1 -1 -1 -1 -1 -1
          -1 -1 -1 -1 -1 -1 -1 -1 -1 -1 -1 -1
          -1 -1 -1 -1 -1 -1 -1 -1 -1 -1 -1 -1
          -1 -1 -1 3 -1 3 -1 -1 -1 -1 3 -1
          -1 -1 3 -1 3
        </DataArray>
        <DataArray type="Float32" Name="throatInscribedRadius" NumberOfComponents="1" format="ascii">
          3.3304e-05 3.384e-05 3.3615e-05 3.3259e-05 3.3423e-05 3.3717e-05 3.3301e-05 3.3963e-05 3.3418e-05 3.4247e-05 3.3272e-05 3.37e-05
          3.3125e-05 3.3391e-05 3.3434e-05 3.3768e-05 3.3951e-05 3.3734e-05 3.3508e-05 3.3908e-05 3.3903e-05 3.3674e-05 3.3826e-05 3.3772e-05
          3.3303e-05 3.389e-05 3.3413e-05 3.3431e-05 3.3693e-05 3.353e-05 3.3589e-05 3.3834e-05 3.3987e-05 3.3567e-05 3.3743e-05 3.3553e-05
          3.371e-05 3.3781e-05 3.3426e-05 3.3726e-05 3.3836e-05 3.3664e-05 3.422e-05 3.3429e-05 3.3386e-05 3.305e-05 3.3941e-05 3.3926e-05
          3.3606e-05 3.3937e-05 3.3695e-05 3.3731e-05 3.3671e-05 3.3781e-05 3.3667e-05 3.4584e-05 3.3243e-05 3.3015e-05 3.3252e-05 3.3267e-05
          3.3488e-05 3.3576e-05 3.356e-05 3.3816e-05 3.3764e-05 3.3887e-05 3.4237e-05 3.4047e-05 3.3204e-05 3.2859e-05 3.3938e-05 3.3021e-05
          3.3656e-05 3.3645e-05 3.4391e-05 3.361e-05 3.3463e-05 3.3712e-05 3.3716e-05 3.3657e-05 3.3429e-05 3.3224e-05 3.374e-05 3.3184e-05
          3.3288e-05 3.4084e-05 3.3492e-05 3.3586e-05 3.3937e-05 3.3532e-05 3.3981e-05 3.3517e-05 3.3975e-05 3.3845e-05 3.3562e-05 3.3343e-05
          3.3284e-05 3.3542e-05 3.3486e-05 3.3496e-05 3.3966e-05 3.3533e-05 3.402e-05 3.3455e-05 3.3962e-05 3.3458e-05 3.3693e-05 3.3961e-05
          3.3494e-05 3.3486e-05 3.4314e-05 3.3954e-05 3.3488e-05 3.3852e-05 3.3512e-05 3.3871e-05 3.4113e-05 3.3098e-05 3.3981e-05 3.4127e-05
          3.3649e-05 3.4226e-05 3.3685e-05 3.322e-05 3.2903e-05 3.3521e-05 3.3874e-05 3.374e-05 3.3772e-05 3.344e-05 3.3682e-05 3.3086e-05
          3.3378e-05 3.3359e-05 3.3808e-05 3.3628e-05 3.3247e-05
        </DataArray>
        <DataArray type="Float32" Name="throatLength" NumberOfComponents="1" format="ascii">
          6.6609e-05 3.384e-05 3.3615e-05 9.9777e-05 6.6846e-05 0.00010115 9.9902e-05 6.7925e-05 0.00010025 0.00010274 9.9816e-05 3.37e-05
          9.9376e-05 6.6781e-05 0.0001003 6.7537e-05 6.7903e-05 0.0001012 3.3508e-05 6.7817e-05 0.00010171 6.7347e-05 0.00010148 0.00010132
          6.6606e-05 3.389e-05 6.6826e-05 3.3431e-05 6.7385e-05 6.706e-05 0.00010077 0.0001015 0.00010196 0.0001007 6.7487e-05 0.00010066
          6.7421e-05 3.3781e-05 3.3426e-05 0.00010118 6.7672e-05 0.00010099 3.422e-05 6.6858e-05 6.6772e-05 3.305e-05 6.7881e-05 6.7852e-05
          3.3606e-05 6.7873e-05 3.3695e-05 3.3731e-05 3.3671e-05 3.3781e-05 3.3667e-05 3.4584e-05 6.6486e-05 3.3015e-05 6.6503e-05 9.9802e-05
          6.6975e-05 6.7153e-05 6.7119e-05 3.3816e-05 6.7529e-05 0.00010166 0.00010271 3.4047e-05 3.3204e-05 6.5718e-05 6.7876e-05 6.6043e-05
          3.3656e-05 0.00010094 3.4391e-05 3.361e-05 3.3463e-05 3.3712e-05 6.7432e-05 6.7313e-05 3.3429e-05 9.9673e-05 0.00010122 9.9553e-05
          3.3288e-05 0.00010225 0.00010048 0.00010076 0.00010181 0.0001006 6.7962e-05 3.3517e-05 6.7951e-05 3.3845e-05 3.3562e-05 0.00010003
          3.3284e-05 3.3542e-05 3.3486e-05 6.6992e-05 6.7931e-05 3.3533e-05 0.00010206 6.691e-05 0.00010189 6.6916e-05 6.7385e-05 3.3961e-05
          3.3494e-05 6.6972e-05 3.4314e-05 0.00010186 3.3488e-05 0.00010156 6.7024e-05 0.00010161 0.00010234 3.3098e-05 6.7962e-05 6.8254e-05
          0.00010095 0.00010268 3.3685e-05 3.322e-05 6.5807e-05 3.3521e-05 6.7748e-05 6.748e-05 3.3772e-05 3.344e-05 0.00010104 9.9259e-05
          6.6757e-05 0.00010008 3.3808e-05 0.00010088 9.974e-05
        </DataArray>
        <DataArray type="Float32" Name="pcEntry" NumberOfComponents="1" format="ascii">
          4106.16 4041.12 4068.17 4111.71 4091.54 4055.86 4106.53 4026.48 4092.15 3993.09 4110.11 4057.91
          4128.35 4095.46 4090.19 4049.74 4027.91 4053.82 4081.16 4033.01 4033.61 4061.04 4042.79 4049.26
          4106.28 4035.16 4092.76 4090.56 4058.75 4078.48 4071.32 4041.84 4023.64 4073.98 4052.74 4075.68
          4056.7 4048.18 4091.17 4054.78 4041.6 4062.25 3996.24 4090.8 4096.07 4137.71 4029.09 4030.87
          4069.26 4029.57 4058.51 4054.18 4061.4 4048.18 4061.88 3954.18 4113.69 4142.1 4112.58 4110.72
          4083.6 4072.89 4074.83 4043.99 4050.21 4035.51 3994.26 4016.55 4118.52 4161.77 4029.45 4141.35
          4063.21 4064.54 3976.37 4068.77 4086.65 4056.46 4055.98 4063.09 4090.8 4116.04 4053.1 4121.01
          4108.13 4012.19 4083.11 4071.68 4029.57 4078.24 4024.35 4080.06 4025.06 4040.52 4074.59 4101.35
          4108.62 4077.02 4083.84 4082.62 4026.13 4078.12 4019.74 4087.62 4026.6 4087.26 4058.75 4026.72
          4082.86 4083.84 3985.3 4027.55 4083.6 4039.69 4080.67 4037.42 4008.78 4131.71 4024.35 4007.13
          4064.06 3995.54 4059.71 4116.54 4156.2 4079.58 4037.06 4053.1 4049.26 4089.46 4060.08 4133.21
          4097.05 4099.39 4044.94 4066.59 4113.2
        </DataArray>
        <DataArray type="Float32" Name="transmissibilityW" NumberOfComponents="1" format="ascii">
          1.03853e-14 4.16792e-17 3.56918e-17 1.48337e-17 4.0676e-17 1.99695e-17 1.50418e-17 4.00299e-17 6.99529e-15 7.52868e-15 6.90373e-15 2.15208e-14
          6.81256e-15 1.04673e-14 7.0052e-15 1.08255e-14 1.10024e-14 7.19547e-15 2.1155e-14 1.09607e-14 7.30394e-15 1.07357e-14 7.25421e-15 7.21938e-15
          3.17445e-17 6.23894e-17 1.04878e-14 2.10095e-14 6.52505e-17 1.05984e-14 7.10273e-15 7.25965e-15 7.3585e-15 7.08906e-15 1.08015e-14 7.08005e-15
          1.07698e-14 2.16763e-14 2.10001e-14 7.19006e-15 1.08912e-14 7.15077e-15 5.90273e-17 1.05029e-14 1.04624e-14 2.02994e-14 1.09931e-14 1.09783e-14
          2.13412e-14 1.09892e-14 2.15112e-14 2.15802e-14 2.14653e-14 7.16579e-17 4.66067e-17 2.32591e-14 1.03285e-14 2.02349e-14 1.03371e-14 6.90054e-15
          3.47993e-17 1.06419e-14 6.55091e-17 4.64014e-17 2.49795e-17 2.58596e-17 7.52208e-15 2.21924e-14 3.00616e-17 9.97473e-15 1.099e-14 1.01228e-14
          2.14366e-14 7.13817e-15 2.28719e-14 2.13488e-14 2.10699e-14 2.15438e-14 1.07757e-14 1.07194e-14 2.10058e-14 6.87382e-15 7.19916e-15 6.84902e-15
          2.07411e-14 7.42176e-15 7.0413e-15 7.10089e-15 7.32608e-15 7.06656e-15 1.10318e-14 2.11721e-14 1.10258e-14 2.17998e-14 2.12575e-14 6.94795e-15
          2.07336e-14 2.12195e-14 2.11134e-14 1.05662e-14 1.10174e-14 2.12024e-14 7.37989e-15 1.05274e-14 7.34192e-15 1.05302e-14 1.07538e-14 2.20247e-14
          2.11285e-14 1.05567e-14 2.27186e-14 7.33716e-15 2.11172e-14 7.27081e-15 1.05813e-14 9.82349e-18 9.75342e-18 2.03879e-14 1.10318e-14 1.11746e-14
          7.14086e-15 7.51462e-15 2.1492e-14 2.06142e-14 1.00147e-14 2.11797e-14 1.09279e-14 1.07987e-14 2.1659e-14 2.10265e-14 7.16253e-15 6.78852e-15
          1.04547e-14 6.95781e-15 2.17283e-14 7.12799e-15 6.88824e-15
        </DataArray>
        <DataArray type="Float32" Name="transmissibilityN" NumberOfComponents="1" format="ascii">
          0 1.92948e-14 1.90779e-14 6.05667e-15 8.77482e-15 6.18793e-15 6.0753e-15 9.2645e-15 0 0 0 0
          0 0 0 0 0 0 0 0 0 0 0 0
          8.87277e-15 1.88116e-14 0 0 8.54836e-15 0 0 0 0 0 0 0
          0 0 0 0 0 0 1.94998e-14 0 0 0 0 0
          0 0 0 0 0 1.83931e-14 1.88339e-14 0 0 0 0 0
          8.96192e-15 0 8.43047e-15 1.91092e-14 9.45646e-15 6.14929e-15 0 0 1.85359e-14 0 0 0
          0 0 0 0 0 0 0 0 0 0 0 0
          0 0 0 0 0 0 0 0 0 0 0 0
          0 0 0 0 0 0 0 0 0 0 0 0
          0 0 0 0 0 0 0 6.58832e-15 6.74084e-15 0 0 0
          0 0 0 0 0 0 0 0 0 0 0 0
          0 0 0 0 0
        </DataArray>
        <DataArray type="Float32" Name="volumeFluxW" NumberOfComponents="1" format="ascii">
          1.3171e-09 2.56547e-11 1.66516e-11 7.19332e-12 1.79429e-11 1.0249e-11 7.08033e-12 2.58871e-12 1.31022e-12 4.87936e-11 4.93008e-11 0
          0 1.18768e-10 1.18768e-10 0 0 0 0 2.24194e-10 2.24194e-10 0 3.2193e-11 3.2193e-11
          3.09498e-12 3.22919e-11 5.29636e-10 7.89479e-10 1.40703e-10 1.54755e-08 0 6.84949e-09 3.05798e-09 2.25341e-09 1.53632e-10 9.48948e-10
          8.64889e-10 1.10069e-09 1.39774e-10 2.25665e-09 1.01618e-09 0 1.54288e-11 6.1162e-10 4.9916e-09 2.95915e-09 0 1.72985e-09
          8.72795e-09 6.90635e-09 5.19871e-10 1.92001e-10 8.95214e-09 3.01027e-11 1.63134e-11 8.41956e-10 5.00458e-10 2.07923e-10 1.33575e-10 9.28373e-10
          8.26236e-12 5.29636e-10 4.56062e-11 3.57342e-11 1.77314e-11 9.28582e-12 1.36535e-09 2.25341e-09 3.19803e-11 9.88014e-10 3.89862e-10 8.56998e-09
          4.47317e-09 4.03644e-09 4.10633e-10 1.00227e-09 1.68414e-09 1.26724e-08 1.26724e-08 3.89862e-10 4.09681e-09 2.73146e-09 1.36535e-09 1.24472e-09
          2.65101e-09 1.00458e-09 7.53498e-09 4.80623e-10 4.37325e-09 3.88081e-09 6.75072e-10 7.57899e-09 1.39437e-08 2.65101e-09 3.13164e-09 1.14762e-09
          1.0132e-08 3.81199e-10 5.58762e-11 5.7065e-10 1.68765e-10 1.41547e-11 2.8967e-12 1.70514e-11 2.47388e-10 2.8967e-12 2.64439e-10 3.20812e-10
          2.4717e-10 3.20812e-10 0 0 4.62346e-10 4.10633e-10 6.87792e-10 2.89926e-11 2.28849e-11 0 1.00458e-09 3.25392e-09
          1.83946e-09 0 2.64439e-10 7.57391e-08 6.05894e-09 7.53498e-09 3.02779e-09 4.40406e-09 4.5079e-09 3.02779e-09 5.65699e-09 0
          0 1.48158e-09 1.0132e-08 0 6.90713e-09
        </DataArray>
        <DataArray type="Float32" Name="volumeFluxN" NumberOfComponents="1" format="ascii">
          0 1.38517e-09 1.4258e-08 4.7863e-10 1.66365e-11 9.8291e-08 8.73621e-10 1.5368e-09 0 0 0 0
          0 0 0 0 0 0 0 0 0 0 0 0
          3.67966e-09 1.04736e-08 0 0 1.56742e-08 0 0 0 0 0 0 0
          0 0 0 0 0 0 9.90876e-08 0 0 0 0 0
          0 0 0 0 0 2.61959e-09 1.0585e-09 0 0 0 0 0
          1.02681e-09 0 1.04045e-11 1.65062e-09 4.79252e-10 4.46397e-10 0 0 1.02012e-07 0 0 0
          0 0 0 0 0 0 0 0 0 0 0 0
          0 0 0 0 0 0 0 0 0 0 0 0
          0 0 0 0 0 0 0 0 0 0 0 0
          0 0 0 0 0 0 0 1.08308e-07 6.12893e-09 0 0 0
          0 0 0 0 0 0 0 0 0 0 0 0
          0 0 0 0 0
        </DataArray>
      </CellData>
      <Points>
        <DataArray type="Float32" Name="Coordinates" NumberOfComponents="3" format="ascii">
          2 2 3 1 1 4 2 1 4 1 1 5
          2 1 1 1 2 1 1 2 3 2 1 3
          2 3 4 2 2 4 2 2 2 1 2 4
          1 2 5 2 3 2 1 3 2 2 3 3
          1 3 4 2 4 4 1 3 5 1 4 1
          1 4 2 1 4 4 2 3 5 1 4 5
          2 5 4 2 4 2 1 5 1 1 5 4
          3 1 1 3 2 1 3 1 4 3 1 3
          2 2 1 3 3 1 3 3 3 3 2 3
          3 2 2 2 2 5 3 2 5 3 2 4
          2 4 3 3 4 5 3 3 2 3 4 3
          3 5 4 3 4 2 4 1 2 3 1 2
          4 2 1 4 1 1 4 2 4 4 2 2
          4 3 1 4 2 5 3 3 5 4 4 1
          4 2 3 4 3 5 3 3 4 4 3 3
          3 4 1 3 5 3 4 3 2 4 4 2
          3 5 2 3 4 4 4 5 4 4 3 4
          4 4 3 4 4 5 4 5 3 5 2 2
          4 1 4 4 1 3 5 2 3 5 2 5
          5 3 2 5 1 1 5 1 3 5 3 3
          5 2 4 5 4 1 5 3 4 5 4 5
          5 5 1 4 4 4 5 3 5 5 4 4
          5 5 4 5 4 3
        </DataArray>
      </Points>
      <Lines>
        <DataArray type="Int32" Name="connectivity" NumberOfComponents="1" format="ascii">
          0 1 2 3 4 5 0 6 7 6 8 6
          9 6 10 6 7 11 2 12 8 12 13 14
          15 14 8 16 0 16 17 18 13 19 15 20
          17 21 22 23 24 23 25 26 24 27 17 27
          28 4 29 4 30 2 31 2 29 32 33 32
          13 32 33 10 34 10 35 10 9 0 34 0
          36 0 37 9 38 37 22 37 8 37 15 13
          39 8 40 8 41 22 39 22 42 25 43 40
          17 40 44 40 45 40 24 17 41 17 29 28
          46 28 31 47 36 47 48 47 49 47 50 31
          39 31 38 30 33 29 46 29 51 29 42 29
          52 36 50 35 53 39 34 39 54 38 55 33
          55 42 43 42 56 34 51 34 45 34 57 58
          59 58 50 54 55 60 45 60 52 60 43 45
          61 45 62 43 63 43 64 43 44 65 66 65
          67 65 59 65 57 41 61 64 68 64 69 44
          70 44 46 49 48 49 71 49 48 46 72 73
          74 73 71 73 50 72 74 72 75 72 76 48
          71 51 76 51 77 51 78 51 79 51 67 56
          79 50 57 53 80 53 81 52 71 62 79 59
          71 59 82 67 75 67 83 57 80 57 84 63
          85 68 79 68 66 68 69 85 83 69 86 69
          87 69 66 69 88 70 89 66 83 66
        </DataArray>
        <DataArray type="Int32" Name="offsets" NumberOfComponents="1" format="ascii">
          2 4 6 8 10 12 14 16 18 20 22 24
          26 28 30 32 34 36 38 40 42 44 46 48
          50 52 54 56 58 60 62 64 66 68 70 72
          74 76 78 80 82 84 86 88 90 92 94 96
          98 100 102 104 106 108 110 112 114 116 118 120
          122 124 126 128 130 132 134 136 138 140 142 144
          146 148 150 152 154 156 158 160 162 164 166 168
          170 172 174 176 178 180 182 184 186 188 190 192
          194 196 198 200 202 204 206 208 210 212 214 216
          218 220 222 224 226 228 230 232 234 236 238 240
          242 244 246 248 250 252 254 256 258 260 262 264
          266 268 270 272 274
        </DataArray>
      </Lines>
    </Piece>
  </PolyData>
</VTKFile>
