<?xml version="1.0"?>
<VTKFile type="PolyData" version="0.1" byte_order="LittleEndian">
  <PolyData>
    <Piece NumberOfLines="14" NumberOfPoints="15">
      <PointData Scalars="p">
        <DataArray type="Float32" Name="p" NumberOfComponents="1" format="ascii">
          100000 100000 100000 100000 100000 100000 100000 100000 100000 100000 100000 100000
          100000 100000 100000
        </DataArray>
        <DataArray type="Float32" Name="rho" NumberOfComponents="1" format="ascii">
          968.661 970.926 973.14 975.291 977.376 979.392 981.337 983.209 985.006 986.724 988.361 989.913
          991.377 992.747 994.013
        </DataArray>
        <DataArray type="Float32" Name="mu" NumberOfComponents="1" format="ascii">
          0.000333342 0.000347983 0.000363869 0.000381061 0.000399697 0.000419953 0.000442006 0.000466075 0.000492413 0.000521315 0.000553128 0.000588258
          0.000627178 0.000670441 0.000718464
        </DataArray>
        <DataArray type="Float32" Name="delp" NumberOfComponents="1" format="ascii">
          -1.45519e-11 -5.82077e-11 -5.82077e-11 -4.36557e-11 -7.27596e-11 -4.36557e-11 -5.82077e-11 -5.82077e-11 -7.27596e-11 -7.27596e-11 -7.27596e-11 -5.82077e-11
          -5.82077e-11 -5.82077e-11 -5.82077e-11
        </DataArray>
        <DataArray type="Float32" Name="x^H2O_liq" NumberOfComponents="1" format="ascii">
          0.999471 0.999472 0.999473 0.999475 0.999476 0.999478 0.99948 0.999482 0.999484 0.999486 0.999488 0.99949
          0.999491 0.999492 0.999493
        </DataArray>
        <DataArray type="Float32" Name="x^N2_liq" NumberOfComponents="1" format="ascii">
          0.000529189 0.000528279 0.000526983 0.000525435 0.000523711 0.000521865 0.000519939 0.000517972 0.000515999 0.000514058 0.000512187 0.000510432
          0.000508849 0.00050752 0.000506589
        </DataArray>
        <DataArray type="Float32" Name="X^H2O_liq" NumberOfComponents="1" format="ascii">
          0.999177 0.999179 0.999181 0.999183 0.999186 0.999189 0.999192 0.999195 0.999198 0.999201 0.999204 0.999206
          0.999209 0.999211 0.999213
        </DataArray>
        <DataArray type="Float32" Name="X^N2_liq" NumberOfComponents="1" format="ascii">
          0.000822641 0.000821227 0.000819213 0.000816807 0.000814128 0.000811259 0.000808266 0.000805209 0.000802144 0.000799126 0.000796219 0.000793491
          0.000791031 0.000788966 0.000787519
        </DataArray>
        <DataArray type="Float32" Name="T" NumberOfComponents="1" format="ascii">
          358.088 354.547 350.985 347.42 343.854 340.286 336.718 333.15 329.582 326.014 322.447 318.88
          315.315 311.753 308.212
        </DataArray>
      </PointData>
      <CellData Scalars="process rank">
        <DataArray type="Float32" Name="process rank" NumberOfComponents="1" format="ascii">
          0 0 0 0 0 0 0 0 0 0 0 0
          0 0
        </DataArray>
      </CellData>
      <Points>
        <DataArray type="Float32" Name="Coordinates" NumberOfComponents="3" format="ascii">
          0.5 0.25 0 0.5 0.285714 0 0.5 0.321429 0 0.5 0.357143 0
          0.5 0.392857 0 0.5 0.428571 0 0.5 0.464286 0 0.5 0.5 0
          0.5 0.535714 0 0.5 0.571429 0 0.5 0.607143 0 0.5 0.642857 0
          0.5 0.678571 0 0.5 0.714286 0 0.5 0.75 0
        </DataArray>
      </Points>
      <Lines>
        <DataArray type="Int32" Name="connectivity" NumberOfComponents="1" format="ascii">
          0 1 1 2 2 3 3 4 4 5 5 6
          6 7 7 8 8 9 9 10 10 11 11 12
          12 13 13 14
        </DataArray>
        <DataArray type="Int32" Name="offsets" NumberOfComponents="1" format="ascii">
          2 4 6 8 10 12 14 16 18 20 22 24
          26 28
        </DataArray>
      </Lines>
    </Piece>
  </PolyData>
</VTKFile>
