<?xml version="1.0"?>
<VTKFile type="UnstructuredGrid" version="0.1" byte_order="LittleEndian">
  <UnstructuredGrid>
    <Piece NumberOfCells="80" NumberOfPoints="162">
      <CellData Scalars="p">
        <DataArray type="Float32" Name="p" NumberOfComponents="1" format="ascii">
          138944 138716 138483 138246 138005 137758 137507 137249 136984 136711 136430 136138
          135834 135516 135183 134834 134466 134080 133674 133248 132803 132340 131860 131365
          130857 130339 129811 129276 128734 128188 127638 127086 126532 125976 125420 124863
          124305 123747 123189 122630 122071 121513 120954 120395 119837 119278 118719 118160
          117602 117043 116484 115925 115367 114808 114249 113690 113131 112573 112014 111455
          110896 110338 109779 109220 108661 108102 107544 106985 106426 105867 105308 104750
          104191 103632 103073 102515 101956 101397 100838 100279
        </DataArray>
        <DataArray type="Float32" Name="rho" NumberOfComponents="1" format="ascii">
          985.777 986.296 986.826 987.364 987.93 988.521 989.137 989.806 990.496 991.249 992.02 992.834
          993.649 994.453 995.236 995.956 996.605 997.189 997.67 998.084 998.41 998.688 998.881 999.042
          999.173 999.268 999.329 999.376 999.412 999.44 999.46 999.474 999.485 999.492 999.498 999.501
          999.504 999.505 999.506 999.507 999.507 999.507 999.507 999.507 999.507 999.507 999.506 999.506
          999.506 999.506 999.505 999.505 999.505 999.505 999.504 999.504 999.504 999.503 999.503 999.503
          999.503 999.502 999.502 999.502 999.502 999.501 999.501 999.501 999.501 999.5 999.5 999.5
          999.5 999.499 999.499 999.499 999.498 999.498 999.498 999.498
        </DataArray>
        <DataArray type="Float32" Name="mu" NumberOfComponents="1" format="ascii">
          0.000505019 0.00051369 0.00052297 0.000533322 0.000544243 0.000556356 0.000570156 0.000585129 0.000603156 0.000622929 0.000646704 0.000673105
          0.000703536 0.000737738 0.000774673 0.000815126 0.000858012 0.000900905 0.000945423 0.000987652 0.00102856 0.00106442 0.00109918 0.00112812
          0.00115177 0.00117187 0.00118931 0.00120286 0.00121322 0.00122102 0.00122682 0.00123107 0.00123415 0.00123635 0.00123791 0.001239
          0.00123975 0.00124027 0.00124062 0.00124085 0.00124101 0.00124111 0.00124118 0.00124123 0.00124126 0.00124127 0.00124129 0.00124129
          0.0012413 0.0012413 0.0012413 0.00124131 0.00124131 0.00124131 0.00124131 0.00124131 0.00124131 0.00124131 0.00124131 0.00124131
          0.00124131 0.00124131 0.00124131 0.00124131 0.00124131 0.00124132 0.00124132 0.00124132 0.00124132 0.00124132 0.00124132 0.00124132
          0.00124132 0.00124132 0.00124132 0.00124132 0.00124132 0.00124132 0.00124132 0.00124132
        </DataArray>
        <DataArray type="Float32" Name="delp" NumberOfComponents="1" format="ascii">
          38944.4 38715.6 38483 38246.2 38004.7 37758.4 37506.7 37248.7 36984.1 36711.5 36430 36137.8
          35833.9 35516.3 35183.4 34833.9 34466.4 34079.6 33673.6 33247.7 32802.8 32339.5 31860.2 31365.2
          30857.3 30338.8 29811.2 29275.8 28734.3 28188.1 27638.4 27086.2 26532 25976.4 25419.9 24862.6
          24304.9 23746.8 23188.5 22630 22071.5 21512.8 20954.1 20395.4 19836.7 19277.9 18719.2 18160.4
          17601.6 17042.8 16484.1 15925.3 15366.5 14807.7 14249 13690.2 13131.4 12572.6 12013.8 11455.1
          10896.3 10337.5 9778.72 9219.94 8661.16 8102.38 7543.6 6984.81 6426.03 5867.25 5308.46 4749.68
          4190.89 3632.11 3073.32 2514.54 1955.75 1396.97 838.181 279.394
        </DataArray>
        <DataArray type="Float32" Name="x^H2O_liq" NumberOfComponents="1" format="ascii">
          0.999715 0.999721 0.999727 0.999733 0.999739 0.999746 0.999752 0.999759 0.999766 0.999773 0.99978 0.999788
          0.999796 0.999804 0.999812 0.99982 0.999829 0.999838 0.999848 0.999857 0.999866 0.999876 0.999885 0.999894
          0.999904 0.999913 0.999921 0.999929 0.999937 0.999944 0.999951 0.999957 0.999963 0.999968 0.999972 0.999976
          0.99998 0.999983 0.999986 0.999988 0.99999 0.999992 0.999993 0.999995 0.999996 0.999996 0.999997 0.999998
          0.999998 0.999999 0.999999 0.999999 0.999999 0.999999 1 1 1 1 1 1
          1 1 1 1 1 1 1 1 1 1 1 1
          1 1 1 1 1 1 1 1
        </DataArray>
        <DataArray type="Float32" Name="x^N2_liq" NumberOfComponents="1" format="ascii">
          0.000284718 0.00027882 0.00027284 0.000266752 0.000260538 0.000254181 0.000247665 0.000240976 0.000234098 0.000227016 0.000219715 0.000212179
          0.000204397 0.000196359 0.000188063 0.00017951 0.000170714 0.000161697 0.000152491 0.00014314 0.000133697 0.000124226 0.000114794 0.000105476
          9.6346e-05 8.74763e-05 7.89353e-05 7.07842e-05 6.3075e-05 5.58494e-05 4.91377e-05 4.29585e-05 3.73194e-05 3.22175e-05 2.76404e-05 2.35682e-05
          1.99744e-05 1.68278e-05 1.40937e-05 1.1736e-05 9.71752e-06 8.00167e-06 6.5531e-06 5.33831e-06 4.32616e-06 3.48814e-06 2.79853e-06 2.2344e-06
          1.77557e-06 1.40445e-06 1.10591e-06 8.67011e-07 6.7681e-07 5.2613e-07 4.07332e-07 3.14106e-07 2.4128e-07 1.8464e-07 1.40776e-07 1.06947e-07
          8.09633e-08 6.10834e-08 4.59315e-08 3.4426e-08 2.57208e-08 1.91576e-08 1.42261e-08 1.0533e-08 7.77628e-09 5.72498e-09 4.20328e-09 3.07782e-09
          2.24784e-09 1.63751e-09 1.18993e-09 8.62597e-10 6.23827e-10 4.50106e-10 3.24029e-10 2.32749e-10
        </DataArray>
        <DataArray type="Float32" Name="X^H2O_liq" NumberOfComponents="1" format="ascii">
          0.999557 0.999566 0.999576 0.999585 0.999595 0.999605 0.999615 0.999625 0.999636 0.999647 0.999658 0.99967
          0.999682 0.999695 0.999708 0.999721 0.999735 0.999749 0.999763 0.999777 0.999792 0.999807 0.999821 0.999836
          0.99985 0.999864 0.999877 0.99989 0.999902 0.999913 0.999924 0.999933 0.999942 0.99995 0.999957 0.999963
          0.999969 0.999974 0.999978 0.999982 0.999985 0.999988 0.99999 0.999992 0.999993 0.999995 0.999996 0.999997
          0.999997 0.999998 0.999998 0.999999 0.999999 0.999999 0.999999 1 1 1 1 1
          1 1 1 1 1 1 1 1 1 1 1 1
          1 1 1 1 1 1 1 1
        </DataArray>
        <DataArray type="Float32" Name="X^N2_liq" NumberOfComponents="1" format="ascii">
          0.000442664 0.000433495 0.000424198 0.000414735 0.000405075 0.000395193 0.000385064 0.000374665 0.000363973 0.000352963 0.000341612 0.000329897
          0.000317799 0.000305303 0.000292405 0.000279109 0.000265434 0.000251414 0.000237102 0.000222563 0.000207882 0.000193156 0.000178493 0.000164005
          0.000149809 0.000136018 0.000122738 0.000110064 9.80775e-05 8.68425e-05 7.64065e-05 6.67984e-05 5.80301e-05 5.00969e-05 4.29799e-05 3.66479e-05
          3.10597e-05 2.61667e-05 2.19154e-05 1.82492e-05 1.51105e-05 1.24425e-05 1.019e-05 8.30098e-06 6.72711e-06 5.42401e-06 4.35168e-06 3.47447e-06
          2.76098e-06 2.18391e-06 1.71968e-06 1.34819e-06 1.05243e-06 8.18125e-07 6.33396e-07 4.88432e-07 3.75188e-07 2.87112e-07 2.18904e-07 1.66301e-07
          1.25897e-07 9.49839e-08 7.14229e-08 5.3532e-08 3.99956e-08 2.97898e-08 2.21214e-08 1.63787e-08 1.2092e-08 8.90229e-09 6.53606e-09 4.78598e-09
          3.49537e-09 2.54631e-09 1.85033e-09 1.34133e-09 9.70044e-10 6.9991e-10 5.03862e-10 3.61922e-10
        </DataArray>
        <DataArray type="Float32" Name="T" NumberOfComponents="1" format="ascii">
          328.02 326.944 325.828 324.661 323.429 322.117 320.707 319.176 317.505 315.679 313.693 311.555
          309.289 306.932 304.533 302.148 299.832 297.635 295.601 293.76 292.131 290.72 289.522 288.524
          287.709 287.055 286.539 286.139 285.832 285.601 285.43 285.304 285.213 285.148 285.102 285.07
          285.047 285.032 285.022 285.015 285.01 285.007 285.005 285.004 285.003 285.003 285.002 285.002
          285.002 285.002 285.002 285.002 285.002 285.002 285.002 285.002 285.002 285.002 285.002 285.002
          285.002 285.002 285.002 285.002 285.002 285.002 285.002 285.002 285.002 285.002 285.002 285.002
          285.002 285.002 285.002 285.002 285.002 285.002 285.002 285.002
        </DataArray>
        <DataArray type="Float32" Name="process rank" NumberOfComponents="1" format="ascii">
          0 0 0 0 0 0 0 0 0 0 0 0
          0 0 0 0 0 0 0 0 0 0 0 0
          0 0 0 0 0 0 0 0 0 0 0 0
          0 0 0 0 0 0 0 0 0 0 0 0
          0 0 0 0 0 0 0 0 0 0 0 0
          0 0 0 0 0 0 0 0 0 0 0 0
          0 0 0 0 0 0 0 0
        </DataArray>
      </CellData>
      <Points>
        <DataArray type="Float32" Name="Coordinates" NumberOfComponents="3" format="ascii">
          0 0 0 0.25 0 0 0 1 0 0.25 1 0
          0.5 0 0 0.5 1 0 0.75 0 0 0.75 1 0
          1 0 0 1 1 0 1.25 0 0 1.25 1 0
          1.5 0 0 1.5 1 0 1.75 0 0 1.75 1 0
          2 0 0 2 1 0 2.25 0 0 2.25 1 0
          2.5 0 0 2.5 1 0 2.75 0 0 2.75 1 0
          3 0 0 3 1 0 3.25 0 0 3.25 1 0
          3.5 0 0 3.5 1 0 3.75 0 0 3.75 1 0
          4 0 0 4 1 0 4.25 0 0 4.25 1 0
          4.5 0 0 4.5 1 0 4.75 0 0 4.75 1 0
          5 0 0 5 1 0 5.25 0 0 5.25 1 0
          5.5 0 0 5.5 1 0 5.75 0 0 5.75 1 0
          6 0 0 6 1 0 6.25 0 0 6.25 1 0
          6.5 0 0 6.5 1 0 6.75 0 0 6.75 1 0
          7 0 0 7 1 0 7.25 0 0 7.25 1 0
          7.5 0 0 7.5 1 0 7.75 0 0 7.75 1 0
          8 0 0 8 1 0 8.25 0 0 8.25 1 0
          8.5 0 0 8.5 1 0 8.75 0 0 8.75 1 0
          9 0 0 9 1 0 9.25 0 0 9.25 1 0
          9.5 0 0 9.5 1 0 9.75 0 0 9.75 1 0
          10 0 0 10 1 0 10.25 0 0 10.25 1 0
          10.5 0 0 10.5 1 0 10.75 0 0 10.75 1 0
          11 0 0 11 1 0 11.25 0 0 11.25 1 0
          11.5 0 0 11.5 1 0 11.75 0 0 11.75 1 0
          12 0 0 12 1 0 12.25 0 0 12.25 1 0
          12.5 0 0 12.5 1 0 12.75 0 0 12.75 1 0
          13 0 0 13 1 0 13.25 0 0 13.25 1 0
          13.5 0 0 13.5 1 0 13.75 0 0 13.75 1 0
          14 0 0 14 1 0 14.25 0 0 14.25 1 0
          14.5 0 0 14.5 1 0 14.75 0 0 14.75 1 0
          15 0 0 15 1 0 15.25 0 0 15.25 1 0
          15.5 0 0 15.5 1 0 15.75 0 0 15.75 1 0
          16 0 0 16 1 0 16.25 0 0 16.25 1 0
          16.5 0 0 16.5 1 0 16.75 0 0 16.75 1 0
          17 0 0 17 1 0 17.25 0 0 17.25 1 0
          17.5 0 0 17.5 1 0 17.75 0 0 17.75 1 0
          18 0 0 18 1 0 18.25 0 0 18.25 1 0
          18.5 0 0 18.5 1 0 18.75 0 0 18.75 1 0
          19 0 0 19 1 0 19.25 0 0 19.25 1 0
          19.5 0 0 19.5 1 0 19.75 0 0 19.75 1 0
          20 0 0 20 1 0
        </DataArray>
      </Points>
      <Cells>
        <DataArray type="Int32" Name="connectivity" NumberOfComponents="1" format="ascii">
          0 1 3 2 1 4 5 3 4 6 7 5
          6 8 9 7 8 10 11 9 10 12 13 11
          12 14 15 13 14 16 17 15 16 18 19 17
          18 20 21 19 20 22 23 21 22 24 25 23
          24 26 27 25 26 28 29 27 28 30 31 29
          30 32 33 31 32 34 35 33 34 36 37 35
          36 38 39 37 38 40 41 39 40 42 43 41
          42 44 45 43 44 46 47 45 46 48 49 47
          48 50 51 49 50 52 53 51 52 54 55 53
          54 56 57 55 56 58 59 57 58 60 61 59
          60 62 63 61 62 64 65 63 64 66 67 65
          66 68 69 67 68 70 71 69 70 72 73 71
          72 74 75 73 74 76 77 75 76 78 79 77
          78 80 81 79 80 82 83 81 82 84 85 83
          84 86 87 85 86 88 89 87 88 90 91 89
          90 92 93 91 92 94 95 93 94 96 97 95
          96 98 99 97 98 100 101 99 100 102 103 101
          102 104 105 103 104 106 107 105 106 108 109 107
          108 110 111 109 110 112 113 111 112 114 115 113
          114 116 117 115 116 118 119 117 118 120 121 119
          120 122 123 121 122 124 125 123 124 126 127 125
          126 128 129 127 128 130 131 129 130 132 133 131
          132 134 135 133 134 136 137 135 136 138 139 137
          138 140 141 139 140 142 143 141 142 144 145 143
          144 146 147 145 146 148 149 147 148 150 151 149
          150 152 153 151 152 154 155 153 154 156 157 155
          156 158 159 157 158 160 161 159
        </DataArray>
        <DataArray type="Int32" Name="offsets" NumberOfComponents="1" format="ascii">
          4 8 12 16 20 24 28 32 36 40 44 48
          52 56 60 64 68 72 76 80 84 88 92 96
          100 104 108 112 116 120 124 128 132 136 140 144
          148 152 156 160 164 168 172 176 180 184 188 192
          196 200 204 208 212 216 220 224 228 232 236 240
          244 248 252 256 260 264 268 272 276 280 284 288
          292 296 300 304 308 312 316 320
        </DataArray>
        <DataArray type="UInt8" Name="types" NumberOfComponents="1" format="ascii">
          9 9 9 9 9 9 9 9 9 9 9 9
          9 9 9 9 9 9 9 9 9 9 9 9
          9 9 9 9 9 9 9 9 9 9 9 9
          9 9 9 9 9 9 9 9 9 9 9 9
          9 9 9 9 9 9 9 9 9 9 9 9
          9 9 9 9 9 9 9 9 9 9 9 9
          9 9 9 9 9 9 9 9
        </DataArray>
      </Cells>
    </Piece>
  </UnstructuredGrid>
</VTKFile>
