<?xml version="1.0"?>
<VTKFile type="UnstructuredGrid" version="0.1" byte_order="LittleEndian">
  <UnstructuredGrid>
    <Piece NumberOfCells="728" NumberOfPoints="783">
      <CellData Scalars="p">
        <DataArray type="Float32" Name="p" NumberOfComponents="1" format="ascii">
          100000 100000 100000 100000 100000 100000 100000 100000 100000 100000 100000 100000
          100000 100000 100000 100000 100000 100000 100000 100000 100000 100000 100000 100000
          100000 100000 100000 100000 100000 100000 100000 100000 100000 100000 100000 100000
          100000 100000 100000 100000 100000 100000 100000 100000 100000 100000 100000 100000
          100000 100000 100000 100000 100000 100000 100000 100000 100000 100000 100000 100000
          100000 100000 100000 100000 100000 100000 100000 100000 100000 100000 100000 100000
          100000 100000 100000 100000 100000 100000 100000 100000 100000 100000 100000 100000
          100000 100000 100000 100000 100000 100000 100000 100000 100000 100000 100000 100000
          100000 100000 100000 100000 100000 100000 100000 100000 100000 100000 100000 100000
          100000 100000 100000 100000 100000 100000 100000 100000 100000 100000 100000 100000
          100000 100000 100000 100000 100000 100000 100000 100000 100000 100000 100000 100000
          100000 100000 100000 100000 100000 100000 100000 100000 100000 100000 100000 100000
          100000 100000 100000 100000 100000 100000 100000 100000 100000 100000 100000 100000
          100000 100000 100000 100000 100000 100000 100000 100000 100000 100000 100000 100000
          100000 100000 100000 100000 100000 100000 100000 100000 100000 100000 100000 100000
          100000 100000 100000 100000 100000 100000 100000 100000 100000 100000 100000 100000
          100000 100000 100000 100000 100000 100000 100000 100000 100000 100000 100000 100000
          100000 100000 100000 100000 100000 100000 100000 100000 100000 100000 100000 100000
          100000 100000 100000 100000 100000 100000 100000 100000 100000 100000 100000 100000
          100000 100000 100000 100000 100000 100000 100000 100000 100000 100000 100000 100000
          100000 100000 100000 100000 100000 100000 100000 100000 100000 100000 100000 100000
          100000 100000 100000 100000 100000 100000 100000 100000 100000 100000 100000 100000
          100000 100000 100000 100000 100000 100000 100000 100000 100000 100000 100000 100000
          100000 100000 100000 100000 100000 100000 100000 100000 100000 100000 100000 100000
          100000 100000 100000 100000 100000 100000 100000 100000 100000 100000 100000 100000
          100000 100000 100000 100000 100000 100000 100000 100000 100000 100000 100000 100000
          100000 100000 100000 100000 100000 100000 100000 100000 100000 100000 100000 100000
          100000 100000 100000 100000 100000 100000 100000 100000 100000 100000 100000 100000
          100000 100000 100000 100000 100000 100000 100000 100000 100000 100000 100000 100000
          100000 100000 100000 100000 100000 100000 100000 100000 100000 100000 100000 100000
          100000 100000 100000 100000 100000 100000 100000 100000 100000 100000 100000 100000
          100000 100000 100000 100000 100000 100000 100000 100000 100000 100000 100000 100000
          100000 100000 100000 100000 100000 100000 100000 100000 100000 100000 100000 100000
          100000 100000 100000 100000 100000 100000 100000 100000 100000 100000 100000 100000
          100000 100000 100000 100000 100000 100000 100000 100000 100000 100000 100000 100000
          100000 100000 100000 100000 100000 100000 100000 100000 100000 100000 100000 100000
          100000 100000 100000 100000 100000 100000 100000 100000 100000 100000 100000 100000
          100000 100000 100000 100000 100000 100000 100000 100000 100000 100000 100000 100000
          100000 100000 100000 100000 100000 100000 100000 100000 100000 100000 100000 100000
          100000 100000 100000 100000 100000 100000 100000 100000 100000 100000 100000 100000
          100000 100000 100000 100000 100000 100000 100000 100000 100000 100000 100000 100000
          100000 100000 100000 100000 100000 100000 100000 100000 100000 100000 100000 100000
          100000 100000 100000 100000 100000 100000 100000 100000 100000 100000 100000 100000
          100000 100000 100000 100000 100000 100000 100000 100000 100000 100000 100000 100000
          100000 100000 100000 100000 100000 100000 100000 100000 100000 100000 100000 100000
          100000 100000 100000 100000 100000 100000 100000 100000 100000 100000 100000 100000
          100000 100000 100000 100000 100000 100000 100000 100000 100000 100000 100000 100000
          100000 100000 100000 100000 100000 100000 100000 100000 100000 100000 100000 100000
          100000 100000 100000 100000 100000 100000 100000 100000 100000 100000 100000 100000
          100000 100000 100000 100000 100000 100000 100000 100000 100000 100000 100000 100000
          100000 100000 100000 100000 100000 100000 100000 100000 100000 100000 100000 100000
          100000 100000 100000 100000 100000 100000 100000 100000 100000 100000 100000 100000
          100000 100000 100000 100000 100000 100000 100000 100000 100000 100000 100000 100000
          100000 100000 100000 100000 100000 100000 100000 100000 100000 100000 100000 100000
          100000 100000 100000 100000 100000 100000 100000 100000 100000 100000 100000 100000
          100000 100000 100000 100000 100000 100000 100000 100000 100000 100000 100000 100000
          100000 100000 100000 100000 100000 100000 100000 100000 100000 100000 100000 100000
          100000 100000 100000 100000 100000 100000 100000 100000 100000 100000 100000 100000
          100000 100000 100000 100000 100000 100000 100000 100000 100000 100000 100000 100000
          100000 100000 100000 100000 100000 100000 100000 100000 100000 100000 100000 100000
          100000 100000 100000 100000 100000 100000 100000 100000
        </DataArray>
        <DataArray type="Float32" Name="rho" NumberOfComponents="1" format="ascii">
          952.506 952.506 955.617 955.617 952.506 952.506 955.617 955.617 958.65 958.651 958.651 958.651
          952.506 955.617 952.506 952.507 955.617 955.618 958.651 958.651 958.652 961.605 961.605 964.471
          964.471 961.605 961.606 964.471 964.471 967.255 967.255 967.255 967.255 961.606 964.471 961.606
          961.607 964.472 964.472 967.256 967.256 967.257 952.507 952.507 955.618 955.618 952.507 952.507
          955.619 955.619 958.652 958.653 958.653 958.654 952.507 955.62 952.507 952.507 955.62 955.62
          958.655 958.656 958.656 961.607 961.608 964.473 964.474 961.609 961.61 964.476 964.477 967.258
          967.259 967.26 967.262 961.611 964.479 961.612 961.613 964.481 964.482 967.265 967.268 967.272
          969.766 969.766 972.018 972.019 969.766 969.767 972.019 972.019 974.206 974.206 974.206 974.206
          969.767 972.019 969.768 969.768 972.02 972.02 974.207 974.207 974.208 976.327 976.327 978.38
          978.38 976.327 976.327 978.38 978.38 980.363 980.363 982.273 982.273 980.363 980.363 982.273
          982.273 976.328 978.38 976.328 976.328 978.381 978.381 980.363 982.273 980.363 980.363 982.274
          982.274 969.769 969.77 972.021 972.022 969.772 969.774 972.024 972.026 974.208 974.209 974.21
          974.212 969.777 972.028 969.782 969.793 972.031 972.035 974.214 974.216 974.217 976.329 976.33
          978.381 978.382 976.33 976.331 978.382 978.383 980.364 980.364 982.274 982.274 980.364 980.364
          982.274 982.274 976.333 978.384 976.334 976.334 978.384 978.385 980.365 982.274 980.365 980.365
          982.274 982.274 952.507 952.507 955.62 955.62 952.507 955.62 958.656 958.656 958.655 952.507
          952.507 955.619 955.619 952.507 952.507 955.618 955.618 958.654 958.653 958.653 958.652 961.613
          961.612 964.482 964.481 961.611 964.479 967.272 967.268 967.265 961.61 961.609 964.477 964.476
          961.608 961.607 964.474 964.473 967.262 967.26 967.259 967.258 952.507 952.506 955.618 955.617
          952.506 955.617 958.652 958.651 958.651 952.506 952.506 955.617 955.617 952.506 952.506 955.617
          955.617 958.651 958.651 958.651 958.65 961.607 961.606 964.472 964.472 961.606 964.471 967.257
          967.256 967.256 961.606 961.605 964.471 964.471 961.605 961.605 964.471 964.471 967.255 967.255
          967.255 967.255 969.793 969.782 972.035 972.031 969.777 972.028 974.217 974.216 974.214 969.774
          969.772 972.026 972.024 969.77 969.769 972.022 972.021 974.212 974.21 974.209 974.208 976.334
          976.334 978.385 978.384 976.333 978.384 980.365 980.365 982.274 982.274 980.365 982.274 976.331
          976.33 978.383 978.382 976.33 976.329 978.382 978.381 980.364 980.364 982.274 982.274 980.364
          980.364 982.274 982.274 969.768 969.768 972.02 972.02 969.767 969.767 972.019 972.019 974.208
          974.207 974.207 969.766 972.019 969.766 969.766 972.019 972.018 974.206 974.206 974.206 974.206
          976.328 976.328 978.381 978.381 976.328 978.38 978.38 980.363 980.363 982.274 982.274 980.363
          980.363 982.273 982.273 976.327 976.327 978.38 976.327 976.327 978.38 978.38 980.363 982.273
          980.363 980.363 982.273 982.273 984.11 984.11 985.869 985.869 984.11 984.11 985.869 985.869
          987.548 987.548 987.548 987.548 984.11 985.869 984.11 984.109 985.869 985.868 987.548 987.548
          987.548 989.145 989.145 990.655 990.655 989.145 989.145 990.655 990.655 992.075 992.075 993.4
          993.4 992.075 992.075 993.4 993.4 989.145 990.655 989.144 989.144 990.654 990.654 992.074
          993.399 992.074 992.074 993.399 993.399 984.109 984.109 985.868 985.868 984.109 984.109 985.868
          985.867 987.547 987.547 987.547 987.546 984.109 985.867 984.109 984.109 985.867 985.867 987.545
          987.545 987.545 989.144 989.143 990.653 990.653 989.142 989.142 990.652 990.651 992.073 992.072
          993.398 993.398 992.072 992.07 993.397 993.395 989.141 990.65 989.14 989.139 990.649 990.647
          992.069 993.394 992.067 992.064 993.391 993.385 994.724 994.724 996.015 996.015 994.724 994.724
          996.015 996.015 997.15 997.15 997.15 997.15 994.723 996.014 994.723 994.723 996.014 996.014
          997.15 997.15 997.15 998.107 998.107 998.886 998.886 998.107 998.107 998.886 998.886 999.47
          999.47 999.47 999.47 998.107 998.886 998.107 998.107 998.886 998.886 999.47 999.47 999.47
          994.722 994.722 996.014 996.013 994.721 994.72 996.013 996.012 997.15 997.149 997.149 997.149
          994.719 996.011 994.717 994.715 996.01 996.01 997.148 997.148 997.148 998.107 998.106 998.886
          998.885 998.106 998.106 998.885 998.885 999.47 999.47 999.47 999.47 998.106 998.885 998.106
          998.106 998.885 998.885 999.47 999.47 999.47 984.109 984.109 985.867 985.867 984.109 985.867
          987.545 987.545 987.545 984.109 984.109 985.867 985.868 984.109 984.109 985.868 985.868 987.546
          987.547 987.547 987.547 989.139 989.14 990.647 990.649 989.141 990.65 992.064 992.067 993.385
          993.391 992.069 993.394 989.142 989.142 990.651 990.652 989.143 989.144 990.653 990.653 992.07
          992.072 993.395 993.397 992.072 992.073 993.398 993.398 984.109 984.11 985.868 985.869 984.11
          985.869 987.548 987.548 987.548 987.548 984.11 984.11 985.869 985.869 984.11 984.11 985.869
          985.869 987.548 987.548 987.548 989.144 989.144 990.654 990.654 989.145 989.145 990.655 992.074
          992.074 993.399 993.399 992.074 993.399 989.145 990.655 990.655 989.145 989.145 990.655 990.655
          992.075 992.075 993.4 993.4 992.075 992.075 993.4 993.4 994.715 994.717 996.01 996.01
          994.719 994.72 996.011 996.012 997.148 997.148 997.148 997.149 994.721 996.013 994.722 994.722
          996.013 996.014 997.149 997.149 997.15 998.106 998.106 998.885 998.885 998.106 998.106 998.885
          998.885 999.47 999.47 999.47 999.47 998.106 998.885 998.106 998.107 998.885 998.886 999.47
          999.47 999.47 994.723 994.723 996.014 996.014 994.723 994.724 996.014 996.015 997.15 997.15
          997.15 997.15 994.724 996.015 994.724 994.724 996.015 997.15 996.015 997.15 997.15 998.107
          998.107 998.886 998.886 998.107 998.107 998.886 998.886 999.47 999.47 999.47 999.47 998.107
          998.886 998.107 998.107 998.886 998.886 999.47 999.47 999.47
        </DataArray>
        <DataArray type="Float32" Name="mu" NumberOfComponents="1" format="ascii">
          0.000259897 0.000259897 0.000270956 0.000270956 0.000259898 0.000259898 0.000270956 0.000270956 0.000282874 0.000282874 0.000282874 0.000282875
          0.000259898 0.000270957 0.000259898 0.000259898 0.000270958 0.000270959 0.000282876 0.000282877 0.000282879 0.000295751 0.000295751 0.000309824
          0.000309825 0.000295752 0.000295753 0.000309825 0.000309827 0.000325095 0.000325095 0.000325096 0.000325098 0.000295754 0.000309829 0.000295756
          0.000295759 0.000309831 0.000309835 0.0003251 0.000325103 0.000325107 0.000259899 0.000259899 0.00027096 0.000270961 0.0002599 0.0002599
          0.000270962 0.000270964 0.000282881 0.000282883 0.000282886 0.000282889 0.0002599 0.000270965 0.000259901 0.000259901 0.000270967 0.000270967
          0.000282892 0.000282894 0.000282896 0.000295762 0.000295766 0.000309839 0.000309844 0.00029577 0.000295775 0.000309851 0.000309859 0.000325112
          0.000325119 0.000325128 0.000325139 0.000295781 0.000309868 0.000295786 0.00029579 0.000309878 0.000309886 0.000325154 0.000325174 0.000325196
          0.000340466 0.000340467 0.000355805 0.000355805 0.000340468 0.000340469 0.000355806 0.000355808 0.000372375 0.000372376 0.000372377 0.000372379
          0.000340472 0.000355811 0.000340475 0.00034048 0.000355814 0.000355819 0.000372381 0.000372385 0.000372389 0.000390313 0.000390314 0.000409774
          0.000409774 0.000390315 0.000390317 0.000409775 0.000409776 0.000430934 0.000430934 0.000453999 0.000453999 0.000430935 0.000430936 0.000454
          0.000454 0.000390319 0.000409778 0.000390322 0.000390326 0.00040978 0.000409784 0.000430937 0.000454 0.000430939 0.000430941 0.000454001
          0.000454002 0.000340485 0.000340493 0.000355825 0.000355832 0.000340503 0.000340517 0.000355842 0.000355856 0.000372395 0.000372402 0.000372411
          0.000372422 0.000340537 0.000355874 0.00034057 0.000340639 0.000355898 0.000355926 0.000372436 0.000372452 0.000372465 0.00039033 0.000390337
          0.000409787 0.000409792 0.000390344 0.000390353 0.000409798 0.000409804 0.000430943 0.000430946 0.000454003 0.000454004 0.00043095 0.000430954
          0.000454005 0.000454007 0.000390363 0.000409811 0.000390373 0.00039038 0.000409817 0.000409821 0.000430958 0.000454008 0.000430962 0.000430964
          0.000454009 0.00045401 0.000259901 0.000259901 0.000270967 0.000270967 0.0002599 0.000270965 0.000282896 0.000282894 0.000282892 0.0002599
          0.0002599 0.000270964 0.000270962 0.000259899 0.000259899 0.000270961 0.00027096 0.000282889 0.000282886 0.000282883 0.000282881 0.00029579
          0.000295786 0.000309886 0.000309878 0.000295781 0.000309868 0.000325196 0.000325174 0.000325154 0.000295775 0.00029577 0.000309859 0.000309851
          0.000295766 0.000295762 0.000309844 0.000309839 0.000325139 0.000325128 0.000325119 0.000325112 0.000259898 0.000259898 0.000270959 0.000270958
          0.000259898 0.000270957 0.000282879 0.000282877 0.000282876 0.000259898 0.000259898 0.000270956 0.000270956 0.000259897 0.000259897 0.000270956
          0.000270956 0.000282875 0.000282874 0.000282874 0.000282874 0.000295759 0.000295756 0.000309835 0.000309831 0.000295754 0.000309829 0.000325107
          0.000325103 0.0003251 0.000295753 0.000295752 0.000309827 0.000309825 0.000295751 0.000295751 0.000309825 0.000309824 0.000325098 0.000325096
          0.000325095 0.000325095 0.000340639 0.00034057 0.000355926 0.000355898 0.000340537 0.000355874 0.000372465 0.000372452 0.000372436 0.000340517
          0.000340503 0.000355856 0.000355842 0.000340493 0.000340485 0.000355832 0.000355825 0.000372422 0.000372411 0.000372402 0.000372395 0.00039038
          0.000390373 0.000409821 0.000409817 0.000390363 0.000409811 0.000430964 0.000430962 0.00045401 0.000454009 0.000430958 0.000454008 0.000390353
          0.000390344 0.000409804 0.000409798 0.000390337 0.00039033 0.000409792 0.000409787 0.000430954 0.00043095 0.000454007 0.000454005 0.000430946
          0.000430943 0.000454004 0.000454003 0.00034048 0.000340475 0.000355819 0.000355814 0.000340472 0.000340469 0.000355811 0.000355808 0.000372389
          0.000372385 0.000372381 0.000340468 0.000355806 0.000340467 0.000340466 0.000355805 0.000355805 0.000372379 0.000372377 0.000372376 0.000372375
          0.000390326 0.000390322 0.000409784 0.00040978 0.000390319 0.000409778 0.000409776 0.000430941 0.000430939 0.000454002 0.000454001 0.000430937
          0.000430936 0.000454 0.000454 0.000390317 0.000390315 0.000409775 0.000390314 0.000390313 0.000409774 0.000409774 0.000430935 0.000454
          0.000430934 0.000430934 0.000453999 0.000453999 0.000479207 0.000479206 0.000506832 0.000506831 0.000479206 0.000479206 0.000506831 0.000506829
          0.000537197 0.000537197 0.000537195 0.000537193 0.000479205 0.000506828 0.000479205 0.000479204 0.000506826 0.000506823 0.000537191 0.000537187
          0.000537182 0.000570683 0.000570683 0.000607739 0.000607738 0.000570681 0.000570678 0.000607736 0.000607732 0.0006489 0.000648899 0.000694809
          0.000694807 0.000648896 0.000648891 0.000694804 0.000694798 0.000570674 0.000607726 0.000570668 0.000570661 0.000607719 0.000607709 0.000648884
          0.00069479 0.000648875 0.000648863 0.000694779 0.000694765 0.000479203 0.000479202 0.00050682 0.000506816 0.0004792 0.000479199 0.000506811
          0.000506806 0.000537176 0.000537168 0.000537159 0.000537149 0.000479197 0.0005068 0.000479196 0.000479195 0.000506796 0.000506793 0.000537138
          0.000537129 0.000537123 0.000570651 0.00057064 0.000607696 0.00060768 0.000570626 0.000570609 0.00060766 0.000607634 0.000648847 0.000648826
          0.000694747 0.000694722 0.000648799 0.000648763 0.00069469 0.000694645 0.00057059 0.000607603 0.000570571 0.000570558 0.000607568 0.000607538
          0.000648714 0.00069458 0.000648649 0.000648574 0.000694472 0.000694249 0.000750723 0.000750721 0.000819292 0.00081929 0.000750717 0.000750711
          0.000819286 0.000819279 0.000898715 0.000898713 0.000898709 0.000898702 0.000750702 0.00081927 0.00075069 0.000750675 0.000819258 0.000819243
          0.000898692 0.000898679 0.000898663 0.000992488 0.000992486 0.0011027 0.00110269 0.000992482 0.000992476 0.00110269 0.00110269 0.00123348
          0.00123348 0.00123347 0.00123347 0.000992468 0.00110268 0.000992457 0.000992443 0.00110267 0.00110266 0.00123347 0.00123347 0.00123346
          0.000750655 0.000750629 0.000819223 0.000819197 0.000750594 0.00075055 0.000819166 0.000819128 0.000898642 0.000898617 0.000898587 0.000898553
          0.00075049 0.000819083 0.000750414 0.000750329 0.000819035 0.000818997 0.000898516 0.000898482 0.000898459 0.000992426 0.000992406 0.00110265
          0.00110264 0.000992383 0.000992357 0.00110262 0.00110261 0.00123346 0.00123345 0.00123345 0.00123344 0.000992332 0.00110259 0.00099231
          0.000992297 0.00110258 0.00110257 0.00123344 0.00123343 0.00123343 0.000479195 0.000479196 0.000506793 0.000506796 0.000479197 0.0005068
          0.000537123 0.000537129 0.000537138 0.000479199 0.0004792 0.000506806 0.000506811 0.000479202 0.000479203 0.000506816 0.00050682 0.000537149
          0.000537159 0.000537168 0.000537176 0.000570558 0.000570571 0.000607538 0.000607568 0.00057059 0.000607603 0.000648574 0.000648649 0.000694249
          0.000694472 0.000648714 0.00069458 0.000570609 0.000570626 0.000607634 0.00060766 0.00057064 0.000570651 0.00060768 0.000607696 0.000648763
          0.000648799 0.000694645 0.00069469 0.000648826 0.000648847 0.000694722 0.000694747 0.000479204 0.000479205 0.000506823 0.000506826 0.000479205
          0.000506828 0.000537182 0.000537187 0.000537191 0.000537193 0.000479206 0.000479206 0.000506829 0.000506831 0.000479206 0.000479207 0.000506831
          0.000506832 0.000537195 0.000537197 0.000537197 0.000570661 0.000570668 0.000607709 0.000607719 0.000570674 0.000570678 0.000607726 0.000648863
          0.000648875 0.000694765 0.000694779 0.000648884 0.00069479 0.000570681 0.000607732 0.000607736 0.000570683 0.000570683 0.000607738 0.000607739
          0.000648891 0.000648896 0.000694798 0.000694804 0.000648899 0.0006489 0.000694807 0.000694809 0.000750329 0.000750414 0.000818997 0.000819035
          0.00075049 0.00075055 0.000819083 0.000819128 0.000898459 0.000898482 0.000898516 0.000898553 0.000750594 0.000819166 0.000750629 0.000750655
          0.000819197 0.000819223 0.000898587 0.000898617 0.000898642 0.000992297 0.00099231 0.00110257 0.00110258 0.000992332 0.000992357 0.00110259
          0.00110261 0.00123343 0.00123343 0.00123344 0.00123344 0.000992383 0.00110262 0.000992406 0.000992426 0.00110264 0.00110265 0.00123345
          0.00123345 0.00123346 0.000750675 0.00075069 0.000819243 0.000819258 0.000750702 0.000750711 0.00081927 0.000819279 0.000898663 0.000898679
          0.000898692 0.000898702 0.000750717 0.000819286 0.000750721 0.000750723 0.00081929 0.000898709 0.000819292 0.000898713 0.000898715 0.000992443
          0.000992457 0.00110266 0.00110267 0.000992468 0.000992476 0.00110268 0.00110269 0.00123346 0.00123347 0.00123347 0.00123347 0.000992482
          0.00110269 0.000992486 0.000992488 0.00110269 0.0011027 0.00123347 0.00123348 0.00123348
        </DataArray>
        <DataArray type="Float32" Name="delp" NumberOfComponents="1" format="ascii">
          0 0 0 0 0 0 0 0 -1.45519e-11 -1.45519e-11 -1.45519e-11 -1.45519e-11
          0 0 0 0 0 0 -1.45519e-11 -1.45519e-11 -1.45519e-11 -1.45519e-11 -1.45519e-11 -1.45519e-11
          -1.45519e-11 -1.45519e-11 -1.45519e-11 -1.45519e-11 -1.45519e-11 -1.45519e-11 -1.45519e-11 -1.45519e-11 -1.45519e-11 -1.45519e-11 -1.45519e-11 -1.45519e-11
          -1.45519e-11 -1.45519e-11 -1.45519e-11 -2.91038e-11 -2.91038e-11 -2.91038e-11 0 0 0 0 0 0
          0 -1.45519e-11 -1.45519e-11 -1.45519e-11 -1.45519e-11 -1.45519e-11 0 -1.45519e-11 0 0 -1.45519e-11 -1.45519e-11
          -1.45519e-11 -1.45519e-11 -1.45519e-11 -1.45519e-11 -1.45519e-11 -1.45519e-11 -1.45519e-11 -1.45519e-11 -1.45519e-11 -2.91038e-11 -2.91038e-11 -2.91038e-11
          -2.91038e-11 -2.91038e-11 -2.91038e-11 -1.45519e-11 -2.91038e-11 -1.45519e-11 -1.45519e-11 -2.91038e-11 -2.91038e-11 -2.91038e-11 -2.91038e-11 -2.91038e-11
          -2.91038e-11 -2.91038e-11 -2.91038e-11 -2.91038e-11 -2.91038e-11 -2.91038e-11 -2.91038e-11 -2.91038e-11 -2.91038e-11 -2.91038e-11 -2.91038e-11 -2.91038e-11
          -2.91038e-11 -2.91038e-11 -2.91038e-11 -2.91038e-11 -2.91038e-11 -2.91038e-11 -2.91038e-11 -2.91038e-11 -2.91038e-11 -2.91038e-11 -2.91038e-11 -2.91038e-11
          -2.91038e-11 -2.91038e-11 -2.91038e-11 -2.91038e-11 -2.91038e-11 -2.91038e-11 -2.91038e-11 -4.36557e-11 -4.36557e-11 -4.36557e-11 -4.36557e-11 -4.36557e-11
          -4.36557e-11 -2.91038e-11 -4.36557e-11 -2.91038e-11 -4.36557e-11 -4.36557e-11 -4.36557e-11 -4.36557e-11 -4.36557e-11 -4.36557e-11 -4.36557e-11 -4.36557e-11
          -4.36557e-11 -2.91038e-11 -2.91038e-11 -2.91038e-11 -2.91038e-11 -2.91038e-11 -2.91038e-11 -2.91038e-11 -4.36557e-11 -2.91038e-11 -4.36557e-11 -4.36557e-11
          -4.36557e-11 -2.91038e-11 -4.36557e-11 -4.36557e-11 -4.36557e-11 -4.36557e-11 -4.36557e-11 -4.36557e-11 -4.36557e-11 -4.36557e-11 -4.36557e-11 -4.36557e-11
          -4.36557e-11 -4.36557e-11 -4.36557e-11 -4.36557e-11 -4.36557e-11 -4.36557e-11 -4.36557e-11 -4.36557e-11 -4.36557e-11 -4.36557e-11 -4.36557e-11 -5.82077e-11
          -4.36557e-11 -5.82077e-11 -4.36557e-11 -5.82077e-11 -5.82077e-11 -5.82077e-11 -5.82077e-11 -5.82077e-11 -5.82077e-11 -5.82077e-11 -5.82077e-11 -7.27596e-11
          -5.82077e-11 -7.27596e-11 0 0 -1.45519e-11 -1.45519e-11 0 -1.45519e-11 -1.45519e-11 -1.45519e-11 -1.45519e-11 0
          0 -1.45519e-11 0 0 0 0 0 -1.45519e-11 -1.45519e-11 -1.45519e-11 -1.45519e-11 -1.45519e-11
          -1.45519e-11 -2.91038e-11 -2.91038e-11 -1.45519e-11 -2.91038e-11 -2.91038e-11 -2.91038e-11 -2.91038e-11 -1.45519e-11 -1.45519e-11 -2.91038e-11 -2.91038e-11
          -1.45519e-11 -1.45519e-11 -1.45519e-11 -1.45519e-11 -2.91038e-11 -2.91038e-11 -2.91038e-11 -2.91038e-11 0 0 0 0
          0 0 -1.45519e-11 -1.45519e-11 -1.45519e-11 0 0 0 0 0 0 0
          0 -1.45519e-11 -1.45519e-11 -1.45519e-11 -1.45519e-11 -1.45519e-11 -1.45519e-11 -1.45519e-11 -1.45519e-11 -1.45519e-11 -1.45519e-11 -2.91038e-11
          -2.91038e-11 -2.91038e-11 -1.45519e-11 -1.45519e-11 -1.45519e-11 -1.45519e-11 -1.45519e-11 -1.45519e-11 -1.45519e-11 -1.45519e-11 -2.91038e-11 -1.45519e-11
          -1.45519e-11 -1.45519e-11 -4.36557e-11 -4.36557e-11 -4.36557e-11 -4.36557e-11 -2.91038e-11 -4.36557e-11 -5.82077e-11 -4.36557e-11 -4.36557e-11 -2.91038e-11
          -2.91038e-11 -4.36557e-11 -2.91038e-11 -2.91038e-11 -2.91038e-11 -2.91038e-11 -2.91038e-11 -4.36557e-11 -4.36557e-11 -4.36557e-11 -2.91038e-11 -5.82077e-11
          -5.82077e-11 -5.82077e-11 -5.82077e-11 -4.36557e-11 -5.82077e-11 -5.82077e-11 -5.82077e-11 -5.82077e-11 -5.82077e-11 -5.82077e-11 -5.82077e-11 -4.36557e-11
          -4.36557e-11 -4.36557e-11 -4.36557e-11 -4.36557e-11 -4.36557e-11 -4.36557e-11 -4.36557e-11 -5.82077e-11 -4.36557e-11 -5.82077e-11 -4.36557e-11 -4.36557e-11
          -4.36557e-11 -4.36557e-11 -4.36557e-11 -2.91038e-11 -2.91038e-11 -2.91038e-11 -2.91038e-11 -2.91038e-11 -2.91038e-11 -2.91038e-11 -2.91038e-11 -2.91038e-11
          -2.91038e-11 -2.91038e-11 -2.91038e-11 -2.91038e-11 -2.91038e-11 -2.91038e-11 -2.91038e-11 -2.91038e-11 -2.91038e-11 -2.91038e-11 -2.91038e-11 -2.91038e-11
          -4.36557e-11 -2.91038e-11 -4.36557e-11 -4.36557e-11 -2.91038e-11 -4.36557e-11 -2.91038e-11 -4.36557e-11 -4.36557e-11 -4.36557e-11 -4.36557e-11 -4.36557e-11
          -4.36557e-11 -4.36557e-11 -4.36557e-11 -2.91038e-11 -2.91038e-11 -2.91038e-11 -2.91038e-11 -2.91038e-11 -2.91038e-11 -2.91038e-11 -4.36557e-11 -4.36557e-11
          -4.36557e-11 -2.91038e-11 -4.36557e-11 -4.36557e-11 -4.36557e-11 -4.36557e-11 -4.36557e-11 -4.36557e-11 -4.36557e-11 -4.36557e-11 -4.36557e-11 -4.36557e-11
          -4.36557e-11 -4.36557e-11 -4.36557e-11 -4.36557e-11 -4.36557e-11 -4.36557e-11 -4.36557e-11 -4.36557e-11 -4.36557e-11 -4.36557e-11 -4.36557e-11 -4.36557e-11
          -4.36557e-11 -4.36557e-11 -4.36557e-11 -4.36557e-11 -4.36557e-11 -4.36557e-11 -4.36557e-11 -4.36557e-11 -4.36557e-11 -4.36557e-11 -4.36557e-11 -2.91038e-11
          -2.91038e-11 -4.36557e-11 -4.36557e-11 -2.91038e-11 -2.91038e-11 -4.36557e-11 -4.36557e-11 -4.36557e-11 -4.36557e-11 -4.36557e-11 -4.36557e-11 -4.36557e-11
          -4.36557e-11 -4.36557e-11 -4.36557e-11 -4.36557e-11 -4.36557e-11 -4.36557e-11 -4.36557e-11 -4.36557e-11 -4.36557e-11 -5.82077e-11 -5.82077e-11 -5.82077e-11
          -5.82077e-11 -4.36557e-11 -4.36557e-11 -5.82077e-11 -5.82077e-11 -5.82077e-11 -5.82077e-11 -5.82077e-11 -7.27596e-11 -5.82077e-11 -7.27596e-11 -5.82077e-11
          -5.82077e-11 -7.27596e-11 -4.36557e-11 -4.36557e-11 -4.36557e-11 -4.36557e-11 -5.82077e-11 -5.82077e-11 -4.36557e-11 -5.82077e-11 -4.36557e-11 -4.36557e-11
          -4.36557e-11 -4.36557e-11 -4.36557e-11 -5.82077e-11 -4.36557e-11 -4.36557e-11 -5.82077e-11 -5.82077e-11 -5.82077e-11 -7.27596e-11 -5.82077e-11 -7.27596e-11
          -5.82077e-11 -5.82077e-11 -5.82077e-11 -5.82077e-11 -5.82077e-11 -5.82077e-11 -2.91038e-11 -2.91038e-11 -2.91038e-11 -2.91038e-11 -2.91038e-11 -2.91038e-11
          -2.91038e-11 -2.91038e-11 -2.91038e-11 -2.91038e-11 -2.91038e-11 -2.91038e-11 -2.91038e-11 -2.91038e-11 -2.91038e-11 -4.36557e-11 -2.91038e-11 -2.91038e-11
          -2.91038e-11 -2.91038e-11 -2.91038e-11 -1.45519e-11 -1.45519e-11 -1.45519e-11 -1.45519e-11 -1.45519e-11 -1.45519e-11 -1.45519e-11 -1.45519e-11 0
          0 0 0 -1.45519e-11 -1.45519e-11 -1.45519e-11 -1.45519e-11 -1.45519e-11 -1.45519e-11 0 0 0
          -4.36557e-11 -4.36557e-11 -2.91038e-11 -2.91038e-11 -4.36557e-11 -4.36557e-11 -4.36557e-11 -4.36557e-11 -2.91038e-11 -2.91038e-11 -2.91038e-11 -2.91038e-11
          -4.36557e-11 -4.36557e-11 -4.36557e-11 -5.82077e-11 -4.36557e-11 -4.36557e-11 -2.91038e-11 -2.91038e-11 -2.91038e-11 -1.45519e-11 -2.91038e-11 -1.45519e-11
          -1.45519e-11 -2.91038e-11 -2.91038e-11 -1.45519e-11 -1.45519e-11 0 0 0 0 -2.91038e-11 -1.45519e-11 -2.91038e-11
          -2.91038e-11 -1.45519e-11 -1.45519e-11 0 0 0 -7.27596e-11 -5.82077e-11 -7.27596e-11 -7.27596e-11 -5.82077e-11 -5.82077e-11
          -7.27596e-11 -7.27596e-11 -5.82077e-11 -5.82077e-11 -5.82077e-11 -5.82077e-11 -5.82077e-11 -4.36557e-11 -4.36557e-11 -4.36557e-11 -4.36557e-11 -5.82077e-11
          -5.82077e-11 -5.82077e-11 -4.36557e-11 -7.27596e-11 -7.27596e-11 -7.27596e-11 -7.27596e-11 -5.82077e-11 -5.82077e-11 -7.27596e-11 -5.82077e-11 -5.82077e-11
          -5.82077e-11 -5.82077e-11 -5.82077e-11 -5.82077e-11 -5.82077e-11 -5.82077e-11 -5.82077e-11 -4.36557e-11 -4.36557e-11 -4.36557e-11 -4.36557e-11 -5.82077e-11
          -4.36557e-11 -4.36557e-11 -4.36557e-11 -4.36557e-11 -4.36557e-11 -4.36557e-11 -4.36557e-11 -4.36557e-11 -4.36557e-11 -4.36557e-11 -4.36557e-11 -4.36557e-11
          -4.36557e-11 -4.36557e-11 -4.36557e-11 -4.36557e-11 -4.36557e-11 -4.36557e-11 -4.36557e-11 -4.36557e-11 -4.36557e-11 -4.36557e-11 -4.36557e-11 -4.36557e-11
          -4.36557e-11 -4.36557e-11 -4.36557e-11 -4.36557e-11 -4.36557e-11 -4.36557e-11 -4.36557e-11 -4.36557e-11 -4.36557e-11 -4.36557e-11 -4.36557e-11 -4.36557e-11
          -4.36557e-11 -4.36557e-11 -4.36557e-11 -4.36557e-11 -4.36557e-11 -4.36557e-11 -4.36557e-11 -4.36557e-11 -4.36557e-11 -4.36557e-11 -4.36557e-11 -4.36557e-11