<?xml version="1.0"?>
<VTKFile type="UnstructuredGrid" version="0.1" byte_order="LittleEndian">
  <UnstructuredGrid>
    <Piece NumberOfCells="3638" NumberOfPoints="1915">
      <PointData Scalars="p">
        <DataArray type="Float32" Name="p" NumberOfComponents="1" format="ascii">
          105783 104215 104334 139403 140960 140948 102834 142451 127013 128817 127968 128866
          127051 128025 139926 138050 138983 134347 132513 133422 105400 107200 106289 132429
          134237 133378 112606 110804 111681 118003 119073 117087 119818 118013 119116 138999
          106233 140937 104427 117545 107204 137970 119804 121170 119801 117203 126261 113475
          118134 135109 109970 129840 137112 135274 131580 108059 129826 126309 100000 100000
          101658 145128 145347 143596 143300 101800 116618 133422 134734 132129 140415 104896
          131603 137677 132128 107578 134735 139671 139169 105402 105954 123408 123428 122082
          123430 123408 124765 120784 118912 127241 130622 141486 103601 107167 137960 124647
          122193 112627 125676 136191 130686 110801 110895 109596 111522 110720 100000 100000
          101758 145512 145631 143681 115326 115402 113560 114108 103600 141825 115347 112155
          128109 128930 121556 119914 121163 130707 109222 114402 116202 115309 136172 130678
          110665 113113 111918 107202 108419 137858 136671 117089 116148 122603 136046 109003
          116210 114408 109000 121606 125239 142204 103197 128934 127207 118505 101338 144194
          103131 142317 129906 131534 109770 108086 135387 137117 108751 136374 101910 143616
          102968 142381 145702 100000 124208 114530 113663 101800 143757 112601 120659 101495
          143875 125210 121623 126502 125063 125713 142361 102822 122596 124241 101004 144616
          123435 145727 100000 121574 123367 122660 116961 118391 116603 130001 131260 131585
          129297 118407 121975 124012 122068 115627 113632 114890 115645 114884 113654 119861
          119227 121045 103762 104375 105175 140935 140373 139570 139322 141161 139556 139831
          141500 105398 105134 103492 103495 105166 132084 133318 133822 120570 134962 122663
          120744 101439 101799 101438 142778 143126 143536 133131 113038 111698 113164 111790
          123734 129307 127889 129594 127285 119504 106490 138365 115550 114869 113763 111462
          122235 124453 107102 108993 107830 107009 107812 108990 137688 135836 136968 137939
          137042 136243 120783 128389 116709 115235 124626 129307 127823 126082 127535 106762
          108089 136771 138077 108318 136869 113560 130587 131130 131109 122807 122855 124797
          124635 105497 139323 116195 106558 106570 138442 138193 121581 119406 103598 141056
          126116 116721 123664 102307 102306 142304 142606 133439 111478 129905 117178 117984
          116834 144504 144527 142752 100000 100000 101857 100000 100000 101863 144634 144734
          142931 115300 115289 129992 110042 110162 135049 134702 136569 105287 139616 111488
          112251 113367 103588 103551 141119 141319 103844 140996 124277 118182 117638 102880
          102837 141840 141841 108835 136440 116182 108711 135872 110216 108995 135823 110397
          110417 134445 106941 108158 137958 131335 128732 129624 127692 117949 119310 118692
          121324 110822 133390 134070 105644 139217 128633 109416 135505 132730 112172 126946
          104141 140652 120269 110121 134744 133126 111806 111728 116702 143460 101095 101095
          143761 143170 101457 101438 143242 120523 132866 109426 107197 137578 125158 131765
          128409 127331 126694 132228 119779 130805 100000 100000 100000 144887 144490 144493
          112592 114390 130513 132290 102833 141932 125946 126348 124909 126045 135378 125032
          125827 126075 144567 100000 110794 134061 132667 116187 126052 134578 110222 135638
          121574 123367 122656 130001 131260 131585 129297 121940 123911 122407 115645 114884
          113654 115627 113632 114949 103762 104375 105175 140935 140373 139570 139322 141161
          139556 139831 141500 105398 105134 103492 103495 105166 132084 133318 133822 134962
          101439 101799 101438 142778 143126 143536 133131 113038 111698 113164 111790 123734
          129307 127889 129594 127285 120537 118407 119491 106490 138365 115127 114885 113702
          116724 116953 111462 122217 124451 107102 108993 107830 107009 107812 108990 137688
          135836 136968 137939 137042 136243 120748 128389 116808 115214 124626 129307 127823
          126082 120685 122469 120939 127535 106762 108089 136771 138077 108318 136869 113560
          130587 131130 131109 122789 122855 124796 124634 105497 139323 116209 106558 106570
          138442 138193 121555 103598 141056 126116 118533 116736 123638 102307 102306 142304
          142606 133439 111478 129905 117125 117984 116834 144504 144527 142752 100000 100000
          101857 100000 100000 101863 144634 144734 142931 115300 115289 129992 110042 110162
          135049 134702 136569 119826 118799 105287 139616 111488 112251 113364 103588 103551
          141119 141319 103844 140996 124128 102880 102837 141840 141841 108835 136440 116368
          108711 135872 110216 108995 135823 110397 110417 134445 106941 108158 137958 131335
          128732 129624 127692 117997 119267 117636 120389 119133 110822 133390 134070 105644
          139217 128633 109416 135505 132730 112172 126946 104141 140652 110121 134744 133126
          111806 111728 116702 143460 101095 101095 143761 143170 101457 101438 143242 118105
          119779 120513 132866 109426 107197 137578 119377 118493 125158 131765 128409 127331
          126694 132228 119779 121256 130805 100000 100000 100000 144887 144490 144493 112592
          114390 130513 132290 102833 141932 125946 126348 124889 126045 135378 125032 125827
          126075 144567 100000 110794 134061 132667 116187 126052 134578 110222 135638 107285
          105287 106387 104636 101800 101504 103594 130686 131526 132512 131470 109902 109003
          109904 110804 115280 114408 115308 116210 120711 119818 120695 121623 126099 125239
          126143 127051 103601 101820 103276 103494 102455 103621 101504 140482 141978 139797
          139926 140233 142009 141761 141826 133875 134821 136126 142693 105045 105402 143037
          141578 143629 134744 136214 140771 113507 118907 124334 129625 111718 108109 113458
          117091 127972 118864 124266 122492 129721 133183 133182 115307 114013 120716 119418
          126136 124840 116543 121957 127367 108219 111727 117124 122544 127927 109903 111176
          108656 116552 121959 127398 114007 119416 124826 106679 138597 139605 106526 136120
          134742 136192 103828 105884 137179 100000 100000 145631 145512 123430 112606 138331
          138865 137328 137456 118013 128866 143740 143756 144063 110806 108992 138852 102561
          131471 130573 132355 117959 123378 112556 128792 137969 133750 135159 133432 100000
          100000 100000 145727 145702 145347 112604 118012 123419 128860 136942 134346 132435
          130614 107202 129623 127880 117043 118795 124210 122455 111755 113389 108068 107300
          101156 101211 144188 144413 138048 145732 147686 147491 149292 146048 148586 150118
          151240 149540 146943 147116 148430 156810 159033 156380 146079 145843 150113 149562
          152611 152568 153970 145932 146494 148677 150902 145735 151411 147136 150842 145873
          146088 147721 152362 148150 149852 147117 148028 146965 153737 153730 149048 152437
          155167 155311 147041 145723 150923 154384 151155 151775 151267 150471 149983 150578
          151518 150329 150782 150809 151030 150780 146381 156473 152073 149730 150120 153513
          153318 154387 148483 147759 148580 149847 151730 152724 149129 152173 149556 150767
          150860 150967 152886 148841 150208 151415 151488 154030 147943 150866 155500 146972
          152512 149323 154774 147506 196668 195611 197341 197806 166109 168664 167062 183254
          181161 181413 160982 162983 160683 183839 166903 182447 147497 147907 146701 170670
          168551 147222 180254 162551 162334 161220 159799 161361 157291 158851 157342 146337
          146798 154130 152903 153180 152146 149151 148896 148209 149784 153592 152421 151743
          198571 197907 156078 161868 162132 163886 166475 168611 146334 156867 155591 164200
          174877 172777 173300 165056 164146 184641 156925 158128 158222 179509 179219 170324
          171313 171503 173684 172750 185348 170457 159077 167178 168607 159630 151297 152031
          150475 172250 195814 148667 149912 146301 164398 149765 151168 153443 155223 186006
          147871 149396 151089 160413 166405 150718 154733 177916 176463 176087 174272 174927
          164530 165673 146723 147562 186835 157487 156194 152629 148705 150045 155616 154066
          154555 162952 147768 148872 148455 187441 176973 159856 146957 169331 168330 154430
          155855 150375 151504 178062 174399 156414 179067 165493 194571 175871 146294 158368
          177493 189534 188096 191223 193417 192395 193720 191627 153296 189029 152093 190317
          177986 145712 149440 164666 163169 200000 195811 197068 198429 172119 173612 173610
          175271 192960 191627 193720 192960 175492 177947 176973 177947 175492 182017 181754
          183745 183340 194785 177219 177219 188740 191021 189534 191021 188740 191244 189874
          192380 191244 192396 190158 172777 174877 187441 198186 194389 195085 191673 190085
          190112 200000 198600 196920 194297 177835 188300 186913 188300 186919 186303 186303
          196743 197682 195146 193622 195935 167384 169315 168551 193057 193053 163309 161868
          164200 196692 194736 196039 193657 197751 195004 195004 182949 182006 182949 184093
          185005 185005 200000 200000 197907 200000 200000 198222 200000 198229 200000 166405
          184932 198382 185348 198333 170732 170732 179067 180985 179741 179742 180987 187934
          188565 186216 186246 188386 186372 181161 183254 200000 196566 195814 196642 170670
          200000 180509 180548 189489 179508 178844 178847 172020 172020 200000 184641 184641
          198616 165390 160923 197341 195611 196668 197806 166109 167062 168664 181413 160683
          162983 160982 183839 166903 182447 147497 146701 147907 147222 180254 162551 162334
          159799 161220 161361 157291 157342 158851 146798 146337 154130 153180 152903 152146
          149151 148209 148896 149784 153592 152421 151743 198571 156078 163886 162132 168611
          166475 146334 156867 155591 173300 165056 164146 184641 156925 158222 158128 179509
          179219 170324 171313 173684 171503 172750 170457 159077 167178 168607 159630 151297
          150475 152031 172250 149912 148667 146301 164398 151168 149765 155223 153443 186006
          147871 149396 151089 160413 150718 154733 177916 176087 176463 174272 174927 164530
          165673 146723 147562 186835 157487 156194 152629 148705 150045 155616 154066 154555
          162952 148872 147768 148455 159855 146957 169331 168330 155855 154430 151504 150375
          178062 174399 156414 165493 194571 175871 146294 158368 177493 188096 193417 191223
          192395 153296 189029 152093 190317 177986 145712 149440 164666 163169 145732 147686
          149292 147491 146048 148586 150118 149540 151240 146943 147116 148430 156380 159033
          156810 146079 145843 150113 149562 152611 153970 152568 146494 145932 148677 150902
          145735 151411 147136 150842 145873 146088 147721 152362 148150 149852 147117 148028
          146965 153737 153730 149048 152437 155167 155311 145723 147041 150923 154384 151155
          151775 151267 150578 151518 150329 150782 150809 151030 150780 156473 152073 149730
          150120 153513 153318 154387 147759 148580 149847 151730 152724 149129 152173 149556
          150860 150967 152886 148841 150208 151415 151488 154030 147943 155500 146972 152512
          154774 196668 195611 197341 197806 166109 168664 167062 183254 181161 181413 160982
          162983 160683 183839 166903 182447 147497 147907 146701 170670 168551 147222 180254
          162551 162334 161220 159799 161361 157291 158851 157342 146337 146798 154130 152903
          153180 152146 149151 148896 148209 149784 153592 152421 151743 198571 197907 156078
          161868 162132 163886 166475 168611 146334 156867 155591 164200 174877 172777 173300
          165056 164146 184641 156925 158128 158222 179509 179219 170324 171313 171503 173684
          172750 185348 170457 159077 167178 168607 159630 151297 152031 150475 172250 195814
          148667 149912 146301 164398 149765 151168 153443 155223 186006 147871 149396 151089
          160413 166405 150718 154733 177916 176463 176087 174272 174927 164530 165673 146723
          147562 186835 157487 156194 152629 148705 150045 155616 154066 154555 162952 147768
          148872 148455 187441 176973 159856 146957 169331 168330 154430 155855 150375 151504
          178062 174399 156414 179067 165493 194571 175871 146294 158368 177493 189534 188096
          191223 193417 192395 193720 191627 153296 189029 152093 190317 177986 145712 149440
          164666 163169 200000 195811 197068 198429 172119 173612 173610 175271 192960 191627
          193720 192960 175492 177947 176973 177947 175492 182017 181754 183745 183340 194785
          177219 177219 188740 191021 189534 191021 188740 191244 189874 192380 191244 192396
          190158 172777 174877 187441 198186 194389 195085 191673 190085 190112 200000 198600
          196920 194297 177835 188300 186913 188300 186919 186303 186303 196743 197682 195146
          193622 195935 167384 169315 168551 193057 193053 163309 161868 164200 196692 194736
          196039 193657 197751 195004 195004 182949 182006 182949 184093 185005 185005 200000
          200000 197907 200000 200000 198222 200000 198229 200000 166405 184932 198382 185348
          198333 170732 170732 179067 180985 179741 179742 180987 187934 188565 186216 186246
          188386 186372 181161 183254 200000 196566 195814 196642 170670 200000 180509 180548
          189489 179508 178844 178847 172020 172020 200000 184641 184641 198616 165390 160923
          197341 195611 196668 197806 166109 167062 168664 181413 160683 162983 160982 183839
          166903 182447 147497 146701 147907 147222 180254 162551 162334 159799 161220 161361
          157291 157342 158851 146798 146337 154130 153180 152903 152146 149151 148209 148896
          149784 153592 152421 151743 198571 156078 163886 162132 168611 166475 146334 156867
          155591 173300 165056 164146 184641 156925 158222 158128 179509 179219 170324 171313
          173684 171503 172750 170457 159077 167178 168607 159630 151297 150475 152031 172250
          149912 148667 146301 164398 151168 149765 155223 153443 186006 147871 149396 151089
          160413 150718 154733 177916 176087 176463 174272 174927 164530 165673 146723 147562
          186835 157487 156194 152629 148705 150045 155616 154066 154555 162952 148872 147768
          148455 159855 146957 169331 168330 155855 154430 151504 150375 178062 174399 156414
          165493 194571 175871 146294 158368 177493 188096 193417 191223 192395 153296 189029
          152093 190317 177986 145712 149440 164666 163169
        </DataArray>
      </PointData>
      <CellData Scalars="process rank">
        <DataArray type="Float32" Name="process rank" NumberOfComponents="1" format="ascii">
          0 0 0 0 0 0 0 0 0 0 0 0
          0 0 0 0 0 0 0 0 0 0 0 0
          0 0 0 0 0 0 0 0 0 0 0 0
          0 0 0 0 0 0 0 0 0 0 0 0
          0 0 0 0 0 0 0 0 0 0 0 0
          0 0 0 0 0 0 0 0 0 0 0 0
          0 0 0 0 0 0 0 0 0 0 0 0
          0 0 0 0 0 0 0 0 0 0 0 0
          0 0 0 0 0 0 0 0 0 0 0 0
          0 0 0 0 0 0 0 0 0 0 0 0
          0 0 0 0 0 0 0 0 0 0 0 0
          0 0 0 0 0 0 0 0 0 0 0 0
          0 0 0 0 0 0 0 0 0 0 0 0
          0 0 0 0 0 0 0 0 0 0 0 0
          0 0 0 0 0 0 0 0 0 0 0 0
          0 0 0 0 0 0 0 0 0 0 0 0
          0 0 0 0 0 0 0 0 0 0 0 0
          0 0 0 0 0 0 0 0 0 0 0 0
          0 0 0 0 0 0 0 0 0 0 0 0
          0 0 0 0 0 0 0 0 0 0 0 0
          0 0 0 0 0 0 0 0 0 0 0 0
          0 0 0 0 0 0 0 0 0 0 0 0
          0 0 0 0 0 0 0 0 0 0 0 0
          0 0 0 0 0 0 0 0 0 0 0 0
          0 0 0 0 0 0 0 0 0 0 0 0
          0 0 0 0 0 0 0 0 0 0 0 0
          0 0 0 0 0 0 0 0 0 0 0 0
          0 0 0 0 0 0 0 0 0 0 0 0
          0 0 0 0 0 0 0 0 0 0 0 0
          0 0 0 0 0 0 0 0 0 0 0 0
          0 0 0 0 0 0 0 0 0 0 0 0
          0 0 0 0 0 0 0 0 0 0 0 0
          0 0 0 0 0 0 0 0 0 0 0 0
          0 0 0 0 0 0 0 0 0 0 0 0
          0 0 0 0 0 0 0 0 0 0 0 0
          0 0 0 0 0 0 0 0 0 0 0 0
          0 0 0 0 0 0 0 0 0 0 0 0
          0 0 0 0 0 0 0 0 0 0 0 0
          0 0 0 0 0 0 0 0 0 0 0 0
          0 0 0 0 0 0 0 0 0 0 0 0
          0 0 0 0 0 0 0 0 0 0 0 0
          0 0 0 0 0 0 0 0 0 0 0 0
          0 0 0 0 0 0 0 0 0 0 0 0
          0 0 0 0 0 0 0 0 0 0 0 0
          0 0 0 0 0 0 0 0 0 0 0 0
          0 0 0 0 0 0 0 0 0 0 0 0
          0 0 0 0 0 0 0 0 0 0 0 0
          0 0 0 0 0 0 0 0 0 0 0 0
          0 0 0 0 0 0 0 0 0 0 0 0
          0 0 0 0 0 0 0 0 0 0 0 0
          0 0 0 0 0 0 0 0 0 0 0 0
          0 0 0 0 0 0 0 0 0 0 0 0
          0 0 0 0 0 0 0 0 0 0 0 0
          0 0 0 0 0 0 0 0 0 0 0 0
          0 0 0 0 0 0 0 0 0 0 0 0
          0 0 0 0 0 0 0 0 0 0 0 0
          0 0 0 0 0 0 0 0 0 0 0 0
          0 0 0 0 0 0 0 0 0 0 0 0
          0 0 0 0 0 0 0 0 0 0 0 0
          0 0 0 0 0 0 0 0 0 0 0 0
          0 0 0 0 0 0 0 0 0 0 0 0
          0 0 0 0 0 0 0 0 0 0 0 0
          0 0 0 0 0 0 0 0 0 0 0 0
          0 0 0 0 0 0 0 0 0 0 0 0
          0 0 0 0 0 0 0 0 0 0 0 0
          0 0 0 0 0 0 0 0 0 0 0 0
          0 0 0 0 0 0 0 0 0 0 0 0
          0 0 0 0 0 0 0 0 0 0 0 0
          0 0 0 0 0 0 0 0 0 0 0 0
          0 0 0 0 0 0 0 0 0 0 0 0
          0 0 0 0 0 0 0 0 0 0 0 0
          0 0 0 0 0 0 0 0 0 0 0 0
          0 0 0 0 0 0 0 0 0 0 0 0
          0 0 0 0 0 0 0 0 0 0 0 0
          0 0 0 0 0 0 0 0 0 0 0 0
          0 0 0 0 0 0 0 0 0 0 0 0
          0 0 0 0 0 0 0 0 0 0 0 0
          0 0 0 0 0 0 0 0 0 0 0 0
          0 0 0 0 0 0 0 0 0 0 0 0
          0 0 0 0 0 0 0 0 0 0 0 0
          0 0 0 0 0 0 0 0 0 0 0 0
          0 0 0 0 0 0 0 0 0 0 0 0
          0 0 0 0 0 0 0 0 0 0 0 0
          0 0 0 0 0 0 0 0 0 0 0 0
          0 0 0 0 0 0 0 0 0 0 0 0
          0 0 0 0 0 0 0 0 0 0 0 0
          0 0 0 0 0 0 0 0 0 0 0 0
          0 0 0 0 0 0 0 0 0 0 0 0
          0 0 0 0 0 0 0 0 0 0 0 0
          0 0 0 0 0 0 0 0 0 0 0 0
          0 0 0 0 0 0 0 0 0 0 0 0
          0 0 0 0 0 0 0 0 0 0 0 0
          0 0 0 0 0 0 0 0 0 0 0 0
          0 0 0 0 0 0 0 0 0 0 0 0
          0 0 0 0 0 0 0 0 0 0 0 0
          0 0 0 0 0 0 0 0 0 0 0 0
          0 0 0 0 0 0 0 0 0 0 0 0
          0 0 0 0 0 0 0 0 0 0 0 0
          0 0 0 0 0 0 0 0 0 0 0 0
          0 0 0 0 0 0 0 0 0 0 0 0
          0 0 0 0 0 0 0 0 0 0 0 0
          0 0 0 0 0 0 0 0 0 0 0 0
          0 0 0 0 0 0 0 0 0 0 0 0
          0 0 0 0 0 0 0 0 0 0 0 0
          0 0 0 0 0 0 0 0 0 0 0 0
          0 0 0 0 0 0 0 0 0 0 0 0
          0 0 0 0 0 0 0 0 0 0 0 0
          0 0 0 0 0 0 0 0 0 0 0 0
          0 0 0 0 0 0 0 0 0 0 0 0
          0 0 0 0 0 0 0 0 0 0 0 0
          0 0 0 0 0 0 0 0 0 0 0 0
          0 0 0 0 0 0 0 0 0 0 0 0
          0 0 0 0 0 0 0 0 0 0 0 0
          0 0 0 0 0 0 0 0 0 0 0 0
          0 0 0 0 0 0 0 0 0 0 0 0
          0 0 0 0 0 0 0 0 0 0 0 0
          0 0 0 0 0 0 0 0 0 0 0 0
          0 0 0 0 0 0 0 0 0 0 0 0
          0 0 0 0 0 0 0 0 0 0 0 0
          0 0 0 0 0 0 0 0 0 0 0 0
          0 0 0 0 0 0 0 0 0 0 0 0
          0 0 0 0 0 0 0 0 0 0 0 0
          0 0 0 0 0 0 0 0 0 0 0 0
          0 0 0 0 0 0 0 0 0 0 0 0
          0 0 0 0 0 0 0 0 0 0 0 0
          0 0 0 0 0 0 0 0 0 0 0 0
          0 0 0 0 0 0 0 0 0 0 0 0
          0 0 0 0 0 0 0 0 0 0 0 0
          0 0 0 0 0 0 0 0 0 0 0 0
          0 0 0 0 0 0 0 0 0 0 0 0
          0 0 0 0 0 0 0 0 0 0 0 0
          0 0 0 0 0 0 0 0 0 0 0 0
          0 0 0 0 0 0 0 0 0 0 0 0
          0 0 0 0 0 0 0 0 0 0 0 0
          0 0 0 0 0 0 0 0 0 0 0 0
          0 0 0 0 0 0 0 0 0 0 0 0
          0 0 0 0 0 0 0 0 0 0 0 0
          0 0 0 0 0 0 0 0 0 0 0 0
          0 0 0 0 0 0 0 0 0 0 0 0
          0 0 0 0 0 0 0 0 0 0 0 0
          0 0 0 0 0 0 0 0 0 0 0 0
          0 0 0 0 0 0 0 0 0 0 0 0
          0 0 0 0 0 0 0 0 0 0 0 0
          0 0 0 0 0 0 0 0 0 0 0 0
          0 0 0 0 0 0 0 0 0 0 0 0
          0 0 0 0 0 0 0 0 0 0 0 0
          0 0 0 0 0 0 0 0 0 0 0 0
          0 0 0 0 0 0 0 0 0 0 0 0
          0 0 0 0 0 0 0 0 0 0 0 0
          0 0 0 0 0 0 0 0 0 0 0 0
          0 0 0 0 0 0 0 0 0 0 0 0
          0 0 0 0 0 0 0 0 0 0 0 0
          0 0 0 0 0 0 0 0 0 0 0 0
          0 0 0 0 0 0 0 0 0 0 0 0
          0 0 0 0 0 0 0 0 0 0 0 0
          0 0 0 0 0 0 0 0 0 0 0 0
          0 0 0 0 0 0 0 0 0 0 0 0
          0 0 0 0 0 0 0 0 0 0 0 0
          0 0 0 0 0 0 0 0 0 0 0 0
          0 0 0 0 0 0 0 0 0 0 0 0
          0 0 0 0 0 0 0 0 0 0 0 0
          0 0 0 0 0 0 0 0 0 0 0 0
          0 0 0 0 0 0 0 0 0 0 0 0
          0 0 0 0 0 0 0 0 0 0 0 0
          0 0 0 0 0 0 0 0 0 0 0 0
          0 0 0 0 0 0 0 0 0 0 0 0
          0 0 0 0 0 0 0 0 0 0 0 0
          0 0 0 0 0 0 0 0 0 0 0 0
          0 0 0 0 0 0 0 0 0 0 0 0
          0 0 0 0 0 0 0 0 0 0 0 0
          0 0 0 0 0 0 0 0 0 0 0 0
          0 0 0 0 0 0 0 0 0 0 0 0
          0 0 0 0 0 0 0 0 0 0 0 0
          0 0 0 0 0 0 0 0 0 0 0 0
          0 0 0 0 0 0 0 0 0 0 0 0
          0 0 0 0 0 0 0 0 0 0 0 0
          0 0 0 0 0 0 0 0 0 0 0 0
          0 0 0 0 0 0 0 0 0 0 0 0
          0 0 0 0 0 0 0 0 0 0 0 0
          0 0 0 0 0 0 0 0 0 0 0 0
          0 0 0 0 0 0 0 0 0 0 0 0
          0 0 0 0 0 0 0 0 0 0 0 0
          0 0 0 0 0 0 0 0 0 0 0 0
          0 0 0 0 0 0 0 0 0 0 0 0
          0 0 0 0 0 0 0 0 0 0 0 0
          0 0 0 0 0 0 0 0 0 0 0 0
          0 0 0 0 0 0 0 0 0 0 0 0
          0 0 0 0 0 0 0 0 0 0 0 0
          0 0 0 0 0 0 0 0 0 0 0 0
          0 0 0 0 0 0 0 0 0 0 0 0
          0 0 0 0 0 0 0 0 0 0 0 0
          0 0 0 0 0 0 0 0 0 0 0 0
          0 0 0 0 0 0 0 0 0 0 0 0
          0 0 0 0 0 0 0 0 0 0 0 0
          0 0 0 0 0 0 0 0 0 0 0 0
          0 0 0 0 0 0 0 0 0 0 0 0
          0 0 0 0 0 0 0 0 0 0 0 0
          0 0 0 0 0 0 0 0 0 0 0 0
          0 0 0 0 0 0 0 0 0 0 0 0
          0 0 0 0 0 0 0 0 0 0 0 0
          0 0 0 0 0 0 0 0 0 0 0 0
          0 0 0 0 0 0 0 0 0 0 0 0
          0 0 0 0 0 0 0 0 0 0 0 0
          0 0 0 0 0 0 0 0 0 0 0 0
          0 0 0 0 0 0 0 0 0 0 0 0
          0 0 0 0 0 0 0 0 0 0 0 0
          0 0 0 0 0 0 0 0 0 0 0 0
          0 0 0 0 0 0 0 0 0 0 0 0
          0 0 0 0 0 0 0 0 0 0 0 0
          0 0 0 0 0 0 0 0 0 0 0 0
          0 0 0 0 0 0 0 0 0 0 0 0
          0 0 0 0 0 0 0 0 0 0 0 0
          0 0 0 0 0 0 0 0 0 0 0 0
          0 0 0 0 0 0 0 0 0 0 0 0
          0 0 0 0 0 0 0 0 0 0 0 0
          0 0 0 0 0 0 0 0 0 0 0 0
          0 0 0 0 0 0 0 0 0 0 0 0
          0 0 0 0 0 0 0 0 0 0 0 0
          0 0 0 0 0 0 0 0 0 0 0 0
          0 0 0 0 0 0 0 0 0 0 0 0
          0 0 0 0 0 0 0 0 0 0 0 0
          0 0 0 0 0 0 0 0 0 0 0 0
          0 0 0 0 0 0 0 0 0 0 0 0
          0 0 0 0 0 0 0 0 0 0 0 0
          0 0 0 0 0 0 0 0 0 0 0 0
          0 0 0 0 0 0 0 0 0 0 0 0
          0 0 0 0 0 0 0 0 0 0 0 0
          0 0 0 0 0 0 0 0 0 0 0 0
          0 0 0 0 0 0 0 0 0 0 0 0
          0 0 0 0 0 0 0 0 0 0 0 0
          0 0 0 0 0 0 0 0 0 0 0 0
          0 0 0 0 0 0 0 0 0 0 0 0
          0 0 0 0 0 0 0 0 0 0 0 0
          0 0 0 0 0 0 0 0 0 0 0 0
          0 0 0 0 0 0 0 0 0 0 0 0
          0 0 0 0 0 0 0 0 0 0 0 0
          0 0 0 0 0 0 0 0 0 0 0 0
          0 0 0 0 0 0 0 0 0 0 0 0
          0 0 0 0 0 0 0 0 0 0 0 0
          0 0 0 0 0 0 0 0 0 0 0 0
          0 0 0 0 0 0 0 0 0 0 0 0
          0 0 0 0 0 0 0 0 0 0 0 0
          0 0 0 0 0 0 0 0 0 0 0 0
          0 0 0 0 0 0 0 0 0 0 0 0
          0 0 0 0 0 0 0 0 0 0 0 0
          0 0 0 0 0 0 0 0 0 0 0 0
          0 0 0 0 0 0 0 0 0 0 0 0
          0 0 0 0 0 0 0 0 0 0 0 0
          0 0 0 0 0 0 0 0 0 0 0 0
          0 0 0 0 0 0 0 0 0 0 0 0
          0 0 0 0 0 0 0 0 0 0 0 0
          0 0 0 0 0 0 0 0 0 0 0 0
          0 0 0 0 0 0 0 0 0 0 0 0
          0 0 0 0 0 0 0 0 0 0 0 0
          0 0 0 0 0 0 0 0 0 0 0 0
          0 0 0 0 0 0 0 0 0 0 0 0
          0 0 0 0 0 0 0 0 0 0 0 0
          0 0 0 0 0 0 0 0 0 0 0 0
          0 0 0 0 0 0 0 0 0 0 0 0
          0 0 0 0 0 0 0 0 0 0 0 0
          0 0 0 0 0 0 0 0 0 0 0 0
          0 0 0 0 0 0 0 0 0 0 0 0
          0 0 0 0 0 0 0 0 0 0 0 0
          0 0 0 0 0 0 0 0 0 0 0 0
          0 0 0 0 0 0 0 0 0 0 0 0
          0 0 0 0 0 0 0 0 0 0 0 0
          0 0 0 0 0 0 0 0 0 0 0 0
          0 0 0 0 0 0 0 0 0 0 0 0
          0 0 0 0 0 0 0 0 0 0 0 0
          0 0 0 0 0 0 0 0 0 0 0 0
          0 0 0 0 0 0 0 0 0 0 0 0
          0 0 0 0 0 0 0 0 0 0 0 0
          0 0 0 0 0 0 0 0 0 0 0 0
          0 0 0 0 0 0 0 0 0 0 0 0
          0 0 0 0 0 0 0 0 0 0 0 0
          0 0 0 0 0 0 0 0 0 0 0 0
          0 0 0 0 0 0 0 0 0 0 0 0
          0 0 0 0 0 0 0 0 0 0 0 0
          0 0 0 0 0 0 0 0 0 0 0 0
          0 0 0 0 0 0 0 0 0 0 0 0
          0 0 0 0 0 0 0 0 0 0 0 0
          0 0 0 0 0 0 0 0 0 0 0 0
          0 0 0 0 0 0 0 0 0 0 0 0
          0 0 0 0 0 0 0 0 0 0 0 0
          0 0 0 0 0 0 0 0 0 0 0 0
          0 0 0 0 0 0 0 0 0 0 0 0
          0 0 0 0 0 0 0 0 0 0 0 0
          0 0 0 0 0 0 0 0 0 0 0 0
          0 0 0 0 0 0 0 0 0 0 0 0
          0 0 0 0 0 0 0 0 0 0 0 0
          0 0 0 0 0 0 0 0 0 0 0 0
          0 0 0 0 0 0 0 0 0 0 0 0
          0 0 0 0 0 0 0 0 0 0 0 0
          0 0 0 0 0 0 0 0 0 0 0 0
          0 0 0 0 0 0 0 0 0 0 0 0
          0 0 0 0 0 0 0 0 0 0 0 0
          0 0 0 0 0 0 0 0 0 0 0 0
          0 0 0 0 0 0 0 0 0 0 0 0
          0 0 0 0 0 0 0 0 0 0 0 0
          0 0 0 0 0 0 0 0 0 0 0 0
          0 0 0 0 0 0 0 0 0 0 0 0
          0 0 0 0 0 0 0 0 0 0 0 0
          0 0 0 0 0 0 0 0 0 0 0 0
          0 0
        </DataArray>
      </CellData>
      <Points>
        <DataArray type="Float32" Name="Coordinates" NumberOfComponents="3" format="ascii">
          3.21209 0 1.57933 2.34088 0 0.924787 2.40749 0 2.24712 21.7879 0 3.42067
          22.6591 0 4.07521 22.5925 0 2.75288 1.57422 0 1.57422 23.4258 0 3.42578
          15 0 5 16 0 5 15.5227 0 4.14522 16 0 0
          15 0 0 15.5378 0 0.976885 22 0 0 21 0 0
          21.5064 0 1.1773 19 0 0 18 0 0 18.5 0 1.2
          3 0 5 4 0 5 3.49364 0 3.8227 18 0 5
          19 0 5 18.5055 0 3.82678 7 0 0 6 0 0
          6.48669 0 0.956209 10 0 5 10.5917 0 4.01659 9.49029 0 4.34089
          11 0 0 10 0 0 10.6117 0 1.10976 21.5381 0 2.39041
          3.46188 0 2.60959 22.5408 0 0.963455 2.45924 0 4.03654 9.74353 0 3.61182
          4.00109 0 1.88437 21.0021 0 3.11629 11 0 5 11.75 0 1.55
          10.992 0 2.0868 9.55088 0 0.84735 14.5775 0 4.16542 7.48265 0 0.852203
          10.0677 0 1.8218 19.4627 0 4.11455 5.53697 0 0.876036 16.5578 0 4.15236
          20.5002 0 0.90914 19.5068 0 0.914528 17.4914 0 0.908428 4.47654 0 4.10962
          16.529 0 0.892233 14.5913 0 0.884015 0 0 0 0 0 1
          0.920746 0 0.920746 25 0 5 25 0 4 24.0793 0 4.07925
          24 0 5 1 0 0 9.22688 0 1.60128 18.5112 0 2.51243
          19.241 0 3.27465 17.8104 0 3.25019 22.2804 0 1.81601 2.71959 0 3.18399
          17.5313 0 4.10144 20.8139 0 1.73164 17.7958 0 1.76416 4.20913 0 3.28184
          19.2207 0 1.77175 22 0 5 21.6933 0 4.27944 3 0 0
          3.30668 0 0.720559 13 0 5 13.0065 0 3.88493 12.2618 0 4.16262
          13 0 0 12.9887 0 1.15641 13.7382 0 0.837379 11.5355 0 0.682589
          10.5 0 2.5 15.1153 0 3.34755 17 0 5 23 0 5
          2 0 0 3.98045 0 1.09868 21.0195 0 3.90132 13.6842 0 4.24682
          12.3158 0 0.753182 7.01242 0 1.85 14.25 0 3.45 20 0 0
          17 0 0 6 0 5 6.05168 0 3.81669 5.33014 0 4.25433
          6.39897 0 2.48381 5.95356 0 1.70482 0 0 2 0 0 3
          0.976345 0 2.48676 25 0 3 25 0 2 24.0237 0 2.51324
          8.51095 0 2.89545 8.55222 0 2.06807 7.53046 0 2.66567 7.83402 0 1.62698
          2 0 5 23 0 0 8.52114 0 0.958775 6.75176 0 4.24359
          15.5899 0 2.5241 16.0478 0 3.30058 11.9659 0 2.55536 11.0565 0 2.98388
          11.75 0 3.45 17.028 0 3.31031 5.1225 0 3.34535 8 0 5
          9 0 5 8.50311 0 4.30747 20 0 1.7 17 0 1.7
          5.92372 0 3.07025 7.28295 0 3.61347 6.61911 0 3.25483 4 0 0
          4.67547 0 0.717403 21 0 5 20.3245 0 4.28071 9.48905 0 2.65173
          8.96778 0 3.55945 12.544 0 1.80291 20 0 5 5 0 0
          9 0 0 8 0 0 5 0 5 12 0 5
          14 0 0 23.2243 0 1.79601 1.77569 0 3.20399 16.0409 0 1.74396
          15.089 0 1.75096 10.2753 0 3.16743 0.743409 0 3.22892 24.2566 0 1.77108
          1.73941 0 4.28461 23.2606 0 0.715387 16.5803 0 2.52103 17.4762 0 2.49996
          5.42637 0 2.45055 4.49111 0 2.52195 19.5854 0 2.5318 20.5249 0 2.48135
          4.85992 0 1.6123 20.1401 0 3.3877 1.06101 0 3.93899 23.939 0 1.06101
          1.6484 0 2.2903 23.3516 0 2.7097 25 0 1 0 0 4
          13.4366 0 3.25541 8.06977 0 3.54932 7.58934 0 4.28263 1 0 5
          24 0 0 7 0 5 11.4727 0 4.34292 0.830528 0 1.71352
          24.1695 0 3.28648 14 0 5 12 0 0 14.7025 0 2.53722
          13.9072 0 2.51037 14.2635 0 1.64031 23.4328 0 4.31605 1.56717 0 0.68395
          12.5436 0 3.21594 13.4505 0 1.80395 0.557694 0 4.44231 24.4423 0 0.557694
          13.006 0 2.50456 25 0 0 0 0 5 12 -7.5 5
          13 -7.5 5 12.6053 -6.31571 5 9.42992 -5.90122 5 10.2251 -5.16117 5
          9.23041 -5.13421 5 16.7074 -5.52304 5 17.4189 -6.57724 5 17.597 -5.52675 5
          16.3153 -6.22507 5 10.2351 -6.21926 5 12.2207 -4.77723 5 13.3545 -4.38969 5
          12.2698 -3.83492 5 8.68252 -1.26374 5 7.57338 -0.911702 5 8.2741 -1.94452 5
          8.69817 -6.2384 5 8.2741 -5.55548 5 7.59028 -6.55766 5 11.0361 -1.67017 5
          10.6865 -2.77493 5 11.6973 -2.76688 5 2.09042 -2.37909 5 2.431 -3.17371 5
          2.87532 -2.13758 5 22.9096 -5.12091 5 22.569 -4.32629 5 22.1271 -5.36382 5
          22 -7.5 5 23.0581 -6.7074 5 22.1299 -6.29048 5 22.1464 -1.19729 5
          23.059 -0.791964 5 3 -7.5 5 2.85361 -6.30271 5 1.94099 -6.70804 5