<?xml version="1.0"?>
<VTKFile type="UnstructuredGrid" version="0.1" byte_order="LittleEndian">
  <UnstructuredGrid>
    <Piece NumberOfCells="1928" NumberOfPoints="5784">
      <PointData Scalars="x^tracer_0">
        <DataArray type="Float32" Name="x^tracer_0" NumberOfComponents="1" format="ascii">
          0 0 0 0 0 0 0 0 0 0 0 0
          0 0 0 0 0 0 0 0 0 0 0 0
          0 0 0 0 0 0 0 0 0 0 0 0
          0 0 0 0 0 0 0 0 0 0 0 0
          0 0 0 0 0 0 0 0 0 0 0 0
          0 0 0 0 0 0 0 0 0 0 1.74757e-19 0
          0 0 0 0 0 0 0 0 0 0 0 0
          0 0 0 0 0 0 0 0 0 0 0 0
          0 0 0 0 0 0 0 0 0 0 0 0
          0 0 0 0 0 0 0 0 0 0 0 0
          0 0 0 0 0 0 0 0 0 0 0 0
          0 0 0 0 0 1.08245e-17 0 1.08245e-17 1.74757e-19 0 1.08245e-17 0
          0 0 0 0 0 0 0 0 0 0 0 0
          0 0 0 0 0 0 0 0 1.88116e-14 0 1.88116e-14 1.08245e-17
          1.92055e-12 1.88116e-14 0 0 0 0 0 0 0 0 0 0
          1.6932e-26 0 0 1.6932e-26 0 1.22654e-23 1.6932e-26 1.22654e-23 3.5382e-25 8.5031e-27 1.6932e-26 3.5382e-25
          9.97469e-25 3.5382e-25 1.22654e-23 8.5031e-27 3.5382e-25 1.89157e-26 5.90925e-28 8.5031e-27 1.89157e-26 5.90925e-28 1.89157e-26 6.70303e-28
          9.97469e-25 1.89157e-26 3.5382e-25 9.97469e-25 3.97605e-25 1.89157e-26 1.13188e-26 6.70303e-28 1.89157e-26 1.13188e-26 1.89157e-26 3.97605e-25
          1.08238e-21 0 0 1.08238e-21 1.22654e-23 0 1.08238e-21 4.20947e-23 1.22654e-23 1.08238e-21 3.41054e-21 4.20947e-23
          1.08238e-21 0 1.74757e-19 1.08238e-21 1.74757e-19 3.41054e-21 9.97469e-25 1.22654e-23 4.20947e-23 4.40775e-23 9.97469e-25 4.20947e-23
          4.40775e-23 3.97605e-25 9.97469e-25 1.13188e-26 3.97605e-25 8.91531e-25 4.40775e-23 8.91531e-25 3.97605e-25 4.40775e-23 4.20947e-23 3.41054e-21
          4.40775e-23 3.41054e-21 7.60713e-23 4.40775e-23 1.42866e-24 8.91531e-25 4.40775e-23 7.60713e-23 1.42866e-24 3.41563e-29 5.90925e-28 6.70303e-28
          1.12013e-29 3.41563e-29 2.03605e-28 6.31357e-30 5.28774e-32 7.19697e-33 5.43692e-31 5.28774e-32 7.14807e-29 3.41563e-29 6.70303e-28 2.03605e-28
          1.12013e-29 2.03605e-28 2.48725e-29 2.48725e-29 2.03605e-28 4.48249e-28 1.13188e-26 2.03605e-28 6.70303e-28 1.13188e-26 4.48249e-28 2.03605e-28
          6.31357e-30 7.14807e-29 5.28774e-32 2.48725e-29 4.48249e-28 5.31931e-28 6.31357e-30 -8.95049e-27 7.14807e-29 5.31931e-28 4.48249e-28 1.63034e-26
          -8.95049e-27 8.80691e-26 7.14807e-29 6.71696e-28 5.43692e-31 2.32054e-27 7.04707e-27 6.71696e-28 8.71089e-25 5.43692e-31 7.14807e-29 2.32054e-27
          6.47578e-25 2.32054e-27 7.14807e-29 6.71696e-28 2.32054e-27 2.53203e-25 6.47578e-25 7.14807e-29 8.80691e-26 6.47578e-25 2.53203e-25 2.32054e-27
          5.71767e-23 2.53203e-25 6.47578e-25 6.71696e-28 2.53203e-25 8.71089e-25 7.04707e-27 8.71089e-25 3.95196e-26 2.53203e-25 2.74388e-22 8.71089e-25
          5.71767e-23 2.74388e-22 2.53203e-25 5.31757e-24 8.71089e-25 2.74388e-22 1.13188e-26 8.91531e-25 1.63034e-26 1.13188e-26 1.63034e-26 4.48249e-28
          3.79898e-26 1.63034e-26 8.91531e-25 3.79898e-26 1.07183e-27 1.63034e-26 5.31931e-28 1.63034e-26 5.77166e-28 5.77166e-28 1.63034e-26 1.07183e-27
          -8.95049e-27 8.53076e-24 8.80691e-26 8.53076e-24 1.44459e-22 8.80691e-26 5.77166e-28 1.07183e-27 5.49656e-29 8.53076e-24 1.49527e-22 1.44459e-22
          3.79898e-26 8.91531e-25 1.42866e-24 3.79898e-26 1.42866e-24 3.28141e-26 3.79898e-26 3.28141e-26 9.19054e-28 8.65498e-25 3.28141e-26 1.42866e-24
          8.65498e-25 7.48212e-27 3.28141e-26 3.79898e-26 9.19054e-28 1.07183e-27 5.49656e-29 1.07183e-27 9.19054e-28 5.49656e-29 9.19054e-28 1.43684e-28
          1.49527e-22 6.64173e-18 1.02717e-19 7.48212e-27 9.19054e-28 3.28141e-26 1.43684e-28 9.19054e-28 7.48212e-27 1.43684e-28 7.48212e-27 1.31645e-28
          6.47578e-25 8.80691e-26 1.44459e-22 5.71767e-23 6.47578e-25 1.44459e-22 5.71767e-23 1.44459e-22 9.36922e-21 1.02717e-19 9.36922e-21 1.44459e-22
          1.49527e-22 1.02717e-19 1.44459e-22 5.71767e-23 5.95547e-20 2.74388e-22 5.31757e-24 2.74388e-22 1.12911e-21 1.12911e-21 2.74388e-22 5.95547e-20
          5.71767e-23 9.36922e-21 5.95547e-20 4.89907e-18 5.95547e-20 9.36922e-21 1.75637e-19 1.12911e-21 5.95547e-20 6.64173e-18 1.53304e-17 1.02717e-19
          4.89907e-18 9.36922e-21 1.02717e-19 4.89907e-18 1.02717e-19 1.53304e-17 6.64173e-18 1.14264e-15 1.53304e-17 1.14264e-15 8.88367e-16 1.53304e-17
          4.89907e-18 1.53304e-17 8.88367e-16 4.89907e-18 1.46397e-17 5.95547e-20 1.75637e-19 5.95547e-20 1.46397e-17 4.89907e-18 8.88367e-16 1.46397e-17
          8.88367e-16 1.35303e-15 1.46397e-17 1.75637e-19 1.46397e-17 1.01884e-17 6.17272e-16 1.01884e-17 1.46397e-17 9.92523e-16 1.74757e-19 1.08245e-17
          3.41054e-21 1.74757e-19 4.61222e-21 9.92523e-16 4.61222e-21 1.74757e-19 9.92523e-16 1.08245e-17 1.88116e-14 7.60713e-23 3.41054e-21 4.61222e-21
          5.77539e-18 7.60713e-23 4.61222e-21 8.65498e-25 1.42866e-24 7.60713e-23 8.65498e-25 7.60713e-23 7.40336e-25 9.92523e-16 5.77539e-18 4.61222e-21
          5.77539e-18 7.40336e-25 7.60713e-23 6.23457e-21 7.40336e-25 5.77539e-18 9.92523e-16 1.88116e-14 2.98807e-14 9.92523e-16 2.98807e-14 1.12586e-15
          2.98807e-14 1.88116e-14 1.54739e-12 2.98807e-14 1.54739e-12 2.53685e-13 2.98807e-14 2.53685e-13 7.46656e-15 1.12586e-15 2.98807e-14 7.46656e-15
          1.44387e-17 1.12586e-15 1.93882e-16 1.12586e-15 7.46656e-15 1.93882e-16 6.76739e-15 1.93882e-16 7.46656e-15 8.65498e-25 1.54919e-26 7.48212e-27
          8.65498e-25 7.40336e-25 1.54919e-26 3.92424e-27 1.54919e-26 7.40336e-25 7.48212e-27 1.54919e-26 2.01518e-28 1.31645e-28 7.48212e-27 2.01518e-28
          1.31645e-28 2.01518e-28 6.93052e-27 3.92424e-27 2.01518e-28 1.54919e-26 6.93052e-27 2.01518e-28 3.35984e-29 3.92424e-27 3.35984e-29 2.01518e-28
          3.92424e-27 7.40336e-25 7.40744e-25 6.23457e-21 7.40744e-25 7.40336e-25 3.92424e-27 7.40744e-25 1.92211e-27 3.92424e-27 1.92211e-27 3.35984e-29
          -1.83689e-17 1.92211e-27 7.40744e-25 1.14264e-15 8.4288e-14 8.88367e-16 8.4288e-14 7.35337e-14 8.88367e-16 8.88367e-16 7.35337e-14 1.35303e-15
          8.4288e-14 4.8393e-12 7.35337e-14 6.93052e-27 3.35984e-29 9.56741e-23 4.8393e-12 2.55503e-12 7.35337e-14 4.78345e-14 7.35337e-14 2.55503e-12
          6.17272e-16 1.46397e-17 1.35303e-15 6.17272e-16 1.35303e-15 4.78345e-14 4.78345e-14 1.35303e-15 7.35337e-14 6.17272e-16 4.78345e-14 3.46138e-14
          8.63683e-16 6.17272e-16 3.46138e-14 9.56741e-23 3.35984e-29 1.92211e-27 9.56741e-23 1.92211e-27 2.61081e-19 4.8393e-12 1.55687e-10 2.55503e-12
          1.55687e-10 5.00235e-11 2.55503e-12 2.61081e-19 1.92211e-27 -1.83689e-17 2.61081e-19 -1.83689e-17 3.50959e-15 1.55687e-10 2.55449e-09 5.00235e-11
          2.70996e-12 4.78345e-14 2.55503e-12 2.70996e-12 3.46138e-14 4.78345e-14 2.70996e-12 2.55503e-12 5.00235e-11 2.70996e-12 6.73764e-14 3.46138e-14
          2.70996e-12 5.00235e-11 3.16453e-10 2.55449e-09 3.16453e-10 5.00235e-11 2.70996e-12 4.58134e-12 6.73764e-14 2.70996e-12 3.16453e-10 4.58134e-12
          -5.21798e-14 7.40744e-25 6.23457e-21 -5.21798e-14 -1.83689e-17 7.40744e-25 -5.21798e-14 3.83006e-13 -1.83689e-17 1.46719e-19 1.44387e-17 2.12589e-18
          1.44387e-17 1.93882e-16 2.12589e-18 5.52641e-18 2.12589e-18 1.93882e-16 1.46719e-19 2.12589e-18 1.73471e-20 5.52641e-18 1.27616e-19 2.12589e-18
          1.73471e-20 2.12589e-18 1.27616e-19 1.34443e-21 1.73471e-20 1.27616e-19 3.50959e-15 -1.83689e-17 3.83006e-13 2.55449e-09 2.64911e-08 3.16453e-10
          3.50959e-15 3.83006e-13 1.27802e-11 1.81572e-09 3.83006e-13 -5.21798e-14 1.27802e-11 3.83006e-13 1.81572e-09 1.72652e-08 1.27802e-11 1.81572e-09
          2.64911e-08 2.7061e-09 3.16453e-10 5.86891e-11 4.58134e-12 3.16453e-10 5.86891e-11 3.16453e-10 2.7061e-09 1.65405e-07 2.7061e-09 2.64911e-08
          5.86891e-11 2.7061e-09 1.58151e-09 9.03827e-08 1.58151e-09 2.7061e-09 8.14313e-22 1.46719e-19 1.73471e-20 8.14313e-22 1.73471e-20 1.10583e-22
          5.00978e-24 8.14313e-22 1.10583e-22 1.34443e-21 1.10583e-22 1.73471e-20 1.34443e-21 1.74909e-23 1.10583e-22 1.4618e-24 1.10583e-22 1.74909e-23
          1.65405e-07 9.03827e-08 2.7061e-09 5.00978e-24 1.10583e-22 1.4618e-24 3.58078e-07 4.73565e-09 2.05467e-07 8.96036e-11 4.73565e-09 6.34924e-09
          1.4618e-24 1.74909e-23 7.69297e-25 3.58078e-07 6.34924e-09 4.73565e-09 3.58078e-07 6.77686e-07 6.34924e-09 0 0 0
          0 0 0 0 0 0 0 0 0 0 0 0
          0 0 0 0 0 0 0 0 0 0 0 0
          0 0 0 0 0 0 0 0 0 0 0 0
          0 0 0 0 0 0 0 0 0 0 0 0
          0 0 0 0 0 0 0 0 0 0 0 0
          0 0 0 0 0 0 0 0 0 4.82964e-08 0 0
          1.92055e-12 0 0 1.92055e-12 1.54739e-12 1.88116e-14 1.92055e-12 0 2.46811e-09 4.82964e-08 2.46811e-09 0
          1.92055e-12 2.46811e-09 1.16146e-10 6.25741e-10 1.16146e-10 2.46811e-09 0 0 0 0 9.01188e-07 0
          4.82964e-08 0 9.01188e-07 4.82964e-08 9.01188e-07 3.20446e-07 0 0 2.64066e-05 0 2.64066e-05 9.01188e-07
          0.000421039 2.64066e-05 0 4.18192e-06 3.20446e-07 9.01188e-07 4.18192e-06 9.01188e-07 2.64066e-05 4.82964e-08 2.4014e-08 2.46811e-09
          6.25741e-10 2.46811e-09 2.4014e-08 4.82964e-08 3.20446e-07 2.4014e-08 4.18192e-06 8.40778e-06 3.20446e-07 8.40778e-06 2.4014e-08 3.20446e-07
          6.25741e-10 2.4014e-08 1.08976e-09 7.92563e-07 1.08976e-09 2.4014e-08 0 0 0 0 0 0
          0 0 0 0 0 0 0 0 0 0 0 0
          0 0 0 0 0 0 0 0 0 0 0 0
          0.000421039 0 0 0.00674056 0 0 0.000421039 0 0.00674056 0.000421039 0.00674056 0.00526614
          0.0722307 0 0 0.0722307 0 0 0.0722307 0.00674056 0 0.0722307 0.1719 0.00674056
          0.00674056 0.1719 0.00526614 0 0 0 0 0 0 0 0 0
          0 0 0 0 0 0 0 0 0 0 0 0
          1.10428e-05 3.70573e-05 0 0 0 0 0 0 0 0 0 0.0160099
          3.70573e-05 0 0 0.00688416 0.0160099 0 3.70573e-05 0.00688416 0 0.0722307 0 0.090975
          0.0722307 0.090975 0.1719 0 0.090975 0 0 0.0696109 0.090975 0.181549 0.090975 0.0696109
          0.0898483 0.1719 0.215581 0.181549 0.1719 0.090975 0.181549 0.215581 0.1719 0.181549 0.188462 0.215581
          0 0.0160099 0.0696109 0.181549 0.0696109 0.10913 0.0696109 0.0160099 0.10913 0.00688416 0.0587936 0.0160099
          0.0587936 0.10913 0.0160099 0.0587936 0.147621 0.10913 0.182645 0.181549 0.10913 0.181549 0.182645 0.188462
          0.175237 0.188462 0.182645 0.147621 0.182645 0.10913 0.147621 0.175237 0.182645 0 0 0
          0.175237 0.120482 0.188462 0.000421039 0.000904192 2.64066e-05 0.000421039 0.00526614 0.000904192 4.18192e-06 2.64066e-05 6.68085e-05
          0.000904192 6.68085e-05 2.64066e-05 4.18192e-06 6.68085e-05 8.40778e-06 0.000345042 6.68085e-05 0.000904192 0.0898483 0.000904192 0.00526614
          0.0898483 0.00526614 0.1719 0.0898483 0.0199769 0.000904192 0.000345042 0.000904192 0.0199769 0.000345042 0.0199769 0.00353463
          0.000345042 8.40778e-06 6.68085e-05 8.40778e-06 0.000126536 8.31399e-06 7.92563e-07 2.4014e-08 8.40778e-06 7.92563e-07 8.40778e-06 8.31399e-06
          8.31399e-06 1.44774e-05 7.92563e-07 0.000345042 0.000126536 8.40778e-06 0.000345042 0.00353463 0.000126536 0.000395376 0.000126536 0.00353463
          8.31399e-06 0.000126536 1.44774e-05 1.44774e-05 2.85532e-06 7.92563e-07 0.000395376 1.44774e-05 0.000126536 0.0898483 0.215581 0.131512
          0.0898483 0.0496917 0.0199769 0.0898483 0.131512 0.0496917 0.131512 0.215581 0.188462 0.131512 0.0391189 0.0496917
          0.131512 0.0942079 0.0391189 0.0132587 0.0199769 0.0496917 0.0132587 0.00353463 0.0199769 0.0132587 0.00180099 0.00353463
          0.0132587 0.0496917 0.0391189 0.0132587 0.0391189 0.0071516 0.0132587 0.0071516 0.00180099 0.131512 0.188462 0.0942079
          0.120482 0.0942079 0.188462 0.0449951 0.0391189 0.0942079 0.120482 0.0449951 0.0942079 0 0 0
          0 0 0 0 0 0 0 0 0 0.0131299 0.0071516 0.0391189
          0.0449951 0.0131299 0.0391189 0.0131299 0.00183691 0.0071516 0 0 0 0 0 0
          0 0 0 0.000395376 0.00353463 0.00180099 0.00183691 0.00180099 0.0071516 0.000395376 0.00180099 0.000165169
          0.000336851 0.000165169 0.00180099 0.000395376 3.60836e-05 1.44774e-05 0.000395376 0.000165169 3.60836e-05 2.76995e-06 1.44774e-05 3.60836e-05
          2.76995e-06 3.60836e-05 2.57239e-06 3.60836e-05 0.000165169 1.52738e-05 3.5736e-05 1.52738e-05 0.000165169 3.60836e-05 1.52738e-05 2.57239e-06
          2.08319e-06 2.57239e-06 1.52738e-05 0.00183691 0.000336851 0.00180099 0 0 0 0.000336851 3.5736e-05 0.000165169
          0 0 0 0 0 0 0 0 0 0 0 0
          0 0 0 0 0 0 3.5736e-05 2.08319e-06 1.52738e-05 0 0 0
          0 0 0 0 0 0 0 0 0 0 0 0
          1.92055e-12 1.16146e-10 1.54739e-12 1.27728e-11 2.53685e-13 1.54739e-12 1.27728e-11 2.50957e-13 2.53685e-13 1.27728e-11 1.54739e-12 1.16146e-10
          1.16146e-10 6.25741e-10 1.27728e-11 2.50957e-13 7.46656e-15 2.53685e-13 6.76739e-15 7.46656e-15 2.50957e-13 6.76739e-15 2.06341e-16 1.93882e-16
          6.76739e-15 2.50957e-13 6.53461e-15 6.76739e-15 6.53461e-15 2.06341e-16 1.27728e-11 7.83281e-13 2.50957e-13 1.82656e-14 2.50957e-13 7.83281e-13
          1.82656e-14 6.53461e-15 2.50957e-13 3.39228e-16 6.53461e-15 1.82656e-14 1.27728e-11 6.25741e-10 2.71396e-11 6.25741e-10 1.08976e-09 2.71396e-11
          1.27728e-11 2.71396e-11 7.83281e-13 5.10518e-11 1.08976e-09 6.62191e-09 7.92563e-07 6.62191e-09 1.08976e-09 5.10518e-11 2.71396e-11 1.08976e-09
          5.10518e-11 1.7354e-12 2.71396e-11 5.10518e-11 1.52908e-10 1.7354e-12 5.66823e-13 7.83281e-13 2.71396e-11 5.66823e-13 1.82656e-14 7.83281e-13
          5.66823e-13 1.14093e-14 1.82656e-14 4.05197e-16 3.21369e-16 1.82656e-14 4.05197e-16 1.82656e-14 1.14093e-14 5.66823e-13 2.71396e-11 1.7354e-12
          5.66823e-13 1.7354e-12 5.27728e-14 2.57748e-12 5.27728e-14 1.7354e-12 2.57748e-12 5.7048e-14 5.27728e-14 5.66823e-13 5.27728e-14 1.14093e-14
          1.53772e-15 1.14093e-14 5.27728e-14 1.53772e-15 1.32358e-16 1.14093e-14 1.53772e-15 5.27728e-14 5.7048e-14 5.52641e-18 1.93882e-16 2.06341e-16
          3.39228e-16 2.06341e-16 6.53461e-15 5.52641e-18 2.06341e-16 6.87661e-18 3.39228e-16 6.87661e-18 2.06341e-16 5.52641e-18 6.87661e-18 1.27616e-19
          1.34443e-21 1.27616e-19 2.14867e-21 1.23703e-19 1.27616e-19 6.87661e-18 1.23703e-19 2.14867e-21 1.27616e-19 3.39228e-16 7.26043e-18 6.87661e-18
          3.39228e-16 1.82656e-14 3.21369e-16 3.39228e-16 3.21369e-16 7.26043e-18 1.23703e-19 6.87661e-18 2.8963e-19 1.23703e-19 9.02831e-21 2.14867e-21
          1.23703e-19 2.8963e-19 9.02831e-21 7.26043e-18 2.8963e-19 6.87661e-18 6.62568e-19 9.02831e-21 2.8963e-19 1.34443e-21 2.14867e-21 4.75796e-22
          1.34443e-21 4.75796e-22 1.74909e-23 4.75796e-22 2.21858e-23 1.74909e-23 5.26783e-20 4.75796e-22 2.14867e-21 7.69297e-25 1.74909e-23 2.21858e-23
          7.69297e-25 2.21858e-23 4.55089e-23 6.77686e-07 8.66791e-09 6.34924e-09 6.77686e-07 1.45549e-06 8.66791e-09 4.75796e-22 2.14185e-21 2.21858e-23
          4.55089e-23 2.21858e-23 2.14185e-21 1.45549e-06 3.39535e-06 3.75998e-08 5.26783e-20 2.14867e-21 9.02831e-21 5.26783e-20 2.14185e-21 4.75796e-22
          6.62568e-19 7.39574e-18 9.02831e-21 5.26783e-20 9.02831e-21 7.39574e-18 5.26783e-20 7.39574e-18 2.46068e-19 5.26783e-20 2.46068e-19 2.14185e-21
          4.55089e-23 2.14185e-21 1.98933e-21 1.98933e-21 2.14185e-21 5.11406e-20 2.46068e-19 5.11406e-20 2.14185e-21 1.98933e-21 5.11406e-20 4.84955e-19
          2.46068e-19 7.25926e-18 5.11406e-20 4.84955e-19 5.11406e-20 7.25926e-18 4.05197e-16 7.73562e-18 3.21369e-16 7.26043e-18 3.21369e-16 7.73562e-18
          4.05197e-16 1.14093e-14 1.32358e-16 4.05197e-16 1.32358e-16 7.73562e-18 7.26043e-18 2.11601e-17 2.8963e-19 2.11601e-17 7.26043e-18 7.73562e-18
          2.8963e-19 2.11601e-17 6.62568e-19 2.11601e-17 7.86741e-16 6.62568e-19 2.11601e-17 7.73562e-18 3.1323e-15 2.11601e-17 8.47044e-14 7.86741e-16
          3.1323e-15 7.73562e-18 1.32358e-16 1.53772e-15 7.06594e-17 1.32358e-16 1.32358e-16 7.06594e-17 3.12966e-16 3.1323e-15 1.32358e-16 3.12966e-16
          2.11601e-17 3.1323e-15 8.47044e-14 3.1323e-15 3.12966e-16 8.02309e-13 3.1323e-15 1.48578e-11 8.47044e-14 1.31477e-11 8.47044e-14 1.48578e-11
          6.62568e-19 7.86741e-16 7.39574e-18 7.86741e-16 8.34417e-16 7.39574e-18 8.34417e-16 2.18417e-17 7.39574e-18 8.34417e-16 7.86741e-16 8.78634e-14
          8.34417e-16 8.78634e-14 1.60476e-15 2.46068e-19 7.39574e-18 2.18417e-17 2.46068e-19 2.18417e-17 7.25926e-18 4.84955e-19 7.25926e-18 1.09133e-16
          5.31942e-16 7.25926e-18 2.18417e-17 1.09133e-16 7.25926e-18 2.67006e-15 8.34417e-16 1.60476e-15 2.18417e-17 5.31942e-16 2.18417e-17 1.60476e-15
          5.31942e-16 2.67006e-15 7.25926e-18 5.31942e-16 3.00078e-13 2.67006e-15 8.78634e-14 7.86741e-16 8.47044e-14 6.00925e-14 8.78634e-14 1.61126e-12
          1.31477e-11 8.78634e-14 8.47044e-14 1.31477e-11 1.61126e-12 8.78634e-14 6.00925e-14 1.60476e-15 8.78634e-14 6.00925e-14 5.31942e-16 1.60476e-15
          6.00925e-14 3.00078e-13 5.31942e-16 6.00925e-14 1.61126e-12 6.6547e-12 6.00925e-14 4.21748e-11 3.00078e-13 6.00925e-14 6.6547e-12 4.21748e-11
          7.92563e-07 1.04464e-08 6.62191e-09 7.92563e-07 -2.19879e-09 1.04464e-08 5.10518e-11 6.62191e-09 1.52908e-10 1.52908e-10 6.62191e-09 1.04464e-08
          4.89574e-10 1.52908e-10 1.04464e-08 4.89574e-10 7.70052e-12 1.52908e-10 -2.19879e-09 5.37052e-09 1.04464e-08 2.76995e-06 2.85532e-06 1.44774e-05
          0.000194808 3.60956e-06 -2.19879e-09 -2.19879e-09 3.60956e-06 5.37052e-09 4.89574e-10 1.04464e-08 5.37052e-09 4.89574e-10 5.37052e-09 1.70432e-07
          1.70432e-07 5.37052e-09 3.60956e-06 4.89574e-10 1.70432e-07 5.21191e-09 2.57748e-12 1.7354e-12 1.52908e-10 2.57748e-12 1.90031e-13 5.7048e-14
          2.57748e-12 1.52908e-10 7.70052e-12 2.57748e-12 7.70052e-12 1.90031e-13 3.25304e-15 5.7048e-14 1.90031e-13 1.53772e-15 5.7048e-14 3.25304e-15
          1.53772e-15 3.25304e-15 7.06594e-17 2.4186e-13 3.25304e-15 1.90031e-13 4.89574e-10 2.81601e-11 7.70052e-12 2.81601e-11 1.90031e-13 7.70052e-12
          4.89574e-10 5.21191e-09 2.81601e-11 2.81601e-11 5.21191e-09 1.40792e-10 2.81601e-11 1.40792e-10 1.84982e-12 2.4186e-13 1.90031e-13 2.81601e-11
          2.4186e-13 3.17739e-15 3.25304e-15 2.4186e-13 2.04807e-15 3.17739e-15 2.4186e-13 2.81601e-11 1.84982e-12 2.4186e-13 1.84982e-12 3.23404e-14
          2.4186e-13 3.23404e-14 2.04807e-15 1.70432e-07 3.60956e-06 1.45829e-05 0.000194808 1.45829e-05 3.60956e-06 2.2834e-07 2.76995e-06 2.57239e-06
          2.2834e-07 2.57239e-06 2.08319e-06 0.00100344 1.45829e-05 0.000194808 0.00100344 3.67456e-05 1.45829e-05 5.20243e-07 1.70432e-07 1.45829e-05
          5.20243e-07 5.21191e-09 1.70432e-07 3.67456e-05 5.20243e-07 1.45829e-05 5.20243e-07 9.59272e-09 5.21191e-09 0.000558223 7.02998e-06 0.000384702
          0 0 0 0 0 0 0.000874549 1.81013e-05 0.00020346 0.000874549 0.00021056 1.81013e-05
          0 0 0 0 0 0 0.00021056 3.16164e-06 1.81013e-05 -6.71992e-07 3.16164e-06 0.00021056
          0.00020346 7.02998e-06 0.000558223 0.00020346 1.81013e-05 7.02998e-06 5.15403e-07 7.02998e-06 1.81013e-05 5.15403e-07 1.81013e-05 3.16164e-06
          5.15403e-07 8.51816e-08 7.02998e-06 3.72893e-06 7.02998e-06 8.51816e-08 5.15403e-07 7.40827e-08 8.51816e-08 9.59272e-09 1.40792e-10 5.21191e-09
          1.11379e-10 1.84982e-12 1.40792e-10 9.59272e-09 1.11379e-10 1.40792e-10 0.000384702 1.099e-05 0.000709976 0.000709976 1.099e-05 1.33725e-05
          1.42533e-12 3.23404e-14 1.84982e-12 1.11379e-10 1.42533e-12 1.84982e-12 1.22793e-14 2.04807e-15 3.23404e-14 1.42533e-12 1.22793e-14 3.23404e-14
          0.000709976 1.33725e-05 0.000616469 0.000616469 1.33725e-05 1.14076e-05 0.000616469 1.14076e-05 0.000698462 0.000698462 1.14076e-05 2.31634e-05
          0.000384702 7.02998e-06 3.72893e-06 0.000384702 3.72893e-06 1.099e-05 1.78393e-07 1.099e-05 3.72893e-06 1.78393e-07 1.33725e-05 1.099e-05
          1.78393e-07 3.72893e-06 4.4981e-08 3.72893e-06 8.51816e-08 4.4981e-08 1.78393e-07 4.4981e-08 1.22068e-09 1.78393e-07 1.22068e-09 2.95451e-09
          1.78393e-07 2.53098e-07 1.33725e-05 1.14076e-05 1.33725e-05 2.53098e-07 1.78393e-07 2.95451e-09 2.53098e-07 7.55573e-08 1.14076e-05 2.53098e-07
          7.55573e-08 5.67467e-07 1.14076e-05 7.55573e-08 2.53098e-07 2.95451e-09 5.4715e-14 3.12966e-16 7.06594e-17 5.4715e-14 7.06594e-17 3.25304e-15
          5.4715e-14 8.02309e-13 3.12966e-16 5.4715e-14 3.25304e-15 3.17739e-15 5.4715e-14 3.69504e-10 8.02309e-13 5.4715e-14 1.67081e-10 3.69504e-10
          3.1323e-15 8.02309e-13 1.48578e-11 3.69504e-10 1.48578e-11 8.02309e-13 7.69049e-09 2.34813e-09 1.48578e-11 7.69049e-09 1.48578e-11 3.69504e-10
          5.4715e-14 3.17739e-15 1.67081e-10 1.67081e-10 3.17739e-15 2.04807e-15 1.67081e-10 2.04807e-15 9.77174e-08 1.67081e-10 9.77174e-08 3.09256e-07
          7.69049e-09 3.69504e-10 3.09256e-07 1.67081e-10 3.09256e-07 3.69504e-10 7.69049e-09 1.95649e-06 5.87108e-07 4.73758e-05 3.09256e-07 9.77174e-08
          7.69049e-09 3.09256e-07 1.95649e-06 0.000119652 1.95649e-06 3.09256e-07 1.31477e-11 1.48578e-11 2.34813e-09 1.31477e-11 2.34813e-09 1.9113e-10
          1.31477e-11 1.9113e-10 1.61126e-12 1.9113e-10 6.6547e-12 1.61126e-12 2.40948e-08 1.9113e-10 2.34813e-09 2.40948e-08 2.53993e-08 1.9113e-10
          1.5168e-09 6.6547e-12 1.9113e-10 1.5168e-09 4.21748e-11 6.6547e-12 1.5168e-09 1.01728e-08 4.21748e-11 1.5168e-09 1.9113e-10 2.53993e-08
          1.5168e-09 2.53993e-08 7.74541e-07 1.5168e-09 7.74541e-07 1.01728e-08 4.16779e-08 1.01728e-08 7.74541e-07 7.69049e-09 5.87108e-07 2.34813e-09
          2.40948e-08 2.34813e-09 5.87108e-07 2.40948e-08 5.87108e-07 2.72474e-06 2.40948e-08 2.72474e-06 2.7717e-06 0.00014255 2.72474e-06 5.87108e-07
          0.00014255 5.87108e-07 1.95649e-06 0.000229181 2.7717e-06 2.72474e-06 0.00014255 0.000229181 2.72474e-06 2.40948e-08 2.7717e-06 2.53993e-08
          7.74541e-07 2.53993e-08 2.7717e-06 4.16779e-08 7.74541e-07 2.85183e-06 0.000148965 7.74541e-07 2.7717e-06 0.000229181 0.000148965 2.7717e-06
          0.000148965 2.85183e-06 7.74541e-07 0.000148965 0.000199834 2.85183e-06 1.22793e-14 7.82442e-06 2.04807e-15 7.82442e-06 9.77174e-08 2.04807e-15
          7.82442e-06 4.73758e-05 9.77174e-08 0.000869316 3.10853e-05 0.000540104 0.000698462 2.31634e-05 0.000869316 0.000869316 2.31634e-05 3.10853e-05
          0.000540104 3.10853e-05 7.48802e-06 4.73758e-05 0.000119652 3.09256e-07 0.000119652 0.00014255 1.95649e-06 0.000540104 2.07923e-05 0.000842521
          0.000842521 2.07923e-05 3.10111e-05 0.000540104 7.48802e-06 2.07923e-05 3.99584e-07 2.07923e-05 7.48802e-06 7.82863e-07 3.10111e-05 2.07923e-05
          3.99584e-07 7.82863e-07 2.07923e-05 1.14076e-05 5.67467e-07 2.31634e-05 7.3185e-07 2.31634e-05 5.67467e-07 7.3185e-07 3.10853e-05 2.31634e-05
          7.3185e-07 7.48802e-06 3.10853e-05 7.3185e-07 6.68899e-08 7.48802e-06 7.55573e-08 1.72163e-08 5.67467e-07 7.3185e-07 5.67467e-07 1.72163e-08
          7.3185e-07 1.72163e-08 6.68899e-08 1.23465e-09 6.68899e-08 1.72163e-08 3.99584e-07 7.48802e-06 6.68899e-08 3.99584e-07 1.54323e-08 7.82863e-07
          3.99584e-07 6.68899e-08 7.90538e-09 8.89691e-10 7.90538e-09 6.68899e-08 3.99584e-07 7.90538e-09 1.54323e-08 2.89512e-10 1.54323e-08 7.90538e-09
          0.000842521 3.10111e-05 0.000700414 0.000700414 3.10111e-05 1.34049e-05 0.000700414 1.34049e-05 0.000507228 0.000507228 1.34049e-05 1.21716e-05
          7.82863e-07 1.34049e-05 3.10111e-05 7.82863e-07 1.85507e-07 1.34049e-05 2.95695e-07 1.34049e-05 1.85507e-07 0.000507228 1.21716e-05 0.000351814
          0.000351814 4.65151e-06 0.000243203 0.000351814 1.21716e-05 4.65151e-06 2.95695e-07 1.21716e-05 1.34049e-05 2.95695e-07 4.65151e-06 1.21716e-05
          2.95695e-07 6.09517e-08 4.65151e-06 7.82863e-07 1.54323e-08 1.85507e-07 3.2853e-09 1.85507e-07 1.54323e-08 3.2853e-09 5.22116e-09 1.85507e-07
          3.2853e-09 1.54323e-08 2.36941e-10 2.89512e-10 2.36941e-10 1.54323e-08 3.2853e-09 7.94929e-11 5.22116e-09 3.2853e-09 2.36941e-10 7.94929e-11
          2.95695e-07 1.85507e-07 5.22116e-09 2.95695e-07 5.22116e-09 4.3253e-09 2.95695e-07 4.3253e-09 6.09517e-08 1.08049e-09 6.09517e-08 4.3253e-09
          8.90221e-11 4.3253e-09 5.22116e-09 8.90221e-11 5.22116e-09 7.94929e-11 8.90221e-11 5.71409e-11 4.3253e-09 1.08049e-09 4.3253e-09 5.71409e-11
          4.01159e-25 7.04707e-27 3.95196e-26 4.01159e-25 3.95196e-26 1.03424e-22 5.31757e-24 3.95196e-26 8.71089e-25 5.31757e-24 1.03424e-22 3.95196e-26
          4.01159e-25 1.03424e-22 2.02356e-22 2.17344e-24 4.01159e-25 2.02356e-22 2.17344e-24 2.02356e-22 3.32113e-19 2.73396e-21 2.17344e-24 3.32113e-19
          2.73396e-21 3.32113e-19 2.7342e-20 5.31757e-24 1.12911e-21 1.03424e-22 1.03424e-22 1.12911e-21 3.70764e-20 1.75637e-19 3.70764e-20 1.12911e-21
          7.73212e-20 1.03424e-22 3.70764e-20 7.73212e-20 2.02356e-22 1.03424e-22 1.75637e-19 6.13532e-18 3.70764e-20 1.75637e-19 1.01884e-17 6.13532e-18
          6.13532e-18 1.29602e-17 3.70764e-20 7.73212e-20 3.70764e-20 1.29602e-17 1.76933e-15 1.29602e-17 6.13532e-18 7.73212e-20 3.32113e-19 2.02356e-22
          7.73212e-20 1.0668e-16 3.32113e-19 9.00694e-18 2.7342e-20 3.32113e-19 9.00694e-18 3.32113e-19 1.0668e-16 7.73212e-20 1.29602e-17 1.0668e-16
          1.0668e-16 1.29602e-17 4.10525e-16 9.00694e-18 1.0668e-16 2.22784e-15 3.02736e-22 2.73396e-21 2.7342e-20 3.02736e-22 2.7342e-20 1.70191e-18
          1.62483e-20 3.02736e-22 1.70191e-18 1.62483e-20 1.70191e-18 5.75336e-18 1.13199e-19 1.62483e-20 5.75336e-18 9.00694e-18 1.70191e-18 2.7342e-20
          9.00694e-18 7.3941e-16 1.70191e-18 2.08309e-17 1.70191e-18 7.3941e-16 9.00694e-18 2.22784e-15 7.3941e-16 2.08309e-17 5.75336e-18 1.70191e-18
          2.08309e-17 3.74982e-15 5.75336e-18 2.08309e-17 7.3941e-16 3.74982e-15 5.75336e-18 3.74982e-15 1.45544e-16 1.01884e-17 6.17272e-16 8.63683e-16
          8.63683e-16 6.13532e-18 1.01884e-17 1.76933e-15 6.13532e-18 8.63683e-16 8.63683e-16 3.46138e-14 6.73764e-14 1.76933e-15 4.10525e-16 1.29602e-17
          1.76933e-15 8.63683e-16 2.00906e-13 8.63683e-16 6.73764e-14 2.00906e-13 2.59855e-13 6.73764e-14 4.58134e-12 2.59855e-13 2.00906e-13 6.73764e-14
          2.59855e-13 1.83089e-11 2.00906e-13 1.76933e-15 2.00906e-13 3.65319e-14 2.98494e-12 3.65319e-14 2.00906e-13 3.27404e-14 1.0668e-16 4.10525e-16
          1.76933e-15 3.65319e-14 4.10525e-16 3.27404e-14 4.10525e-16 3.65319e-14 3.27404e-14 2.22784e-15 1.0668e-16 3.27404e-14 2.68341e-13 2.22784e-15
          3.27404e-14 3.65319e-14 3.52564e-12 2.98494e-12 3.52564e-12 3.65319e-14 3.27404e-14 3.52564e-12 2.68341e-13 5.86891e-11 1.83089e-11 4.58134e-12
          1.83089e-11 2.59855e-13 4.58134e-12 2.75606e-11 2.00906e-13 1.83089e-11 5.86891e-11 1.58151e-09 1.83089e-11 2.75606e-11 1.83089e-11 1.58151e-09
          2.75606e-11 1.58151e-09 1.26587e-09 2.98494e-12 2.00906e-13 2.75606e-11 2.98494e-12 2.75606e-11 2.85018e-10 2.75606e-11 1.26587e-09 2.85018e-10
          5.7325e-08 1.58151e-09 9.03827e-08 5.7325e-08 1.26587e-09 1.58151e-09 2.0512e-08 1.26587e-09 5.7325e-08 8.96036e-11 6.34924e-09 8.66791e-09
          8.96036e-11 8.66791e-09 4.95912e-11 5.43379e-13 8.96036e-11 4.95912e-11 2.0512e-08 2.85018e-10 1.26587e-09 6.80989e-09 2.85018e-10 2.0512e-08
          2.98494e-12 2.85018e-10 3.52564e-12 2.85018e-10 1.38731e-10 3.52564e-12 1.82246e-11 2.68341e-13 3.52564e-12 1.82246e-11 3.52564e-12 1.38731e-10
          6.80989e-09 1.38731e-10 2.85018e-10 1.16628e-09 1.38731e-10 6.80989e-09 1.16628e-09 1.82246e-11 1.38731e-10 1.73721e-13 7.3941e-16 2.22784e-15
          3.74982e-15 7.3941e-16 1.73721e-13 1.73721e-13 2.22784e-15 2.68341e-13 1.73721e-13 2.68341e-13 1.75362e-11 1.73721e-13 4.4688e-13 3.74982e-15
          4.68463e-14 3.74982e-15 4.4688e-13 1.82246e-11 1.75362e-11 2.68341e-13 1.73721e-13 1.75362e-11 4.4688e-13 1.16628e-09 1.75362e-11 1.82246e-11
          5.08801e-10 1.75362e-11 1.16628e-09 5.08801e-10 1.82117e-11 1.75362e-11 4.4688e-13 1.75362e-11 1.82117e-11 1.285e-11 4.4688e-13 1.82117e-11
          1.13199e-19 5.75336e-18 1.45544e-16 4.68463e-14 1.45544e-16 3.74982e-15 1.285e-11 4.68463e-14 4.4688e-13 4.98512e-10 4.95912e-11 8.66791e-09
          1.45549e-06 3.75998e-08 8.66791e-09 4.98512e-10 8.66791e-09 3.75998e-08 4.98512e-10 3.75998e-08 6.25381e-08 5.43379e-13 4.95912e-11 2.46917e-12
          4.98512e-10 2.46917e-12 4.95912e-11 1.13032e-14 5.43379e-13 2.46917e-12 4.98512e-10 4.27099e-10 2.46917e-12 1.94628e-11 6.81023e-14 2.46917e-12
          3.39535e-06 6.25381e-08 3.75998e-08 3.39535e-06 7.21229e-06 6.25381e-08 4.98512e-10 6.25381e-08 4.27099e-10 3.19741e-09 4.27099e-10 6.25381e-08
          7.21229e-06 2.17295e-07 6.25381e-08 3.19741e-09 6.25381e-08 2.17295e-07 1.94628e-11 2.46917e-12 4.27099e-10 1.94628e-11 4.27099e-10 3.19741e-09
          1.94628e-11 3.19741e-09 2.31237e-09 1.13032e-14 2.46917e-12 6.81023e-14 1.06596e-10 1.13032e-14 6.81023e-14 1.06596e-10 6.81023e-14 3.76717e-13
          1.94628e-11 3.04344e-13 6.81023e-14 1.94628e-11 5.25206e-11 3.04344e-13 3.04344e-13 3.76717e-13 6.81023e-14 3.88873e-13 3.76717e-13 3.04344e-13
          3.88873e-13 3.04344e-13 4.50001e-13 7.21229e-06 1.33915e-05 2.17295e-07 3.19741e-09 2.17295e-07 2.47776e-07 1.33915e-05 2.47776e-07 2.17295e-07
          1.09133e-16 2.67006e-15 1.36585e-14 1.36585e-14 2.67006e-15 3.00078e-13 1.33915e-05 2.03127e-05 2.47776e-07 2.03127e-05 6.55962e-07 2.47776e-07
          3.19741e-09 2.47776e-07 2.31237e-09 1.94628e-11 2.31237e-09 5.25206e-11 7.38488e-09 5.25206e-11 2.31237e-09 7.38488e-09 2.31237e-09 2.47776e-07
          7.38488e-09 2.47776e-07 6.55962e-07 1.36585e-14 3.00078e-13 9.31938e-13 2.03127e-05 4.81582e-05 6.55962e-07 4.81582e-05 1.94083e-06 6.55962e-07
          9.31938e-13 3.00078e-13 4.21748e-11 9.31938e-13 4.21748e-11 4.75369e-11 4.81582e-05 8.20354e-05 1.94083e-06 7.38488e-09 6.55962e-07 3.55436e-08
          3.55436e-08 6.55962e-07 1.94083e-06 7.38488e-09 3.55436e-08 5.41273e-10 8.20354e-05 1.71275e-06 1.94083e-06 3.55436e-08 1.94083e-06 1.71275e-06
          2.64716e-08 3.55436e-08 1.71275e-06 3.04344e-13 5.25206e-11 4.50001e-13 7.38488e-09 5.41273e-10 5.25206e-11 1.2396e-11 4.50001e-13 5.25206e-11