<?xml version="1.0"?>
<VTKFile type="UnstructuredGrid" version="0.1" byte_order="LittleEndian">
  <UnstructuredGrid>
    <Piece NumberOfCells="1536" NumberOfPoints="1617">
      <CellData Scalars="S_aq">
        <DataArray type="Float32" Name="S_aq" NumberOfComponents="1" format="ascii">
          1 1 1 1 1 1 1 1 1 1 1 1
          1 1 1 1 1 1 1 1 1 1 1 1
          1 1 1 1 1 1 1 1 1 1 1 1
          1 1 1 1 1 1 1 1 1 1 1 1
          1 1 1 1 1 1 1 1 1 1 1 1
          1 1 1 1 1 1 1 1 1 1 1 1
          1 1 1 1 1 1 1 1 1 1 1 1
          1 1 1 1 1 1 1 1 1 1 1 1
          1 1 1 1 1 1 1 1 1 1 1 1
          1 1 1 1 1 1 1 1 1 1 1 1
          1 1 1 1 1 1 1 1 1 1 1 1
          1 1 1 1 1 1 1 1 1 1 1 1
          1 1 1 1 1 1 1 1 1 1 1 1
          1 1 1 1 1 1 1 1 1 1 1 1
          1 1 1 1 1 1 1 1 1 1 1 1
          1 1 1 1 1 1 1 1 1 1 1 1
          1 1 1 1 1 1 1 1 1 1 1 1
          1 1 1 1 1 1 1 1 1 1 1 1
          1 1 1 1 1 1 1 1 1 1 1 1
          1 1 1 1 1 1 1 1 1 1 1 1
          1 1 1 1 1 1 1 1 1 1 1 1
          1 1 1 1 1 1 1 1 1 1 1 1
          1 1 1 1 1 1 1 1 1 1 1 1
          1 1 1 1 1 1 1 1 1 1 1 1
          1 1 1 1 1 1 1 1 1 1 1 1
          1 1 1 1 1 1 1 1 1 1 1 1
          1 1 1 1 1 1 1 1 1 1 1 1
          1 1 1 1 1 1 1 1 1 1 1 1
          1 1 1 1 1 1 1 1 1 1 1 1
          1 1 1 1 1 1 1 1 1 1 1 1
          1 1 1 1 1 1 1 1 1 1 1 1
          1 1 1 1 1 1 1 1 1 1 1 1
          1 1 1 1 1 1 1 1 1 1 1 1
          1 1 1 1 1 1 1 1 1 1 1 1
          1 1 1 1 1 1 1 1 1 1 1 1
          1 1 1 1 1 1 1 1 1 1 1 1
          1 1 1 1 1 1 1 1 1 1 1 1
          1 1 1 1 1 1 1 1 1 1 1 1
          1 1 1 1 1 1 1 1 1 1 1 1
          1 1 1 1 1 1 1 1 1 1 1 1
          1 1 1 1 1 1 1 1 1 1 1 1
          1 1 1 1 1 1 1 1 1 1 1 1
          1 1 1 1 1 1 1 1 1 1 1 1
          1 1 1 1 1 1 1 1 1 1 1 1
          1 1 1 1 1 1 1 1 1 1 1 1
          1 1 1 1 1 1 1 1 1 1 1 1
          1 1 1 1 1 1 1 1 1 1 1 1
          1 1 1 1 1 1 1 1 1 1 1 1
          1 1 1 1 1 1 1 1 1 1 1 1
          1 1 1 1 1 1 1 1 1 1 1 1
          1 1 1 1 1 1 1 1 1 1 1 1
          1 1 1 1 1 1 1 1 1 1 1 1
          1 1 1 1 1 1 1 1 1 1 1 1
          1 1 1 1 1 1 1 1 1 1 1 1
          1 1 1 1 1 1 1 1 1 1 1 1
          1 1 1 1 1 1 1 1 1 1 1 1
          1 1 1 1 1 1 1 1 1 1 1 1
          1 1 1 1 1 1 1 1 1 1 1 1
          1 1 1 1 1 1 1 1 1 1 1 1
          1 1 1 1 1 1 1 1 1 1 1 1
          1 1 1 1 1 1 1 1 1 1 1 1
          1 1 1 1 1 1 1 1 1 1 1 1
          1 1 1 1 1 1 1 1 1 1 1 1
          1 1 1 1 1 1 1 1 1 1 1 1
          1 1 1 1 1 1 1 1 1 1 1 1
          1 1 1 1 1 1 1 1 1 1 1 1
          1 1 1 1 1 1 1 1 1 1 1 1
          1 1 1 1 1 1 1 1 1 1 1 1
          1 1 1 1 1 1 1 1 1 1 1 1
          1 1 1 0.999778 0.994336 0.98003 0.966994 0.960621 0.961627 0.970252 0.984974 0.997406
          0.999981 1 1 1 1 1 1 1 1 1 1 1
          1 1 1 1 1 1 1 1 1 1 1 1
          1 1 1 1 1 1 1 1 1 1 1 1
          1 0.995404 0.962094 0.935151 0.907459 0.881555 0.862706 0.853021 0.854605 0.867444 0.889166 0.917298
          0.943171 0.976798 0.999354 1 1 1 1 1 1 1 1 1
          1 1 1 1 1 1 1 1 1 1 1 1
          1 1 1 1 1 1 1 1 1 1 1 0.995973
          0.950948 0.910385 0.855342 0.798524 0.750119 0.714591 0.691163 0.679795 0.681726 0.69722 0.725086 0.765687
          0.819249 0.876825 0.929144 0.972458 0.999836 1 1 1 1 1 1 1
          1 1 1 1 1 1 1 1 1 1 1 1
          1 1 1 1 1 1 1 1 1 0.99977 0.964192 0.912105
          0.837071 0.754903 0.682904 0.623259 0.57879 0.547931 0.52851 0.519452 0.52107 0.533771 0.557402 0.59343
          0.644242 0.709882 0.787565 0.870898 0.936486 0.991475 1 1 1 1 1 1
          1 1 1 1 1 1 1 1 1 1 1 1
          1 1 1 1 1 1 0.999991 0.999977 0.986975 0.934956 0.86011 0.759997
          0.665456 0.585392 0.523539 0.476704 0.442672 0.419265 0.404693 0.39799 0.399232 0.40881 0.426773 0.454401
          0.493774 0.547105 0.616931 0.705516 0.805795 0.90109 0.963032 0.999852 0.999997 1 1 1
          1 1 1 1 1 1 1 1 1 1 1 1
          1 1 1 1 0.999999 0.999816 0.998707 0.998201 0.892648 0.804189 0.695808 0.594854
          0.513211 0.449754 0.40188 0.366231 0.340318 0.322379 0.311178 0.306044 0.307023 0.31445 0.328349 0.34962
          0.379764 0.420854 0.475826 0.548191 0.640081 0.749575 0.860443 0.936912 0.99918 0.999704 0.999994 1
          1 1 1 1 1 1 1 1 1 1 1 1
          1 1 1 0.999995 0.999403 0.996098 0.990252 0.987514 0.736323 0.643461 0.545046 0.461886
          0.39641 0.345816 0.307159 0.278051 0.256728 0.241913 0.232684 0.22851 0.229396 0.235604 0.247185 0.264839
          0.289685 0.323245 0.367618 0.425577 0.500456 0.594644 0.705223 0.810299 0.992099 0.995202 0.99895 0.999978
          1 1 1 1 1 1 1 1 1 1 1 1
          1 1 0.999994 0.999141 0.994247 0.980851 0.959804 0.942465 0.956481 0.944801 0.9328 0.921517
          0.910938 0.900942 0.891604 0.88316 0.875955 0.870335 0.866523 0.864629 0.864774 0.867046 0.871298 0.877424
          0.885201 0.894269 0.904282 0.91501 0.926434 0.938664 0.951709 0.964647 0.958308 0.976533 0.992256 0.99845
          0.999972 1 1 1 1 1 1 1 1 1 1 1
          1 0.999997 0.999319 0.994136 0.977053 0.946478 0.910708 0.876979 0.850029 0.820382 0.792331 0.766446
          0.742543 0.720476 0.700387 0.682707 0.668037 0.656916 0.649554 0.645962 0.646264 0.650648 0.65896 0.671223
          0.687236 0.706436 0.728218 0.752179 0.778246 0.806617 0.83751 0.870419 0.901675 0.93731 0.970276 0.991838
          0.998696 0.999987 1 1 1 1 1 1 1 1 1 1
          1 0.999726 0.99573 0.980678 0.94789 0.905143 0.860056 0.817248 0.778156 0.741597 0.70788 0.676865
          0.648317 0.622179 0.59868 0.578336 0.561838 0.549749 0.542022 0.538343 0.538663 0.543187 0.551976 0.565415
          0.583576 0.605853 0.631528 0.660099 0.691392 0.725537 0.762831 0.803432 0.846859 0.892928 0.937876 0.974392
          0.993998 0.999404 0.999998 1 1 1 1 1 1 1 1 1
          0.999963 0.998033 0.988443 0.959639 0.91619 0.866752 0.817732 0.772095 0.730374 0.692107 0.656878 0.624296
          0.594109 0.566309 0.541203 0.519447 0.501999 0.489726 0.482245 0.478791 0.47906 0.483245 0.491705 0.50532
          0.524522 0.548356 0.575814 0.606241 0.639379 0.675311 0.714376 0.757014 0.803496 0.853531 0.904718 0.951205
          0.984149 0.996941 0.999892 1 1 1 1 1 1 1 1 1
          0.999592 0.994759 0.97596 0.93748 0.887763 0.835392 0.785369 0.73945 0.697572 0.659104 0.623399 0.589947
          0.558449 0.52889 0.501632 0.477557 0.458204 0.445451 0.438235 0.435056 0.435258 0.439011 0.447066 0.46109
          0.482238 0.508454 0.538116 0.570343 0.604822 0.641653 0.681239 0.724174 0.771055 0.822046 0.875811 0.927855
          0.969992 0.993105 0.999272 0.999997 1 1 1 1 1 1 1 1
          0.998696 0.990636 0.963082 0.918262 0.865241 0.811853 0.761947 0.716409 0.674784 0.636245 0.600002 0.565417
          0.532068 0.499818 0.468978 0.440629 0.417272 0.403717 0.396952 0.394197 0.394334 0.397507 0.404952 0.419697
          0.444951 0.475516 0.508785 0.543688 0.579979 0.617891 0.657965 0.700945 0.74764 0.798579 0.853165 0.908068
          0.956061 0.987451 0.997927 0.99996 1 1 1 1 1 1 1 1
          0.997494 0.985663 0.952709 0.904146 0.849586 0.796005 0.746442 0.701262 0.659766 0.620981 0.583976 0.547938
          0.512189 0.476238 0.439968 0.404168 0.372177 0.358041 0.352345 0.350301 0.350384 0.352699 0.358907 0.374129
          0.408268 0.446404 0.485122 0.523687 0.562311 0.601598 0.642352 0.68551 0.732054 0.782759 0.837473 0.893669
          0.94495 0.981599 0.996424 0.999843 1 1 1 1 1 1 1 1
          0.996695 0.982463 0.946729 0.896494 0.841379 0.787839 0.738505 0.6935 0.651998 0.612938 0.575271 0.537991
          0.500071 0.460358 0.417433 0.36954 0.315071 0.302293 0.298682 0.297626 0.297669 0.298872 0.302816 0.316487
          0.373622 0.42396 0.469311 0.511581 0.55231 0.592774 0.634127 0.677503 0.724014 0.774568 0.829233 0.885907
          0.938657 0.977938 0.995457 0.99972 1 1 1 1 1 1 1 1
        </DataArray>
        <DataArray type="Float32" Name="p_aq" NumberOfComponents="1" format="ascii">
          100004 100011 100018 100025 100032 100038 100045 100051 100057 100063 100069 100074
          100079 100083 100087 100091 100094 100097 100099 100101 100102 100103 100104 100104
          100103 100102 100101 100099 100097 100094 100091 100087 100084 100080 100075 100071
          100066 100061 100056 100050 100045 100039 100033 100027 100021 100015 100009 100003
          100004 100011 100018 100025 100032 100038 100045 100051 100057 100063 100069 100074
          100079 100083 100088 100091 100095 100097 100100 100102 100103 100104 100104 100104
          100104 100103 100101 100099 100097 100094 100091 100088 100084 100080 100076 100071
          100066 100061 100056 100050 100045 100039 100033 100027 100021 100015 100009 100003
          100004 100011 100018 100025 100032 100039 100045 100052 100058 100064 100070 100075
          100080 100084 100088 100092 100095 100098 100101 100102 100104 100105 100105 100105
          100104 100103 100102 100100 100098 100095 100092 100088 100085 100080 100076 100071
          100067 100061 100056 100051 100045 100039 100033 100028 100021 100015 100009 100003
          100004 100011 100018 100025 100032 100039 100046 100053 100059 100065 100070 100076
          100081 100085 100090 100093 100097 100100 100102 100104 100105 100106 100107 100106
          100106 100105 100103 100101 100099 100096 100093 100089 100086 100081 100077 100072
          100067 100062 100057 100051 100045 100040 100034 100028 100022 100016 100009 100003
          100004 100011 100018 100026 100033 100040 100047 100053 100060 100066 100072 100077
          100082 100087 100091 100095 100099 100102 100104 100106 100107 100108 100108 100108
          100108 100107 100105 100103 100100 100098 100094 100091 100087 100082 100078 100073
          100068 100063 100057 100052 100046 100040 100034 100028 100022 100016 100009 100003
          100004 100011 100019 100026 100034 100041 100048 100055 100061 100067 100073 100079
          100084 100089 100094 100097 100101 100104 100106 100108 100110 100111 100111 100111
          100110 100109 100107 100105 100102 100099 100096 100092 100088 100084 100079 100074
          100069 100064 100058 100053 100047 100041 100035 100028 100022 100016 100010 100003
          100004 100012 100019 100027 100035 100042 100049 100056 100063 100069 100075 100081
          100087 100092 100096 100100 100104 100107 100109 100111 100113 100114 100114 100114
          100113 100112 100110 100108 100105 100102 100098 100094 100090 100086 100081 100076
          100070 100065 100059 100053 100047 100041 100035 100029 100023 100016 100010 100003
          100004 100012 100020 100028 100036 100043 100051 100058 100065 100071 100078 100084
          100089 100095 100099 100103 100107 100110 100113 100115 100116 100117 100117 100117
          100116 100115 100113 100111 100108 100104 100101 100097 100092 100088 100083 100077
          100072 100066 100060 100054 100048 100042 100036 100029 100023 100016 100010 100003
          100004 100012 100021 100029 100037 100045 100052 100060 100067 100074 100080 100087
          100093 100098 100103 100107 100111 100114 100117 100119 100120 100121 100121 100121
          100120 100119 100117 100114 100111 100107 100104 100099 100095 100090 100085 100079
          100074 100068 100062 100056 100049 100043 100037 100030 100023 100017 100010 100003
          100004 100013 100021 100030 100038 100046 100054 100062 100069 100077 100084 100090
          100096 100102 100107 100111 100115 100119 100122 100124 100125 100126 100126 100126
          100125 100123 100121 100118 100115 100111 100107 100102 100098 100092 100087 100081
          100075 100069 100063 100057 100050 100044 100037 100031 100024 100017 100010 100003
          100004 100013 100022 100031 100039 100048 100056 100064 100072 100080 100087 100094
          100100 100106 100111 100116 100120 100124 100127 100129 100131 100131 100131 100131
          100130 100128 100125 100122 100119 100115 100110 100106 100101 100095 100090 100084
          100078 100071 100065 100058 100052 100045 100038 100031 100024 100017 100010 100004
          100005 100014 100023 100032 100041 100050 100059 100067 100075 100083 100091 100098
          100105 100111 100117 100122 100126 100130 100133 100135 100137 100137 100137 100137
          100135 100133 100131 100127 100123 100119 100114 100109 100104 100098 100092 100086
          100080 100073 100067 100060 100053 100046 100039 100032 100025 100018 100011 100004
          100005 100014 100024 100033 100043 100052 100061 100070 100079 100087 100095 100103
          100110 100116 100122 100128 100133 100137 100140 100142 100144 100144 100144 100143
          100142 100139 100136 100133 100128 100124 100119 100113 100108 100102 100095 100089
          100082 100075 100068 100062 100054 100047 100040 100033 100026 100018 100011 100004
          100005 100015 100025 100035 100045 100054 100064 100073 100082 100091 100100 100108
          100115 100122 100129 100135 100140 100144 100147 100150 100151 100152 100152 100151
          100149 100146 100143 100139 100134 100129 100124 100118 100112 100105 100098 100092
          100085 100078 100070 100063 100056 100049 100041 100034 100026 100019 100011 100004
          100005 100016 100026 100036 100046 100057 100067 100077 100086 100096 100105 100113
          100122 100129 100136 100142 100148 100152 100156 100158 100160 100160 100160 100159
          100157 100153 100150 100145 100140 100135 100129 100122 100116 100109 100102 100095
          100087 100080 100072 100065 100057 100050 100042 100035 100027 100019 100012 100004
          100005 100016 100027 100038 100049 100059 100070 100080 100090 100100 100110 100119
          100128 100136 100144 100151 100157 100161 100165 100168 100170 100170 100169 100168
          100165 100162 100157 100152 100147 100141 100134 100127 100120 100113 100105 100098
          100090 100082 100075 100067 100059 100051 100043 100035 100028 100020 100012 100004
          100006 100017 100028 100039 100051 100062 100073 100084 100095 100106 100116 100126
          100136 100144 100153 100160 100166 100172 100176 100179 100180 100181 100180 100178
          100175 100171 100166 100160 100154 100147 100140 100132 100125 100117 100109 100101
          100093 100085 100077 100069 100061 100052 100044 100036 100028 100020 100012 100004
          100006 100018 100029 100041 100053 100064 100076 100088 100100 100111 100122 100133
          100143 100153 100162 100170 100177 100183 100187 100191 100192 100192 100191 100189
          100185 100180 100175 100168 100161 100154 100146 100138 100129 100121 100113 100104
          100096 100087 100079 100070 100062 100054 100045 100037 100029 100021 100012 100004
          100006 100018 100030 100043 100055 100067 100080 100092 100104 100117 100129 100141
          100152 100163 100173 100182 100190 100196 100201 100205 100206 100206 100204 100201
          100197 100191 100185 100177 100169 100161 100152 100143 100134 100125 100116 100107
          100099 100090 100081 100072 100064 100055 100047 100038 100030 100021 100013 100004
          100006 100019 100031 100044 100057 100070 100083 100096 100109 100123 100136 100149
          100161 100173 100185 100195 100205 100213 100219 100222 100224 100224 100221 100216
          100210 100203 100195 100187 100178 100168 100159 100149 100139 100130 100120 100111
          100101 100092 100083 100074 100065 100056 100048 100039 100030 100022 100013 100004
          100006 100019 100032 100046 100059 100072 100086 100100 100114 100128 100143 100157
          100171 100186 100200 100212 100223 100232 100239 100243 100244 100243 100240 100235
          100227 100218 100208 100197 100187 100176 100165 100155 100144 100134 100124 100114
          100104 100094 100085 100076 100067 100058 100049 100040 100031 100022 100013 100004
          100007 100020 100033 100047 100061 100075 100089 100104 100119 100134 100150 100167
          100184 100200 100216 100230 100242 100252 100259 100263 100265 100264 100260 100254
          100245 100234 100222 100210 100197 100184 100172 100160 100149 100138 100127 100116
          100106 100096 100087 100077 100068 100059 100049 100040 100031 100022 100013 100004
          100007 100020 100034 100048 100062 100077 100091 100107 100124 100141 100159 100178
          100197 100215 100232 100247 100260 100270 100278 100282 100284 100283 100278 100271
          100262 100250 100237 100223 100208 100193 100179 100165 100153 100141 100130 100119
          100109 100098 100088 100079 100069 100060 100050 100041 100032 100023 100014 100005
          100007 100021 100034 100049 100063 100078 100094 100109 100129 100148 100168 100188
          100208 100227 100244 100260 100273 100284 100292 100297 100299 100297 100293 100285
          100275 100263 100249 100234 100218 100201 100186 100171 100156 100144 100132 100121
          100110 100100 100090 100080 100070 100061 100051 100042 100032 100023 100014 100005
          100007 100021 100035 100049 100064 100079 100096 100114 100132 100150 100170 100189
          100209 100227 100245 100260 100273 100284 100292 100297 100299 100298 100293 100286
          100276 100264 100250 100236 100220 100204 100189 100174 100161 100147 100135 100123
          100112 100101 100091 100081 100071 100061 100052 100042 100033 100023 100014 100005
          100007 100021 100035 100049 100064 100080 100099 100118 100137 100156 100175 100195
          100215 100233 100251 100267 100281 100292 100301 100306 100308 100306 100301 100294
          100283 100271 100257 100242 100226 100210 100195 100179 100165 100150 100136 100124
          100113 100102 100092 100082 100072 100062 100052 100043 100033 100024 100014 100005
          100007 100020 100034 100048 100064 100083 100102 100122 100143 100163 100184 100204
          100225 100245 100264 100282 100297 100310 100320 100326 100328 100325 100319 100310
          100298 100284 100269 100253 100236 100219 100202 100186 100170 100154 100138 100125
          100114 100103 100093 100083 100072 100063 100053 100043 100033 100024 100014 100005
          100007 100020 100034 100048 100066 100086 100106 100128 100150 100171 100193 100215
          100238 100259 100281 100301 100319 100335 100346 100353 100354 100351 100344 100332
          100317 100301 100283 100265 100247 100229 100211 100193 100175 100158 100142 100127
          100115 100104 100093 100083 100073 100063 100053 100043 100034 100024 100014 100005
          100007 100020 100033 100049 100068 100089 100111 100133 100156 100179 100203 100226
          100250 100274 100298 100322 100344 100362 100376 100383 100385 100381 100371 100356
          100338 100319 100298 100278 100258 100238 100218 100199 100180 100162 100145 100129
          100115 100104 100094 100083 100073 100063 100053 100044 100034 100024 100014 100005
          100006 100019 100033 100050 100070 100091 100114 100138 100161 100186 100210 100235
          100261 100287 100314 100342 100368 100390 100407 100416 100418 100412 100399 100380
          100358 100334 100311 100289 100267 100245 100225 100204 100185 100165 100147 100131
          100116 100104 100094 100084 100074 100064 100054 100044 100034 100024 100015 100005
          100006 100019 100033 100051 100071 100093 100117 100141 100165 100190 100216 100242
          100269 100297 100326 100358 100390 100418 100438 100449 100451 100443 100427 100403
          100374 100347 100321 100296 100273 100251 100229 100208 100188 100168 100149 100132
          100117 100104 100094 100084 100074 100064 100054 100044 100034 100024 100015 100005
          100006 100019 100033 100052 100072 100095 100118 100142 100167 100192 100218 100245
          100272 100301 100332 100367 100409 100443 100466 100478 100480 100471 100452 100422
          100384 100353 100325 100300 100276 100253 100231 100210 100189 100169 100150 100133
          100117 100104 100094 100084 100074 100064 100054 100044 100034 100024 100015 100005
        </DataArray>
        <DataArray type="Float32" Name="rho_aq" NumberOfComponents="1" format="ascii">
          1000 1000 1000 1000 1000 1000 1000 1000 1000 1000 1000 1000
          1000 1000 1000 1000 1000 1000 1000 1000 1000 1000 1000 1000
          1000 1000 1000 1000 1000 1000 1000 1000 1000 1000 1000 1000
          1000 1000 1000 1000 1000 1000 1000 1000 1000 1000 1000 1000
          1000 1000 1000 1000 1000 1000 1000 1000 1000 1000 1000 1000
          1000 1000 1000 1000 1000 1000 1000 1000 1000 1000 1000 1000
          1000 1000 1000 1000 1000 1000 1000 1000 1000 1000 1000 1000
          1000 1000 1000 1000 1000 1000 1000 1000 1000 1000 1000 1000
          1000 1000 1000 1000 1000 1000 1000 1000 1000 1000 1000 1000
          1000 1000 1000 1000 1000 1000 1000 1000 1000 1000 1000 1000
          1000 1000 1000 1000 1000 1000 1000 1000 1000 1000 1000 1000
          1000 1000 1000 1000 1000 1000 1000 1000 1000 1000 1000 1000
          1000 1000 1000 1000 1000 1000 1000 1000 1000 1000 1000 1000
          1000 1000 1000 1000 1000 1000 1000 1000 1000 1000 1000 1000
          1000 1000 1000 1000 1000 1000 1000 1000 1000 1000 1000 1000
          1000 1000 1000 1000 1000 1000 1000 1000 1000 1000 1000 1000
          1000 1000 1000 1000 1000 1000 1000 1000 1000 1000 1000 1000
          1000 1000 1000 1000 1000 1000 1000 1000 1000 1000 1000 1000
          1000 1000 1000 1000 1000 1000 1000 1000 1000 1000 1000 1000
          1000 1000 1000 1000 1000 1000 1000 1000 1000 1000 1000 1000
          1000 1000 1000 1000 1000 1000 1000 1000 1000 1000 1000 1000
          1000 1000 1000 1000 1000 1000 1000 1000 1000 1000 1000 1000
          1000 1000 1000 1000 1000 1000 1000 1000 1000 1000 1000 1000
          1000 1000 1000 1000 1000 1000 1000 1000 1000 1000 1000 1000
          1000 1000 1000 1000 1000 1000 1000 1000 1000 1000 1000 1000
          1000 1000 1000 1000 1000 1000 1000 1000 1000 1000 1000 1000
          1000 1000 1000 1000 1000 1000 1000 1000 1000 1000 1000 1000
          1000 1000 1000 1000 1000 1000 1000 1000 1000 1000 1000 1000
          1000 1000 1000 1000 1000 1000 1000 1000 1000 1000 1000 1000
          1000 1000 1000 1000 1000 1000 1000 1000 1000 1000 1000 1000
          1000 1000 1000 1000 1000 1000 1000 1000 1000 1000 1000 1000
          1000 1000 1000 1000 1000 1000 1000 1000 1000 1000 1000 1000
          1000 1000 1000 1000 1000 1000 1000 1000 1000 1000 1000 1000
          1000 1000 1000 1000 1000 1000 1000 1000 1000 1000 1000 1000
          1000 1000 1000 1000 1000 1000 1000 1000 1000 1000 1000 1000
          1000 1000 1000 1000 1000 1000 1000 1000 1000 1000 1000 1000
          1000 1000 1000 1000 1000 1000 1000 1000 1000 1000 1000 1000
          1000 1000 1000 1000 1000 1000 1000 1000 1000 1000 1000 1000
          1000 1000 1000 1000 1000 1000 1000 1000 1000 1000 1000 1000
          1000 1000 1000 1000 1000 1000 1000 1000 1000 1000 1000 1000
          1000 1000 1000 1000 1000 1000 1000 1000 1000 1000 1000 1000
          1000 1000 1000 1000 1000 1000 1000 1000 1000 1000 1000 1000
          1000 1000 1000 1000 1000 1000 1000 1000 1000 1000 1000 1000
          1000 1000 1000 1000 1000 1000 1000 1000 1000 1000 1000 1000
          1000 1000 1000 1000 1000 1000 1000 1000 1000 1000 1000 1000
          1000 1000 1000 1000 1000 1000 1000 1000 1000 1000 1000 1000
          1000 1000 1000 1000 1000 1000 1000 1000 1000 1000 1000 1000
          1000 1000 1000 1000 1000 1000 1000 1000 1000 1000 1000 1000
          1000 1000 1000 1000 1000 1000 1000 1000 1000 1000 1000 1000
          1000 1000 1000 1000 1000 1000 1000 1000 1000 1000 1000 1000
          1000 1000 1000 1000 1000 1000 1000 1000 1000 1000 1000 1000
          1000 1000 1000 1000 1000 1000 1000 1000 1000 1000 1000 1000
          1000 1000 1000 1000 1000 1000 1000 1000 1000 1000 1000 1000
          1000 1000 1000 1000 1000 1000 1000 1000 1000 1000 1000 1000
          1000 1000 1000 1000 1000 1000 1000 1000 1000 1000 1000 1000
          1000 1000 1000 1000 1000 1000 1000 1000 1000 1000 1000 1000
          1000 1000 1000 1000 1000 1000 1000 1000 1000 1000 1000 1000
          1000 1000 1000 1000 1000 1000 1000 1000 1000 1000 1000 1000
          1000 1000 1000 1000 1000 1000 1000 1000 1000 1000 1000 1000
          1000 1000 1000 1000 1000 1000 1000 1000 1000 1000 1000 1000
          1000 1000 1000 1000 1000 1000 1000 1000 1000 1000 1000 1000
          1000 1000 1000 1000 1000 1000 1000 1000 1000 1000 1000 1000
          1000 1000 1000 1000 1000 1000 1000 1000 1000 1000 1000 1000
          1000 1000 1000 1000 1000 1000 1000 1000 1000 1000 1000 1000
          1000 1000 1000 1000 1000 1000 1000 1000 1000 1000 1000 1000
          1000 1000 1000 1000 1000 1000 1000 1000 1000 1000 1000 1000
          1000 1000 1000 1000 1000 1000 1000 1000 1000 1000 1000 1000
          1000 1000 1000 1000 1000 1000 1000 1000 1000 1000 1000 1000
          1000 1000 1000 1000 1000 1000 1000 1000 1000 1000 1000 1000
          1000 1000 1000 1000 1000 1000 1000 1000 1000 1000 1000 1000
          1000 1000 1000 1000 1000 1000 1000 1000 1000 1000 1000 1000
          1000 1000 1000 1000 1000 1000 1000 1000 1000 1000 1000 1000
          1000 1000 1000 1000 1000 1000 1000 1000 1000 1000 1000 1000
          1000 1000 1000 1000 1000 1000 1000 1000 1000 1000 1000 1000
          1000 1000 1000 1000 1000 1000 1000 1000 1000 1000 1000 1000
          1000 1000 1000 1000 1000 1000 1000 1000 1000 1000 1000 1000
          1000 1000 1000 1000 1000 1000 1000 1000 1000 1000 1000 1000
          1000 1000 1000 1000 1000 1000 1000 1000 1000 1000 1000 1000
          1000 1000 1000 1000 1000 1000 1000 1000 1000 1000 1000 1000
          1000 1000 1000 1000 1000 1000 1000 1000 1000 1000 1000 1000
          1000 1000 1000 1000 1000 1000 1000 1000 1000 1000 1000 1000
          1000 1000 1000 1000 1000 1000 1000 1000 1000 1000 1000 1000
          1000 1000 1000 1000 1000 1000 1000 1000 1000 1000 1000 1000
          1000 1000 1000 1000 1000 1000 1000 1000 1000 1000 1000 1000
          1000 1000 1000 1000 1000 1000 1000 1000 1000 1000 1000 1000
          1000 1000 1000 1000 1000 1000 1000 1000 1000 1000 1000 1000
          1000 1000 1000 1000 1000 1000 1000 1000 1000 1000 1000 1000
          1000 1000 1000 1000 1000 1000 1000 1000 1000 1000 1000 1000
          1000 1000 1000 1000 1000 1000 1000 1000 1000 1000 1000 1000
          1000 1000 1000 1000 1000 1000 1000 1000 1000 1000 1000 1000
          1000 1000 1000 1000 1000 1000 1000 1000 1000 1000 1000 1000
          1000 1000 1000 1000 1000 1000 1000 1000 1000 1000 1000 1000
          1000 1000 1000 1000 1000 1000 1000 1000 1000 1000 1000 1000
          1000 1000 1000 1000 1000 1000 1000 1000 1000 1000 1000 1000
          1000 1000 1000 1000 1000 1000 1000 1000 1000 1000 1000 1000
          1000 1000 1000 1000 1000 1000 1000 1000 1000 1000 1000 1000
          1000 1000 1000 1000 1000 1000 1000 1000 1000 1000 1000 1000
          1000 1000 1000 1000 1000 1000 1000 1000 1000 1000 1000 1000
          1000 1000 1000 1000 1000 1000 1000 1000 1000 1000 1000 1000
          1000 1000 1000 1000 1000 1000 1000 1000 1000 1000 1000 1000
          1000 1000 1000 1000 1000 1000 1000 1000 1000 1000 1000 1000
          1000 1000 1000 1000 1000 1000 1000 1000 1000 1000 1000 1000
          1000 1000 1000 1000 1000 1000 1000 1000 1000 1000 1000 1000
          1000 1000 1000 1000 1000 1000 1000 1000 1000 1000 1000 1000
          1000 1000 1000 1000 1000 1000 1000 1000 1000 1000 1000 1000
          1000 1000 1000 1000 1000 1000 1000 1000 1000 1000 1000 1000
          1000 1000 1000 1000 1000 1000 1000 1000 1000 1000 1000 1000
          1000 1000 1000 1000 1000 1000 1000 1000 1000 1000 1000 1000
          1000 1000 1000 1000 1000 1000 1000 1000 1000 1000 1000 1000
          1000 1000 1000 1000 1000 1000 1000 1000 1000 1000 1000 1000
          1000 1000 1000 1000 1000 1000 1000 1000 1000 1000 1000 1000
          1000 1000 1000 1000 1000 1000 1000 1000 1000 1000 1000 1000
          1000 1000 1000 1000 1000 1000 1000 1000 1000 1000 1000 1000
          1000 1000 1000 1000 1000 1000 1000 1000 1000 1000 1000 1000
          1000 1000 1000 1000 1000 1000 1000 1000 1000 1000 1000 1000
          1000 1000 1000 1000 1000 1000 1000 1000 1000 1000 1000 1000
          1000 1000 1000 1000 1000 1000 1000 1000 1000 1000 1000 1000
          1000 1000 1000 1000 1000 1000 1000 1000 1000 1000 1000 1000
          1000 1000 1000 1000 1000 1000 1000 1000 1000 1000 1000 1000
          1000 1000 1000 1000 1000 1000 1000 1000 1000 1000 1000 1000
          1000 1000 1000 1000 1000 1000 1000 1000 1000 1000 1000 1000
          1000 1000 1000 1000 1000 1000 1000 1000 1000 1000 1000 1000
          1000 1000 1000 1000 1000 1000 1000 1000 1000 1000 1000 1000
          1000 1000 1000 1000 1000 1000 1000 1000 1000 1000 1000 1000
          1000 1000 1000 1000 1000 1000 1000 1000 1000 1000 1000 1000
          1000 1000 1000 1000 1000 1000 1000 1000 1000 1000 1000 1000
          1000 1000 1000 1000 1000 1000 1000 1000 1000 1000 1000 1000
          1000 1000 1000 1000 1000 1000 1000 1000 1000 1000 1000 1000
        </DataArray>
        <DataArray type="Float32" Name="mob_aq" NumberOfComponents="1" format="ascii">
          1000 1000 1000 1000 1000 1000 1000 1000 1000 1000 1000 1000
          1000 1000 1000 1000 1000 1000 1000 1000 1000 1000 1000 1000
          1000 1000 1000 1000 1000 1000 1000 1000 1000 1000 1000 1000
          1000 1000 1000 1000 1000 1000 1000 1000 1000 1000 1000 1000
          1000 1000 1000 1000 1000 1000 1000 1000 1000 1000 1000 1000
          1000 1000 1000 1000 1000 1000 1000 1000 1000 1000 1000 1000
          1000 1000 1000 1000 1000 1000 1000 1000 1000 1000 1000 1000
          1000 1000 1000 1000 1000 1000 1000 1000 1000 1000 1000 1000
          1000 1000 1000 1000 1000 1000 1000 1000 1000 1000 1000 1000
          1000 1000 1000 1000 1000 1000 1000 1000 1000 1000 1000 1000
          1000 1000 1000 1000 1000 1000 1000 1000 1000 1000 1000 1000
          1000 1000 1000 1000 1000 1000 1000 1000 1000 1000 1000 1000