<?xml version="1.0"?>
<VTKFile type="UnstructuredGrid" version="0.1" byte_order="LittleEndian">
  <UnstructuredGrid>
    <Piece NumberOfCells="5055" NumberOfPoints="5069">
      <PointData Scalars="S_aq">
        <DataArray type="Float32" Name="S_aq" NumberOfComponents="1" format="ascii">
          1 1 1 1 1 1 1 1 1 1 1 1
          1 1 1 1 1 1 1 1 1 1 1 1
          1 1 1 1 1 1 1 1 1 1 1 1
          1 1 1 1 1 1 1 1 1 1 1 1
          1 1 1 1 1 1 1 1 1 1 1 1
          1 1 1 1 1 1 1 1 1 1 1 1
          1 1 1 1 1 1 1 1 1 1 1 1
          1 1 1 1 1 1 1 1 1 1 1 1
          1 1 1 1 1 1 1 1 1 1 1 1
          1 1 1 1 1 1 1 1 1 1 1 1
          1 1 1 1 1 1 1 1 1 1 1 1
          1 1 1 1 1 1 1 1 1 1 1 1
          1 1 1 1 1 1 1 1 1 1 1 1
          1 1 1 1 1 1 1 1 1 1 1 1
          1 1 1 1 1 1 1 1 1 1 1 1
          1 1 1 1 1 1 1 1 1 1 1 1
          1 1 1 1 1 1 1 1 1 1 1 1
          1 1 1 1 1 1 1 1 1 1 1 1
          1 1 1 1 1 1 1 1 1 1 1 1
          1 1 1 1 1 1 1 1 1 1 1 1
          1 1 1 1 1 1 1 1 1 1 1 1
          1 1 1 1 1 1 1 1 1 1 1 1
          1 1 1 1 1 1 1 1 1 1 1 1
          1 1 1 1 1 1 1 1 1 1 1 1
          1 1 1 1 1 1 1 1 1 1 1 1
          1 1 1 1 1 1 1 1 1 1 1 1
          1 1 1 1 1 1 1 1 1 1 1 1
          1 1 1 1 1 1 1 1 1 1 1 1
          1 1 1 1 1 1 1 1 1 1 1 1
          1 1 1 1 1 1 1 1 1 1 1 1
          1 1 1 1 1 1 1 1 1 1 1 1
          1 1 1 1 1 1 1 1 1 1 1 1
          1 1 1 1 1 1 1 1 1 1 1 1
          1 1 1 1 1 1 1 1 1 1 1 1
          1 1 1 1 1 1 1 1 1 1 1 1
          1 1 1 1 1 1 1 1 1 1 1 1
          1 1 1 1 1 1 1 1 1 1 1 1
          1 1 1 1 1 1 1 1 1 1 1 1
          1 1 1 1 1 1 1 1 1 1 1 1
          1 1 1 1 1 1 1 1 1 1 1 1
          1 1 1 1 1 1 1 1 1 1 1 1
          1 1 1 1 1 1 1 1 1 1 1 1
          1 1 1 1 1 1 1 1 1 1 1 1
          1 1 1 1 1 1 1 1 1 1 1 1
          1 1 1 1 1 1 1 1 1 1 1 1
          1 1 1 1 1 1 1 1 1 1 1 1
          1 1 1 1 1 1 1 1 1 1 1 1
          1 1 1 1 1 1 1 1 1 1 1 1
          1 1 1 1 1 1 1 1 1 1 1 1
          1 1 1 1 1 1 1 1 1 1 1 1
          1 1 1 1 1 1 1 1 1 1 1 1
          1 1 1 1 1 1 1 1 1 1 1 1
          1 1 1 1 1 1 1 1 1 1 1 1
          1 1 1 1 1 1 1 1 1 1 1 1
          1 1 1 1 1 1 1 1 1 1 1 1
          1 1 1 1 1 1 1 1 1 1 1 1
          1 1 1 1 1 1 1 1 1 1 1 1
          1 1 1 1 1 1 1 1 1 1 1 1
          1 1 1 1 1 1 1 1 1 1 1 1
          1 1 1 1 1 1 1 1 1 1 1 1
          1 1 1 1 1 1 1 1 1 1 1 1
          1 1 1 1 1 1 1 1 1 1 1 1
          1 1 1 1 1 1 1 1 1 1 1 1
          1 1 1 1 1 1 1 1 1 1 1 1
          1 1 1 1 1 1 1 1 1 1 1 1
          1 1 1 1 1 1 1 1 1 1 1 1
          1 1 1 1 1 1 1 1 1 1 1 1
          1 1 1 1 1 1 1 1 1 1 1 1
          1 1 1 1 1 1 1 1 1 1 1 1
          1 1 1 1 1 1 1 1 1 1 1 1
          1 1 1 1 1 1 1 1 1 1 1 1
          1 1 1 1 1 1 1 1 1 1 1 1
          1 1 1 1 1 1 1 1 1 1 1 1
          1 1 1 1 1 1 1 1 1 1 1 1
          1 1 1 1 1 1 1 1 1 1 1 1
          1 1 1 1 1 1 1 1 1 1 1 1
          1 1 1 1 1 1 1 1 1 1 1 1
          1 1 1 1 1 1 1 1 1 1 1 1
          1 1 1 1 1 1 1 1 1 1 1 1
          1 1 1 1 1 1 1 1 1 1 1 1
          1 1 1 1 1 1 1 1 1 1 1 1
          1 1 1 1 1 1 1 1 1 1 1 1
          1 1 1 1 1 1 1 1 1 1 1 1
          1 1 1 1 1 1 1 1 1 1 1 1
          1 1 1 1 1 1 1 1 1 1 1 1
          1 1 1 1 1 1 1 1 1 1 1 1
          1 1 1 1 1 1 1 1 1 1 1 1
          1 1 1 1 1 1 1 1 1 1 1 1
          1 1 1 1 1 1 1 1 1 1 1 1
          1 1 1 1 1 1 1 1 1 1 1 1
          1 1 1 1 1 1 1 1 1 1 1 1
          1 1 1 1 1 1 1 1 1 1 1 1
          1 1 1 1 1 1 1 1 1 1 1 1
          1 1 1 1 1 1 1 1 1 1 1 1
          1 1 1 1 1 1 1 1 1 1 1 1
          1 1 1 1 1 1 1 1 1 1 1 1
          1 1 1 1 1 1 1 1 1 1 1 1
          1 1 1 1 1 1 1 1 1 1 1 1
          1 1 1 1 1 1 1 1 1 1 1 1
          1 1 1 1 1 1 1 1 1 1 1 1
          1 1 1 1 1 1 1 1 1 1 1 1
          1 1 1 1 1 1 1 1 1 0.932644 0.932645 0.930108
          0.930108 0.926781 0.926781 0.930103 0.926779 1 1 1 1 1 1 1
          1 1 1 1 1 1 1 1 1 1 1 1
          1 1 1 1 1 1 1 1 1 1 1 1
          1 1 1 0.983047 0.964871 0.982907 0.962981 0.992353 0.993415 0.946654 0.938768 0.942526
          0.935606 0.935901 0.934963 0.933582 0.933023 0.93467 0.934452 0.932878 0.932627 0.935627 0.935828 0.93448
          0.934532 0.932624 0.932639 0.936277 0.934552 0.936351 0.93456 0.936311 0.934552 0.935699 0.934494 0.932642
          0.93265 0.934651 0.9353 0.932892 0.933337 0.938594 0.949678 0.93636 0.94947 0.966122 0.978858 0.968625
          0.98247 0.993915 0.983023 0.965111 0.976724 0.96074 0.985061 0.957234 0.994857 0.946454 0.941952 0.935448
          0.935018 0.932154 0.931104 0.930848 0.929048 0.928332 0.926219 0.925961 0.926916 0.936193 0.929495 0.932317
          0.930317 0.930272 0.931658 0.92995 0.930097 0.927945 0.927896 0.927874 0.925818 0.925811 0.925833 0.928062
          0.925871 0.931513 0.929881 0.930303 0.927864 0.927775 0.925805 0.925744 0.931592 0.929945 0.930229 0.93033
          0.927814 0.927874 0.927941 0.925808 0.925838 0.92575 0.932408 0.930466 0.932123 0.939073 0.936212 0.952563
          0.929127 0.932781 0.951945 0.928175 0.953379 0.926348 0.928228 0.92596 0.972823 0.985958 0.979729 0.990004
          0.967875 1 0.999999 0.999999 0.999994 0.999999 0.999997 0.999994 0.999981 0.999966 0.99998 0.999963
          0.999938 0.999874 0.999814 0.999925 0.999995 0.999978 0.999991 0.999997 0.999991 0.999997 0.999991 0.999952
          0.999954 0.999997 0.999991 0.999999 0.999994 0.999955 0.99997 0.999916 0.999919 0.999946 0.999785 0.999853
          0.999769 0.999913 0.999753 0.999999 0.999997 0.999985 0.999996 1 1 0.999986 0.999998 0.999993
          0.999998 0.999957 0.999972 0.999921 1 1 1 1 1 1 1 1
          1 1 1 1 1 0.999948 0.999933 0.999959 1 1 0.99997 0.999978
          1 1 1 1 1 1 1 1 1 1 0.999999 0.999884
          0.999865 0.999901 1 0.999918 1 1 0.999999 0.999999 1 1 0.999997 0.999997
          0.999996 0.999994 0.999991 0.999801 0.999777 0.999823 0.999998 0.999846 1 1 0.999994 0.999994
          1 1 0.999992 0.999992 0.999984 0.999981 0.999979 0.999709 0.99969 0.999732 0.999987 0.999754
          1 1 0.99999 0.999991 1 1 0.999989 0.999991 0.999976 0.999975 0.999975 0.999648
          0.999644 0.999659 0.999977 0.999671 1 1 0.999989 0.999991 1 1 0.99999 0.999992
          0.999976 0.999977 0.999979 0.999655 0.999675 0.999648 0.999975 0.999641 1 1 0.999992 0.999994
          1 1 0.999994 0.999997 0.999984 0.999987 0.999991 0.999752 0.999786 0.999723 0.999981 0.999694
          1 1 0.999997 0.999999 1 1 0.999999 1 0.999996 0.999998 0.999999 0.999885
          0.999911 0.999852 0.999994 0.99982 1 1 1 1 1 1 1 1
          1 1 1 0.999968 0.999977 0.999952 1 0.999936 1 1 1 1
          1 1 1 1 0.999979 0.999999 0.999946 0.999999 0.999998 0.999913 0.999993 0.999838
          0.999998 1 1 0.999958 0.999872 0.999893 0.999712 0.999786 0.999687 0.99953 0.999353 0.999551
          0.999274 0.999003 0.998773 0.998366 0.999228 0.999828 0.999684 0.999584 0.999614 0.999165 0.999238 0.999645
          0.999758 0.999312 0.999524 0.998832 0.998957 0.999279 0.998362 0.998854 0.99814 0.99871 0.997931 0.999869
          0.999928 0.999734 0.999848 0.999986 0.999993 0.999962 0.99998 0.999768 0.999937 0.999968 0.999876 0.999935
          0.99961 0.999595 0.999338 1 1 0.999999 1 1 1 0.999999 1 1
          0.999997 0.999998 0.999993 1 1 1 0.999999 0.999997 1 1 1 1
          0.999993 0.999979 0.999991 0.999984 0.999958 0.999785 0.999614 0.999864 0.999999 0.999998 0.999942 0.999967
          1 1 1 0.999999 0.999966 0.999935 0.999999 0.999998 0.999999 0.999995 0.999904 0.999851
          0.99987 0.999809 0.999706 0.998859 0.998447 0.999151 0.999931 0.999443 0.999997 0.999991 0.999993 0.999981
          0.999798 0.999724 0.999987 0.999972 0.999956 0.99965 0.999555 0.999461 0.999317 0.999137 0.997036 0.996482
          0.997535 0.999603 0.998034 0.999941 0.999918 0.99946 0.999341 0.999895 0.999865 0.999223 0.999082 0.99873
          0.998504 0.99824 0.99475 0.994134 0.995338 0.998954 0.99593 0.999835 0.999801 0.998941 0.998789 0.999767
          0.99973 0.998637 0.998479 0.997694 0.997412 0.997125 0.992273 0.991652 0.992898 0.997976 0.993518 0.999691
          0.999648 0.998321 0.998158 0.999604 0.999559 0.997995 0.997834 0.99655 0.996261 0.99598 0.989798 0.989205
          0.990414 0.996839 0.991027 0.999514 0.999472 0.997674 0.997523 0.999429 0.999392 0.997373 0.997241 0.995439
          0.995177 0.994949 0.987505 0.987026 0.988058 0.9957 0.988611 0.999355 0.999331 0.99711 0.997021 0.999308
          0.999301 0.996932 0.996906 0.994566 0.99441 0.994362 0.985887 0.98578 0.986215 0.994722 0.986549 0.999294
          0.999308 0.996879 0.996929 0.999322 0.99936 0.99698 0.997114 0.994401 0.994489 0.99472 0.98604 0.986519
          0.985855 0.994315 0.98568 0.999398 0.999455 0.997248 0.997454 0.999511 0.999577 0.99766 0.997911 0.995311
          0.99567 0.996114 0.988517 0.989465 0.987759 0.994953 0.987006 0.999642 0.999707 0.998162 0.998422 0.999771
          0.999821 0.998682 0.998907 0.997028 0.9975 0.997917 0.992453 0.993396 0.991437 0.99656 0.990413 0.999871
          0.999904 0.999131 0.999291 0.999936 0.999954 0.999452 0.999556 0.998638 0.998941 0.999139 0.995877 0.996475
          0.995104 0.998333 0.994333 0.999987 0.999972 0.999993 0.999981 0.999659 0.999729 0.999997 0.999991 0.999999
          0.999995 0.999798 0.999846 0.99947 0.999602 0.999695 0.998015 0.998389 0.997544 0.999335 0.997072 0.999999
          0.999998 1 0.999999 0.999894 0.999923 1 1 1 0.999953 0.999966 0.999847 0.999906
          0.999938 0.99931 0.99949 0.999036 0.999788 0.998761 0.999996 0.999987 0.999974 0.999987 0.999763 0.999968
          0.999627 0.999959 0.999948 0.99949 0.999792 0.999208 0.999731 0.99997 0.999669 0.999539 0.998904 0.999285
          0.998384 0.998269 0.99769 0.997483 0.996709 0.997862 0.996694 0.995667 0.99562 0.994355 0.997118 0.999031
          0.99862 0.997081 0.997386 0.995928 0.996371 0.997727 0.998404 0.996886 0.997792 0.99528 0.996 0.997152
          0.994979 0.996412 0.993988 0.994673 0.993142 0.99907 0.999448 0.998691 0.99921 0.999813 0.999901 0.999705
          0.99984 0.998966 0.999595 0.999779 0.999453 0.999697 0.998674 0.998297 0.997836 0.999987 0.999994 0.999973
          0.999986 1 1 1 0.999979 1 1 0.999999 1 0.999966 0.999958 0.999932
          1 1 1 1 1 1 1 0.999999 0.999988 0.999999 0.999998 0.999977
          0.999962 0.999819 0.99998 1 0.999999 1 1 1 0.999997 0.999992 0.999977 0.999902
          0.999993 0.999984 0.999935 0.999826 0.999558 0.999811 0.999666 0.999171 0.998528 0.997092 0.999105 0.999955
          0.999676 0.999886 0.999735 0.999289 0.998684 0.999583 0.999261 0.998074 0.997064 0.997568 0.996466 0.994757
          0.990648 0.987173 0.993178 0.998666 0.995646 0.998934 0.998389 0.996053 0.994694 0.997838 0.997092 0.993341
          0.991715 0.990763 0.988417 0.985717 0.975441 0.971153 0.97955 0.993049 0.983629 0.996351 0.995485 0.990055
          0.988249 0.994623 0.993691 0.986423 0.984564 0.980135 0.977257 0.974411 0.958364 0.954371 0.962603 0.982993
          0.966836 0.992751 0.991745 0.982696 0.980872 0.990718 0.989665 0.979049 0.9773 0.968831 0.966108 0.963558
          0.943106 0.939798 0.946736 0.971555 0.950395 0.988606 0.987557 0.975545 0.973881 0.986506 0.985487 0.972216
          0.970643 0.958646 0.95629 0.954094 0.930577 0.927862 0.933532 0.961012 0.936519 0.984467 0.983478 0.969069
          0.967577 0.982486 0.981539 0.966086 0.96468 0.949859 0.947819 0.94591 0.92021 0.917913 0.922679 0.951908
          0.925174 0.98059 0.979712 0.963277 0.96199 0.978834 0.978078 0.960711 0.959613 0.942279 0.940566 0.939094
          0.911545 0.909789 0.913573 0.944013 0.915644 0.977326 0.976797 0.958533 0.957758 0.976278 0.9761 0.957015
          0.956728 0.936607 0.93562 0.935192 0.905662 0.905087 0.906829 0.93766 0.908103 0.975939 0.976201 0.95649
          0.956817 0.976485 0.977223 0.957206 0.95821 0.935219 0.935698 0.936942 0.905473 0.906796 0.904974 0.934858
          0.904662 0.977982 0.979163 0.959278 0.960944 0.980359 0.981875 0.962666 0.964886 0.940453 0.942718 0.94566
          0.91331 0.916711 0.910712 0.938314 0.908327 0.983397 0.98507 0.967142 0.969704 0.986742 0.988352 0.972275
          0.974888 0.952222 0.955799 0.959545 0.928882 0.9336 0.924524 0.948703 0.920299 0.98995 0.9913 0.977485
          0.979872 0.992622 0.993646 0.982239 0.984294 0.966884 0.970436 0.973626 0.947911 0.9524 0.943152 0.963297
          0.938375 0.994656 0.995475 0.986324 0.988076 0.996296 0.996969 0.9898 0.991306 0.97957 0.982331 0.984822
          0.965086 0.969037 0.960985 0.97677 0.956834 0.997647 0.998163 0.992785 0.994024 0.998676 0.999021 0.995259
          0.996247 0.989458 0.991592 0.993307 0.980427 0.983822 0.976707 0.987287 0.972947 0.999359 0.999498 0.997239
          0.997869 0.999634 0.998923 0.998493 0.997905 0.996116 0.997264 0.996827 0.992363 0.992896 0.989803 0.994971
          0.987161 0.998205 0.99637 0.997302 0.995225 0.994543 0.992964 0.99315 0.991263 0.994056 0.991727 0.989246
          0.98941 0.986521 0.991416 0.996364 0.993382 0.99144 0.992612 0.989428 0.991055 0.993928 0.995661 0.992812
          0.994883 0.989365 0.991672 0.994119 0.990498 0.993393 0.987567 0.987258 0.984829 0.997367 0.99838 0.996887
          0.998078 0.999308 0.999615 0.999157 0.999527 0.997779 0.999005 0.999439 0.998874 0.999364 0.997514 0.996415
          0.995988 0.999907 0.999953 0.999876 0.999936 0.999998 0.999999 0.999996 0.999999 0.999919 0.999994 0.999998
          0.999991 0.999998 0.999905 0.999844 0.999816 1 1 1 1 1 0.999999 0.999999
          0.999977 0.999999 0.999997 0.999955 0.999954 0.999764 0.999976 1 0.999999 1 0.999997 0.999961
          0.999955 0.999771 0.999925 0.999661 0.999587 0.998736 0.999581 0.999242 0.997778 0.997662 0.994587 0.998633
          0.999914 0.999573 0.999394 0.998374 0.997866 0.995435 0.997325 0.994925 0.992997 0.988244 0.99242 0.988348
          0.980948 0.976984 0.965467 0.984369 0.996268 0.991437 0.992523 0.988426 0.983322 0.976335 0.984208 0.978774
          0.969214 0.961058 0.96307 0.952655 0.941433 0.925238 0.910774 0.939482 0.973277 0.953613 0.973243 0.967182
          0.952813 0.944497 0.961069 0.95497 0.936194 0.928327 0.91934 0.908597 0.898724 0.870277 0.858701 0.883141
          0.930205 0.896455 0.948878 0.943113 0.92054 0.913396 0.937398 0.932152 0.906392 0.900107 0.88058 0.872334
          0.865052 0.828453 0.820277 0.837795 0.889136 0.847602 0.926982 0.922314 0.893999 0.888578 0.917726 0.913605
          0.883335 0.878682 0.851945 0.846083 0.840915 0.799354 0.793739 0.805764 0.858074 0.812524 0.909562 0.905924
          0.874169 0.870142 0.902362 0.899118 0.866237 0.862702 0.831562 0.827338 0.823536 0.779215 0.775206 0.783701
          0.835956 0.7884 0.895939 0.893012 0.859266 0.856117 0.890141 0.887486 0.853049 0.850218 0.81652 0.813279
          0.810299 0.764527 0.761467 0.767879 0.819866 0.771361 0.884886 0.882514 0.847463 0.844947 0.880208 0.878202
          0.842518 0.840394 0.804783 0.802257 0.800041 0.753304 0.751084 0.755851 0.807414 0.75852 0.876294 0.87482
          0.83839 0.836811 0.87349 0.872769 0.835406 0.834587 0.796312 0.794853 0.793966 0.74597 0.745126 0.747389
          0.797966 0.749021 0.872247 0.872486 0.834003 0.834155 0.872972 0.87432 0.834599 0.83589 0.793438 0.79386
          0.795123 0.745253 0.746625 0.744733 0.793341 0.744566 0.875949 0.878497 0.837516 0.84006 0.881342 0.885095
          0.842968 0.846813 0.799321 0.802295 0.806234 0.754296 0.758462 0.751126 0.79676 0.748404 0.889136 0.893972
          0.851025 0.856106 0.899051 0.904677 0.861519 0.867603 0.815904 0.821614 0.828102 0.774813 0.781766 0.768727
          0.810602 0.7631 0.910453 0.916405 0.873927 0.880577 0.922391 0.928212 0.887337 0.894079 0.842184 0.849635
          0.857178 0.8051 0.813349 0.796986 0.834916 0.789101 0.934006 0.939611 0.90084 0.90756 0.945195 0.95079
          0.914312 0.921342 0.872499 0.880328 0.888696 0.838846 0.848219 0.830182 0.864794 0.821704 0.956382 0.96202
          0.928456 0.93601 0.967621 0.97295 0.943634 0.951357 0.906818 0.916572 0.926812 0.880415 0.892778 0.868965
          0.897337 0.858008 0.978179 0.982571 0.959014 0.966069 0.986832 0.98855 0.972911 0.977209 0.947158 0.956994
          0.964366 0.931034 0.942145 0.918294 0.937127 0.905452 0.99015 0.988602 0.981238 0.981696 0.987006 0.983165
          0.981988 0.978657 0.974141 0.976601 0.973852 0.966637 0.968534 0.960005 0.971269 0.952765 0.982203 0.985727
          0.979348 0.983852 0.989335 0.992705 0.988288 0.992113 0.982148 0.987406 0.991609 0.986866 0.991334 0.980743
          0.976582 0.974061 0.995588 0.997261 0.995285 0.997082 0.998747 0.99929 0.99867 0.999249 0.99693 0.9986
          0.99921 0.998611 0.99922 0.996904 0.995036 0.994961 0.999788 0.99989 0.999775 0.999883 0.999989 0.999996
          0.999988 0.999996 0.999876 0.999987 0.999996 0.999988 0.999997 0.99988 0.999761 0.999768 0.999999 0.999997
          0.999954 0.999994 0.999912 0.999998 0.999911 0.999573 0.99983 0.999256 0.99987 0.999748 0.998939 0.999745
          0.998904 0.999868 0.999997 0.999991 0.999991 0.999998 0.99923 0.997679 0.998669 0.996345 0.996072 0.991387
          0.99397 0.987467 0.995027 0.991866 0.983507 0.990386 0.979213 0.994518 0.998103 0.997915 0.986409 0.976157
          0.980585 0.967438 0.965472 0.949866 0.953578 0.934405 0.957999 0.939775 0.915128 0.909924 0.872918 0.939761
          0.974561 0.964473 0.93389 0.915768 0.91449 0.892605 0.89758 0.879911 0.87085 0.849983 0.861284 0.833767
          0.807625 0.752875 0.71365 0.79331 0.889029 0.833776 0.862729 0.847056 0.829846 0.81158 0.832051 0.818694
          0.794265 0.778902 0.760251 0.739332 0.720903 0.611341 0.583934 0.642315 0.782719 0.676462 0.806009 0.794865
          0.76445 0.751784 0.784328 0.775156 0.739912 0.729609 0.689125 0.675523 0.663827 0.520778 0.505319 0.538908
          0.703891 0.559763 0.766515 0.759014 0.719959 0.711612 0.75194 0.745772 0.703775 0.696974 0.643756 0.635145
          0.627756 0.470425 0.461846 0.480443 0.653016 0.491888 0.739946 0.734844 0.690581 0.685011 0.729998 0.725698
          0.679741 0.675104 0.614904 0.609307 0.60445 0.441906 0.436857 0.447732 0.620852 0.454266 0.721595 0.71791
          0.670696 0.666783 0.71438 0.711189 0.663053 0.659733 0.59585 0.592053 0.588752 0.424878 0.421852 0.428401
          0.599857 0.432329 0.708133 0.705396 0.656576 0.653808 0.702802 0.700572 0.65121 0.64905 0.58299 0.580529
          0.578589 0.415014 0.413566 0.416933 0.585634 0.419165 0.698522 0.696936 0.647094 0.645683 0.695589 0.694852
          0.644538 0.644095 0.575764 0.574933 0.574899 0.411667 0.412131 0.411866 0.576861 0.412446 0.694428 0.694774
          0.643993 0.644768 0.695506 0.697142 0.645956 0.648155 0.57648 0.578163 0.580963 0.417152 0.420455 0.414815
          0.575199 0.413065 0.69922 0.702296 0.650819 0.654573 0.705853 0.71047 0.658826 0.664211 0.58866 0.593603
          0.599766 0.435679 0.443001 0.429631 0.584219 0.424489 0.71559 0.721773 0.670118 0.677152 0.728453 0.73609
          0.68471 0.693299 0.614426 0.622972 0.632699 0.472683 0.485678 0.461373 0.606479 0.451449 0.744149 0.752836
          0.702354 0.712097 0.76178 0.770878 0.722151 0.732352 0.654262 0.666009 0.678081 0.534586 0.553909 0.516636
          0.64304 0.500295 0.780094 0.789444 0.74272 0.753185 0.799021 0.809431 0.763932 0.775553 0.703219 0.716318
          0.730333 0.617917 0.640603 0.595834 0.690543 0.57444 0.820371 0.83273 0.787788 0.801557 0.845764 0.860018
          0.816121 0.832041 0.761184 0.778175 0.796523 0.711399 0.735931 0.687373 0.745006 0.66372 0.874787 0.890126
          0.848629 0.865996 0.905614 0.920223 0.883683 0.901206 0.835649 0.856179 0.87718 0.811737 0.837661 0.786152
          0.815629 0.760855 0.934438 0.945936 0.918549 0.934142 0.956764 0.964266 0.949094 0.961435 0.918971 0.939537
          0.959175 0.919495 0.957576 0.890729 0.898347 0.863917 0.972466 0.98006 0.972271 0.980541 0.986766 0.991293
          0.987523 0.991836 0.981938 0.988761 0.9926 0.991122 0.994122 0.985257 0.973307 0.976925 0.994993 0.996927
          0.995397 0.997206 0.998636 0.999234 0.998794 0.999325 0.997525 0.998959 0.999416 0.999229 0.999566 0.998119
          0.995905 0.996862 0.999776 0.999884 0.999808 0.999901 0.999989 0.999996 0.999991 0.999997 0.999918 0.999994
          0.999998 0.999996 0.999999 0.999941 0.999841 0.999885 0.999997 0.999991 0.999868 0.999994 0.999908 0.999998
          0.999746 0.998947 0.999822 0.999218 0.999947 0.999897 0.999487 0.999932 0.999611 0.999962 0.999999 0.999997
          0.999999 1 0.998074 0.995459 0.998582 0.996525 0.992837 0.987022 0.994446 0.990071 0.997579 0.996003
          0.992664 0.996819 0.993983 0.998093 0.999066 0.999288 0.981098 0.971641 0.98555 0.978332 0.962095 0.950546
          0.971376 0.963167 0.983121 0.977245 0.970271 0.980398 0.974037 0.985718 0.989129 0.991043 0.93876 0.926573
          0.955202 0.947551 0.914046 0.901362 0.940254 0.9337 0.95713 0.951155 0.946023 0.956598 0.952072 0.962014
          0.963471 0.967763 0.888208 0.874804 0.927514 0.921937 0.860734 0.846173 0.916628 0.911763 0.937345 0.933744
          0.930695 0.941656 0.939246 0.944623 0.941331 0.947984 0.830907 0.815212 0.907066 0.902678 0.799093 0.782887
          0.898403 0.894349 0.925619 0.923509 0.92169 0.933986 0.932792 0.935454 0.927951 0.937149 0.766698 0.750843
          0.890355 0.886521 0.735437 0.720717 0.882733 0.879076 0.918559 0.917197 0.915972 0.930115 0.929457 0.930885
          0.920024 0.931749 0.706747 0.693666 0.875471 0.87199 0.681482 0.670261 0.868582 0.865315 0.913756 0.912746
          0.911817 0.927831 0.927388 0.928327 0.914815 0.928856 0.659975 0.650659 0.862156 0.859176 0.642271 0.634842
          0.856356 0.853778 0.910131 0.90938 0.908732 0.926269 0.925996 0.926607 0.910932 0.926972 0.628337 0.622805
          0.851433 0.849427 0.618232 0.61471 0.847761 0.846585 0.907724 0.90741 0.907344 0.925587 0.925745 0.925634
          0.908154 0.925762 0.612253 0.611012 0.845908 0.845939 0.611036 0.612539 0.846671 0.848347 0.908039 0.908931
          0.910426 0.927816 0.929431 0.926792 0.907484 0.926075 0.615591 0.620446 0.850899 0.854528 0.627166 0.635982
          0.859052 0.864552 0.915003 0.918081 0.921757 0.937324 0.94103 0.934189 0.912366 0.931466 0.646902 0.660046
          0.870724 0.877504 0.675302 0.692589 0.884549 0.891719 0.930008 0.934358 0.938714 0.953463 0.957644 0.949212
          0.925721 0.944985 0.711594 0.731958 0.898748 0.905501 0.75312 0.774511 0.911844 0.917687 0.946941 0.95073
          0.954122 0.96881 0.971734 0.965358 0.94295 0.961678 0.795481 0.815379 0.923081 0.927898 0.833662 0.84987
          0.932269 0.936016 0.960041 0.962581 0.964652 0.978507 0.979971 0.976594 0.957314 0.974452 0.863946 0.875887
          0.939385 0.942244 0.886072 0.894916 0.944858 0.947306 0.968124 0.969583 0.970904 0.983186 0.983988 0.982279
          0.966578 0.981268 0.902759 0.910062 0.949683 0.952187 0.916894 0.923558 0.954741 0.957467 0.973595 0.975022
          0.976559 0.986364 0.987238 0.985552 0.972213 0.984752 0.930038 0.936456 0.960284 0.963253 0.942829 0.949388
          0.966354 0.969753 0.979852 0.981629 0.983612 0.990099 0.991216 0.989099 0.978158 0.988142 0.956101 0.963146
          0.973383 0.977381 0.970603 0.977518 0.981724 0.985777 0.98809 0.990649 0.992917 0.995033 0.996279 0.99366
          0.985725 0.992375 0.984383 0.989111 0.99007 0.992988 0.993449 0.995702 0.995823 0.997303 0.996764 0.998274
          0.998909 0.999152 0.999455 0.998377 0.99524 0.99759 0.997833 0.998706 0.998689 0.999205 0.999492 0.999714
          0.999692 0.999825 0.999696 0.999887 0.999937 0.999944 0.999968 0.999848 0.999502 0.999752 0.999929 0.999964
          0.999958 0.999979 0.999998 0.999999 0.999999 1 0.999993 1 1 0.999999 0.999986 0.999993
          1 1 0.999986 0.999979 0.999967 0.999734 0.999961 0.999712 0.999977 0.999955 0.99969 0.999945
          0.999661 0.999973 1 1 1 1 0.999499 0.998565 0.999461 0.998496 0.997533 0.995041
          0.997436 0.994932 0.998422 0.997323 0.994782 0.997193 0.994606 0.998334 0.999423 0.999374 0.992448 0.987503
          0.99231 0.987338 0.982426 0.97635 0.98224 0.976176 0.987072 0.981914 0.975808 0.981518 0.975344 0.98675
          0.992105 0.991864 0.970297 0.964845 0.97013 0.964721 0.959706 0.955509 0.959636 0.955527 0.964299 0.959219
          0.955149 0.958638 0.954583 0.963737 0.969718 0.969189 0.951755 0.948753 0.951876 0.949003 0.946153 0.944116
          0.94654 0.944654 0.948762 0.946391 0.944607 0.945979 0.944265 0.948284 0.951555 0.951023 0.942396 0.94107
          0.943087 0.941916 0.939968 0.939124 0.940966 0.940271 0.942078 0.94123 0.940631 0.941088 0.940542 0.941875
          0.943144 0.942874 0.938424 0.937881 0.939714 0.939309 0.937424 0.937057 0.938985 0.938745 0.939847 0.939603
          0.939438 0.939632 0.939494 0.939842 0.940166 0.940124 0.936737 0.936466 0.938547 0.938392 0.936222 0.936008
          0.93826 0.938152 0.939224 0.939157 0.93911 0.93927 0.939236 0.93932 0.939312 0.93939 0.935812 0.935645
          0.938058 0.937986 0.935496 0.935388 0.937927 0.937897 0.939058 0.939051 0.939065 0.939215 0.939238 0.93921
          0.939076 0.939215 0.935309 0.935313 0.937891 0.937956 0.935391 0.935665 0.938092 0.938419 0.939203 0.939375
          0.939737 0.939574 0.939953 0.939392 0.939102 0.939283 0.936115 0.936968 0.938926 0.939844 0.938152 0.939975
          0.941107 0.943027 0.941263 0.942602 0.944623 0.942959 0.945079 0.941553 0.940287 0.94053 0.942257 0.945287
          0.945424 0.948576 0.94877 0.952868 0.95218 0.956372 0.95043 0.954175 0.958485 0.955012 0.959435 0.951135
          0.947143 0.947714 0.957252 0.961925 0.960823 0.965496 0.966668 0.971333 0.970195 0.974731 0.967753 0.972465
          0.976944 0.97355 0.977979 0.968829 0.963035 0.964072 0.975928 0.98011 0.979144 0.983057 0.984178 0.987569
          0.98681 0.989847 0.985035 0.988625 0.991442 0.989362 0.992019 0.985883 0.981274 0.982238 0.990849 0.993185
          0.99264 0.994607 0.9954 0.996861 0.996496 0.997672 0.995704 0.997378 0.998343 0.99763 0.998511 0.996058
          0.99394 0.994392 0.998263 0.998925 0.998783 0.999262 0.999543 0.999732 0.99972 0.999839 0.999573 0.999891
          0.999945 0.99991 0.999955 0.999628 0.999242 0.999337 0.999915 0.999953 0.999957 0.999976 0.999991 0.999995
          0.999996 0.999998 0.999999 1 1 1 0.999998 0.999999 1 1 1 1
          1 1 1 1 1 1 1 1 1 1 1 1
          1 1 1 1 1 1 1 1 1 1 1 1
          1 1 1 1 1 1 1 1 1 1 1 1
          1 1 1 1 1 1 1 1 1 1 0.999968 1
          0.999962 1 0.999936 0.999632 0.999924 0.999601 0.999956 0.999912 0.999569 0.9999 0.999537 0.99995
          1 1 1 1 0.999324 0.998246 0.999272 0.99816 0.997063 0.994433 0.996941 0.994269
          0.998075 0.996821 0.994111 0.99671 0.993965 0.997995 0.999219 0.999167 0.991625 0.98643 0.991398 0.986119
          0.98112 0.974872 0.980727 0.974397 0.985815 0.980337 0.973922 0.979953 0.973445 0.985521 0.991176 0.990967
          0.968646 0.963154 0.968093 0.962556 0.958033 0.95399 0.957411 0.953379 0.961949 0.956777 0.952758 0.956128
          0.952123 0.96133 0.967534 0.966968 0.950462 0.947776 0.949885 0.947252 0.945533 0.943887 0.945074 0.943494
          0.946721 0.94461 0.943098 0.944143 0.942701 0.946184 0.949298 0.948702 0.942563 0.941625 0.942237 0.941357
          0.940895 0.940394 0.940679 0.940221 0.941087 0.94046 0.940043 0.94024 0.939862 0.940816 0.941908 0.941579
          0.940015 0.939765 0.939877 0.939653 0.93958 0.939461 0.939489 0.939385 0.939534 0.93939 0.939298 0.939282
          0.939202 0.939408 0.939733 0.939584 0.939371 0.939312 0.939306 0.93925 0.93927 0.939243 0.939215 0.939189
          0.939174 0.939145 0.93911 0.939061 0.939018 0.939081 0.939227 0.939137 0.939228 0.939232 0.939178 0.939188
          0.939242 0.93927 0.9392 0.939231 0.939125 0.93914 0.939173 0.939063 0.939099 0.939047 0.939319 0.939433
          0.939282 0.939399 0.939621 0.940015 0.939593 0.940003 0.939347 0.939546 0.939971 0.939482 0.939922 0.939278
          0.939227 0.939155 0.940617 0.941691 0.94063 0.941756 0.943168 0.945391 0.943308 0.945643 0.941806 0.943439
          0.945893 0.943565 0.946148 0.941846 0.940625 0.940606 0.948152 0.951714 0.948538 0.95225 0.955733 0.960274
          0.956417 0.96108 0.9528 0.95712 0.961907 0.957857 0.962768 0.953375 0.94893 0.949337 0.965006 0.969805
          0.965907 0.970744 0.974539 0.978923 0.975487 0.979819 0.971697 0.976443 0.980716 0.977416 0.981618 0.972676
          0.966828 0.967781 0.983121 0.98666 0.983949 0.987383 0.99004 0.992543 0.990659 0.993014 0.988102 0.991254
          0.993477 0.991817 0.99392 0.988811 0.984773 0.985591 0.994808 0.996383 0.995182 0.99667 0.997867 0.998673
          0.998071 0.998808 0.996953 0.998271 0.998942 0.998451 0.99906 0.997215 0.995551 0.995899 0.999429 0.999683
          0.999503 0.999726 0.999929 0.999965 0.999942 0.999971 0.999768 0.999955 0.999977 0.999964 0.999982 0.999802
          0.999576 0.999637 1 1 1 1 1 1 1 1 1 1
          1 1 1 1 0.999944 1 0.999938 1 0.999887 0.999506 0.999876 0.999476
          0.999932 0.999864 0.999447 0.999855 0.999424 0.999927 1 1 1 1 0.999115 0.997916
          0.999067 0.997844 0.996603 0.993823 0.996504 0.993692 0.997774 0.996409 0.993566 0.996329 0.993454 0.997715
          0.99902 0.998981 0.990763 0.985233 0.990571 0.984954 0.979573 0.972966 0.979196 0.972484 0.984681 0.978822
          0.971995 0.978449 0.971498 0.984418 0.990384 0.990214 0.966392 0.960697 0.965804 0.960044 0.955464 0.951472
          0.954778 0.950802 0.959368 0.954066 0.950107 0.953322 0.949382 0.95866 0.965202 0.964579 0.948092 0.945637
          0.947467 0.945078 0.943669 0.9423 0.943188 0.941893 0.944504 0.942696 0.941476 0.94219 0.941048 0.943912
          0.946822 0.946154 0.941247 0.940541 0.94091 0.940262 0.940016 0.939675 0.939785 0.939481 0.939973 0.939543
          0.939273 0.939288 0.939049 0.939671 0.940564 0.940207 0.939428 0.939274 0.939263 0.939128 0.939164 0.939094