<?xml version="1.0"?>
<VTKFile type="UnstructuredGrid" version="0.1" byte_order="LittleEndian">
  <UnstructuredGrid>
    <Piece NumberOfCells="10" NumberOfPoints="18">
      <PointData Scalars="S_liq" Vectors="velocity_liq (m/s)">
        <DataArray type="Float32" Name="S_liq" NumberOfComponents="1" format="ascii">
          0.299191 0.299191 0.286588 0.286588 0.299191 0.286588 0.260171 0.260171 0.260171 0.177275 0.177275 0.177275
          0.00321549 0.00321549 0.00321549 0.000284819 0.000284819 0.000284819
        </DataArray>
        <DataArray type="Float32" Name="p_liq" NumberOfComponents="1" format="ascii">
          91839.3 91839.3 91641.7 91641.7 91839.3 91641.7 90755.8 90755.8 90755.8 82394.9 82394.9 82394.9
          64731.8 64731.8 64731.8 64432.1 64432.1 64432.1
        </DataArray>
        <DataArray type="Float32" Name="rho_liq" NumberOfComponents="1" format="ascii">
          1012.46 1012.46 1012.46 1012.46 1012.46 1012.46 1012.56 1012.56 1012.56 1028.84 1028.84 1028.84
          1438 1438 1438 1617.86 1617.86 1617.86
        </DataArray>
        <DataArray type="Float32" Name="mob_liq" NumberOfComponents="1" format="ascii">
          0.609129 0.609129 0.277404 0.277404 0.609129 0.277404 0.00925914 0.00925914 0.00925914 0 0 0
          0 0 0 0 0 0
        </DataArray>
        <DataArray type="Float32" Name="S_gas" NumberOfComponents="1" format="ascii">
          0.700809 0.700809 0.713412 0.713412 0.700809 0.713412 0.739829 0.739829 0.739829 0.822725 0.822725 0.822725
          0.996785 0.996785 0.996785 0.999715 0.999715 0.999715
        </DataArray>
        <DataArray type="Float32" Name="p_gas" NumberOfComponents="1" format="ascii">
          100006 100006 100006 100006 100006 100006 100006 100006 100006 100005 100005 100005
          100003 100003 100003 100001 100001 100001
        </DataArray>
        <DataArray type="Float32" Name="rho_gas" NumberOfComponents="1" format="ascii">
          1.19519 1.19519 1.19518 1.19518 1.19519 1.19518 1.19516 1.19516 1.19516 1.19521 1.19521 1.19521
          1.19708 1.19708 1.19708 1.19822 1.19822 1.19822
        </DataArray>
        <DataArray type="Float32" Name="mob_gas" NumberOfComponents="1" format="ascii">
          49026.4 49026.4 51475.9 51475.9 49026.4 51475.9 55187.2 55187.2 55187.2 55581.9 55581.9 55581.9
          55581.6 55581.6 55581.6 55581.3 55581.3 55581.3
        </DataArray>
        <DataArray type="Float32" Name="pc" NumberOfComponents="1" format="ascii">
          8166.38 8166.38 8363.88 8363.88 8166.38 8363.88 9249.78 9249.78 9249.78 17610.5 17610.5 17610.5
          35271.3 35271.3 35271.3 35568.7 35568.7 35568.7
        </DataArray>
        <DataArray type="Float32" Name="porosity" NumberOfComponents="1" format="ascii">
          0.4 0.4 0.4 0.4 0.4 0.4 0.4 0.4 0.4 0.4 0.4 0.4
          0.39777 0.39777 0.39777 0.380004 0.380004 0.380004
        </DataArray>
        <DataArray type="Float32" Name="x^H2O_liq" NumberOfComponents="1" format="ascii">
          0.993732 0.993732 0.993732 0.993732 0.993732 0.993732 0.993688 0.993688 0.993688 0.986133 0.986133 0.986133
          0.759211 0.759211 0.759211 0.618053 0.618053 0.618053
        </DataArray>
        <DataArray type="Float32" Name="x^Air_liq" NumberOfComponents="1" format="ascii">
          1.58379e-05 1.58379e-05 1.58373e-05 1.58373e-05 1.58379e-05 1.58373e-05 1.58356e-05 1.58356e-05 1.58356e-05 1.58372e-05 1.58372e-05 1.58372e-05
          1.59039e-05 1.59039e-05 1.59039e-05 1.5945e-05 1.5945e-05 1.5945e-05
        </DataArray>
        <DataArray type="Float32" Name="x^NaCl_liq" NumberOfComponents="1" format="ascii">
          0.0062518 0.0062518 0.00625191 0.00625191 0.0062518 0.00625191 0.00629582 0.00629582 0.00629582 0.0138512 0.0138512 0.0138512
          0.240773 0.240773 0.240773 0.381931 0.381931 0.381931
        </DataArray>
        <DataArray type="Float32" Name="rhoMolar_liq" NumberOfComponents="1" format="ascii">
          55422.4 55422.4 55422.4 55422.4 55422.4 55422.4 55422.2 55422.2 55422.2 55387.3 55387.3 55387.3
          51821.1 51821.1 51821.1 48357.9 48357.9 48357.9
        </DataArray>
        <DataArray type="Float32" Name="x^H2O_gas" NumberOfComponents="1" format="ascii">
          0.0183873 0.0183873 0.0183893 0.0183893 0.0183873 0.0183893 0.0183946 0.0183946 0.0183946 0.0182571 0.0182571 0.0182571
          0.0140581 0.0140581 0.0140581 0.0114462 0.0114462 0.0114462
        </DataArray>
        <DataArray type="Float32" Name="x^Air_gas" NumberOfComponents="1" format="ascii">
          0.981613 0.981613 0.981611 0.981611 0.981613 0.981611 0.981605 0.981605 0.981605 0.981743 0.981743 0.981743
          0.985942 0.985942 0.985942 0.988554 0.988554 0.988554
        </DataArray>
        <DataArray type="Float32" Name="x^NaCl_gas" NumberOfComponents="1" format="ascii">
          -0 -0 -0 -0 -0 -0 -0 -0 -0 -0 -0 -0
          -0 -0 -0 -0 -0 -0
        </DataArray>
        <DataArray type="Float32" Name="rhoMolar_gas" NumberOfComponents="1" format="ascii">
          41.5595 41.5595 41.5592 41.5592 41.5595 41.5592 41.5584 41.5584 41.5584 41.5581 41.5581 41.5581
          41.5564 41.5564 41.5564 41.555 41.555 41.555
        </DataArray>
        <DataArray type="Float32" Name="phase presence" NumberOfComponents="1" format="ascii">
          3 3 3 3 3 3 3 3 3 3 3 3
          3 3 3 3 3 3
        </DataArray>
        <DataArray type="Float32" Name="precipitateVolumeFraction^NaCl" NumberOfComponents="1" format="ascii">
          0 0 0 0 0 0 0 0 0 0 0 0
          0.00222965 0.00222965 0.00222965 0.0199956 0.0199956 0.0199956
        </DataArray>
        <DataArray type="Float32" Name="T" NumberOfComponents="1" format="ascii">
          289.42 289.42 289.422 289.422 289.42 289.422 289.427 289.427 289.427 289.429 289.429 289.429
          289.432 289.432 289.432 289.434 289.434 289.434
        </DataArray>
        <DataArray type="Float32" Name="velocity_liq (m/s)" NumberOfComponents="3" format="ascii">
          3.36832e-23 9.99747e-10 0 1.63984e-23 9.99747e-10 0 3.02757e-23 2.00061e-09 0 4.723e-23 2.00061e-09 0
          -8.86399e-25 9.99747e-10 0 6.41844e-23 2.00061e-09 0 2.00221e-23 3.45295e-09 0 2.59977e-23 3.45295e-09 0
          3.19734e-23 3.45295e-09 0 0 1.95222e-09 0 0 1.95222e-09 0 0 1.95222e-09 0
          0 0 0 0 0 0 0 0 0 0 0 0
          0 0 0 0 0 0
        </DataArray>
        <DataArray type="Float32" Name="velocity_gas (m/s)" NumberOfComponents="3" format="ascii">
          4.42326e-18 -1.20144e-09 0 -1.28417e-18 -1.20144e-09 0 -4.1199e-18 -2.37317e-09 0 -2.32213e-18 -2.37317e-09 0
          -6.9916e-18 -1.20144e-09 0 -5.24351e-19 -2.37317e-09 0 4.21617e-18 6.30754e-08 0 2.7907e-18 6.30754e-08 0
          1.36523e-18 6.30754e-08 0 -5.01388e-18 3.91591e-06 0 3.6163e-19 3.91591e-06 0 5.73714e-18 3.91591e-06 0
          -3.26934e-18 7.96185e-06 0 -9.26596e-19 7.96185e-06 0 1.41614e-18 7.96185e-06 0 -7.74071e-18 8.22157e-06 0
          -8.15862e-19 8.22157e-06 0 6.10899e-18 8.22157e-06 0
        </DataArray>
        <DataArray type="Float32" Name="Permeability" NumberOfComponents="1" format="ascii">
          1e-13 1e-13 1e-13 1e-13 1e-13 1e-13 1e-13 1e-13 1e-13 9.93978e-14 9.93978e-14 9.93978e-14
          9.30001e-14 9.30001e-14 9.30001e-14 8.43521e-14 8.43521e-14 8.43521e-14
        </DataArray>
      </PointData>
      <CellData Scalars="process rank">
        <DataArray type="Float32" Name="process rank" NumberOfComponents="1" format="ascii">
          0 0 0 0 0 0 0 0 0 0
        </DataArray>
      </CellData>
      <Points>
        <DataArray type="Float32" Name="Coordinates" NumberOfComponents="3" format="ascii">
          0 0 0 0.01 0 0 0 0.0075 0 0.01 0.0075 0
          0.02 0 0 0.02 0.0075 0 0 0.015 0 0.01 0.015 0
          0.02 0.015 0 0 0.016978 0 0.01 0.016978 0 0.02 0.016978 0
          0 0.0186264 0 0.01 0.0186264 0 0.02 0.0186264 0 0 0.02 0
          0.01 0.02 0 0.02 0.02 0
        </DataArray>
      </Points>
      <Cells>
        <DataArray type="Int32" Name="connectivity" NumberOfComponents="1" format="ascii">
          0 1 3 2 1 4 5 3 2 3 7 6
          3 5 8 7 6 7 10 9 7 8 11 10
          9 10 13 12 10 11 14 13 12 13 16 15
          13 14 17 16
        </DataArray>
        <DataArray type="Int32" Name="offsets" NumberOfComponents="1" format="ascii">
          4 8 12 16 20 24 28 32 36 40
        </DataArray>
        <DataArray type="UInt8" Name="types" NumberOfComponents="1" format="ascii">
          9 9 9 9 9 9 9 9 9 9
        </DataArray>
      </Cells>
    </Piece>
  </UnstructuredGrid>
</VTKFile>
