<?xml version="1.0"?>
<VTKFile type="PolyData" version="0.1" byte_order="LittleEndian">
  <PolyData>
    <Piece NumberOfLines="468" NumberOfPoints="64">
      <PointData Scalars="p">
        <DataArray type="Float32" Name="p" NumberOfComponents="1" format="ascii">
          100000 99996.7 100000 99996.7 100000 99996.7 100000 99996.7 100000 99996.7 100000 99996.7
          100000 99996.7 100000 99996.7 100000 99996.7 100000 99996.7 100000 99996.7 100000 99996.7
          100000 99996.7 100000 99996.7 100000 99996.7 100000 99996.7 99993.5 99993.5 99993.5 99993.5
          99993.5 99993.5 99993.5 99993.5 99993.5 99993.5 99993.5 99993.5 99993.5 99993.5 99993.5 99993.5
          99990.2 99990.2 99990.2 99990.2 99990.2 99990.2 99990.2 99990.2 99990.2 99990.2 99990.2 99990.2
          99990.2 99990.2 99990.2 99990.2
        </DataArray>
        <DataArray type="Float32" Name="poreInscribedRadius" NumberOfComponents="1" format="ascii">
          2e-05 2e-05 2e-05 2e-05 2e-05 2e-05 2e-05 2e-05 2e-05 2e-05 2e-05 2e-05
          2e-05 2e-05 2e-05 2e-05 2e-05 2e-05 2e-05 2e-05 2e-05 2e-05 2e-05 2e-05
          2e-05 2e-05 2e-05 2e-05 2e-05 2e-05 2e-05 2e-05 2e-05 2e-05 2e-05 2e-05
          2e-05 2e-05 2e-05 2e-05 2e-05 2e-05 2e-05 2e-05 2e-05 2e-05 2e-05 2e-05
          2e-05 2e-05 2e-05 2e-05 2e-05 2e-05 2e-05 2e-05 2e-05 2e-05 2e-05 2e-05
          2e-05 2e-05 2e-05 2e-05
        </DataArray>
        <DataArray type="Float32" Name="coordinationNumber" NumberOfComponents="1" format="ascii">
          7 11 11 17 11 17 17 26 11 17 17 26
          7 11 11 17 11 17 17 26 17 26 11 17
          7 11 11 17 11 17 7 11 11 17 17 26
          17 26 11 17 17 26 26 17 11 17 17 11
          7 11 11 17 11 17 7 11 11 17 17 11
          7 11 11 7
        </DataArray>
        <DataArray type="Float32" Name="poreLabel" NumberOfComponents="1" format="ascii">
          2 1 2 1 2 1 2 -1 2 1 2 -1
          2 1 2 1 2 1 2 -1 2 -1 2 1
          2 1 2 1 2 1 2 1 1 1 1 -1
          1 -1 1 1 1 -1 -1 1 1 1 1 1
          1 1 1 1 1 1 1 1 1 1 1 1
          1 1 1 1
        </DataArray>
      </PointData>
      <CellData Scalars="process rank" Vectors="velocity_liq (m/s)">
        <DataArray type="Float32" Name="velocity_liq (m/s)" NumberOfComponents="3" format="ascii">
          -0 -0 -1.5956e-16 -0 -0 -1.5956e-16 -0 -0 -1.87455e-16 -0 -0 -3.2693e-16
          0 0 0 0 0 0 0 0 0 0 0 0
          -0 -2.7895e-17 -0 -0 -1.6737e-16 -0 0 0 0 -1.39475e-16 -0 -0
          -0 7.67153e-17 -7.67153e-17 -0 -9.01273e-17 -9.01273e-17 -0 7.67153e-17 -7.67153e-17 -0 -1.57187e-16 -1.57187e-16
          7.67153e-17 -0 -7.67153e-17 -7.67153e-17 -0 -7.67153e-17 9.01273e-17 -0 -9.01273e-17 -1.57187e-16 -0 -1.57187e-16
          -0 0 0 0 0 0 1.34118e-17 -1.34118e-17 -0 -8.04711e-17 -8.04711e-17 -0
          -1.03038e-16 -1.03038e-16 -1.03038e-16 5.02881e-17 5.02881e-17 -5.02881e-17 5.90798e-17 -5.90798e-17 -5.90798e-17 -5.02881e-17 5.02881e-17 -5.02881e-17
          -0 -0 -1.5956e-16 -0 -0 -2.99035e-16 0 0 0 0 0 0
          0 0 0 -0 -1.39475e-16 -0 0 0 0 2.7895e-17 0 0
          -0 7.67153e-17 -7.67153e-17 -0 -1.43775e-16 -1.43775e-16 7.67153e-17 -0 -7.67153e-17 -7.67153e-17 -0 -7.67153e-17
          1.57187e-16 -0 -1.57187e-16 -1.43775e-16 -0 -1.43775e-16 -0 0 0 0 0 0
          8.04711e-17 -8.04711e-17 -0 -6.70592e-17 -6.70592e-17 -0 -9.42465e-17 -9.42465e-17 -9.42465e-17 5.02881e-17 5.02881e-17 -5.02881e-17
          1.03038e-16 -1.03038e-16 -1.03038e-16 -5.02881e-17 5.02881e-17 -5.02881e-17 -0 -0 -1.87455e-16 -0 -0 -1.87455e-16
          0 0 0 0 0 0 0 0 0 0 0 0
          -2.7895e-17 -0 -0 1.1158e-16 0 0 -0 9.01273e-17 -9.01273e-17 -0 -9.01273e-17 -9.01273e-17
          7.67153e-17 -0 -7.67153e-17 -9.01273e-17 -0 -9.01273e-17 1.43775e-16 -0 -1.43775e-16 -9.01273e-17 -0 -9.01273e-17
          -0 0 0 0 0 0 5.36474e-17 -5.36474e-17 -0 -1.34118e-17 -1.34118e-17 -0
          -5.90799e-17 -5.90799e-17 -5.90799e-17 5.02882e-17 5.02882e-17 -5.02882e-17 9.42466e-17 -9.42466e-17 -9.42466e-17 -5.90799e-17 5.90799e-17 -5.90799e-17
          -0 -0 -1.87455e-16 -0 -0 -3.2693e-16 0 0 0 0 0 0
          0 0 0 0 0 0 0 0 0 -1.39475e-16 -0 -0
          -0 9.01273e-17 -9.01273e-17 -0 -9.01273e-17 -9.01273e-17 -0 1.57187e-16 -1.57187e-16 -0 -1.57187e-16 -1.57187e-16
          9.01273e-17 -0 -9.01273e-17 -1.57187e-16 -0 -1.57187e-16 -0 0 0 0 0 0
          -6.70592e-17 6.70592e-17 0 -6.70592e-17 -6.70592e-17 -0 -1.03038e-16 -1.03038e-16 -1.03038e-16 5.90798e-17 5.90798e-17 -5.90798e-17
          5.90798e-17 -5.90798e-17 -5.90798e-17 -1.03038e-16 1.03038e-16 -1.03038e-16 -0 -0 -3.2693e-16 0 0 0
          0 0 0 -0 -2.7895e-17 -0 0 0 0 -0 1.43775e-16 -1.43775e-16
          -0 -1.57187e-16 -1.57187e-16 1.57187e-16 -0 -1.57187e-16 -1.57187e-16 -0 -1.57187e-16 -0 0 0
          0 0 0 1.34118e-17 -1.34118e-17 -0 0 0 0 -1.03038e-16 -1.03038e-16 -1.03038e-16
          1.03038e-16 1.03038e-16 -1.03038e-16 1.03038e-16 -1.03038e-16 -1.03038e-16 -9.42465e-17 9.42465e-17 -9.42465e-17 -0 -0 -2.43245e-16
          0 0 0 0 0 0 -0 -5.57901e-17 -0 8.36851e-17 0 0
          -0 9.01273e-17 -9.01273e-17 -0 -1.16951e-16 -1.16951e-16 1.57187e-16 -0 -1.57187e-16 -1.16951e-16 -0 -1.16951e-16
          -0 0 0 0 0 0 6.70592e-17 -6.70592e-17 -0 2.68237e-17 2.68237e-17 0
          -7.66633e-17 -7.66633e-17 -7.66633e-17 9.42466e-17 9.42466e-17 -9.42466e-17 1.03038e-16 -1.03038e-16 -1.03038e-16 -5.90799e-17 5.90799e-17 -5.90799e-17
          -0 -0 -2.43245e-16 -0 -0 -2.1535e-16 0 0 0 0 0 0
          0 0 0 -0 -5.57901e-17 -0 0 1.1158e-16 0 2.7895e-17 0 0
          -0 9.01273e-17 -9.01273e-17 -0 -1.16951e-16 -1.16951e-16 -0 1.57187e-16 -1.57187e-16 -0 -1.03539e-16 -1.03539e-16
          1.16951e-16 -0 -1.16951e-16 -1.03539e-16 -0 -1.03539e-16 -0 0 0 0 0 0
          -4.02355e-17 4.02355e-17 0 -1.34118e-17 -1.34118e-17 -0 -6.78716e-17 -6.78716e-17 -6.78716e-17 5.90799e-17 5.90799e-17 -5.90799e-17
          7.66633e-17 -7.66633e-17 -7.66633e-17 -1.03038e-16 1.03038e-16 -1.03038e-16 -0 -0 -2.43245e-16 0 0 0
          0 0 0 0 8.36851e-17 0 -2.7895e-17 -0 -0 -0 1.57187e-16 -1.57187e-16
          -0 -1.16951e-16 -1.16951e-16 1.03539e-16 -0 -1.03539e-16 -1.16951e-16 -0 -1.16951e-16 -0 0 0
          0 0 0 -5.36474e-17 5.36474e-17 0 4.02355e-17 4.02355e-17 0 -7.66633e-17 -7.66633e-17 -7.66633e-17
          1.03038e-16 1.03038e-16 -1.03038e-16 6.78716e-17 -6.78716e-17 -6.78716e-17 -1.03038e-16 1.03038e-16 -1.03038e-16 -0 -0 -2.43245e-16
          0 0 0 0 0 0 0 0 0 0 0 0
          -0 1.16951e-16 -1.16951e-16 -0 -1.16951e-16 -1.16951e-16 1.16951e-16 -0 -1.16951e-16 -1.16951e-16 -0 -1.16951e-16
          -0 0 0 0 0 0 -0 0 0 4.02355e-17 4.02355e-17 0
          -7.66633e-17 -7.66633e-17 -7.66633e-17 1.03038e-16 1.03038e-16 -1.03038e-16 7.66633e-17 -7.66633e-17 -7.66633e-17 -7.66633e-17 7.66633e-17 -7.66633e-17
          -0 -0 -1.5956e-16 -0 -0 -1.31665e-16 -0 -0 -1.31665e-16 -0 -0 -1.0377e-16
          0 0 0 -0 -1.39475e-16 -0 2.7895e-17 0 0 -1.1158e-16 -0 -0
          -0 6.33033e-17 -6.33033e-17 -0 -7.67153e-17 -7.67153e-17 0 -1.71675e-17 1.71675e-17 -0 -1.30363e-16 -1.30363e-16
          7.67153e-17 -0 -7.67153e-17 -6.33033e-17 -0 -6.33033e-17 -3.75551e-18 0 3.75551e-18 -1.16951e-16 -0 -1.16951e-16
          1.34118e-17 -1.34118e-17 -0 -5.36474e-17 -5.36474e-17 -0 -8.54548e-17 -8.54548e-17 -8.54548e-17 -2.46155e-18 -2.46155e-18 2.46155e-18
          5.02881e-17 -5.02881e-17 -5.02881e-17 -3.27052e-17 3.27052e-17 -3.27052e-17 -0 -0 -1.31665e-16 -0 -0 -1.31665e-16
          -0 -1.39475e-16 -0 0 0 0 0 0 0 0 -3.75551e-18 3.75551e-18
          -0 -1.30363e-16 -1.30363e-16 6.33033e-17 -0 -6.33033e-17 -6.33033e-17 -0 -6.33033e-17 6.33033e-17 -0 -6.33033e-17
          -4.98919e-17 -0 -4.98919e-17 6.70592e-17 -6.70592e-17 -0 -6.70592e-17 -6.70592e-17 -0 -8.54548e-17 -8.54548e-17 -8.54548e-17
          -2.46155e-18 -2.46155e-18 2.46155e-18 8.54548e-17 -8.54548e-17 -8.54548e-17 1.12532e-17 -1.12532e-17 1.12532e-17 -0 -0 -1.31665e-16
          -0 -0 -1.0377e-16 0 2.7895e-17 0 -2.7895e-17 -0 -0 1.39475e-16 0 0
          -0 6.33033e-17 -6.33033e-17 -0 -4.98919e-17 -4.98919e-17 4.98919e-17 -0 -4.98919e-17 -7.67153e-17 -0 -7.67153e-17
          1.16951e-16 -0 -1.16951e-16 3.75551e-18 0 3.75551e-18 5.36474e-17 -5.36474e-17 -0 0 0 0
          -4.14965e-17 -4.14965e-17 -4.14965e-17 3.27049e-17 3.27049e-17 -3.27049e-17 7.66633e-17 -7.66633e-17 -7.66633e-17 -6.33026e-18 6.33026e-18 -6.33026e-18
          -0 -0 -1.31665e-16 -0 -0 -1.31665e-16 0 0 0 -0 -2.7895e-17 -0
          -1.39475e-16 -0 -0 -0 6.33033e-17 -6.33033e-17 -0 -6.33033e-17 -6.33033e-17 -0 4.98919e-17 -4.98919e-17
          -0 -6.33033e-17 -6.33033e-17 -3.75551e-18 0 3.75551e-18 -1.30363e-16 -0 -1.30363e-16 -5.36474e-17 5.36474e-17 0
          -6.70592e-17 -6.70592e-17 -0 -8.54548e-17 -8.54548e-17 -8.54548e-17 -2.46155e-18 -2.46155e-18 2.46155e-18 -2.46155e-18 2.46155e-18 2.46155e-18
          -7.66631e-17 7.66631e-17 -7.66631e-17 -0 -0 -1.31665e-16 -0 -2.7895e-17 -0 0 0 0
          -0 4.98919e-17 -4.98919e-17 -0 -7.67153e-17 -7.67153e-17 6.33033e-17 -0 -6.33033e-17 -6.33033e-17 -0 -6.33033e-17
          1.34118e-17 -1.34118e-17 -0 -1.34118e-17 -1.34118e-17 -0 -4.14969e-17 -4.14969e-17 -4.14969e-17 3.27052e-17 3.27052e-17 -3.27052e-17
          5.02881e-17 -5.02881e-17 -5.02881e-17 -3.27052e-17 3.27052e-17 -3.27052e-17 -0 -0 -1.0377e-16 -0 -5.57901e-17 -0
          1.1158e-16 0 0 -0 2.30679e-17 -2.30679e-17 -0 -7.67153e-17 -7.67153e-17 1.03539e-16 -0 -1.03539e-16
          -9.65593e-18 -0 -9.65593e-18 8.04711e-17 -8.04711e-17 -0 4.02355e-17 4.02355e-17 0 -1.51219e-17 -1.51219e-17 -1.51219e-17
          5.90799e-17 5.90799e-17 -5.90799e-17 8.54549e-17 -8.54549e-17 -8.54549e-17 1.12531e-17 -1.12531e-17 1.12531e-17 -0 -0 -1.31665e-16
          -0 -0 -1.31665e-16 -0 -5.57901e-17 -0 0 1.1158e-16 0 2.7895e-17 0 0
          -0 3.64799e-17 -3.64799e-17 -0 -9.01273e-17 -9.01273e-17 -0 1.16951e-16 -1.16951e-16 -0 -9.65593e-18 -9.65593e-18
          7.67153e-17 -0 -7.67153e-17 -4.98919e-17 -0 -4.98919e-17 -4.02355e-17 4.02355e-17 0 -1.34118e-17 -1.34118e-17 -0
          -5.02882e-17 -5.02882e-17 -5.02882e-17 3.27049e-17 3.27049e-17 -3.27049e-17 1.51219e-17 -1.51219e-17 -1.51219e-17 -6.78716e-17 6.78716e-17 -6.78716e-17
          -0 -0 -1.31665e-16 0 8.36851e-17 0 -2.7895e-17 -0 -0 -0 1.03539e-16 -1.03539e-16
          -0 -2.30679e-17 -2.30679e-17 4.98919e-17 -0 -4.98919e-17 -7.67153e-17 -0 -7.67153e-17 -5.36474e-17 5.36474e-17 0
          4.02355e-17 4.02355e-17 0 -1.51219e-17 -1.51219e-17 -1.51219e-17 6.78716e-17 6.78716e-17 -6.78716e-17 6.33026e-18 -6.33026e-18 -6.33026e-18
          -7.66633e-17 7.66633e-17 -7.66633e-17 -0 -0 -1.0377e-16 0 0 0 2.7895e-17 0 0
          -0 4.98919e-17 -4.98919e-17 -0 -4.98919e-17 -4.98919e-17 6.33033e-17 -0 -6.33033e-17 -4.98919e-17 -0 -4.98919e-17
          1.34118e-17 -1.34118e-17 -0 5.36474e-17 5.36474e-17 0 -6.33026e-18 -6.33026e-18 -6.33026e-18 6.78716e-17 6.78716e-17 -6.78716e-17
          4.14965e-17 -4.14965e-17 -4.14965e-17 -3.27049e-17 3.27049e-17 -3.27049e-17 -0 -0 -7.5875e-17 -0 -0 -1.0377e-16
          -0 -0 -7.5875e-17 0 0 3.57048e-17 0 0 0 0 0 0
          0 0 0 0 0 0 -0 3.64807e-17 -3.64807e-17 -0 -3.64807e-17 -3.64807e-17
          0 -1.71667e-17 1.71667e-17 -0 -4.98926e-17 -4.98926e-17 4.98926e-17 -0 -4.98926e-17 -3.64807e-17 -0 -3.64807e-17
          -1.71667e-17 0 1.71667e-17 -3.64807e-17 -0 -3.64807e-17 -0 0 0 0 0 0
          -2.39139e-17 -2.39139e-17 -2.39139e-17 -1.12528e-17 -1.12528e-17 1.12528e-17 3.27052e-17 -3.27052e-17 -3.27052e-17 -2.39139e-17 2.39139e-17 -2.39139e-17
          -0 -0 -4.79798e-17 0 0 6.36e-17 -0 -2.7895e-17 -0 5.57901e-17 0 0
          2.7895e-17 0 0 0 -4.39907e-17 4.39907e-17 -0 -3.64807e-17 -3.64807e-17 4.98926e-17 -0 -4.98926e-17
          -2.30687e-17 -0 -2.30687e-17 -1.71667e-17 0 1.71667e-17 3.05787e-17 0 3.05787e-17 2.68237e-17 -2.68237e-17 -0
          1.34118e-17 1.34118e-17 0 -2.39139e-17 -2.39139e-17 -2.39139e-17 -1.12528e-17 -1.12528e-17 1.12528e-17 3.27052e-17 -3.27052e-17 -3.27052e-17
          2.88362e-17 -2.88362e-17 2.88362e-17 -0 -0 -4.79798e-17 -0 -0 -7.5875e-17 0 0 0
          -2.7895e-17 -0 -0 0 0 0 -0 3.64807e-17 -3.64807e-17 -0 -2.30687e-17 -2.30687e-17
          9.65724e-18 -0 -9.65724e-18 -3.64812e-17 -0 -3.64812e-17 3.64812e-17 -0 -3.64812e-17 3.05782e-17 0 3.05782e-17
          -0 0 0 -1.34118e-17 -1.34118e-17 -0 -2.39139e-17 -2.39139e-17 -2.39139e-17 1.51222e-17 1.51222e-17 -1.51222e-17
          1.51222e-17 -1.51222e-17 -1.51222e-17 2.00445e-17 -2.00445e-17 2.00445e-17 -0 -0 -7.5875e-17 0 0 3.57048e-17
          0 0 0 -0 -2.7895e-17 -0 -2.7895e-17 -0 -0 -0 3.64807e-17 -3.64807e-17
          -0 -3.64807e-17 -3.64807e-17 0 -3.05787e-17 3.05787e-17 0 3.75474e-18 3.75474e-18 -3.05787e-17 0 3.05787e-17
          -4.98926e-17 -0 -4.98926e-17 -0 0 0 -1.34118e-17 -1.34118e-17 -0 -3.27052e-17 -3.27052e-17 -3.27052e-17
          -2.00445e-17 -2.00445e-17 2.00445e-17 -1.12528e-17 1.12528e-17 1.12528e-17 -2.39139e-17 2.39139e-17 -2.39139e-17 0 0 6.36e-17
          -0 -2.7895e-17 -0 2.7895e-17 0 0 0 -4.39907e-17 4.39907e-17 0 1.71667e-17 1.71667e-17
          -1.71667e-17 0 1.71667e-17 3.05787e-17 0 3.05787e-17 2.68237e-17 -2.68237e-17 -0 0 0 0
          1.12528e-17 1.12528e-17 1.12528e-17 -2.00445e-17 -2.00445e-17 2.00445e-17 -2.46111e-18 2.46111e-18 2.46111e-18 2.88362e-17 -2.88362e-17 2.88362e-17
          -0 -0 -4.79798e-17 -0 -2.7895e-17 -0 0 0 0 -0 9.65671e-18 -9.65671e-18
          -0 -4.98926e-17 -4.98926e-17 2.30692e-17 -0 -2.30692e-17 3.05782e-17 0 3.05782e-17 1.34118e-17 -1.34118e-17 -0
          -1.34118e-17 -1.34118e-17 -0 1.12528e-17 1.12528e-17 1.12528e-17 6.33057e-18 6.33057e-18 -6.33057e-18 3.27052e-17 -3.27052e-17 -3.27052e-17
          2.88362e-17 -2.88362e-17 2.88362e-17 -0 -0 -4.79798e-17 -0 -0 -7.5875e-17 -0 -2.7895e-17 -0
          0 0 0 0 0 0 -0 9.65724e-18 -9.65724e-18 -0 -4.98932e-17 -4.98932e-17
          -0 3.64812e-17 -3.64812e-17 0 1.71662e-17 1.71662e-17 3.64807e-17 -0 -3.64807e-17 -2.30687e-17 -0 -2.30687e-17
          -0 0 0 -1.34118e-17 -1.34118e-17 -0 -3.27052e-17 -3.27052e-17 -3.27052e-17 1.51222e-17 1.51222e-17 -1.51222e-17
          -1.12528e-17 1.12528e-17 1.12528e-17 -1.51222e-17 1.51222e-17 -1.51222e-17 -0 -0 -2.00847e-17 0 0 0
          2.7895e-17 0 0 -0 9.65724e-18 -9.65724e-18 0 3.05782e-17 3.05782e-17 2.30687e-17 -0 -2.30687e-17
          -2.30687e-17 -0 -2.30687e-17 1.34118e-17 -1.34118e-17 -0 1.34118e-17 1.34118e-17 0 2.00445e-17 2.00445e-17 2.00445e-17
          1.51222e-17 1.51222e-17 -1.51222e-17 -1.12528e-17 1.12528e-17 1.12528e-17 -1.51222e-17 1.51222e-17 -1.51222e-17 -0 -0 -7.5875e-17
          -0 -2.7895e-17 -0 -2.7895e-17 -0 -0 -0 2.30692e-17 -2.30692e-17 -0 -3.64812e-17 -3.64812e-17
          2.30692e-17 -0 -2.30692e-17 -2.30692e-17 -0 -2.30692e-17 -0 0 0 -1.34118e-17 -1.34118e-17 -0
          1.12528e-17 1.12528e-17 1.12528e-17 1.51222e-17 1.51222e-17 -1.51222e-17 1.51222e-17 -1.51222e-17 -1.51222e-17 -6.33057e-18 6.33057e-18 -6.33057e-18
        </DataArray>
        <DataArray type="Float32" Name="process rank" NumberOfComponents="1" format="ascii">
          0 0 0 0 0 0 0 0 0 0 0 0
          0 0 0 0 0 0 0 0 0 0 0 0
          0 0 0 0 0 0 0 0 0 0 0 0
          0 0 0 0 0 0 0 0 0 0 0 0
          0 0 0 0 0 0 0 0 0 0 0 0
          0 0 0 0 0 0 0 0 0 0 0 0
          0 0 0 0 0 0 0 0 0 0 0 0
          0 0 0 0 0 0 0 0 0 0 0 0
          0 0 0 0 0 0 0 0 0 0 0 0
          0 0 0 0 0 0 0 0 0 0 0 0
          0 0 0 0 0 0 0 0 0 0 0 0
          0 0 0 0 0 0 0 0 0 0 0 0
          0 0 0 0 0 0 0 0 0 0 0 0
          0 0 0 0 0 0 0 0 0 0 0 0
          0 0 0 0 0 0 0 0 0 0 0 0
          0 0 0 0 0 0 0 0 0 0 0 0
          0 0 0 0 0 0 0 0 0 0 0 0
          0 0 0 0 0 0 0 0 0 0 0 0
          0 0 0 0 0 0 0 0 0 0 0 0
          0 0 0 0 0 0 0 0 0 0 0 0
          0 0 0 0 0 0 0 0 0 0 0 0
          0 0 0 0 0 0 0 0 0 0 0 0
          0 0 0 0 0 0 0 0 0 0 0 0
          0 0 0 0 0 0 0 0 0 0 0 0
          0 0 0 0 0 0 0 0 0 0 0 0
          0 0 0 0 0 0 0 0 0 0 0 0
          0 0 0 0 0 0 0 0 0 0 0 0
          0 0 0 0 0 0 0 0 0 0 0 0
          0 0 0 0 0 0 0 0 0 0 0 0
          0 0 0 0 0 0 0 0 0 0 0 0
          0 0 0 0 0 0 0 0 0 0 0 0
          0 0 0 0 0 0 0 0 0 0 0 0
          0 0 0 0 0 0 0 0 0 0 0 0
          0 0 0 0 0 0 0 0 0 0 0 0
          0 0 0 0 0 0 0 0 0 0 0 0
          0 0 0 0 0 0 0 0 0 0 0 0
          0 0 0 0 0 0 0 0 0 0 0 0
          0 0 0 0 0 0 0 0 0 0 0 0
          0 0 0 0 0 0 0 0 0 0 0 0
        </DataArray>
        <DataArray type="Float32" Name="throatLabel" NumberOfComponents="1" format="ascii">
          2 2 2 2 2 2 2 2 1 1 1 1
          2 2 2 2 2 2 2 2 2 2 1 1
          2 2 2 2 2 2 2 2 2 1 1 -1
          2 2 2 2 2 2 2 2 1 1 2 2
          2 2 2 2 2 2 2 1 1 1 2 2
          2 2 2 2 2 2 1 1 2 2 2 2
          2 2 2 2 2 1 -1 1 2 2 2 2
          2 2 2 2 1 1 2 2 2 2 2 2
          2 -1 -1 2 2 2 2 2 2 -1 -1 2
          2 2 2 2 2 2 1 1 2 2 2 2
          2 2 1 1 2 2 2 2 2 2 2 2
          2 1 1 1 2 2 2 2 2 2 2 2
          1 1 2 2 2 2 2 2 2 1 1 2
          2 2 2 2 2 1 1 2 2 2 2 2
          2 2 1 1 2 2 2 2 2 2 1 1
          2 2 2 2 1 1 1 -1 1 1 1 1
          1 1 1 1 1 1 1 1 1 1 1 1
          1 1 1 -1 1 1 -1 1 1 1 1 -1
          -1 1 1 1 1 1 1 1 1 1 1 1
          1 1 1 1 1 1 1 1 1 1 1 1
          1 -1 1 -1 1 1 1 -1 -1 1 1 1
          1 1 1 1 1 -1 -1 -1 -1 -1 -1 -1
          -1 -1 -1 -1 -1 -1 1 1 1 1 1 1
          1 1 1 1 1 1 1 1 1 1 1 1
          1 1 1 1 1 1 1 1 1 1 1 1
          1 1 1 1 1 1 1 1 1 1 1 1
          1 1 1 1 1 1 1 1 1 1 1 1
          1 1 1 1 1 1 1 1 1 1 1 1
          1 1 1 1 1 1 1 1 1 1 1 1
          1 1 1 1 1 1 1 1 1 1 1 1
          1 1 1 1 1 1 1 1 1 1 1 1
          1 1 1 1 1 1 1 1 1 1 1 1
          1 1 1 1 1 1 1 1 1 1 1 1
          1 1 1 1 1 1 1 1 1 1 1 1
          1 1 1 1 1 1 1 1 1 1 1 1
          1 1 1 1 1 1 1 1 1 1 1 1
          1 1 1 1 1 1 1 1 1 1 1 1
          1 1 1 1 1 1 1 1 1 1 1 1
          1 1 1 1 1 1 1 1 1 1 1 1
        </DataArray>
        <DataArray type="Float32" Name="throatInscribedRadius" NumberOfComponents="1" format="ascii">
          2e-06 2e-06 2e-06 2e-06 2e-06 2e-06 2e-06 2e-06 2e-06 2e-06 2e-06 2e-06
          2e-06 2e-06 2e-06 2e-06 2e-06 2e-06 2e-06 2e-06 2e-06 2e-06 2e-06 2e-06
          2e-06 2e-06 2e-06 2e-06 2e-06 2e-06 2e-06 2e-06 2e-06 2e-06 2e-06 2e-06
          2e-06 2e-06 2e-06 2e-06 2e-06 2e-06 2e-06 2e-06 2e-06 2e-06 2e-06 2e-06
          2e-06 2e-06 2e-06 2e-06 2e-06 2e-06 2e-06 2e-06 2e-06 2e-06 2e-06 2e-06
          2e-06 2e-06 2e-06 2e-06 2e-06 2e-06 2e-06 2e-06 2e-06 2e-06 2e-06 2e-06
          2e-06 2e-06 2e-06 2e-06 2e-06 2e-06 2e-06 2e-06 2e-06 2e-06 2e-06 2e-06
          2e-06 2e-06 2e-06 2e-06 2e-06 2e-06 2e-06 2e-06 2e-06 2e-06 2e-06 2e-06
          2e-06 2e-06 2e-06 2e-06 2e-06 2e-06 2e-06 2e-06 2e-06 2e-06 2e-06 2e-06
          2e-06 2e-06 2e-06 2e-06 2e-06 2e-06 2e-06 2e-06 2e-06 2e-06 2e-06 2e-06
          2e-06 2e-06 2e-06 2e-06 2e-06 2e-06 2e-06 2e-06 2e-06 2e-06 2e-06 2e-06
          2e-06 2e-06 2e-06 2e-06 2e-06 2e-06 2e-06 2e-06 2e-06 2e-06 2e-06 2e-06
          2e-06 2e-06 2e-06 2e-06 2e-06 2e-06 2e-06 2e-06 2e-06 2e-06 2e-06 2e-06
          2e-06 2e-06 2e-06 2e-06 2e-06 2e-06 2e-06 2e-06 2e-06 2e-06 2e-06 2e-06
          2e-06 2e-06 2e-06 2e-06 2e-06 2e-06 2e-06 2e-06 2e-06 2e-06 2e-06 2e-06
          2e-06 2e-06 2e-06 2e-06 2e-06 2e-06 2e-06 2e-06 2e-06 2e-06 2e-06 2e-06
          2e-06 2e-06 2e-06 2e-06 2e-06 2e-06 2e-06 2e-06 2e-06 2e-06 2e-06 2e-06
          2e-06 2e-06 2e-06 2e-06 2e-06 2e-06 2e-06 2e-06 2e-06 2e-06 2e-06 2e-06
          2e-06 2e-06 2e-06 2e-06 2e-06 2e-06 2e-06 2e-06 2e-06 2e-06 2e-06 2e-06
          2e-06 2e-06 2e-06 2e-06 2e-06 2e-06 2e-06 2e-06 2e-06 2e-06 2e-06 2e-06
          2e-06 2e-06 2e-06 2e-06 2e-06 2e-06 2e-06 2e-06 2e-06 2e-06 2e-06 2e-06
          2e-06 2e-06 2e-06 2e-06 2e-06 2e-06 2e-06 2e-06 2e-06 2e-06 2e-06 2e-06
          2e-06 2e-06 2e-06 2e-06 2e-06 2e-06 2e-06 2e-06 2e-06 2e-06 2e-06 2e-06
          2e-06 2e-06 2e-06 2e-06 2e-06 2e-06 2e-06 2e-06 2e-06 2e-06 2e-06 2e-06
          2e-06 2e-06 2e-06 2e-06 2e-06 2e-06 2e-06 2e-06 2e-06 2e-06 2e-06 2e-06
          2e-06 2e-06 2e-06 2e-06 2e-06 2e-06 2e-06 2e-06 2e-06 2e-06 2e-06 2e-06
          2e-06 2e-06 2e-06 2e-06 2e-06 2e-06 2e-06 2e-06 2e-06 2e-06 2e-06 2e-06
          2e-06 2e-06 2e-06 2e-06 2e-06 2e-06 2e-06 2e-06 2e-06 2e-06 2e-06 2e-06
          2e-06 2e-06 2e-06 2e-06 2e-06 2e-06 2e-06 2e-06 2e-06 2e-06 2e-06 2e-06
          2e-06 2e-06 2e-06 2e-06 2e-06 2e-06 2e-06 2e-06 2e-06 2e-06 2e-06 2e-06
          2e-06 2e-06 2e-06 2e-06 2e-06 2e-06 2e-06 2e-06 2e-06 2e-06 2e-06 2e-06
          2e-06 2e-06 2e-06 2e-06 2e-06 2e-06 2e-06 2e-06 2e-06 2e-06 2e-06 2e-06
          2e-06 2e-06 2e-06 2e-06 2e-06 2e-06 2e-06 2e-06 2e-06 2e-06 2e-06 2e-06
          2e-06 2e-06 2e-06 2e-06 2e-06 2e-06 2e-06 2e-06 2e-06 2e-06 2e-06 2e-06
          2e-06 2e-06 2e-06 2e-06 2e-06 2e-06 2e-06 2e-06 2e-06 2e-06 2e-06 2e-06
          2e-06 2e-06 2e-06 2e-06 2e-06 2e-06 2e-06 2e-06 2e-06 2e-06 2e-06 2e-06
          2e-06 2e-06 2e-06 2e-06 2e-06 2e-06 2e-06 2e-06 2e-06 2e-06 2e-06 2e-06
          2e-06 2e-06 2e-06 2e-06 2e-06 2e-06 2e-06 2e-06 2e-06 2e-06 2e-06 2e-06
          2e-06 2e-06 2e-06 2e-06 2e-06 2e-06 2e-06 2e-06 2e-06 2e-06 2e-06 2e-06
        </DataArray>
        <DataArray type="Float32" Name="throatLength" NumberOfComponents="1" format="ascii">
          0.000293333 0.000293333 0.000293333 0.000293333 0.000293333 0.000293333 0.000293333 0.000293333 0.000293333 0.000293333 0.000293333 0.000293333
          0.000431405 0.000431405 0.000431405 0.000431405 0.000431405 0.000431405 0.000431405 0.000431405 0.000431405 0.000431405 0.000431405 0.000431405
          0.00053735 0.00053735 0.00053735 0.00053735 0.000293333 0.000293333 0.000293333 0.000293333 0.000293333 0.000293333 0.000293333 0.000293333
          0.000431405 0.000431405 0.000431405 0.000431405 0.000431405 0.000431405 0.000431405 0.000431405 0.000431405 0.000431405 0.00053735 0.00053735
          0.00053735 0.00053735 0.000293333 0.000293333 0.000293333 0.000293333 0.000293333 0.000293333 0.000293333 0.000293333 0.000431405 0.000431405
          0.000431405 0.000431405 0.000431405 0.000431405 0.000431405 0.000431405 0.000431405 0.000431405 0.00053735 0.00053735 0.00053735 0.00053735
          0.000293333 0.000293333 0.000293333 0.000293333 0.000293333 0.000293333 0.000293333 0.000293333 0.000431405 0.000431405 0.000431405 0.000431405
          0.000431405 0.000431405 0.000431405 0.000431405 0.000431405 0.000431405 0.00053735 0.00053735 0.00053735 0.00053735 0.000293333 0.000293333
          0.000293333 0.000293333 0.000293333 0.000431405 0.000431405 0.000431405 0.000431405 0.000431405 0.000431405 0.000431405 0.000431405 0.00053735
          0.00053735 0.00053735 0.00053735 0.000293333 0.000293333 0.000293333 0.000293333 0.000293333 0.000431405 0.000431405 0.000431405 0.000431405
          0.000431405 0.000431405 0.000431405 0.000431405 0.00053735 0.00053735 0.00053735 0.00053735 0.000293333 0.000293333 0.000293333 0.000293333
          0.000293333 0.000293333 0.000293333 0.000293333 0.000431405 0.000431405 0.000431405 0.000431405 0.000431405 0.000431405 0.000431405 0.000431405
          0.000431405 0.000431405 0.00053735 0.00053735 0.00053735 0.00053735 0.000293333 0.000293333 0.000293333 0.000293333 0.000293333 0.000431405
          0.000431405 0.000431405 0.000431405 0.000431405 0.000431405 0.000431405 0.000431405 0.00053735 0.00053735 0.00053735 0.00053735 0.000293333
          0.000293333 0.000293333 0.000293333 0.000293333 0.000431405 0.000431405 0.000431405 0.000431405 0.000431405 0.000431405 0.000431405 0.000431405
          0.00053735 0.00053735 0.00053735 0.00053735 0.000293333 0.000293333 0.000293333 0.000293333 0.000293333 0.000293333 0.000293333 0.000293333
          0.000431405 0.000431405 0.000431405 0.000431405 0.000431405 0.000431405 0.000431405 0.000431405 0.000431405 0.000431405 0.00053735 0.00053735
          0.00053735 0.00053735 0.000293333 0.000293333 0.000293333 0.000293333 0.000293333 0.000431405 0.000431405 0.000431405 0.000431405 0.000431405
          0.000431405 0.000431405 0.000431405 0.00053735 0.00053735 0.00053735 0.00053735 0.000293333 0.000293333 0.000293333 0.000293333 0.000293333
          0.000431405 0.000431405 0.000431405 0.000431405 0.000431405 0.000431405 0.000431405 0.000431405 0.00053735 0.00053735 0.00053735 0.00053735
          0.000293333 0.000293333 0.000293333 0.000293333 0.000293333 0.000431405 0.000431405 0.000431405 0.000431405 0.000431405 0.000431405 0.000431405
          0.000431405 0.00053735 0.00053735 0.00053735 0.00053735 0.000293333 0.000293333 0.000293333 0.000431405 0.000431405 0.000431405 0.000431405
          0.000431405 0.000431405 0.00053735 0.00053735 0.00053735 0.00053735 0.000293333 0.000293333 0.000293333 0.000431405 0.000431405 0.000431405
          0.000431405 0.000431405 0.000431405 0.00053735 0.00053735 0.00053735 0.00053735 0.000293333 0.000293333 0.000293333 0.000293333 0.000293333
          0.000431405 0.000431405 0.000431405 0.000431405 0.000431405 0.000431405 0.000431405 0.000431405 0.00053735 0.00053735 0.00053735 0.00053735
          0.000293333 0.000293333 0.000293333 0.000431405 0.000431405 0.000431405 0.000431405 0.000431405 0.000431405 0.00053735 0.00053735 0.00053735
          0.00053735 0.000293333 0.000293333 0.000293333 0.000431405 0.000431405 0.000431405 0.000431405 0.000431405 0.000431405 0.00053735 0.00053735
          0.00053735 0.00053735 0.000293333 0.000293333 0.000293333 0.000293333 0.000293333 0.000293333 0.000293333 0.000293333 0.000431405 0.000431405
          0.000431405 0.000431405 0.000431405 0.000431405 0.000431405 0.000431405 0.000431405 0.000431405 0.00053735 0.00053735 0.00053735 0.00053735
          0.000293333 0.000293333 0.000293333 0.000293333 0.000293333 0.000431405 0.000431405 0.000431405 0.000431405 0.000431405 0.000431405 0.000431405
          0.000431405 0.00053735 0.00053735 0.00053735 0.00053735 0.000293333 0.000293333 0.000293333 0.000293333 0.000293333 0.000431405 0.000431405
          0.000431405 0.000431405 0.000431405 0.000431405 0.000431405 0.000431405 0.00053735 0.00053735 0.00053735 0.00053735 0.000293333 0.000293333
          0.000293333 0.000293333 0.000293333 0.000431405 0.000431405 0.000431405 0.000431405 0.000431405 0.000431405 0.000431405 0.000431405 0.00053735
          0.00053735 0.00053735 0.00053735 0.000293333 0.000293333 0.000293333 0.000431405 0.000431405 0.000431405 0.000431405 0.000431405 0.000431405
          0.00053735 0.00053735 0.00053735 0.00053735 0.000293333 0.000293333 0.000293333 0.000431405 0.000431405 0.000431405 0.000431405 0.000431405
          0.000431405 0.00053735 0.00053735 0.00053735 0.00053735 0.000293333 0.000293333 0.000293333 0.000293333 0.000293333 0.000431405 0.000431405
          0.000431405 0.000431405 0.000431405 0.000431405 0.000431405 0.000431405 0.00053735 0.00053735 0.00053735 0.00053735 0.000293333 0.000293333
          0.000293333 0.000431405 0.000431405 0.000431405 0.000431405 0.000431405 0.000431405 0.00053735 0.00053735 0.00053735 0.00053735 0.000293333
          0.000293333 0.000293333 0.000431405 0.000431405 0.000431405 0.000431405 0.000431405 0.000431405 0.00053735 0.00053735 0.00053735 0.00053735
        </DataArray>
        <DataArray type="Float32" Name="transmissibility" NumberOfComponents="1" format="ascii">
          3.06709e-20 3.06709e-20 3.06709e-20 3.06709e-20 3.06709e-20 3.06709e-20 3.06709e-20 3.06709e-20 3.06709e-20 3.06709e-20 3.06709e-20 3.06709e-20
          2.08547e-20 2.08547e-20 2.08547e-20 2.08547e-20 2.08547e-20 2.08547e-20 2.08547e-20 2.08547e-20 2.08547e-20 2.08547e-20 2.08547e-20 2.08547e-20
          1.67429e-20 1.67429e-20 1.67429e-20 1.67429e-20 3.06709e-20 3.06709e-20 3.06709e-20 3.06709e-20 3.06709e-20 3.06709e-20 3.06709e-20 3.06709e-20
          2.08547e-20 2.08547e-20 2.08547e-20 2.08547e-20 2.08547e-20 2.08547e-20 2.08547e-20 2.08547e-20 2.08547e-20 2.08547e-20 1.67429e-20 1.67429e-20
          1.67429e-20 1.67429e-20 3.06709e-20 3.06709e-20 3.06709e-20 3.06709e-20 3.06709e-20 3.06709e-20 3.06709e-20 3.06709e-20 2.08547e-20 2.08547e-20
          2.08547e-20 2.08547e-20 2.08547e-20 2.08547e-20 2.08547e-20 2.08547e-20 2.08547e-20 2.08547e-20 1.67429e-20 1.67429e-20 1.67429e-20 1.67429e-20
          3.06709e-20 3.06709e-20 3.06709e-20 3.06709e-20 3.06709e-20 3.06709e-20 3.06709e-20 3.06709e-20 2.08547e-20 2.08547e-20 2.08547e-20 2.08547e-20
          2.08547e-20 2.08547e-20 2.08547e-20 2.08547e-20 2.08547e-20 2.08547e-20 1.67429e-20 1.67429e-20 1.67429e-20 1.67429e-20 3.06709e-20 3.06709e-20
          3.06709e-20 3.06709e-20 3.06709e-20 2.08547e-20 2.08547e-20 2.08547e-20 2.08547e-20 2.08547e-20 2.08547e-20 2.08547e-20 2.08547e-20 1.67429e-20
          1.67429e-20 1.67429e-20 1.67429e-20 3.06709e-20 3.06709e-20 3.06709e-20 3.06709e-20 3.06709e-20 2.08547e-20 2.08547e-20 2.08547e-20 2.08547e-20
          2.08547e-20 2.08547e-20 2.08547e-20 2.08547e-20 1.67429e-20 1.67429e-20 1.67429e-20 1.67429e-20 3.06709e-20 3.06709e-20 3.06709e-20 3.06709e-20
          3.06709e-20 3.06709e-20 3.06709e-20 3.06709e-20 2.08547e-20 2.08547e-20 2.08547e-20 2.08547e-20 2.08547e-20 2.08547e-20 2.08547e-20 2.08547e-20
          2.08547e-20 2.08547e-20 1.67429e-20 1.67429e-20 1.67429e-20 1.67429e-20 3.06709e-20 3.06709e-20 3.06709e-20 3.06709e-20 3.06709e-20 2.08547e-20
          2.08547e-20 2.08547e-20 2.08547e-20 2.08547e-20 2.08547e-20 2.08547e-20 2.08547e-20 1.67429e-20 1.67429e-20 1.67429e-20 1.67429e-20 3.06709e-20
          3.06709e-20 3.06709e-20 3.06709e-20 3.06709e-20 2.08547e-20 2.08547e-20 2.08547e-20 2.08547e-20 2.08547e-20 2.08547e-20 2.08547e-20 2.08547e-20
          1.67429e-20 1.67429e-20 1.67429e-20 1.67429e-20 3.06709e-20 3.06709e-20 3.06709e-20 3.06709e-20 3.06709e-20 3.06709e-20 3.06709e-20 3.06709e-20
          2.08547e-20 2.08547e-20 2.08547e-20 2.08547e-20 2.08547e-20 2.08547e-20 2.08547e-20 2.08547e-20 2.08547e-20 2.08547e-20 1.67429e-20 1.67429e-20