<?xml version="1.0"?>
<VTKFile type="UnstructuredGrid" version="0.1" byte_order="LittleEndian">
  <UnstructuredGrid>
    <Piece NumberOfCells="1728" NumberOfPoints="2197">
      <PointData Scalars="S_liq">
        <DataArray type="Float32" Name="S_liq" NumberOfComponents="1" format="ascii">
          0.209039 0.209003 0.209033 0.208994 0.208832 0.208778 0.208817 0.208753 0.208919 0.208905 0.208648 0.20859
          0.208849 0.208835 0.208533 0.208424 0.208855 0.208832 0.208527 0.208421 0.208957 0.208925 0.208653 0.208579
          0.209137 0.209102 0.208867 0.208807 0.209367 0.209331 0.209123 0.209069 0.209617 0.209586 0.209396 0.209351
          0.209859 0.209836 0.20966 0.209627 0.210062 0.210047 0.20988 0.20986 0.210197 0.210186 0.210026 0.210013
          0.210244 0.210235 0.210078 0.210067 0.209031 0.208985 0.208795 0.208712 0.208891 0.208472 0.208799 0.208323
          0.208783 0.208282 0.20886 0.208412 0.209017 0.208652 0.20924 0.208912 0.209506 0.209219 0.209777 0.209539
          0.210008 0.209807 0.210161 0.20998 0.210214 0.21004 0.209062 0.209015 0.208807 0.208719 0.208917 0.208461
          0.208807 0.20833 0.208778 0.20822 0.208819 0.208318 0.208943 0.20847 0.20915 0.208657 0.209418 0.20903
          0.209713 0.209429 0.209969 0.209747 0.210138 0.209946 0.210197 0.210015 0.209148 0.209106 0.208883 0.20881
          0.209005 0.20862 0.208909 0.208409 0.208852 0.208344 0.20886 0.208381 0.208949 0.208388 0.209134 0.208463
          0.209387 0.208891 0.209688 0.209364 0.209958 0.209716 0.210138 0.209936 0.2102 0.210011 0.209292 0.209256
          0.209022 0.208965 0.209167 0.208823 0.209071 0.208682 0.209012 0.2086 0.209003 0.208569 0.209058 0.208557
          0.209205 0.208647 0.209443 0.208991 0.209735 0.209399 0.209999 0.209745 0.210178 0.20997 0.210241 0.210048
          0.209484 0.209454 0.209214 0.209161 0.209381 0.209032 0.209303 0.208902 0.20924 0.208855 0.209221 0.208826
          0.209261 0.208817 0.209388 0.208899 0.209596 0.209166 0.209854 0.209531 0.210098 0.209846 0.210267 0.21006
          0.210327 0.210136 0.209717 0.209692 0.209458 0.209404 0.209632 0.209294 0.209553 0.209247 0.20951 0.209127
          0.209485 0.209123 0.209525 0.20909 0.209615 0.209261 0.209808 0.2094 0.210028 0.209723 0.210245 0.210007
          0.210396 0.2102 0.210451 0.210268 0.209974 0.209952 0.209743 0.209703 0.209901 0.209604 0.209843 0.209507
          0.209791 0.209476 0.209772 0.20945 0.209798 0.209439 0.209891 0.209496 0.210041 0.209697 0.210233 0.20996
          0.210419 0.210204 0.210551 0.21037 0.210598 0.210428 0.210225 0.210207 0.210028 0.210002 0.210162 0.209938
          0.210109 0.209867 0.210066 0.209811 0.210048 0.209773 0.210067 0.209777 0.210144 0.20983 0.210273 0.210001
          0.210438 0.210202 0.210594 0.210403 0.210706 0.210541 0.210747 0.21059 0.210433 0.210419 0.210264 0.210246
          0.210382 0.210199 0.210336 0.210138 0.210295 0.210081 0.210276 0.210041 0.210294 0.210042 0.210358 0.210112
          0.210471 0.210236 0.21061 0.210406 0.210743 0.210571 0.210839 0.210686 0.210873 0.210727 0.21057 0.210558
          0.210416 0.210401 0.210526 0.210361 0.210483 0.210307 0.210445 0.210253 0.210426 0.210217 0.210442 0.21022
          0.210501 0.210278 0.210602 0.210394 0.210725 0.210542 0.210843 0.210684 0.210928 0.210784 0.210958 0.21082
          0.210617 0.210606 0.210469 0.210455 0.210575 0.210417 0.210534 0.210364 0.210497 0.210313 0.210478 0.210279
          0.210493 0.210284 0.210551 0.210341 0.210647 0.210451 0.210765 0.21059 0.210878 0.210724 0.210959 0.210818
          0.210988 0.210852 0.208296 0.20821 0.208263 0.208155 0.208 0.207824 0.2078 0.207488 0.207754 0.207443
          0.207896 0.207703 0.208151 0.208034 0.208453 0.208355 0.208775 0.208696 0.209091 0.209036 0.209357 0.209324
          0.209535 0.209514 0.209597 0.209581 0.208193 0.208042 0.207477 0.205679 0.206018 0.207279 0.20771 0.208043
          0.208444 0.208877 0.209236 0.209462 0.209539 0.208148 0.20798 0.207346 0.205105 0.205853 0.206954 0.207207
          0.207381 0.207959 0.208659 0.209125 0.209402 0.209494 0.208172 0.208029 0.207579 0.207081 0.206957 0.207058
          0.206926 0.204906 0.207579 0.208478 0.209039 0.209366 0.209474 0.208277 0.208159 0.207915 0.207621 0.20747
          0.207393 0.207175 0.207089 0.207585 0.208407 0.209022 0.209386 0.209504 0.208465 0.208337 0.208024 0.207817
          0.207787 0.207763 0.207561 0.207524 0.208027 0.208513 0.209113 0.209482 0.209601 0.208747 0.208602 0.207955
          0.207047 0.208116 0.208149 0.207933 0.206661 0.208159 0.208815 0.209332 0.209652 0.209758 0.209109 0.209009
          0.208762 0.208605 0.208594 0.208564 0.208371 0.208306 0.208665 0.20919 0.209605 0.209864 0.209952 0.209483
          0.209435 0.209323 0.209205 0.209105 0.208984 0.208814 0.209025 0.209093 0.209529 0.209867 0.210077 0.210149
          0.209787 0.209758 0.209683 0.209583 0.209473 0.209356 0.209257 0.209251 0.209504 0.209817 0.210086 0.210257
          0.210316 0.209979 0.209956 0.209893 0.209804 0.209704 0.209615 0.209569 0.20962 0.20979 0.210022 0.210234
          0.210377 0.210427 0.210044 0.210023 0.209963 0.209878 0.209784 0.209707 0.209681 0.209741 0.209893 0.210095
          0.210287 0.21042 0.210466 0.207585 0.207494 0.207536 0.207424 0.207262 0.207125 0.207011 0.206779 0.206883
          0.206631 0.20694 0.206736 0.207151 0.206982 0.207462 0.207317 0.207834 0.207717 0.208215 0.208136 0.208543
          0.208496 0.208763 0.208734 0.20884 0.208817 0.207414 0.207257 0.206758 0.206169 0.20588 0.206088 0.2065
          0.206854 0.207348 0.207904 0.208368 0.20866 0.208759 0.207279 0.207089 0.206462 0.204844 0.202898 0.205456
          0.205725 0.205898 0.206652 0.207578 0.208205 0.208572 0.208694 0.207193 0.206975 0.206387 0.205609 0.204537
          0.205315 0.205197 0.202884 0.206032 0.207277 0.208064 0.208514 0.208659 0.207219 0.206979 0.206195 0.206098
          0.205865 0.205762 0.205375 0.205215 0.205735 0.206985 0.207997 0.208529 0.208692 0.207402 0.20716 0.20669
          0.206415 0.206397 0.206305 0.205981 0.204839 0.20323 0.206639 0.2081 0.208647 0.20881 0.207753 0.207515
          0.206408 0.206309 0.206843 0.20681 0.206519 0.206214 0.206648 0.207528 0.208392 0.208862 0.209007 0.20822
          0.208062 0.207731 0.207504 0.207454 0.207302 0.206894 0.206728 0.207305 0.208161 0.208766 0.20913 0.20925
          0.208698 0.208627 0.208456 0.208265 0.20807 0.207811 0.20726 0.20455 0.207674 0.208584 0.209103 0.209397
          0.209494 0.20908 0.209036 0.208916 0.208748 0.208549 0.208302 0.207935 0.207824 0.208302 0.208964 0.20938
          0.20962 0.2097 0.209317 0.209281 0.209181 0.209034 0.208861 0.208688 0.208576 0.208634 0.208899 0.209258
          0.209572 0.20977 0.209837 0.209396 0.209363 0.209268 0.20913 0.208972 0.208833 0.208774 0.208854 0.209076
          0.20937 0.209641 0.209823 0.209886 0.206755 0.206661 0.206696 0.206591 0.206414 0.206308 0.206102 0.205949
          0.205847 0.205649 0.205757 0.205531 0.205884 0.205674 0.206199 0.206008 0.206629 0.206477 0.207088 0.206986
          0.207487 0.207426 0.207755 0.207718 0.207849 0.20782 0.20654 0.206401 0.206018 0.205494 0.205049 0.20499
          0.205041 0.205409 0.206002 0.206691 0.207264 0.207623 0.207745 0.206326 0.206143 0.205613 0.204853 0.204367
          0.204091 0.204067 0.204186 0.205143 0.206281 0.207063 0.207514 0.207663 0.20613 0.205831 0.205173 0.204084
          0.20192 0.203597 0.203191 0.2012 0.204304 0.205955 0.206919 0.207452 0.207624 0.206069 0.205675 0.203695
          0.204324 0.204078 0.203865 0.203389 0.201378 0.204307 0.205895 0.206913 0.207492 0.207676 0.206254 0.205858
          0.205075 0.204745 0.20469 0.2045 0.20424 0.203859 0.205169 0.206167 0.207099 0.207657 0.207838 0.20668
          0.206388 0.205096 0.204547 0.205277 0.2052 0.205049 0.205173 0.205748 0.206663 0.207448 0.207932 0.208093
          0.207241 0.20705 0.206625 0.206258 0.206041 0.205743 0.205293 0.205407 0.206201 0.207176 0.207855 0.208261
          0.208396 0.207792 0.207695 0.207446 0.207129 0.206779 0.206229 0.205585 0.203183 0.206564 0.207631 0.208239
          0.208583 0.208696 0.208229 0.208162 0.207976 0.207705 0.207368 0.206967 0.206488 0.206575 0.207266 0.208066
          0.208566 0.208853 0.208947 0.208502 0.208447 0.208292 0.208063 0.207796 0.207544 0.207426 0.207562 0.207945
          0.208408 0.208793 0.209033 0.209115 0.208595 0.208544 0.208399 0.208188 0.207953 0.207763 0.207706 0.207845
          0.208157 0.208538 0.208876 0.209097 0.209173 0.205799 0.205687 0.20574 0.205618 0.205378 0.205281 0.204945
          0.204798 0.204515 0.204253 0.204264 0.203904 0.204322 0.203974 0.204675 0.204422 0.205198 0.20501 0.205753
          0.205628 0.206232 0.206157 0.206554 0.206507 0.206667 0.206629 0.205576 0.205428 0.205013 0.204399 0.203672
          0.202403 0.2032 0.20365 0.204435 0.205273 0.205958 0.206386 0.206532 0.205348 0.205155 0.204616 0.203787
          0.202858 0.20205 0.20184 0.202165 0.203364 0.204797 0.205713 0.206248 0.206427 0.20513 0.204834 0.20411
          0.203067 0.201218 0.201494 0.201119 0.196589 0.202523 0.204444 0.205537 0.206169 0.206381 0.205056 0.204619
          0.203081 0.202871 0.200394 0.20075 0.201209 0.200548 0.202738 0.204481 0.205632 0.206228 0.206461 0.205248
          0.204824 0.202893 0.202954 0.201594 0.202362 0.202432 0.202821 0.203797 0.204913 0.205877 0.206485 0.206691
          0.2057 0.205388 0.204746 0.203554 0.203506 0.20328 0.203361 0.2038 0.204604 0.205551 0.206348 0.20686
          0.207035 0.20628 0.206094 0.20558 0.204977 0.204332 0.203736 0.203566 0.204176 0.205262 0.206161 0.206845
          0.207277 0.207424 0.206851 0.206716 0.206346 0.205809 0.205065 0.204463 0.200315 0.204828 0.205828 0.206703
          0.207308 0.207674 0.207797 0.207313 0.207212 0.206925 0.206487 0.205935 0.20522 0.205067 0.205564 0.206493
          0.207188 0.207694 0.208002 0.208106 0.207613 0.207532 0.207302 0.206963 0.206579 0.206288 0.20625 0.206537
          0.207028 0.207544 0.207957 0.20822 0.20831 0.207717 0.207643 0.207434 0.207134 0.206822 0.206608 0.2066
          0.206832 0.207232 0.207675 0.208051 0.208297 0.208381 0.204743 0.204589 0.204685 0.204521 0.204162 0.20406
          0.203564 0.203392 0.202973 0.202628 0.202581 0.202087 0.20259 0.202092 0.202989 0.202631 0.203602 0.203377
          0.204253 0.204104 0.204818 0.204722 0.205204 0.20514 0.205341 0.205289 0.204533 0.20434 0.203795 0.202996
          0.201691 0.200003 0.199989 0.201711 0.202722 0.203676 0.204468 0.204978 0.205158 0.204342 0.204107 0.20345
          0.202508 0.201236 0.199185 0.199255 0.200157 0.201677 0.203093 0.204137 0.204793 0.205017 0.204196 0.203909
          0.203034 0.201949 0.200766 0.199539 0.196074 0.197768 0.200832 0.202653 0.203848 0.204663 0.204963 0.204193
          0.203865 0.202916 0.199694 0.20067 0.19845 0.198944 0.198694 0.200626 0.202518 0.203203 0.204754 0.205086
          0.20441 0.204083 0.203249 0.202031 0.200733 0.200558 0.200522 0.200399 0.200594 0.203175 0.204372 0.20512
          0.205405 0.204832 0.204557 0.203767 0.202732 0.201738 0.201187 0.201392 0.201994 0.202948 0.204063 0.20505
          0.20565 0.205858 0.205372 0.205136 0.204407 0.203128 0.202102 0.200178 0.201438 0.202891 0.204061 0.204888
          0.205689 0.206185 0.206354 0.205929 0.205735 0.205147 0.204193 0.20309 0.198657 0.202501 0.203714 0.204785
          0.205629 0.206276 0.206683 0.206822 0.206412 0.206265 0.205837 0.205166 0.204236 0.203709 0.203891 0.204779
          0.205569 0.206239 0.206761 0.207093 0.207207 0.20674 0.206628 0.20631 0.205844 0.20537 0.205093 0.205176
          0.205575 0.206121 0.206652 0.207083 0.207364 0.207461 0.206856 0.206756 0.206478 0.20609 0.205715 0.205503
          0.205556 0.205865 0.206322 0.206798 0.207197 0.207459 0.20755 0.203694 0.203475 0.203634 0.203396 0.202857
          0.20271 0.201987 0.201723 0.201122 0.20101 0.200746 0.200347 0.200832 0.200377 0.201271 0.200896 0.201915
          0.201639 0.202638 0.202414 0.203309 0.203158 0.203791 0.203693 0.203966 0.203889 0.203486 0.203208 0.202367
          0.200959 0.200097 0.199458 0.198812 0.199875 0.200837 0.201888 0.202746 0.203446 0.203699 0.203329 0.203015
          0.202055 0.20046 0.199486 0.196688 0.197148 0.198304 0.199566 0.201004 0.202305 0.203178 0.203517 0.203252
          0.202925 0.20193 0.200241 0.199416 0.198 0.196485 0.194308 0.197953 0.199635 0.201999 0.203094 0.203483
          0.203327 0.203008 0.202059 0.200903 0.199253 0.198586 0.197731 0.197898 0.198665 0.19975 0.202242 0.203306
          0.20368 0.203582 0.203281 0.202403 0.201105 0.199129 0.198389 0.197767 0.19886 0.200345 0.201584 0.202866
          0.203781 0.204088 0.204005 0.203701 0.202769 0.201362 0.19927 0.198694 0.198512 0.20022 0.201276 0.20256
          0.203628 0.204381 0.204634 0.204541 0.204249 0.203272 0.200148 0.199487 0.197658 0.199841 0.201275 0.200813
          0.203401 0.204396 0.205025 0.205237 0.205114 0.204868 0.204048 0.202655 0.199166 0.200551 0.200792 0.202515
          0.203444 0.204331 0.205155 0.205649 0.205818 0.205629 0.205445 0.204896 0.203953 0.203026 0.202642 0.203093
          0.203783 0.204534 0.20522 0.205791 0.206169 0.2063 0.205987 0.20585 0.205461 0.204908 0.20438 0.20412
          0.20424 0.204656 0.2052 0.205746 0.206205 0.20651 0.206617 0.206115 0.205995 0.205665 0.205212 0.20479
          0.204566 0.204633 0.20496 0.205431 0.205925 0.206347 0.206628 0.206727 0.202857 0.202578 0.20279 0.202484
          0.201778 0.201548 0.200462 0.200142 0.199314 0.19689 0.198859 0.197958 0.199084 0.198653 0.199549 0.199157
          0.200241 0.199775 0.201064 0.200655 0.201887 0.201611 0.202504 0.20236 0.202733 0.202627 0.202627 0.202265
          0.201084 0.19838 0.19823 0.196274 0.197441 0.197925 0.198744 0.198964 0.200917 0.201973 0.202374 0.202457
          0.202052 0.20073 0.197987 0.197755 0.196799 0.195474 0.195989 0.197204 0.198374 0.199474 0.201596 0.202158
          0.202381 0.201956 0.200755 0.197893 0.196461 0.196288 0.19524 0.192983 0.19648 0.196918 0.199354 0.201596
          0.202156 0.20247 0.202066 0.200909 0.199487 0.198138 0.19723 0.196379 0.195407 0.197523 0.199255 0.200714
          0.201947 0.202408 0.202764 0.202354 0.201408 0.199847 0.198761 0.197862 0.197336 0.19696 0.198626 0.200059
          0.201456 0.202453 0.202855 0.203251 0.202891 0.201842 0.200613 0.199257 0.198394 0.198246 0.198706 0.199617
          0.199902 0.202152 0.20309 0.203459 0.203867 0.203557 0.202629 0.201304 0.199732 0.199089 0.198854 0.199775
          0.200501 0.201245 0.203004 0.203882 0.204169 0.204507 0.204258 0.203508 0.20217 0.199159 0.199135 0.200595
          0.201368 0.202137 0.203162 0.20405 0.204669 0.204879 0.205063 0.204876 0.204318 0.203374 0.202374 0.2019
          0.202109 0.202716 0.203487 0.204241 0.204884 0.205315 0.205467 0.205443 0.2053 0.204894 0.20431 0.203736
          0.2034 0.203433 0.203785 0.204321 0.204898 0.205397 0.205732 0.205851 0.205578 0.205452 0.205103 0.20462
          0.204153 0.203871 0.203875 0.204155 0.204612 0.205122 0.205571 0.205876 0.205984 0.202424 0.202148 0.202353
          0.202052 0.201366 0.201133 0.200261 0.199758 0.199122 0.19873 0.198342 0.197774 0.197966 0.196773 0.198222
          0.197081 0.198993 0.198345 0.199967 0.199365 0.200913 0.20057 0.20163 0.201472 0.201896 0.201785 0.202172
          0.201817 0.200696 0.197908 0.195574 0.196612 0.195174 0.195827 0.195574 0.197091 0.199748 0.20106 0.201534
          0.201967 0.201523 0.20027 0.198601 0.196265 0.194778 0.194065 0.193226 0.193703 0.196321 0.198145 0.200746
          0.201339 0.201841 0.201338 0.199249 0.19795 0.196867 0.195413 0.19363 0.191625 0.195604 0.197854 0.199532
          0.200815 0.201356 0.201895 0.201314 0.199875 0.197797 0.19672 0.19541 0.194327 0.194289 0.19636 0.19828
          0.199884 0.201094 0.201582 0.202198 0.201622 0.1987 0.197124 0.196878 0.195201 0.194965 0.195044 0.197051
          0.198196 0.199148 0.201405 0.201979 0.202752 0.202267 0.200917 0.197373 0.197086 0.194683 0.193993 0.195342
          0.196892 0.198459 0.199486 0.202015 0.202578 0.203454 0.203133 0.202146 0.200743 0.198991 0.19608 0.19583
          0.197803 0.198602 0.200612 0.201947 0.202955 0.203355 0.204158 0.203925 0.203253 0.202178 0.200806 0.197079
          0.197022 0.19781 0.200971 0.202152 0.20324 0.20392 0.204158 0.204743 0.204573 0.204078 0.203302 0.202271
          0.201425 0.20115 0.201583 0.202434 0.20342 0.204171 0.204655 0.204822 0.205131 0.204998 0.204622 0.204067
          0.203467 0.203019 0.202888 0.203116 0.203615 0.204218 0.20476 0.205123 0.205251 0.205267 0.205148 0.204814
          0.20434 0.203849 0.203494 0.203393 0.20358 0.203989 0.204495 0.204963 0.205285 0.205399 0.202382 0.202162
          0.202317 0.202081 0.201547 0.201411 0.200671 0.200438 0.199716 0.199363 0.198763 0.198338 0.198143 0.196937
          0.198201 0.197421 0.198865 0.198305 0.199749 0.199271 0.200644 0.200354 0.20132 0.201202 0.201571 0.201488
          0.202149 0.20187 0.201062 0.199935 0.1987 0.19721 0.19524 0.196285 0.197036 0.196944 0.199809 0.20092
          0.201303 0.201949 0.201611 0.200617 0.199149 0.196881 0.195681 0.19321 0.19274 0.196242 0.198065 0.199079
          0.200715 0.201164 0.201821 0.201408 0.200244 0.19766 0.196363 0.193917 0.190698 0.190272 0.195746 0.198081
          0.199676 0.200767 0.201182 0.201865 0.201418 0.199994 0.19699 0.194275 0.191904 0.189437 0.193062 0.19581
          0.198066 0.199791 0.200958 0.201362 0.202159 0.201695 0.200429 0.197591 0.192751 0.189744 0.191622 0.193637
          0.195252 0.197154 0.199946 0.201241 0.201708 0.202696 0.202317 0.201144 0.199337 0.196482 0.195267 0.192316
          0.194731 0.19696 0.19728 0.200258 0.201802 0.202266 0.203378 0.203095 0.202267 0.200962 0.199468 0.198041
          0.196815 0.19532 0.198212 0.200141 0.201631 0.202655 0.203006 0.204063 0.20386 0.203277 0.202388 0.20126
          0.20036 0.199545 0.198503 0.198271 0.201648 0.20286 0.203549 0.203785 0.204633 0.204484 0.20406 0.203418
          0.202659 0.201929 0.201491 0.201456 0.202018 0.202929 0.203782 0.204276 0.204443 0.205008 0.204891 0.204559
          0.204073 0.203532 0.203076 0.202845 0.202929 0.203309 0.203857 0.204385 0.204748 0.204875 0.205139 0.205032
          0.204732 0.204301 0.203835 0.203458 0.203283 0.203372 0.203697 0.204152 0.204597 0.204912 0.205025 0.202506
          0.202333 0.202452 0.202269 0.201848 0.201755 0.201138 0.201003 0.200327 0.200137 0.19957 0.199297 0.199054
          0.198771 0.199014 0.198638 0.199418 0.199056 0.200105 0.199837 0.200839 0.200716 0.201388 0.201319 0.201588
          0.201536 0.20231 0.202099 0.201502 0.20061 0.199557 0.198557 0.197886 0.197364 0.197388 0.199505 0.200431
          0.201165 0.201418 0.202145 0.20189 0.201161 0.200037 0.198763 0.197412 0.196593 0.196072 0.197613 0.199011
          0.200277 0.201032 0.201321 0.202044 0.201745 0.200848 0.199529 0.197729 0.195485 0.194882 0.195689 0.197025
          0.198789 0.200138 0.201017 0.201324 0.202104 0.201773 0.200778 0.199218 0.197056 0.19412 0.192325 0.193539
          0.196264 0.198535 0.20014 0.201137 0.201471 0.202381 0.202059 0.201067 0.199447 0.19733 0.193608 0.187929
          0.192387 0.195717 0.198143 0.200362 0.201447 0.201794 0.202867 0.202581 0.201737 0.200326 0.198481 0.196129
          0.194014 0.193546 0.197429 0.199575 0.201004 0.201985 0.202313 0.203481 0.203252 0.202585 0.201537 0.200215
          0.198842 0.197826 0.198153 0.19923 0.200723 0.201936 0.202715 0.202983 0.204108 0.203935 0.203438 0.202682
          0.201795 0.200938 0.200379 0.200418 0.201162 0.201986 0.202903 0.203486 0.203688 0.204638 0.204508 0.204137
          0.203588 0.202964 0.202411 0.202067 0.202056 0.202429 0.203094 0.203721 0.204147 0.204296 0.20499 0.204885
          0.204591 0.204163 0.20369 0.203285 0.203058 0.203087 0.203372 0.203816 0.204267 0.204588 0.204703 0.205113
          0.205017 0.204748 0.20436 0.203937 0.203583 0.203394 0.203431 0.203683 0.204067 0.204458 0.204743 0.204846
          0.202575 0.202418 0.202526 0.20236 0.201976 0.201894 0.201328 0.201208 0.200594 0.200426 0.199927 0.19972
          0.199497 0.199246 0.199418 0.199152 0.199738 0.199496 0.200336 0.2002 0.200987 0.200905 0.201466 0.201416
          0.201642 0.201601 0.202397 0.202208 0.201672 0.200876 0.199962 0.199125 0.198568 0.198526 0.199124 0.199824
          0.200722 0.201298 0.201506 0.202248 0.202025 0.201385 0.20042 0.199255 0.198197 0.197578 0.197746 0.198379
          0.199501 0.200503 0.201187 0.201423 0.202164 0.201903 0.201157 0.199972 0.198486 0.197125 0.196312 0.196583
          0.197778 0.199162 0.200367 0.201148 0.201419 0.20223 0.201946 0.20112 0.199779 0.197953 0.195836 0.194621
          0.195362 0.19718 0.198948 0.200368 0.201252 0.201553 0.2025 0.202217 0.20139 0.200036 0.198067 0.195404
          0.190134 0.194666 0.197154 0.199213 0.200635 0.201559 0.201869 0.202962 0.202709 0.201963 0.200758 0.199065
          0.196713 0.192538 0.195204 0.197992 0.199885 0.201262 0.20209 0.202374 0.203544 0.203337 0.202732 0.201773
          0.200525 0.19908 0.198157 0.198405 0.199721 0.201051 0.202102 0.202779 0.203014 0.204143 0.203982 0.20352
          0.202814 0.201964 0.201161 0.200692 0.200803 0.201394 0.202237 0.202985 0.203503 0.203685 0.204654 0.204531
          0.204181 0.203664 0.203077 0.202557 0.202263 0.202311 0.202679 0.20321 0.203747 0.204129 0.204267 0.204995
          0.204895 0.204615 0.204208 0.20376 0.203379 0.203167 0.203194 0.20345 0.203848 0.204255 0.204552 0.20466
          0.205115 0.205023 0.204765 0.204395 0.203991 0.203652 0.203467 0.203492 0.203718 0.20407 0.204434 0.204701
          0.204799
        </DataArray>
        <DataArray type="Float32" Name="S_gas" NumberOfComponents="1" format="ascii">
          0.790961 0.790997 0.790967 0.791006 0.791168 0.791222 0.791183 0.791247 0.791081 0.791095 0.791352 0.79141
          0.791151 0.791165 0.791467 0.791576 0.791145 0.791167 0.791473 0.791579 0.791043 0.791075 0.791346 0.791421
          0.790863 0.790898 0.791133 0.791193 0.790633 0.790669 0.790877 0.790931 0.790383 0.790414 0.790604 0.790649
          0.790141 0.790164 0.79034 0.790373 0.789938 0.789953 0.79012 0.790141 0.789803 0.789814 0.789974 0.789987
          0.789756 0.789765 0.789922 0.789933 0.790969 0.791015 0.791205 0.791288 0.791109 0.791528 0.791201 0.791677
          0.791217 0.791718 0.79114 0.791588 0.790983 0.791348 0.79076 0.791088 0.790494 0.790781 0.790223 0.790461
          0.789992 0.790193 0.789839 0.79002 0.789786 0.78996 0.790938 0.790985 0.791193 0.791281 0.791083 0.791539
          0.791193 0.79167 0.791222 0.79178 0.791181 0.791682 0.791057 0.79153 0.79085 0.791343 0.790582 0.79097
          0.790287 0.790571 0.790031 0.790253 0.789862 0.790054 0.789803 0.789985 0.790852 0.790894 0.791117 0.79119
          0.790995 0.79138 0.791091 0.791591 0.791148 0.791656 0.79114 0.791619 0.791051 0.791612 0.790866 0.791537
          0.790613 0.791109 0.790312 0.790636 0.790042 0.790284 0.789862 0.790064 0.7898 0.789989 0.790708 0.790744
          0.790978 0.791035 0.790833 0.791177 0.790929 0.791318 0.790988 0.7914 0.790997 0.791431 0.790942 0.791443
          0.790795 0.791353 0.790557 0.791009 0.790265 0.790601 0.790001 0.790255 0.789822 0.79003 0.789759 0.789952
          0.790516 0.790546 0.790786 0.790839 0.790619 0.790968 0.790697 0.791098 0.79076 0.791145 0.790779 0.791174
          0.790739 0.791183 0.790612 0.791101 0.790404 0.790834 0.790146 0.790469 0.789902 0.790154 0.789733 0.78994
          0.789674 0.789864 0.790283 0.790308 0.790542 0.790596 0.790368 0.790706 0.790447 0.790753 0.79049 0.790873
          0.790515 0.790877 0.790475 0.79091 0.790385 0.790739 0.790192 0.7906 0.789972 0.790277 0.789755 0.789993
          0.789603 0.7898 0.789549 0.789732 0.790026 0.790048 0.790257 0.790297 0.790099 0.790395 0.790157 0.790493
          0.790209 0.790524 0.790228 0.79055 0.790202 0.790561 0.790109 0.790504 0.789959 0.790303 0.789767 0.79004
          0.789581 0.789796 0.789449 0.78963 0.789402 0.789572 0.789775 0.789793 0.789972 0.789998 0.789838 0.790062
          0.789891 0.790133 0.789934 0.790189 0.789952 0.790227 0.789933 0.790223 0.789856 0.79017 0.789727 0.789999
          0.789562 0.789798 0.789406 0.789597 0.789294 0.789459 0.789253 0.78941 0.789567 0.789581 0.789736 0.789754
          0.789618 0.789801 0.789664 0.789862 0.789705 0.789919 0.789724 0.789959 0.789706 0.789958 0.789642 0.789888
          0.789529 0.789764 0.78939 0.789594 0.789257 0.789429 0.789161 0.789314 0.789127 0.789273 0.78943 0.789442
          0.789584 0.789599 0.789474 0.789639 0.789517 0.789693 0.789555 0.789747 0.789574 0.789783 0.789558 0.78978
          0.789499 0.789722 0.789398 0.789605 0.789275 0.789458 0.789157 0.789316 0.789072 0.789216 0.789042 0.78918
          0.789383 0.789394 0.789532 0.789545 0.789425 0.789583 0.789466 0.789636 0.789503 0.789687 0.789522 0.789721
          0.789507 0.789716 0.789449 0.789659 0.789353 0.789549 0.789235 0.78941 0.789122 0.789276 0.789041 0.789182
          0.789012 0.789148 0.791704 0.79179 0.791737 0.791845 0.792 0.792176 0.7922 0.792512 0.792246 0.792557
          0.792104 0.792297 0.791849 0.791966 0.791547 0.791645 0.791225 0.791304 0.790909 0.790964 0.790643 0.790676
          0.790465 0.790486 0.790403 0.790419 0.791807 0.791958 0.792523 0.794321 0.793982 0.792721 0.79229 0.791957
          0.791556 0.791123 0.790764 0.790538 0.790461 0.791852 0.79202 0.792654 0.794895 0.794147 0.793046 0.792793
          0.792619 0.792041 0.791341 0.790875 0.790598 0.790506 0.791828 0.791971 0.792421 0.792919 0.793043 0.792942
          0.793074 0.795094 0.792421 0.791521 0.790961 0.790634 0.790526 0.791723 0.791841 0.792085 0.792379 0.79253
          0.792607 0.792825 0.792911 0.792415 0.791593 0.790978 0.790614 0.790496 0.791535 0.791663 0.791976 0.792183
          0.792213 0.792237 0.792439 0.792476 0.791973 0.791487 0.790887 0.790518 0.790399 0.791253 0.791398 0.792045
          0.792953 0.791884 0.791851 0.792067 0.793339 0.791841 0.791185 0.790668 0.790348 0.790242 0.790891 0.790991
          0.791238 0.791395 0.791406 0.791436 0.791629 0.791694 0.791335 0.79081 0.790395 0.790136 0.790048 0.790517
          0.790565 0.790677 0.790795 0.790895 0.791016 0.791186 0.790975 0.790907 0.790471 0.790133 0.789923 0.789851
          0.790213 0.790242 0.790317 0.790417 0.790527 0.790644 0.790743 0.790749 0.790496 0.790183 0.789914 0.789743
          0.789684 0.790021 0.790044 0.790107 0.790196 0.790296 0.790385 0.790431 0.79038 0.79021 0.789978 0.789766
          0.789623 0.789573 0.789956 0.789977 0.790037 0.790122 0.790215 0.790293 0.790319 0.790259 0.790107 0.789905
          0.789713 0.78958 0.789534 0.792415 0.792506 0.792464 0.792576 0.792738 0.792875 0.792989 0.793221 0.793117
          0.793369 0.79306 0.793264 0.792849 0.793018 0.792538 0.792683 0.792166 0.792283 0.791785 0.791864 0.791457
          0.791504 0.791237 0.791266 0.79116 0.791183 0.792586 0.792743 0.793242 0.793831 0.79412 0.793912 0.7935
          0.793146 0.792652 0.792096 0.791632 0.79134 0.791241 0.792721 0.792911 0.793538 0.795156 0.797102 0.794544
          0.794275 0.794102 0.793348 0.792422 0.791795 0.791428 0.791306 0.792807 0.793025 0.793613 0.794391 0.795463
          0.794685 0.794803 0.797116 0.793968 0.792723 0.791936 0.791486 0.791341 0.792781 0.793021 0.793805 0.793902
          0.794135 0.794239 0.794625 0.794785 0.794265 0.793015 0.792003 0.791471 0.791308 0.792598 0.79284 0.79331
          0.793585 0.793603 0.793695 0.794019 0.795161 0.79677 0.793361 0.7919 0.791353 0.79119 0.792247 0.792485
          0.793592 0.793691 0.793157 0.79319 0.793481 0.793786 0.793352 0.792472 0.791608 0.791138 0.790993 0.79178
          0.791938 0.792269 0.792496 0.792545 0.792698 0.793106 0.793272 0.792695 0.791839 0.791234 0.79087 0.79075
          0.791302 0.791373 0.791544 0.791735 0.79193 0.792189 0.79274 0.79545 0.792326 0.791416 0.790897 0.790603
          0.790506 0.79092 0.790964 0.791084 0.791252 0.791451 0.791698 0.792065 0.792176 0.791698 0.791036 0.79062
          0.79038 0.7903 0.790683 0.790719 0.790819 0.790966 0.791139 0.791312 0.791424 0.791366 0.791101 0.790742
          0.790428 0.79023 0.790163 0.790604 0.790637 0.790732 0.79087 0.791028 0.791167 0.791226 0.791146 0.790924
          0.79063 0.790359 0.790177 0.790114 0.793245 0.793339 0.793304 0.793409 0.793586 0.793692 0.793898 0.794051
          0.794153 0.794351 0.794243 0.794469 0.794116 0.794326 0.793801 0.793992 0.793371 0.793523 0.792912 0.793014
          0.792513 0.792574 0.792245 0.792282 0.792151 0.79218 0.79346 0.793599 0.793982 0.794506 0.794951 0.79501
          0.794959 0.794591 0.793998 0.793309 0.792736 0.792377 0.792255 0.793674 0.793857 0.794387 0.795147 0.795633
          0.795909 0.795933 0.795814 0.794857 0.793719 0.792937 0.792486 0.792337 0.79387 0.794169 0.794827 0.795916
          0.79808 0.796403 0.796809 0.7988 0.795696 0.794045 0.793081 0.792548 0.792376 0.793931 0.794325 0.796305
          0.795676 0.795922 0.796135 0.796611 0.798622 0.795693 0.794105 0.793087 0.792508 0.792324 0.793746 0.794142
          0.794924 0.795255 0.79531 0.7955 0.79576 0.796141 0.794831 0.793833 0.792901 0.792343 0.792162 0.79332
          0.793612 0.794904 0.795453 0.794723 0.7948 0.794951 0.794827 0.794252 0.793337 0.792552 0.792068 0.791907
          0.792759 0.79295 0.793375 0.793742 0.793959 0.794257 0.794707 0.794593 0.793799 0.792824 0.792145 0.791739
          0.791604 0.792208 0.792305 0.792554 0.792871 0.793221 0.793771 0.794415 0.796817 0.793436 0.792369 0.791761
          0.791417 0.791304 0.791771 0.791838 0.792024 0.792295 0.792632 0.793033 0.793512 0.793425 0.792734 0.791934
          0.791434 0.791147 0.791053 0.791498 0.791553 0.791708 0.791937 0.792204 0.792456 0.792574 0.792438 0.792055
          0.791592 0.791207 0.790967 0.790885 0.791405 0.791456 0.791601 0.791812 0.792047 0.792237 0.792294 0.792155