<?xml version="1.0"?>
<VTKFile type="UnstructuredGrid" version="0.1" byte_order="LittleEndian">
  <UnstructuredGrid>
    <Piece NumberOfCells="728" NumberOfPoints="783">
      <CellData Scalars="p">
        <DataArray type="Float32" Name="p" NumberOfComponents="1" format="ascii">
          100000 100000 100000 100000 100000 100000 100000 100000 100000 100000 100000 100000
          100000 100000 100000 100000 100000 100000 100000 100000 100000 100000 100000 100000
          100000 100000 100000 100000 100000 100000 100000 100000 100000 100000 100000 100000
          100000 100000 100000 100000 100000 100000 100000 100000 100000 100000 100000 100000
          100000 100000 100000 100000 100000 100000 100000 100000 100000 100000 100000 100000
          100000 100000 100000 100000 100000 100000 100000 100000 100000 100000 100000 100000
          100000 100000 100000 100000 100000 100000 100000 100000 100000 100000 100000 100000
          100000 100000 100000 100000 100000 100000 100000 100000 100000 100000 100000 100000
          100000 100000 100000 100000 100000 100000 100000 100000 100000 100000 100000 100000
          100000 100000 100000 100000 100000 100000 100000 100000 100000 100000 100000 100000
          100000 100000 100000 100000 100000 100000 100000 100000 100000 100000 100000 100000
          100000 100000 100000 100000 100000 100000 100000 100000 100000 100000 100000 100000
          100000 100000 100000 100000 100000 100000 100000 100000 100000 100000 100000 100000
          100000 100000 100000 100000 100000 100000 100000 100000 100000 100000 100000 100000
          100000 100000 100000 100000 100000 100000 100000 100000 100000 100000 100000 100000
          100000 100000 100000 100000 100000 100000 100000 100000 100000 100000 100000 100000
          100000 100000 100000 100000 100000 100000 100000 100000 100000 100000 100000 100000
          100000 100000 100000 100000 100000 100000 100000 100000 100000 100000 100000 100000
          100000 100000 100000 100000 100000 100000 100000 100000 100000 100000 100000 100000
          100000 100000 100000 100000 100000 100000 100000 100000 100000 100000 100000 100000
          100000 100000 100000 100000 100000 100000 100000 100000 100000 100000 100000 100000
          100000 100000 100000 100000 100000 100000 100000 100000 100000 100000 100000 100000
          100000 100000 100000 100000 100000 100000 100000 100000 100000 100000 100000 100000
          100000 100000 100000 100000 100000 100000 100000 100000 100000 100000 100000 100000
          100000 100000 100000 100000 100000 100000 100000 100000 100000 100000 100000 100000
          100000 100000 100000 100000 100000 100000 100000 100000 100000 100000 100000 100000
          100000 100000 100000 100000 100000 100000 100000 100000 100000 100000 100000 100000
          100000 100000 100000 100000 100000 100000 100000 100000 100000 100000 100000 100000
          100000 100000 100000 100000 100000 100000 100000 100000 100000 100000 100000 100000
          100000 100000 100000 100000 100000 100000 100000 100000 100000 100000 100000 100000
          100000 100000 100000 100000 100000 100000 100000 100000 100000 100000 100000 100000
          100000 100000 100000 100000 100000 100000 100000 100000 100000 100000 100000 100000
          100000 100000 100000 100000 100000 100000 100000 100000 100000 100000 100000 100000
          100000 100000 100000 100000 100000 100000 100000 100000 100000 100000 100000 100000
          100000 100000 100000 100000 100000 100000 100000 100000 100000 100000 100000 100000
          100000 100000 100000 100000 100000 100000 100000 100000 100000 100000 100000 100000
          100000 100000 100000 100000 100000 100000 100000 100000 100000 100000 100000 100000
          100000 100000 100000 100000 100000 100000 100000 100000 100000 100000 100000 100000
          100000 100000 100000 100000 100000 100000 100000 100000 100000 100000 100000 100000
          100000 100000 100000 100000 100000 100000 100000 100000 100000 100000 100000 100000
          100000 100000 100000 100000 100000 100000 100000 100000 100000 100000 100000 100000
          100000 100000 100000 100000 100000 100000 100000 100000 100000 100000 100000 100000
          100000 100000 100000 100000 100000 100000 100000 100000 100000 100000 100000 100000
          100000 100000 100000 100000 100000 100000 100000 100000 100000 100000 100000 100000
          100000 100000 100000 100000 100000 100000 100000 100000 100000 100000 100000 100000
          100000 100000 100000 100000 100000 100000 100000 100000 100000 100000 100000 100000
          100000 100000 100000 100000 100000 100000 100000 100000 100000 100000 100000 100000
          100000 100000 100000 100000 100000 100000 100000 100000 100000 100000 100000 100000
          100000 100000 100000 100000 100000 100000 100000 100000 100000 100000 100000 100000
          100000 100000 100000 100000 100000 100000 100000 100000 100000 100000 100000 100000
          100000 100000 100000 100000 100000 100000 100000 100000 100000 100000 100000 100000
          100000 100000 100000 100000 100000 100000 100000 100000 100000 100000 100000 100000
          100000 100000 100000 100000 100000 100000 100000 100000 100000 100000 100000 100000
          100000 100000 100000 100000 100000 100000 100000 100000 100000 100000 100000 100000
          100000 100000 100000 100000 100000 100000 100000 100000 100000 100000 100000 100000
          100000 100000 100000 100000 100000 100000 100000 100000 100000 100000 100000 100000
          100000 100000 100000 100000 100000 100000 100000 100000 100000 100000 100000 100000
          100000 100000 100000 100000 100000 100000 100000 100000 100000 100000 100000 100000
          100000 100000 100000 100000 100000 100000 100000 100000 100000 100000 100000 100000
          100000 100000 100000 100000 100000 100000 100000 100000 100000 100000 100000 100000
          100000 100000 100000 100000 100000 100000 100000 100000
        </DataArray>
        <DataArray type="Float32" Name="rho" NumberOfComponents="1" format="ascii">
          952.506 952.506 955.617 955.617 952.507 952.507 955.618 955.618 958.651 958.651 958.651 958.652
          952.507 955.618 952.507 952.507 955.618 955.618 958.652 958.652 958.652 961.606 961.606 964.472
          964.472 961.606 961.607 964.472 964.472 967.256 967.256 967.256 967.257 961.607 964.472 961.607
          961.607 964.473 964.473 967.257 967.257 967.258 952.507 952.507 955.618 955.618 952.507 952.507
          955.619 955.619 958.652 958.653 958.653 958.654 952.507 955.619 952.507 952.507 955.619 955.619
          958.654 958.654 958.654 961.608 961.608 964.474 964.475 961.609 961.609 964.475 964.476 967.259
          967.259 967.26 967.262 961.61 964.477 961.61 961.611 964.478 964.479 967.263 967.265 967.267
          969.767 969.767 972.02 972.02 969.768 969.768 972.02 972.02 974.207 974.207 974.207 974.207
          969.768 972.02 969.769 969.769 972.021 972.021 974.208 974.208 974.208 976.328 976.328 978.38
          978.381 976.328 976.328 978.381 978.381 980.363 980.363 982.274 982.274 980.363 980.363 982.274
          982.274 976.328 978.381 976.329 976.329 978.381 978.381 980.363 982.274 980.363 980.364 982.274
          982.274 969.77 969.771 972.022 972.023 969.772 969.774 972.024 972.025 974.209 974.21 974.21
          974.211 969.776 972.027 969.78 969.786 972.029 972.031 974.212 974.213 974.214 976.329 976.33
          978.382 978.382 976.33 976.331 978.382 978.382 980.364 980.364 982.274 982.274 980.364 980.364
          982.274 982.274 976.331 978.383 976.332 976.332 978.383 978.383 980.364 982.274 980.364 980.365
          982.274 982.274 952.507 952.507 955.619 955.619 952.507 952.507 955.619 955.619 958.654 958.654
          958.654 952.507 955.619 952.507 952.507 955.618 955.618 958.654 958.653 958.653 958.652 961.611
          961.61 964.479 964.478 961.61 961.609 964.477 967.267 967.265 967.263 961.609 964.476 964.475
          961.608 961.608 964.475 964.474 967.262 967.26 967.259 967.259 952.507 952.507 955.618 955.618
          952.507 955.618 958.652 958.652 958.652 952.507 952.507 955.618 955.618 952.506 952.506 955.617
          955.617 958.652 958.651 958.651 958.651 961.607 961.607 964.473 964.473 961.607 961.607 964.472
          964.472 967.258 967.257 967.257 967.257 961.606 964.472 961.606 961.606 964.472 964.472 967.256
          967.256 967.256 969.786 969.78 972.031 972.029 969.776 972.027 972.025 974.214 974.213 974.212
          969.774 969.772 972.024 969.771 969.77 972.023 972.022 974.211 974.21 974.21 974.209 976.332
          976.332 978.383 978.383 976.331 978.383 978.382 980.365 980.364 982.274 982.274 980.364 980.364
          982.274 976.331 976.33 978.382 976.33 976.329 978.382 978.382 980.364 982.274 982.274 980.364
          980.364 982.274 982.274 969.769 969.769 972.021 972.021 969.768 969.768 972.02 972.02 974.208
          974.208 974.208 974.207 969.768 972.02 969.767 969.767 972.02 972.02 974.207 974.207 974.207
          976.329 976.329 978.381 978.381 976.328 976.328 978.381 980.364 980.363 982.274 982.274 980.363
          982.274 976.328 978.381 978.381 976.328 976.328 978.381 978.38 980.363 980.363 982.274 982.274
          980.363 980.363 982.274 982.274 984.11 984.11 985.869 985.869 984.11 984.11 985.869 985.869
          987.548 987.548 987.548 987.548 984.109 985.868 984.109 984.109 985.868 985.868 987.548 987.548
          987.547 989.144 989.144 990.654 990.654 989.144 989.144 990.654 990.654 992.074 992.074 993.399
          993.399 992.074 992.074 993.399 993.399 989.144 990.654 989.144 989.144 990.654 990.653 992.074
          993.399 992.073 992.073 993.398 993.398 984.109 984.109 985.868 985.868 984.109 984.109 985.868
          985.868 987.547 987.547 987.547 987.546 984.109 985.868 984.109 984.109 985.867 985.867 987.546
          987.546 987.546 989.143 989.143 990.653 990.653 989.143 989.142 990.652 990.651 992.073 992.072
          993.398 993.397 992.071 992.071 993.396 993.396 989.142 990.651 989.141 989.141 990.65 990.65
          992.07 993.394 992.068 992.067 993.392 993.388 994.723 994.723 994.723 994.723 996.014 996.014
          997.15 997.15 996.014 996.014 997.15 997.15 994.723 994.723 994.722 996.014 996.014 996.014
          997.15 997.15 997.15 998.107 998.107 998.886 998.886 998.107 998.107 998.886 998.886 999.47
          999.47 999.47 999.47 998.107 998.886 998.107 998.107 998.886 998.886 999.47 999.47 999.47
          994.722 994.722 994.721 994.72 996.013 996.013 997.149 997.149 996.013 996.012 997.149 997.149
          994.72 994.719 994.718 996.012 997.149 996.011 996.011 997.149 997.148 998.107 998.106 998.886
          998.885 998.106 998.106 998.885 998.885 999.47 999.47 999.47 999.47 998.106 998.885 998.106
          998.106 998.885 998.885 999.47 999.47 999.47 984.109 984.109 985.867 985.867 984.109 985.868
          987.546 987.546 987.546 984.109 984.109 985.868 985.868 984.109 984.109 985.868 985.868 987.546
          987.547 987.547 987.547 989.141 989.141 990.65 990.65 989.142 990.651 992.067 992.068 993.388
          993.392 992.07 993.394 989.142 989.143 990.651 990.652 989.143 989.143 990.653 990.653 992.071
          992.071 993.396 993.396 992.072 992.073 993.397 993.398 984.109 984.109 985.868 985.868 984.109
          985.868 987.547 987.548 987.548 984.11 984.11 985.869 985.869 984.11 984.11 985.869 985.869
          987.548 987.548 987.548 987.548 989.144 989.144 990.653 990.654 989.144 990.654 992.073 992.073
          993.398 993.398 992.074 993.399 989.144 989.144 990.654 990.654 989.144 989.144 990.654 990.654
          992.074 992.074 993.399 993.399 992.074 992.074 993.399 993.399 994.718 994.719 994.72 996.011
          996.011 997.148 997.149 996.012 996.012 997.149 994.72 994.721 994.722 994.722 996.013 997.149
          997.149 996.013 996.013 997.149 997.149 998.106 998.106 998.106 998.885 998.885 999.47 999.47
          998.885 999.47 998.106 998.106 998.106 998.107 998.885 998.885 999.47 999.47 998.885 998.886
          999.47 999.47 994.722 994.723 994.723 996.014 996.014 997.15 997.15 996.014 996.014 997.15
          997.15 994.723 994.723 994.723 994.723 996.014 997.15 996.014 996.014 997.15 997.15 998.107
          998.107 998.107 998.886 998.886 999.47 999.47 998.886 999.47 998.107 998.107 998.107 998.107
          998.886 998.886 999.47 999.47 998.886 998.886 999.47 999.47
        </DataArray>
        <DataArray type="Float32" Name="mu" NumberOfComponents="1" format="ascii">
          0.000259898 0.000259898 0.000270958 0.000270958 0.000259898 0.000259898 0.000270958 0.000270958 0.000282877 0.000282877 0.000282878 0.000282878
          0.000259898 0.000270959 0.000259899 0.000259899 0.000270959 0.00027096 0.000282879 0.00028288 0.000282881 0.000295756 0.000295756 0.000309831
          0.000309831 0.000295757 0.000295757 0.000309832 0.000309833 0.000325102 0.000325103 0.000325104 0.000325105 0.000295759 0.000309835 0.00029576
          0.000295762 0.000309837 0.000309839 0.000325107 0.00032511 0.000325113 0.000259899 0.000259899 0.00027096 0.000270961 0.000259899 0.0002599
          0.000270962 0.000270962 0.000282882 0.000282883 0.000282885 0.000282886 0.0002599 0.000270963 0.0002599 0.0002599 0.000270963 0.000270964
          0.000282887 0.000282888 0.000282889 0.000295764 0.000295766 0.000309842 0.000309846 0.000295769 0.000295772 0.00030985 0.000309855 0.000325117
          0.000325122 0.000325128 0.000325136 0.000295774 0.00030986 0.000295776 0.000295778 0.000309864 0.000309868 0.000325146 0.000325157 0.000325167
          0.000340474 0.000340475 0.000355813 0.000355814 0.000340476 0.000340477 0.000355815 0.000355817 0.000372384 0.000372384 0.000372385 0.000372387
          0.00034048 0.000355819 0.000340482 0.000340486 0.000355822 0.000355825 0.000372389 0.000372392 0.000372395 0.000390321 0.000390321 0.00040978
          0.00040978 0.000390322 0.000390324 0.000409781 0.000409782 0.000430938 0.000430939 0.000454001 0.000454001 0.000430939 0.00043094 0.000454001
          0.000454001 0.000390326 0.000409784 0.000390328 0.000390331 0.000409785 0.000409788 0.000430941 0.000454002 0.000430942 0.000430943 0.000454002
          0.000454003 0.000340491 0.000340497 0.00035583 0.000355836 0.000340505 0.000340515 0.000355843 0.000355853 0.000372399 0.000372405 0.000372411
          0.000372418 0.00034053 0.000355864 0.000340554 0.000340598 0.000355878 0.000355892 0.000372425 0.000372433 0.000372438 0.000390334 0.000390338
          0.00040979 0.000409793 0.000390343 0.000390348 0.000409796 0.0004098 0.000430945 0.000430947 0.000454003 0.000454004 0.000430949 0.000430951
          0.000454005 0.000454005 0.000390353 0.000409803 0.000390357 0.00039036 0.000409805 0.000409807 0.000430952 0.000454006 0.000430954 0.000430954
          0.000454006 0.000454006 0.0002599 0.0002599 0.000270964 0.000270963 0.0002599 0.0002599 0.000270963 0.000270962 0.000282889 0.000282888
          0.000282887 0.000259899 0.000270962 0.000259899 0.000259899 0.000270961 0.00027096 0.000282886 0.000282885 0.000282883 0.000282882 0.000295778
          0.000295776 0.000309868 0.000309864 0.000295774 0.000295772 0.00030986 0.000325167 0.000325157 0.000325146 0.000295769 0.000309855 0.00030985
          0.000295766 0.000295764 0.000309846 0.000309842 0.000325136 0.000325128 0.000325122 0.000325117 0.000259899 0.000259899 0.00027096 0.000270959
          0.000259898 0.000270959 0.000282881 0.00028288 0.000282879 0.000259898 0.000259898 0.000270958 0.000270958 0.000259898 0.000259898 0.000270958
          0.000270958 0.000282878 0.000282878 0.000282877 0.000282877 0.000295762 0.00029576 0.000309839 0.000309837 0.000295759 0.000295757 0.000309835
          0.000309833 0.000325113 0.00032511 0.000325107 0.000325105 0.000295757 0.000309832 0.000295756 0.000295756 0.000309831 0.000309831 0.000325104
          0.000325103 0.000325102 0.000340598 0.000340554 0.000355892 0.000355878 0.00034053 0.000355864 0.000355853 0.000372438 0.000372433 0.000372425
          0.000340515 0.000340505 0.000355843 0.000340497 0.000340491 0.000355836 0.00035583 0.000372418 0.000372411 0.000372405 0.000372399 0.00039036
          0.000390357 0.000409807 0.000409805 0.000390353 0.000409803 0.0004098 0.000430954 0.000430954 0.000454006 0.000454006 0.000430952 0.000430951
          0.000454006 0.000390348 0.000390343 0.000409796 0.000390338 0.000390334 0.000409793 0.00040979 0.000430949 0.000454005 0.000454005 0.000430947
          0.000430945 0.000454004 0.000454003 0.000340486 0.000340482 0.000355825 0.000355822 0.00034048 0.000340477 0.000355819 0.000355817 0.000372395
          0.000372392 0.000372389 0.000372387 0.000340476 0.000355815 0.000340475 0.000340474 0.000355814 0.000355813 0.000372385 0.000372384 0.000372384
          0.000390331 0.000390328 0.000409788 0.000409785 0.000390326 0.000390324 0.000409784 0.000430943 0.000430942 0.000454003 0.000454002 0.000430941
          0.000454002 0.000390322 0.000409782 0.000409781 0.000390321 0.000390321 0.00040978 0.00040978 0.00043094 0.000430939 0.000454001 0.000454001
          0.000430939 0.000430938 0.000454001 0.000454001 0.000479205 0.000479205 0.000506826 0.000506826 0.000479205 0.000479204 0.000506825 0.000506824
          0.000537188 0.000537187 0.000537186 0.000537184 0.000479204 0.000506823 0.000479203 0.000479203 0.000506822 0.00050682 0.000537182 0.000537179
          0.000537176 0.000570669 0.000570668 0.00060772 0.000607719 0.000570667 0.000570664 0.000607717 0.000607714 0.000648877 0.000648876 0.000694782
          0.00069478 0.000648873 0.000648869 0.000694777 0.000694772 0.000570661 0.000607709 0.000570656 0.000570651 0.000607703 0.000607695 0.000648863
          0.000694765 0.000648855 0.000648845 0.000694756 0.000694744 0.000479202 0.000479202 0.000506817 0.000506815 0.000479201 0.0004792 0.000506813
          0.00050681 0.000537172 0.000537167 0.000537162 0.000537157 0.000479199 0.000506808 0.000479199 0.000479199 0.000506806 0.000506805 0.000537152
          0.000537148 0.000537146 0.000570644 0.000570637 0.000607685 0.000607674 0.000570628 0.000570619 0.00060766 0.000607644 0.000648832 0.000648816
          0.000694729 0.000694709 0.000648796 0.000648771 0.000694684 0.00069465 0.000570609 0.000607627 0.000570601 0.000570596 0.00060761 0.000607598
          0.00064874 0.000694602 0.000648702 0.000648666 0.000694524 0.000694382 0.000750693 0.000750691 0.000750688 0.000750682 0.000819261 0.000819259
          0.000898682 0.00089868 0.000819256 0.00081925 0.000898676 0.000898671 0.000750675 0.000750665 0.000750652 0.000819233 0.000819221 0.000819243
          0.000898663 0.000898654 0.000898642 0.000992459 0.000992457 0.00110267 0.00110267 0.000992454 0.00099245 0.00110267 0.00110267 0.00123347
          0.00123347 0.00123347 0.00123347 0.000992444 0.00110266 0.000992436 0.000992427 0.00110266 0.00110265 0.00123346 0.00123346 0.00123346
          0.000750636 0.000750617 0.000750592 0.000750561 0.000819207 0.000819189 0.000898628 0.000898613 0.00081917 0.000819147 0.000898596 0.000898578
          0.000750524 0.000750481 0.000750441 0.000819123 0.000898561 0.000819101 0.000819086 0.000898547 0.000898539 0.000992416 0.000992405 0.00110265
          0.00110264 0.000992393 0.000992381 0.00110263 0.00110262 0.00123346 0.00123345 0.00123345 0.00123345 0.00099237 0.00110262 0.000992362
          0.000992357 0.00110261 0.00110261 0.00123345 0.00123345 0.00123344 0.000479199 0.000479199 0.000506805 0.000506806 0.000479199 0.000506808
          0.000537146 0.000537148 0.000537152 0.0004792 0.000479201 0.00050681 0.000506813 0.000479202 0.000479202 0.000506815 0.000506817 0.000537157
          0.000537162 0.000537167 0.000537172 0.000570596 0.000570601 0.000607598 0.00060761 0.000570609 0.000607627 0.000648666 0.000648702 0.000694382
          0.000694524 0.00064874 0.000694602 0.000570619 0.000570628 0.000607644 0.00060766 0.000570637 0.000570644 0.000607674 0.000607685 0.000648771
          0.000648796 0.00069465 0.000694684 0.000648816 0.000648832 0.000694709 0.000694729 0.000479203 0.000479203 0.00050682 0.000506822 0.000479204
          0.000506823 0.000537176 0.000537179 0.000537182 0.000479204 0.000479205 0.000506824 0.000506825 0.000479205 0.000479205 0.000506826 0.000506826
          0.000537184 0.000537186 0.000537187 0.000537188 0.000570651 0.000570656 0.000607695 0.000607703 0.000570661 0.000607709 0.000648845 0.000648855
          0.000694744 0.000694756 0.000648863 0.000694765 0.000570664 0.000570667 0.000607714 0.000607717 0.000570668 0.000570669 0.000607719 0.00060772
          0.000648869 0.000648873 0.000694772 0.000694777 0.000648876 0.000648877 0.00069478 0.000694782 0.000750441 0.000750481 0.000750524 0.000819086
          0.000819101 0.000898539 0.000898547 0.000819123 0.000819147 0.000898561 0.000750561 0.000750592 0.000750617 0.000750636 0.00081917 0.000898578
          0.000898596 0.000819189 0.000819207 0.000898613 0.000898628 0.000992357 0.000992362 0.00099237 0.00110261 0.00110261 0.00123344 0.00123345
          0.00110262 0.00123345 0.000992381 0.000992393 0.000992405 0.000992416 0.00110262 0.00110263 0.00123345 0.00123345 0.00110264 0.00110265
          0.00123345 0.00123346 0.000750652 0.000750665 0.000750675 0.000819221 0.000819233 0.000898642 0.000898654 0.000819243 0.00081925 0.000898663
          0.000898671 0.000750682 0.000750688 0.000750691 0.000750693 0.000819256 0.000898676 0.000819259 0.000819261 0.00089868 0.000898682 0.000992427
          0.000992436 0.000992444 0.00110265 0.00110266 0.00123346 0.00123346 0.00110266 0.00123346 0.00099245 0.000992454 0.000992457 0.000992459
          0.00110267 0.00110267 0.00123347 0.00123347 0.00110267 0.00110267 0.00123347 0.00123347
        </DataArray>
        <DataArray type="Float32" Name="delp" NumberOfComponents="1" format="ascii">
          -1.45519e-11 -1.45519e-11 -2.91038e-11 -2.91038e-11 -1.45519e-11 -1.45519e-11 -2.91038e-11 -2.91038e-11 -4.36557e-11 -4.36557e-11 -4.36557e-11 -4.36557e-11
          -1.45519e-11 -2.91038e-11 -1.45519e-11 -1.45519e-11 -2.91038e-11 -2.91038e-11 -4.36557e-11 -4.36557e-11 -4.36557e-11 -5.82077e-11 -5.82077e-11 -7.27596e-11
          -7.27596e-11 -5.82077e-11 -5.82077e-11 -7.27596e-11 -7.27596e-11 -1.01863e-10 -1.01863e-10 -1.01863e-10 -1.01863e-10 -5.82077e-11 -8.73115e-11 -5.82077e-11
          -5.82077e-11 -8.73115e-11 -8.73115e-11 -1.01863e-10 -1.01863e-10 -1.01863e-10 -1.45519e-11 -1.45519e-11 -2.91038e-11 -2.91038e-11 -1.45519e-11 -1.45519e-11
          -2.91038e-11 -2.91038e-11 -4.36557e-11 -4.36557e-11 -4.36557e-11 -4.36557e-11 -1.45519e-11 -2.91038e-11 -1.45519e-11 -1.45519e-11 -2.91038e-11 -2.91038e-11
          -4.36557e-11 -4.36557e-11 -4.36557e-11 -5.82077e-11 -5.82077e-11 -8.73115e-11 -8.73115e-11 -7.27596e-11 -7.27596e-11 -8.73115e-11 -8.73115e-11 -1.01863e-10
          -1.01863e-10 -1.01863e-10 -1.01863e-10 -7.27596e-11 -8.73115e-11 -7.27596e-11 -7.27596e-11 -8.73115e-11 -8.73115e-11 -1.16415e-10 -1.16415e-10 -1.16415e-10
          -1.16415e-10 -1.16415e-10 -1.30967e-10 -1.30967e-10 -1.16415e-10 -1.16415e-10 -1.30967e-10 -1.30967e-10 -1.30967e-10 -1.30967e-10 -1.30967e-10 -1.45519e-10
          -1.16415e-10 -1.30967e-10 -1.16415e-10 -1.16415e-10 -1.30967e-10 -1.30967e-10 -1.45519e-10 -1.45519e-10 -1.45519e-10 -1.45519e-10 -1.45519e-10 -1.60071e-10
          -1.60071e-10 -1.45519e-10 -1.45519e-10 -1.60071e-10 -1.60071e-10 -1.60071e-10 -1.74623e-10 -1.74623e-10 -1.74623e-10 -1.74623e-10 -1.74623e-10 -1.74623e-10
          -1.74623e-10 -1.45519e-10 -1.60071e-10 -1.60071e-10 -1.60071e-10 -1.60071e-10 -1.74623e-10 -1.74623e-10 -1.74623e-10 -1.74623e-10 -1.74623e-10 -1.89175e-10
          -1.89175e-10 -1.16415e-10 -1.16415e-10 -1.30967e-10 -1.30967e-10 -1.30967e-10 -1.30967e-10 -1.45519e-10 -1.45519e-10 -1.45519e-10 -1.45519e-10 -1.60071e-10
          -1.60071e-10 -1.30967e-10 -1.45519e-10 -1.30967e-10 -1.45519e-10 -1.45519e-10 -1.60071e-10 -1.60071e-10 -1.74623e-10 -1.74623e-10 -1.60071e-10 -1.60071e-10
          -1.74623e-10 -1.74623e-10 -1.74623e-10 -1.74623e-10 -1.89175e-10 -1.89175e-10 -1.89175e-10 -1.89175e-10 -1.89175e-10 -1.89175e-10 -1.89175e-10 -2.03727e-10
          -2.03727e-10 -2.03727e-10 -1.74623e-10 -1.89175e-10 -1.89175e-10 -1.89175e-10 -2.03727e-10 -2.03727e-10 -2.03727e-10 -2.18279e-10 -2.18279e-10 -2.18279e-10
          -2.18279e-10 -2.32831e-10 -1.45519e-11 -1.45519e-11 -2.91038e-11 -2.91038e-11 -1.45519e-11 -1.45519e-11 -2.91038e-11 -2.91038e-11 -4.36557e-11 -4.36557e-11
          -4.36557e-11 -1.45519e-11 -2.91038e-11 -1.45519e-11 -1.45519e-11 -2.91038e-11 -2.91038e-11 -4.36557e-11 -4.36557e-11 -4.36557e-11 -4.36557e-11 -7.27596e-11
          -7.27596e-11 -8.73115e-11 -8.73115e-11 -7.27596e-11 -7.27596e-11 -8.73115e-11 -1.16415e-10 -1.16415e-10 -1.16415e-10 -7.27596e-11 -8.73115e-11 -8.73115e-11
          -7.27596e-11 -5.82077e-11 -8.73115e-11 -8.73115e-11 -1.01863e-10 -1.01863e-10 -1.01863e-10 -1.01863e-10 -1.45519e-11 -1.45519e-11 -2.91038e-11 -2.91038e-11
          -1.45519e-11 -2.91038e-11 -4.36557e-11 -4.36557e-11 -4.36557e-11 -1.45519e-11 -1.45519e-11 -2.91038e-11 -2.91038e-11 -1.45519e-11 -1.45519e-11 -2.91038e-11
          -2.91038e-11 -4.36557e-11 -4.36557e-11 -4.36557e-11 -4.36557e-11 -5.82077e-11 -5.82077e-11 -8.73115e-11 -8.73115e-11 -5.82077e-11 -5.82077e-11 -8.73115e-11
          -7.27596e-11 -1.01863e-10 -1.01863e-10 -1.01863e-10 -1.01863e-10 -5.82077e-11 -7.27596e-11 -5.82077e-11 -5.82077e-11 -7.27596e-11 -7.27596e-11 -1.01863e-10
          -1.01863e-10 -1.01863e-10 -1.45519e-10 -1.30967e-10 -1.60071e-10 -1.60071e-10 -1.30967e-10 -1.45519e-10 -1.45519e-10 -1.74623e-10 -1.74623e-10 -1.60071e-10
          -1.30967e-10 -1.30967e-10 -1.45519e-10 -1.16415e-10 -1.16415e-10 -1.30967e-10 -1.30967e-10 -1.60071e-10 -1.60071e-10 -1.45519e-10 -1.45519e-10 -1.89175e-10
          -1.89175e-10 -2.03727e-10 -2.03727e-10 -1.74623e-10 -1.89175e-10 -1.89175e-10 -2.18279e-10 -2.03727e-10 -2.32831e-10 -2.18279e-10 -2.03727e-10 -2.03727e-10
          -2.18279e-10 -1.74623e-10 -1.74623e-10 -1.74623e-10 -1.60071e-10 -1.60071e-10 -1.74623e-10 -1.74623e-10 -1.89175e-10 -2.03727e-10 -2.03727e-10 -1.89175e-10
          -1.74623e-10 -1.89175e-10 -1.89175e-10 -1.16415e-10 -1.16415e-10 -1.30967e-10 -1.30967e-10 -1.16415e-10 -1.16415e-10 -1.30967e-10 -1.30967e-10 -1.45519e-10
          -1.45519e-10 -1.45519e-10 -1.45519e-10 -1.16415e-10 -1.30967e-10 -1.16415e-10 -1.16415e-10 -1.30967e-10 -1.16415e-10 -1.30967e-10 -1.30967e-10 -1.30967e-10
          -1.60071e-10 -1.60071e-10 -1.74623e-10 -1.60071e-10 -1.45519e-10 -1.45519e-10 -1.60071e-10 -1.74623e-10 -1.74623e-10 -1.89175e-10 -1.89175e-10 -1.74623e-10
          -1.74623e-10 -1.45519e-10 -1.60071e-10 -1.60071e-10 -1.45519e-10 -1.45519e-10 -1.60071e-10 -1.60071e-10 -1.74623e-10 -1.74623e-10 -1.74623e-10 -1.74623e-10
          -1.60071e-10 -1.60071e-10 -1.74623e-10 -1.74623e-10 -1.74623e-10 -1.74623e-10 -1.89175e-10 -1.89175e-10 -1.89175e-10 -1.89175e-10 -1.89175e-10 -1.89175e-10
          -1.89175e-10 -1.89175e-10 -1.89175e-10 -1.89175e-10 -1.89175e-10 -1.89175e-10 -1.89175e-10 -1.89175e-10 -1.89175e-10 -2.03727e-10 -1.89175e-10 -1.89175e-10
          -2.03727e-10 -1.89175e-10 -1.89175e-10 -1.74623e-10 -1.74623e-10 -1.89175e-10 -1.89175e-10 -1.89175e-10 -1.89175e-10 -1.74623e-10 -1.74623e-10 -1.60071e-10
          -1.60071e-10 -1.74623e-10 -1.74623e-10 -1.74623e-10 -1.74623e-10 -1.89175e-10 -1.89175e-10 -1.89175e-10 -2.03727e-10 -1.89175e-10 -1.89175e-10 -1.74623e-10
          -1.74623e-10 -1.89175e-10 -1.89175e-10 -1.74623e-10 -1.74623e-10 -2.03727e-10 -2.03727e-10 -2.03727e-10 -2.03727e-10 -2.03727e-10 -2.18279e-10 -2.18279e-10
          -2.18279e-10 -2.03727e-10 -2.03727e-10 -2.18279e-10 -2.18279e-10 -2.18279e-10 -2.32831e-10 -2.32831e-10 -2.47383e-10 -2.32831e-10 -2.47383e-10 -2.32831e-10
          -2.32831e-10 -2.47383e-10 -2.03727e-10 -2.03727e-10 -2.03727e-10 -2.03727e-10 -2.18279e-10 -2.18279e-10 -2.03727e-10 -2.18279e-10 -1.89175e-10 -1.89175e-10
          -1.74623e-10 -1.89175e-10 -2.03727e-10 -2.03727e-10 -1.89175e-10 -1.89175e-10 -2.32831e-10 -2.18279e-10 -2.32831e-10 -2.47383e-10 -2.32831e-10 -2.47383e-10
          -2.18279e-10 -2.03727e-10 -2.18279e-10 -2.32831e-10 -2.03727e-10 -2.18279e-10 -1.60071e-10 -1.60071e-10 -1.60071e-10 -1.60071e-10 -1.30967e-10 -1.30967e-10
          -1.16415e-10 -1.16415e-10 -1.30967e-10 -1.30967e-10 -1.16415e-10 -1.16415e-10 -1.60071e-10 -1.60071e-10 -1.60071e-10 -1.45519e-10 -1.45519e-10 -1.45519e-10
          -1.16415e-10 -1.16415e-10 -1.16415e-10 -8.73115e-11 -8.73115e-11 -5.82077e-11 -5.82077e-11 -8.73115e-11 -8.73115e-11 -5.82077e-11 -5.82077e-11 -1.45519e-11
          -1.45519e-11 -1.45519e-11 -1.45519e-11 -8.73115e-11 -5.82077e-11 -8.73115e-11 -8.73115e-11 -5.82077e-11 -5.82077e-11 -1.45519e-11 -1.45519e-11 -1.45519e-11
          -1.60071e-10 -1.74623e-10 -1.74623e-10 -1.74623e-10 -1.45519e-10 -1.45519e-10 -1.16415e-10 -1.16415e-10 -1.45519e-10 -1.60071e-10 -1.30967e-10 -1.30967e-10
          -1.74623e-10 -1.89175e-10 -1.89175e-10 -1.60071e-10 -1.30967e-10 -1.60071e-10 -1.60071e-10 -1.30967e-10 -1.30967e-10 -8.73115e-11 -8.73115e-11 -5.82077e-11
          -5.82077e-11 -1.01863e-10 -1.01863e-10 -5.82077e-11 -5.82077e-11 -1.45519e-11 -1.45519e-11 -1.45519e-11 -2.91038e-11 -1.01863e-10 -5.82077e-11 -1.01863e-10
          -1.01863e-10 -5.82077e-11 -5.82077e-11 -2.91038e-11 -2.91038e-11 -2.91038e-11 -2.32831e-10 -2.32831e-10 -2.47383e-10 -2.32831e-10 -2.18279e-10 -2.18279e-10
          -2.47383e-10 -2.32831e-10 -2.32831e-10 -2.18279e-10 -2.03727e-10 -2.18279e-10 -2.03727e-10 -2.03727e-10 -1.89175e-10 -2.03727e-10 -2.03727e-10 -2.18279e-10
          -2.18279e-10 -2.03727e-10 -2.03727e-10 -2.47383e-10 -2.32831e-10 -2.47383e-10 -2.32831e-10 -2.32831e-10 -2.18279e-10 -2.32831e-10 -2.18279e-10 -2.18279e-10
          -2.03727e-10 -2.18279e-10 -2.03727e-10 -2.18279e-10 -2.18279e-10 -2.18279e-10 -2.03727e-10 -2.03727e-10 -2.03727e-10 -2.03727e-10 -2.03727e-10 -2.03727e-10