<?xml version="1.0"?>
<VTKFile type="UnstructuredGrid" version="0.1" byte_order="LittleEndian">
  <UnstructuredGrid>
    <Piece NumberOfCells="3200" NumberOfPoints="1681">
      <CellData Scalars="rank" Vectors="velocity">
        <DataArray type="Float32" Name="velocity" NumberOfComponents="3" format="ascii">
          -5.96763e-06 -8.37636e-05 0 -2.25306e-06 -4.96735e-05 0 2.86979e-05 -0.000131835 0 1.37064e-05 -8.23552e-05 0
          8.94572e-06 -0.00021172 0 8.61279e-05 -0.000215914 0 4.29698e-05 -0.00033268 0 8.85209e-05 -0.000179338 0
          0.000215613 -0.000268518 0 8.97443e-08 -6.48161e-05 0 2.07477e-05 -0.000140063 0 6.84604e-05 -0.000173774 0
          -1.69059e-06 -0.000110686 0 0.000100583 -0.000296891 0 0.000203546 -0.000280043 0 0.000141858 -0.000301987 0
          0.000351522 -0.000447929 0 0.000303719 -0.000478718 0 9.41302e-05 -0.000444617 0 0.000169613 -0.000292695 0
          0.000159693 -0.000548133 0 0.000275227 -0.000362671 0 0.000387535 -0.000347079 0 0.000595973 -0.000415639 0
          0.00023667 -0.000643578 0 0.000398495 -0.000426219 0 0.000534918 -0.000483589 0 0.000832641 -0.000474697 0
          0.000397135 -0.0003726 0 0.000635191 -0.000571988 0 0.000638688 -0.000452008 0 0.000978299 -0.00067505 0
          0.000595219 -0.00063381 0 0.000958397 -0.000762545 0 0.000917902 -0.000518957 0 0.00136701 -0.000758177 0
          0.00122487 -0.000574071 0 0.00137743 -0.000866232 0 0.00183742 -0.000946213 0 -4.26643e-06 -0.000176043 0
          2.60171e-05 -0.000229682 0 0.000127387 -0.000471346 0 2.95318e-05 -0.000343573 0 -7.86485e-06 -0.000256385 0
          0.00014795 -0.000685134 0 0.000187303 -0.000494915 0 0.000387018 -0.000759712 0 0.00046681 -0.000732629 0
          0.000223364 -0.000739868 0 0.00045222 -0.00110373 0 0.000558887 -0.00109383 0 3.10403e-05 -0.000475977 0
          -1.25933e-05 -0.000348001 0 0.0001622 -0.000928595 0 3.05671e-05 -0.000621768 0 0.000249862 -0.00102461 0
          0.000499805 -0.00149552 0 0.000628121 -0.00151357 0 0.000267176 -0.00133827 0 0.000675673 -0.00197602 0
          0.000844725 -0.000931638 0 0.000759393 -0.00100333 0 0.00122291 -0.00120235 0 0.00130131 -0.0010932 0
          0.00101217 -0.00138778 0 0.000888334 -0.00145539 0 0.00155941 -0.00162357 0 0.0014308 -0.00174017 0
          0.00175723 -0.00135897 0 0.00181803 -0.00121926 0 0.00234333 -0.00147555 0 0.00217835 -0.00180425 0
          0.0020558 -0.0019614 0 0.00274106 -0.00212273 0 0.00113877 -0.00191766 0 0.000983456 -0.00197008 0
          0.0017549 -0.0022395 0 0.0015847 -0.00235233 0 0.00122681 -0.00250138 0 0.00189146 -0.00291794 0
          0.00245147 -0.00248355 0 0.00227711 -0.00264699 0 0.00303604 -0.00285919 0 0.00264261 -0.0032317 0
          0.000322092 -0.000731204 0 0.000680174 -0.000535005 0 0.000413126 -0.000811235 0 0.00108955 -0.000524701 0
          0.00135915 -0.000566103 0 0.000507112 -0.000883886 0 0.000830196 -0.000580683 0 0.000601588 -0.000949362 0
          0.000981204 -0.000620841 0 0.00163437 -0.000599365 0 0.00190867 -0.000624962 0 0.0015502 -0.000617977 0
          0.00178826 -0.00082244 0 0.00222975 -0.000868943 0 0.00232435 -0.00100387 0 0.00188508 -0.000651326 0
          0.00268006 -0.00089883 0 0.00222136 -0.000674781 0 0.00312861 -0.000913266 0 0.00282517 -0.00104063 0
          0.00332778 -0.00105795 0 0.000694292 -0.00100786 0 0.00112972 -0.000655693 0 0.00127257 -0.000685451 0
          0.00217606 -0.000643371 0 0.00078317 -0.00105956 0 0.0014069 -0.000710319 0 0.000866374 -0.00110463 0
          0.00243108 -0.000655072 0 0.00266884 -0.000660542 0 0.00255152 -0.000689018 0 0.0035657 -0.000913439 0
          0.0028687 -0.00069472 0 0.00382106 -0.00105731 0 0.00429487 -0.00104022 0 0.00316673 -0.000692568 0
          0.00398253 -0.000900542 0 0.00437118 -0.000875774 0 0.00474007 -0.00100819 0 0.00237749 -0.00131182 0
          0.0029634 -0.00155454 0 0.00296345 -0.00137296 0 0.00284818 -0.00193308 0 0.00346577 -0.00222793 0
          0.00354947 -0.00201338 0 0.00356081 -0.00140481 0 0.00360085 -0.00159844 0 0.00424036 -0.0016098 0
          0.00415562 -0.00140956 0 0.00426419 -0.00204852 0 0.00421061 -0.00228083 0 0.00497572 -0.00204195 0
          0.0049577 -0.00228532 0 0.00320507 -0.00265447 0 0.00383847 -0.0029942 0 0.00399387 -0.00275704 0
          0.00345506 -0.00344893 0 0.00430529 -0.00357605 0 0.00479763 -0.00279614 0 0.00466303 -0.0030574 0
          0.00559768 -0.00277666 0 0.00548998 -0.0030542 0 0.00517153 -0.00361955 0 0.00603368 -0.00358595 0
          0.00486786 -0.00159122 0 0.00473511 -0.00138938 0 0.00547052 -0.0015453 0 0.00566882 -0.00199714 0
          0.00569066 -0.00224534 0 0.00639453 -0.00216486 0 0.00528768 -0.00134651 0 0.00603676 -0.00147467 0
          0.00580291 -0.00128318 0 0.00632968 -0.0019176 0 0.00705586 -0.00204784 0 0.00694587 -0.00180683 0
          0.00637695 -0.00270356 0 0.00630119 -0.00299007 0 0.00708017 -0.00287051 0 0.00687335 -0.00348184 0
          0.00711991 -0.00258183 0 0.00781203 -0.00270105 0 0.00781264 -0.00241646 0 0.00767387 -0.00331385 0
          0.00842025 -0.0030886 0 -1.83555e-05 -0.00044756 0 2.8268e-05 -0.000776278 0 0.000170423 -0.001193 0
          -2.49716e-05 -0.000552026 0 0.000173043 -0.00147034 0 0.000530736 -0.00192118 0 0.000275892 -0.00167086 0
          0.000702945 -0.00246652 0 0.000546149 -0.00236787 0 -3.22351e-05 -0.000658619 0 2.43495e-05 -0.000935235 0
          0.000170538 -0.00175326 0 1.90352e-05 -0.00109473 0 -3.99351e-05 -0.000764795 0 0.000163408 -0.00203502 0
          0.000276681 -0.00201319 0 0.000547249 -0.00282374 0 0.00071144 -0.00297157 0 0.000270244 -0.00235681 0
          0.00053527 -0.00327794 0 0.0007027 -0.00347872 0 0.00104675 -0.00252927 0 0.00127883 -0.00312056 0
          0.0016879 -0.00301738 0 0.00197301 -0.00363757 0 0.0010804 -0.00311618 0 0.0017439 -0.0037154 0
          0.002426 -0.00339174 0 0.00275729 -0.00402523 0 0.00323478 -0.00365915 0 0.00250747 -0.0041734 0
          0.00334395 -0.00449873 0 0.00129747 -0.00375817 0 0.00108664 -0.00371528 0 0.00175625 -0.00442796 0
          0.00200358 -0.00437863 0 0.00128541 -0.00439851 0 0.00106776 -0.00431229 0 0.00198722 -0.00512292 0
          0.00172854 -0.00513809 0 0.00252658 -0.00497134 0 0.00280109 -0.0048424 0 0.00337028 -0.00535579 0
          0.00277963 -0.00566313 0 0.00248845 -0.00576658 0 0.00332052 -0.00620996 0 1.25527e-05 -0.00125118 0
          -4.78658e-05 -0.000868238 0 0.000152161 -0.00230947 0 5.12678e-06 -0.00140135 0 0.000257297 -0.00269404 0
          0.000511459 -0.00372055 0 0.000678288 -0.00397658 0 0.000238558 -0.00301787 0 0.000639771 -0.00445481 0
          -5.58316e-05 -0.000966853 0 -3.024e-06 -0.00154234 0 0.000137303 -0.00257105 0 -6.36495e-05 -0.00105876 0
          0.000119336 -0.0028148 0 0.000477066 -0.00414258 0 0.000214741 -0.00332201 0 0.000588719 -0.00490412 0
          0.000433338 -0.00453599 0 0.00124536 -0.00502723 0 0.00102606 -0.00489418 0 0.00192802 -0.00585372 0
          0.00166437 -0.00583028 0 0.00118002 -0.00563125 0 0.00183008 -0.00655585 0 0.00269858 -0.00646899 0
          0.00239817 -0.00654176 0 0.00320145 -0.00704255 0 0.00256358 -0.00724325 0 0.000963839 -0.00544913 0
          0.00109212 -0.00619881 0 0.00156735 -0.00649048 0 0.0016975 -0.00721563 0 0.000883403 -0.00596655 0
          0.00144111 -0.00710607 0 0.00226087 -0.00728112 0 0.00238029 -0.0079708 0 0.00301984 -0.00783667 0
          0.00208168 -0.00797051 0 0.00278245 -0.00857709 0 0.00408975 -0.00382654 0 0.00360537 -0.00429157 0
          0.00449274 -0.00444472 0 0.00422805 -0.00470009 0 0.00496817 -0.00390094 0 0.00539671 -0.0044929 0
          0.00584904 -0.00388944 0 0.00629632 -0.00444439 0 0.00513628 -0.00478626 0 0.00604693 -0.00476609 0
          0.00366329 -0.0051593 0 0.00426185 -0.00559182 0 0.0045653 -0.00533925 0 0.00363614 -0.00603079 0
          0.00419966 -0.00648052 0 0.00453205 -0.00623765 0 0.00548406 -0.00539227 0 0.00517763 -0.00569001 0
          0.00609577 -0.005661 0 0.00639831 -0.0053284 0 0.00544449 -0.00629551 0 0.00510255 -0.00659066 0
          0.00635236 -0.00621623 0 0.00600766 -0.00655282 0 0.00671306 -0.00379919 0 0.00717242 -0.00430748 0
          0.0075427 -0.00363735 0 0.00694011 -0.00464848 0 0.00779769 -0.00444234 0 0.00832214 -0.00341112 0
          0.00800763 -0.00409054 0 0.00878632 -0.00380194 0 0.00860334 -0.00415665 0 0.00699621 -0.00551548 0
          0.00728861 -0.00515777 0 0.00786071 -0.00526418 0 0.00723637 -0.00601173 0 0.00689526 -0.00637949 0
          0.00774736 -0.00608318 0 0.00813729 -0.00489049 0 0.00867283 -0.00491785 0 0.00892853 -0.00453673 0
          0.00807902 -0.00569392 0 0.0085478 -0.00567643 0 0.00886459 -0.00527476 0 0.00353127 -0.00688649 0
          0.00405 -0.00734676 0 0.00440212 -0.00711974 0 0.00335602 -0.00770861 0 0.00418462 -0.00796718 0
          0.00528892 -0.00718233 0 0.00492135 -0.00746852 0 0.00617118 -0.0070879 0 0.00579474 -0.00742205 0
          0.00502827 -0.00803427 0 0.00586751 -0.00792522 0 0.0038214 -0.00817292 0 0.00311774 -0.0084811 0
          0.00388868 -0.00876341 0 0.00352237 -0.00894318 0 0.00464436 -0.00830572 0 0.00467347 -0.00883466 0
          0.00546914 -0.00825095 0 0.00545405 -0.00871179 0 0.00428189 -0.0090862 0 0.00504297 -0.0090236 0
          0.00703019 -0.00685011 0 0.00665115 -0.00722157 0 0.00747325 -0.00688135 0 0.00668454 -0.0076554 0
          0.00784895 -0.00648267 0 0.00824545 -0.00641568 0 0.0086122 -0.00599928 0 0.00746322 -0.00724021 0
          0.00818907 -0.00669507 0 0.00627779 -0.00802452 0 0.00621389 -0.00841179 0 0.00705397 -0.00764235 0
          0.00578907 -0.00877287 0 0.00650513 -0.0083515 0 0.00778299 -0.00712042 0 0.00693799 -0.00795165 0
          0.0076129 -0.00734838 0 0.0071776 -0.007777 0 0.000942268 -0.00114324 0 0.00153015 -0.000730495 0
          0.00100942 -0.00117553 0 0.00164009 -0.000746169 0 0.002885 -0.000660254 0 0.00307577 -0.000654675 0
          0.00106663 -0.00120164 0 0.00173481 -0.000757521 0 0.0018127 -0.000764724 0 0.00323794 -0.000644266 0
          0.00344011 -0.000683242 0 0.00472464 -0.000840338 0 0.00368401 -0.000667418 0 0.00503678 -0.00079543 0
          0.00514851 -0.000962724 0 0.00551305 -0.000905342 0 0.00389427 -0.000645766 0 0.0053024 -0.000742245 0
          0.00406743 -0.000618948 0 0.00582754 -0.000837552 0 0.00608684 -0.000760862 0 0.00111286 -0.00122167 0
          0.00187246 -0.000767939 0 0.00114735 -0.00123572 0 0.00336883 -0.00062948 0 0.00346633 -0.00061076 0
          0.00116948 -0.00124389 0 0.00191312 -0.000767317 0 0.0011789 -0.00124624 0 0.00193403 -0.000763 0
          0.0035289 -0.000588542 0 0.00355555 -0.000563249 0 0.00420069 -0.00058762 0 0.00551716 -0.00068197 0
          0.00567765 -0.000615788 0 0.00628681 -0.000676771 0 0.00429194 -0.000552427 0 0.00578137 -0.00054487 0
          0.00433974 -0.000514005 0 0.00582669 -0.000470383 0 0.00642432 -0.000586773 0 0.00649722 -0.000492354 0
          0.00627154 -0.00120161 0 0.00655629 -0.00138198 0 0.00702006 -0.00126985 0 0.00668553 -0.00110405 0
          0.00750637 -0.00166836 0 0.00766264 -0.00189831 0 0.0080016 -0.00150573 0 0.00820435 -0.00172026 0
          0.00742031 -0.00114095 0 0.007038 -0.000992739 0 0.00775051 -0.000997906 0 0.00842334 -0.00132246 0
          0.00867195 -0.00151771 0 0.00905785 -0.00129466 0 0.00844279 -0.00221247 0 0.00848353 -0.00248724 0
          0.0089996 -0.00197489 0 0.00908305 -0.00223462 0 0.00909921 -0.00281275 0 0.00969917 -0.00249298 0
          0.00947387 -0.00170875 0 0.0096006 -0.00194877 0 0.0100278 -0.00163524 0 0.0102102 -0.00213594 0
          0.00732325 -0.000869903 0 0.00800544 -0.00084336 0 0.00753678 -0.000737776 0 0.00876484 -0.00112211 0
          0.00935595 -0.00105515 0 0.0090207 -0.000908183 0 0.00767528 -0.000598581 0 0.00818111 -0.000679948 0
          0.00827483 -0.000510297 0 0.0077366 -0.000454535 0 0.00918699 -0.000684224 0 0.00956163 -0.000803167 0
          0.00926115 -0.000453754 0 0.00967173 -0.000542728 0 0.009858 -0.00141908 0 0.0103579 -0.00129962 0
          0.010146 -0.00111092 0 0.0106243 -0.00174832 0 0.0109347 -0.0013368 0 0.0103333 -0.00078929 0
          0.0105859 -0.000947452 0 0.0104173 -0.000459229 0 0.0107082 -0.000584316 0 0.0111369 -0.000908065 0
          0.0112277 -0.000468782 0 0.00117543 -0.00124282 0 0.00193483 -0.000755117 0 0.0019155 -0.000743788 0
          0.00354584 -0.000535298 0 0.00115912 -0.00123367 0 0.00187631 -0.000729121 0 0.00113023 -0.00121881 0
          0.0034999 -0.000505094 0 0.00341842 -0.000473033 0 0.00434334 -0.000472981 0 0.00581291 -0.000393481 0
          0.00430266 -0.000429971 0 0.0065044 -0.00039499 0 0.00644571 -0.000296152 0 0.00421829 -0.000385583 0
          0.00574021 -0.000315311 0 0.00560969 -0.000237012 0 0.00632204 -0.0001973 0 0.00108923 -0.00119826 0
          0.00181788 -0.000711214 0 0.00103679 -0.00117198 0 0.00174111 -0.000690155 0 0.00330264 -0.0004395 0
          0.00315438 -0.000404871 0 0.000973797 -0.00113997 0 0.00164723 -0.00066602 0 0.0015378 -0.000638875 0
          0.00297599 -0.000369512 0 0.00409153 -0.000340412 0 0.00542334 -0.000159711 0 0.00392434 -0.000295046 0
          0.00518406 -8.45283e-05 0 0.00613526 -9.98836e-05 0 0.00588827 -5.34741e-06 0 0.00371935 -0.000250061 0
          0.00489565 -1.25751e-05 0 0.00347989 -0.000206027 0 0.00558495 8.48738e-05 0 0.0052302 0.000169352 0
          0.00828515 -0.00033703 0 0.00771981 -0.000307848 0 0.00821191 -0.000162762 0 0.00924205 -0.000220291 0
          0.00968458 -0.000277833 0 0.00959998 -1.24788e-05 0 0.00762515 -0.000160722 0 0.0080562 9.89925e-06 0
          0.00745403 -1.53512e-05 0 0.00912997 1.26541e-05 0 0.0094192 0.000249342 0 0.00892661 0.000241573 0
          0.0103965 -0.000125758 0 0.0107229 -0.000215771 0 0.01063 0.000152626 0 0.0112058 -2.56311e-05 0
          0.0102712 0.000206102 0 0.0104307 0.000515319 0 0.0100435 0.000531336 0 0.0110714 0.000414715 0
          0.0108267 0.000845587 0 0.00720909 0.000126076 0 0.0078204 0.000178352 0 0.00750815 0.000340001 0
          0.00689411 0.00026138 0 0.00863509 0.000462966 0 0.009145 0.000503644 0 0.00825991 0.000673336 0
          0.00878162 0.000746445 0 0.00712435 0.000492258 0 0.0065141 0.000388386 0 0.00667518 0.00063254 0
          0.00780703 0.000869192 0 0.00833475 0.000973767 0 0.00781159 0.00118163 0 0.00971678 0.000844931 0
          0.0101281 0.000866758 0 0.00929608 0.00114188 0 0.00972687 0.00120139 0 0.0104754 0.00126032 0
          0.0100229 0.00165223 0 0.00878808 0.00141717 0 0.00923335 0.00151368 0 0.00865545 0.00179807 0
          0.00947644 0.00201468 0 0.00903728 -0.00312772 0 0.00949467 -0.00345006 0 0.00967578 -0.00279439 0
          0.0101206 -0.00304332 0 0.00934253 -0.00380037 0 0.0100025 -0.00338251 0 0.010227 -0.00241836 0
          0.0106538 -0.00259011 0 0.0106821 -0.0020069 0 0.0105723 -0.00291205 0 0.0110427 -0.00239801 0
          0.00964827 -0.00410667 0 0.00941792 -0.00448725 0 0.0100832 -0.00398319 0 0.0102843 -0.0036105 0
          0.00957915 -0.00476623 0 0.00928214 -0.0051718 0 0.0102106 -0.00418031 0 0.00993776 -0.00458187 0
          0.0106575 -0.00341644 0 0.0108261 -0.00305842 0 0.0111317 -0.00279783 0 0.0107485 -0.003529 0
          0.0105038 -0.00391922 0 0.0109711 -0.00319645 0 0.0110338 -0.00156724 0 0.0110858 -0.00209887 0
          0.0114099 -0.00157802 0 0.0114063 -0.0018494 0 0.0112768 -0.00110663 0 0.011621 -0.00103597 0
          0.0114073 -0.000632341 0 0.011716 -0.00048114 0 0.0116576 -0.00127524 0 0.0117928 -0.00068455 0
          0.0112651 -0.00246064 0 0.0114983 -0.00213816 0 0.0115944 -0.00182737 0 0.0111843 -0.0028243 0
          0.0113324 -0.00242616 0 0.0115113 -0.00207823 0 0.0118091 -0.00116882 0 0.0117517 -0.00144824 0
          0.011888 -0.000738885 0 0.0119058 -0.000495214 0 0.0117245 -0.00130279 0 0.0115822 -0.00162096 0
          0.0118206 -0.000510006 0 0.0117166 -0.00079345 0 0.00930643 -0.0054137 0 0.00895385 -0.00583887 0
          0.00991986 -0.00473966 0 0.00958628 -0.00516523 0 0.00884924 -0.00603541 0 0.00943254 -0.00527668 0
          0.0104424 -0.00399094 0 0.0101323 -0.00440909 0 0.010583 -0.00358481 0 0.00992944 -0.00443434 0
          0.00845172 -0.00647469 0 0.00822669 -0.00661903 0 0.0090487 -0.00572115 0 0.00876897 -0.00578063 0
          0.00779441 -0.00706691 0 0.00834499 -0.00623878 0 0.00956405 -0.00487581 0 0.00923089 -0.00485023 0
          0.00998952 -0.00395465 0 0.00882025 -0.00531014 0 0.00921259 -0.00429857 0 0.0108659 -0.0031813 0
          0.0109316 -0.00270671 0 0.0111836 -0.00232451 0 0.010332 -0.00352384 0 0.0106341 -0.00256066 0
          0.0113907 -0.00143435 0 0.0111725 -0.00178916 0 0.0114841 -0.000524596 0 0.0113022 -0.000846505 0
          0.010831 -0.00156027 0 0.0109198 -0.000538143 0 0.0103185 -0.0029737 0 0.00960512 -0.00384489 0
          0.00988588 -0.00278167 0 0.00951589 -0.00322163 0 0.0105458 -0.00194896 0 0.0100689 -0.00167765 0
          0.0106683 -0.000896466 0 0.0101515 -0.000549884 0 0.00972553 -0.00209688 0 0.00983837 -0.000941904 0
          0.0114234 -0.000151606 0 0.0116934 7.80362e-05 0 0.0113249 0.000328324 0 0.0118097 -8.63362e-05 0
          0.0117081 0.000510382 0 0.0111132 0.000800202 0 0.0115537 0.000633144 0 0.0112989 0.00117576 0
          0.0114897 0.00109659 0 0.0119052 -2.09192e-05 0 0.0118831 0.000183239 0 0.0118031 0.000694845 0
          0.0117982 0.000288117 0 0.0117337 4.3761e-05 0 0.0116333 0.000878062 0 0.0117414 0.000856321 0
          0.0115833 0.00139759 0 0.0114828 0.00151382 0 0.0116577 0.00107956 0 0.0114168 0.00169684 0
          0.0114013 0.0018523 0 0.0107916 0.00125679 0 0.0109329 0.00169748 0 0.010365 0.00169084 0
          0.0104615 0.00218987 0 0.0111578 0.00166328 0 0.0107174 0.00220143 0 0.00984015 0.00209511 0
          0.009892 0.00264452 0 0.00922551 0.00246236 0 0.0101755 0.00270203 0 0.00954086 0.00315606 0
          0.0111114 0.00214551 0 0.011249 0.0020765 0 0.0108056 0.00272076 0 0.0106328 0.00274119 0
          0.0110329 0.00259433 0 0.0110877 0.00248749 0 0.0105582 0.00329362 0 0.0106509 0.00323739 0
          0.0102598 0.00331954 0 0.0100548 0.00329064 0 0.00962065 0.00386203 0 0.00998472 0.00393816 0
          0.0101135 0.00393393 0 0.00948398 0.00456448 0 0.0114625 0.000390966 0 0.0113188 0.0001069 0
          0.011222 0.0010567 0 0.0108993 0.00049024 0 0.0113261 0.00129855 0 0.0110133 0.00198853 0
          0.0110772 0.00218439 0 0.0107698 0.0015094 0 0.0105332 0.00250386 0 0.0106839 0.000167772 0
          0.0101324 0.00058455 0 0.0105926 0.00122773 0 0.00985275 0.000225731 0 0.00976851 0.00138845 0
          0.0103957 0.00226738 0 0.0100119 0.00170858 0 0.00979206 0.00280512 0 0.00958698 0.00252866 0
          0.0107195 0.00303468 0 0.010696 0.00288803 0 0.0102586 0.00383563 0 0.010275 0.00374085 0
          0.0101932 0.00345813 0 0.00975522 0.00435672 0 0.00970184 0.00457346 0 0.00975685 0.00453261 0
          0.00914999 0.00524895 0 0.00922609 0.00518415 0 0.0100963 0.00327069 0 0.00947613 0.00385711 0
          0.0096991 0.00422165 0 0.0090691 0.00484744 0 0.00931096 0.00362879 0 0.00894475 0.00467126 0
          0.00921028 0.0051042 0 0.00857741 0.00575905 0 0.00863776 0.00590232 0 0.00849413 0.00563847 0
          0.00796639 0.00651282 0 -7.11501e-05 -0.0011423 0 -1.1689e-05 -0.00167155 0 9.87547e-05 -0.00303629 0
          -2.06669e-05 -0.00178672 0 -7.81792e-05 -0.00121603 0 7.60467e-05 -0.0032317 0 0.000186557 -0.00360087 0
          0.000381516 -0.00489366 0 0.000526692 -0.00531622 0 0.000154706 -0.00384955 0 0.000322833 -0.00520936 0
          0.000455249 -0.00568387 0 -2.97664e-05 -0.0018859 0 -8.45978e-05 -0.00127871 0 5.16894e-05 -0.00339774 0
          -3.88067e-05 -0.00196747 0 0.000119881 -0.00406385 0 0.000258514 -0.00547782 0 0.000375936 -0.00600083 0
          8.27641e-05 -0.00424024 0 0.000290293 -0.00626187 0 0.000984353 -0.00671945 0 0.000787049 -0.00643704 0
          0.00128924 -0.00766587 0 0.00153435 -0.00782089 0 0.000859436 -0.00718399 0 0.000677067 -0.00685243 0
          0.00134475 -0.00836093 0 0.00111536 -0.00816014 0 0.00186571 -0.00859742 0 0.00215438 -0.0086382 0
          0.00249608 -0.00925035 0 0.00189149 -0.00923366 0 0.00161808 -0.00915091 0 0.00216749 -0.00984471 0
          0.000720063 -0.00758453 0 0.000555741 -0.00720575 0 0.00113276 -0.00882657 0 0.000923051 -0.00858054 0
          0.000568923 -0.00791448 0 0.000902468 -0.00921012 0 0.00159728 -0.00974703 0 0.00134389 -0.00962165 0
          0.00180345 -0.0103501 0 0.00127739 -0.0101698 0 -9.02828e-05 -0.00132932 0 -4.76178e-05 -0.00203012 0
          2.61507e-05 -0.00353173 0 -9.5127e-05 -0.00136705 0 -1.11842e-07 -0.0036315 0 0.000189774 -0.00569464 0
          4.40269e-05 -0.00437588 0 0.000199849 -0.0064628 0 0.000117818 -0.00585636 0 -9.90394e-05 -0.00139131 0
          -5.60408e-05 -0.00207286 0 -2.66513e-05 -0.0036955 0 -6.3928e-05 -0.002095 0 -0.000101945 -0.00140172 0
          -5.30315e-05 -0.0037227 0 4.331e-06 -0.00446863 0 4.38403e-05 -0.0059604 0 0.000106122 -0.00660041 0
          -3.56734e-05 -0.00451701 0 -3.09758e-05 -0.00600512 0 1.0621e-05 -0.00667252 0 0.000425345 -0.0074912 0
          0.000408694 -0.0081685 0 0.000715913 -0.00892021 0 0.000657932 -0.00950537 0 0.000288143 -0.00770421 0
          0.00049752 -0.00917366 0 0.00104825 -0.0100019 0 0.00093744 -0.0104951 0 0.0014107 -0.0107583 0
          0.000736247 -0.0102856 0 0.000996009 -0.0110625 0 0.000242048 -0.00834253 0 0.00014639 -0.00784139 0
          0.000271443 -0.00933686 0 0.000403213 -0.00970758 0 7.16446e-05 -0.0084338 0 2.3298e-06 -0.00790054 0
          0.000142358 -0.00981353 0 4.12401e-05 -0.00940718 0 0.000412964 -0.0104681 0 0.000583065 -0.0107178 0
          0.000566104 -0.0112581 0 0.000219878 -0.0108342 0 8.34747e-05 -0.0105465 0 0.000127723 -0.0113417 0
          0.00282379 -0.00918967 0 0.00316146 -0.0096435 0 0.00352341 -0.00949369 0 0.00248151 -0.0098218 0
          0.00274717 -0.0102616 0 0.00309793 -0.0101451 0 0.00423545 -0.00956866 0 0.00384429 -0.00979572 0
          0.00452838 -0.00972589 0 0.00494354 -0.00943301 0 0.00372513 -0.0102232 0 0.00334185 -0.0104218 0
          0.0043487 -0.010076 0 0.00393747 -0.0103455 0 0.00209824 -0.0103667 0 0.00228802 -0.0107871 0
          0.00262137 -0.0107065 0 0.00168132 -0.0108153 0 0.00210281 -0.0111685 0 0.00315342 -0.0107872 0
          0.00278491 -0.010954 0 0.00368224 -0.0106299 0 0.00328238 -0.0108719 0 0.00253125 -0.0112511 0
          0.00295686 -0.0110852 0 0.00519889 -0.00945293 0 0.00563272 -0.00910519 0 0.00584231 -0.00899576 0
          0.00495549 -0.00972325 0 0.00452113 -0.0100527 0 0.00508111 -0.00956378 0 0.0062894 -0.00860369 0
          0.00644648 -0.00837332 0 0.00690139 -0.00794698 0 0.00553357 -0.00918467 0 0.00560682 -0.00889882 0
          0.00607222 -0.00848009 0 0.00419668 -0.0102553 0 0.0037697 -0.0105621 0 0.00423711 -0.0100458 0
          0.00337073 -0.0106925 0 0.00468665 -0.00968456 0 0.00467581 -0.00934448 0 0.00514311 -0.00893848 0
          0.00376477 -0.0100949 0 0.00413171 -0.00931437 0 0.00179252 -0.0112114 0 0.00123807 -0.0111603 0
          0.00155137 -0.0115236 0 0.00126918 -0.0115274 0 0.00218375 -0.0113833 0 0.00186951 -0.0116074 0
          0.00257521 -0.0112963 0 0.00218528 -0.0114346 0 0.0015487 -0.0117029 0 0.00182806 -0.0116119 0
          0.000775817 -0.0113963 0 0.000726474 -0.0117301 0 0.000976137 -0.0117661 0 0.000301862 -0.0115192 0
          0.0001729 -0.0118163 0 0.00038619 -0.011892 0 0.0011791 -0.0118504 0 0.000890026 -0.0119075 0
          0.00105304 -0.0118134 0 0.00138018 -0.0116723 0 0.000470917 -0.0119759 0 0.000218031 -0.0119938 0
          0.000554263 -0.0117945 0 0.000262231 -0.0118977 0 0.00295847 -0.0109725 0 0.00249211 -0.0110275 0
          0.0033259 -0.0104339 0 0.00210132 -0.0112772 0 0.00236306 -0.0107215 0 0.00367061 -0.00970279 0
          0.00278404 -0.010409 0 0.00305573 -0.00960149 0 0.00260842 -0.00996783 0 0.0012121 -0.0114712 0
          0.00157525 -0.011255 0 0.00136414 -0.010904 0 0.000634613 -0.011371 0 0.000304702 -0.0115513 0
          0.00034473 -0.0109783 0 0.00176058 -0.0106215 0 0.00150639 -0.0101352 0 0.00193283 -0.00979506 0
          0.000710515 -0.010729 0 0.000381683 -0.0102019 0 0.000780676 -0.00989178 0 -7.11429e-05 -0.0020962 0
          -0.000103787 -0.00139809 0 -7.88271e-05 -0.00371264 0 -7.75606e-05 -0.00207641 0 -7.53471e-05 -0.00452024 0
          -0.000105457 -0.00598975 0 -8.5157e-05 -0.00667795 0 -0.000114062 -0.00447821 0 -0.000179725 -0.00661653 0
          -0.000104522 -0.00138047 0 -8.30673e-05 -0.0020359 0 -0.000103623 -0.00366544 0 -0.000104124 -0.0013491 0
          -0.000127017 -0.00358175 0 -0.000178442 -0.00591445 0 -0.000151201 -0.0043915 0 -0.000271606 -0.00648909 0
          -0.00024878 -0.00578028 0 -9.98663e-05 -0.00844082 0 -0.000141803 -0.00788066 0 -0.000120595 -0.00982145 0
          -0.000189536 -0.00938341 0 -0.000269844 -0.00836334 0 -0.000381615 -0.00973109 0 -0.000146514 -0.0108424 0
          -0.000247155 -0.0105194 0 -0.000312412 -0.0113119 0 -0.000510512 -0.0107422 0 -0.000283783 -0.00778194 0
          -0.000435658 -0.00820242 0 -0.000417345 -0.00926578 0 -0.000636682 -0.00954363 0 -0.000421397 -0.00760576 0
          -0.000638653 -0.0090559 0 -0.000573868 -0.0103871 0 -0.000866526 -0.0105347 0 -0.000747583 -0.011169 0
          -0.000891617 -0.0101514 0 -0.00117108 -0.0109148 0 -0.000102586 -0.00130445 0 -8.75606e-05 -0.00197527 0
          -0.000148615 -0.00346282 0 -9.09494e-05 -0.00189541 0 -9.99133e-05 -0.00124719 0 -0.000168035 -0.00331042 0
          -0.000186159 -0.00426137 0 -0.000315328 -0.0055892 0 -0.000359335 -0.00629748 0 -0.000218341 -0.00408975 0
          -0.000376958 -0.00534409 0 -0.000441455 -0.00604455 0 -9.31537e-05 -0.00179755 0 -9.61302e-05 -0.0011782 0
          -0.000184906 -0.0031269 0 -9.41046e-05 -0.00168324 0 -0.000247161 -0.00387928 0 -0.000432549 -0.0050487 0
          -0.00051652 -0.00573415 0 -0.000272047 -0.00363325 0 -0.000583094 -0.00537114 0 -0.000594686 -0.00796038 0
          -0.00055244 -0.00735468 0 -0.000849937 -0.00875685 0 -0.000881782 -0.00926177 0 -0.000744315 -0.0076408 0
          -0.000674716 -0.00703246 0 -0.00111291 -0.00888969 0 -0.00104768 -0.00837307 0 -0.00119536 -0.00981573 0
          -0.00120897 -0.010223 0 -0.0015762 -0.0105532 0 -0.00153227 -0.00981175 0 -0.00148006 -0.00938506 0
          -0.00195625 -0.0100894 0 -0.000881943 -0.00724856 0 -0.000786038 -0.00664406 0 -0.00132607 -0.00843302 0
          -0.00122837 -0.00791046 0 -0.00100497 -0.00678977 0 -0.00151727 -0.00789892 0 -0.00183086 -0.00930708 0
          -0.00174069 -0.008866 0 -0.00230453 -0.00953049 0 -0.00209916 -0.0087169 0 -0.000176487 -0.0115272 0
          -0.000383068 -0.0117843 0 -0.000209389 -0.0118992 0 -0.000651936 -0.0114198 0 -0.000801533 -0.0117874 0
          -0.000244157 -0.011982 0 -0.00045701 -0.0119602 0 -0.000279795 -0.0117989 0 -0.000532272 -0.011863 0
          -0.000955244 -0.0118681 0 -0.00110931 -0.0116854 0 -0.000932958 -0.0116345 0 -0.0011172 -0.0111985 0
          -0.00138118 -0.0115579 0 -0.00146831 -0.0113689 0 -0.00112483 -0.011807 0 -0.00165147 -0.0116358 0
          -0.00131839 -0.0117096 0 -0.00192162 -0.0114552 0 -0.00177515 -0.0115363 0 -0.00208405 -0.0114397 0
          -0.00031538 -0.0113736 0 -0.000607033 -0.011516 0 -0.000679625 -0.0109428 0 -0.00126029 -0.0112624 0
          -0.00035006 -0.0107294 0 -0.000748533 -0.0101668 0 -0.000383058 -0.00988986 0 -0.00140504 -0.0106225 0
          -0.00154071 -0.009789 0 -0.00150925 -0.0113655 0 -0.0021857 -0.0110388 0 -0.00169337 -0.0107979 0
          -0.00238809 -0.0111019 0 -0.00268094 -0.0105454 0 -0.00186711 -0.0100299 0 -0.00243832 -0.0104096 0
          -0.00267463 -0.00959038 0 -0.00295689 -0.00979311 0 -0.00156499 -0.0108664 0 -0.00198065 -0.0109912 0
          -0.00193926 -0.0112141 0 -0.00198803 -0.0104284 0 -0.00246154 -0.0105071 0 -0.00246673 -0.0107609 0
          -0.00232197 -0.0112884 0 -0.00239771 -0.0111518 0 -0.00281719 -0.0110569 0 -0.00270405 -0.0111116 0
          -0.00295588 -0.0108309 0 -0.00298226 -0.0106593 0 -0.00344393 -0.0106596 0 -0.00350572 -0.0105671 0
          -0.00237906 -0.00989104 0 -0.00290253 -0.00992392 0 -0.00295454 -0.0102053 0 -0.0027308 -0.0092628 0
          -0.00339364 -0.00955574 0 -0.00354233 -0.0102701 0 -0.00351853 -0.0100663 0 -0.00412859 -0.0101059 0
          -0.00413759 -0.00997742 0 -0.00407047 -0.00961483 0 -0.00474539 -0.00945915 0 -0.00322973 -0.0107287 0
          -0.00307718 -0.0107059 0 -0.00362681 -0.0101889 0 -0.00392031 -0.0102684 0 -0.00402031 -0.0102514 0
          -0.00451541 -0.00973346 0 -0.00343382 -0.0100935 0 -0.00400072 -0.00945958 0 -0.00376716 -0.00929667 0
          -0.00437543 -0.00967881 0 -0.00498147 -0.00903416 0 -0.00480064 -0.00891205 0 -0.00470067 -0.009733 0
          -0.00474599 -0.00967736 0 -0.00533121 -0.00918599 0 -0.00540385 -0.00910778 0 -0.00524707 -0.00917165 0
          -0.00588197 -0.00852319 0 -0.00575742 -0.00844216 0 -0.00603263 -0.00857977 0 -0.00661985 -0.00789418 0
          0.0074579 -0.00715356 0 0.00700058 -0.00760456 0 0.00749513 -0.00670844 0 0.00794952 -0.00624194 0
          0.00656197 -0.00762934 0 0.00608889 -0.00807807 0 0.00699456 -0.00665222 0 0.00651906 -0.00712173 0
          0.00792197 -0.00570393 0 0.00836825 -0.00523064 0 0.00827429 -0.00461 0 0.00736294 -0.00556856 0
          0.00689028 -0.00605003 0 0.00719664 -0.0048832 0 0.00555803 -0.00803805 0 0.00507798 -0.00847924 0
          0.00592443 -0.00700422 0 0.00543677 -0.00747143 0 0.00446516 -0.00837273 0 0.00475951 -0.00729188 0
          0.00623639 -0.00585795 0 0.0057463 -0.00634233 0 0.00600167 -0.00511325 0 0.00501003 -0.00609374 0
          0.00870745 -0.00413818 0 0.00854661 -0.00344564 0 0.00896189 -0.00298309 0 0.0076613 -0.0043982 0
          0.00743337 -0.00364147 0 0.00788506 -0.00316097 0 0.00912772 -0.00178389 0 0.0087348 -0.00222983 0
          0.00883604 -0.000981544 0 0.00920248 -0.000559129 0 0.00803084 -0.00187671 0 0.00759691 -0.00234508 0