<?xml version="1.0"?>
<VTKFile type="PolyData" version="0.1" byte_order="LittleEndian">
  <PolyData>
    <Piece NumberOfLines="137" NumberOfPoints="90">
      <PointData Scalars="S_liq">
        <DataArray type="Float32" Name="S_liq" NumberOfComponents="1" format="ascii">
          1 0.0459939 0.0537104 0.151102 0.0563145 0.0386038 0.0803438 1 0.0478068 1 0.0400895 0.11234
          0.110342 1 1 1 0.11457 0.0852637 1 1 1 1 1 1
          1 1 1 1 0.209317 0.0721601 1 1 1 0.428897 0.128177 0.0698682
          1 0.192336 1 0.070228 0.117891 1 1 0.0675684 0.0495748 0.0564525 1 1
          1 1 1 1 1 1 1 1 1 1 1 1
          1 1 1 1 1 0.61896 1 1 1 0.105164 0.142492 1
          1 1 1 1 1 1 1 1 1 1 1 1
          1 1 1 1 1 1
        </DataArray>
        <DataArray type="Float32" Name="p_liq" NumberOfComponents="1" format="ascii">
          102561 102623 102476 102402 101811 101325 102549 102564 101810 102474 101683 102586
          101500 102675 102675 102675 102620 101711 101711 102675 102675 101711 102006 101906
          101755 102486 102486 101733 102645 102644 102467 102453 102675 102706 102572 102667
          102548 102407 102458 102103 102064 101649 102486 102118 100791 102542 102624 102534
          102586 102602 102641 102630 102549 101775 102549 102554 102729 101189 101777 102952
          102551 102486 102439 100528 102432 103800 102345 103223 102482 102762 100001 102655
          102836 102783 102814 103094 102600 102630 102630 102669 101438 102549 103223 100000
          100000 102666 102762 102762 100000 102345
        </DataArray>
        <DataArray type="Float32" Name="rho_liq" NumberOfComponents="1" format="ascii">
          1000 1000 1000 1000 1000 1000 1000 1000 1000 1000 1000 1000
          1000 1000 1000 1000 1000 1000 1000 1000 1000 1000 1000 1000
          1000 1000 1000 1000 1000 1000 1000 1000 1000 1000 1000 1000
          1000 1000 1000 1000 1000 1000 1000 1000 1000 1000 1000 1000
          1000 1000 1000 1000 1000 1000 1000 1000 1000 1000 1000 1000
          1000 1000 1000 1000 1000 1000 1000 1000 1000 1000 1000 1000
          1000 1000 1000 1000 1000 1000 1000 1000 1000 1000 1000 1000
          1000 1000 1000 1000 1000 1000
        </DataArray>
        <DataArray type="Float32" Name="mob_liq" NumberOfComponents="1" format="ascii">
          1000 1000 1000 1000 1000 1000 1000 1000 1000 1000 1000 1000
          1000 1000 1000 1000 1000 1000 1000 1000 1000 1000 1000 1000
          1000 1000 1000 1000 1000 1000 1000 1000 1000 1000 1000 1000
          1000 1000 1000 1000 1000 1000 1000 1000 1000 1000 1000 1000
          1000 1000 1000 1000 1000 1000 1000 1000 1000 1000 1000 1000
          1000 1000 1000 1000 1000 1000 1000 1000 1000 1000 1000 1000
          1000 1000 1000 1000 1000 1000 1000 1000 1000 1000 1000 1000
          1000 1000 1000 1000 1000 1000
        </DataArray>
        <DataArray type="Float32" Name="S_gas" NumberOfComponents="1" format="ascii">
          0 0.954006 0.94629 0.848898 0.943686 0.961396 0.919656 0 0.952193 0 0.959911 0.88766
          0.889658 0 0 0 0.88543 0.914736 0 0 0 0 0 0
          0 0 0 0 0.790683 0.92784 0 0 0 0.571103 0.871823 0.930132
          0 0.807664 0 0.929772 0.882109 0 0 0.932432 0.950425 0.943547 0 0
          0 0 0 0 0 0 0 0 0 0 0 0
          0 0 0 0 0 0.38104 0 0 0 0.894836 0.857508 0
          0 0 0 0 0 0 0 0 0 0 0 0
          0 0 0 0 0 0
        </DataArray>
        <DataArray type="Float32" Name="p_gas" NumberOfComponents="1" format="ascii">
          102561 105000 104978 105000 104999 105000 105000 102564 104865 102474 104993 105000
          104924 102675 102675 102675 104864 104735 101711 102675 102675 101711 102006 101906
          101755 102486 102486 101733 104998 104998 102467 102453 102675 104986 104992 104991
          102548 104864 102458 104864 104735 101649 102486 104733 104629 104732 102624 102534
          102586 102602 102641 102630 102549 101775 102549 102554 102729 101189 101777 102952
          102551 102486 102439 100528 102432 104537 102345 103223 102482 104559 104629 102655
          102836 102783 102814 103094 102600 102630 102630 102669 101438 102549 103223 100000
          100000 102666 102762 102762 100000 102345
        </DataArray>
        <DataArray type="Float32" Name="rho_gas" NumberOfComponents="1" format="ascii">
          1.25266 1.26921 1.28977 1.26921 1.28402 1.26921 1.26921 1.23988 1.28449 1.2521 1.28669 1.26921
          1.28947 1.26302 1.26302 1.26302 1.28247 1.28793 1.25115 1.26302 1.26302 1.25116 1.25046 1.25263
          1.25129 1.26068 1.26069 1.2514 1.28706 1.28849 1.25972 1.25806 1.26291 1.28855 1.28798 1.29023
          1.25474 1.28447 1.25979 1.28699 1.28545 1.24826 1.25766 1.28574 1.28661 1.28516 1.25754 1.25741
          1.2586 1.26058 1.26142 1.25905 1.26012 1.24913 1.26136 1.25903 1.26009 1.24401 1.25177 1.26615
          1.25925 1.25761 1.25957 1.23453 1.25714 1.28562 1.25819 1.2685 1.25861 1.28558 1.28673 1.26221
          1.26451 1.26415 1.2647 1.26799 1.25953 1.26218 1.26245 1.26079 1.24687 1.26147 1.26976 1.23012
          1.23012 1.26213 1.26409 1.26409 1.23012 1.25896
        </DataArray>
        <DataArray type="Float32" Name="mob_gas" NumberOfComponents="1" format="ascii">
          56238.5 55774.9 56502 55774.9 56292.3 55774.9 55774.9 55780.3 56365.9 56256.3 56387.7 55774.9
          56514.5 56558.4 56558.5 56558.5 56295.7 56541.9 56558.4 56558.5 56558.5 56558.8 56403.1 56525.6
          56544.3 56558 56558.6 56557.9 56398.7 56448.7 56531.8 56479 56554.6 56455.8 56433.5 56512.1
          56318.2 56365.6 56538.2 56453.6 56455.2 56481.8 56450 56466.1 56541.6 56446.6 56385 56419.7
          56439.2 56503.1 56515.9 56436.4 56509.9 56457.6 56554.6 56468.9 56429.9 56532.8 56551.7 56548.2
          56478.3 56448.2 56539 56483.5 56454.9 56546.7 56531 56513.1 56485.6 56535.7 56545.7 56538.2
          56540.8 56551.3 56557.3 56551.5 56466.6 56548.5 56558.1 56481.2 56525.2 56558.1 56557.9 56560.1
          56560.1 56530.4 56558.4 56558.3 56560.1 56558.6
        </DataArray>
        <DataArray type="Float32" Name="pc" NumberOfComponents="1" format="ascii">
          0 2376.8 2502.06 2597.77 3187.73 3674.95 2451.34 0 3054.13 0 3310 2413.81
          3423.59 0 0 0 2243.16 3024.19 0 0 0 0 0 0
          0 0 0 0 2352.36 2353.69 0 0 0 2280.08 2419.45 2324.49
          0 2457.39 0 2760.98 2671.19 0 0 2615.56 3838.08 2189.33 0 0
          0 0 0 0 0 0 0 0 0 0 0 0
          0 0 0 0 0 736.765 0 0 0 1797.38 4627.86 0
          0 0 0 0 0 0 0 0 0 0 0 0
          0 0 0 0 0 0
        </DataArray>
        <DataArray type="Float32" Name="porosity" NumberOfComponents="1" format="ascii">
          1 1 1 1 1 1 1 1 1 1 1 1
          1 1 1 1 1 1 1 1 1 1 1 1
          1 1 1 1 1 1 1 1 1 1 1 1
          1 1 1 1 1 1 1 1 1 1 1 1
          1 1 1 1 1 1 1 1 1 1 1 1
          1 1 1 1 1 1 1 1 1 1 1 1
          1 1 1 1 1 1 1 1 1 1 1 1
          1 1 1 1 1 1
        </DataArray>
        <DataArray type="Float32" Name="poreRadius" NumberOfComponents="1" format="ascii">
          0.00010842 0.0002263 0.00018872 8.6711e-05 0.00014246 0.00017024 0.00014006 5.8137e-05 0.00017043 0.00014712 0.00018289 0.00011213
          8.001e-05 0.00026652 0.00010984 0.00018149 0.0001191 0.00010862 6.7563e-05 0.00013353 8.8091e-05 0.00011873 8.6177e-05 0.00014165
          9.7691e-05 0.00014071 8.5166e-05 0.00010965 8.1041e-05 0.00015832 6.1496e-05 0.00011323 0.00033347 6.7184e-05 0.00010274 0.00016438
          0.00011759 8.0701e-05 0.00015113 0.00013784 9.8161e-05 0.00013 8.1223e-05 0.00014997 0.00013153 0.00020701 0.00010946 8.5023e-05
          7.8721e-05 0.00017262 0.00012575 0.00010082 0.00015856 0.00012022 0.00019603 9.1747e-05 0.0001146 0.00025862 0.00012908 0.00025963
          0.00010958 6.7231e-05 0.00012907 0.00015315 9.4275e-05 0.00019972 7.1623e-05 0.00014025 0.00011092 0.00015744 5.0362e-05 0.00022549
          0.00010874 9.8868e-05 0.00010793 0.00015434 8.0185e-05 6.8354e-05 0.00014551 0.00014525 0.00017218 0.00012177 9.0671e-05 0.00015715
          0.00012027 0.00015784 0.00022979 0.00010367 5.3866e-05 0.00024136
        </DataArray>
        <DataArray type="Float32" Name="T" NumberOfComponents="1" format="ascii">
          285.174 288.15 283.497 288.15 284.823 288.15 288.15 288.123 284.356 285.061 284.218 288.15
          283.418 283.151 283.151 283.151 284.802 283.247 283.155 283.151 283.151 283.152 284.132 283.36
          283.243 283.154 283.151 283.158 284.149 283.833 283.319 283.651 283.175 283.788 283.929 283.434
          284.668 284.358 283.279 283.802 283.793 283.636 283.834 283.724 283.249 283.847 284.244 284.025
          283.901 283.499 283.418 283.919 283.456 283.788 283.175 283.714 283.959 283.317 283.197 283.214
          283.655 283.845 283.273 283.63 283.803 283.218 283.324 283.434 283.609 283.287 283.223 283.278
          283.261 283.195 283.158 283.193 283.729 283.213 283.153 283.636 283.364 283.153 283.152 283.15
          283.15 283.327 283.151 283.151 283.15 283.151
        </DataArray>
        <DataArray type="Float32" Name="coordinationNumber" NumberOfComponents="1" format="ascii">
          6 1 4 1 3 1 5 2 6 3 4 1
          2 4 2 3 2 6 1 1 1 1 4 2
          3 2 1 2 3 7 2 4 3 4 6 2
          3 4 3 5 5 3 4 6 4 5 4 4
          4 4 5 7 3 3 2 3 2 5 2 4
          3 2 2 2 3 4 5 4 4 6 2 5
          4 3 2 2 2 1 1 4 2 1 1 3
          1 2 1 1 1 1
        </DataArray>
        <DataArray type="Float32" Name="poreLabel" NumberOfComponents="1" format="ascii">
          -1 2 -1 2 -1 2 2 -1 -1 -1 -1 2
          -1 -1 -1 -1 -1 -1 -1 -1 -1 -1 -1 -1
          -1 -1 -1 -1 -1 -1 -1 -1 -1 -1 -1 -1
          -1 -1 -1 -1 -1 -1 -1 -1 -1 -1 -1 -1
          -1 -1 -1 -1 -1 -1 -1 -1 -1 -1 -1 -1
          -1 -1 -1 -1 -1 -1 -1 -1 -1 -1 -1 -1
          -1 -1 -1 -1 -1 -1 -1 -1 -1 -1 -1 3
          3 -1 -1 -1 3 -1
        </DataArray>
      </PointData>
      <CellData Scalars="process rank" Vectors="velocity_liq (m/s)">
        <DataArray type="Float32" Name="velocity_liq (m/s)" NumberOfComponents="3" format="ascii">
          0.0847072 0.0847072 -0.0847072 -0.0105715 0 0.0105715 -0.0350943 0.0350943 0 -0.0184945 0 0
          -0.0249338 0.0249338 0 0.0209406 0.0209406 0.0209406 0.0826995 -0 0.0826995 0.0381241 -0 -0.0381241
          0.0203645 -0.0203645 -0.0203645 -0.0216813 0.0216813 0.0216813 -0.0070939 -0.0070939 0.0070939 -0 0 0
          -0 0 -0 0.0602836 -0 -0 0.054254 -0.054254 -0.054254 -0 -0 0
          -0 0 -0 -0 0 -0 -0 0 0 -0.169576 0.169576 0
          0.138499 0.138499 -0.138499 -0 0 -0 -0.0346034 0 0 0.0245466 -0.0245466 -0
          -0.057148 0 0 -0.0793164 -0.0793164 0 0.0208622 -0 -0 0.0772773 -0 -0.0772773
          0.0723914 -0 -0 -0.0516874 -0.0516874 0 0 -0 -0 -0.0246169 -0.0246169 0.0246169
          -0.0212987 -0.0212987 -0.0212987 -0.0292306 0 -0.0292306 -0 -0 0.205901 -0.0128532 -0.0128532 0
          0.0207487 -0 -0.0207487 -0 -0 0.319093 -0.243086 0 0 -0 0.632329 -0
          -0 0.0309529 -0.0309529 0 0 -0 -0.0300661 0.0300661 0 0 -0.0133378 0.0133378
          0.593176 0.593176 -0 -0.259802 0.259802 0.259802 -0 0 0 -0.00511174 0 0
          -0 -0 0.0532779 0.0340756 0.0340756 0.0340756 -0.0651889 0 0.0651889 0 -0.207541 0
          0.207801 -0 0.207801 -0 0.00514914 -0 0.0707784 -0 0.0707784 -0 -0 0.396879
          0 -0.0324236 0 -0.13971 -0.13971 0.13971 -0.111976 0 0.111976 -0.169783 -0.169783 -0.169783
          -0 0.581526 0.581526 -0 0.0146089 0.0146089 0 -0.145269 0 0.0550702 -0.0550702 0.0550702
          0.0248455 -0 0.0248455 -0 0.178272 0.178272 -0.00122483 -0.00122483 0.00122483 0.0869054 -0 0.0869054
          1.08493 -0 1.08493 0 -0.765682 0.765682 0 -0.215585 0 0.249195 0.249195 -0
          -0.187147 -0.187147 0.187147 -0 0.410203 0.410203 -0.536782 0.536782 0 -0.156759 0.156759 0.156759
          -0 0.0989373 -0.0989373 1.97031 -0 1.97031 -1.96984 0 1.96984 -0.126555 0.126555 0.126555
          -0.0152999 0 0 -0 -0 0.0132365 0.00154463 -0.00154463 -0 -0 -0 0.660438
          -0 0.186789 0.186789 -0.296115 0.296115 0.296115 1.76355 -0 -1.76355 0 -0.350065 0.350065
          -0 0.0930089 -0 1.61674 1.61674 -0 0.974845 -0.974845 -0 2.30668 -2.30668 -2.30668
          0.776886 -0.776886 -0 0 0 -0.255537 -0.136203 0.136203 -0.136203 -0.0357929 0.0357929 -0.0357929
          0.0363188 -0 -0.0363188 0 0 -0.105032 -0 0.0735025 -0 -0.0717054 -0.0717054 -0.0717054
          -0 0.0639643 -0.0639643 0 0 -0.248941 -0.0349995 -0.0349995 0 0.173947 0.173947 -0.173947
          -0 0.3094 -0 0.029545 0.029545 -0.029545 -0.352995 -0.352995 -0.352995 -0.0385354 -0.0385354 -0.0385354
          -0.118735 0 0 0.0485445 0.0485445 -0 -0 0 0 -0 0 -0
          -0.108336 -0.108336 -0.108336 0 -0.554012 -0.554012 -0.038259 -0.038259 0.038259 -0 0.929634 -0
          0.379826 -0 -0.379826 -0 -0 0 -0.364867 0.364867 0 0.678583 -0 -0
          0.27085 -0.27085 -0.27085 -0 0 0 0.353162 -0.353162 0.353162 3.92559 3.92559 -0
          -0.333356 0.333356 0.333356 1.43744 1.43744 -1.43744 0 0 -0.438163 -0.313965 0.313965 0
          -0 0.460326 0.460326 0 0 -0.44961 4.35925 -0 -0 -0 0 0
          -0 0 0 -0 0.460681 -0.460681 0.00497427 -0 0.00497427 -0 0 0
          2.10929 -2.10929 2.10929
        </DataArray>
        <DataArray type="Float32" Name="velocity_gas (m/s)" NumberOfComponents="3" format="ascii">
          -0 -0 0 3.83927 -0 -3.83927 0.214679 -0.214679 -0 -0 0 0
          -0 0 0 6.54094 6.54094 6.54094 -0 0 -0 0.619556 -0 -0.619556
          -0 0 0 -2.71996 2.71996 2.71996 2.90018 2.90018 -2.90018 -0 0 0
          -0 0 -0 -0.116775 0 0 -0 0 0 -0 -0 0
          -0 0 -0 -0 0 -0 -0 0 0 -0 0 0
          -0 -0 0 -0 0 -0 -0 0 0 -0 0 0
          0.126171 -0 -0 0.137736 0.137736 -0 -0 0 0 -0 0 0
          -0 0 0 -0 -0 0 0 -0 -0 0.352138 0.352138 -0.352138
          0.0796395 0.0796395 0.0796395 0.101328 -0 0.101328 0 0 -0 -0 -0 0
          -0 0 0 0 0 -0 -0 0 0 0 -0 0
          0 -0.0624948 0.0624948 0 0 -0 0.0693741 -0.0693741 -0 -0 11.4752 -11.4752
          -0 -0 0 -0 0 0 -0 0 0 0.281975 -0 -0
          -0 -0 0.0569764 8.00762 8.00762 8.00762 0.657648 -0 -0.657648 0 -0 0
          -0 0 -0 0 -0 0 -0 0 -0 0 0 -0
          0 -0 0 -0 -0 0 -0 0 0 -0 -0 -0
          0 -0 -0 0 -0 -0 0 -0 0 -0 0 -0
          -0 0 -0 0 -0 -0 -0 -0 0 -0 0 -0
          -0 0 -0 0 -0 0 0 -0 0 -0 -0 0
          -0 -0 0 0 -0 -0 -0 0 0 -0 0 0
          0 -0 0 -0 0 -0 -0 0 0 -0 0 0
          -0 0 0 0 0 -0 -0 0 0 0 0 -0
          0 -0 -0 -0 0 0 -0 0 0 0 -0 0
          0 -8.06331 0 -0 -0 0 -0 0 0 -0 0 0
          -0 0 0 0 0 -0 -0 0 -0 3.46902 -3.46902 3.46902
          0.00415917 -0 -0.00415917 0 0 -0 0 -0 0 -0 -0 -0
          0 -0 0 0 0 -0 -0 -0 0 -0 -0 0
          0 -0 0 -0 -0 0 -0 -0 -0 -0 -0 -0
          -0 0 0 -0 -0 0 -0 0 0 -0 0 -0
          -0 -0 -0 0 -0 -0 -0 -0 0 0 -0 0
          -0 0 0 -0 -0 0 -0 0 0 -0 0 0
          -0 0 0 -0 0 0 -0 0 -0 -0 -0 0
          -0 0 0 -0 -0 0 0 0 -0 -0 0 0
          0 -0 -0 0 0 -0 -0 0 0 -0 0 0
          -0 0 0 0 -0 0 -0 0 -0 -0 0 0
          -0 0 -0
        </DataArray>
        <DataArray type="Float32" Name="process rank" NumberOfComponents="1" format="ascii">
          0 0 0 0 0 0 0 0 0 0 0 0
          0 0 0 0 0 0 0 0 0 0 0 0
          0 0 0 0 0 0 0 0 0 0 0 0
          0 0 0 0 0 0 0 0 0 0 0 0
          0 0 0 0 0 0 0 0 0 0 0 0
          0 0 0 0 0 0 0 0 0 0 0 0
          0 0 0 0 0 0 0 0 0 0 0 0
          0 0 0 0 0 0 0 0 0 0 0 0
          0 0 0 0 0 0 0 0 0 0 0 0
          0 0 0 0 0 0 0 0 0 0 0 0
          0 0 0 0 0 0 0 0 0 0 0 0
          0 0 0 0 0
        </DataArray>
        <DataArray type="Float32" Name="throatLabel" NumberOfComponents="1" format="ascii">
          2 2 2 2 2 2 2 2 2 -1 -1 -1
          -1 -1 -1 -1 -1 -1 -1 -1 -1 -1 -1 -1
          -1 -1 -1 -1 -1 -1 -1 -1 -1 -1 -1 -1
          -1 -1 -1 -1 -1 -1 -1 -1 -1 -1 -1 -1
          -1 -1 -1 -1 -1 -1 -1 -1 -1 -1 -1 -1
          -1 -1 -1 -1 -1 -1 -1 -1 -1 -1 -1 -1
          -1 -1 -1 -1 -1 -1 -1 -1 -1 -1 -1 -1
          -1 -1 -1 -1 -1 -1 -1 -1 -1 -1 -1 -1
          -1 -1 -1 -1 -1 -1 -1 -1 -1 -1 -1 -1
          -1 -1 -1 -1 -1 -1 -1 -1 -1 -1 -1 -1
          -1 -1 -1 3 -1 3 -1 -1 -1 -1 3 -1
          -1 -1 3 -1 3
        </DataArray>
        <DataArray type="Float32" Name="throatRadius" NumberOfComponents="1" format="ascii">
          3.3304e-05 3.384e-05 3.3615e-05 3.3259e-05 3.3423e-05 3.3717e-05 3.3301e-05 3.3963e-05 3.3418e-05 3.4247e-05 3.3272e-05 3.37e-05
          3.3125e-05 3.3391e-05 3.3434e-05 3.3768e-05 3.3951e-05 3.3734e-05 3.3508e-05 3.3908e-05 3.3903e-05 3.3674e-05 3.3826e-05 3.3772e-05
          3.3303e-05 3.389e-05 3.3413e-05 3.3431e-05 3.3693e-05 3.353e-05 3.3589e-05 3.3834e-05 3.3987e-05 3.3567e-05 3.3743e-05 3.3553e-05
          3.371e-05 3.3781e-05 3.3426e-05 3.3726e-05 3.3836e-05 3.3664e-05 3.422e-05 3.3429e-05 3.3386e-05 3.305e-05 3.3941e-05 3.3926e-05
          3.3606e-05 3.3937e-05 3.3695e-05 3.3731e-05 3.3671e-05 3.3781e-05 3.3667e-05 3.4584e-05 3.3243e-05 3.3015e-05 3.3252e-05 3.3267e-05
          3.3488e-05 3.3576e-05 3.356e-05 3.3816e-05 3.3764e-05 3.3887e-05 3.4237e-05 3.4047e-05 3.3204e-05 3.2859e-05 3.3938e-05 3.3021e-05
          3.3656e-05 3.3645e-05 3.4391e-05 3.361e-05 3.3463e-05 3.3712e-05 3.3716e-05 3.3657e-05 3.3429e-05 3.3224e-05 3.374e-05 3.3184e-05
          3.3288e-05 3.4084e-05 3.3492e-05 3.3586e-05 3.3937e-05 3.3532e-05 3.3981e-05 3.3517e-05 3.3975e-05 3.3845e-05 3.3562e-05 3.3343e-05
          3.3284e-05 3.3542e-05 3.3486e-05 3.3496e-05 3.3966e-05 3.3533e-05 3.402e-05 3.3455e-05 3.3962e-05 3.3458e-05 3.3693e-05 3.3961e-05
          3.3494e-05 3.3486e-05 3.4314e-05 3.3954e-05 3.3488e-05 3.3852e-05 3.3512e-05 3.3871e-05 3.4113e-05 3.3098e-05 3.3981e-05 3.4127e-05
          3.3649e-05 3.4226e-05 3.3685e-05 3.322e-05 3.2903e-05 3.3521e-05 3.3874e-05 3.374e-05 3.3772e-05 3.344e-05 3.3682e-05 3.3086e-05
          3.3378e-05 3.3359e-05 3.3808e-05 3.3628e-05 3.3247e-05
        </DataArray>
        <DataArray type="Float32" Name="throatLength" NumberOfComponents="1" format="ascii">
          6.6609e-05 3.384e-05 3.3615e-05 9.9777e-05 6.6846e-05 0.00010115 9.9902e-05 6.7925e-05 0.00010025 0.00010274 9.9816e-05 3.37e-05
          9.9376e-05 6.6781e-05 0.0001003 6.7537e-05 6.7903e-05 0.0001012 3.3508e-05 6.7817e-05 0.00010171 6.7347e-05 0.00010148 0.00010132
          6.6606e-05 3.389e-05 6.6826e-05 3.3431e-05 6.7385e-05 6.706e-05 0.00010077 0.0001015 0.00010196 0.0001007 6.7487e-05 0.00010066
          6.7421e-05 3.3781e-05 3.3426e-05 0.00010118 6.7672e-05 0.00010099 3.422e-05 6.6858e-05 6.6772e-05 3.305e-05 6.7881e-05 6.7852e-05
          3.3606e-05 6.7873e-05 3.3695e-05 3.3731e-05 3.3671e-05 3.3781e-05 3.3667e-05 3.4584e-05 6.6486e-05 3.3015e-05 6.6503e-05 9.9802e-05
          6.6975e-05 6.7153e-05 6.7119e-05 3.3816e-05 6.7529e-05 0.00010166 0.00010271 3.4047e-05 3.3204e-05 6.5718e-05 6.7876e-05 6.6043e-05
          3.3656e-05 0.00010094 3.4391e-05 3.361e-05 3.3463e-05 3.3712e-05 6.7432e-05 6.7313e-05 3.3429e-05 9.9673e-05 0.00010122 9.9553e-05
          3.3288e-05 0.00010225 0.00010048 0.00010076 0.00010181 0.0001006 6.7962e-05 3.3517e-05 6.7951e-05 3.3845e-05 3.3562e-05 0.00010003
          3.3284e-05 3.3542e-05 3.3486e-05 6.6992e-05 6.7931e-05 3.3533e-05 0.00010206 6.691e-05 0.00010189 6.6916e-05 6.7385e-05 3.3961e-05
          3.3494e-05 6.6972e-05 3.4314e-05 0.00010186 3.3488e-05 0.00010156 6.7024e-05 0.00010161 0.00010234 3.3098e-05 6.7962e-05 6.8254e-05
          0.00010095 0.00010268 3.3685e-05 3.322e-05 6.5807e-05 3.3521e-05 6.7748e-05 6.748e-05 3.3772e-05 3.344e-05 0.00010104 9.9259e-05
          6.6757e-05 0.00010008 3.3808e-05 0.00010088 9.974e-05
        </DataArray>
        <DataArray type="Float32" Name="pcEntry" NumberOfComponents="1" format="ascii">
          4106.16 4041.12 4068.17 4111.71 4091.54 4055.86 4106.53 4026.48 4092.15 3993.09 4110.11 4057.91
          4128.35 4095.46 4090.19 4049.74 4027.91 4053.82 4081.16 4033.01 4033.61 4061.04 4042.79 4049.26
          4106.28 4035.16 4092.76 4090.56 4058.75 4078.48 4071.32 4041.84 4023.64 4073.98 4052.74 4075.68
          4056.7 4048.18 4091.17 4054.78 4041.6 4062.25 3996.24 4090.8 4096.07 4137.71 4029.09 4030.87
          4069.26 4029.57 4058.51 4054.18 4061.4 4048.18 4061.88 3954.18 4113.69 4142.1 4112.58 4110.72
          4083.6 4072.89 4074.83 4043.99 4050.21 4035.51 3994.26 4016.55 4118.52 4161.77 4029.45 4141.35
          4063.21 4064.54 3976.37 4068.77 4086.65 4056.46 4055.98 4063.09 4090.8 4116.04 4053.1 4121.01
          4108.13 4012.19 4083.11 4071.68 4029.57 4078.24 4024.35 4080.06 4025.06 4040.52 4074.59 4101.35
          4108.62 4077.02 4083.84 4082.62 4026.13 4078.12 4019.74 4087.62 4026.6 4087.26 4058.75 4026.72
          4082.86 4083.84 3985.3 4027.55 4083.6 4039.69 4080.67 4037.42 4008.78 4131.71 4024.35 4007.13
          4064.06 3995.54 4059.71 4116.54 4156.2 4079.58 4037.06 4053.1 4049.26 4089.46 4060.08 4133.21
          4097.05 4099.39 4044.94 4066.59 4113.2
        </DataArray>
        <DataArray type="Float32" Name="transmissibilityW" NumberOfComponents="1" format="ascii">
          1.03853e-14 1.35726e-16 3.41155e-17 6.89564e-15 1.04972e-14 2.37673e-17 6.92186e-15 2.56537e-17 6.99529e-15 1.48192e-17 1.52533e-17 2.15208e-14
          6.81256e-15 3.59991e-17 7.0052e-15 1.08255e-14 1.10024e-14 7.19547e-15 2.1155e-14 1.09607e-14 7.30394e-15 1.07357e-14 7.25421e-15 7.21938e-15
          3.04126e-17 5.97716e-17 1.04878e-14 2.10095e-14 1.07538e-14 1.05984e-14 7.10273e-15 1.71678e-17 1.70903e-17 1.73041e-17 1.08015e-14 7.08005e-15
          1.07698e-14 2.16763e-14 2.10001e-14 7.19006e-15 3.55252e-17 7.15077e-15 7.0253e-17 3.59577e-17 1.04624e-14 2.02994e-14 1.09931e-14 6.05498e-17
          7.4411e-17 1.42017e-17 1.2193e-16 2.15802e-14 2.14653e-14 2.16763e-14 2.14576e-14 2.32591e-14 1.03285e-14 2.02349e-14 1.03371e-14 6.90054e-15
          1.05587e-14 1.06419e-14 1.0627e-14 2.17438e-14 1.08216e-14 7.29374e-15 7.52208e-15 2.21924e-14 2.05845e-14 9.97473e-15 1.099e-14 1.01228e-14
          2.14366e-14 7.13817e-15 2.28719e-14 2.13488e-14 2.10699e-14 2.15438e-14 1.07757e-14 1.07194e-14 2.10058e-14 6.87382e-15 7.19916e-15 6.84902e-15
          2.07411e-14 7.42176e-15 7.0413e-15 7.10089e-15 9.46775e-18 7.06656e-15 1.10318e-14 2.11721e-14 1.10258e-14 2.17998e-14 2.12575e-14 9.63622e-18
          1.37005e-17 2.12195e-14 2.11134e-14 1.05662e-14 1.10174e-14 2.12024e-14 7.37989e-15 1.05274e-14 7.34192e-15 1.05302e-14 1.07538e-14 2.20247e-14
          2.11285e-14 1.05567e-14 2.27186e-14 7.33716e-15 2.11172e-14 7.27081e-15 1.05813e-14 7.28356e-15 7.4405e-15 2.03879e-14 1.10318e-14 1.11746e-14
          7.14086e-15 7.51462e-15 2.1492e-14 2.06142e-14 1.00147e-14 2.11797e-14 1.09279e-14 1.07987e-14 2.1659e-14 2.10265e-14 7.16253e-15 6.78852e-15
          1.04547e-14 6.95781e-15 2.17283e-14 7.12799e-15 6.88824e-15
        </DataArray>
        <DataArray type="Float32" Name="transmissibilityN" NumberOfComponents="1" format="ascii">
          0 1.72632e-14 1.9131e-14 0 0 6.09594e-15 0 9.61853e-15 0 6.65367e-15 6.05215e-15 0
          0 8.84985e-15 0 0 0 0 0 0 0 0 0 0
          8.9053e-15 1.8878e-14 0 0 0 0 0 6.33239e-15 6.42727e-15 6.16878e-15 0 0
          0 0 0 0 9.25269e-15 0 1.92192e-14 8.88368e-15 0 0 0 8.83044e-15
          1.80206e-14 9.96351e-15 1.72453e-14 0 0 0 0 0 0 0 0 0
          0 0 0 0 0 0 0 0 0 0 0 0
          0 0 0 0 0 0 0 0 0 0 0 0
          0 0 0 0 6.64231e-15 0 0 0 0 0 0 6.27495e-15
          1.93825e-14 0 0 0 0 0 0 0 0 0 0 0
          0 0 0 0 0 0 0 0 0 0 0 0
          0 0 0 0 0 0 0 0 0 0 0 0
          0 0 0 0 0
        </DataArray>
        <DataArray type="Float32" Name="volumeFluxW" NumberOfComponents="1" format="ascii">
          6.50929e-10 9.99583e-12 1.65813e-11 8.18316e-11 1.57563e-10 1.75447e-11 5.18791e-10 2.22038e-11 1.57563e-10 1.44561e-11 4.72989e-12 0
          0 2.91605e-11 4.20174e-10 0 0 0 0 1.10292e-09 1.10292e-09 0 1.58373e-10 1.58373e-10
          2.53751e-11 4.98063e-11 9.31645e-11 4.88569e-10 3.2872e-10 3.2872e-10 0 1.75593e-11 1.51924e-11 1.70242e-11 9.37749e-10 8.18556e-11
          1.33378e-10 1.45654e-09 1.0864e-09 2.87695e-09 2.11745e-11 0 2.05678e-11 9.12418e-12 3.74014e-09 1.9661e-09 0 3.23243e-12
          2.62844e-11 1.80778e-11 5.82974e-11 9.44545e-10 1.33271e-09 2.35039e-11 4.53821e-10 1.89875e-09 1.43325e-10 1.05505e-09 7.00383e-10 1.30179e-09
          3.68912e-09 9.31645e-11 6.54451e-10 4.36296e-10 1.60225e-10 1.15804e-09 9.94693e-12 5.69875e-10 6.76642e-09 4.67662e-09 9.93234e-10 1.53708e-09
          1.46869e-09 2.62673e-09 3.59139e-09 1.22684e-09 6.26707e-10 1.26671e-08 1.26671e-08 9.93234e-10 6.83906e-11 5.84437e-11 9.94693e-12 2.90904e-09
          1.17085e-09 2.38332e-09 1.11904e-08 2.23378e-09 2.84883e-11 1.02833e-08 6.3677e-09 1.79531e-08 5.07284e-09 1.17085e-09 1.06293e-09 1.89889e-11
          1.08207e-11 4.72671e-10 3.29677e-10 5.57389e-10 4.17447e-10 1.1197e-09 2.29142e-10 1.34884e-09 1.42747e-09 2.29142e-10 2.77631e-09 3.07923e-10
          5.32811e-10 3.07923e-10 0 0 8.41731e-10 3.59139e-09 2.97684e-10 4.26607e-09 2.50034e-09 0 2.38332e-09 3.16125e-09
          2.12468e-09 0 2.77631e-09 2.45064e-08 2.50034e-09 1.11904e-08 2.01108e-09 2.02184e-09 2.96999e-09 2.01108e-09 1.97819e-08 0
          0 2.90002e-09 3.2162e-11 0 1.61533e-08
        </DataArray>
        <DataArray type="Float32" Name="volumeFluxN" NumberOfComponents="1" format="ascii">
          0 2.12403e-08 1.27081e-09 0 0 4.60378e-08 0 3.68183e-09 0 2.02883e-08 2.03098e-08 0
          0 4.64311e-10 0 0 0 0 0 0 0 0 0 0
          5.03717e-10 8.08392e-10 0 0 0 0 0 2.54162e-09 5.80538e-10 5.86832e-10 0 0
          0 0 0 0 3.61989e-10 0 4.12092e-10 6.46906e-08 0 0 0 1.11987e-09
          2.29279e-10 5.96474e-08 3.63564e-09 0 0 0 0 0 0 0 0 0
          0 0 0 0 0 0 0 0 0 0 0 0
          0 0 0 0 0 0 0 0 0 0 0 0
          0 0 0 0 3.4677e-08 0 0 0 0 0 0 2.48796e-08
          2.48255e-11 0 0 0 0 0 0 0 0 0 0 0
          0 0 0 0 0 0 0 0 0 0 0 0
          0 0 0 0 0 0 0 0 0 0 0 0
          0 0 0 0 0
        </DataArray>
      </CellData>
      <Points>
        <DataArray type="Float32" Name="Coordinates" NumberOfComponents="3" format="ascii">
          2 2 3 1 1 4 2 1 4 1 1 5
          2 1 1 1 2 1 1 2 3 2 1 3
          2 3 4 2 2 4 2 2 2 1 2 4
          1 2 5 2 3 2 1 3 2 2 3 3
          1 3 4 2 4 4 1 3 5 1 4 1
          1 4 2 1 4 4 2 3 5 1 4 5
          2 5 4 2 4 2 1 5 1 1 5 4
          3 1 1 3 2 1 3 1 4 3 1 3
          2 2 1 3 3 1 3 3 3 3 2 3
          3 2 2 2 2 5 3 2 5 3 2 4
          2 4 3 3 4 5 3 3 2 3 4 3
          3 5 4 3 4 2 4 1 2 3 1 2
          4 2 1 4 1 1 4 2 4 4 2 2
          4 3 1 4 2 5 3 3 5 4 4 1
          4 2 3 4 3 5 3 3 4 4 3 3
          3 4 1 3 5 3 4 3 2 4 4 2
          3 5 2 3 4 4 4 5 4 4 3 4
          4 4 3 4 4 5 4 5 3 5 2 2
          4 1 4 4 1 3 5 2 3 5 2 5
          5 3 2 5 1 1 5 1 3 5 3 3
          5 2 4 5 4 1 5 3 4 5 4 5
          5 5 1 4 4 4 5 3 5 5 4 4
          5 5 4 5 4 3
        </DataArray>
      </Points>
      <Lines>
        <DataArray type="Int32" Name="connectivity" NumberOfComponents="1" format="ascii">
          0 1 2 3 4 5 0 6 7 6 8 6
          9 6 10 6 7 11 2 12 8 12 13 14
          15 14 8 16 0 16 17 18 13 19 15 20
          17 21 22 23 24 23 25 26 24 27 17 27
          28 4 29 4 30 2 31 2 29 32 33 32
          13 32 33 10 34 10 35 10 9 0 34 0
          36 0 37 9 38 37 22 37 8 37 15 13
          39 8 40 8 41 22 39 22 42 25 43 40
          17 40 44 40 45 40 24 17 41 17 29 28
          46 28 31 47 36 47 48 47 49 47 50 31
          39 31 38 30 33 29 46 29 51 29 42 29
          52 36 50 35 53 39 34 39 54 38 55 33
          55 42 43 42 56 34 51 34 45 34 57 58
          59 58 50 54 55 60 45 60 52 60 43 45
          61 45 62 43 63 43 64 43 44 65 66 65
          67 65 59 65 57 41 61 64 68 64 69 44
          70 44 46 49 48 49 71 49 48 46 72 73
          74 73 71 73 50 72 74 72 75 72 76 48
          71 51 76 51 77 51 78 51 79 51 67 56
          79 50 57 53 80 53 81 52 71 62 79 59
          71 59 82 67 75 67 83 57 80 57 84 63
          85 68 79 68 66 68 69 85 83 69 86 69
          87 69 66 69 88 70 89 66 83 66
        </DataArray>
        <DataArray type="Int32" Name="offsets" NumberOfComponents="1" format="ascii">
          2 4 6 8 10 12 14 16 18 20 22 24
          26 28 30 32 34 36 38 40 42 44 46 48
          50 52 54 56 58 60 62 64 66 68 70 72
          74 76 78 80 82 84 86 88 90 92 94 96
          98 100 102 104 106 108 110 112 114 116 118 120
          122 124 126 128 130 132 134 136 138 140 142 144
          146 148 150 152 154 156 158 160 162 164 166 168
          170 172 174 176 178 180 182 184 186 188 190 192
          194 196 198 200 202 204 206 208 210 212 214 216
          218 220 222 224 226 228 230 232 234 236 238 240
          242 244 246 248 250 252 254 256 258 260 262 264
          266 268 270 272 274
        </DataArray>
      </Lines>
    </Piece>
  </PolyData>
</VTKFile>
