<?xml version="1.0"?>
<VTKFile type="UnstructuredGrid" version="0.1" byte_order="LittleEndian">
  <UnstructuredGrid>
    <Piece NumberOfCells="64" NumberOfPoints="81">
      <PointData Scalars="S_liq">
        <DataArray type="Float32" Name="S_liq" NumberOfComponents="1" format="ascii">
          0.962127 0.962127 0.328164 0.328163 0.962127 0.328162 0.962128 0.32816 0.962128 0.328158 0.962128 0.328156
          0.962128 0.328155 0.962128 0.328154 0.962128 0.328153 0.0862265 0.0862263 0.0862256 0.0862245 0.0862232 0.086222
          0.086221 0.0862203 0.0862201 0.0398467 0.0398484 0.0398518 0.0398547 0.0398567 0.0398581 0.0398591 0.0398596 0.0398597
          0.0249534 0.0249631 0.0249808 0.0249951 0.0250061 0.0250145 0.0250208 0.025024 0.0250246 0.0174887 0.0175162 0.0175597
          0.0175907 0.0176156 0.0176346 0.01765 0.0176574 0.0176582 0.0116085 0.0117006 0.0118208 0.011894 0.0119573 0.0120033
          0.0120444 0.0120626 0.0120629 0 0 0 0 0 0 0 0 0
          0 0 0 0 0 0 0 0 0
        </DataArray>
        <DataArray type="Float32" Name="p_liq" NumberOfComponents="1" format="ascii">
          99040.8 99040.8 98191.1 98191.1 99040.8 98191.1 99040.8 98191.1 99040.8 98191.1 99040.8 98191.1
          99040.8 98191.1 99040.8 98191.1 99040.8 98191.1 97624.5 97624.5 97624.5 97624.5 97624.5 97624.5
          97624.5 97624.5 97624.5 97243.4 97243.4 97243.5 97243.5 97243.6 97243.6 97243.6 97243.6 97243.6
          96965.5 96965.8 96966.3 96966.6 96966.9 96967.1 96967.3 96967.4 96967.4 96712.4 96713.6 96715.5
          96716.9 96718 96718.9 96719.5 96719.9 96719.9 96384.7 96390.1 96397.2 96401.6 96405.3 96408.1
          96410.5 96411.6 96411.6 95697.6 95697.6 95697.6 95697.6 95697.6 95697.6 95697.6 95697.6 95697.6
          95697.5 95697.5 95697.5 95697.5 95697.5 95697.5 95697.5 95697.5 95697.5
        </DataArray>
        <DataArray type="Float32" Name="rho_liq" NumberOfComponents="1" format="ascii">
          998.908 998.909 998.887 998.888 998.91 998.892 998.913 998.897 998.916 998.903 998.919 998.908
          998.921 998.913 998.923 998.916 998.924 998.917 998.84 998.844 998.853 998.866 998.879 998.891
          998.901 998.907 998.909 998.78 998.788 998.807 998.832 998.856 998.877 998.892 998.901 998.904
          998.717 998.732 998.767 998.805 998.84 998.867 998.888 998.899 998.903 998.656 998.684 998.737
          998.787 998.829 998.862 998.886 998.9 998.903 998.591 998.64 998.716 998.775 998.822 998.86
          998.887 998.901 998.904 716.419 763.032 818.425 847.941 879.158 900.173 922.903 932.182 930.853
          101.677 143.998 188.19 210.338 238.17 254.288 275.697 283.896 281.799
        </DataArray>
        <DataArray type="Float32" Name="mob_liq" NumberOfComponents="1" format="ascii">
          860.159 860.074 29.3044 29.2984 859.835 29.2816 859.479 29.257 859.061 29.229 858.646 29.2022
          858.297 29.1802 858.065 29.1658 857.983 29.1609 0.565122 0.5648 0.563929 0.562737 0.561474 0.560336
          0.559454 0.5589 0.558712 0.0513882 0.0513282 0.0511731 0.0509764 0.0507835 0.05062 0.0504986 0.050425 0.0504005
          0.0106504 0.0106378 0.0106022 0.0105563 0.0105133 0.0104779 0.0104528 0.0104377 0.0104325 0.0028419 0.00284767 0.00285026
          0.00284635 0.00284257 0.00283906 0.00283773 0.00283633 0.00283518 0.000469914 0.000485947 0.000505182 0.000515639 0.000525064 0.000531675
          0.000538189 0.000540936 0.000540717 0 0 0 0 0 0 0 0 0
          0 0 0 0 0 0 0 0 0
        </DataArray>
        <DataArray type="Float32" Name="S_gas" NumberOfComponents="1" format="ascii">
          0.0378726 0.0378726 0.671836 0.671837 0.0378725 0.671838 0.0378724 0.67184 0.0378722 0.671842 0.0378721 0.671844
          0.037872 0.671845 0.0378719 0.671846 0.0378719 0.671847 0.913773 0.913774 0.913774 0.913776 0.913777 0.913778
          0.913779 0.91378 0.91378 0.960153 0.960152 0.960148 0.960145 0.960143 0.960142 0.960141 0.96014 0.96014
          0.975047 0.975037 0.975019 0.975005 0.974994 0.974986 0.974979 0.974976 0.974975 0.982511 0.982484 0.98244
          0.982409 0.982384 0.982365 0.98235 0.982343 0.982342 0.988391 0.988299 0.988179 0.988106 0.988043 0.987997
          0.987956 0.987937 0.987937 1 1 1 1 1 1 1 1 1
          1 1 1 1 1 1 1 1 1
        </DataArray>
        <DataArray type="Float32" Name="p_gas" NumberOfComponents="1" format="ascii">
          100003 100003 100002 100002 100003 100002 100003 100002 100003 100002 100003 100002
          100003 100002 100003 100002 100003 100002 100001 100001 100001 100001 100001 100001
          100001 100001 100001 100001 100001 100001 100001 100001 100001 100001 100001 100001
          100000 100000 100000 100000 100000 100000 100000 100000 100000 100000 100000 100000
          100000 100000 100000 100000 100000 100000 100000 100000 100000 100000 100000 100000
          100000 100000 100000 100000 100000 100000 100000 100000 100000 100000 100000 100000
          100000 100000 100000 100000 100000 100000 100000 100000 100000
        </DataArray>
        <DataArray type="Float32" Name="rho_gas" NumberOfComponents="1" format="ascii">
          1.19553 1.19554 1.19493 1.19496 1.19559 1.19506 1.19567 1.19521 1.19575 1.19537 1.19584 1.19553
          1.19591 1.19567 1.19596 1.19575 1.19598 1.19578 1.19357 1.19367 1.19394 1.1943 1.19469 1.19504
          1.19531 1.19549 1.19554 1.19183 1.19206 1.19263 1.19334 1.19403 1.19462 1.19506 1.19532 1.19541
          1.19002 1.19046 1.19147 1.19257 1.19356 1.19436 1.19494 1.19527 1.19538 1.18833 1.18908 1.1906
          1.19204 1.19325 1.19421 1.1949 1.19528 1.19539 1.18681 1.18794 1.19 1.19169 1.19305 1.19413
          1.19492 1.19532 1.1954 1.18808 1.18917 1.19121 1.19276 1.19395 1.19493 1.19559 1.19592 1.19599
          1.19293 1.1943 1.19666 1.19824 1.19944 1.20044 1.20112 1.20143 1.20147
        </DataArray>
        <DataArray type="Float32" Name="mob_gas" NumberOfComponents="1" format="ascii">
          27.657 27.6572 26751.7 26752.2 27.6576 26753.5 27.6583 26755.5 27.659 26757.7 27.6598 26759.8
          27.6605 26761.6 27.6609 26762.8 27.6611 26763.1 49046.3 49048.6 49054.7 49063.1 49072 49080.1
          49086.4 49090.4 49091.7 54252.4 54257.9 54272 54289.6 54306.8 54321.4 54332.3 54338.9 54341.1
          55352.6 55363.2 55388 55415.4 55439.9 55459.9 55474.4 55482.8 55485.5 55685.6 55703.3 55740.8
          55776.8 55806.9 55831.1 55848.3 55857.8 55860.5 55833.6 55858.5 55907.8 55949.8 55983.6 56010.5
          56029.8 56039.8 56042.1 55702.8 55771.7 55872.7 55939.5 55996.6 56039.5 56074.7 56090.5 56091.4
          55295.3 55382.7 55503.9 55577.3 55641.7 55689.1 55729.3 55746.4 55746.1
        </DataArray>
        <DataArray type="Float32" Name="pc" NumberOfComponents="1" format="ascii">
          962.105 962.105 1810.84 1810.84 962.104 1810.85 962.104 1810.85 962.103 1810.85 962.102 1810.85
          962.101 1810.86 962.101 1810.86 962.101 1810.86 2376.74 2376.74 2376.74 2376.75 2376.76 2376.76
          2376.77 2376.77 2376.77 2757.37 2757.34 2757.3 2757.26 2757.23 2757.21 2757.2 2757.19 2757.19
          3034.94 3034.69 3034.23 3033.86 3033.57 3033.36 3033.19 3033.11 3033.09 3287.93 3286.69 3284.75
          3283.37 3282.26 3281.42 3280.74 3280.41 3280.38 3615.46 3610.02 3602.9 3598.57 3594.82 3592.1
          3589.67 3588.59 3588.58 4302.49 4302.49 4302.49 4302.49 4302.49 4302.49 4302.49 4302.49 4302.49
          4302.49 4302.49 4302.49 4302.49 4302.49 4302.49 4302.49 4302.49 4302.49
        </DataArray>
        <DataArray type="Float32" Name="porosity" NumberOfComponents="1" format="ascii">
          0.41 0.41 0.41 0.41 0.41 0.41 0.41 0.41 0.41 0.41 0.41 0.41
          0.41 0.41 0.41 0.41 0.41 0.41 0.41 0.41 0.41 0.41 0.41 0.41
          0.41 0.41 0.41 0.41 0.41 0.41 0.41 0.41 0.41 0.41 0.41 0.41
          0.41 0.41 0.41 0.41 0.41 0.41 0.41 0.41 0.41 0.41 0.41 0.41
          0.41 0.41 0.41 0.41 0.41 0.41 0.41 0.41 0.41 0.41 0.41 0.41
          0.41 0.41 0.41 0.41 0.41 0.41 0.41 0.41 0.41 0.41 0.41 0.41
          0.41 0.41 0.41 0.41 0.41 0.41 0.41 0.41 0.41
        </DataArray>
        <DataArray type="Float32" Name="x^H2O_liq" NumberOfComponents="1" format="ascii">
          0.999984 0.999984 0.999984 0.999984 0.999984 0.999984 0.999984 0.999984 0.999984 0.999984 0.999984 0.999984
          0.999984 0.999984 0.999984 0.999984 0.999984 0.999984 0.999984 0.999984 0.999984 0.999984 0.999984 0.999984
          0.999984 0.999984 0.999984 0.999984 0.999984 0.999984 0.999984 0.999984 0.999984 0.999984 0.999984 0.999984
          0.999985 0.999985 0.999984 0.999984 0.999984 0.999984 0.999984 0.999984 0.999984 0.999985 0.999985 0.999985
          0.999984 0.999984 0.999984 0.999984 0.999984 0.999984 0.999985 0.999985 0.999985 0.999984 0.999984 0.999984
          0.999984 0.999984 0.999984 0.717455 0.764086 0.819472 0.848972 0.880183 0.901186 0.923914 0.93319 0.931858
          0.101807 0.144181 0.188413 0.210575 0.23843 0.254555 0.27598 0.284184 0.282085
        </DataArray>
        <DataArray type="Float32" Name="X^H2O_liq" NumberOfComponents="1" format="ascii">
          0.999974 0.999974 0.999975 0.999975 0.999974 0.999975 0.999974 0.999975 0.999974 0.999974 0.999974 0.999974
          0.999974 0.999974 0.999974 0.999974 0.999974 0.999974 0.999975 0.999975 0.999975 0.999975 0.999975 0.999975
          0.999974 0.999974 0.999974 0.999975 0.999975 0.999975 0.999975 0.999975 0.999975 0.999975 0.999974 0.999974
          0.999975 0.999975 0.999975 0.999975 0.999975 0.999975 0.999975 0.999975 0.999974 0.999975 0.999975 0.999975
          0.999975 0.999975 0.999975 0.999975 0.999974 0.999974 0.999975 0.999975 0.999975 0.999975 0.999975 0.999975
          0.999975 0.999974 0.999974 0.717446 0.764077 0.819463 0.848963 0.880173 0.901176 0.923904 0.93318 0.931848
          0.101798 0.144171 0.188403 0.210566 0.23842 0.254546 0.27597 0.284175 0.282075
        </DataArray>
        <DataArray type="Float32" Name="x^Air_liq" NumberOfComponents="1" format="ascii">
          1.5867e-05 1.58682e-05 1.58254e-05 1.58279e-05 1.58717e-05 1.58349e-05 1.5877e-05 1.58452e-05 1.58831e-05 1.5857e-05 1.58892e-05 1.58683e-05
          1.58944e-05 1.58776e-05 1.58978e-05 1.58837e-05 1.5899e-05 1.58858e-05 1.57308e-05 1.57377e-05 1.57563e-05 1.57819e-05 1.58092e-05 1.58339e-05
          1.58532e-05 1.58653e-05 1.58695e-05 1.56102e-05 1.56257e-05 1.56653e-05 1.57149e-05 1.57633e-05 1.58046e-05 1.58354e-05 1.58542e-05 1.58604e-05
          1.54869e-05 1.55167e-05 1.55856e-05 1.56617e-05 1.573e-05 1.57861e-05 1.5827e-05 1.58507e-05 1.58582e-05 1.5373e-05 1.54229e-05 1.5526e-05
          1.5625e-05 1.57086e-05 1.5776e-05 1.58248e-05 1.58516e-05 1.5859e-05 1.52728e-05 1.53474e-05 1.54857e-05 1.56009e-05 1.5695e-05 1.57707e-05
          1.58258e-05 1.58541e-05 1.58603e-05 1.52735e-05 1.53597e-05 1.55142e-05 1.56301e-05 1.57222e-05 1.57976e-05 1.58511e-05 1.58773e-05 1.58818e-05
          1.54039e-05 1.55136e-05 1.56957e-05 1.58168e-05 1.59133e-05 1.59926e-05 1.60495e-05 1.60755e-05 1.60779e-05
        </DataArray>
        <DataArray type="Float32" Name="X^Air_liq" NumberOfComponents="1" format="ascii">
          2.55065e-05 2.55085e-05 2.54396e-05 2.54436e-05 2.55141e-05 2.5455e-05 2.55225e-05 2.54715e-05 2.55324e-05 2.54904e-05 2.55422e-05 2.55086e-05
          2.55505e-05 2.55236e-05 2.5556e-05 2.55333e-05 2.55579e-05 2.55367e-05 2.52876e-05 2.52986e-05 2.53285e-05 2.53697e-05 2.54136e-05 2.54533e-05
          2.54843e-05 2.55038e-05 2.55104e-05 2.50937e-05 2.51187e-05 2.51823e-05 2.52619e-05 2.53398e-05 2.54061e-05 2.54558e-05 2.54859e-05 2.54958e-05
          2.48955e-05 2.49434e-05 2.50542e-05 2.51764e-05 2.52863e-05 2.53765e-05 2.54422e-05 2.54803e-05 2.54923e-05 2.47124e-05 2.47925e-05 2.49583e-05
          2.51174e-05 2.52518e-05 2.53602e-05 2.54387e-05 2.54817e-05 2.54936e-05 2.45513e-05 2.46713e-05 2.48935e-05 2.50787e-05 2.523e-05 2.53517e-05
          2.54402e-05 2.54857e-05 2.54958e-05 2.45523e-05 2.46909e-05 2.49393e-05 2.51257e-05 2.52737e-05 2.53948e-05 2.5481e-05 2.5523e-05 2.55303e-05
          2.476e-05 2.4937e-05 2.523e-05 2.54249e-05 2.55801e-05 2.57076e-05 2.57992e-05 2.5841e-05 2.58448e-05
        </DataArray>
        <DataArray type="Float32" Name="rhoMolar_liq" NumberOfComponents="1" format="ascii">
          55447.6 55447.6 55446.4 55446.5 55447.7 55446.7 55447.9 55447 55448 55447.3 55448.2 55447.6
          55448.3 55447.9 55448.4 55448 55448.5 55448.1 55443.8 55444 55444.5 55445.2 55446 55446.7
          55447.2 55447.5 55447.6 55440.5 55440.9 55442 55443.4 55444.7 55445.9 55446.7 55447.2 55447.4
          55437 55437.8 55439.8 55441.9 55443.8 55445.3 55446.5 55447.1 55447.3 55433.6 55435.1 55438.1
          55440.9 55443.2 55445.1 55446.4 55447.1 55447.3 55430 55432.7 55436.9 55440.2 55442.8 55444.9
          55446.4 55447.2 55447.4 55426.7 55430.4 55436.1 55439.7 55442.5 55444.8 55446.5 55447.3 55447.4
          55423.9 55428.7 55435.6 55439.4 55442.4 55444.8 55446.6 55447.4 55447.4
        </DataArray>
        <DataArray type="Float32" Name="x^H2O_gas" NumberOfComponents="1" format="ascii">
          0.0184854 0.0184811 0.0186313 0.0186224 0.0184688 0.0185976 0.0184505 0.0185614 0.018429 0.0185201 0.0184076 0.0184803
          0.0183896 0.0184477 0.0183777 0.0184265 0.0183735 0.0184191 0.0189665 0.018942 0.0188757 0.0187847 0.0186882 0.018601
          0.0185332 0.0184906 0.0184761 0.0194006 0.0193442 0.0192011 0.0190234 0.0188507 0.0187043 0.0185954 0.0185296 0.0185078
          0.0198515 0.0197419 0.0194898 0.0192143 0.018969 0.0187695 0.0186251 0.0185415 0.0185155 0.0202843 0.020089 0.0197077
          0.0193468 0.0190457 0.0188053 0.0186327 0.0185385 0.0185124 0.0207387 0.0203997 0.0198561 0.0194342 0.0190942 0.0188241
          0.0186292 0.0185297 0.0185077 0.0151828 0.015809 0.0163576 0.0165534 0.0168365 0.016974 0.0172038 0.0172813 0.0172431
          0.00219003 0.00301506 0.00377334 0.00411468 0.00456542 0.00479524 0.00513512 0.00525853 0.00521791
        </DataArray>
        <DataArray type="Float32" Name="X^H2O_gas" NumberOfComponents="1" format="ascii">
          0.0115801 0.0115774 0.0116722 0.0116666 0.0115697 0.0116509 0.0115581 0.0116281 0.0115446 0.011602 0.0115311 0.0115769
          0.0115197 0.0115563 0.0115122 0.011543 0.0115095 0.0115383 0.0118837 0.0118682 0.0118264 0.011769 0.0117081 0.0116531
          0.0116103 0.0115834 0.0115743 0.0121577 0.0121221 0.0120318 0.0119196 0.0118106 0.0117183 0.0116495 0.011608 0.0115943
          0.0124424 0.0123732 0.012214 0.0120401 0.0118853 0.0117594 0.0116682 0.0116156 0.0115991 0.0127158 0.0125924 0.0123516
          0.0121237 0.0119337 0.011782 0.011673 0.0116136 0.0115972 0.0130029 0.0127887 0.0124453 0.0121789 0.0119643 0.0117939
          0.0116709 0.0116081 0.0115942 0.00949932 0.00989343 0.0102389 0.0103622 0.0105406 0.0106272 0.0107721 0.0108209 0.0107968
          0.00136348 0.00187772 0.00235064 0.00256361 0.00284493 0.0029884 0.00320062 0.00327769 0.00325232
        </DataArray>
        <DataArray type="Float32" Name="x^Air_gas" NumberOfComponents="1" format="ascii">
          0.981515 0.981519 0.981369 0.981378 0.981531 0.981402 0.98155 0.981439 0.981571 0.98148 0.981592 0.98152
          0.98161 0.981552 0.981622 0.981574 0.981627 0.981581 0.981034 0.981058 0.981124 0.981215 0.981312 0.981399
          0.981467 0.981509 0.981524 0.980599 0.980656 0.980799 0.980977 0.981149 0.981296 0.981405 0.98147 0.981492
          0.980148 0.980258 0.98051 0.980786 0.981031 0.98123 0.981375 0.981458 0.981485 0.979716 0.979911 0.980292
          0.980653 0.980954 0.981195 0.981367 0.981462 0.981488 0.979261 0.9796 0.980144 0.980566 0.980906 0.981176
          0.981371 0.98147 0.981492 0.984817 0.984191 0.983642 0.983447 0.983163 0.983026 0.982796 0.982719 0.982757
          0.99781 0.996985 0.996227 0.995885 0.995435 0.995205 0.994865 0.994741 0.994782
        </DataArray>
        <DataArray type="Float32" Name="X^Air_gas" NumberOfComponents="1" format="ascii">
          0.98842 0.988423 0.988328 0.988333 0.98843 0.988349 0.988442 0.988372 0.988455 0.988398 0.988469 0.988423
          0.98848 0.988444 0.988488 0.988457 0.98849 0.988462 0.988116 0.988132 0.988174 0.988231 0.988292 0.988347
          0.98839 0.988417 0.988426 0.987842 0.987878 0.987968 0.98808 0.988189 0.988282 0.98835 0.988392 0.988406
          0.987558 0.987627 0.987786 0.98796 0.988115 0.988241 0.988332 0.988384 0.988401 0.987284 0.987408 0.987648
          0.987876 0.988066 0.988218 0.988327 0.988386 0.988403 0.986997 0.987211 0.987555 0.987821 0.988036 0.988206
          0.988329 0.988392 0.988406 0.990501 0.990107 0.989761 0.989638 0.989459 0.989373 0.989228 0.989179 0.989203
          0.998637 0.998122 0.997649 0.997436 0.997155 0.997012 0.996799 0.996722 0.996748
        </DataArray>
        <DataArray type="Float32" Name="rhoMolar_gas" NumberOfComponents="1" format="ascii">
          41.5727 41.5733 41.5542 41.5553 41.5748 41.5584 41.577 41.5629 41.5797 41.568 41.5824 41.573
          41.5846 41.577 41.5861 41.5796 41.5866 41.5805 41.5125 41.5155 41.5237 41.535 41.5469 41.5577
          41.5661 41.5714 41.5732 41.4587 41.4656 41.4833 41.5053 41.5266 41.5447 41.5582 41.5664 41.5691
          41.403 41.4165 41.4476 41.4815 41.5119 41.5365 41.5544 41.5648 41.568 41.3509 41.3737 41.4206
          41.4651 41.5023 41.532 41.5534 41.5651 41.5683 41.3051 41.3392 41.4023 41.4543 41.4963 41.5297
          41.5538 41.5661 41.5689 41.262 41.3095 41.3891 41.4461 41.4918 41.5281 41.5547 41.5674 41.5692
          41.2263 41.2866 41.3803 41.4403 41.4887 41.5271 41.5557 41.5685 41.5692
        </DataArray>
        <DataArray type="Float32" Name="phase presence" NumberOfComponents="1" format="ascii">
          3 3 3 3 3 3 3 3 3 3 3 3
          3 3 3 3 3 3 3 3 3 3 3 3
          3 3 3 3 3 3 3 3 3 3 3 3
          3 3 3 3 3 3 3 3 3 3 3 3
          3 3 3 3 3 3 3 3 3 3 3 3
          3 3 3 2 2 2 2 2 2 2 2 2
          2 2 2 2 2 2 2 2 2
        </DataArray>
        <DataArray type="Float32" Name="T" NumberOfComponents="1" format="ascii">
          289.32 289.317 289.446 289.439 289.306 289.417 289.29 289.386 289.272 289.35 289.253 289.316
          289.238 289.288 289.227 289.269 289.224 289.263 289.736 289.715 289.657 289.579 289.495 289.42
          289.361 289.325 289.312 290.11 290.062 289.938 289.785 289.636 289.509 289.415 289.358 289.339
          290.5 290.405 290.187 289.95 289.738 289.565 289.441 289.369 289.346 290.865 290.705 290.376
          290.064 289.804 289.596 289.447 289.366 289.343 291.188 290.947 290.504 290.139 289.846 289.613
          289.444 289.358 289.339 291.489 291.153 290.594 290.194 289.875 289.622 289.436 289.348 289.336
          291.737 291.311 290.651 290.231 289.892 289.624 289.425 289.336 289.33
        </DataArray>
      </PointData>
      <CellData Scalars="process rank">
        <DataArray type="Float32" Name="process rank" NumberOfComponents="1" format="ascii">
          0 0 0 0 0 0 0 0 0 0 0 0
          0 0 0 0 0 0 0 0 0 0 0 0
          0 0 0 0 0 0 0 0 0 0 0 0
          0 0 0 0 0 0 0 0 0 0 0 0
          0 0 0 0 0 0 0 0 0 0 0 0
          0 0 0 0
        </DataArray>
      </CellData>
      <Points>
        <DataArray type="Float32" Name="Coordinates" NumberOfComponents="3" format="ascii">
          0 0 0 0.03125 0 0 0 0.0867169 0 0.03125 0.0867169 0
          0.0625 0 0 0.0625 0.0867169 0 0.09375 0 0 0.09375 0.0867169 0
          0.125 0 0 0.125 0.0867169 0 0.15625 0 0 0.15625 0.0867169 0
          0.1875 0 0 0.1875 0.0867169 0 0.21875 0 0 0.21875 0.0867169 0
          0.25 0 0 0.25 0.0867169 0 0 0.144528 0 0.03125 0.144528 0
          0.0625 0.144528 0 0.09375 0.144528 0 0.125 0.144528 0 0.15625 0.144528 0
          0.1875 0.144528 0 0.21875 0.144528 0 0.25 0.144528 0 0 0.183069 0
          0.03125 0.183069 0 0.0625 0.183069 0 0.09375 0.183069 0 0.125 0.183069 0
          0.15625 0.183069 0 0.1875 0.183069 0 0.21875 0.183069 0 0.25 0.183069 0
          0 0.208763 0 0.03125 0.208763 0 0.0625 0.208763 0 0.09375 0.208763 0
          0.125 0.208763 0 0.15625 0.208763 0 0.1875 0.208763 0 0.21875 0.208763 0
          0.25 0.208763 0 0 0.225892 0 0.03125 0.225892 0 0.0625 0.225892 0
          0.09375 0.225892 0 0.125 0.225892 0 0.15625 0.225892 0 0.1875 0.225892 0
          0.21875 0.225892 0 0.25 0.225892 0 0 0.237312 0 0.03125 0.237312 0
          0.0625 0.237312 0 0.09375 0.237312 0 0.125 0.237312 0 0.15625 0.237312 0
          0.1875 0.237312 0 0.21875 0.237312 0 0.25 0.237312 0 0 0.244925 0
          0.03125 0.244925 0 0.0625 0.244925 0 0.09375 0.244925 0 0.125 0.244925 0
          0.15625 0.244925 0 0.1875 0.244925 0 0.21875 0.244925 0 0.25 0.244925 0
          0 0.25 0 0.03125 0.25 0 0.0625 0.25 0 0.09375 0.25 0
          0.125 0.25 0 0.15625 0.25 0 0.1875 0.25 0 0.21875 0.25 0
          0.25 0.25 0
        </DataArray>
      </Points>
      <Cells>
        <DataArray type="Int32" Name="connectivity" NumberOfComponents="1" format="ascii">
          0 1 3 2 1 4 5 3 4 6 7 5
          6 8 9 7 8 10 11 9 10 12 13 11
          12 14 15 13 14 16 17 15 2 3 19 18
          3 5 20 19 5 7 21 20 7 9 22 21
          9 11 23 22 11 13 24 23 13 15 25 24
          15 17 26 25 18 19 28 27 19 20 29 28
          20 21 30 29 21 22 31 30 22 23 32 31
          23 24 33 32 24 25 34 33 25 26 35 34
          27 28 37 36 28 29 38 37 29 30 39 38
          30 31 40 39 31 32 41 40 32 33 42 41
          33 34 43 42 34 35 44 43 36 37 46 45
          37 38 47 46 38 39 48 47 39 40 49 48
          40 41 50 49 41 42 51 50 42 43 52 51
          43 44 53 52 45 46 55 54 46 47 56 55
          47 48 57 56 48 49 58 57 49 50 59 58
          50 51 60 59 51 52 61 60 52 53 62 61
          54 55 64 63 55 56 65 64 56 57 66 65
          57 58 67 66 58 59 68 67 59 60 69 68
          60 61 70 69 61 62 71 70 63 64 73 72
          64 65 74 73 65 66 75 74 66 67 76 75
          67 68 77 76 68 69 78 77 69 70 79 78
          70 71 80 79
        </DataArray>
        <DataArray type="Int32" Name="offsets" NumberOfComponents="1" format="ascii">
          4 8 12 16 20 24 28 32 36 40 44 48
          52 56 60 64 68 72 76 80 84 88 92 96
          100 104 108 112 116 120 124 128 132 136 140 144
          148 152 156 160 164 168 172 176 180 184 188 192
          196 200 204 208 212 216 220 224 228 232 236 240
          244 248 252 256
        </DataArray>
        <DataArray type="UInt8" Name="types" NumberOfComponents="1" format="ascii">
          9 9 9 9 9 9 9 9 9 9 9 9
          9 9 9 9 9 9 9 9 9 9 9 9
          9 9 9 9 9 9 9 9 9 9 9 9
          9 9 9 9 9 9 9 9 9 9 9 9
          9 9 9 9 9 9 9 9 9 9 9 9
          9 9 9 9
        </DataArray>
      </Cells>
    </Piece>
  </UnstructuredGrid>
</VTKFile>
