<?xml version="1.0"?>
<VTKFile type="UnstructuredGrid" version="0.1" byte_order="LittleEndian">
  <UnstructuredGrid>
    <Piece NumberOfCells="3667" NumberOfPoints="3794">
      <PointData Scalars="S_liq">
        <DataArray type="Float32" Name="S_liq" NumberOfComponents="1" format="ascii">
          0.529706 0.535346 0.480066 0.5046 0.555484 0.563619 0.393278 0.458605 0.553654 0.573741 0.522099 0.587011
          0.602874 0.591197 0.619136 0.607585 0.575607 0.488239 0.319266 0.424368 0.473479 0.297369 0.409298 0.511829
          0.541758 0.593684 0.563765 0.582877 0.636853 0.624594 0.655342 0.642636 0.675135 0.659247 0.699545 0.675637
          0.737051 0.69883 0.843261 0.76087 0.611568 0.631537 0.650692 0.600766 0.663851 0.677256 0.708995 0.658113
          0.63945 0.668029 0.464244 0.264366 0.376662 0.504295 0.533843 0.415239 0.557891 0.578475 0.306027 0.435781
          0.48474 0.518435 0.334172 0.531506 0.502051 0.543484 0.564137 0.582325 0.552413 0.569838 0.615707 0.623907
          0.597423 0.645433 0.628743 0.726853 0.678335 0.615542 0.598456 0.61132 0.639764 0.656155 0.627126 0.696568
          0.675534 1 0.915555 1 1 1 1 1 1 1 1 0.798317
          0.977386 1 1 1 1 1 1 1 1 1 1 1
          1 1 1 1 1 1 1 1 1 1 1 1
          1 1 1 1 1 1 1 1 0.840127 1 0.902497 1
          1 0.753154 0.804317 0.723659 0.977664 1 1 1 1 1 1 1
          1 1 1 1 1 1 1 0.461115 0.384634 0.466857 0.49288 0.52372
          0.549363 0.586114 0.566862 0.576451 0.585881 0.509738 0.541919 0.354574 0.45361 0.499826 0.569468 0.599652
          0.586708 0.600688 0.61321 0.618923 0.623598 0.635586 0.651464 0.661989 0.687498 0.612996 0.626946 0.643164
          0.601622 0.616791 0.634944 0.657694 0.679676 0.338146 0.440521 0.530572 0.49044 0.521098 0.554745 0.572374
          0.544968 0.563957 0.581351 0.588332 0.315381 0.410117 0.455418 0.530698 0.513407 0.378191 0.488222 0.55143
          0.570915 0.536933 0.589065 0.603458 0.616564 0.643139 0.665384 0.626437 0.687778 0.597989 0.613622 0.628965
          0.606543 0.623509 0.641828 0.648376 0.676343 0.72007 0.708003 0.773804 0.719832 0.933852 1 1
          1 0.791586 0.957976 0.70465 0.761464 1 1 1 1 1 1 1
          1 1 1 1 1 0.705143 0.911605 0.754528 0.880401 1 1 1
          1 1 0.800245 1 0.957017 1 1 1 1 1 1 1
          1 1 1 1 1 1 1 1 1 1 1 1
          1 1 1 1 1 1 1 1 1 1 1 1
          1 1 1 1 1 1 1 1 1 1 1 1
          1 1 1 1 1 1 1 1 1 1 1 1
          1 1 1 1 1 1 1 1 1 1 1 1
          1 1 1 1 1 1 1 1 1 1 1 1
          1 1 1 1 1 1 1 1 1 1 1 1
          1 1 1 1 1 1 1 1 1 1 1 1
          1 1 1 1 1 1 1 1 1 1 1 1
          1 1 1 1 1 1 1 1 1 1 1 1
          1 1 1 1 1 1 1 1 1 1 1 1
          1 1 1 1 1 1 1 1 1 1 1 1
          1 1 1 1 1 1 1 1 1 1 1 1
          1 1 1 1 1 1 1 1 1 1 1 1
          1 1 1 1 1 1 1 1 1 1 1 1
          1 1 1 1 1 1 1 1 1 1 1 1
          1 1 1 1 1 1 1 1 1 1 1 1
          1 1 1 1 1 1 1 1 1 1 1 1
          1 1 1 1 1 1 1 1 1 1 1 1
          1 1 1 1 1 1 1 1 1 1 1 1
          1 1 1 1 1 1 1 0.451591 0.508222 0.333783 0.432148 0.479548
          0.511843 0.54055 0.561646 0.582413 0.563318 0.477466 0.310115 0.417675 0.466664 0.277487 0.385062 0.507193
          0.584066 0.535864 0.557646 0.578852 0.601745 0.620534 0.640579 0.664758 0.699701 0.664631 0.603726 0.622822
          0.599114 0.643121 0.701414 0.66654 0.694833 0.413912 0.309521 0.431274 0.475958 0.511832 0.538911 0.555686
          0.574977 0.558121 0.337033 0.455801 0.489132 0.524079 0.385085 0.596462 0.584537 0.618542 0.638408 0.616026
          0.659548 0.683333 0.632998 0.605159 0.620505 0.644009 0.67179 0.688083 0.659796 0.768023 0.899293 1
          1 1 1 0.953426 1 1 1 0.785235 0.735269 1 0.923827 1
          1 1 1 1 1 1 1 1 1 1 1 1
          1 1 1 1 0.787606 0.717587 0.797921 0.991386 1 1 1 0.726036
          0.825416 0.702171 0.999525 1 1 1 1 1 1 1 1 1
          1 1 1 1 1 1 1 1 1 1 1 0.46868
          0.483431 0.513673 0.546329 0.44274 0.496854 0.53569 0.56819 0.577958 0.603111 0.550027 0.4795 0.520032
          0.579463 0.598888 0.623745 0.604254 0.624019 0.642244 0.629826 0.652478 0.68684 0.645157 0.667206 0.68486
          0.705405 0.753119 0.715689 0.856249 0.506339 0.539743 0.563619 0.591072 0.57802 0.608257 0.620718 0.618999
          0.64001 0.609218 0.623785 0.527801 0.556584 0.59051 0.545717 0.570654 0.62362 0.633535 0.63325 0.640863
          0.641958 0.644512 0.662406 0.685306 0.711481 0.768162 0.974072 0.656183 0.680871 0.709469 0.671886 0.705876
          0.752137 0.755306 0.883043 1 0.849852 1 1 0.778382 0.948962 1 1 1
          1 0.921488 1 1 1 1 1 1 1 1 1 1
          1 1 1 1 1 1 1 1 1 1 1 1
          1 1 1 1 1 1 1 1 1 1 1 1
          1 1 1 1 1 1 1 1 1 1 1 1
          1 1 1 1 1 1 1 1 1 1 1 1
          1 1 1 1 1 1 1 1 1 1 1 1
          1 1 1 1 1 1 1 1 1 1 1 1
          1 1 1 1 1 1 1 1 1 1 1 1
          1 1 1 1 1 1 1 1 1 1 1 1
          1 1 1 1 1 1 1 1 1 1 1 1
          1 1 1 1 1 1 1 1 1 1 1 1
          1 1 1 1 1 1 1 1 1 1 1 1
          1 1 1 1 1 1 1 1 1 1 1 1
          1 1 1 1 1 1 1 1 1 1 1 1
          1 1 1 1 1 1 1 1 1 1 1 1
          1 1 1 1 1 1 1 1 1 1 1 1
          1 1 1 1 1 1 1 1 1 1 1 1
          1 1 1 1 1 1 1 1 1 1 1 1
          1 1 1 1 1 1 1 1 1 1 1 1
          1 1 1 1 1 1 1 1 1 1 1 1
          1 1 1 1 1 1 1 1 1 1 1 1
          1 1 1 1 1 1 1 1 1 1 1 1
          1 1 1 1 1 1 1 1 1 1 1 1
          1 1 1 1 1 1 1 1 1 1 1 1
          1 1 1 1 1 1 1 1 1 1 1 1
          1 1 1 1 1 1 1 1 1 1 1 1
          1 1 1 1 1 1 1 1 1 1 1 1
          1 1 1 1 1 1 1 1 1 1 1 1
          1 1 1 1 1 1 1 1 1 1 1 1
          1 1 1 1 1 1 1 1 1 1 1 1
          1 1 1 1 1 1 1 1 1 1 1 1
          1 1 1 1 1 1 1 1 1 1 1 1
          1 1 1 1 1 1 1 1 1 1 1 1
          1 1 1 1 1 1 1 1 1 1 1 1
          1 1 1 1 1 1 1 1 1 1 1 1
          1 1 1 1 1 1 1 1 1 1 1 1
          1 1 1 1 1 1 1 1 1 1 1 1
          1 1 1 1 1 1 1 1 1 1 1 1
          1 1 1 1 1 1 1 1 1 1 1 1
          1 1 1 1 1 1 1 1 1 1 1 1
          1 1 1 1 1 1 1 1 1 1 1 1
          1 1 1 1 1 1 1 1 1 1 1 1
          1 1 1 1 1 1 1 1 1 1 1 1
          1 1 1 1 1 1 1 1 1 1 1 1
          1 1 1 1 1 1 1 1 1 1 1 1
          1 1 1 1 1 1 1 1 1 1 1 1
          1 1 1 1 1 1 1 1 1 1 1 1
          1 1 1 1 1 1 1 1 1 1 1 1
          1 1 1 1 1 1 1 1 1 1 1 1
          1 1 1 1 1 1 1 1 1 1 1 1
          1 1 1 1 1 1 1 1 1 1 1 1
          1 1 1 1 1 1 1 1 1 1 1 1
          1 1 1 1 1 1 1 1 1 1 1 1
          1 1 1 1 1 1 1 1 1 1 1 1
          1 1 1 1 1 1 1 1 1 1 1 1
          1 1 1 1 1 1 1 1 1 1 1 1
          1 1 1 1 1 1 1 1 1 1 1 1
          1 1 1 1 1 1 1 1 1 1 1 1
          1 1 1 1 1 1 1 1 1 1 1 1
          1 1 1 1 1 1 1 1 1 1 1 1
          1 1 1 1 1 1 1 1 1 1 1 1
          1 1 1 1 1 1 1 1 1 1 1 1
          1 1 1 1 1 1 1 1 1 1 1 1
          1 1 1 1 1 1 1 1 1 1 1 1
          1 1 1 1 1 1 1 1 1 1 1 1
          1 1 1 1 1 1 1 1 1 1 1 1
          1 1 1 1 1 1 1 1 1 1 1 1
          1 1 1 1 1 1 1 1 1 1 1 1
          1 1 1 1 1 1 1 1 1 1 1 1
          1 1 1 1 1 1 1 1 1 1 1 1
          1 1 1 1 1 1 1 1 1 1 1 1
          1 1 1 1 1 1 1 1 1 1 1 1
          1 1 1 1 1 1 1 1 1 1 1 1
          1 1 1 1 1 1 1 1 1 1 1 1
          1 1 1 1 1 1 1 1 1 1 1 1
          1 1 1 1 1 1 1 1 1 1 1 1
          1 1 1 1 1 1 1 1 1 1 1 1
          1 1 1 1 1 1 1 1 1 1 1 1
          1 1 1 1 1 1 1 1 1 1 1 1
          1 1 1 1 1 1 1 1 1 1 1 1
          1 1 1 1 1 1 1 1 1 1 1 1
          1 1 1 1 1 1 1 1 1 1 1 1
          1 1 1 1 1 1 1 1 1 1 1 1
          1 1 1 1 1 1 1 1 1 1 1 1
          1 1 1 1 1 1 1 1 1 1 1 1
          1 1 1 1 1 1 1 1 1 1 1 1
          1 1 1 1 1 1 1 1 1 1 1 1
          1 1 1 1 1 1 1 1 1 1 1 1
          1 1 1 1 1 1 1 1 1 1 1 1
          1 1 1 1 1 1 1 1 1 1 1 1
          1 1 1 1 1 1 1 1 1 1 1 1
          1 1 1 1 1 1 1 1 1 1 1 1
          1 1 1 1 1 1 1 1 1 1 1 1
          1 1 1 1 1 1 1 1 1 1 1 1
          1 1 1 1 1 1 1 1 1 1 1 1
          1 1 1 1 1 1 1 1 1 1 1 1
          1 1 1 1 1 1 1 1 1 1 1 1
          1 1 1 1 1 1 1 1 1 1 1 1
          1 1 1 1 1 1 1 1 1 1 1 1
          1 1 1 1 1 1 1 1 1 1 1 1
          1 1 1 1 1 1 1 1 1 1 1 1
          1 1 1 1 1 1 1 1 1 1 1 1
          1 1 1 1 1 1 1 1 1 1 1 1
          1 1 1 1 1 1 1 1 1 1 1 1
          1 1 0.599635 0.6342 0.561054 0.581368 0.622114 0.65267 0.657097 0.658466 0.671367 0.678727
          0.576104 0.590379 0.669739 0.645296 0.658143 0.718705 0.764493 0.760395 0.68657 0.756931 0.876364 1
          1 1 0.698681 0.770644 0.921543 0.965883 1 1 1 1 1 1
          0.730873 0.672828 0.749736 0.788213 0.87569 0.724391 0.897781 0.891719 0.976915 0.9642 1 1
          1 1 1 1 1 1 1 1 1 1 1 1
          1 1 1 1 1 1 1 1 1 1 1 1
          1 1 1 1 1 1 1 1 1 1 1 1
          1 1 1 1 1 1 1 1 1 1 1 1
          1 1 1 1 1 1 1 1 1 1 1 1
          1 1 1 1 1 1 1 1 1 1 1 1
          1 1 1 1 1 1 1 1 1 1 1 1
          1 1 1 1 1 1 1 1 1 1 1 1
          1 1 1 1 1 1 1 1 1 1 1 1
          1 1 1 1 1 1 1 1 1 1 1 1
          1 1 1 1 1 1 1 1 1 1 1 1
          1 1 1 1 1 1 1 1 1 1 1 1
          1 1 1 1 1 1 1 1 1 1 1 1
          1 1 1 1 1 1 1 1 1 1 1 1
          1 1 1 1 1 1 1 1 1 1 1 1
          1 1 1 1 1 1 1 1 1 1 1 1
          1 1 1 1 1 1 1 1 1 1 1 1
          1 1 1 1 1 1 1 1 1 1 1 1
          1 1 1 1 1 1 1 1 1 1 1 1
          1 1 1 1 1 1 1 1 1 1 1 1
          1 1 1 1 1 1 1 1 1 1 1 1
          1 1 1 1 1 1 1 1 1 1 1 1
          1 1 1 1 1 1 1 1 1 1 1 1
          1 1 1 1 1 1 1 1 1 1 1 1
          1 1 1 1 1 1 1 1 1 1 1 1
          1 1 1 1 1 1 1 1 1 1 1 1
          1 1 1 1 1 1 1 1 1 1 1 1
          1 1 1 1 1 1 1 1 1 1 1 1
          1 1 1 1 1 1 1 1 1 1 1 1
          1 1 1 1 1 1 1 1 1 1 1 1
          1 1 1 1 1 1 1 1 1 1 1 1
          1 1 1 1 1 1 1 1 1 1 1 1
          1 1 1 1 1 1 1 1 1 1 1 1
          1 1 1 1 1 1 1 1 1 1 1 1
          1 1 1 1 1 1 1 1 1 1 1 1
          1 1 1 1 1 1 1 1 1 1 1 1
          1 1 1 1 1 1 1 1 1 1 1 1
          1 1 1 1 1 1 1 1 1 1 1 1
          1 1 1 1 1 1 1 1 1 1 1 1
          1 1 1 1 1 1 1 1 1 1 1 1
          1 1 1 1 1 1 1 1 1 1 1 1
          1 1 1 1 1 1 1 1 1 1 1 1
          1 1 1 1 1 1 1 1 1 1 1 1
          1 1 1 1 1 1 1 1 1 1 1 1
          1 1 1 1 1 1 1 1 1 1 1 1
          1 1 1 1 1 1 1 1 1 1 1 1
          1 1 1 1 1 1 1 1 1 1 1 1
          1 1 1 1 1 1 1 1 1 1 1 1
          1 1 1 1 1 1 1 1 1 1 1 1
          1 1 1 1 1 1 1 1 1 1 1 1
          1 1 1 1 1 1 1 1 1 1 1 1
          1 1 1 1 1 1 1 1 1 1 1 1
          1 1 1 1 1 1 1 1 1 1 1 1
          1 1 1 1 1 1 1 1 1 1 1 1
          1 1 1 1 1 1 1 1 1 1 1 1
          1 1 1 1 1 1 1 1 1 1 1 1
          1 1 1 1 1 1 1 1 1 1 1 1
          1 1 1 1 1 1 1 1 1 1 1 1
          1 1 1 1 1 1 1 1 1 1 1 1
          1 1 1 1 1 1 1 1 1 1 1 1
          1 1 1 1 1 1 1 1 1 1 1 1
          1 1 1 1 1 1 1 1 1 1 1 1
          1 1 1 1 1 1 1 1 1 1 1 1
          1 1 1 1 1 1 1 1 1 1 1 1
          1 1 1 1 1 1 1 1 1 1 1 1
          1 1 1 1 1 1 1 1 1 1 1 1
          1 1 1 1 1 1 1 1 1 1 1 1
          1 1 1 1 1 1 1 1 1 1 1 1
          1 1 1 1 1 1 1 1 1 1 1 1
          1 1 1 1 1 1 1 1 1 1 1 1
          1 1 1 1 1 1 1 1 1 1 1 1
          1 1 1 1 1 1 1 1 1 1 1 1
          1 1 1 1 1 1 1 1 1 1 1 1
          1 1 1 1 1 1 1 1 1 1 1 1
          1 1 1 1 1 1 1 1 1 1 1 1
          1 1 1 1 1 1 1 1 1 1 1 1
          1 1 1 1 1 1 1 1 1 1 1 1
          1 1 1 1 1 1 1 1 1 1 1 1
          1 1 1 1 1 1 1 1 1 1 1 1
          1 1 1 1 1 1 1 1 1 1 1 1
          1 1 1 1 1 1 1 1 1 1 1 1
          1 1 1 1 1 1 1 1 1 1 1 1
          1 1 1 1 1 1 1 1 1 1 1 1
          1 1 1 1 1 1 1 1 1 1 1 1
          1 1 1 1 1 1 1 1 1 1 1 1
          1 1 1 1 1 1 1 1 1 1 1 1
          1 1 1 1 1 1 1 1 1 1 1 1
          1 1 1 1 1 1 1 1 1 1 1 1
          1 1 1 1 1 1 1 1 1 1 1 1
          1 1 1 1 1 1 1 1 1 1 1 1
          1 1 1 1 1 1 1 1 1 1 1 1
          1 1 1 1 1 1 1 1 1 1 1 1
          1 1 1 1 1 1 1 1 1 1 1 1
          1 1 1 1 1 1 1 1 1 1 1 1
          1 1 1 1 1 1 1 1 1 1 1 1
          1 1 1 1 1 1 1 1 1 1 1 1
          1 1 1 1 1 1 1 1 1 1 1 1
          1 1 1 1 1 1 1 1 1 1 1 1
          1 1 1 1 1 1 1 1 1 1 1 1
          1 1 1 1 1 1 1 1 1 1 1 1
          1 1 1 1 1 1 1 1 1 1 1 1
          1 1 1 1 1 1 1 1 1 1 1 1
          1 1 1 1 1 1 1 1 1 1 1 1
          1 1 1 1 1 1 1 1 1 1 1 1
          1 1 1 1 1 1 1 1 1 1 1 1
          1 1 1 1 1 1 1 1 1 1 1 1
          1 1 1 1 1 1 1 1 1 1 1 1
          1 1 1 1 1 1 1 1 1 1 1 1
          1 1 1 1 1 1 1 1 1 1 1 1
          1 1 1 1 1 1 1 1 1 1 1 1
          1 1 1 1 1 1 1 1 1 1 1 1
          1 1 1 1 1 1 1 1 1 1 1 1
          1 1 1 1 1 1 1 1 1 1 1 1
          1 1 1 1 1 1 1 1 1 1 1 1
          1 1 1 1 1 1 1 1 1 1 1 1
          1 1 1 1 1 1 1 1 1 1 1 1
          1 1 1 1 1 1 1 1 1 1 1 1
          1 1 1 1 1 1 1 1 1 1 1 1
          1 1 1 1 1 1 1 1 1 1 1 1
          1 1 1 1 1 1 1 1 1 1 1 1
          1 1 1 1 1 1 1 1 1 1 1 1
          1 1 1 1 1 1 1 1 1 1 1 1
          1 1 1 1 1 1 1 1 1 1 1 1
          1 1 1 1 1 1 1 1 1 1 1 1
          1 1 1 1 1 1 1 1 1 1 1 1
          1 1 1 1 1 1 1 1 1 1 1 1
          1 1 1 1 1 1 1 1 1 1 1 1
          1 1 1 1 1 1 1 1 1 1 1 1
          1 1 1 1 1 1 1 1 1 1 1 1
          1 1 1 1 1 1 1 1 1 1 1 1
          1 1 1 1 1 1 1 1 1 1 1 1
          1 1 1 1 1 1 1 1 1 1 1 1
          1 1 1 1 1 1 1 1 1 1 1 1
          1 1 1 1 1 1 1 1 1 1 1 1
          1 1 1 1 1 1 1 1 1 1 1 1
          1 1 1 1 1 1 1 1 1 1 1 1
          1 1 1 1 1 1 1 1 1 1 1 1
          1 1 1 1 1 1 1 1 1 1 1 1
          1 1 1 1 1 1 1 1 1 1 1 1
          1 1 1 1 1 1 1 1 1 1 1 1
          1 1 1 1 1 1 1 1 1 1 1 1
          1 1 1 1 1 1 1 1 1 1 1 1
          1 1 1 1 1 1 1 1 1 1 1 1
          1 1 1 1 1 1 1 1 1 1 1 1
          1 1 1 1 1 1 1 1 1 1 1 1
          1 1 1 1 1 1 1 1 1 1 1 1
          1 1 1 1 1 1 1 1 1 1 1 1
          1 1 1 1 1 1 1 1 1 1 1 1
          1 1 1 1 1 1 1 1 1 1 1 1
          1 1
        </DataArray>
        <DataArray type="Float32" Name="p_liq" NumberOfComponents="1" format="ascii">
          4.35433e+07 4.33764e+07 4.3604e+07 4.35163e+07 4.32299e+07 4.32864e+07 4.37077e+07 4.36216e+07 4.31473e+07 4.30124e+07 4.33936e+07 4.2925e+07
          4.26669e+07 4.27068e+07 4.23871e+07 4.23642e+07 4.27502e+07 4.35249e+07 4.37537e+07 4.36699e+07 4.35364e+07 4.3772e+07 4.37001e+07 4.33345e+07
          4.30632e+07 4.23609e+07 4.27003e+07 4.23041e+07 4.19875e+07 4.19348e+07 4.15528e+07 4.14613e+07 4.10649e+07 4.09748e+07 4.05322e+07 4.05118e+07
          3.99492e+07 3.99833e+07 3.92541e+07 3.93024e+07 4.18842e+07 4.13065e+07 4.08188e+07 4.18419e+07 4.04936e+07 4.01036e+07 3.94376e+07 4.04371e+07
          4.07992e+07 3.99827e+07 4.35638e+07 4.37684e+07 4.37261e+07 4.32928e+07 4.29952e+07 4.36868e+07 4.26327e+07 4.22301e+07 4.37595e+07 4.3627e+07
          4.34551e+07 4.31941e+07 4.37328e+07 4.30855e+07 4.33561e+07 4.28883e+07 4.25482e+07 4.21661e+07 4.27685e+07 4.24652e+07 4.13553e+07 4.09825e+07
          4.1777e+07 4.04047e+07 4.07803e+07 3.90103e+07 3.95668e+07 4.12282e+07 4.17757e+07 4.1353e+07 4.04746e+07 4.00157e+07 4.08541e+07 3.91833e+07
          3.95811e+07 3.81535e+07 3.82961e+07 3.74807e+07 3.7569e+07 3.71312e+07 3.71186e+07 3.68003e+07 3.67312e+07 3.65109e+07 3.63793e+07 3.84487e+07
          3.75475e+07 3.7029e+07 3.66033e+07 3.68784e+07 3.73444e+07 3.64147e+07 3.58405e+07 3.60735e+07 3.58268e+07 3.62259e+07 3.54328e+07 3.56214e+07
          3.62027e+07 3.58601e+07 3.50809e+07 3.49041e+07 3.51754e+07 3.47321e+07 3.45826e+07 3.44046e+07 3.42525e+07 3.53748e+07 3.47774e+07 3.50085e+07
          3.44574e+07 3.41207e+07 3.56107e+07 3.5998e+07 3.5092e+07 3.47495e+07 3.52521e+07 3.43825e+07 3.81858e+07 3.71785e+07 3.78713e+07 3.67096e+07
          3.62089e+07 3.86657e+07 3.83629e+07 3.88313e+07 3.76003e+07 3.65986e+07 3.61138e+07 3.70748e+07 3.5764e+07 3.47456e+07 3.43114e+07 3.47001e+07
          3.51681e+07 3.42392e+07 3.56608e+07 3.51174e+07 3.55972e+07 3.46474e+07 3.41662e+07 4.35494e+07 4.37066e+07 4.34622e+07 4.34215e+07 4.32445e+07
          4.29747e+07 4.21183e+07 4.26525e+07 4.24448e+07 4.22068e+07 4.31943e+07 4.28742e+07 4.36243e+07 4.34343e+07 4.31614e+07 4.24391e+07 4.18747e+07
          4.20104e+07 4.17741e+07 4.13723e+07 4.10856e+07 4.10417e+07 4.06604e+07 4.02098e+07 4.00959e+07 3.95034e+07 4.14768e+07 4.10877e+07 4.06242e+07
          4.16036e+07 4.11753e+07 4.06409e+07 3.99887e+07 3.93934e+07 4.35389e+07 4.33863e+07 4.28494e+07 4.31151e+07 4.28162e+07 4.24907e+07 4.2113e+07
          4.25193e+07 4.21756e+07 4.18275e+07 4.17347e+07 4.34442e+07 4.3369e+07 4.32396e+07 4.27394e+07 4.28746e+07 4.3366e+07 4.30263e+07 4.25159e+07
          4.21652e+07 4.25717e+07 4.17935e+07 4.1313e+07 4.09105e+07 4.02809e+07 3.9729e+07 4.05743e+07 3.91629e+07 4.13969e+07 4.09906e+07 4.05205e+07
          4.13393e+07 4.08811e+07 4.03555e+07 4.0052e+07 3.94215e+07 3.86527e+07 3.89158e+07 3.82736e+07 3.8891e+07 3.75102e+07 3.6508e+07 3.60543e+07
          3.69415e+07 3.82179e+07 3.74286e+07 3.88324e+07 3.82105e+07 3.68902e+07 3.60165e+07 3.64385e+07 3.51049e+07 3.55565e+07 3.46295e+07 3.41691e+07
          3.55064e+07 3.59629e+07 3.50806e+07 3.45963e+07 3.41513e+07 3.87859e+07 3.74526e+07 3.83384e+07 3.75831e+07 3.67881e+07 3.6347e+07 3.69511e+07
          3.61378e+07 3.64884e+07 3.76915e+07 3.6672e+07 3.69525e+07 3.65727e+07 3.6292e+07 3.59442e+07 3.57753e+07 3.53528e+07 3.49456e+07 3.45061e+07
          3.40792e+07 3.55784e+07 3.51848e+07 3.47889e+07 3.44034e+07 3.39422e+07 3.46214e+07 3.43738e+07 3.40967e+07 3.40795e+07 3.39024e+07 3.36895e+07
          3.35367e+07 3.33028e+07 3.31202e+07 3.37664e+07 3.2755e+07 3.26473e+07 3.22136e+07 3.21597e+07 3.34353e+07 3.40297e+07 3.36939e+07 3.34688e+07
          3.30174e+07 3.32768e+07 3.25549e+07 3.20293e+07 3.18472e+07 3.17588e+07 3.14836e+07 3.1426e+07 3.11956e+07 3.11271e+07 3.0909e+07 3.07935e+07
          3.05363e+07 3.05008e+07 3.03149e+07 3.00962e+07 3.10932e+07 3.13581e+07 3.06378e+07 3.16031e+07 3.12843e+07 3.15695e+07 3.02459e+07 3.00185e+07
          3.08726e+07 3.39218e+07 3.35554e+07 3.38328e+07 3.343e+07 3.31115e+07 3.28017e+07 3.2535e+07 3.22482e+07 3.2554e+07 3.37401e+07 3.32628e+07
          3.29369e+07 3.18532e+07 3.21024e+07 3.28243e+07 3.25836e+07 3.11079e+07 3.04864e+07 3.06422e+07 3.14936e+07 3.17211e+07 3.09958e+07 3.12818e+07
          3.01855e+07 3.03693e+07 3.06319e+07 3.02952e+07 3.00366e+07 2.96859e+07 2.94934e+07 2.97982e+07 2.92787e+07 2.91226e+07 2.88892e+07 2.87537e+07
          2.85019e+07 2.83713e+07 2.81691e+07 2.86325e+07 2.93668e+07 2.96136e+07 2.97149e+07 2.93846e+07 2.90043e+07 2.90157e+07 2.86334e+07 2.82355e+07
          2.80464e+07 2.80893e+07 2.75939e+07 2.78507e+07 2.72842e+07 2.7557e+07 2.71159e+07 2.705e+07 2.66407e+07 2.67502e+07 2.6931e+07 2.78058e+07
          2.79488e+07 2.72882e+07 2.75409e+07 2.63658e+07 2.64708e+07 2.68478e+07 2.71343e+07 2.64688e+07 2.98667e+07 2.9441e+07 2.90606e+07 2.86501e+07
          2.81894e+07 2.97728e+07 2.94538e+07 2.91015e+07 2.98932e+07 2.97257e+07 2.95001e+07 2.91544e+07 2.86914e+07 2.83182e+07 2.78055e+07 2.72672e+07
          2.75375e+07 2.68691e+07 2.64186e+07 2.78385e+07 2.80258e+07 2.72392e+07 2.75791e+07 2.6642e+07 2.69946e+07 2.62883e+07 3.37506e+07 3.33516e+07
          3.29518e+07 3.30387e+07 3.22324e+07 3.26797e+07 3.2376e+07 3.37412e+07 3.33852e+07 3.30944e+07 3.27567e+07 3.2513e+07 3.18674e+07 3.20336e+07
          3.27894e+07 3.24056e+07 3.13563e+07 3.09796e+07 3.14403e+07 3.05942e+07 3.01583e+07 3.10307e+07 3.15069e+07 3.10727e+07 3.06291e+07 3.02346e+07
          3.06568e+07 3.02793e+07 3.33907e+07 3.37022e+07 3.31768e+07 3.30449e+07 3.3303e+07 3.35972e+07 3.22538e+07 3.26125e+07 3.29077e+07 3.18826e+07
          3.31946e+07 3.34497e+07 3.35574e+07 3.31177e+07 3.27788e+07 3.21145e+07 3.24713e+07 3.17488e+07 3.14445e+07 3.10418e+07 2.99479e+07 2.98785e+07
          3.06441e+07 3.03002e+07 3.00496e+07 3.13469e+07 3.09667e+07 3.02211e+07 3.0577e+07 2.99004e+07 2.96419e+07 2.97972e+07 2.93767e+07 2.86959e+07
          2.83062e+07 2.8576e+07 2.8956e+07 2.81753e+07 2.94948e+07 2.91846e+07 2.91724e+07 2.95344e+07 2.88695e+07 2.84772e+07 2.80487e+07 2.79211e+07
          2.77589e+07 2.73401e+07 2.64488e+07 2.67572e+07 2.75995e+07 2.70594e+07 2.65713e+07 2.63179e+07 2.66385e+07 2.95891e+07 2.91634e+07 2.91426e+07
          2.87922e+07 2.83997e+07 2.79823e+07 2.9442e+07 2.97493e+07 2.91014e+07 2.87338e+07 2.83479e+07 2.87163e+07 2.79459e+07 2.75592e+07 2.7107e+07
          2.62713e+07 2.6693e+07 2.62903e+07 2.75478e+07 2.71485e+07 2.67358e+07 2.62937e+07 4.31261e+07 4.28132e+07 4.32514e+07 4.30898e+07 4.29513e+07
          4.26519e+07 4.23664e+07 4.21373e+07 4.17248e+07 4.19964e+07 4.28863e+07 4.31427e+07 4.30231e+07 4.27989e+07 4.30341e+07 4.29866e+07 4.24906e+07
          4.15831e+07 4.21792e+07 4.18533e+07 4.14625e+07 4.12462e+07 4.07328e+07 4.01795e+07 3.97928e+07 3.91291e+07 3.95486e+07 4.11211e+07 4.05936e+07
          4.10169e+07 4.0055e+07 3.8863e+07 3.94194e+07 3.87919e+07 4.28826e+07 4.29403e+07 4.27379e+07 4.25396e+07 4.22262e+07 4.19213e+07 4.17367e+07
          4.14282e+07 4.14918e+07 4.28536e+07 4.26503e+07 4.22489e+07 4.18784e+07 4.27877e+07 4.09787e+07 4.09256e+07 4.04902e+07 3.99713e+07 4.04991e+07
          3.93072e+07 3.87055e+07 4.00341e+07 4.04678e+07 4.00433e+07 3.9587e+07 3.88847e+07 3.85625e+07 3.92639e+07 3.83125e+07 3.73844e+07 3.67606e+07
          3.6418e+07 3.60927e+07 3.57479e+07 3.69829e+07 3.65309e+07 3.62416e+07 3.592e+07 3.789e+07 3.80933e+07 3.65965e+07 3.70549e+07 3.62774e+07
          3.61214e+07 3.58472e+07 3.59001e+07 3.53739e+07 3.49991e+07 3.55824e+07 3.51984e+07 3.48176e+07 3.43543e+07 3.37206e+07 3.38978e+07 3.54994e+07
          3.51156e+07 3.47468e+07 3.43582e+07 3.3971e+07 3.75538e+07 3.81158e+07 3.74382e+07 3.65751e+07 3.62833e+07 3.60621e+07 3.5773e+07 3.81191e+07
          3.74141e+07 3.82139e+07 3.66157e+07 3.61356e+07 3.57565e+07 3.61699e+07 3.54535e+07 3.50544e+07 3.46956e+07 3.53997e+07 3.43537e+07 3.40113e+07
          3.43134e+07 3.46207e+07 3.36153e+07 3.36174e+07 3.40683e+07 3.49966e+07 3.5385e+07 3.49144e+07 3.4462e+07 3.38849e+07 3.41778e+07 4.17351e+07
          4.20828e+07 4.17195e+07 4.15042e+07 4.14828e+07 4.08476e+07 4.14371e+07 4.12332e+07 4.11527e+07 4.07255e+07 4.03629e+07 4.01678e+07 3.95951e+07
          3.99736e+07 4.08083e+07 4.04731e+07 3.93761e+07 4.03131e+07 3.9926e+07 3.97341e+07 3.95766e+07 3.90756e+07 4.00806e+07 3.97246e+07 3.93367e+07
          3.81019e+07 3.73224e+07 3.77273e+07 3.69642e+07 3.88036e+07 3.82333e+07 3.90494e+07 3.87607e+07 3.76965e+07 3.74771e+07 3.81173e+07 3.86974e+07
          3.86618e+07 3.85467e+07 3.75064e+07 3.73011e+07 3.66813e+07 3.60692e+07 3.57596e+07 3.51131e+07 3.58424e+07 3.67711e+07 3.71213e+07 3.5816e+07
          3.58128e+07 3.57418e+07 3.83449e+07 3.80138e+07 3.74774e+07 3.66719e+07 3.58611e+07 3.69766e+07 3.66045e+07 3.63262e+07 3.54936e+07 3.50487e+07
          3.47609e+07 3.58821e+07 3.51114e+07 3.45546e+07 3.42669e+07 3.36112e+07 3.3451e+07 3.73578e+07 3.67175e+07 3.57618e+07 3.54311e+07 3.6109e+07
          3.5675e+07 3.69687e+07 3.6726e+07 3.67076e+07 3.63324e+07 3.61762e+07 3.53979e+07 3.55549e+07 3.44892e+07 3.4623e+07 3.52402e+07 3.41718e+07
          3.39371e+07 3.36346e+07 3.43287e+07 3.37215e+07 3.34048e+07 3.39602e+07 3.52329e+07 3.44281e+07 3.43623e+07 3.4059e+07 3.37607e+07 3.31796e+07
          3.29821e+07 3.27387e+07 3.59475e+07 3.51977e+07 3.4616e+07 3.45708e+07 3.36434e+07 3.36754e+07 3.41886e+07 3.35484e+07 3.35251e+07 3.32757e+07
          3.27287e+07 3.27109e+07 3.26606e+07 3.3336e+07 3.35139e+07 3.32334e+07 3.27051e+07 3.23798e+07 3.20827e+07 3.25004e+07 3.22465e+07 3.1555e+07
          3.18333e+07 3.12613e+07 3.18301e+07 3.14886e+07 3.12129e+07 3.0918e+07 3.06125e+07 3.33296e+07 3.29529e+07 3.27388e+07 3.26157e+07 3.23308e+07
          3.19591e+07 3.22717e+07 3.1811e+07 3.35223e+07 3.31686e+07 3.28592e+07 3.25719e+07 3.2216e+07 3.19612e+07 3.16316e+07 3.15792e+07 3.11981e+07
          3.08277e+07 3.14057e+07 3.10408e+07 3.04589e+07 3.00877e+07 3.06801e+07 3.12584e+07 3.09082e+07 3.05529e+07 3.03439e+07 2.99166e+07 3.03255e+07
          3.00793e+07 3.33221e+07 3.31846e+07 3.25073e+07 3.29135e+07 3.17583e+07 3.14981e+07 3.18528e+07 3.14786e+07 3.33067e+07 3.26503e+07 3.30484e+07
          3.19485e+07 3.1424e+07 3.11421e+07 3.07848e+07 3.03377e+07 2.95006e+07 2.97454e+07 2.9942e+07 3.11282e+07 3.07915e+07 3.11124e+07 3.08356e+07
          3.04056e+07 3.00183e+07 2.94598e+07 2.96785e+07 2.96599e+07 2.93547e+07 2.95673e+07 2.91047e+07 2.83416e+07 2.87364e+07 2.79357e+07 2.92657e+07
          2.88918e+07 2.83668e+07 2.7923e+07 2.85033e+07 2.75388e+07 2.71701e+07 2.68016e+07 2.64816e+07 2.62184e+07 2.60316e+07 2.75012e+07 2.71526e+07
          2.68186e+07 2.65863e+07 2.6421e+07 2.67131e+07 2.90893e+07 2.81435e+07 2.861e+07 2.82438e+07 2.93339e+07 2.89761e+07 2.8599e+07 2.793e+07
          2.79265e+07 2.82729e+07 2.79379e+07 2.77061e+07 2.73836e+07 2.70391e+07 2.72881e+07 2.69195e+07 2.61637e+07 2.59405e+07 2.6572e+07 2.76142e+07
          2.72654e+07 2.76047e+07 2.6891e+07 2.6522e+07 2.61441e+07 3.21845e+07 3.21137e+07 3.24727e+07 3.14607e+07 3.12611e+07 3.15993e+07 3.1325e+07
          3.18058e+07 3.11135e+07 3.05399e+07 3.10274e+07 3.08646e+07 3.07786e+07 3.00292e+07 2.96182e+07 3.08585e+07 3.00288e+07 2.98481e+07 2.94914e+07
          2.90502e+07 2.91502e+07 3.09325e+07 3.0791e+07 3.06505e+07 3.03442e+07 3.03887e+07 2.99728e+07 3.00268e+07 2.99564e+07 2.96609e+07 2.99264e+07
          2.93728e+07 2.92678e+07 2.88888e+07 2.88787e+07 2.85632e+07 2.92485e+07 2.88122e+07 2.83155e+07 2.83016e+07 2.81853e+07 2.80875e+07 2.92885e+07
          2.85352e+07 2.88321e+07 2.83122e+07 2.79287e+07 2.8849e+07 2.85143e+07 2.84185e+07 2.83246e+07 2.84015e+07 2.8532e+07 2.83225e+07 2.7806e+07
          2.81874e+07 2.75783e+07 2.69062e+07 2.72751e+07 2.76068e+07 2.65178e+07 2.60547e+07 2.62971e+07 2.5844e+07 2.58172e+07 2.58094e+07 2.73586e+07
          2.70074e+07 2.66638e+07 2.67402e+07 2.6431e+07 2.60871e+07 2.57468e+07 2.57531e+07 2.85943e+07 2.8278e+07 2.81323e+07 2.81697e+07 2.78499e+07
          2.79211e+07 2.76346e+07 2.70359e+07 2.74399e+07 2.70556e+07 2.79508e+07 2.7564e+07 2.77638e+07 2.72119e+07 2.75298e+07 2.71392e+07 2.68871e+07
          2.66179e+07 2.66714e+07 2.65504e+07 2.65081e+07 2.6229e+07 2.58963e+07 2.55835e+07 2.53264e+07 2.5316e+07 2.60671e+07 2.56713e+07 2.61998e+07
          2.53547e+07 2.50882e+07 2.62365e+07 2.5834e+07 2.60058e+07 2.55429e+07 2.56926e+07 2.54682e+07 2.5273e+07 2.47486e+07 2.49648e+07 2.47592e+07
          2.51038e+07 2.47325e+07 2.51162e+07 2.61126e+07 2.58059e+07 2.53627e+07 2.54155e+07 2.50868e+07 2.47244e+07 2.44157e+07 2.45221e+07 2.40474e+07
          2.41846e+07 2.36801e+07 2.38654e+07 2.43034e+07 2.3351e+07 2.31908e+07 2.34616e+07 2.30227e+07 2.29072e+07 2.36548e+07 2.2694e+07 2.30436e+07
          2.39459e+07 2.43358e+07 2.39699e+07 2.3341e+07 2.36374e+07 2.32922e+07 2.36269e+07 2.29679e+07 2.61378e+07 2.55005e+07 2.59089e+07 2.60641e+07
          2.57827e+07 2.50911e+07 2.47226e+07 2.56621e+07 2.53693e+07 2.59548e+07 2.50443e+07 2.47076e+07 2.43455e+07 2.39706e+07 2.36079e+07 2.32506e+07
          2.29082e+07 2.43597e+07 2.39794e+07 2.36048e+07 2.32323e+07 2.28707e+07 2.27309e+07 2.27449e+07 2.25408e+07 2.24677e+07 2.21743e+07 2.22479e+07
          2.23189e+07 2.19576e+07 2.2015e+07 2.18817e+07 2.15681e+07 2.16373e+07 2.12554e+07 2.13508e+07 2.16728e+07 2.13876e+07 2.10879e+07 2.11155e+07
          2.22707e+07 2.26274e+07 2.1942e+07 2.12989e+07 2.11076e+07 2.15906e+07 2.10458e+07 2.08367e+07 2.08397e+07 2.06243e+07 2.05747e+07 2.04123e+07
          2.02922e+07 2.08545e+07 2.05429e+07 2.01498e+07 2.00366e+07 1.99907e+07 1.95709e+07 1.98272e+07 1.92714e+07 1.95588e+07 2.09087e+07 2.05883e+07
          2.106e+07 2.02506e+07 1.98231e+07 1.99816e+07 1.93142e+07 1.95916e+07 2.25586e+07 2.21946e+07 2.18314e+07 2.1449e+07 2.12917e+07 2.16787e+07
          2.0944e+07 2.24909e+07 2.20987e+07 2.20306e+07 2.24502e+07 2.15111e+07 2.10953e+07 2.06515e+07 2.02574e+07 2.06914e+07 2.04788e+07 1.98714e+07
          1.96215e+07 1.93427e+07 2.07418e+07 2.02156e+07 1.99433e+07 1.96542e+07 1.93294e+07 2.58216e+07 2.61378e+07 2.55416e+07 2.52743e+07 2.50092e+07
          2.47197e+07 2.5172e+07 2.49996e+07 2.54105e+07 2.48176e+07 2.45653e+07 2.4406e+07 2.60197e+07 2.56921e+07 2.52364e+07 2.55289e+07 2.59308e+07
          2.50018e+07 2.47561e+07 2.4996e+07 2.40105e+07 2.35991e+07 2.32222e+07 2.28513e+07 2.42816e+07 2.44707e+07 2.38867e+07 2.35735e+07 2.41052e+07
          2.32321e+07 2.28716e+07 2.29185e+07 2.32658e+07 2.59207e+07 2.55704e+07 2.53247e+07 2.52147e+07 2.47768e+07 2.49891e+07 2.44416e+07 2.46612e+07
          2.51889e+07 2.54944e+07 2.58911e+07 2.47655e+07 2.49262e+07 2.44944e+07 2.51198e+07 2.46309e+07 2.41475e+07 2.38702e+07 2.35758e+07 2.41688e+07
          2.33018e+07 2.35884e+07 2.26338e+07 2.29779e+07 2.25486e+07 2.38748e+07 2.42113e+07 2.38778e+07 2.36008e+07 2.30573e+07 2.33545e+07 2.27359e+07
          2.24845e+07 2.20915e+07 2.16892e+07 2.08826e+07 2.12111e+07 2.21618e+07 2.17679e+07 2.14445e+07 2.14333e+07 2.10775e+07 2.05117e+07 2.02338e+07
          1.99291e+07 1.90728e+07 1.93586e+07 1.96038e+07 2.07121e+07 1.9796e+07 1.93316e+07 1.91132e+07 1.94581e+07 2.22576e+07 2.18735e+07 2.14987e+07
          2.11056e+07 2.23622e+07 2.1986e+07 2.15833e+07 2.20707e+07 2.16674e+07 2.11755e+07 2.07745e+07 2.0721e+07 2.12769e+07 2.08737e+07 2.02922e+07
          1.98944e+07 1.9168e+07 1.91518e+07 1.95221e+07 1.91998e+07 2.03585e+07 1.9968e+07 2.04801e+07 1.95326e+07 1.91771e+07 1.909e+07 1.90343e+07
          1.86114e+07 1.87419e+07 1.8935e+07 1.82819e+07 1.84006e+07 1.79532e+07 1.8078e+07 1.77575e+07 1.78173e+07 1.81509e+07 1.78581e+07 1.85006e+07
          1.91855e+07 1.88998e+07 1.85221e+07 1.81783e+07 1.78743e+07 1.75908e+07 1.76008e+07 1.7562e+07 1.75755e+07 1.73367e+07 1.73359e+07 1.71116e+07
          1.70911e+07 1.67892e+07 1.6812e+07 1.73402e+07 1.70938e+07 1.68335e+07 1.64672e+07 1.65341e+07 1.61759e+07 1.6246e+07 1.58847e+07 1.59796e+07
          1.6581e+07 1.62943e+07 1.60367e+07 1.73418e+07 1.70874e+07 1.6825e+07 1.62686e+07 1.59982e+07 1.65622e+07 1.89632e+07 1.85096e+07 1.786e+07
          1.75949e+07 1.81624e+07 1.78006e+07 1.75724e+07 1.87439e+07 1.83997e+07 1.80726e+07 1.76973e+07 1.75494e+07 1.79318e+07 1.73387e+07 1.70793e+07