<?xml version="1.0"?>
<VTKFile type="UnstructuredGrid" version="0.1" byte_order="LittleEndian">
  <UnstructuredGrid>
    <Piece NumberOfCells="160" NumberOfPoints="205">
      <CellData Scalars="S_aq">
        <DataArray type="Float32" Name="S_aq" NumberOfComponents="1" format="ascii">
          0.97 0.97 0.97 0.97 0.969999 0.969999 0.969999 0.969999 0.969999 0.969999 0.969999 0.969999
          0.969999 0.969999 0.97 0.97 0.97 0.97 0.97 0.97 0.97 0.97 0.97 0.97
          0.97 0.97 0.97 0.97 0.97 0.97 0.97 0.97 0.97 0.97 0.97 0.97
          0.97 0.97 0.97 0.97 0.97 0.969999 0.969998 0.969998 0.969997 0.969997 0.969997 0.969997
          0.969997 0.969997 0.969997 0.969997 0.969997 0.969997 0.969997 0.969998 0.969998 0.969998 0.969998 0.969998
          0.969998 0.969998 0.969998 0.969998 0.969998 0.969999 0.969999 0.969999 0.969999 0.969999 0.969999 0.969999
          0.969999 0.969999 0.969999 0.97 0.97 0.97 0.97 0.97 0.120239 0.120064 0.12 0.12
          0.121281 0.121068 0.12 0.12 0.12 0.12 0.12 0.12 0.12 0.12 0.12 0.12
          0.12 0.12 0.12 0.12 0.12 0.12 0.12 0.12 0.12 0.12 0.12 0.12
          0.12 0.12 0.12 0.12 0.12 0.12 0.12 0.12 0.12 0.12 0.12 0.12
          0.12 0.12 0.12 0.12 0.120001 0.120001 0.12 0.12 0.12 0.12 0.12 0.12
          0.12 0.12 0.12 0.12 0.12 0.12 0.12 0.12 0.12 0.12 0.12 0.12
          0.12 0.12 0.12 0.12 0.12 0.12 0.12 0.12 0.12 0.12 0.12 0.12
          0.12 0.12 0.12 0.12
        </DataArray>
        <DataArray type="Float32" Name="p_aq" NumberOfComponents="1" format="ascii">
          135795 135682 135569 135456 135344 135262 135209 135156 135103 135050 134997 134944
          134890 134837 134783 134730 134676 134622 134568 134514 134460 134406 134352 134298
          134244 134189 134135 134081 134026 133972 133917 133863 133808 133754 133699 133645
          133590 133535 133481 133426 111276 111164 111051 110938 110824 110743 110691 110638
          110585 110532 110479 110425 110372 110319 110265 110211 110158 110104 110050 109996
          109942 109888 109834 109780 109725 109671 109617 109563 109508 109454 109399 109345
          109290 109236 109181 109126 109072 109017 108962 108908 87723.5 87667 87649.3 87654.1
          86303.4 86222.6 87660.9 87660.3 87659.8 87659.2 87658.6 87658 87657.4 87656.8 87656.2 87655.6
          87654.9 87654.2 87653.6 87652.9 87652.2 87651.5 87650.8 87650 87649.3 87648.6 87647.8 87647.1
          87646.3 87645.6 87644.8 87644 87643.3 87642.5 87641.7 87641 87640.2 87639.4 87638.6 87637.3
          87610.3 87614.5 87619.2 87624.1 83560.6 83562.5 87630.9 87630.2 87629.7 87629.2 87628.6 87628
          87627.4 87626.8 87626.2 87625.5 87624.9 87624.2 87623.5 87622.8 87622.1 87621.4 87620.7 87620
          87619.3 87618.5 87617.8 87617.1 87616.3 87615.5 87614.8 87614 87613.2 87612.5 87611.7 87610.9
          87610.1 87609.4 87608.6 87608.4
        </DataArray>
        <DataArray type="Float32" Name="rho_aq" NumberOfComponents="1" format="ascii">
          999.733 999.733 999.733 999.733 999.733 999.733 999.733 999.733 999.733 999.733 999.733 999.733
          999.733 999.733 999.733 999.733 999.733 999.733 999.733 999.733 999.733 999.733 999.733 999.733
          999.732 999.732 999.732 999.732 999.732 999.732 999.732 999.732 999.732 999.732 999.732 999.732
          999.732 999.732 999.732 999.732 999.719 999.719 999.719 999.719 999.719 999.719 999.719 999.719
          999.719 999.719 999.719 999.718 999.718 999.718 999.718 999.718 999.718 999.718 999.718 999.718
          999.718 999.718 999.718 999.718 999.718 999.718 999.718 999.718 999.718 999.718 999.718 999.718
          999.718 999.718 999.718 999.718 999.718 999.718 999.718 999.718 999.706 999.706 999.707 999.717
          999.725 999.725 999.716 999.707 999.706 999.706 999.706 999.706 999.706 999.706 999.706 999.706
          999.706 999.706 999.706 999.706 999.706 999.706 999.706 999.706 999.706 999.706 999.706 999.706
          999.706 999.706 999.706 999.706 999.706 999.706 999.706 999.706 999.706 999.706 999.706 999.706
          999.706 999.706 999.708 999.726 999.724 999.724 999.726 999.707 999.706 999.706 999.706 999.706
          999.706 999.706 999.706 999.706 999.706 999.706 999.706 999.706 999.706 999.706 999.706 999.706
          999.706 999.706 999.706 999.706 999.706 999.706 999.706 999.706 999.706 999.706 999.706 999.706
          999.706 999.706 999.706 999.706
        </DataArray>
        <DataArray type="Float32" Name="x^H2O_aq" NumberOfComponents="1" format="ascii">
          0.999975 0.999975 0.999975 0.999975 0.999975 0.999975 0.999975 0.999975 0.999975 0.999975 0.999975 0.999975
          0.999975 0.999975 0.999975 0.999975 0.999975 0.999975 0.999975 0.999975 0.999975 0.999975 0.999975 0.999975
          0.999975 0.999975 0.999975 0.999975 0.999975 0.999975 0.999975 0.999975 0.999975 0.999975 0.999975 0.999975
          0.999975 0.999975 0.999975 0.999976 0.99998 0.99998 0.99998 0.99998 0.99998 0.99998 0.99998 0.99998
          0.99998 0.99998 0.99998 0.99998 0.99998 0.99998 0.99998 0.99998 0.99998 0.99998 0.99998 0.99998
          0.99998 0.99998 0.99998 0.99998 0.99998 0.99998 0.99998 0.99998 0.99998 0.99998 0.99998 0.99998
          0.99998 0.99998 0.99998 0.99998 0.99998 0.99998 0.99998 0.99998 0.999982 0.999982 0.999982 0.99998
          0.999978 0.999978 0.99998 0.999982 0.999982 0.999982 0.999982 0.999982 0.999982 0.999982 0.999982 0.999982
          0.999982 0.999982 0.999982 0.999982 0.999982 0.999982 0.999982 0.999982 0.999982 0.999982 0.999982 0.999982
          0.999982 0.999982 0.999982 0.999982 0.999982 0.999982 0.999982 0.999982 0.999982 0.999982 0.999982 0.999982
          0.999982 0.999982 0.999982 0.999978 0.999978 0.999978 0.999978 0.999982 0.999982 0.999982 0.999982 0.999982
          0.999982 0.999982 0.999982 0.999982 0.999982 0.999982 0.999982 0.999982 0.999982 0.999982 0.999982 0.999982
          0.999982 0.999982 0.999982 0.999982 0.999982 0.999982 0.999982 0.999982 0.999982 0.999982 0.999982 0.999982
          0.999982 0.999982 0.999982 0.999982
        </DataArray>
        <DataArray type="Float32" Name="x^mesitylene_aq" NumberOfComponents="1" format="ascii">
          4.13449e-09 4.13262e-09 4.13074e-09 4.12887e-09 4.12723e-09 4.12553e-09 4.12328e-09 4.12142e-09 4.11957e-09 4.11772e-09 4.11587e-09 4.11402e-09
          4.11217e-09 4.11032e-09 4.10847e-09 4.10662e-09 4.10477e-09 4.10292e-09 4.10107e-09 4.09922e-09 4.09737e-09 4.09552e-09 4.09367e-09 4.09182e-09
          4.08997e-09 4.08812e-09 4.08627e-09 4.08442e-09 4.08256e-09 4.08071e-09 4.07886e-09 4.07701e-09 4.07516e-09 4.07331e-09 4.07146e-09 4.06961e-09
          4.06776e-09 4.06591e-09 4.06406e-09 4.06221e-09 3.39368e-09 3.39146e-09 3.39029e-09 3.39786e-09 9.12011e-09 1.3337e-08 3.40163e-09 3.38059e-09
          3.37838e-09 3.37652e-09 3.37467e-09 3.37282e-09 3.37097e-09 3.36912e-09 3.36727e-09 3.36542e-09 3.36357e-09 3.36172e-09 3.35987e-09 3.35802e-09
          3.35616e-09 3.35431e-09 3.35246e-09 3.35061e-09 3.34876e-09 3.34691e-09 3.34506e-09 3.34321e-09 3.34136e-09 3.33951e-09 3.33766e-09 3.33581e-09
          3.33396e-09 3.3321e-09 3.33025e-09 3.3284e-09 3.32655e-09 3.3247e-09 3.32286e-09 3.3214e-09 3.55064e-09 1.33468e-08 1.69641e-07 1.87317e-06
          3.40605e-06 3.40605e-06 1.78397e-06 7.68654e-08 5.12228e-09 3.07446e-09 3.02529e-09 3.02421e-09 3.02417e-09 3.02416e-09 3.02415e-09 3.02413e-09
          3.02412e-09 3.02411e-09 3.02409e-09 3.02408e-09 3.02407e-09 3.02405e-09 3.02404e-09 3.02402e-09 3.02401e-09 3.02399e-09 3.02398e-09 3.02397e-09
          3.02395e-09 3.02393e-09 3.02392e-09 3.0239e-09 3.02389e-09 3.02387e-09 3.02386e-09 3.02384e-09 3.02383e-09 3.02381e-09 3.0238e-09 3.02378e-09
          3.53351e-09 1.57594e-08 2.38772e-07 3.40605e-06 3.40605e-06 3.40605e-06 3.40605e-06 1.09007e-07 5.63298e-09 3.08077e-09 3.02452e-09 3.02334e-09
          3.02331e-09 3.0233e-09 3.02328e-09 3.02327e-09 3.02326e-09 3.02324e-09 3.02323e-09 3.02322e-09 3.0232e-09 3.02319e-09 3.02317e-09 3.02316e-09
          3.02315e-09 3.02313e-09 3.02312e-09 3.0231e-09 3.02309e-09 3.02307e-09 3.02306e-09 3.02304e-09 3.02303e-09 3.02301e-09 3.02299e-09 3.02298e-09
          3.02296e-09 3.02295e-09 3.02293e-09 3.02293e-09
        </DataArray>
        <DataArray type="Float32" Name="x^Air_aq" NumberOfComponents="1" format="ascii">
          2.49523e-05 2.49315e-05 2.49107e-05 2.48899e-05 2.48692e-05 2.48542e-05 2.48444e-05 2.48346e-05 2.48249e-05 2.48151e-05 2.48053e-05 2.47955e-05
          2.47857e-05 2.47758e-05 2.4766e-05 2.47561e-05 2.47462e-05 2.47363e-05 2.47264e-05 2.47164e-05 2.47065e-05 2.46965e-05 2.46866e-05 2.46766e-05
          2.46666e-05 2.46566e-05 2.46466e-05 2.46366e-05 2.46266e-05 2.46165e-05 2.46065e-05 2.45965e-05 2.45864e-05 2.45764e-05 2.45663e-05 2.45563e-05
          2.45462e-05 2.45362e-05 2.45261e-05 2.45161e-05 2.04372e-05 2.04164e-05 2.03956e-05 2.03748e-05 2.03539e-05 2.03389e-05 2.03293e-05 2.03196e-05
          2.03098e-05 2.03001e-05 2.02903e-05 2.02805e-05 2.02706e-05 2.02608e-05 2.02509e-05 2.0241e-05 2.02311e-05 2.02212e-05 2.02113e-05 2.02014e-05
          2.01914e-05 2.01815e-05 2.01715e-05 2.01616e-05 2.01516e-05 2.01416e-05 2.01316e-05 2.01216e-05 2.01115e-05 2.01015e-05 2.00915e-05 2.00814e-05
          2.00714e-05 2.00613e-05 2.00513e-05 2.00412e-05 2.00312e-05 2.00211e-05 2.00111e-05 2.0001e-05 1.81919e-05 1.81928e-05 1.81928e-05 1.81833e-05
          1.81749e-05 1.81753e-05 1.81851e-05 1.81954e-05 1.81957e-05 1.81956e-05 1.81955e-05 1.81954e-05 1.81953e-05 1.81952e-05 1.8195e-05 1.81949e-05
          1.81948e-05 1.81947e-05 1.81946e-05 1.81944e-05 1.81943e-05 1.81942e-05 1.8194e-05 1.81939e-05 1.81938e-05 1.81936e-05 1.81935e-05 1.81934e-05
          1.81932e-05 1.81931e-05 1.8193e-05 1.81928e-05 1.81927e-05 1.81925e-05 1.81924e-05 1.81922e-05 1.81921e-05 1.8192e-05 1.81918e-05 1.81916e-05
          1.81866e-05 1.81873e-05 1.81868e-05 1.81684e-05 1.81693e-05 1.81697e-05 1.81696e-05 1.81896e-05 1.81902e-05 1.81901e-05 1.819e-05 1.81899e-05
          1.81897e-05 1.81896e-05 1.81895e-05 1.81894e-05 1.81893e-05 1.81892e-05 1.8189e-05 1.81889e-05 1.81888e-05 1.81886e-05 1.81885e-05 1.81884e-05
          1.81882e-05 1.81881e-05 1.8188e-05 1.81878e-05 1.81877e-05 1.81876e-05 1.81874e-05 1.81873e-05 1.81871e-05 1.8187e-05 1.81869e-05 1.81867e-05
          1.81866e-05 1.81864e-05 1.81863e-05 1.81862e-05
        </DataArray>
        <DataArray type="Float32" Name="S_napl" NumberOfComponents="1" format="ascii">
          0 0 0 0 0 0 0 0 0 0 0 0
          0 0 0 0 0 0 0 0 0 0 0 0
          0 0 0 0 0 0 0 0 0 0 0 0
          0 0 0 0 0 0 0 0 0 0 0 0
          0 0 0 0 0 0 0 0 0 0 0 0
          0 0 0 0 0 0 0 0 0 0 0 0
          0 0 0 0 0 0 0 0 0 0 0 0
          0.0175976 0.0176171 0 0 0 0 0 0 0 0 0 0
          0 0 0 0 0 0 0 0 0 0 0 0
          0 0 0 0 0 0 0 0 0 0 0 0
          0 0 0 0.000184472 0.10017 0.10015 0.000183997 0 0 0 0 0
          0 0 0 0 0 0 0 0 0 0 0 0
          0 0 0 0 0 0 0 0 0 0 0 0
          0 0 0 0
        </DataArray>
        <DataArray type="Float32" Name="p_napl" NumberOfComponents="1" format="ascii">
          135795 135682 135569 135456 135344 135262 135209 135156 135103 135050 134997 134944
          134890 134837 134783 134730 134676 134622 134568 134514 134460 134406 134352 134298
          134244 134189 134135 134081 134026 133972 133917 133863 133808 133754 133699 133645
          133590 133535 133481 133426 111276 111164 111051 110938 110824 110743 110691 110638
          110585 110532 110479 110425 110372 110319 110265 110211 110158 110104 110050 109996
          109942 109888 109834 109780 109725 109671 109617 109563 109508 109454 109399 109345
          109290 109236 109181 109126 109072 109017 108962 108908 87723.5 87667 87649.3 87654.1
          89301.7 89243 87660.9 87660.3 87659.8 87659.2 87658.6 87658 87657.4 87656.8 87656.2 87655.6
          87654.9 87654.2 87653.6 87652.9 87652.2 87651.5 87650.8 87650 87649.3 87648.6 87647.8 87647.1
          87646.3 87645.6 87644.8 87644 87643.3 87642.5 87641.7 87641 87640.2 87639.4 87638.6 87637.3
          87610.3 87614.5 87619.2 87624.1 95937.9 95939.9 87630.9 87630.2 87629.7 87629.2 87628.6 87628
          87627.4 87626.8 87626.2 87625.5 87624.9 87624.2 87623.5 87622.8 87622.1 87621.4 87620.7 87620
          87619.3 87618.5 87617.8 87617.1 87616.3 87615.5 87614.8 87614 87613.2 87612.5 87611.7 87610.9
          87610.1 87609.4 87608.6 87608.4
        </DataArray>
        <DataArray type="Float32" Name="rho_napl" NumberOfComponents="1" format="ascii">
          878.771 878.771 878.771 878.771 878.771 878.771 878.771 878.771 878.771 878.771 878.771 878.771
          878.771 878.771 878.771 878.771 878.771 878.771 878.771 878.771 878.771 878.771 878.771 878.771
          878.771 878.771 878.771 878.771 878.771 878.771 878.771 878.771 878.771 878.771 878.771 878.771
          878.771 878.771 878.771 878.771 878.771 878.771 878.771 878.771 878.771 878.771 878.771 878.771
          878.771 878.771 878.771 878.771 878.771 878.771 878.771 878.771 878.771 878.771 878.771 878.771
          878.771 878.771 878.771 878.771 878.771 878.771 878.771 878.771 878.771 878.771 878.771 878.771
          878.771 878.771 878.771 878.771 878.771 878.771 878.771 878.771 878.771 878.771 878.771 878.771
          878.771 878.771 878.771 878.771 878.771 878.771 878.771 878.771 878.771 878.771 878.771 878.771
          878.771 878.771 878.771 878.771 878.771 878.771 878.771 878.771 878.771 878.771 878.771 878.771
          878.771 878.771 878.771 878.771 878.771 878.771 878.771 878.771 878.771 878.771 878.771 878.771
          878.771 878.771 878.771 878.771 878.771 878.771 878.771 878.771 878.771 878.771 878.771 878.771
          878.771 878.771 878.771 878.771 878.771 878.771 878.771 878.771 878.771 878.771 878.771 878.771
          878.771 878.771 878.771 878.771 878.771 878.771 878.771 878.771 878.771 878.771 878.771 878.771
          878.771 878.771 878.771 878.771
        </DataArray>
        <DataArray type="Float32" Name="x^H2O_napl" NumberOfComponents="1" format="ascii">
          1e-10 1e-10 1e-10 1e-10 1e-10 1e-10 1e-10 1e-10 1e-10 1e-10 1e-10 1e-10
          1e-10 1e-10 1e-10 1e-10 1e-10 1e-10 1e-10 1e-10 1e-10 1e-10 1e-10 1e-10
          1e-10 1e-10 1e-10 1e-10 1e-10 1e-10 1e-10 1e-10 1e-10 1e-10 1e-10 1e-10
          1e-10 1e-10 1e-10 1e-10 1e-10 1e-10 1e-10 1e-10 1e-10 1e-10 1e-10 1e-10
          1e-10 1e-10 1e-10 1e-10 1e-10 1e-10 1e-10 1e-10 1e-10 1e-10 1e-10 1e-10
          1e-10 1e-10 1e-10 1e-10 1e-10 1e-10 1e-10 1e-10 1e-10 1e-10 1e-10 1e-10
          1e-10 1e-10 1e-10 1e-10 1e-10 1e-10 1e-10 1e-10 1e-10 1e-10 1e-10 1e-10
          1e-10 1e-10 1e-10 1e-10 1e-10 1e-10 1e-10 1e-10 1e-10 1e-10 1e-10 1e-10
          1e-10 1e-10 1e-10 1e-10 1e-10 1e-10 1e-10 1e-10 1e-10 1e-10 1e-10 1e-10
          1e-10 1e-10 1e-10 1e-10 1e-10 1e-10 1e-10 1e-10 1e-10 1e-10 1e-10 1e-10
          1e-10 1e-10 1e-10 1e-10 1e-10 1e-10 1e-10 1e-10 1e-10 1e-10 1e-10 1e-10
          1e-10 1e-10 1e-10 1e-10 1e-10 1e-10 1e-10 1e-10 1e-10 1e-10 1e-10 1e-10
          1e-10 1e-10 1e-10 1e-10 1e-10 1e-10 1e-10 1e-10 1e-10 1e-10 1e-10 1e-10
          1e-10 1e-10 1e-10 1e-10
        </DataArray>
        <DataArray type="Float32" Name="x^mesitylene_napl" NumberOfComponents="1" format="ascii">
          0.00121386 0.00121332 0.00121276 0.00121221 0.00121173 0.00121124 0.00121057 0.00121003 0.00120949 0.00120894 0.0012084 0.00120786
          0.00120731 0.00120677 0.00120623 0.00120568 0.00120514 0.0012046 0.00120405 0.00120351 0.00120297 0.00120242 0.00120188 0.00120134
          0.00120079 0.00120025 0.00119971 0.00119916 0.00119862 0.00119808 0.00119753 0.00119699 0.00119645 0.0011959 0.00119536 0.00119482
          0.00119427 0.00119373 0.00119319 0.00119264 0.000996368 0.000995716 0.000995372 0.000997593 0.00267762 0.00391568 0.000998701 0.000992523
          0.000991875 0.000991329 0.000990786 0.000990243 0.000989699 0.000989156 0.000988613 0.00098807 0.000987526 0.000986983 0.00098644 0.000985896
          0.000985353 0.00098481 0.000984267 0.000983723 0.00098318 0.000982636 0.000982093 0.000981549 0.000981006 0.000980463 0.000979919 0.000979376
          0.000978833 0.000978289 0.000977746 0.000977202 0.000976659 0.000976116 0.000975574 0.000975148 0.00104245 0.00391857 0.0498057 0.549953
          1 1 0.523765 0.0225673 0.00150388 0.000902645 0.00088821 0.000887892 0.000887882 0.000887878 0.000887874 0.000887871
          0.000887867 0.000887863 0.000887859 0.000887855 0.000887851 0.000887847 0.000887842 0.000887838 0.000887834 0.00088783 0.000887825 0.000887821
          0.000887816 0.000887812 0.000887808 0.000887803 0.000887799 0.000887794 0.00088779 0.000887785 0.00088778 0.000887776 0.000887772 0.000887768
          0.00103742 0.00462687 0.0701022 1 1 1 1 0.0320039 0.00165381 0.0009045 0.000887984 0.000887639
          0.000887628 0.000887624 0.000887621 0.000887617 0.000887613 0.000887609 0.000887605 0.000887601 0.000887597 0.000887593 0.000887589 0.000887585
          0.00088758 0.000887576 0.000887572 0.000887567 0.000887563 0.000887559 0.000887554 0.00088755 0.000887545 0.000887541 0.000887536 0.000887531
          0.000887527 0.000887522 0.000887518 0.000887517
        </DataArray>
        <DataArray type="Float32" Name="x^Air_napl" NumberOfComponents="1" format="ascii">
          1e-10 1e-10 1e-10 1e-10 1e-10 1e-10 1e-10 1e-10 1e-10 1e-10 1e-10 1e-10
          1e-10 1e-10 1e-10 1e-10 1e-10 1e-10 1e-10 1e-10 1e-10 1e-10 1e-10 1e-10
          1e-10 1e-10 1e-10 1e-10 1e-10 1e-10 1e-10 1e-10 1e-10 1e-10 1e-10 1e-10
          1e-10 1e-10 1e-10 1e-10 1e-10 1e-10 1e-10 1e-10 1e-10 1e-10 1e-10 1e-10
          1e-10 1e-10 1e-10 1e-10 1e-10 1e-10 1e-10 1e-10 1e-10 1e-10 1e-10 1e-10
          1e-10 1e-10 1e-10 1e-10 1e-10 1e-10 1e-10 1e-10 1e-10 1e-10 1e-10 1e-10
          1e-10 1e-10 1e-10 1e-10 1e-10 1e-10 1e-10 1e-10 1e-10 1e-10 1e-10 1e-10
          1e-10 1e-10 1e-10 1e-10 1e-10 1e-10 1e-10 1e-10 1e-10 1e-10 1e-10 1e-10
          1e-10 1e-10 1e-10 1e-10 1e-10 1e-10 1e-10 1e-10 1e-10 1e-10 1e-10 1e-10
          1e-10 1e-10 1e-10 1e-10 1e-10 1e-10 1e-10 1e-10 1e-10 1e-10 1e-10 1e-10
          1e-10 1e-10 1e-10 1e-10 1e-10 1e-10 1e-10 1e-10 1e-10 1e-10 1e-10 1e-10
          1e-10 1e-10 1e-10 1e-10 1e-10 1e-10 1e-10 1e-10 1e-10 1e-10 1e-10 1e-10
          1e-10 1e-10 1e-10 1e-10 1e-10 1e-10 1e-10 1e-10 1e-10 1e-10 1e-10 1e-10
          1e-10 1e-10 1e-10 1e-10
        </DataArray>
        <DataArray type="Float32" Name="S_gas" NumberOfComponents="1" format="ascii">
          0.0300001 0.0300002 0.0300003 0.0300005 0.0300006 0.0300007 0.0300006 0.0300006 0.0300006 0.0300006 0.0300006 0.0300005
          0.0300005 0.0300005 0.0300005 0.0300005 0.0300004 0.0300004 0.0300004 0.0300004 0.0300004 0.0300003 0.0300003 0.0300003
          0.0300003 0.0300003 0.0300002 0.0300002 0.0300002 0.0300002 0.0300002 0.0300002 0.0300001 0.0300001 0.0300001 0.0300001
          0.0300001 0.03 0.03 0.03 0.0300003 0.030001 0.0300017 0.0300024 0.0300031 0.0300034 0.0300033 0.0300032
          0.0300031 0.030003 0.0300029 0.0300028 0.0300027 0.0300026 0.0300025 0.0300024 0.0300023 0.0300022 0.0300021 0.030002
          0.030002 0.0300019 0.0300018 0.0300017 0.0300016 0.0300015 0.0300014 0.0300013 0.0300012 0.0300011 0.030001 0.0300009
          0.0300008 0.0300007 0.0300006 0.0300005 0.0300004 0.0300003 0.0300002 0.0300001 0.879761 0.879936 0.88 0.88
          0.861121 0.861315 0.88 0.88 0.88 0.88 0.88 0.88 0.88 0.88 0.88 0.88
          0.88 0.88 0.88 0.88 0.88 0.88 0.88 0.88 0.88 0.88 0.88 0.88
          0.88 0.88 0.88 0.88 0.88 0.88 0.88 0.88 0.88 0.88 0.88 0.88
          0.88 0.88 0.88 0.879815 0.77983 0.779849 0.879816 0.88 0.88 0.88 0.88 0.88
          0.88 0.88 0.88 0.88 0.88 0.88 0.88 0.88 0.88 0.88 0.88 0.88
          0.88 0.88 0.88 0.88 0.88 0.88 0.88 0.88 0.88 0.88 0.88 0.88
          0.88 0.88 0.88 0.88
        </DataArray>
        <DataArray type="Float32" Name="p_gas" NumberOfComponents="1" format="ascii">
          136728 136615 136502 136389 136277 136195 136142 136089 136036 135983 135930 135876
          135823 135770 135716 135662 135609 135555 135501 135447 135393 135339 135285 135231
          135177 135122 135068 135014 134959 134905 134850 134796 134741 134687 134632 134578
          134523 134468 134414 134359 112209 112097 111984 111871 111757 111676 111624 111571
          111518 111465 111412 111358 111305 111251 111198 111144 111091 111037 110983 110929
          110875 110821 110767 110713 110658 110604 110550 110495 110441 110387 110332 110278
          110223 110168 110114 110059 110005 109950 109895 109841 100017 100022 100027 100032
          100037 100039 100038 100038 100037 100037 100036 100036 100035 100034 100034 100033
          100032 100032 100031 100030 100030 100029 100028 100028 100027 100026 100025 100025
          100024 100023 100022 100022 100021 100020 100019 100019 100018 100017 100016 100015
          99987.9 99992.1 99996.8 100001 100007 100009 100008 100008 100007 100007 100006 100006
          100005 100004 100004 100003 100002 100002 100001 100000 99999.7 99999 99998.3 99997.6
          99996.9 99996.1 99995.4 99994.6 99993.9 99993.1 99992.4 99991.6 99990.8 99990 99989.3 99988.5
          99987.7 99986.9 99986.2 99985.9
        </DataArray>
        <DataArray type="Float32" Name="rho_gas" NumberOfComponents="1" format="ascii">
          1.67622 1.67483 1.67344 1.67205 1.67067 1.66967 1.66901 1.66836 1.66771 1.66706 1.6664 1.66575
          1.66509 1.66443 1.66377 1.66311 1.66245 1.66179 1.66113 1.66047 1.6598 1.65914 1.65847 1.6578
          1.65714 1.65647 1.6558 1.65513 1.65446 1.65379 1.65312 1.65245 1.65178 1.65111 1.65044 1.64977
          1.6491 1.64842 1.64775 1.64708 1.37461 1.37322 1.37184 1.37045 1.36906 1.36806 1.36741 1.36676
          1.36611 1.36545 1.3648 1.36414 1.36349 1.36283 1.36217 1.36151 1.36085 1.36019 1.35952 1.35886
          1.3582 1.35753 1.35687 1.3562 1.35553 1.35487 1.3542 1.35353 1.35286 1.35219 1.35152 1.35085
          1.35018 1.34951 1.34883 1.34816 1.34749 1.34682 1.34615 1.34547 1.22463 1.22471 1.22496 1.2272
          1.22923 1.22925 1.22717 1.22498 1.22488 1.22487 1.22487 1.22486 1.22485 1.22485 1.22484 1.22483
          1.22482 1.22481 1.2248 1.2248 1.22479 1.22478 1.22477 1.22476 1.22475 1.22474 1.22473 1.22473
          1.22472 1.22471 1.2247 1.22469 1.22468 1.22467 1.22466 1.22465 1.22464 1.22463 1.22462 1.2246
          1.22427 1.22434 1.22468 1.22879 1.22886 1.22888 1.22888 1.22465 1.22451 1.2245 1.2245 1.22449
          1.22448 1.22448 1.22447 1.22446 1.22445 1.22444 1.22444 1.22443 1.22442 1.22441 1.2244 1.22439
          1.22438 1.22437 1.22436 1.22436 1.22435 1.22434 1.22433 1.22432 1.22431 1.2243 1.22429 1.22428
          1.22427 1.22426 1.22425 1.22425
        </DataArray>
        <DataArray type="Float32" Name="x^H2O_gas" NumberOfComponents="1" format="ascii">
          0.00898269 0.00899012 0.00899756 0.00900501 0.00901244 0.00901781 0.00902135 0.00902485 0.00902837 0.00903189 0.00903543 0.00903897
          0.00904252 0.00904609 0.00904965 0.00905323 0.00905682 0.00906041 0.00906401 0.00906762 0.00907124 0.00907486 0.00907849 0.00908213
          0.00908577 0.00908942 0.00909308 0.00909674 0.00910041 0.00910408 0.00910776 0.00911144 0.00911513 0.00911882 0.00912252 0.00912622
          0.00912993 0.00913364 0.00913735 0.00914106 0.0109455 0.0109565 0.0109675 0.0109786 0.0109898 0.0109977 0.0110029 0.0110081
          0.0110133 0.0110186 0.0110238 0.0110291 0.0110344 0.0110397 0.011045 0.0110504 0.0110557 0.0110611 0.0110664 0.0110718
          0.0110772 0.0110826 0.011088 0.0110934 0.0110989 0.0111043 0.0111098 0.0111152 0.0111207 0.0111262 0.0111317 0.0111372
          0.0111427 0.0111482 0.0111538 0.0111593 0.0111648 0.0111704 0.0111759 0.0111815 0.0122798 0.0122791 0.0122785 0.012278
          0.0122773 0.0122771 0.0122771 0.0122772 0.0122773 0.0122773 0.0122774 0.0122775 0.0122775 0.0122776 0.0122777 0.0122778
          0.0122779 0.0122779 0.012278 0.0122781 0.0122782 0.0122783 0.0122784 0.0122784 0.0122785 0.0122786 0.0122787 0.0122788
          0.0122789 0.012279 0.0122791 0.0122792 0.0122793 0.0122794 0.0122795 0.0122796 0.0122797 0.0122798 0.0122799 0.01228
          0.0122833 0.0122828 0.0122822 0.0122817 0.012281 0.0122808 0.0122808 0.0122809 0.0122809 0.012281 0.0122811 0.0122812
          0.0122812 0.0122813 0.0122814 0.0122815 0.0122815 0.0122816 0.0122817 0.0122818 0.0122819 0.012282 0.012282 0.0122821
          0.0122822 0.0122823 0.0122824 0.0122825 0.0122826 0.0122827 0.0122828 0.0122829 0.012283 0.0122831 0.0122832 0.0122833
          0.0122833 0.0122834 0.0122835 0.0122836
        </DataArray>
        <DataArray type="Float32" Name="x^mesitylene_gas" NumberOfComponents="1" format="ascii">
          1.00018e-06 1.00055e-06 1.00093e-06 1.0013e-06 1.00173e-06 1.00192e-06 1.00176e-06 1.0017e-06 1.00164e-06 1.00158e-06 1.00152e-06 1.00146e-06
          1.00141e-06 1.00135e-06 1.00129e-06 1.00124e-06 1.00118e-06 1.00113e-06 1.00108e-06 1.00102e-06 1.00097e-06 1.00092e-06 1.00087e-06 1.00081e-06
          1.00076e-06 1.00071e-06 1.00066e-06 1.00061e-06 1.00056e-06 1.00051e-06 1.00046e-06 1.00041e-06 1.00036e-06 1.00031e-06 1.00026e-06 1.00021e-06
          1.00017e-06 1.00012e-06 1.00007e-06 1.00002e-06 1.00036e-06 1.00071e-06 1.00137e-06 1.00462e-06 2.69922e-06 3.95013e-06 1.00796e-06 1.0022e-06
          1.00202e-06 1.00195e-06 1.00188e-06 1.00181e-06 1.00174e-06 1.00167e-06 1.0016e-06 1.00153e-06 1.00147e-06 1.0014e-06 1.00133e-06 1.00127e-06
          1.0012e-06 1.00114e-06 1.00108e-06 1.00101e-06 1.00095e-06 1.00089e-06 1.00083e-06 1.00077e-06 1.0007e-06 1.00064e-06 1.00058e-06 1.00052e-06
          1.00046e-06 1.0004e-06 1.00034e-06 1.00028e-06 1.00022e-06 1.00016e-06 1.0001e-06 1.00017e-06 1.17421e-06 4.41363e-06 5.60954e-05 0.000619374
          0.00112617 0.00112615 0.000589839 2.54144e-05 1.69361e-06 1.01653e-06 1.00028e-06 9.9993e-07 9.99925e-07 9.99927e-07 9.99929e-07 9.99931e-07
          9.99933e-07 9.99936e-07 9.99938e-07 9.9994e-07 9.99943e-07 9.99945e-07 9.99947e-07 9.9995e-07 9.99952e-07 9.99955e-07 9.99957e-07 9.9996e-07
          9.99962e-07 9.99965e-07 9.99968e-07 9.9997e-07 9.99973e-07 9.99975e-07 9.99978e-07 9.99981e-07 9.99983e-07 9.99986e-07 9.99989e-07 9.99998e-07
          1.16888e-06 5.21298e-06 7.89787e-05 0.00112657 0.00112651 0.00112649 0.00112649 3.60523e-05 1.86303e-06 1.01893e-06 1.00033e-06 9.99945e-07
          9.9994e-07 9.99941e-07 9.99944e-07 9.99946e-07 9.99948e-07 9.9995e-07 9.99953e-07 9.99955e-07 9.99957e-07 9.9996e-07 9.99962e-07 9.99965e-07
          9.99967e-07 9.9997e-07 9.99972e-07 9.99975e-07 9.99977e-07 9.9998e-07 9.99982e-07 9.99985e-07 9.99987e-07 9.9999e-07 9.99993e-07 9.99995e-07
          9.99998e-07 1e-06 1e-06 1.00001e-06
        </DataArray>
        <DataArray type="Float32" Name="x^Air_gas" NumberOfComponents="1" format="ascii">
          0.991016 0.991009 0.991001 0.990994 0.990987 0.990981 0.990978 0.990974 0.990971 0.990967 0.990964 0.99096
          0.990956 0.990953 0.990949 0.990946 0.990942 0.990939 0.990935 0.990931 0.990928 0.990924 0.99092 0.990917
          0.990913 0.99091 0.990906 0.990902 0.990899 0.990895 0.990891 0.990888 0.990884 0.99088 0.990876 0.990873
          0.990869 0.990865 0.990862 0.990858 0.989054 0.989043 0.989031 0.98902 0.989008 0.988998 0.988996 0.988991
          0.988986 0.98898 0.988975 0.98897 0.988965 0.988959 0.988954 0.988949 0.988943 0.988938 0.988933 0.988927
          0.988922 0.988916 0.988911 0.988906 0.9889 0.988895 0.988889 0.988884 0.988878 0.988873 0.988867 0.988862
          0.988856 0.988851 0.988845 0.98884 0.988834 0.988829 0.988823 0.988818 0.987719 0.987716 0.987665 0.987103
          0.986596 0.986597 0.987133 0.987697 0.987721 0.987722 0.987722 0.987722 0.987721 0.987721 0.987721 0.987721
          0.987721 0.987721 0.987721 0.987721 0.987721 0.987721 0.987721 0.987721 0.98772 0.98772 0.98772 0.98772
          0.98772 0.98772 0.98772 0.98772 0.98772 0.98772 0.98772 0.987719 0.987719 0.987719 0.987719 0.987719
          0.987715 0.987712 0.987639 0.986592 0.986592 0.986593 0.986593 0.987683 0.987717 0.987718 0.987718 0.987718
          0.987718 0.987718 0.987718 0.987718 0.987717 0.987717 0.987717 0.987717 0.987717 0.987717 0.987717 0.987717
          0.987717 0.987717 0.987717 0.987716 0.987716 0.987716 0.987716 0.987716 0.987716 0.987716 0.987716 0.987716
          0.987716 0.987716 0.987715 0.987715
        </DataArray>
        <DataArray type="Float32" Name="porosity" NumberOfComponents="1" format="ascii">
          0.4 0.4 0.4 0.4 0.4 0.4 0.4 0.4 0.4 0.4 0.4 0.4
          0.4 0.4 0.4 0.4 0.4 0.4 0.4 0.4 0.4 0.4 0.4 0.4
          0.4 0.4 0.4 0.4 0.4 0.4 0.4 0.4 0.4 0.4 0.4 0.4
          0.4 0.4 0.4 0.4 0.4 0.4 0.4 0.4 0.4 0.4 0.4 0.4
          0.4 0.4 0.4 0.4 0.4 0.4 0.4 0.4 0.4 0.4 0.4 0.4
          0.4 0.4 0.4 0.4 0.4 0.4 0.4 0.4 0.4 0.4 0.4 0.4
          0.4 0.4 0.4 0.4 0.4 0.4 0.4 0.4 0.4 0.4 0.4 0.4
          0.4 0.4 0.4 0.4 0.4 0.4 0.4 0.4 0.4 0.4 0.4 0.4
          0.4 0.4 0.4 0.4 0.4 0.4 0.4 0.4 0.4 0.4 0.4 0.4
          0.4 0.4 0.4 0.4 0.4 0.4 0.4 0.4 0.4 0.4 0.4 0.4
          0.4 0.4 0.4 0.4 0.4 0.4 0.4 0.4 0.4 0.4 0.4 0.4
          0.4 0.4 0.4 0.4 0.4 0.4 0.4 0.4 0.4 0.4 0.4 0.4
          0.4 0.4 0.4 0.4 0.4 0.4 0.4 0.4 0.4 0.4 0.4 0.4
          0.4 0.4 0.4 0.4
        </DataArray>
        <DataArray type="Float32" Name="phase presence" NumberOfComponents="1" format="ascii">
          6 6 6 6 6 6 6 6 6 6 6 6
          6 6 6 6 6 6 6 6 6 6 6 6
          6 6 6 6 6 6 6 6 6 6 6 6
          6 6 6 6 6 6 6 6 6 6 6 6
          6 6 6 6 6 6 6 6 6 6 6 6
          6 6 6 6 6 6 6 6 6 6 6 6
          6 6 6 6 6 6 6 6 6 6 6 6
          1 1 6 6 6 6 6 6 6 6 6 6
          6 6 6 6 6 6 6 6 6 6 6 6
          6 6 6 6 6 6 6 6 6 6 6 6
          6 6 6 1 1 1 1 6 6 6 6 6
          6 6 6 6 6 6 6 6 6 6 6 6
          6 6 6 6 6 6 6 6 6 6 6 6
          6 6 6 6
        </DataArray>