<?xml version="1.0"?>
<VTKFile type="UnstructuredGrid" version="0.1" byte_order="LittleEndian">
  <UnstructuredGrid>
    <Piece NumberOfCells="512" NumberOfPoints="729">
      <PointData Scalars="wallDistance">
        <DataArray type="Float32" Name="wallDistance" NumberOfComponents="1" format="ascii">
          0 0 0 0 0 0 0 0.125 0 0 0 0.125
          0 0 0 0.125 0 0 0 0.125 0 0 0 0.125
          0 0 0 0.125 0 0 0 0.125 0 0 0 0
          0 0 0 0.125 0 0.125 0 0.125 0 0.125 0 0.125
          0 0.125 0 0.125 0 0 0 0 0 0.125 0 0.125
          0 0.125 0 0.125 0 0.125 0 0.125 0 0.125 0 0
          0 0 0 0.125 0 0.125 0 0.125 0 0.125 0 0.125
          0 0.125 0 0.125 0 0 0 0 0 0.125 0 0.125
          0 0.125 0 0.125 0 0.125 0 0.125 0 0.125 0 0
          0 0 0 0.125 0 0.125 0 0.125 0 0.125 0 0.125
          0 0.125 0 0.125 0 0 0 0 0 0.125 0 0.125
          0 0.125 0 0.125 0 0.125 0 0.125 0 0.125 0 0
          0 0 0 0 0 0 0 0 0 0 0 0
          0 0 0 0 0 0 0 0 0 0.125 0 0.125
          0 0.125 0 0.125 0 0.125 0 0.125 0 0.125 0 0
          0 0.125 0.25 0.25 0.25 0.25 0.25 0.125 0 0 0.125 0.25
          0.25 0.25 0.25 0.25 0.125 0 0 0.125 0.25 0.25 0.25 0.25
          0.25 0.125 0 0 0.125 0.25 0.25 0.25 0.25 0.25 0.125 0
          0 0.125 0.25 0.25 0.25 0.25 0.25 0.125 0 0 0.125 0.125
          0.125 0.125 0.125 0.125 0.125 0 0 0 0 0 0 0
          0 0 0 0 0 0 0.125 0 0.125 0 0.125 0
          0.125 0 0.125 0 0.125 0 0.125 0 0 0 0.125 0.25
          0.25 0.25 0.25 0.25 0.125 0 0 0.125 0.25 0.375 0.375 0.375
          0.25 0.125 0 0 0.125 0.25 0.375 0.375 0.375 0.25 0.125 0
          0 0.125 0.25 0.375 0.375 0.375 0.25 0.125 0 0 0.125 0.25
          0.25 0.25 0.25 0.25 0.125 0 0 0.125 0.125 0.125 0.125 0.125
          0.125 0.125 0 0 0 0 0 0 0 0 0 0
          0 0 0 0.125 0 0.125 0 0.125 0 0.125 0 0.125
          0 0.125 0 0.125 0 0 0 0.125 0.25 0.25 0.25 0.25
          0.25 0.125 0 0 0.125 0.25 0.375 0.375 0.375 0.25 0.125 0
          0 0.125 0.25 0.375 0.5 0.375 0.25 0.125 0 0 0.125 0.25
          0.375 0.375 0.375 0.25 0.125 0 0 0.125 0.25 0.25 0.25 0.25
          0.25 0.125 0 0 0.125 0.125 0.125 0.125 0.125 0.125 0.125 0
          0 0 0 0 0 0 0 0 0 0 0 0
          0.125 0 0.125 0 0.125 0 0.125 0 0.125 0 0.125 0
          0.125 0 0 0 0.125 0.25 0.25 0.25 0.25 0.25 0.125 0
          0 0.125 0.25 0.375 0.375 0.375 0.25 0.125 0 0 0.125 0.25
          0.375 0.375 0.375 0.25 0.125 0 0 0.125 0.25 0.375 0.375 0.375
          0.25 0.125 0 0 0.125 0.25 0.25 0.25 0.25 0.25 0.125 0
          0 0.125 0.125 0.125 0.125 0.125 0.125 0.125 0 0 0 0
          0 0 0 0 0 0 0 0 0 0.125 0 0.125
          0 0.125 0 0.125 0 0.125 0 0.125 0 0.125 0 0
          0 0.125 0.25 0.25 0.25 0.25 0.25 0.125 0 0 0.125 0.25
          0.25 0.25 0.25 0.25 0.125 0 0 0.125 0.25 0.25 0.25 0.25
          0.25 0.125 0 0 0.125 0.25 0.25 0.25 0.25 0.25 0.125 0
          0 0.125 0.25 0.25 0.25 0.25 0.25 0.125 0 0 0.125 0.125
          0.125 0.125 0.125 0.125 0.125 0 0 0 0 0 0 0
          0 0 0 0 0 0 0.125 0 0.125 0 0.125 0
          0.125 0 0.125 0 0.125 0 0.125 0 0 0 0.125 0.125
          0.125 0.125 0.125 0.125 0.125 0 0 0.125 0.125 0.125 0.125 0.125
          0.125 0.125 0 0 0.125 0.125 0.125 0.125 0.125 0.125 0.125 0
          0 0.125 0.125 0.125 0.125 0.125 0.125 0.125 0 0 0.125 0.125
          0.125 0.125 0.125 0.125 0.125 0 0 0.125 0.125 0.125 0.125 0.125
          0.125 0.125 0 0 0 0 0 0 0 0 0 0
          0 0 0 0 0 0 0 0 0 0 0 0
          0 0 0 0 0 0 0 0 0 0 0 0
          0 0 0 0 0 0 0 0 0 0 0 0
          0 0 0 0 0 0 0 0 0 0 0 0
          0 0 0 0 0 0 0 0 0 0 0 0
          0 0 0 0 0 0 0 0 0 0 0 0
          0 0 0 0 0 0 0 0 0
        </DataArray>
        <DataArray type="Float32" Name="wallElementIndex" NumberOfComponents="1" format="ascii">
          0 0 0 0 0 0 0 0 1 1 65 65
          2 2 66 66 3 3 3 3 4 4 4 4
          5 5 69 69 6 6 6 6 7 7 7 7
          8 8 8 8 9 9 10 10 11 11 12 12
          13 13 14 14 15 15 16 16 16 16 17 17
          26 26 19 19 20 20 21 21 22 22 23 23
          24 24 24 24 25 25 26 26 27 27 28 28
          29 29 30 30 31 31 32 32 32 32 33 33
          34 34 35 35 44 44 45 45 38 38 39 39
          40 40 40 40 41 41 42 42 43 43 44 44
          45 45 46 46 47 47 48 48 48 48 49 49
          50 50 51 51 52 52 61 61 54 54 55 55
          56 56 56 56 57 121 58 122 59 59 60 60
          61 61 62 62 63 63 64 64 64 64 65 65
          66 66 67 67 68 68 69 69 70 70 71 71
          136 136 136 66 67 68 69 143 143 80 80 80
          26 19 20 21 87 87 88 88 88 26 27 28
          29 95 95 104 104 104 34 35 44 45 103 103
          104 104 104 42 43 44 45 111 111 112 112 121
          122 123 124 125 126 183 120 120 121 122 123 124
          125 126 127 128 128 128 128 193 193 130 130 131
          131 196 196 197 197 134 134 135 135 136 136 136
          130 131 196 197 143 143 144 144 144 144 131 196
          151 151 151 152 152 152 152 27 28 159 159 159
          160 160 160 160 35 44 231 231 231 168 168 168
          186 187 188 189 175 175 240 240 185 186 187 188
          189 190 183 184 184 185 186 187 188 189 190 191
          192 192 192 192 193 193 194 194 195 195 196 196
          197 197 198 198 199 199 200 200 200 194 195 196
          197 207 207 208 208 208 208 195 196 215 215 215
          216 216 216 216 216 223 223 223 223 224 224 224
          224 251 252 231 231 231 232 232 232 250 251 252
          253 239 239 240 240 249 250 251 252 253 254 247
          248 248 249 250 251 252 253 254 255 256 256 256
          256 257 257 258 258 259 259 260 260 261 261 262
          262 263 263 264 264 264 258 259 260 261 335 335
          272 272 272 272 259 260 279 279 279 280 280 280
          280 475 476 287 287 287 288 288 288 288 483 484
          295 295 295 360 360 360 378 315 316 381 367 367
          304 304 377 378 315 316 381 318 375 312 312 377
          378 315 316 381 318 319 320 320 320 320 321 321
          322 322 323 323 324 324 325 325 326 326 327 327
          392 392 392 322 323 324 325 335 335 336 336 336
          466 467 476 469 343 343 344 344 344 474 475 476
          477 351 351 352 352 352 482 483 484 493 359 359
          360 360 360 490 491 492 493 367 367 368 376 377
          378 379 380 381 382 375 376 376 377 378 379 380
          381 382 383 384 384 392 392 385 385 386 386 387
          387 388 388 389 389 390 390 391 391 392 392 457
          458 459 460 461 462 463 400 400 465 466 467 476
          469 470 407 408 408 473 474 475 476 477 478 415
          416 416 481 482 483 484 493 486 423 424 488 489
          490 491 492 493 494 431 432 496 497 498 499 500
          501 502 439 440 440 505 442 443 444 445 446 447
          448 448 448 448 449 449 450 458 451 451 452 452
          453 461 454 454 455 455 456 456 457 458 459 460
          461 462 463 464 464 465 466 467 476 469 470 471
          472 472 473 474 475 476 477 478 479 480 480 481
          482 483 484 493 486 487 488 488 489 490 491 492
          493 494 495 496 496 497 498 499 500 501 502 503
          504 504 505 506 507 508 509 510 511
        </DataArray>
      </PointData>
      <Points>
        <DataArray type="Float32" Name="Coordinates" NumberOfComponents="3" format="ascii">
          0 0 0 0.125 0 0 0 0.125 0 0.125 0.125 0
          0 0 0.125 0.125 0 0.125 0 0.125 0.125 0.125 0.125 0.125
          0.25 0 0 0.25 0.125 0 0.25 0 0.125 0.25 0.125 0.125
          0.375 0 0 0.375 0.125 0 0.375 0 0.125 0.375 0.125 0.125
          0.5 0 0 0.5 0.125 0 0.5 0 0.125 0.5 0.125 0.125
          0.625 0 0 0.625 0.125 0 0.625 0 0.125 0.625 0.125 0.125
          0.75 0 0 0.75 0.125 0 0.75 0 0.125 0.75 0.125 0.125
          0.875 0 0 0.875 0.125 0 0.875 0 0.125 0.875 0.125 0.125
          1 0 0 1 0.125 0 1 0 0.125 1 0.125 0.125
          0 0.25 0 0.125 0.25 0 0 0.25 0.125 0.125 0.25 0.125
          0.25 0.25 0 0.25 0.25 0.125 0.375 0.25 0 0.375 0.25 0.125
          0.5 0.25 0 0.5 0.25 0.125 0.625 0.25 0 0.625 0.25 0.125
          0.75 0.25 0 0.75 0.25 0.125 0.875 0.25 0 0.875 0.25 0.125
          1 0.25 0 1 0.25 0.125 0 0.375 0 0.125 0.375 0
          0 0.375 0.125 0.125 0.375 0.125 0.25 0.375 0 0.25 0.375 0.125
          0.375 0.375 0 0.375 0.375 0.125 0.5 0.375 0 0.5 0.375 0.125
          0.625 0.375 0 0.625 0.375 0.125 0.75 0.375 0 0.75 0.375 0.125
          0.875 0.375 0 0.875 0.375 0.125 1 0.375 0 1 0.375 0.125
          0 0.5 0 0.125 0.5 0 0 0.5 0.125 0.125 0.5 0.125
          0.25 0.5 0 0.25 0.5 0.125 0.375 0.5 0 0.375 0.5 0.125
          0.5 0.5 0 0.5 0.5 0.125 0.625 0.5 0 0.625 0.5 0.125
          0.75 0.5 0 0.75 0.5 0.125 0.875 0.5 0 0.875 0.5 0.125
          1 0.5 0 1 0.5 0.125 0 0.625 0 0.125 0.625 0
          0 0.625 0.125 0.125 0.625 0.125 0.25 0.625 0 0.25 0.625 0.125
          0.375 0.625 0 0.375 0.625 0.125 0.5 0.625 0 0.5 0.625 0.125
          0.625 0.625 0 0.625 0.625 0.125 0.75 0.625 0 0.75 0.625 0.125
          0.875 0.625 0 0.875 0.625 0.125 1 0.625 0 1 0.625 0.125
          0 0.75 0 0.125 0.75 0 0 0.75 0.125 0.125 0.75 0.125
          0.25 0.75 0 0.25 0.75 0.125 0.375 0.75 0 0.375 0.75 0.125
          0.5 0.75 0 0.5 0.75 0.125 0.625 0.75 0 0.625 0.75 0.125
          0.75 0.75 0 0.75 0.75 0.125 0.875 0.75 0 0.875 0.75 0.125
          1 0.75 0 1 0.75 0.125 0 0.875 0 0.125 0.875 0
          0 0.875 0.125 0.125 0.875 0.125 0.25 0.875 0 0.25 0.875 0.125
          0.375 0.875 0 0.375 0.875 0.125 0.5 0.875 0 0.5 0.875 0.125
          0.625 0.875 0 0.625 0.875 0.125 0.75 0.875 0 0.75 0.875 0.125
          0.875 0.875 0 0.875 0.875 0.125 1 0.875 0 1 0.875 0.125
          0 1 0 0.125 1 0 0 1 0.125 0.125 1 0.125
          0.25 1 0 0.25 1 0.125 0.375 1 0 0.375 1 0.125
          0.5 1 0 0.5 1 0.125 0.625 1 0 0.625 1 0.125
          0.75 1 0 0.75 1 0.125 0.875 1 0 0.875 1 0.125
          1 1 0 1 1 0.125 0 0 0.25 0.125 0 0.25
          0 0.125 0.25 0.125 0.125 0.25 0.25 0 0.25 0.25 0.125 0.25
          0.375 0 0.25 0.375 0.125 0.25 0.5 0 0.25 0.5 0.125 0.25
          0.625 0 0.25 0.625 0.125 0.25 0.75 0 0.25 0.75 0.125 0.25
          0.875 0 0.25 0.875 0.125 0.25 1 0 0.25 1 0.125 0.25
          0 0.25 0.25 0.125 0.25 0.25 0.25 0.25 0.25 0.375 0.25 0.25
          0.5 0.25 0.25 0.625 0.25 0.25 0.75 0.25 0.25 0.875 0.25 0.25
          1 0.25 0.25 0 0.375 0.25 0.125 0.375 0.25 0.25 0.375 0.25
          0.375 0.375 0.25 0.5 0.375 0.25 0.625 0.375 0.25 0.75 0.375 0.25
          0.875 0.375 0.25 1 0.375 0.25 0 0.5 0.25 0.125 0.5 0.25
          0.25 0.5 0.25 0.375 0.5 0.25 0.5 0.5 0.25 0.625 0.5 0.25
          0.75 0.5 0.25 0.875 0.5 0.25 1 0.5 0.25 0 0.625 0.25
          0.125 0.625 0.25 0.25 0.625 0.25 0.375 0.625 0.25 0.5 0.625 0.25
          0.625 0.625 0.25 0.75 0.625 0.25 0.875 0.625 0.25 1 0.625 0.25
          0 0.75 0.25 0.125 0.75 0.25 0.25 0.75 0.25 0.375 0.75 0.25
          0.5 0.75 0.25 0.625 0.75 0.25 0.75 0.75 0.25 0.875 0.75 0.25
          1 0.75 0.25 0 0.875 0.25 0.125 0.875 0.25 0.25 0.875 0.25
          0.375 0.875 0.25 0.5 0.875 0.25 0.625 0.875 0.25 0.75 0.875 0.25
          0.875 0.875 0.25 1 0.875 0.25 0 1 0.25 0.125 1 0.25
          0.25 1 0.25 0.375 1 0.25 0.5 1 0.25 0.625 1 0.25
          0.75 1 0.25 0.875 1 0.25 1 1 0.25 0 0 0.375
          0.125 0 0.375 0 0.125 0.375 0.125 0.125 0.375 0.25 0 0.375
          0.25 0.125 0.375 0.375 0 0.375 0.375 0.125 0.375 0.5 0 0.375
          0.5 0.125 0.375 0.625 0 0.375 0.625 0.125 0.375 0.75 0 0.375
          0.75 0.125 0.375 0.875 0 0.375 0.875 0.125 0.375 1 0 0.375
          1 0.125 0.375 0 0.25 0.375 0.125 0.25 0.375 0.25 0.25 0.375
          0.375 0.25 0.375 0.5 0.25 0.375 0.625 0.25 0.375 0.75 0.25 0.375
          0.875 0.25 0.375 1 0.25 0.375 0 0.375 0.375 0.125 0.375 0.375
          0.25 0.375 0.375 0.375 0.375 0.375 0.5 0.375 0.375 0.625 0.375 0.375
          0.75 0.375 0.375 0.875 0.375 0.375 1 0.375 0.375 0 0.5 0.375
          0.125 0.5 0.375 0.25 0.5 0.375 0.375 0.5 0.375 0.5 0.5 0.375
          0.625 0.5 0.375 0.75 0.5 0.375 0.875 0.5 0.375 1 0.5 0.375
          0 0.625 0.375 0.125 0.625 0.375 0.25 0.625 0.375 0.375 0.625 0.375
          0.5 0.625 0.375 0.625 0.625 0.375 0.75 0.625 0.375 0.875 0.625 0.375
          1 0.625 0.375 0 0.75 0.375 0.125 0.75 0.375 0.25 0.75 0.375
          0.375 0.75 0.375 0.5 0.75 0.375 0.625 0.75 0.375 0.75 0.75 0.375
          0.875 0.75 0.375 1 0.75 0.375 0 0.875 0.375 0.125 0.875 0.375
          0.25 0.875 0.375 0.375 0.875 0.375 0.5 0.875 0.375 0.625 0.875 0.375
          0.75 0.875 0.375 0.875 0.875 0.375 1 0.875 0.375 0 1 0.375
          0.125 1 0.375 0.25 1 0.375 0.375 1 0.375 0.5 1 0.375
          0.625 1 0.375 0.75 1 0.375 0.875 1 0.375 1 1 0.375
          0 0 0.5 0.125 0 0.5 0 0.125 0.5 0.125 0.125 0.5
          0.25 0 0.5 0.25 0.125 0.5 0.375 0 0.5 0.375 0.125 0.5
          0.5 0 0.5 0.5 0.125 0.5 0.625 0 0.5 0.625 0.125 0.5
          0.75 0 0.5 0.75 0.125 0.5 0.875 0 0.5 0.875 0.125 0.5
          1 0 0.5 1 0.125 0.5 0 0.25 0.5 0.125 0.25 0.5
          0.25 0.25 0.5 0.375 0.25 0.5 0.5 0.25 0.5 0.625 0.25 0.5
          0.75 0.25 0.5 0.875 0.25 0.5 1 0.25 0.5 0 0.375 0.5
          0.125 0.375 0.5 0.25 0.375 0.5 0.375 0.375 0.5 0.5 0.375 0.5
          0.625 0.375 0.5 0.75 0.375 0.5 0.875 0.375 0.5 1 0.375 0.5
          0 0.5 0.5 0.125 0.5 0.5 0.25 0.5 0.5 0.375 0.5 0.5
          0.5 0.5 0.5 0.625 0.5 0.5 0.75 0.5 0.5 0.875 0.5 0.5
          1 0.5 0.5 0 0.625 0.5 0.125 0.625 0.5 0.25 0.625 0.5
          0.375 0.625 0.5 0.5 0.625 0.5 0.625 0.625 0.5 0.75 0.625 0.5
          0.875 0.625 0.5 1 0.625 0.5 0 0.75 0.5 0.125 0.75 0.5
          0.25 0.75 0.5 0.375 0.75 0.5 0.5 0.75 0.5 0.625 0.75 0.5
          0.75 0.75 0.5 0.875 0.75 0.5 1 0.75 0.5 0 0.875 0.5
          0.125 0.875 0.5 0.25 0.875 0.5 0.375 0.875 0.5 0.5 0.875 0.5
          0.625 0.875 0.5 0.75 0.875 0.5 0.875 0.875 0.5 1 0.875 0.5
          0 1 0.5 0.125 1 0.5 0.25 1 0.5 0.375 1 0.5
          0.5 1 0.5 0.625 1 0.5 0.75 1 0.5 0.875 1 0.5
          1 1 0.5 0 0 0.625 0.125 0 0.625 0 0.125 0.625
          0.125 0.125 0.625 0.25 0 0.625 0.25 0.125 0.625 0.375 0 0.625
          0.375 0.125 0.625 0.5 0 0.625 0.5 0.125 0.625 0.625 0 0.625
          0.625 0.125 0.625 0.75 0 0.625 0.75 0.125 0.625 0.875 0 0.625
          0.875 0.125 0.625 1 0 0.625 1 0.125 0.625 0 0.25 0.625
          0.125 0.25 0.625 0.25 0.25 0.625 0.375 0.25 0.625 0.5 0.25 0.625
          0.625 0.25 0.625 0.75 0.25 0.625 0.875 0.25 0.625 1 0.25 0.625
          0 0.375 0.625 0.125 0.375 0.625 0.25 0.375 0.625 0.375 0.375 0.625
          0.5 0.375 0.625 0.625 0.375 0.625 0.75 0.375 0.625 0.875 0.375 0.625
          1 0.375 0.625 0 0.5 0.625 0.125 0.5 0.625 0.25 0.5 0.625
          0.375 0.5 0.625 0.5 0.5 0.625 0.625 0.5 0.625 0.75 0.5 0.625
          0.875 0.5 0.625 1 0.5 0.625 0 0.625 0.625 0.125 0.625 0.625
          0.25 0.625 0.625 0.375 0.625 0.625 0.5 0.625 0.625 0.625 0.625 0.625
          0.75 0.625 0.625 0.875 0.625 0.625 1 0.625 0.625 0 0.75 0.625
          0.125 0.75 0.625 0.25 0.75 0.625 0.375 0.75 0.625 0.5 0.75 0.625
          0.625 0.75 0.625 0.75 0.75 0.625 0.875 0.75 0.625 1 0.75 0.625
          0 0.875 0.625 0.125 0.875 0.625 0.25 0.875 0.625 0.375 0.875 0.625
          0.5 0.875 0.625 0.625 0.875 0.625 0.75 0.875 0.625 0.875 0.875 0.625
          1 0.875 0.625 0 1 0.625 0.125 1 0.625 0.25 1 0.625
          0.375 1 0.625 0.5 1 0.625 0.625 1 0.625 0.75 1 0.625
          0.875 1 0.625 1 1 0.625 0 0 0.75 0.125 0 0.75
          0 0.125 0.75 0.125 0.125 0.75 0.25 0 0.75 0.25 0.125 0.75
          0.375 0 0.75 0.375 0.125 0.75 0.5 0 0.75 0.5 0.125 0.75
          0.625 0 0.75 0.625 0.125 0.75 0.75 0 0.75 0.75 0.125 0.75
          0.875 0 0.75 0.875 0.125 0.75 1 0 0.75 1 0.125 0.75
          0 0.25 0.75 0.125 0.25 0.75 0.25 0.25 0.75 0.375 0.25 0.75
          0.5 0.25 0.75 0.625 0.25 0.75 0.75 0.25 0.75 0.875 0.25 0.75
          1 0.25 0.75 0 0.375 0.75 0.125 0.375 0.75 0.25 0.375 0.75
          0.375 0.375 0.75 0.5 0.375 0.75 0.625 0.375 0.75 0.75 0.375 0.75
          0.875 0.375 0.75 1 0.375 0.75 0 0.5 0.75 0.125 0.5 0.75
          0.25 0.5 0.75 0.375 0.5 0.75 0.5 0.5 0.75 0.625 0.5 0.75
          0.75 0.5 0.75 0.875 0.5 0.75 1 0.5 0.75 0 0.625 0.75
          0.125 0.625 0.75 0.25 0.625 0.75 0.375 0.625 0.75 0.5 0.625 0.75
          0.625 0.625 0.75 0.75 0.625 0.75 0.875 0.625 0.75 1 0.625 0.75
          0 0.75 0.75 0.125 0.75 0.75 0.25 0.75 0.75 0.375 0.75 0.75
          0.5 0.75 0.75 0.625 0.75 0.75 0.75 0.75 0.75 0.875 0.75 0.75
          1 0.75 0.75 0 0.875 0.75 0.125 0.875 0.75 0.25 0.875 0.75
          0.375 0.875 0.75 0.5 0.875 0.75 0.625 0.875 0.75 0.75 0.875 0.75
          0.875 0.875 0.75 1 0.875 0.75 0 1 0.75 0.125 1 0.75
          0.25 1 0.75 0.375 1 0.75 0.5 1 0.75 0.625 1 0.75
          0.75 1 0.75 0.875 1 0.75 1 1 0.75 0 0 0.875
          0.125 0 0.875 0 0.125 0.875 0.125 0.125 0.875 0.25 0 0.875
          0.25 0.125 0.875 0.375 0 0.875 0.375 0.125 0.875 0.5 0 0.875
          0.5 0.125 0.875 0.625 0 0.875 0.625 0.125 0.875 0.75 0 0.875
          0.75 0.125 0.875 0.875 0 0.875 0.875 0.125 0.875 1 0 0.875
          1 0.125 0.875 0 0.25 0.875 0.125 0.25 0.875 0.25 0.25 0.875
          0.375 0.25 0.875 0.5 0.25 0.875 0.625 0.25 0.875 0.75 0.25 0.875
          0.875 0.25 0.875 1 0.25 0.875 0 0.375 0.875 0.125 0.375 0.875
          0.25 0.375 0.875 0.375 0.375 0.875 0.5 0.375 0.875 0.625 0.375 0.875
          0.75 0.375 0.875 0.875 0.375 0.875 1 0.375 0.875 0 0.5 0.875
          0.125 0.5 0.875 0.25 0.5 0.875 0.375 0.5 0.875 0.5 0.5 0.875
          0.625 0.5 0.875 0.75 0.5 0.875 0.875 0.5 0.875 1 0.5 0.875
          0 0.625 0.875 0.125 0.625 0.875 0.25 0.625 0.875 0.375 0.625 0.875
          0.5 0.625 0.875 0.625 0.625 0.875 0.75 0.625 0.875 0.875 0.625 0.875
          1 0.625 0.875 0 0.75 0.875 0.125 0.75 0.875 0.25 0.75 0.875
          0.375 0.75 0.875 0.5 0.75 0.875 0.625 0.75 0.875 0.75 0.75 0.875
          0.875 0.75 0.875 1 0.75 0.875 0 0.875 0.875 0.125 0.875 0.875
          0.25 0.875 0.875 0.375 0.875 0.875 0.5 0.875 0.875 0.625 0.875 0.875
          0.75 0.875 0.875 0.875 0.875 0.875 1 0.875 0.875 0 1 0.875
          0.125 1 0.875 0.25 1 0.875 0.375 1 0.875 0.5 1 0.875
          0.625 1 0.875 0.75 1 0.875 0.875 1 0.875 1 1 0.875
          0 0 1 0.125 0 1 0 0.125 1 0.125 0.125 1
          0.25 0 1 0.25 0.125 1 0.375 0 1 0.375 0.125 1
          0.5 0 1 0.5 0.125 1 0.625 0 1 0.625 0.125 1
          0.75 0 1 0.75 0.125 1 0.875 0 1 0.875 0.125 1
          1 0 1 1 0.125 1 0 0.25 1 0.125 0.25 1
          0.25 0.25 1 0.375 0.25 1 0.5 0.25 1 0.625 0.25 1
          0.75 0.25 1 0.875 0.25 1 1 0.25 1 0 0.375 1
          0.125 0.375 1 0.25 0.375 1 0.375 0.375 1 0.5 0.375 1
          0.625 0.375 1 0.75 0.375 1 0.875 0.375 1 1 0.375 1
          0 0.5 1 0.125 0.5 1 0.25 0.5 1 0.375 0.5 1
          0.5 0.5 1 0.625 0.5 1 0.75 0.5 1 0.875 0.5 1
          1 0.5 1 0 0.625 1 0.125 0.625 1 0.25 0.625 1
          0.375 0.625 1 0.5 0.625 1 0.625 0.625 1 0.75 0.625 1
          0.875 0.625 1 1 0.625 1 0 0.75 1 0.125 0.75 1
          0.25 0.75 1 0.375 0.75 1 0.5 0.75 1 0.625 0.75 1
          0.75 0.75 1 0.875 0.75 1 1 0.75 1 0 0.875 1
          0.125 0.875 1 0.25 0.875 1 0.375 0.875 1 0.5 0.875 1
          0.625 0.875 1 0.75 0.875 1 0.875 0.875 1 1 0.875 1
          0 1 1 0.125 1 1 0.25 1 1 0.375 1 1
          0.5 1 1 0.625 1 1 0.75 1 1 0.875 1 1
          1 1 1
        </DataArray>
      </Points>
      <Cells>
        <DataArray type="Int32" Name="connectivity" NumberOfComponents="1" format="ascii">
          0 1 3 2 4 5 7 6 1 8 9 3
          5 10 11 7 8 12 13 9 10 14 15 11
          12 16 17 13 14 18 19 15 16 20 21 17
          18 22 23 19 20 24 25 21 22 26 27 23
          24 28 29 25 26 30 31 27 28 32 33 29
          30 34 35 31 2 3 37 36 6 7 39 38
          3 9 40 37 7 11 41 39 9 13 42 40
          11 15 43 41 13 17 44 42 15 19 45 43
          17 21 46 44 19 23 47 45 21 25 48 46
          23 27 49 47 25 29 50 48 27 31 51 49
          29 33 52 50 31 35 53 51 36 37 55 54
          38 39 57 56 37 40 58 55 39 41 59 57
          40 42 60 58 41 43 61 59 42 44 62 60
          43 45 63 61 44 46 64 62 45 47 65 63
          46 48 66 64 47 49 67 65 48 50 68 66
          49 51 69 67 50 52 70 68 51 53 71 69
          54 55 73 72 56 57 75 74 55 58 76 73
          57 59 77 75 58 60 78 76 59 61 79 77
          60 62 80 78 61 63 81 79 62 64 82 80
          63 65 83 81 64 66 84 82 65 67 85 83
          66 68 86 84 67 69 87 85 68 70 88 86
          69 71 89 87 72 73 91 90 74 75 93 92
          73 76 94 91 75 77 95 93 76 78 96 94
          77 79 97 95 78 80 98 96 79 81 99 97
          80 82 100 98 81 83 101 99 82 84 102 100
          83 85 103 101 84 86 104 102 85 87 105 103
          86 88 106 104 87 89 107 105 90 91 109 108
          92 93 111 110 91 94 112 109 93 95 113 111
          94 96 114 112 95 97 115 113 96 98 116 114
          97 99 117 115 98 100 118 116 99 101 119 117
          100 102 120 118 101 103 121 119 102 104 122 120
          103 105 123 121 104 106 124 122 105 107 125 123
          108 109 127 126 110 111 129 128 109 112 130 127
          111 113 131 129 112 114 132 130 113 115 133 131
          114 116 134 132 115 117 135 133 116 118 136 134
          117 119 137 135 118 120 138 136 119 121 139 137
          120 122 140 138 121 123 141 139 122 124 142 140
          123 125 143 141 126 127 145 144 128 129 147 146
          127 130 148 145 129 131 149 147 130 132 150 148
          131 133 151 149 132 134 152 150 133 135 153 151
          134 136 154 152 135 137 155 153 136 138 156 154
          137 139 157 155 138 140 158 156 139 141 159 157
          140 142 160 158 141 143 161 159 4 5 7 6
          162 163 165 164 5 10 11 7 163 166 167 165
          10 14 15 11 166 168 169 167 14 18 19 15
          168 170 171 169 18 22 23 19 170 172 173 171
          22 26 27 23 172 174 175 173 26 30 31 27
          174 176 177 175 30 34 35 31 176 178 179 177
          6 7 39 38 164 165 181 180 7 11 41 39
          165 167 182 181 11 15 43 41 167 169 183 182
          15 19 45 43 169 171 184 183 19 23 47 45
          171 173 185 184 23 27 49 47 173 175 186 185
          27 31 51 49 175 177 187 186 31 35 53 51
          177 179 188 187 38 39 57 56 180 181 190 189
          39 41 59 57 181 182 191 190 41 43 61 59
          182 183 192 191 43 45 63 61 183 184 193 192
          45 47 65 63 184 185 194 193 47 49 67 65
          185 186 195 194 49 51 69 67 186 187 196 195
          51 53 71 69 187 188 197 196 56 57 75 74
          189 190 199 198 57 59 77 75 190 191 200 199
          59 61 79 77 191 192 201 200 61 63 81 79
          192 193 202 201 63 65 83 81 193 194 203 202
          65 67 85 83 194 195 204 203 67 69 87 85
          195 196 205 204 69 71 89 87 196 197 206 205
          74 75 93 92 198 199 208 207 75 77 95 93
          199 200 209 208 77 79 97 95 200 201 210 209
          79 81 99 97 201 202 211 210 81 83 101 99
          202 203 212 211 83 85 103 101 203 204 213 212
          85 87 105 103 204 205 214 213 87 89 107 105
          205 206 215 214 92 93 111 110 207 208 217 216
          93 95 113 111 208 209 218 217 95 97 115 113
          209 210 219 218 97 99 117 115 210 211 220 219
          99 101 119 117 211 212 221 220 101 103 121 119
          212 213 222 221 103 105 123 121 213 214 223 222
          105 107 125 123 214 215 224 223 110 111 129 128
          216 217 226 225 111 113 131 129 217 218 227 226
          113 115 133 131 218 219 228 227 115 117 135 133
          219 220 229 228 117 119 137 135 220 221 230 229
          119 121 139 137 221 222 231 230 121 123 141 139
          222 223 232 231 123 125 143 141 223 224 233 232
          128 129 147 146 225 226 235 234 129 131 149 147
          226 227 236 235 131 133 151 149 227 228 237 236
          133 135 153 151 228 229 238 237 135 137 155 153
          229 230 239 238 137 139 157 155 230 231 240 239
          139 141 159 157 231 232 241 240 141 143 161 159
          232 233 242 241 162 163 165 164 243 244 246 245
          163 166 167 165 244 247 248 246 166 168 169 167
          247 249 250 248 168 170 171 169 249 251 252 250
          170 172 173 171 251 253 254 252 172 174 175 173
          253 255 256 254 174 176 177 175 255 257 258 256
          176 178 179 177 257 259 260 258 164 165 181 180
          245 246 262 261 165 167 182 181 246 248 263 262
          167 169 183 182 248 250 264 263 169 171 184 183
          250 252 265 264 171 173 185 184 252 254 266 265
          173 175 186 185 254 256 267 266 175 177 187 186
          256 258 268 267 177 179 188 187 258 260 269 268
          180 181 190 189 261 262 271 270 181 182 191 190
          262 263 272 271 182 183 192 191 263 264 273 272
          183 184 193 192 264 265 274 273 184 185 194 193
          265 266 275 274 185 186 195 194 266 267 276 275
          186 187 196 195 267 268 277 276 187 188 197 196
          268 269 278 277 189 190 199 198 270 271 280 279
          190 191 200 199 271 272 281 280 191 192 201 200
          272 273 282 281 192 193 202 201 273 274 283 282
          193 194 203 202 274 275 284 283 194 195 204 203
          275 276 285 284 195 196 205 204 276 277 286 285
          196 197 206 205 277 278 287 286 198 199 208 207
          279 280 289 288 199 200 209 208 280 281 290 289
          200 201 210 209 281 282 291 290 201 202 211 210
          282 283 292 291 202 203 212 211 283 284 293 292
          203 204 213 212 284 285 294 293 204 205 214 213
          285 286 295 294 205 206 215 214 286 287 296 295
          207 208 217 216 288 289 298 297 208 209 218 217
          289 290 299 298 209 210 219 218 290 291 300 299
          210 211 220 219 291 292 301 300 211 212 221 220
          292 293 302 301 212 213 222 221 293 294 303 302
          213 214 223 222 294 295 304 303 214 215 224 223
          295 296 305 304 216 217 226 225 297 298 307 306
          217 218 227 226 298 299 308 307 218 219 228 227
          299 300 309 308 219 220 229 228 300 301 310 309
          220 221 230 229 301 302 311 310 221 222 231 230
          302 303 312 311 222 223 232 231 303 304 313 312
          223 224 233 232 304 305 314 313 225 226 235 234
          306 307 316 315 226 227 236 235 307 308 317 316
          227 228 237 236 308 309 318 317 228 229 238 237
          309 310 319 318 229 230 239 238 310 311 320 319
          230 231 240 239 311 312 321 320 231 232 241 240
          312 313 322 321 232 233 242 241 313 314 323 322
          243 244 246 245 324 325 327 326 244 247 248 246
          325 328 329 327 247 249 250 248 328 330 331 329
          249 251 252 250 330 332 333 331 251 253 254 252
          332 334 335 333 253 255 256 254 334 336 337 335
          255 257 258 256 336 338 339 337 257 259 260 258
          338 340 341 339 245 246 262 261 326 327 343 342
          246 248 263 262 327 329 344 343 248 250 264 263
          329 331 345 344 250 252 265 264 331 333 346 345
          252 254 266 265 333 335 347 346 254 256 267 266
          335 337 348 347 256 258 268 267 337 339 349 348
          258 260 269 268 339 341 350 349 261 262 271 270
          342 343 352 351 262 263 272 271 343 344 353 352
          263 264 273 272 344 345 354 353 264 265 274 273
          345 346 355 354 265 266 275 274 346 347 356 355
          266 267 276 275 347 348 357 356 267 268 277 276
          348 349 358 357 268 269 278 277 349 350 359 358
          270 271 280 279 351 352 361 360 271 272 281 280
          352 353 362 361 272 273 282 281 353 354 363 362
          273 274 283 282 354 355 364 363 274 275 284 283
          355 356 365 364 275 276 285 284 356 357 366 365
          276 277 286 285 357 358 367 366 277 278 287 286
          358 359 368 367 279 280 289 288 360 361 370 369
          280 281 290 289 361 362 371 370 281 282 291 290
          362 363 372 371 282 283 292 291 363 364 373 372
          283 284 293 292 364 365 374 373 284 285 294 293
          365 366 375 374 285 286 295 294 366 367 376 375
          286 287 296 295 367 368 377 376 288 289 298 297
          369 370 379 378 289 290 299 298 370 371 380 379
          290 291 300 299 371 372 381 380 291 292 301 300
          372 373 382 381 292 293 302 301 373 374 383 382
          293 294 303 302 374 375 384 383 294 295 304 303
          375 376 385 384 295 296 305 304 376 377 386 385
          297 298 307 306 378 379 388 387 298 299 308 307
          379 380 389 388 299 300 309 308 380 381 390 389
          300 301 310 309 381 382 391 390 301 302 311 310
          382 383 392 391 302 303 312 311 383 384 393 392
          303 304 313 312 384 385 394 393 304 305 314 313
          385 386 395 394 306 307 316 315 387 388 397 396
          307 308 317 316 388 389 398 397 308 309 318 317
          389 390 399 398 309 310 319 318 390 391 400 399
          310 311 320 319 391 392 401 400 311 312 321 320
          392 393 402 401 312 313 322 321 393 394 403 402
          313 314 323 322 394 395 404 403 324 325 327 326
          405 406 408 407 325 328 329 327 406 409 410 408
          328 330 331 329 409 411 412 410 330 332 333 331
          411 413 414 412 332 334 335 333 413 415 416 414
          334 336 337 335 415 417 418 416 336 338 339 337
          417 419 420 418 338 340 341 339 419 421 422 420
          326 327 343 342 407 408 424 423 327 329 344 343
          408 410 425 424 329 331 345 344 410 412 426 425
          331 333 346 345 412 414 427 426 333 335 347 346
          414 416 428 427 335 337 348 347 416 418 429 428
          337 339 349 348 418 420 430 429 339 341 350 349
          420 422 431 430 342 343 352 351 423 424 433 432
          343 344 353 352 424 425 434 433 344 345 354 353
          425 426 435 434 345 346 355 354 426 427 436 435
          346 347 356 355 427 428 437 436 347 348 357 356
          428 429 438 437 348 349 358 357 429 430 439 438
          349 350 359 358 430 431 440 439 351 352 361 360
          432 433 442 441 352 353 362 361 433 434 443 442
          353 354 363 362 434 435 444 443 354 355 364 363
          435 436 445 444 355 356 365 364 436 437 446 445
          356 357 366 365 437 438 447 446 357 358 367 366
          438 439 448 447 358 359 368 367 439 440 449 448