<?xml version="1.0"?>
<VTKFile type="UnstructuredGrid" version="0.1" byte_order="LittleEndian">
  <UnstructuredGrid>
    <Piece NumberOfCells="1000" NumberOfPoints="1331">
      <CellData Scalars="wetting pressure">
        <DataArray type="Float32" Name="wetting pressure" NumberOfComponents="1" format="ascii">
          265556 270782 272371 271432 268450 263582 256771 247780 236106 220678 265563 270804
          272415 271508 268566 263739 256947 247940 236215 220717 265573 270838 272484 271629
          268759 264027 257283 248256 236429 220790 265581 270865 272541 271736 268922 264359
          257718 248705 236722 220885 265580 270866 272549 271757 268934 264336 258013 249217
          236975 220952 265569 270830 272486 271666 268842 264287 257658 248652 236685 220872
          265549 270767 272371 271483 268595 263860 257130 248129 236345 220760 265526 270695
          272239 271276 268297 263457 256682 247721 236071 220666 265507 270634 272130 271108
          268064 263167 256373 247449 235887 220602 265496 270600 272069 271017 267940 263018
          256219 247315 235796 220570 262006 264589 265046 263593 260413 255559 248967 240496
          229943 217139 262014 264616 265101 263689 260565 255768 249193 240696 230077 217185
          262026 264658 265188 263850 260841 256190 249658 241116 230357 217279 262036 264692
          265265 264003 261081 256803 250374 241804 230807 217415 262036 264696 265285 264074
          261322 256874 250690 242701 231493 217548 262024 264656 265208 263931 260997 256700
          250344 241762 230773 217402 262001 264583 265070 263700 260677 256022 249512 240992
          230272 217249 261975 264501 264916 263446 260285 255474 248919 240469 229927 217133
          261953 264432 264790 263248 260001 255116 248543 240143 229710 217058 261941 264394
          264721 263142 259855 254940 248361 239987 229605 217021 260254 260496 259579 257386
          253899 249068 242818 235093 225898 215405 260265 260530 259651 257518 254116 249360
          243123 235354 226068 215463 260280 260585 259770 257752 254553 250002 243795 235925
          226433 215582 260293 260633 259882 257991 255002 250964 244983 236938 227052 215764
          260295 260643 259920 258124 255486 251280 245536 238285 228043 215952 260280 260594
          259822 257920 254944 250929 245007 236917 227025 215752 260253 260505 259644 257595
          254394 249850 243668 235808 226349 215552 260222 260405 259449 257254 253813 249047
          242834 235113 225907 215406 260196 260322 259294 257001 253437 248572 242345 234702
          225640 215315 260182 260276 259210 256869 253253 248349 242118 234510 225514 215271
          259138 257526 255315 252343 248510 243705 237838 230901 222982 214308 259151 257570
          255408 252516 248799 244085 238222 231218 223184 214376 259171 257640 255563 252830
          249414 244952 239079 231913 223614 214515 259188 257702 255711 253159 250093 246233
          240624 233138 224330 214724 259191 257717 255764 253330 250660 246629 241298 234656
          225399 214931 259173 257660 255647 253083 250027 246172 240892 233171 224313 214714
          259141 257552 255425 252659 249246 244798 238998 231811 223531 214484 259103 257430
          255182 252221 248463 243741 237913 230957 223008 214314 259072 257329 254991 251904
          247983 243140 237303 230459 222691 214207 259055 257274 254889 251742 247754 242864
          237025 230229 222542 214156 258274 255112 251720 247990 243806 239025 233545 227375
          220620 213464 258290 255165 251832 248199 244153 239474 233988 227733 220844 213538
          258314 255250 252020 248579 244898 240495 234970 228506 221312 213689 258334 255325
          252199 248973 245721 241960 236723 229824 222054 213906 258338 255344 252261 249163
          246301 242368 237414 231382 223060 214106 258318 255278 252127 248888 245645 241877
          237118 229884 222041 213895 258280 255151 251865 248387 244710 240325 234903 228401
          221222 213654 258236 255006 251577 247864 243773 239085 233643 227442 220647 213469
          258199 254887 251350 247487 243202 238379 232935 226874 220291 213349 258179 254822
          251228 247294 242930 238054 232612 226610 220122 213291 257483 252873 248352 243883
          239353 234596 229499 224079 218437 212693 257501 252936 248483 244123 239746 235097
          229986 224467 218677 212773 257530 253035 248700 244555 240572 236211 231032 225283
          219165 212929 257554 253122 248903 244993 241464 237754 232784 226611 219895 213143
          257558 253144 248972 245194 242049 238167 233540 228162 220783 213325 257536 253070
          248823 244898 241380 237672 233068 226637 219870 213130 257492 252923 248525 244339
          240359 236013 230912 225145 219057 212889 257441 252756 248193 243743 239313 234652
          229583 224131 218452 212693 257398 252618 247930 243307 238661 233856 228802 223508
          218063 212563 257374 252541 247788 243082 238347 233485 228437 223213 217875 212499
          256627 250484 244802 239596 234733 230007 225290 220618 216114 211861 256649 250557
          244954 239873 235181 230572 225832 221047 216377 211948 256682 250672 245204 240361
          236090 231780 226956 221918 216893 212114 256710 250772 245433 240843 237030 233369
          228733 223260 217615 212327 256715 250797 245510 241056 237627 233802 229502 224803
          218381 212489 256689 250714 245344 240737 236940 233295 228747 223225 217573 212310
          256639 250548 245009 240119 235850 231548 226753 221735 216763 212067 256581 250355
          244628 239444 234689 230061 225360 220658 216120 211858 256531 250195 244323 238940
          233942 229160 224491 219967 215691 211715 256503 250106 244157 238677 233576 228732
          224076 219633 215479 211643 255525 247561 240626 234689 229528 224848 220493 216563
          213279 210791 255550 247648 240808 235025 230075 225532 221143 217069 213584 210891
          255589 247783 241102 235602 231140 226934 222445 218071 214168 211077 255622 247900
          241369 236152 232176 228620 224338 219519 214935 211304 255629 247930 241457 236390
          232813 229102 225151 221093 215618 211457 255600 247836 241271 236038 232079 228542
          224347 219482 214891 211286 255543 247646 240888 235337 230877 226677 222218 217870
          214025 211025 255475 247424 240446 234548 229526 224962 220613 216633 213297 210790
          255418 247238 240087 233947 228627 223880 219582 215825 212801 210626 255386 247135
          239891 233632 228184 223362 219086 215431 212556 210543 253791 243524 235269 228672
          223294 218679 214622 211357 209345 209092 253820 243626 235493 229105 224044 219625
          215489 212005 209721 209212 253865 243786 235850 229835 225451 221499 217231 213309
          210448 209438 253903 243923 236168 230501 226716 223395 219462 215152 211389 209712
          253912 243960 236276 230790 227474 223994 220351 216699 212098 209880 253880 243856
          236064 230381 226616 223290 219765 215199 211365 209697 253815 243640 235621 229552
          225176 221235 217048 213126 210307 209386 253739 243385 235101 228588 223455 219013
          214923 211539 209412 209105 253674 243171 234676 227847 222284 217589 213600 210533
          208815 208910 253637 243052 234446 227464 221724 216928 212982 210055 208523 208813
          250253 237373 228033 221002 215552 211006 207095 204252 203275 205581 250285 237488
          228297 221562 216713 212506 208310 205088 203732 205723 250335 237669 228719 222499
          218832 215673 211180 206948 204662 205998 250377 237823 229087 223317 220588 217646
          214127 210284 205992 206348 250387 237866 229217 223682 221659 218574 215012 211419
          207053 206572 250353 237753 228980 223195 220489 217560 214080 210464 205999 206338
          250284 237518 228482 222210 218565 215424 211001 206793 204530 205947 250201 237237
          227889 221029 216142 211919 207726 204606 203412 205611 250130 237001 227405 220122
          214465 209828 205991 203368 202710 205387 250091 236870 227146 219671 213760 208987
          205240 202808 202378 205279
        </DataArray>
        <DataArray type="Float32" Name="nonwetting pressure" NumberOfComponents="1" format="ascii">
          265556 270782 272371 271432 268450 263582 256771 247780 236106 220678 265563 270804
          272415 271508 268566 263739 256947 247940 236215 220717 265573 270838 272484 271629
          268759 264027 257283 248256 236429 220790 265581 270865 272541 271736 268934 264359
          257718 248705 236722 220885 265580 270866 272549 271757 269337 264479 258070 249217
          236975 220952 265569 270830 272486 271666 268857 264287 257658 248652 236685 220872
          265549 270767 272371 271483 268595 263860 257130 248129 236345 220760 265526 270695
          272239 271276 268297 263457 256682 247721 236071 220666 265507 270634 272130 271108
          268064 263167 256373 247449 235887 220602 265496 270600 272069 271017 267940 263018
          256219 247315 235796 220570 262006 264589 265046 263593 260413 255559 248967 240496
          229943 217139 262014 264616 265101 263689 260565 255768 249193 240696 230077 217185
          262026 264658 265188 263850 260841 256190 249658 241116 230357 217279 262036 264692
          265265 264003 261146 256830 250374 241804 230807 217415 262036 264696 265285 264074
          262001 257210 250869 242781 231493 217548 262024 264656 265208 263931 261069 256734
          250344 241762 230773 217402 262001 264583 265070 263700 260677 256022 249512 240992
          230272 217249 261975 264501 264916 263446 260285 255474 248919 240469 229927 217133
          261953 264432 264790 263248 260001 255116 248543 240143 229710 217058 261941 264394
          264721 263142 259855 254940 248361 239987 229605 217021 260254 260496 259579 257386
          253899 249068 242818 235093 225898 215405 260265 260530 259651 257518 254116 249360
          243123 235354 226068 215463 260280 260585 259770 257752 254553 250002 243795 235925
          226433 215582 260293 260633 259882 257991 255137 251045 244983 236938 227052 215764
          260295 260643 259920 258124 256279 251722 245794 238412 228043 215952 260280 260594
          259822 257920 255086 251016 245007 236917 227025 215752 260253 260505 259644 257595
          254394 249850 243668 235808 226349 215552 260222 260405 259449 257254 253813 249047
          242834 235113 225907 215406 260196 260322 259294 257001 253437 248572 242345 234702
          225640 215315 260182 260276 259210 256869 253253 248349 242118 234510 225514 215271
          259138 257526 255315 252343 248510 243705 237838 230901 222982 214308 259151 257570
          255408 252516 248799 244085 238222 231218 223184 214376 259171 257640 255563 252830
          249414 244952 239079 231913 223614 214515 259188 257702 255711 253159 250268 246353
          240624 233138 224330 214724 259191 257717 255764 253330 251481 247102 241581 234796
          225399 214931 259173 257660 255647 253083 250210 246299 240894 233171 224313 214714
          259141 257552 255425 252659 249246 244798 238998 231811 223531 214484 259103 257430
          255182 252221 248463 243741 237913 230957 223008 214314 259072 257329 254991 251904
          247983 243140 237303 230459 222691 214207 259055 257274 254889 251742 247754 242864
          237025 230229 222542 214156 258274 255112 251720 247990 243806 239025 233545 227375
          220620 213464 258290 255165 251832 248199 244153 239474 233988 227733 220844 213538
          258314 255250 252020 248579 244898 240495 234970 228506 221312 213689 258334 255325
          252199 248973 245906 242093 236723 229824 222054 213906 258338 255344 252261 249163
          247122 242845 237699 231517 223060 214106 258318 255278 252127 248888 245837 242018
          237128 229884 222041 213895 258280 255151 251865 248387 244710 240325 234903 228401
          221222 213654 258236 255006 251577 247864 243773 239085 233643 227442 220647 213469
          258199 254887 251350 247487 243202 238379 232935 226874 220291 213349 258179 254822
          251228 247294 242930 238054 232612 226610 220122 213291 257483 252873 248352 243883
          239353 234596 229499 224079 218437 212693 257501 252936 248483 244123 239746 235097
          229986 224467 218677 212773 257530 253035 248700 244555 240572 236211 231032 225283
          219165 212929 257554 253122 248903 244993 241646 237889 232784 226611 219895 213143
          257558 253144 248972 245194 242862 238643 233818 228283 220783 213325 257536 253070
          248823 244898 241570 237815 233070 226637 219870 213130 257492 252923 248525 244339
          240359 236013 230912 225145 219057 212889 257441 252756 248193 243743 239313 234652
          229583 224131 218452 212693 257398 252618 247930 243307 238661 233856 228802 223508
          218063 212563 257374 252541 247788 243082 238347 233485 228437 223213 217875 212499
          256627 250484 244802 239596 234733 230007 225290 220618 216114 211861 256649 250557
          244954 239873 235181 230572 225832 221047 216377 211948 256682 250672 245204 240361
          236090 231780 226956 221918 216893 212114 256710 250772 245433 240843 237207 233503
          228733 223260 217615 212327 256715 250797 245510 241056 238434 234276 229771 224904
          218381 212489 256689 250714 245344 240737 237125 233437 228747 223225 217573 212310
          256639 250548 245009 240119 235850 231548 226753 221735 216763 212067 256581 250355
          244628 239444 234689 230061 225360 220658 216120 211858 256531 250195 244323 238940
          233942 229160 224491 219967 215691 211715 256503 250106 244157 238677 233576 228732
          224076 219633 215479 211643 255525 247561 240626 234689 229528 224848 220493 216563
          213279 210791 255550 247648 240808 235025 230075 225532 221143 217069 213584 210891
          255589 247783 241102 235602 231140 226934 222445 218071 214168 211077 255622 247900
          241369 236152 232352 228756 224338 219519 214935 211304 255629 247930 241457 236390
          233623 229576 225413 221172 215618 211457 255600 247836 241271 236038 232264 228685
          224347 219482 214891 211286 255543 247646 240888 235337 230877 226677 222218 217870
          214025 211025 255475 247424 240446 234548 229526 224962 220613 216633 213297 210790
          255418 247238 240087 233947 228627 223880 219582 215825 212801 210626 255386 247135
          239891 233632 228184 223362 219086 215431 212556 210543 253791 243524 235269 228672
          223294 218679 214622 211357 209345 209092 253820 243626 235493 229105 224044 219625
          215489 212005 209721 209212 253865 243786 235850 229835 225451 221499 217231 213309
          210448 209438 253903 243923 236168 230501 226911 223544 219462 215152 211389 209712
          253912 243960 236276 230790 228322 224486 220617 216766 212098 209880 253880 243856
          236064 230381 226820 223448 219774 215199 211365 209697 253815 243640 235621 229552
          225176 221235 217048 213126 210307 209386 253739 243385 235101 228588 223455 219013
          214923 211539 209412 209105 253674 243171 234676 227847 222284 217589 213600 210533
          208815 208910 253637 243052 234446 227464 221724 216928 212982 210055 208523 208813
          250253 237373 228033 221002 215552 211006 207095 204252 203275 205581 250285 237488
          228297 221562 216713 212506 208310 205088 203732 205723 250335 237669 228719 222499
          218999 215814 211180 206948 204662 205998 250377 237823 229087 223317 221167 218141
          214399 210299 205992 206348 250387 237866 229217 223682 223026 219511 215631 211701
          207053 206572 250353 237753 228980 223195 221080 218066 214361 210490 205999 206338
          250284 237518 228482 222210 218745 215582 211001 206793 204530 205947 250201 237237
          227889 221029 216142 211919 207726 204606 203412 205611 250130 237001 227405 220122
          214465 209828 205991 203368 202710 205387 250091 236870 227146 219671 213760 208987
          205240 202808 202378 205279
        </DataArray>
        <DataArray type="Float32" Name="wetting saturation" NumberOfComponents="1" format="ascii">
          1 1 1 1 1 1 1 1 1 1 1 1
          1 1 1 1 1 1 1 1 1 1 1 1
          1 1 1 1 1 1 1 1 1 1 0.998782 1
          1 1 1 1 1 1 1 1 0.959686 0.98576 0.994324 1
          1 1 1 1 1 1 0.99852 1 1 1 1 1
          1 1 1 1 1 1 1 1 1 1 1 1
          1 1 1 1 1 1 1 1 1 1 1 1
          1 1 1 1 1 1 1 1 1 1 1 1
          1 1 1 1 1 1 1 1 1 1 1 1
          1 1 1 1 1 1 1 1 1 1 1 1
          1 1 1 1 1 1 1 1 1 1 1 1
          1 1 0.993528 0.997349 1 1 1 1 1 1 1 1
          0.932111 0.96643 0.982113 0.991964 1 1 1 1 1 1 0.992847 0.996587
          1 1 1 1 1 1 1 1 1 1 1 1
          1 1 1 1 1 1 1 1 1 1 1 1
          1 1 1 1 1 1 1 1 1 1 1 1
          1 1 1 1 1 1 1 1 1 1 1 1
          1 1 1 1 1 1 1 1 1 1 1 1
          1 1 1 1 1 1 1 1 1 1 1 1
          1 1 1 1 1 1 0.986471 0.991937 1 1 1 1
          1 1 1 1 0.92068 0.9558 0.974235 0.987305 1 1 1 1
          1 1 0.985787 0.991263 1 1 1 1 1 1 1 1
          1 1 1 1 1 1 1 1 1 1 1 1
          1 1 1 1 1 1 1 1 1 1 1 1
          1 1 1 1 1 1 1 1 1 1 1 1
          1 1 1 1 1 1 1 1 1 1 1 1
          1 1 1 1 1 1 1 1 1 1 1 1
          1 1 1 1 1 1 1 1 1 1 0.982425 0.988016
          1 1 1 1 1 1 1 1 0.917891 0.952669 0.971656 0.985962
          1 1 1 1 1 1 0.98175 0.987275 0.999841 1 1 1
          1 1 1 1 1 1 1 1 1 1 1 1
          1 1 1 1 1 1 1 1 1 1 1 1
          1 1 1 1 1 1 1 1 1 1 1 1
          1 1 1 1 1 1 1 1 1 1 1 1
          1 1 1 1 1 1 1 1 1 1 1 1
          1 1 1 1 1 1 1 1 1 1 1 1
          1 1 0.981461 0.986703 1 1 1 1 1 1 1 1
          0.917943 0.95223 0.971519 0.986549 1 1 1 1 1 1 0.980759 0.98582
          0.998993 1 1 1 1 1 1 1 1 1 1 1
          1 1 1 1 1 1 1 1 1 1 1 1
          1 1 1 1 1 1 1 1 1 1 1 1
          1 1 1 1 1 1 1 1 1 1 1 1
          1 1 1 1 1 1 1 1 1 1 1 1
          1 1 1 1 1 1 1 1 1 1 1 1
          1 1 1 1 1 1 0.981766 0.986538 1 1 1 1
          1 1 1 1 0.918694 0.952408 0.972196 0.987952 1 1 1 1
          1 1 0.981031 0.985693 0.999733 1 1 1 1 1 1 1
          1 1 1 1 1 1 1 1 1 1 1 1
          1 1 1 1 1 1 1 1 1 1 1 1
          1 1 1 1 1 1 1 1 1 1 1 1
          1 1 1 1 1 1 1 1 1 1 1 1
          1 1 1 1 1 1 1 1 1 1 1 1
          1 1 1 1 1 1 1 1 1 1 0.982285 0.986586
          1 1 1 1 1 1 1 1 0.919286 0.952618 0.973058 0.989856
          1 1 1 1 1 1 0.981518 0.985862 1 1 1 1
          1 1 1 1 1 1 1 1 1 1 1 1
          1 1 1 1 1 1 1 1 1 1 1 1
          1 1 1 1 1 1 1 1 1 1 1 1
          1 1 1 1 1 1 1 1 1 1 1 1
          1 1 1 1 1 1 1 1 1 1 1 1
          1 1 1 1 1 1 1 1 1 1 1 1
          1 1 0.982364 0.986452 1 1 1 1 1 1 1 1
          0.919022 0.952615 0.973792 0.992124 1 1 1 1 1 1 0.98157 0.985723
          1 1 1 1 1 1 1 1 1 1 1 1
          1 1 1 1 1 1 1 1 1 1 1 1
          1 1 1 1 1 1 1 1 1 1 1 1
          1 1 1 1 1 1 1 1 1 1 1 1
          1 1 1 1 1 1 1 1 1 1 1 1
          1 1 1 1 1 1 1 1 1 1 1 1
          1 1 1 1 1 1 0.980464 0.985164 1 1 1 1
          1 1 1 1 0.915184 0.950835 0.973383 0.993277 1 1 1 1
          1 1 0.979656 0.984189 0.999114 1 1 1 1 1 1 1
          1 1 1 1 1 1 1 1 1 1 1 1
          1 1 1 1 1 1 1 1 1 1 1 1
          1 1 1 1 1 1 1 1 1 1 1 1
          1 1 1 1 1 1 1 1 1 1 1 1
          1 1 1 1 1 1 1 1 1 1 1 1
          0.983333 0.985839 1 1 1 1 1 1 1 1 0.942051 0.950467
          0.972745 0.998429 1 1 1 1 1 1 0.863338 0.906381 0.938077 0.9718
          1 1 1 1 1 1 0.940847 0.94937 0.971964 0.997461 1 1
          1 1 1 1 0.981963 0.984252 1 1 1 1 1 1
          1 1 1 1 1 1 1 1 1 1 1 1
          1 1 1 1 1 1 1 1 1 1 1 1
          1 1 1 1
        </DataArray>
        <DataArray type="Float32" Name="C^w from cellData" NumberOfComponents="1" format="ascii">
          199.956 199.956 199.957 199.956 199.956 199.956 199.955 199.954 199.953 199.952 199.956 199.956
          199.956 199.956 199.956 199.956 199.955 199.954 199.953 199.952 199.956 199.956 199.956 199.956
          199.953 199.956 199.955 199.954 199.953 199.952 199.956 199.956 199.956 199.942 199.339 199.672
          199.926 199.954 199.953 199.952 199.956 199.956 199.956 199.847 191.705 196.83 198.105 199.303
          199.953 199.952 199.956 199.956 199.956 199.939 199.274 199.618 199.921 199.954 199.953 199.952
          199.956 199.956 199.956 199.956 199.949 199.956 199.955 199.954 199.953 199.952 199.956 199.956
          199.956 199.956 199.956 199.956 199.955 199.954 199.953 199.952 199.956 199.956 199.957 199.956
          199.956 199.956 199.955 199.954 199.953 199.952 199.956 199.956 199.957 199.956 199.956 199.956
          199.955 199.954 199.953 199.952 199.956 199.956 199.956 199.956 199.955 199.955 199.954 199.954
          199.953 199.951 199.956 199.956 199.956 199.956 199.955 199.955 199.954 199.954 199.953 199.951
          199.956 199.956 199.956 199.956 199.842 199.949 199.954 199.954 199.953 199.951 199.956 199.956
          199.956 199.926 198.261 198.942 199.668 199.917 199.953 199.951 199.956 199.956 199.956 199.754
          186.589 193.005 195.994 197.545 199.537 199.951 199.956 199.956 199.956 199.926 198.158 198.804
          199.607 199.916 199.953 199.951 199.956 199.956 199.956 199.956 199.808 199.944 199.954 199.954
          199.953 199.951 199.956 199.956 199.956 199.956 199.955 199.955 199.954 199.954 199.953 199.951
          199.956 199.956 199.956 199.956 199.955 199.955 199.954 199.954 199.953 199.951 199.956 199.956
          199.956 199.956 199.955 199.955 199.954 199.954 199.953 199.951 199.955 199.955 199.955 199.955
          199.955 199.954 199.954 199.953 199.952 199.951 199.955 199.955 199.955 199.955 199.955 199.954
          199.954 199.953 199.952 199.951 199.955 199.955 199.955 199.955 199.64 199.864 199.954 199.953
          199.952 199.951 199.955 199.955 199.955 199.926 196.883 197.634 199.149 199.83 199.952 199.951
          199.955 199.955 199.955 199.78 184.35 191.03 194.251 196.246 199.081 199.951 199.955 199.955
          199.955 199.924 196.732 197.468 199.111 199.826 199.952 199.951 199.955 199.955 199.955 199.955
          199.603 199.84 199.954 199.953 199.952 199.951 199.955 199.955 199.955 199.955 199.955 199.954
          199.954 199.953 199.952 199.951 199.955 199.955 199.955 199.955 199.955 199.954 199.954 199.953
          199.952 199.951 199.955 199.955 199.955 199.955 199.955 199.954 199.954 199.953 199.952 199.951
          199.955 199.955 199.955 199.955 199.954 199.954 199.953 199.953 199.952 199.951 199.955 199.955
          199.955 199.955 199.954 199.954 199.953 199.953 199.952 199.951 199.955 199.955 199.955 199.954
          199.537 199.761 199.953 199.953 199.952 199.951 199.955 199.955 199.955 199.922 196.02 196.688
          198.967 199.799 199.952 199.951 199.955 199.955 199.955 199.809 183.741 190.419 193.652 195.935
          199.09 199.951 199.955 199.955 199.955 199.922 195.864 196.557 198.837 199.793 199.952 199.951
          199.955 199.955 199.955 199.954 199.502 199.722 199.953 199.953 199.952 199.951 199.955 199.955
          199.955 199.955 199.954 199.954 199.953 199.953 199.952 199.951 199.955 199.955 199.955 199.955
          199.954 199.954 199.953 199.953 199.952 199.951 199.955 199.955 199.955 199.955 199.954 199.954
          199.953 199.953 199.952 199.951 199.955 199.955 199.955 199.954 199.954 199.953 199.953 199.952
          199.952 199.951 199.955 199.955 199.955 199.954 199.954 199.953 199.953 199.952 199.952 199.951
          199.955 199.955 199.955 199.954 199.498 199.709 199.953 199.952 199.952 199.951 199.955 199.955
          199.954 199.918 195.798 196.4 198.909 199.818 199.952 199.951 199.955 199.955 199.954 199.873
          183.723 190.324 193.609 196.171 199.283 199.951 199.955 199.955 199.954 199.919 195.634 196.276
          198.727 199.812 199.952 199.951 199.955 199.955 199.955 199.954 199.461 199.662 199.952 199.952
          199.952 199.951 199.955 199.955 199.955 199.954 199.954 199.953 199.953 199.952 199.952 199.951
          199.955 199.955 199.955 199.954 199.954 199.953 199.953 199.952 199.952 199.951 199.955 199.955
          199.955 199.954 199.954 199.953 199.953 199.952 199.952 199.951 199.955 199.955 199.954 199.954
          199.953 199.953 199.952 199.952 199.951 199.951 199.955 199.955 199.954 199.954 199.953 199.953
          199.952 199.952 199.951 199.951 199.955 199.955 199.954 199.954 199.489 199.694 199.952 199.952
          199.952 199.951 199.955 199.955 199.954 199.914 195.852 196.367 198.96 199.857 199.952 199.951
          199.955 199.955 199.954 199.876 183.88 190.355 193.728 196.64 199.527 199.951 199.955 199.955
          199.954 199.914 195.678 196.22 198.814 199.852 199.952 199.951 199.955 199.955 199.954 199.954
          199.45 199.64 199.952 199.952 199.952 199.951 199.955 199.955 199.954 199.954 199.953 199.953
          199.952 199.952 199.951 199.951 199.955 199.955 199.954 199.954 199.953 199.953 199.952 199.952
          199.951 199.951 199.955 199.955 199.954 199.954 199.953 199.953 199.952 199.952 199.951 199.951
          199.955 199.954 199.954 199.953 199.953 199.952 199.952 199.952 199.951 199.951 199.955 199.954
          199.954 199.953 199.953 199.952 199.952 199.952 199.951 199.951 199.955 199.954 199.954 199.953
          199.485 199.684 199.952 199.952 199.951 199.951 199.955 199.954 199.954 199.909 195.955 196.401
          198.996 199.892 199.951 199.951 199.955 199.954 199.954 199.915 184.047 190.403 193.854 197.196
          199.72 199.951 199.955 199.954 199.954 199.91 195.772 196.218 198.954 199.889 199.951 199.951
          199.955 199.954 199.954 199.953 199.443 199.626 199.952 199.952 199.951 199.951 199.955 199.954
          199.954 199.953 199.953 199.952 199.952 199.952 199.951 199.951 199.955 199.954 199.954 199.953
          199.953 199.952 199.952 199.952 199.951 199.951 199.955 199.954 199.954 199.953 199.953 199.952
          199.952 199.952 199.951 199.951 199.955 199.954 199.954 199.953 199.952 199.952 199.952 199.951
          199.951 199.951 199.955 199.954 199.954 199.953 199.952 199.952 199.952 199.951 199.951 199.951
          199.955 199.954 199.953 199.953 199.463 199.653 199.952 199.951 199.951 199.951 199.955 199.954
          199.953 199.906 195.961 196.386 199.02 199.921 199.951 199.951 199.955 199.954 199.953 199.902
          184.081 190.421 193.972 197.744 199.849 199.951 199.955 199.954 199.953 199.906 195.771 196.199
          198.982 199.919 199.951 199.951 199.955 199.954 199.953 199.953 199.421 199.594 199.952 199.951
          199.951 199.951 199.955 199.954 199.953 199.953 199.952 199.952 199.952 199.951 199.951 199.951
          199.955 199.954 199.953 199.953 199.952 199.952 199.951 199.951 199.951 199.951 199.955 199.954
          199.953 199.953 199.952 199.952 199.951 199.951 199.951 199.951 199.955 199.954 199.953 199.952
          199.952 199.951 199.951 199.951 199.951 199.951 199.955 199.954 199.953 199.952 199.952 199.951
          199.951 199.951 199.951 199.951 199.955 199.954 199.953 199.952 199.392 199.549 199.951 199.951
          199.951 199.951 199.955 199.954 199.953 199.907 195.533 196.088 198.98 199.928 199.951 199.951
          199.955 199.954 199.953 199.914 183.392 190.097 193.861 198.03 199.891 199.951 199.955 199.954
          199.953 199.907 195.337 195.93 198.784 199.926 199.951 199.951 199.955 199.954 199.953 199.952
          199.351 199.488 199.95 199.951 199.951 199.951 199.955 199.954 199.953 199.952 199.952 199.951
          199.951 199.951 199.951 199.951 199.955 199.954 199.953 199.952 199.952 199.951 199.951 199.951
          199.951 199.951 199.955 199.954 199.953 199.952 199.952 199.951 199.951 199.951 199.951 199.951
          199.955 199.953 199.952 199.952 199.951 199.951 199.95 199.95 199.95 199.95 199.955 199.953
          199.952 199.952 199.578 199.752 199.95 199.95 199.95 199.95 199.955 199.953 199.952 199.928
          196.05 196.315 198.935 199.949 199.95 199.95 199.955 199.953 199.952 199.913 188.147 189.765
          193.191 198.328 199.949 199.95 199.955 199.953 199.952 199.895 172.978 181.457 187.413 192.963
          199.009 199.95 199.955 199.953 199.952 199.914 187.918 189.561 193.028 198.204 199.948 199.95
          199.955 199.953 199.952 199.929 195.728 195.87 198.814 199.948 199.95 199.95 199.955 199.953
          199.952 199.952 199.47 199.668 199.95 199.95 199.95 199.95 199.955 199.953 199.952 199.952
          199.951 199.951 199.95 199.95 199.95 199.95 199.955 199.953 199.952 199.952 199.951 199.95
          199.95 199.95 199.95 199.95
        </DataArray>
        <DataArray type="Float32" Name="C^n from cellData" NumberOfComponents="1" format="ascii">
          0 0 0 3.3651e-15 6.21366e-11 4.45931e-12 1.38861e-13 2.64572e-15 9.00662e-18 0 0 0
          5.16889e-16 8.33683e-12 1.09077e-07 9.48546e-09 3.70981e-10 7.69785e-12 1.11077e-13 1.53221e-15 7.01704e-18 1.00733e-14 9.34231e-13 7.61323e-09
          8.71175e-05 7.79239e-06 4.64331e-07 1.09828e-08 1.5977e-10 2.11734e-12 2.75128e-13 1.35637e-11 1.00431e-09 3.6024e-06 0.0165984 0.00353264
          0.000411024 1.16783e-05 1.60386e-07 1.9689e-09 5.9769e-10 2.40717e-08 1.36817e-06 0.00140995 0.0417597 0.0245416 0.0186337 0.00779965
          0.000131873 1.6674e-06 4.68841e-13 2.44288e-11 1.82478e-09 4.73347e-06 0.0167603 0.00430956 0.000478765 1.31505e-05 1.8039e-07 2.21099e-09
          2.26879e-16 2.16621e-14 2.10529e-12 1.19133e-08 0.000146868 1.09645e-05 6.2785e-07 1.43016e-08 2.04867e-10 2.68389e-12 0 2.62773e-18
          1.61211e-15 1.74121e-11 2.00855e-07 1.63433e-08 6.23261e-10 1.25071e-11 1.77797e-13 1.94137e-15 0 0 0 1.27385e-14
          1.77516e-10 1.25793e-11 3.80705e-13 6.77893e-15 1.87805e-17 0 0 0 0 0 6.32811e-14 3.71294e-15
          6.01797e-17 0 0 0 0 0 0 1.01319e-14 6.43304e-10 3.41165e-11 1.07651e-12 1.63543e-14
          4.329e-17 0 0 0 5.45099e-16 2.25847e-11 1.54717e-06 8.51816e-08 3.64396e-09 6.91843e-11 6.98207e-13 5.10968e-15