<?xml version="1.0"?>
<VTKFile type="UnstructuredGrid" version="0.1" byte_order="LittleEndian">
  <UnstructuredGrid>
    <Piece NumberOfCells="1600" NumberOfPoints="1681">
      <CellData Scalars="rank" Vectors="velocity">
        <DataArray type="Float32" Name="velocity" NumberOfComponents="3" format="ascii">
          7.7841e-06 -7.84555e-06 0 3.65133e-05 -2.10153e-05 0 8.94592e-05 -3.19563e-05 0 0.000162507 -4.08465e-05 0
          0.000251738 -4.78282e-05 0 0.000353449 -5.30296e-05 0 0.000464154 -5.65727e-05 0 0.000580598 -5.8576e-05 0
          0.00069975 -5.91564e-05 0 0.000818813 -5.84294e-05 0 0.00093522 -5.65097e-05 0 0.00104664 -5.35119e-05 0
          0.00115096 -4.95501e-05 0 0.00124632 -4.47382e-05 0 0.00133109 -3.91902e-05 0 0.00140385 -3.30197e-05 0
          0.00146345 -2.63406e-05 0 0.00150894 -1.92666e-05 0 0.00153962 -1.19113e-05 0 0.00155504 -4.38857e-06 0
          0.00155494 3.18805e-06 0 0.00153934 1.07049e-05 0 0.00150847 1.80485e-05 0 0.00146278 2.51053e-05 0
          0.001403 3.17621e-05 0 0.00133004 3.79056e-05 0 0.00124508 4.34231e-05 0 0.00114952 4.82022e-05 0
          0.001045 5.21309e-05 0 0.000933396 5.50981e-05 0 0.0008168 5.6994e-05 0 0.000697555 5.771e-05 0
          0.000578232 5.71406e-05 0 0.000461634 5.51838e-05 0 0.000350799 5.17441e-05 0 0.000248993 4.67373e-05 0
          0.000159705 4.01008e-05 0 8.66264e-05 3.18198e-05 0 3.35584e-05 2.2e-05 0 4.05396e-06 1.10989e-05 0
          2.08716e-05 -3.66768e-05 0 9.83955e-05 -9.87984e-05 0 0.000241698 -0.000150601 0 0.000439513 -0.000192782 0
          0.000681175 -0.000225957 0 0.00095663 -0.000250704 0 0.00125643 -0.000267587 0 0.00157176 -0.000277159 0
          0.00189441 -0.000279967 0 0.00221681 -0.000276558 0 0.00253201 -0.000267475 0 0.00283369 -0.000253261 0
          0.00311616 -0.000234457 0 0.00337436 -0.000211604 0 0.00360386 -0.000185245 0 0.00380086 -0.000155919 0
          0.00396221 -0.000124169 0 0.00408537 -9.05337e-05 0 0.00416844 -5.55555e-05 0 0.00421015 -1.97748e-05 0
          0.00420987 1.62674e-05 0 0.00416761 5.20306e-05 0 0.00408398 8.69743e-05 0 0.00396026 0.000120558 0
          0.00379835 0.000152243 0 0.00360077 0.000181488 0 0.0033707 0.000207757 0 0.00311191 0.000230511 0
          0.00282886 0.000249216 0 0.00252659 0.000263338 0 0.00221079 0.000272347 0 0.00188781 0.000275719 0
          0.00156457 0.000272937 0 0.00124867 0.000263496 0 0.000948318 0.00024691 0 0.000672322 0.000222724 0
          0.000430105 0.000190547 0 0.00023165 0.000150106 0 8.74473e-05 0.000101397 0 8.45117e-06 4.50449e-05 0
          3.17484e-05 -8.96953e-05 0 0.000150005 -0.000242314 0 0.000368914 -0.000369848 0 0.000671202 -0.000473818 0
          0.00104054 -0.000555655 0 0.00146152 -0.000616746 0 0.00191972 -0.000658457 0 0.00240164 -0.000682137 0
          0.00289474 -0.000689132 0 0.00338745 -0.000680783 0 0.00386915 -0.000658426 0 0.00433017 -0.000623399 0
          0.00476184 -0.000577038 0 0.0051564 -0.000520677 0 0.00550711 -0.000455653 0 0.00580816 -0.000383299 0
          0.00605471 -0.000304952 0 0.00624289 -0.000221946 0 0.00636981 -0.000135616 0 0.00643353 -4.72988e-05 0
          0.00643308 4.1672e-05 0 0.00636845 0.000129961 0 0.00624062 0.000216234 0 0.00605152 0.000299157 0
          0.00580404 0.000377395 0 0.00550206 0.000449618 0 0.00515039 0.000514493 0 0.00475486 0.000570691 0
          0.00432221 0.000616887 0 0.00386018 0.000651758 0 0.00337746 0.000673988 0 0.00288371 0.000682268 0
          0.00238956 0.000675303 0 0.00190656 0.000651816 0 0.00144726 0.000610561 0 0.00102512 0.000550341 0
          0.000654531 0.000470042 0 0.000350799 0.000368703 0 0.000130124 0.000245626 0 9.65525e-06 0.000100566 0
          4.05842e-05 -0.000162802 0 0.000192021 -0.000440311 0 0.000472606 -0.000672437 0 0.000860161 -0.000861782 0
          0.00133372 -0.00101088 0 0.00187352 -0.00112222 0 0.00246104 -0.00119826 0 0.00307897 -0.00124146 0
          0.00371124 -0.00125426 0 0.00434299 -0.0012391 0 0.00496062 -0.0011984 0 0.00555174 -0.00113462 0
          0.0061052 -0.00105017 0 0.00661109 -0.000947487 0 0.00706074 -0.000829013 0 0.00744671 -0.000697176 0
          0.00776281 -0.000554408 0 0.00800407 -0.000403144 0 0.00816677 -0.000245816 0 0.00824843 -8.48581e-05 0
          0.00824781 7.72971e-05 0 0.00816491 0.000238216 0 0.00800096 0.000395467 0 0.00775844 0.000546617 0
          0.00744107 0.000689236 0 0.0070538 0.000820893 0 0.00660283 0.000939161 0 0.00609559 0.00104161 0
          0.00554074 0.00112583 0 0.0049482 0.0011894 0 0.00432911 0.00122991 0 0.00369584 0.00124497 0
          0.00306201 0.00123219 0 0.00244245 0.00118922 0 0.00185321 0.00111374 0 0.00131157 0.00100349 0
          0.000836 0.000856307 0 0.000446187 0.00067015 0 0.00016303 0.000443201 0 8.69793e-06 0.000173905 0
          4.75174e-05 -0.000252086 0 0.000225049 -0.000682137 0 0.000554195 -0.00104204 0 0.00100891 -0.00133571 0
          0.00156457 -0.00156701 0 0.00219798 -0.00173977 0 0.00288739 -0.00185778 0 0.00361249 -0.00192485 0
          0.00435441 -0.00194475 0 0.00509572 -0.00192126 0 0.00582045 -0.00185816 0 0.00651406 -0.00175922 0
          0.00716348 -0.00162821 0 0.00775708 -0.00146892 0 0.00828467 -0.00128511 0 0.00873755 -0.00108056 0
          0.00910842 -0.000859048 0 0.00939147 -0.000624344 0 0.00958235 -0.000380225 0 0.00967812 -0.000130468 0
          0.00967735 0.000121153 0 0.00958002 0.000370863 0 0.00938758 0.000614885 0 0.00910294 0.000849446 0
          0.00873046 0.00107077 0 0.00827595 0.0012751 0 0.00774668 0.00145864 0 0.00715136 0.00161765 0
          0.00650017 0.00174836 0 0.00580472 0.00184702 0 0.00507809 0.00190988 0 0.00433479 0.00193321 0
          0.00359079 0.0019133 0 0.00286349 0.00184646 0 0.00217174 0.00172906 0 0.00153581 0.0015575 0
          0.000977418 0.00132828 0 0.000519706 0.00103801 0 0.000187286 0.000683446 0 6.2658e-06 0.000261486 0
          5.26744e-05 -0.000353845 0 0.000249661 -0.00095774 0 0.000615059 -0.00146328 0 0.00111993 -0.00187587 0
          0.00173691 -0.00220087 0 0.00244025 -0.00244364 0 0.00320578 -0.00260951 0 0.00401093 -0.00270378 0
          0.00483476 -0.00273177 0 0.00565791 -0.00269879 0 0.00646265 -0.00261015 0 0.00723282 -0.00247113 0
          0.00795392 -0.00228705 0 0.00861303 -0.00206321 0 0.00919884 -0.00180492 0 0.00970167 -0.00151747 0
          0.0101135 -0.00120617 0 0.0104277 -0.000876335 0 0.0106396 -0.000533263 0 0.0107459 -0.00018226 0
          0.010745 0.000171367 0 0.0106368 0.000522313 0 0.0104231 0.000865271 0 0.0101069 0.00119494 0
          0.00969325 0.00150601 0 0.00918846 0.00179319 0 0.00860064 0.00205117 0 0.00793946 0.00227467 0
          0.00721622 0.00245839 0 0.00644381 0.00259706 0 0.00563675 0.0026854 0 0.00481115 0.00271816 0
          0.00398474 0.00269009 0 0.00317685 0.00259601 0 0.0024084 0.00243072 0 0.00170193 0.00218913 0
          0.00108157 0.00186617 0 0.000573077 0.00145688 0 0.000203822 0.000956396 0 2.8517e-06 0.000359922 0
          5.61763e-05 -0.000464596 0 0.000266419 -0.00125768 0 0.000656559 -0.00192171 0 0.00119567 -0.00246371 0
          0.00185454 -0.0028907 0 0.00260564 -0.00320968 0 0.00342316 -0.00342762 0 0.00428301 -0.00355151 0
          0.0051628 -0.00358832 0 0.00604185 -0.00354501 0 0.00690124 -0.00342855 0 0.00772371 -0.00324591 0
          0.00849377 -0.00300406 0 0.00919762 -0.00270996 0 0.00982319 -0.00237058 0 0.0103601 -0.0019929 0
          0.0107998 -0.00158387 0 0.0111354 -0.00115048 0 0.0113616 -0.000699696 0 0.0114751 -0.000238484 0
          0.011474 0.000226181 0 0.0113585 0.000687327 0 0.0111301 0.00113798 0 0.0107924 0.00157118 0
          0.0103505 0.00197995 0 0.0098113 0.00235732 0 0.00918342 0.00269634 0 0.00847718 0.00299004 0
          0.00770463 0.00323147 0 0.00687956 0.00341369 0 0.00601746 0.00352976 0 0.00513554 0.00357277 0
          0.00425272 0.00353581 0 0.00338965 0.00341201 0 0.0025687 0.00319453 0 0.00181394 0.00287658 0
          0.00115116 0.00245141 0 0.000607902 0.00191234 0 0.000213442 0.00125275 0 -1.17704e-06 0.00046603 0
          5.81411e-05 -0.000581081 0 0.000275874 -0.00157314 0 0.000680043 -0.00240385 0 0.0012386 -0.00308196 0
          0.00192125 -0.0036162 0 0.00269947 -0.00401532 0 0.00354653 -0.00428804 0 0.00443744 -0.00444307 0
          0.00534901 -0.00448914 0 0.00625983 -0.00443497 0 0.00715025 -0.00428926 0 0.00800243 -0.00406073 0
          0.00880029 -0.00375811 0 0.00952954 -0.00339011 0 0.0101777 -0.00296546 0 0.010734 -0.00249286 0
          0.0111895 -0.00198104 0 0.0115372 -0.00143873 0 0.0117715 -0.000874641 0 0.011889 -0.000297508 0
          0.0118878 0.000283951 0 0.011768 0.000861011 0 0.0115313 0.00142495 0 0.0111813 0.00196704 0
          0.0107233 0.00247857 0 0.0101645 0.00295082 0 0.00951374 0.00337508 0 0.00878181 0.00374262 0
          0.00798116 0.00404476 0 0.00712607 0.00427279 0 0.00623258 0.00441802 0 0.00531853 0.0044718 0
          0.00440354 0.00442545 0 0.003509 0.00427036 0 0.00265809 0.00399791 0 0.00187577 0.00359955 0
          0.00118879 0.00306674 0 0.000625697 0.00239098 0 0.00021686 0.00156383 0 -5.54204e-06 0.00057683 0
          5.86851e-05 -0.000700274 0 0.000278573 -0.00189592 0 0.000686853 -0.00289716 0 0.00125113 -0.00371452 0
          0.00194081 -0.0043585 0 0.00272705 -0.00483962 0 0.00358284 -0.00516837 0 0.00448294 -0.00535527 0
          0.00540392 -0.00541082 0 0.00632412 -0.00534552 0 0.00722372 -0.00516988 0 0.00808468 -0.00489441 0
          0.00889075 -0.00452961 0 0.00962749 -0.00408599 0 0.0102823 -0.00357406 0 0.0108443 -0.00300434 0
          0.0113045 -0.00238735 0 0.0116556 -0.00173358 0 0.0118923 -0.00105357 0 0.0120109 -0.000357817 0
          0.0120097 0.00034315 0 0.0118885 0.00103882 0 0.0116493 0.00171867 0 0.0112955 0.0023722 0
          0.0108327 0.00298888 0 0.0102679 0.00355821 0 0.00961032 0.00406968 0 0.00887066 0.00451279 0
          0.00806155 0.00487704 0 0.00719741 0.00515194 0 0.00629446 0.00532701 0 0.00537072 0.00539178 0
          0.00444601 0.0053358 0 0.00354196 0.00514864 0 0.00268198 0.00481989 0 0.00189131 0.00433916 0
          0.001197 0.00369609 0 0.000627908 0.00288035 0 0.000214722 0.00188161 0 -1.00315e-05 0.000689552 0
          5.79237e-05 -0.000819376 0 0.00027506 -0.00221844 0 0.000678329 -0.00339007 0 0.00123572 -0.00434656 0
          0.001917 -0.00510018 0 0.00269368 -0.00566322 0 0.00353907 -0.00604796 0 0.00442823 -0.00626669 0
          0.00533801 -0.00633171 0 0.00624703 -0.00625529 0 0.00713569 -0.00604974 0 0.00798616 -0.00572735 0
          0.00878241 -0.00530042 0 0.00951018 -0.00478124 0 0.010157 -0.00418212 0 0.0107121 -0.00351536 0
          0.0111666 -0.00279327 0 0.0115135 -0.00202814 0 0.0117472 -0.00123228 0 0.0118643 -0.000418014 0
          0.011863 0.000402366 0 0.0117432 0.00121655 0 0.0115067 0.00201223 0 0.0111571 0.0027771 0
          0.0106997 0.00349885 0 0.0101417 0.00416519 0 0.00949191 0.00476381 0 0.00876103 0.00528242 0
          0.00796153 0.00570873 0 0.00710766 0.00603045 0 0.00621543 0.00623532 0 0.00530265 0.00631106 0
          0.00438891 0.00624543 0 0.00349555 0.00602619 0 0.00264575 0.00564113 0 0.00186442 0.00507802 0
          0.00117831 0.0043247 0 0.000615933 0.00336898 0 0.000207622 0.00219869 0 -1.44849e-05 0.000801636 0
          5.59716e-05 -0.00093582 0 0.000265879 -0.00253375 0 0.000655808 -0.00387197 0 0.0011948 -0.00496447 0
          0.0018536 -0.00582527 0 0.00260467 -0.00646839 0 0.00342218 -0.00690786 0 0.00428202 -0.00715771 0
          0.0051618 -0.00723198 0 0.00604084 -0.00714469 0 0.00690018 -0.0069099 0 0.0077226 -0.00654164 0
          0.00849257 -0.00605396 0 0.00919631 -0.00546091 0 0.00982174 -0.00477655 0 0.0103585 -0.00401491 0
          0.010798 -0.00319007 0 0.0111333 -0.00231606 0 0.0113593 -0.00140696 0 0.0114724 -0.00047682 0
          0.011471 0.000460305 0 0.011355 0.00139035 0 0.0111262 0.00229927 0 0.010788 0.00317299 0
          0.0103456 0.00399747 0 0.00980578 0.00475864 0 0.00917721 0.00544246 0 0.00847022 0.00603488 0
          0.00769686 0.00652186 0 0.0068709 0.00688936 0 0.00600783 0.00712334 0 0.00512488 0.00720979 0
          0.00424098 0.0071347 0 0.00337679 0.00688406 0 0.00255473 0.00644388 0 0.0017989 0.00580019 0
          0.00113517 0.004939 0 0.000591129 0.00384635 0 0.000196116 0.00250826 0 -1.87827e-05 0.000910731 0
          5.29431e-05 -0.00104727 0 0.000251572 -0.00283554 0 0.000620626 -0.00433318 0 0.00113079 -0.00555585 0
          0.00175437 -0.00651923 0 0.0024653 -0.00723899 0 0.00323913 -0.00773084 0 0.00405302 -0.00801047 0
          0.00488578 -0.00809358 0 0.00571784 -0.00799589 0 0.00653125 -0.00773311 0 0.0073097 -0.00732095 0
          0.0080385 -0.00677513 0 0.0087046 -0.00611138 0 0.00929656 -0.00534543 0 0.0098046 -0.00449299 0
          0.0102205 -0.0035698 0 0.0105379 -0.0025916 0 0.0107517 -0.00157411 0 0.0108586 -0.000533071 0
          0.0108572 0.000515787 0 0.0107473 0.00155673 0 0.0105306 0.00257402 0 0.0102103 0.00355192 0
          0.00979131 0.00447471 0 0.00928015 0.00532665 0 0.00868497 0.00609201 0 0.00801554 0.00675507 0
          0.00728326 0.00730011 0 0.00650118 0.0077114 0 0.00568396 0.00797324 0 0.00484791 0.00806992 0
          0.00401095 0.00798574 0 0.00319266 0.00770502 0 0.00241424 0.00721205 0 0.00169853 0.00649117 0
          0.00107001 0.00552668 0 0.000554818 0.00430291 0 0.000180725 0.00280416 0 -2.28377e-05 0.0010147 0
          4.89522e-05 -0.00115163 0 0.000232681 -0.00311812 0 0.000574118 -0.00476503 0 0.00104614 -0.00610958 0
          0.0016231 -0.00716899 0 0.0022809 -0.00796051 0 0.00299689 -0.00850139 0 0.00374995 -0.0088089 0
          0.00452047 -0.0089003 0 0.00529034 -0.00879286 0 0.00604294 -0.00850387 0 0.00676319 -0.0080506 0
          0.0074375 -0.00745035 0 0.00805377 -0.0067204 0 0.00860144 -0.00587805 0 0.00907145 -0.0049406 0
          0.00945623 -0.00392533 0 0.00974975 -0.00284957 0 0.00994746 -0.0017306 0 0.0100463 -0.000585723 0
          0.0100449 0.00056775 0 0.00994305 0.00171252 0 0.00974237 0.00283128 0 0.00944584 0.00390672 0
          0.00905799 0.00492156 0 0.00858483 0.00585848 0 0.0080339 0.00670018 0 0.00741426 0.00742938 0
          0.00673646 0.00802877 0 0.00601255 0.00848106 0 0.00525613 0.00876896 0 0.00448226 0.0088752 0
          0.00370755 0.00878249 0 0.00295011 0.00847356 0 0.00222957 0.00793113 0 0.00156706 0.00713792 0
          0.000985238 0.00607667 0 0.000508298 0.00473007 0 0.000161944 0.00308084 0 -2.65893e-05 0.00111162 0
          4.41129e-05 -0.00124703 0 0.000209746 -0.00337643 0 0.000517619 -0.00515978 0 0.000943264 -0.00661573 0
          0.00146356 -0.00776292 0 0.00205675 -0.00862003 0 0.00270242 -0.00920573 0 0.00338153 -0.00953872 0
          0.00407638 -0.00963768 0 0.00477063 -0.00952134 0 0.0054493 -0.00920838 0 0.0060988 -0.00871754 0
          0.00670684 -0.00806752 0 0.00726255 -0.00727707 0 0.00775638 -0.00636489 0 0.00818016 -0.00534973 0
          0.00852707 -0.0042503 0 0.00879166 -0.00308536 0 0.00896985 -0.00187363 0 0.00905889 -0.000633848 0
          0.00905743 0.000615247 0 0.00896544 0.00185492 0 0.0087843 0.00306642 0 0.00851669 0.00423103 0
          0.00816672 0.00532999 0 0.0077398 0.00634459 0 0.00724273 0.00725607 0 0.00668368 0.0080457 0
          0.00607216 0.00869476 0 0.00541906 0.00918452 0 0.00473661 0.00949623 0 0.00403843 0.00961119 0
          0.00333948 0.00951066 0 0.00265609 0.00917591 0 0.00200598 0.00858823 0 0.00140821 0.00772888 0
          0.00088323 0.00657912 0 0.000452845 0.0051202 0 0.000140247 0.00333336 0 -2.9998e-05 0.00119979 0
          3.85391e-05 -0.00133183 0 0.000183309 -0.00360603 0 0.000452466 -0.00551067 0 0.000824608 -0.00706563 0
          0.00127952 -0.00829085 0 0.00179817 -0.00920626 0 0.00236271 -0.00983179 0 0.00295648 -0.0101874 0
          0.00356401 -0.0102931 0 0.00417101 -0.0101688 0 0.00476439 -0.00983459 0 0.00533224 -0.00931034 0
          0.00586384 -0.0086161 0 0.00634966 -0.00777186 0 0.00678137 -0.00679762 0 0.00715182 -0.00571338 0
          0.00745504 -0.00453915 0 0.00768628 -0.00329495 0 0.00784194 -0.00200077 0 0.00791965 -0.000676633 0
          0.00791821 0.00065745 0 0.0078376 0.00198147 0 0.00767902 0.00327541 0 0.00744482 0.00451925 0
          0.00713859 0.005693 0 0.00676506 0.00677662 0 0.00633018 0.00775011 0 0.00584108 0.00859347 0
          0.00530609 0.00928667 0 0.00473473 0.00980971 0 0.00413769 0.0101426 0 0.00352689 0.0102653 0
          0.0029154 0.0101577 0 0.00231752 0.00980003 0 0.00174874 0.00917209 0 0.00122572 0.0082539 0
          0.000766355 0.00702543 0 0.000389718 0.00546662 0 0.000116091 0.00355741 0 -3.3042e-05 0.00127769 0
          3.23446e-05 -0.00140463 0 0.000153911 -0.00380314 0 0.000379992 -0.00581189 0 0.000692602 -0.00745186 0
          0.00107475 -0.00874406 0 0.00151046 -0.0097095 0 0.00198471 -0.0103692 0 0.00248352 -0.0107443 0
          0.00299388 -0.0108558 0 0.00350379 -0.0107247 0 0.00400225 -0.0103721 0 0.00447924 -0.00981922 0
          0.00492578 -0.00908701 0 0.00533384 -0.0081966 0 0.00569643 -0.00716908 0 0.00600753 -0.00602555 0
          0.00626215 -0.00478712 0 0.00645627 -0.00347487 0 0.00658689 -0.00210993 0 0.006652 -0.000713386 0
          0.0066506 0.000693648 0 0.00658267 0.00209007 0 0.00644922 0.00345476 0 0.00625222 0.00476662 0
          0.00599469 0.00600454 0 0.0056806 0.00714742 0 0.00531495 0.00817414 0 0.00490374 0.00906359 0
          0.00445395 0.00979467 0 0.00397359 0.0103463 0 0.00347164 0.0106973 0 0.00295812 0.0108266 0
          0.00244401 0.010713 0 0.00194132 0.0103356 0 0.00146307 0.00967304 0 0.00102328 0.0087043 0
          0.000636962 0.00740821 0 0.00032016 0.00576361 0 8.99172e-05 0.00374929 0 -3.57132e-05 0.00134406 0
          2.56432e-05 -0.00146426 0 0.000122093 -0.0039646 0 0.000301533 -0.00605863 0 0.000549679 -0.00776821 0
          0.00085304 -0.00911526 0 0.00119892 -0.0101217 0 0.0015754 -0.0108094 0 0.00197137 -0.0112004 0
          0.0023765 -0.0113166 0 0.00278127 -0.0111799 0 0.00317693 -0.0108124 0 0.00355555 -0.010236 0
          0.00390996 -0.00947271 0 0.00423382 -0.00854448 0 0.00452156 -0.00747333 0 0.0047684 -0.00628125 0
          0.00497039 -0.00499022 0 0.00512433 -0.00362226 0 0.00522783 -0.00219936 0 0.00527931 -0.000743526 0
          0.00527797 0.000723247 0 0.00522379 0.00217895 0 0.00511756 0.00360159 0 0.00496088 0.00496915 0
          0.0047561 0.00625962 0 0.00450641 0.00745101 0 0.00421577 0.00852131 0 0.00388892 0.00944851 0
          0.00353144 0.0102106 0 0.00314966 0.0107856 0 0.00275072 0.0111514 0 0.00234257 0.0112861 0
          0.00193395 0.0111676 0 0.00153439 0.0107739 0 0.00115422 0.010083 0 0.000804574 0.00907285 0
          0.000497392 0.00772133 0 0.000245407 0.00600639 0 6.21577e-05 0.00390593 0 -3.80148e-05 0.00139782 0
          1.85486e-05 -0.00150978 0 8.8397e-05 -0.00408786 0 0.000218425 -0.00624699 0 0.000398272 -0.00800973 0
          0.000618153 -0.00939866 0 0.000868856 -0.0104364 0 0.00114174 -0.0111455 0 0.00142875 -0.0115486 0
          0.0017224 -0.0116684 0 0.00201576 -0.0115275 0 0.00230251 -0.0111485 0 0.00257688 -0.0105542 0
          0.00283369 -0.00976715 0 0.00306833 -0.00881006 0 0.00327676 -0.0077056 0 0.00345553 -0.00647646 0
          0.00360176 -0.0051453 0 0.00371313 -0.00373481 0 0.00378791 -0.00226768 0 0.00382496 -0.000766591 0
          0.00382369 0.000745774 0 0.00378409 0.00224673 0 0.00370673 0.00371358 0 0.00359277 0.00512364 0
          0.00344392 0.00645422 0 0.00326248 0.00768263 0 0.00305133 0.00878618 0 0.00281391 0.00974217 0
          0.00255424 0.0105279 0 0.00227694 0.0111207 0 0.00198718 0.0114978 0 0.00169072 0.0116366 0
          0.00139389 0.0115143 0 0.00110362 0.0111082 0 0.000827395 0.0103956 0 0.000573293 0.00935376 0
          0.000349975 0.00795987 0 0.000166682 0.00619117 0 3.32351e-05 0.00402487 0 -3.99586e-05 0.00143813 0
          1.11746e-05 -0.0015405 0 5.33628e-05 -0.00417104 0 0.000132003 -0.0063741 0 0.000240815 -0.0081727 0
          0.00037387 -0.00958987 0 0.000525583 -0.0106487 0 0.000690721 -0.0113722 0 0.000864398 -0.0117835 0
          0.00104208 -0.0119057 0 0.00121957 -0.011762 0 0.00139303 -0.0113753 0 0.00155898 -0.0107689 0
          0.00171427 -0.0099658 0 0.00185611 -0.00898924 0 0.00198206 -0.00786232 0 0.00209003 -0.00660818 0
          0.00217826 -0.00524996 0 0.00224536 -0.00381079 0 0.00229028 -0.00231384 0 0.00231232 -0.000782236 0
          0.00231113 0.000760869 0 0.00228671 0.00229233 0 0.0022394 0.00378899 0 0.00216989 0.0052277 0
          0.00207923 0.00658532 0 0.0019688 0.00783868 0 0.00184034 0.00896464 0 0.00169595 0.00994004 0
          0.00153806 0.0107417 0 0.00136945 0.0113465 0 0.00119327 0.0117312 0 0.001013 0.0118727 0
          0.000832483 0.0117478 0 0.000655907 0.0113333 0 0.000487817 0.010606 0 0.00033311 0.00954271 0
          0.000197038 0.00812014 0 8.5203e-05 0.00631508 0 3.56523e-06 0.00410425 0 -4.15632e-05 0.00146435 0
          3.63507e-06 -0.00155595 0 1.75322e-05 -0.00421286 0 4.36026e-05 -0.006438 0 7.9743e-05 -0.00825463 0
          0.000123967 -0.009686 0 0.000174404 -0.0107554 0 0.000229302 -0.0114862 0 0.000287027 -0.0119016 0
          0.000346059 -0.012025 0 0.000404998 -0.0118798 0 0.00046256 -0.0114892 0 0.000517579 -0.0108767 0
          0.000569007 -0.0100656 0 0.000615909 -0.0090793 0 0.000657471 -0.0079411 0 0.000692993 -0.00667441 0
          0.000721894 -0.00530261 0 0.000743705 -0.00384906 0 0.000758078 -0.00233714 0 0.000764778 -0.000790228 0
          0.000763687 0.000768294 0 0.000754803 0.00231505 0 0.000738238 0.00382666 0 0.000714224 0.00527974 0
          0.000683105 0.00665091 0 0.000645344 0.00791678 0 0.00060152 0.00905396 0 0.000552326 0.0100391 0
          0.000498576 0.0108487 0 0.000441199 0.0114595 0 0.000381241 0.011848 0 0.000319868 0.0119908 0
          0.000258365 0.0118645 0 0.000198133 0.0114457 0 0.000140696 0.010711 0 8.76966e-05 0.00963679 0
          4.08981e-05 0.00819971 0 2.18416e-06 0.00637624 0 -2.64408e-05 0.00414287 0 -4.28521e-05 0.00147606 0
          -3.95627e-06 -0.0015559 0 -1.85537e-05 -0.0042127 0 -4.544e-05 -0.00643775 0 -8.25113e-05 -0.00825428 0
          -0.00012778 -0.00968558 0 -0.000179375 -0.0107549 0 -0.000235539 -0.0114857 0 -0.000294634 -0.011901 0
          -0.000355136 -0.0120245 0 -0.000415636 -0.0118792 0 -0.000474845 -0.0114887 0 -0.000531585 -0.0108762 0
          -0.0005848 -0.0100651 0 -0.000633548 -0.00907887 0 -0.000677004 -0.00794075 0 -0.000714462 -0.00667416 0
          -0.000745332 -0.00530246 0 -0.000769144 -0.00384902 0 -0.000785543 -0.00233723 0 -0.000794294 -0.000790455 0
          -0.00079528 0.000767929 0 -0.000788501 0.00231454 0 -0.000774077 0.00382601 0 -0.000752245 0.00527895 0
          -0.000723361 0.00664998 0 -0.000687896 0.00791572 0 -0.000646443 0.00905277 0 -0.00059971 0.0100378 0
          -0.000548522 0.0108473 0 -0.000493822 0.011458 0 -0.000436668 0.0118464 0 -0.000378237 0.0119891 0
          -0.000319819 0.0118627 0 -0.00026282 0.0114438 0 -0.000208762 0.0107089 0 -0.000159281 0.00963457 0
          -0.000116127 0.00819733 0 -8.11648e-05 0.00637369 0 -5.6375e-05 0.00414012 0 -4.38517e-05 0.00147307 0
          -1.14856e-05 -0.00154033 0 -5.43538e-05 -0.00417055 0 -0.000133789 -0.00637332 0 -0.000243513 -0.00817167 0
          -0.000377593 -0.00958862 0 -0.000530445 -0.0106473 0 -0.000696831 -0.0113706 0 -0.00087186 -0.0117818 0
          -0.00105099 -0.011904 0 -0.00123003 -0.0117602 0 -0.00140512 -0.0113736 0 -0.00157278 -0.0107672 0
          -0.00172984 -0.00996432 0 -0.00187351 -0.00898795 0 -0.00200134 -0.00786127 0 -0.00211123 -0.00660741 0
          -0.00220141 -0.0052495 0 -0.0022705 -0.00381069 0 -0.00231743 -0.00231412 0 -0.00234151 -0.000782916 0
          -0.00234239 0.000759771 0 -0.00232006 0.0022908 0 -0.00227487 0.00378704 0 -0.00220753 0.00522533 0
          -0.00211909 0.00658253 0 -0.00201094 0.00783549 0 -0.00188484 0.00896107 0 -0.00174289 0.0099361 0
          -0.00158755 0.0107374 0 -0.00142161 0.0113419 0 -0.00124821 0.0117263 0 -0.00107087 0.0118675 0
          -0.000893426 0.0117423 0 -0.000720071 0.0113274 0 -0.000555351 0.0105998 0 -0.000404155 0.00953606 0
          -0.000271721 0.00811304 0 -0.000163635 0.00630745 0 -8.58311e-05 0.00409601 0 -4.45902e-05 0.00145539 0
          -1.88393e-05 -0.00150949 0 -8.93272e-05 -0.00408705 0 -0.00022011 -0.0062457 0 -0.000400829 -0.00800801 0
          -0.000621697 -0.00939657 0 -0.0008735 -0.010434 0 -0.0011476 -0.0111428 0 -0.00143592 -0.0115458 0
          -0.00173099 -0.0116655 0 -0.00202586 -0.0115246 0 -0.00231421 -0.0111457 0 -0.00259026 -0.0105515 0
          -0.00284881 -0.00976467 0 -0.00308525 -0.0088079 0 -0.00329553 -0.00770384 0 -0.0034762 -0.00647516 0
          -0.00362435 -0.00514454 0 -0.00373768 -0.00373464 0 -0.00381445 -0.00226815 0 -0.0038535 -0.000767729 0
          -0.00385426 0.000743938 0 -0.00381673 0.00224418 0 -0.00374147 0.00371031 0 -0.00362965 0.00511966 0
          -0.00348299 0.00644955 0 -0.0033038 0.0076773 0 -0.00309497 0.0087802 0 -0.00285997 0.00973559 0
          -0.00260282 0.0105208 0 -0.00232815 0.011113 0 -0.00204115 0.0114896 0 -0.00174759 0.0116279 0
          -0.00145382 0.0115051 0 -0.00116674 0.0110984 0 -0.000893866 0.0103852 0 -0.000643261 0.00934271 0
          -0.000423571 0.00794807 0 -0.00024402 0.0061785 0 -0.000114403 0.00401118 0 -4.50961e-05 0.00142326 0
          -2.59036e-05 -0.00146385 0 -0.000122933 -0.00396345 0 -0.000303067 -0.00605681 0 -0.000552025 -0.0077658 0
          -0.000856314 -0.00911233 0 -0.00120323 -0.0101183 0 -0.00158087 -0.0108057 0 -0.0019781 -0.0111964 0
          -0.0023846 -0.0113125 0 -0.00279083 -0.0111758 0 -0.00318805 -0.0108084 0 -0.00356829 -0.0102322 0
          -0.0039244 -0.00946921 0 -0.00425001 -0.00854143 0 -0.00453956 -0.00747084 0 -0.00478826 -0.00627941 0
          -0.00499213 -0.00498914 0 -0.00514798 -0.00362201 0 -0.00525343 -0.00220001 0 -0.00530687 -0.000745125 0
          -0.00530752 0.000720662 0 -0.00525536 0.00217536 0 -0.00515119 0.00359699 0 -0.0049966 0.00496355 0
          -0.00479398 0.00625305 0 -0.00454649 0.0074435 0 -0.00425813 0.0085129 0 -0.00393366 0.00943924 0
          -0.00357865 0.0102005 0 -0.00319946 0.0107747 0 -0.00280324 0.0111398 0 -0.00239796 0.0112738 0
          -0.00199235 0.0111546 0 -0.00159595 0.0107602 0 -0.0012191 0.0100685 0 -0.000872932 0.00905743 0
          -0.000569361 0.00770488 0 -0.000321108 0.00598875 0 -0.000141684 0.00388689 0 -4.5397e-05 0.00137713 0
          -3.25649e-05 -0.00140411 0 -0.00015463 -0.00380167 0 -0.000381325 -0.00580956 0 -0.000694667 -0.00744875 0
          -0.00107767 -0.00874028 0 -0.00151434 -0.00970515 0 -0.00198967 -0.0103644 0 -0.00248967 -0.0107392 0
          -0.00300133 -0.0108504 0 -0.00351263 -0.0107193 0 -0.00401257 -0.0103669 0 -0.00449114 -0.00981425 0
          -0.00493931 -0.00908247 0 -0.00534907 -0.00819263 0 -0.0057134 -0.00716583 0 -0.0060263 -0.00602316 0
          -0.00628274 -0.0047857 0 -0.00647872 -0.00347454 0 -0.00661122 -0.00211076 0 -0.00667825 -0.000715454 0
          -0.00667878 0.000690299 0 -0.00661282 0.00208541 0 -0.00648136 0.00344879 0 -0.00628641 0.00475936 0
          -0.00603096 0.00599602 0 -0.00571903 0.00713768 0 -0.00535561 0.00816324 0 -0.00494671 0.00905159 0
          -0.00449934 0.00978164 0 -0.00402151 0.0103323 0 -0.00352223 0.0106823 0 -0.00301152 0.0108107 0
          -0.00250037 0.0106963 0 -0.00200081 0.0103179 0 -0.00152585 0.00965441 0 -0.0010895 0.00868457 0
          -0.000706774 0.0073872 0 -0.00039369 0.00574109 0 -0.000167265 0.00372501 0 -4.55184e-05 0.00131769 0
          -3.87098e-05 -0.00133119 0 -0.000183878 -0.00360423 0 -0.00045355 -0.00550781 0 -0.000826324 -0.00706183 0
          -0.00128199 -0.00828621 0 -0.00180151 -0.00920091 0 -0.00236703 -0.00982588 0 -0.0029619 -0.0101811 0
          -0.00357064 -0.0102866 0 -0.00417895 -0.0101622 0 -0.00477373 -0.0098281 0 -0.00534307 -0.00930418 0
          -0.00587622 -0.00861046 0 -0.00636366 -0.00776693 0 -0.00679705 -0.00679358 0 -0.00716921 -0.0057104 0
          -0.00747418 -0.00453738 0 -0.0077072 -0.00329451 0 -0.00786468 -0.00200179 0 -0.00794423 -0.000679179 0
          -0.00794466 0.000653318 0 -0.00786595 0.00197572 0 -0.00770929 0.00326804 0 -0.00747707 0.00451028 0
          -0.00717286 0.00568247 0 -0.00680142 0.00676459 0 -0.0063687 0.00773667 0 -0.00588185 0.00857868 0
          -0.00534921 0.00927063 0 -0.00478032 0.00979249 0 -0.00418589 0.0101242 0 -0.00357783 0.0102459 0
          -0.00296925 0.0101373 0 -0.00237444 0.00977851 0 -0.0018089 0.00914941 0 -0.00128929 0.00822992 0
          -0.000833487 0.00699995 0 -0.000460551 0.00543937 0 -0.000190734 0.00352804 0 -4.54823e-05 0.00124581 0
          -4.42248e-05 -0.00124628 0 -0.000210138 -0.0033743 0 -0.000518407 -0.0051564 0 -0.000944565 -0.00661121 0
          -0.0014655 -0.00775741 0 -0.00205944 -0.00861367 0 -0.00270599 -0.00919868 0 -0.00338608 -0.00953117 0
          -0.00408203 -0.00962984 0 -0.00477749 -0.00951341 0 -0.00545746 -0.0092006 0 -0.00610834 -0.00871014 0
          -0.00671784 -0.00806074 0 -0.00727507 -0.00727113 0 -0.00777047 -0.00636002 0 -0.00819587 -0.00534612 0
          -0.00854445 -0.00424815 0 -0.00881074 -0.00308482 0 -0.00899065 -0.00187482 0 -0.00908145 -0.00063688 0
          -0.00908177 0.00061031 0 -0.0089916 0.00184804 0 -0.00881231 0.0030576 0 -0.0085466 0.00422029 0
          -0.00819857 0.0053174 0 -0.00777366 0.0063302 0 -0.00727868 0.00723999 0 -0.00672181 0.00802805 0
          -0.00611257 0.00867563 0 -0.00546186 0.00916402 0 -0.00478194 0.00947446 0 -0.00408643 0.0095882 0
          -0.00339032 0.00948648 0 -0.00270995 0.00915052 0 -0.00206303 0.00856155 0 -0.00146863 0.00770074 0
          -0.000947178 0.0065493 0 -0.000520473 0.00508837 0 -0.000211674 0.00329911 0 -4.5307e-05 0.00116263 0
          -4.8997e-05 -0.00115077 0 -0.000232871 -0.00311567 0 -0.000574567 -0.00476113 0 -0.00104696 -0.00610435 0