<?xml version="1.0"?>
<VTKFile type="UnstructuredGrid" version="0.1" byte_order="LittleEndian">
  <UnstructuredGrid>
    <Piece NumberOfCells="512" NumberOfPoints="729">
      <CellData Scalars="wetting potential" Vectors="wetting-velocity">
        <DataArray type="Float32" Name="wetting potential" NumberOfComponents="1" format="ascii">
          1.22708 1.17091 1.15666 1.1814 1.19659 1.1652 1.15214 1.16905 1.13775 1.11948 1.11676 1.13361
          1.13824 1.12062 1.11743 1.13312 1.12596 1.11188 1.10696 1.11625 1.12494 1.11189 1.10649 1.11481
          1.15114 1.14065 1.12728 1.13358 1.14607 1.1375 1.12473 1.13017 1.17117 1.15538 1.14412 1.15431
          1.1547 1.14553 1.13534 1.14177 1.13626 1.12047 1.11632 1.13009 1.13223 1.11892 1.11339 1.12519
          1.12132 1.11016 1.10522 1.11126 1.11534 1.10739 1.10405 1.10708 1.13772 1.13145 1.11942 1.12401
          1.12856 1.12398 1.11214 1.11578 1.10935 1.10614 1.10555 1.10767 1.11019 1.10617 1.10544 1.10808
          1.10538 1.10504 1.10461 1.10492 1.10525 1.10487 1.10437 1.10473 1.10411 1.10385 1.10288 1.10311
          1.10383 1.10353 1.10243 1.1027 1.10549 1.10464 1.10356 1.10423 1.10541 1.10444 1.10323 1.10403
          1.11024 1.10592 1.10509 1.10751 1.10915 1.10545 1.10458 1.1063 1.10496 1.10453 1.10392 1.10431
          1.10453 1.10407 1.1033 1.10372 1.10325 1.10291 1.10154 1.10186 1.10243 1.10205 1.10029 1.10067
          1.10492 1.10394 1.10248 1.10341 1.10431 1.1032 1.1014 1.10244 1.12041 1.11514 1.10724 1.11019
          1.11722 1.1129 1.10602 1.10799 1.10839 1.10442 1.10302 1.10479 1.1071 1.10405 1.10249 1.10421
          1.10353 1.10204 1.10153 1.10289 1.10288 1.10132 1.10061 1.10212 1.10555 1.10486 1.10407 1.10474
          1.10486 1.10419 1.10336 1.10404 1.11194 1.10889 1.10442 1.10536 1.10676 1.10522 1.10301 1.10372
          1.10514 1.10311 1.1013 1.10305 1.1036 1.10181 1.09966 1.10158 1.10157 1.09979 1.09871 1.10064
          1.09995 1.0977 1.09616 1.09884 1.1037 1.10297 1.10208 1.10284 1.10232 1.10152 1.10059 1.10145
          1.10307 1.10246 1.10143 1.10195 1.10265 1.10193 1.10067 1.10131 1.10206 1.10185 1.1009 1.10108
          1.10145 1.1012 1.09998 1.10022 1.10032 1.10016 1.09974 1.0999 1.09916 1.09894 1.09821 1.09845
          1.1011 1.10064 1.1002 1.10064 1.10022 1.0996 1.09889 1.09951 1.10168 1.10082 1.09905 1.09991
          1.10027 1.09919 1.09659 1.0979 1.10021 1.0999 1.09808 1.09841 1.0984 1.09798 1.09503 1.09558
          1.09665 1.09627 1.09474 1.09518 1.09229 1.0915 1.08783 1.08897 1.09831 1.09735 1.09599 1.09707
          1.09547 1.09371 1.09096 1.09333 1.13663 1.13189 1.12392 1.12784 1.11803 1.11591 1.11099 1.11306
          1.12375 1.11359 1.109 1.11654 1.11152 1.10719 1.10568 1.10783 1.10898 1.10529 1.103 1.10468
          1.10529 1.10398 1.10212 1.1034 1.11723 1.11391 1.10649 1.10837 1.10774 1.10653 1.10433 1.10476
          1.10721 1.10651 1.10543 1.1058 1.10484 1.10471 1.10433 1.10449 1.1056 1.10482 1.10416 1.10488
          1.10444 1.104 1.10352 1.104 1.10384 1.10302 1.10155 1.10249 1.10319 1.10265 1.10148 1.10213
          1.10465 1.10439 1.10313 1.10345 1.10376 1.10357 1.10257 1.10279 1.10685 1.10472 1.10374 1.10517
          1.10504 1.10348 1.10256 1.10402 1.10367 1.10315 1.10228 1.10277 1.10238 1.10182 1.10094 1.1015
          1.10129 1.10083 1.09868 1.09919 1.09995 1.09935 1.09687 1.09762 1.1035 1.10219 1.10014 1.10142
          1.10251 1.10106 1.09894 1.10056 1.10372 1.10235 1.10159 1.103 1.10312 1.10182 1.10117 1.10259
          1.10125 1.10065 1.09979 1.10044 1.10065 1.09998 1.09915 1.0999 1.09886 1.09809 1.09529 1.09635
          1.09833 1.09738 1.09438 1.09577 1.10175 1.10018 1.09811 1.10006 1.10157 1.09989 1.09794 1.10013
          1.10426 1.10367 1.10186 1.10254 1.10306 1.10258 1.10113 1.1017 1.10243 1.10073 1.09851 1.1005
          1.10159 1.10015 1.09823 1.09998 1.09895 1.09648 1.09495 1.0979 1.09871 1.09657 1.09547 1.09791
          1.10129 1.10052 1.09968 1.10053 1.10068 1.10004 1.09938 1.10007 1.1022 1.10182 1.10065 1.10109
          1.10174 1.10148 1.10046 1.10077 1.10107 1.09993 1.09836 1.09975 1.10094 1.10014 1.09885 1.09982
          1.09871 1.09707 1.09628 1.0981 1.09894 1.09781 1.09723 1.09845 1.10024 1.09974 1.09922 1.09976
          1.10002 1.09966 1.09922 1.0996 1.099 1.0975 1.09419 1.09629 1.09826 1.09614 1.09256 1.09572
          1.0963 1.09564 1.09135 1.0924 1.09425 1.09312 1.08737 1.08942 1.08733 1.08551 1.07878 1.08177
          1.0828 1.07872 1.06852 1.07569 1.09344 1.09027 1.08637 1.09096 1.09323 1.08839 1.08463 1.09139
          1.09803 1.0953 1.09171 1.09584 1.0984 1.09529 1.09203 1.0966 1.09258 1.09081 1.08326 1.08686
          1.09184 1.08942 1.08069 1.08578 1.07846 1.06956 1.05075 1.06929 1.07653 1.06104 1.01979 1.06646
          1.09388 1.08777 1.0848 1.09264 1.09507 1.08876 1.08682 1.09413
        </DataArray>
        <DataArray type="Float32" Name="wetting pressure" NumberOfComponents="1" format="ascii">
          1.22708 1.17091 1.15666 1.1814 1.19659 1.1652 1.15214 1.16905 1.13775 1.11948 1.11676 1.13361
          1.13824 1.12062 1.11743 1.13312 1.12596 1.11188 1.10696 1.11625 1.12494 1.11189 1.10649 1.11481
          1.15114 1.14065 1.12728 1.13358 1.14607 1.1375 1.12473 1.13017 1.17117 1.15538 1.14412 1.15431
          1.1547 1.14553 1.13534 1.14177 1.13626 1.12047 1.11632 1.13009 1.13223 1.11892 1.11339 1.12519
          1.12132 1.11016 1.10522 1.11126 1.11534 1.10739 1.10405 1.10708 1.13772 1.13145 1.11942 1.12401
          1.12856 1.12398 1.11214 1.11578 1.10935 1.10614 1.10555 1.10767 1.11019 1.10617 1.10544 1.10808
          1.10538 1.10504 1.10461 1.10492 1.10525 1.10487 1.10437 1.10473 1.10411 1.10385 1.10288 1.10311
          1.10383 1.10353 1.10243 1.1027 1.10549 1.10464 1.10356 1.10423 1.10541 1.10444 1.10323 1.10403
          1.11024 1.10592 1.10509 1.10751 1.10915 1.10545 1.10458 1.1063 1.10496 1.10453 1.10392 1.10431
          1.10453 1.10407 1.1033 1.10372 1.10325 1.10291 1.10154 1.10186 1.10243 1.10205 1.10029 1.10067
          1.10492 1.10394 1.10248 1.10341 1.10431 1.1032 1.1014 1.10244 1.12041 1.11514 1.10724 1.11019
          1.11722 1.1129 1.10602 1.10799 1.10839 1.10442 1.10302 1.10479 1.1071 1.10405 1.10249 1.10421
          1.10353 1.10204 1.10153 1.10289 1.10288 1.10132 1.10061 1.10212 1.10555 1.10486 1.10407 1.10474
          1.10486 1.10419 1.10336 1.10404 1.11194 1.10889 1.10442 1.10536 1.10676 1.10522 1.10301 1.10372
          1.10514 1.10311 1.1013 1.10305 1.1036 1.10181 1.09966 1.10158 1.10157 1.09979 1.09871 1.10064
          1.09995 1.0977 1.09616 1.09884 1.1037 1.10297 1.10208 1.10284 1.10232 1.10152 1.10059 1.10145
          1.10307 1.10246 1.10143 1.10195 1.10265 1.10193 1.10067 1.10131 1.10206 1.10185 1.1009 1.10108
          1.10145 1.1012 1.09998 1.10022 1.10032 1.10016 1.09974 1.0999 1.09916 1.09894 1.09821 1.09845
          1.1011 1.10064 1.1002 1.10064 1.10022 1.0996 1.09889 1.09951 1.10168 1.10082 1.09905 1.09991
          1.10027 1.09919 1.09659 1.0979 1.10021 1.0999 1.09808 1.09841 1.0984 1.09798 1.09503 1.09558
          1.09665 1.09627 1.09474 1.09518 1.09229 1.0915 1.08783 1.08897 1.09831 1.09735 1.09599 1.09707
          1.09547 1.09371 1.09096 1.09333 1.13663 1.13189 1.12392 1.12784 1.11803 1.11591 1.11099 1.11306
          1.12375 1.11359 1.109 1.11654 1.11152 1.10719 1.10568 1.10783 1.10898 1.10529 1.103 1.10468
          1.10529 1.10398 1.10212 1.1034 1.11723 1.11391 1.10649 1.10837 1.10774 1.10653 1.10433 1.10476
          1.10721 1.10651 1.10543 1.1058 1.10484 1.10471 1.10433 1.10449 1.1056 1.10482 1.10416 1.10488
          1.10444 1.104 1.10352 1.104 1.10384 1.10302 1.10155 1.10249 1.10319 1.10265 1.10148 1.10213
          1.10465 1.10439 1.10313 1.10345 1.10376 1.10357 1.10257 1.10279 1.10685 1.10472 1.10374 1.10517
          1.10504 1.10348 1.10256 1.10402 1.10367 1.10315 1.10228 1.10277 1.10238 1.10182 1.10094 1.1015
          1.10129 1.10083 1.09868 1.09919 1.09995 1.09935 1.09687 1.09762 1.1035 1.10219 1.10014 1.10142
          1.10251 1.10106 1.09894 1.10056 1.10372 1.10235 1.10159 1.103 1.10312 1.10182 1.10117 1.10259
          1.10125 1.10065 1.09979 1.10044 1.10065 1.09998 1.09915 1.0999 1.09886 1.09809 1.09529 1.09635
          1.09833 1.09738 1.09438 1.09577 1.10175 1.10018 1.09811 1.10006 1.10157 1.09989 1.09794 1.10013
          1.10426 1.10367 1.10186 1.10254 1.10306 1.10258 1.10113 1.1017 1.10243 1.10073 1.09851 1.1005
          1.10159 1.10015 1.09823 1.09998 1.09895 1.09648 1.09495 1.0979 1.09871 1.09657 1.09547 1.09791
          1.10129 1.10052 1.09968 1.10053 1.10068 1.10004 1.09938 1.10007 1.1022 1.10182 1.10065 1.10109
          1.10174 1.10148 1.10046 1.10077 1.10107 1.09993 1.09836 1.09975 1.10094 1.10014 1.09885 1.09982
          1.09871 1.09707 1.09628 1.0981 1.09894 1.09781 1.09723 1.09845 1.10024 1.09974 1.09922 1.09976
          1.10002 1.09966 1.09922 1.0996 1.099 1.0975 1.09419 1.09629 1.09826 1.09614 1.09256 1.09572
          1.0963 1.09564 1.09135 1.0924 1.09425 1.09312 1.08737 1.08942 1.08733 1.08551 1.07878 1.08177
          1.0828 1.07872 1.06852 1.07569 1.09344 1.09027 1.08637 1.09096 1.09323 1.08839 1.08463 1.09139
          1.09803 1.0953 1.09171 1.09584 1.0984 1.09529 1.09203 1.0966 1.09258 1.09081 1.08326 1.08686
          1.09184 1.08942 1.08069 1.08578 1.07846 1.06956 1.05075 1.06929 1.07653 1.06104 1.01979 1.06646
          1.09388 1.08777 1.0848 1.09264 1.09507 1.08876 1.08682 1.09413
        </DataArray>
        <DataArray type="Float32" Name="nonwetting pressure" NumberOfComponents="1" format="ascii">
          1.22708 1.17091 1.15666 1.1814 1.19659 1.1652 1.15214 1.16905 1.13775 1.11948 1.11676 1.13361
          1.13824 1.12062 1.11743 1.13312 1.12596 1.11188 1.10696 1.11625 1.12494 1.11189 1.10649 1.11481
          1.15114 1.14065 1.12728 1.13358 1.14607 1.1375 1.12473 1.13017 1.17117 1.15538 1.14412 1.15431
          1.1547 1.14553 1.13534 1.14177 1.13626 1.12047 1.11632 1.13009 1.13223 1.11892 1.11339 1.12519
          1.12132 1.11016 1.10522 1.11126 1.11534 1.10739 1.10405 1.10708 1.13772 1.13145 1.11942 1.12401
          1.12856 1.12398 1.11214 1.11578 1.10935 1.10614 1.10555 1.10767 1.11019 1.10617 1.10544 1.10808
          1.10538 1.10504 1.10461 1.10492 1.10525 1.10487 1.10437 1.10473 1.10411 1.10385 1.10288 1.10311
          1.10383 1.10353 1.10243 1.1027 1.10549 1.10464 1.10356 1.10423 1.10541 1.10444 1.10323 1.10403
          1.11024 1.10592 1.10509 1.10751 1.10915 1.10545 1.10458 1.1063 1.10496 1.10453 1.10392 1.10431
          1.10453 1.10407 1.1033 1.10372 1.10325 1.10291 1.10154 1.10186 1.10243 1.10205 1.10029 1.10067
          1.10492 1.10394 1.10248 1.10341 1.10431 1.1032 1.1014 1.10244 1.12041 1.11514 1.10724 1.11019
          1.11722 1.1129 1.10602 1.10799 1.10839 1.10442 1.10302 1.10479 1.1071 1.10405 1.10249 1.10421
          1.10353 1.10204 1.10153 1.10289 1.10288 1.10132 1.10061 1.10212 1.10555 1.10486 1.10407 1.10474
          1.10486 1.10419 1.10336 1.10404 1.11194 1.10889 1.10442 1.10536 1.10676 1.10522 1.10301 1.10372
          1.10514 1.10311 1.1013 1.10305 1.1036 1.10181 1.09966 1.10158 1.10157 1.09979 1.09871 1.10064
          1.09995 1.0977 1.09616 1.09884 1.1037 1.10297 1.10208 1.10284 1.10232 1.10152 1.10059 1.10145
          1.10307 1.10246 1.10143 1.10195 1.10265 1.10193 1.10067 1.10131 1.10206 1.10185 1.1009 1.10108
          1.10145 1.1012 1.09998 1.10022 1.10032 1.10016 1.09974 1.0999 1.09916 1.09894 1.09821 1.09845
          1.1011 1.10064 1.1002 1.10064 1.10022 1.0996 1.09889 1.09951 1.10168 1.10082 1.09905 1.09991
          1.10027 1.09919 1.09659 1.0979 1.10021 1.0999 1.09808 1.09841 1.0984 1.09798 1.09503 1.09558
          1.09665 1.09627 1.09474 1.09518 1.09229 1.0915 1.08783 1.08897 1.09831 1.09735 1.09599 1.09707
          1.09547 1.09371 1.09096 1.09333 1.13663 1.13189 1.12392 1.12784 1.11803 1.11591 1.11099 1.11306
          1.12375 1.11359 1.109 1.11654 1.11152 1.10719 1.10568 1.10783 1.10898 1.10529 1.103 1.10468
          1.10529 1.10398 1.10212 1.1034 1.11723 1.11391 1.10649 1.10837 1.10774 1.10653 1.10433 1.10476
          1.10721 1.10651 1.10543 1.1058 1.10484 1.10471 1.10433 1.10449 1.1056 1.10482 1.10416 1.10488
          1.10444 1.104 1.10352 1.104 1.10384 1.10302 1.10155 1.10249 1.10319 1.10265 1.10148 1.10213
          1.10465 1.10439 1.10313 1.10345 1.10376 1.10357 1.10257 1.10279 1.10685 1.10472 1.10374 1.10517
          1.10504 1.10348 1.10256 1.10402 1.10367 1.10315 1.10228 1.10277 1.10238 1.10182 1.10094 1.1015
          1.10129 1.10083 1.09868 1.09919 1.09995 1.09935 1.09687 1.09762 1.1035 1.10219 1.10014 1.10142
          1.10251 1.10106 1.09894 1.10056 1.10372 1.10235 1.10159 1.103 1.10312 1.10182 1.10117 1.10259
          1.10125 1.10065 1.09979 1.10044 1.10065 1.09998 1.09915 1.0999 1.09886 1.09809 1.09529 1.09635
          1.09833 1.09738 1.09438 1.09577 1.10175 1.10018 1.09811 1.10006 1.10157 1.09989 1.09794 1.10013
          1.10426 1.10367 1.10186 1.10254 1.10306 1.10258 1.10113 1.1017 1.10243 1.10073 1.09851 1.1005
          1.10159 1.10015 1.09823 1.09998 1.09895 1.09648 1.09495 1.0979 1.09871 1.09657 1.09547 1.09791
          1.10129 1.10052 1.09968 1.10053 1.10068 1.10004 1.09938 1.10007 1.1022 1.10182 1.10065 1.10109
          1.10174 1.10148 1.10046 1.10077 1.10107 1.09993 1.09836 1.09975 1.10094 1.10014 1.09885 1.09982
          1.09871 1.09707 1.09628 1.0981 1.09894 1.09781 1.09723 1.09845 1.10024 1.09974 1.09922 1.09976
          1.10002 1.09966 1.09922 1.0996 1.099 1.0975 1.09419 1.09629 1.09826 1.09614 1.09256 1.09572
          1.0963 1.09564 1.09135 1.0924 1.09425 1.09312 1.08737 1.08942 1.08733 1.08551 1.07878 1.08177
          1.0828 1.07872 1.06852 1.07569 1.09344 1.09027 1.08637 1.09096 1.09323 1.08839 1.08463 1.09139
          1.09803 1.0953 1.09171 1.09584 1.0984 1.09529 1.09203 1.0966 1.09258 1.09081 1.08326 1.08686
          1.09184 1.08942 1.08069 1.08578 1.07846 1.06956 1.05075 1.06929 1.07653 1.06104 1.01979 1.06646
          1.09388 1.08777 1.0848 1.09264 1.09507 1.08876 1.08682 1.09413
        </DataArray>
        <DataArray type="Float32" Name="nonwetting potential" NumberOfComponents="1" format="ascii">
          1.22708 1.17091 1.15666 1.1814 1.19659 1.1652 1.15214 1.16905 1.13775 1.11948 1.11676 1.13361
          1.13824 1.12062 1.11743 1.13312 1.12596 1.11188 1.10696 1.11625 1.12494 1.11189 1.10649 1.11481
          1.15114 1.14065 1.12728 1.13358 1.14607 1.1375 1.12473 1.13017 1.17117 1.15538 1.14412 1.15431
          1.1547 1.14553 1.13534 1.14177 1.13626 1.12047 1.11632 1.13009 1.13223 1.11892 1.11339 1.12519
          1.12132 1.11016 1.10522 1.11126 1.11534 1.10739 1.10405 1.10708 1.13772 1.13145 1.11942 1.12401
          1.12856 1.12398 1.11214 1.11578 1.10935 1.10614 1.10555 1.10767 1.11019 1.10617 1.10544 1.10808
          1.10538 1.10504 1.10461 1.10492 1.10525 1.10487 1.10437 1.10473 1.10411 1.10385 1.10288 1.10311
          1.10383 1.10353 1.10243 1.1027 1.10549 1.10464 1.10356 1.10423 1.10541 1.10444 1.10323 1.10403
          1.11024 1.10592 1.10509 1.10751 1.10915 1.10545 1.10458 1.1063 1.10496 1.10453 1.10392 1.10431
          1.10453 1.10407 1.1033 1.10372 1.10325 1.10291 1.10154 1.10186 1.10243 1.10205 1.10029 1.10067
          1.10492 1.10394 1.10248 1.10341 1.10431 1.1032 1.1014 1.10244 1.12041 1.11514 1.10724 1.11019
          1.11722 1.1129 1.10602 1.10799 1.10839 1.10442 1.10302 1.10479 1.1071 1.10405 1.10249 1.10421
          1.10353 1.10204 1.10153 1.10289 1.10288 1.10132 1.10061 1.10212 1.10555 1.10486 1.10407 1.10474
          1.10486 1.10419 1.10336 1.10404 1.11194 1.10889 1.10442 1.10536 1.10676 1.10522 1.10301 1.10372
          1.10514 1.10311 1.1013 1.10305 1.1036 1.10181 1.09966 1.10158 1.10157 1.09979 1.09871 1.10064
          1.09995 1.0977 1.09616 1.09884 1.1037 1.10297 1.10208 1.10284 1.10232 1.10152 1.10059 1.10145
          1.10307 1.10246 1.10143 1.10195 1.10265 1.10193 1.10067 1.10131 1.10206 1.10185 1.1009 1.10108
          1.10145 1.1012 1.09998 1.10022 1.10032 1.10016 1.09974 1.0999 1.09916 1.09894 1.09821 1.09845
          1.1011 1.10064 1.1002 1.10064 1.10022 1.0996 1.09889 1.09951 1.10168 1.10082 1.09905 1.09991
          1.10027 1.09919 1.09659 1.0979 1.10021 1.0999 1.09808 1.09841 1.0984 1.09798 1.09503 1.09558
          1.09665 1.09627 1.09474 1.09518 1.09229 1.0915 1.08783 1.08897 1.09831 1.09735 1.09599 1.09707
          1.09547 1.09371 1.09096 1.09333 1.13663 1.13189 1.12392 1.12784 1.11803 1.11591 1.11099 1.11306
          1.12375 1.11359 1.109 1.11654 1.11152 1.10719 1.10568 1.10783 1.10898 1.10529 1.103 1.10468
          1.10529 1.10398 1.10212 1.1034 1.11723 1.11391 1.10649 1.10837 1.10774 1.10653 1.10433 1.10476
          1.10721 1.10651 1.10543 1.1058 1.10484 1.10471 1.10433 1.10449 1.1056 1.10482 1.10416 1.10488
          1.10444 1.104 1.10352 1.104 1.10384 1.10302 1.10155 1.10249 1.10319 1.10265 1.10148 1.10213
          1.10465 1.10439 1.10313 1.10345 1.10376 1.10357 1.10257 1.10279 1.10685 1.10472 1.10374 1.10517
          1.10504 1.10348 1.10256 1.10402 1.10367 1.10315 1.10228 1.10277 1.10238 1.10182 1.10094 1.1015
          1.10129 1.10083 1.09868 1.09919 1.09995 1.09935 1.09687 1.09762 1.1035 1.10219 1.10014 1.10142
          1.10251 1.10106 1.09894 1.10056 1.10372 1.10235 1.10159 1.103 1.10312 1.10182 1.10117 1.10259
          1.10125 1.10065 1.09979 1.10044 1.10065 1.09998 1.09915 1.0999 1.09886 1.09809 1.09529 1.09635
          1.09833 1.09738 1.09438 1.09577 1.10175 1.10018 1.09811 1.10006 1.10157 1.09989 1.09794 1.10013
          1.10426 1.10367 1.10186 1.10254 1.10306 1.10258 1.10113 1.1017 1.10243 1.10073 1.09851 1.1005
          1.10159 1.10015 1.09823 1.09998 1.09895 1.09648 1.09495 1.0979 1.09871 1.09657 1.09547 1.09791
          1.10129 1.10052 1.09968 1.10053 1.10068 1.10004 1.09938 1.10007 1.1022 1.10182 1.10065 1.10109
          1.10174 1.10148 1.10046 1.10077 1.10107 1.09993 1.09836 1.09975 1.10094 1.10014 1.09885 1.09982
          1.09871 1.09707 1.09628 1.0981 1.09894 1.09781 1.09723 1.09845 1.10024 1.09974 1.09922 1.09976
          1.10002 1.09966 1.09922 1.0996 1.099 1.0975 1.09419 1.09629 1.09826 1.09614 1.09256 1.09572
          1.0963 1.09564 1.09135 1.0924 1.09425 1.09312 1.08737 1.08942 1.08733 1.08551 1.07878 1.08177
          1.0828 1.07872 1.06852 1.07569 1.09344 1.09027 1.08637 1.09096 1.09323 1.08839 1.08463 1.09139
          1.09803 1.0953 1.09171 1.09584 1.0984 1.09529 1.09203 1.0966 1.09258 1.09081 1.08326 1.08686
          1.09184 1.08942 1.08069 1.08578 1.07846 1.06956 1.05075 1.06929 1.07653 1.06104 1.01979 1.06646
          1.09388 1.08777 1.0848 1.09264 1.09507 1.08876 1.08682 1.09413
        </DataArray>
        <DataArray type="Float32" Name="wetting-velocity" NumberOfComponents="3" format="ascii">
          1.71143e-05 1.99678e-05 2.00991e-05 2.14777e-05 4.55204e-06 3.89606e-06 9.3763e-06 7.66887e-06 2.0453e-06 6.00084e-06 2.41341e-05 5.66282e-06
          8.30878e-06 8.50451e-06 3.08852e-05 1.31746e-05 3.29972e-06 8.51587e-06 6.72446e-06 5.82523e-06 4.78879e-06 3.72906e-06 1.24567e-05 1.05455e-05
          5.80354e-06 7.84497e-07 4.77644e-07 2.72562e-06 3.15286e-07 2.12534e-07 2.32145e-06 6.84123e-07 2.02408e-07 4.86939e-06 2.02875e-06 5.56834e-07
          6.23662e-06 8.87851e-07 1.73487e-06 2.80632e-06 3.36299e-07 6.50083e-07 2.3857e-06 7.27735e-07 6.49245e-07 4.49396e-06 2.06744e-06 1.66218e-06
          3.13203e-06 2.54383e-06 4.27635e-07 1.50324e-06 7.73505e-07 1.38905e-07 9.5256e-07 3.72519e-07 1.99442e-08 2.00145e-06 2.09072e-06 3.23639e-07
          2.77667e-06 2.35844e-06 1.23414e-06 1.51792e-06 8.4093e-07 3.80098e-07 8.63645e-07 4.09861e-07 6.41081e-08 1.75176e-06 1.98659e-06 7.53399e-07
          1.8531e-06 9.47213e-06 1.46003e-06 3.82168e-06 5.65356e-06 9.48248e-07 1.89221e-06 3.64797e-06 4.92925e-07 8.21988e-07 5.06789e-06 6.61078e-07
          1.44944e-06 7.2604e-06 3.57478e-06 3.1191e-06 4.63308e-06 2.40458e-06 1.59221e-06 3.09996e-06 1.33062e-06 6.79039e-07 4.11405e-06 1.69131e-06
          3.66427e-06 3.39284e-06 1.65354e-05 7.09366e-06 1.98063e-06 8.26975e-06 4.16985e-06 3.74257e-06 5.14926e-06 1.98769e-06 5.89434e-06 8.49326e-06
          1.88769e-06 1.772e-06 9.92449e-06 4.1554e-06 1.24166e-06 6.52117e-06 2.57915e-06 2.39782e-06 4.42052e-06 1.10719e-06 3.24174e-06 6.05334e-06
          5.23608e-06 8.27181e-07 2.91477e-06 2.79728e-06 3.64841e-07 1.1298e-06 2.29184e-06 7.28806e-07 1.0801e-06 3.57971e-06 1.84525e-06 2.44111e-06
          3.89533e-06 6.79588e-07 3.33974e-06 2.60794e-06 3.2781e-07 1.55813e-06 1.9288e-06 7.55441e-07 1.32542e-06 2.66777e-06 1.48582e-06 2.65876e-06
          2.24523e-06 1.93544e-06 1.83812e-06 1.23067e-06 6.24395e-07 4.91145e-07 4.46283e-07 2.32933e-07 5.95482e-08 1.07397e-06 1.25448e-06 8.28416e-07
          1.79729e-06 1.64201e-06 1.95821e-06 9.56677e-07 4.23937e-07 3.44046e-07 5.52935e-09 7.20223e-09 2.52572e-09 4.13579e-07 7.65642e-07 5.63402e-07
          9.5612e-07 4.55424e-06 3.98233e-06 2.23498e-06 3.26016e-06 2.91844e-06 1.1682e-06 2.44445e-06 1.67997e-06 5.16951e-07 2.90905e-06 2.1149e-06
          5.97817e-07 2.74659e-06 3.40874e-06 1.52276e-06 2.2017e-06 2.73308e-06 6.59599e-07 1.37505e-06 1.3949e-06 2.52699e-07 2.02951e-06 1.9377e-06
          1.14115e-06 6.98425e-08 7.09549e-08 2.88717e-07 6.54417e-13 2.90037e-13 4.00938e-08 5.67192e-13 2.83707e-14 8.42785e-07 9.46136e-08 1.19514e-08
          1.41053e-06 8.9097e-08 2.3551e-07 4.78667e-07 1.29399e-11 1.43033e-11 8.10948e-08 1.12151e-11 1.68262e-12 9.6087e-07 1.47053e-07 6.09802e-08
          1.20311e-12 1.19305e-37 8.0528e-38 1.31518e-37 0 0 0 0 0 3.1715e-17 1.03397e-37 0
          2.24408e-11 3.23529e-32 4.15603e-32 3.90106e-32 0 0 0 0 0 6.21187e-16 2.80392e-32 4.20588e-33
          5.19183e-32 0 0 0 0 0 0 0 0 0 0 0
          1.46674e-31 0 0 0 0 0 0 0 0 0 0 0
          3.47206e-07 3.00889e-08 1.50808e-09 1.70156e-11 2.6712e-17 1.3356e-18 1.16429e-21 6.20469e-32 3.10234e-33 3.57479e-09 1.36787e-11 6.83936e-13
          4.11601e-07 6.16405e-08 9.26269e-09 2.51573e-11 4.76853e-16 7.1528e-17 2.73994e-23 1.65934e-31 2.48902e-32 1.81547e-09 1.85183e-11 2.77774e-12
          1.42635e-06 1.22671e-07 3.8417e-07 4.869e-07 7.27033e-12 2.46518e-11 3.40823e-08 6.30096e-12 1.57555e-12 9.93229e-07 1.34008e-07 8.86442e-08
          1.26538e-06 9.63257e-08 5.13671e-07 2.76275e-07 8.82812e-14 1.10034e-11 8.58699e-10 7.65103e-14 2.67822e-14 8.29448e-07 8.40702e-08 5.35112e-08
          1.42299e-11 3.1189e-33 3.91937e-32 3.90671e-33 0 0 0 0 0 5.95922e-18 2.70305e-33 6.75762e-34
          2.38334e-13 0 4.29932e-33 0 0 0 0 0 0 2.43937e-25 0 0
          0 0 0 0 0 0 0 0 0 0 0 0
          0 0 0 0 0 0 0 0 0 0 0 0
          2.30425e-07 2.44351e-08 6.12115e-09 3.04949e-13 4.53475e-18 1.13369e-18 1.08694e-33 0 0 9.41296e-12 2.13289e-13 5.33222e-14
          9.93465e-09 5.18735e-10 1.81682e-10 1.64086e-20 2.04496e-25 7.15736e-26 0 0 0 1.15268e-20 1.39704e-20 4.88964e-21
          4.58999e-07 2.88261e-06 3.94062e-07 9.77479e-07 2.35555e-06 2.473e-07 8.59214e-08 8.89337e-07 4.52964e-08 8.32581e-08 1.14025e-06 9.4196e-08
          2.88065e-07 2.57918e-06 8.70054e-07 7.47218e-07 1.80774e-06 5.57072e-07 1.02324e-08 5.80192e-07 8.7921e-08 8.97945e-09 1.01947e-06 2.02508e-07
          5.55139e-07 8.36023e-07 5.42442e-08 3.44747e-08 4.35232e-09 2.17616e-10 6.7031e-18 2.1012e-18 1.0506e-19 1.75824e-09 3.67417e-08 1.83709e-09
          4.72472e-07 8.20172e-07 1.39513e-07 4.97246e-09 1.69877e-09 2.54815e-10 3.34192e-22 6.08218e-22 9.12327e-23 2.92053e-11 4.44803e-09 6.67204e-10
          9.41983e-24 6.01794e-18 3.00897e-19 0 0 0 0 0 0 0 0 0
          1.65042e-31 2.64282e-22 3.96423e-23 0 0 0 0 0 0 0 0 0
          2.89978e-15 1.3542e-07 6.77098e-09 2.96504e-15 1.83148e-09 9.15741e-11 0 6.38282e-24 3.19141e-25 0 4.416e-15 2.208e-16
          -6.82141e-17 1.26908e-08 1.90363e-09 3.39174e-20 3.07671e-11 4.61507e-12 0 9.57701e-32 1.43655e-32 0 4.32503e-20 6.48754e-21
          1.4255e-07 1.51725e-06 8.69649e-07 2.20315e-07 1.08289e-06 4.91484e-07 1.14554e-12 5.77565e-08 1.4465e-08 -2.89488e-10 4.2192e-07 1.16698e-07
          -5.24642e-09 8.34642e-07 5.6561e-07 -3.10889e-09 4.05853e-07 2.08316e-07 -3.19081e-18 4.23892e-12 1.48366e-12 -9.2726e-14 2.99332e-09 1.05122e-09
          8.21588e-08 3.74195e-07 9.71914e-08 2.10669e-12 7.43556e-12 1.85889e-12 7.24708e-37 2.91536e-34 7.2884e-35 5.46275e-17 1.96515e-12 4.91288e-13
          3.50754e-12 4.08264e-09 1.43031e-09 1.2464e-22 1.04071e-20 3.6425e-21 0 0 0 2.40449e-35 1.07637e-22 3.76731e-23
          0 4.74079e-37 1.1852e-37 0 0 0 0 0 0 0 0 0
          0 0 0 0 0 0 0 0 0 0 0 0
          -1.20508e-21 4.42123e-12 1.10531e-12 -1.87876e-32 5.58838e-17 1.39709e-17 0 0 0 0 2.45155e-35 6.12888e-36
          -9.59346e-37 6.12974e-23 2.14541e-23 0 1.78116e-35 6.23405e-36 0 0 0 0 0 0
          2.26196e-18 1.16231e-21 5.81155e-23 0 0 0 0 0 0 0 0 0
          6.72961e-22 2.69618e-23 4.04427e-24 0 0 0 0 0 0 0 0 0
          0 0 0 0 0 0 0 0 0 0 0 0
          0 0 0 0 0 0 0 0 0 0 0 0
          0 0 0 0 0 0 0 0 0 0 0 0
          0 0 0 0 0 0 0 0 0 0 0 0
          0 0 0 0 0 0 0 0 0 0 0 0
          0 0 0 0 0 0 0 0 0 0 0 0
          3.43614e-34 1.11674e-33 2.79185e-34 0 0 0 0 0 0 0 0 0
          0 0 0 0 0 0 0 0 0 0 0 0
          0 0 0 0 0 0 0 0 0 0 0 0
          0 0 0 0 0 0 0 0 0 0 0 0
          0 0 0 0 0 0 0 0 0 0 0 0
          0 0 0 0 0 0 0 0 0 0 0 0
          0 0 0 0 0 0 0 0 0 0 0 0
          0 0 0 0 0 0 0 0 0 0 0 0
          7.43086e-07 6.18156e-07 5.52914e-06 1.88758e-06 5.51226e-07 4.26919e-06 1.35484e-06 1.21509e-06 3.13264e-06 4.97602e-07 1.47214e-06 3.75426e-06
          2.06495e-07 1.41281e-07 2.71317e-06 5.08855e-07 1.41996e-07 2.31343e-06 2.22211e-07 3.29126e-07 1.40193e-06 8.77496e-08 4.39315e-07 1.75032e-06
          2.19759e-06 4.21838e-07 2.87587e-06 1.75399e-06 1.38867e-07 1.67338e-06 8.51813e-07 1.86506e-07 6.81756e-07 1.57019e-06 9.05063e-07 2.40709e-06
          6.24937e-07 1.30826e-07 1.53746e-06 1.78777e-07 2.86333e-10 8.80375e-07 -1.73804e-08 3.09239e-10 5.76044e-08 -4.40327e-08 1.43976e-07 1.15563e-06
          3.95668e-07 5.2863e-07 8.68501e-07 7.05763e-08 3.97064e-08 2.25288e-08 1.29468e-17 2.90276e-16 1.01603e-16 -8.47739e-10 4.38838e-08 1.94711e-08
          -1.5843e-08 2.91689e-09 5.31057e-08 -9.03145e-17 8.19264e-18 2.39792e-16 0 0 0 -2.72924e-18 9.03576e-18 1.04467e-17
          2.93094e-07 1.46838e-06 2.48893e-06 6.63804e-07 1.2113e-06 1.95146e-06 -5.36699e-08 5.89302e-07 6.28373e-07 -6.96881e-09 6.83371e-07 7.97172e-07
          -5.0957e-08 3.19575e-07 1.02317e-06 -1.14773e-07 1.91145e-07 7.12213e-07 -8.58323e-11 9.85535e-11 4.538e-10 -2.35091e-09 8.66224e-09 3.74292e-08
          -5.12166e-08 2.49761e-09 1.0355e-06 -1.36918e-07 1.9202e-10 8.98182e-07 -3.09572e-08 2.07391e-10 1.84313e-07 -2.54857e-08 2.70034e-09 4.55546e-07
          -1.41449e-10 1.89609e-23 2.72794e-09 -3.89863e-11 3.63817e-28 2.50626e-10 -2.42803e-15 3.92923e-28 1.44526e-14 -1.97159e-13 2.04778e-23 3.52069e-12
          -8.27534e-08 6.76392e-14 3.20496e-07 -2.86177e-10 6.12673e-27 7.88907e-10 -4.42194e-18 6.61687e-27 1.12805e-17 -9.83091e-10 7.30503e-14 3.51109e-09
          -4.12622e-14 0 1.59154e-13 -5.16353e-27 0 1.4226e-26 0 0 0 -6.50913e-24 0 2.32469e-23
          -2.75023e-18 2.23554e-23 9.03648e-18 0 0 0 0 0 0 0 0 0
          0 0 0 0 0 0 0 0 0 0 0 0
          -4.50521e-10 3.16827e-12 7.40188e-09 -1.9035e-11 1.03727e-14 1.04241e-10 -2.2081e-27 1.1982e-29 1.10423e-26 -5.8084e-19 2.68614e-21 8.71301e-18
          -1.15487e-22 1.07967e-35 1.89729e-21 -1.29379e-30 0 7.08503e-30 0 0 0 0 0 0
          8.49532e-07 5.91002e-10 2.59061e-07 1.57138e-09 8.02552e-25 1.42819e-13 7.74822e-17 8.66756e-25 4.6917e-25 6.84873e-08 6.38283e-10 7.2975e-10
          6.9518e-10 9.30037e-25 1.08582e-09 2.29475e-24 0 1.8221e-24 0 0 0 -3.68263e-18 1.00444e-24 4.59334e-17
          2.00517e-24 0 0 0 0 0 0 0 0 0 0 0
          0 0 0 0 0 0 0 0 0 0 0 0
          0 0 0 0 0 0 0 0 0 0 0 0
          0 0 0 0 0 0 0 0 0 0 0 0
          4.11717e-16 4.31909e-17 1.51254e-17 0 0 0 0 0 0 0 0 0
          0 0 0 0 0 0 0 0 0 0 0 0
          -7.48297e-25 0 2.12942e-24 0 0 0 0 0 0 0 0 0
          0 0 0 0 0 0 0 0 0 0 0 0
          0 0 0 0 0 0 0 0 0 0 0 0
          0 0 0 0 0 0 0 0 0 0 0 0
          0 0 0 0 0 0 0 0 0 0 0 0
          0 0 0 0 0 0 0 0 0 0 0 0
          0 0 0 0 0 0 0 0 0 0 0 0
          0 0 0 0 0 0 0 0 0 0 0 0
          -2.08344e-10 3.63857e-08 1.55625e-08 -5.95924e-13 5.02318e-10 1.78507e-10 -4.01666e-36 1.64477e-26 5.75671e-27 -3.99985e-24 1.03318e-17 3.61616e-18
          -4.93134e-19 1.11961e-17 9.49156e-18 -2.5547e-27 1.5135e-26 1.53407e-26 0 0 0 0 0 0
          -2.48477e-23 1.20974e-17 4.23415e-18 0 0 0 0 0 0 0 0 0
          0 0 0 0 0 0 0 0 0 0 0 0
          0 0 0 0 0 0 0 0 0 0 0 0
          0 0 0 0 0 0 0 0 0 0 0 0
          0 0 0 0 0 0 0 0 0 0 0 0
          0 0 0 0 0 0 0 0 0 0 0 0
          0 0 0 0 0 0 0 0 0 0 0 0
          0 0 0 0 0 0 0 0 0 0 0 0
          0 0 0 0 0 0 0 0 0 0 0 0
          0 0 0 0 0 0 0 0 0 0 0 0
          0 0 0 0 0 0 0 0 0 0 0 0
          0 0 0 0 0 0 0 0 0 0 0 0
          0 0 0 0 0 0 0 0 0 0 0 0
          0 0 0 0 0 0 0 0 0 0 0 0
          0 0 0 0 0 0 0 0 0 0 0 0
          0 0 0 0 0 0 0 0 0 0 0 0
          0 0 0 0 0 0 0 0 0 0 0 0
          0 0 0 0 0 0 0 0 0 0 0 0
          0 0 0 0 0 0 0 0 0 0 0 0
          0 0 0 0 0 0 0 0 0 0 0 0
          0 0 0 0 0 0 0 0 0 0 0 0
          0 0 0 0 0 0 0 0 0 0 0 0
          0 0 0 0 0 0 0 0 0 0 0 0
          0 0 0 0 0 0 0 0 0 0 0 0
          0 0 0 0 0 0 0 0 0 0 0 0
          0 0 0 0 0 0 0 0 0 0 0 0
          0 0 0 0 0 0 0 0 0 0 0 0
          0 0 0 0 0 0 0 0 0 0 0 0
          0 0 0 0 0 0 0 0 0 0 0 0
          0 0 0 0 0 0 0 0 0 0 0 0
        </DataArray>
        <DataArray type="Float32" Name="nonwetting-velocity" NumberOfComponents="3" format="ascii">
          2.9518e-09 3.44395e-09 3.46661e-09 1.10505e-08 1.03892e-08 8.89206e-09 3.00195e-08 3.23541e-08 1.20384e-08 9.68364e-09 1.40043e-08 7.89111e-09
          7.41518e-09 6.9783e-09 1.23971e-08 2.23261e-08 1.27712e-08 2.68672e-08 3.92783e-08 3.85761e-08 3.68786e-08 1.32295e-08 2.36236e-08 2.49443e-08