<?xml version="1.0"?>
<VTKFile type="UnstructuredGrid" version="0.1" byte_order="LittleEndian">
  <UnstructuredGrid>
    <Piece NumberOfCells="400" NumberOfPoints="441">
      <CellData Scalars="waterDepth">
        <DataArray type="Float32" Name="waterDepth" NumberOfComponents="1" format="ascii">
          9.99915 9.99913 9.99927 9.99941 9.99953 9.99965 9.99975 9.99984 9.99993 10 10.0001 10.0001
          10.0002 10.0003 10.0003 10.0003 10.0004 10.0004 10.0005 10.0005 9.99933 9.99926 9.99938 9.9995
          9.99961 9.99971 9.9998 9.99988 9.99996 10 10.0001 10.0002 10.0002 10.0003 10.0003 10.0004
          10.0004 10.0004 10.0005 10.0005 9.99936 9.99928 9.9994 9.99952 9.99963 9.99973 9.99982 9.99991
          9.99998 10.0001 10.0001 10.0002 10.0002 10.0003 10.0003 10.0004 10.0004 10.0004 10.0005 10.0005
          9.99938 9.99926 9.9994 9.99952 9.99963 9.99973 9.99983 9.99991 9.99998 10.0001 10.0001 10.0002
          10.0002 10.0003 10.0003 10.0004 10.0004 10.0004 10.0005 10.0005 9.9994 9.99924 9.99939 9.99952
          9.99963 9.99973 9.99982 9.99991 9.99998 10.0001 10.0001 10.0002 10.0002 10.0003 10.0003 10.0004
          10.0004 10.0004 10.0005 10.0005 9.99941 9.99922 9.99938 9.99952 9.99963 9.99973 9.99982 9.99991
          9.99998 10.0001 10.0001 10.0002 10.0002 10.0003 10.0003 10.0004 10.0004 10.0004 10.0005 10.0005
          9.99942 9.9992 9.99938 9.99951 9.99963 9.99973 9.99982 9.99991 9.99998 10.0001 10.0001 10.0002
          10.0002 10.0003 10.0003 10.0004 10.0004 10.0004 10.0005 10.0005 9.99942 9.99917 9.99937 9.99951
          9.99963 9.99973 9.99982 9.9999 9.99998 10.0001 10.0001 10.0002 10.0002 10.0003 10.0003 10.0004
          10.0004 10.0004 10.0005 10.0005 9.99943 9.99916 9.99936 9.99951 9.99962 9.99973 9.99982 9.9999
          9.99998 10.0001 10.0001 10.0002 10.0002 10.0003 10.0003 10.0004 10.0004 10.0004 10.0005 10.0005
          9.99943 9.99915 9.99936 9.99951 9.99962 9.99973 9.99982 9.9999 9.99998 10.0001 10.0001 10.0002
          10.0002 10.0003 10.0003 10.0004 10.0004 10.0004 10.0005 10.0005 9.99943 9.99915 9.99936 9.99951
          9.99962 9.99973 9.99982 9.9999 9.99998 10.0001 10.0001 10.0002 10.0002 10.0003 10.0003 10.0004
          10.0004 10.0004 10.0005 10.0005 9.99943 9.99916 9.99936 9.99951 9.99962 9.99973 9.99982 9.9999
          9.99998 10.0001 10.0001 10.0002 10.0002 10.0003 10.0003 10.0004 10.0004 10.0004 10.0005 10.0005
          9.99942 9.99917 9.99937 9.99951 9.99963 9.99973 9.99982 9.9999 9.99998 10.0001 10.0001 10.0002
          10.0002 10.0003 10.0003 10.0004 10.0004 10.0004 10.0005 10.0005 9.99942 9.9992 9.99938 9.99951
          9.99963 9.99973 9.99982 9.99991 9.99998 10.0001 10.0001 10.0002 10.0002 10.0003 10.0003 10.0004
          10.0004 10.0004 10.0005 10.0005 9.99941 9.99922 9.99938 9.99952 9.99963 9.99973 9.99982 9.99991
          9.99998 10.0001 10.0001 10.0002 10.0002 10.0003 10.0003 10.0004 10.0004 10.0004 10.0005 10.0005
          9.9994 9.99924 9.99939 9.99952 9.99963 9.99973 9.99982 9.99991 9.99998 10.0001 10.0001 10.0002
          10.0002 10.0003 10.0003 10.0004 10.0004 10.0004 10.0005 10.0005 9.99938 9.99926 9.9994 9.99952
          9.99963 9.99973 9.99983 9.99991 9.99998 10.0001 10.0001 10.0002 10.0002 10.0003 10.0003 10.0004
          10.0004 10.0004 10.0005 10.0005 9.99936 9.99928 9.9994 9.99952 9.99963 9.99973 9.99982 9.99991
          9.99998 10.0001 10.0001 10.0002 10.0002 10.0003 10.0003 10.0004 10.0004 10.0004 10.0005 10.0005
          9.99933 9.99926 9.99938 9.9995 9.99961 9.99971 9.9998 9.99988 9.99996 10 10.0001 10.0002
          10.0002 10.0003 10.0003 10.0004 10.0004 10.0004 10.0005 10.0005 9.99915 9.99913 9.99927 9.99941
          9.99953 9.99965 9.99975 9.99984 9.99993 10 10.0001 10.0001 10.0002 10.0003 10.0003 10.0003
          10.0004 10.0004 10.0005 10.0005
        </DataArray>
        <DataArray type="Float32" Name="velocityX" NumberOfComponents="1" format="ascii">
          0.598441 0.599892 0.600941 0.601819 0.60257 0.603217 0.603778 0.604264 0.604688 0.605058 0.60538 0.605663
          0.605909 0.606124 0.606309 0.606468 0.606599 0.606703 0.606777 0.606818 1.7013 1.70156 1.70161 1.70166
          1.70173 1.70181 1.70191 1.70202 1.70213 1.70224 1.70236 1.70248 1.70259 1.7027 1.70281 1.70291
          1.70299 1.70306 1.70312 1.70315 2.68222 2.68232 2.68219 2.68206 2.68194 2.68184 2.68176 2.68169
          2.68163 2.68158 2.68154 2.68151 2.68149 2.68147 2.68146 2.68145 2.68144 2.68144 2.68144 2.68144
          3.54056 3.54065 3.54047 3.5403 3.54014 3.54 3.53988 3.53977 3.53966 3.53957 3.53949 3.53941
          3.53934 3.53928 3.53922 3.53917 3.53913 3.53909 3.53907 3.53905 4.27628 4.27637 4.27616 4.27597
          4.27581 4.27566 4.27552 4.2754 4.27529 4.27518 4.27509 4.275 4.27492 4.27485 4.27478 4.27472
          4.27467 4.27462 4.27459 4.27456 4.88937 4.88947 4.88924 4.88904 4.88887 4.88871 4.88857 4.88845
          4.88833 4.88822 4.88812 4.88803 4.88795 4.88788 4.88781 4.88774 4.88769 4.88764 4.8876 4.88758
          5.37985 5.37996 5.3797 5.3795 5.37932 5.37917 5.37902 5.37889 5.37878 5.37867 5.37857 5.37848
          5.37839 5.37831 5.37824 5.37818 5.37812 5.37807 5.37804 5.37801 5.7477 5.74783 5.74755 5.74734
          5.74717 5.74701 5.74687 5.74674 5.74662 5.74651 5.74641 5.74631 5.74623 5.74615 5.74608 5.74602
          5.74596 5.74591 5.74587 5.74585 5.99293 5.99308 5.99279 5.99258 5.9924 5.99224 5.9921 5.99197
          5.99185 5.99174 5.99164 5.99155 5.99147 5.99139 5.99132 5.99125 5.9912 5.99115 5.99111 5.99108
          6.11555 6.11571 6.11542 6.1152 6.11503 6.11487 6.11473 6.1146 6.11448 6.11437 6.11427 6.11418
          6.11409 6.11402 6.11395 6.11388 6.11383 6.11378 6.11374 6.11371 6.11555 6.11571 6.11542 6.1152
          6.11503 6.11487 6.11473 6.1146 6.11448 6.11437 6.11427 6.11418 6.11409 6.11402 6.11395 6.11388
          6.11383 6.11378 6.11374 6.11371 5.99293 5.99308 5.99279 5.99258 5.9924 5.99224 5.9921 5.99197
          5.99185 5.99174 5.99164 5.99155 5.99147 5.99139 5.99132 5.99125 5.9912 5.99115 5.99111 5.99108
          5.7477 5.74783 5.74755 5.74734 5.74717 5.74701 5.74687 5.74674 5.74662 5.74651 5.74641 5.74631
          5.74623 5.74615 5.74608 5.74602 5.74596 5.74591 5.74587 5.74585 5.37985 5.37996 5.3797 5.3795
          5.37932 5.37917 5.37902 5.37889 5.37878 5.37867 5.37857 5.37848 5.37839 5.37831 5.37824 5.37818
          5.37812 5.37807 5.37804 5.37801 4.88937 4.88947 4.88924 4.88904 4.88887 4.88871 4.88857 4.88845
          4.88833 4.88822 4.88812 4.88803 4.88795 4.88788 4.88781 4.88774 4.88769 4.88764 4.8876 4.88758
          4.27628 4.27637 4.27616 4.27597 4.27581 4.27566 4.27552 4.2754 4.27529 4.27518 4.27509 4.275
          4.27492 4.27485 4.27478 4.27472 4.27467 4.27462 4.27459 4.27456 3.54056 3.54065 3.54047 3.5403
          3.54014 3.54 3.53988 3.53977 3.53966 3.53957 3.53949 3.53941 3.53934 3.53928 3.53922 3.53917
          3.53913 3.53909 3.53907 3.53905 2.68222 2.68232 2.68219 2.68206 2.68194 2.68184 2.68176 2.68169
          2.68163 2.68158 2.68154 2.68151 2.68149 2.68147 2.68146 2.68145 2.68144 2.68144 2.68144 2.68144
          1.7013 1.70156 1.70161 1.70166 1.70173 1.70181 1.70191 1.70202 1.70213 1.70224 1.70236 1.70248
          1.70259 1.7027 1.70281 1.70291 1.70299 1.70306 1.70312 1.70315 0.598441 0.599892 0.600941 0.601819
          0.60257 0.603217 0.603778 0.604264 0.604688 0.605058 0.60538 0.605663 0.605909 0.606124 0.606309 0.606468
          0.606599 0.606703 0.606777 0.606818
        </DataArray>
        <DataArray type="Float32" Name="velocityY" NumberOfComponents="1" format="ascii">
          -0.000218601 -0.000148694 -0.000122188 -0.000104016 -8.95005e-05 -7.7376e-05 -6.7106e-05 -5.83556e-05 -5.08677e-05 -4.44292e-05 -3.88572e-05 -3.39915e-05
          -2.96878e-05 -2.58113e-05 -2.22305e-05 -1.88097e-05 -1.54008e-05 -1.1833e-05 -7.90037e-06 -3.34887e-06 -0.000476227 -0.000310619 -0.000253931 -0.000218858
          -0.000191609 -0.000168852 -0.000149409 -0.000132643 -0.00011809 -0.000105371 -9.41523e-05 -8.41354e-05 -7.50392e-05 -6.65875e-05 -5.84937e-05 -5.04429e-05
          -4.20701e-05 -3.29324e-05 -2.24751e-05 -9.9948e-06 -0.000522608 -0.000314548 -0.000251326 -0.000218392 -0.000194527 -0.00017487 -0.000157992 -0.000143268
          -0.000130299 -0.000118762 -0.000108371 -9.88602e-05 -8.99629e-05 -8.14018e-05 -7.28687e-05 -6.40023e-05 -5.43604e-05 -4.33832e-05 -3.03474e-05 -1.43171e-05
          -0.000521077 -0.00029209 -0.000224173 -0.000192876 -0.000171886 -0.000155097 -0.000140826 -0.000128428 -0.000117527 -0.000107831 -9.90859e-05 -9.10504e-05
          -8.34835e-05 -7.61295e-05 -6.8701e-05 -6.08575e-05 -5.2179e-05 -4.2133e-05 -3.00343e-05 -1.50094e-05 -0.00049018 -0.000260555 -0.000192297 -0.000163247
          -0.000144996 -0.000130787 -0.000118818 -0.000108454 -9.93558e-05 -9.12734e-05 -8.39885e-05 -7.72958e-05 -7.099e-05 -6.48532e-05 -5.86408e-05 -5.2065e-05
          -4.47752e-05 -3.63356e-05 -2.62053e-05 -1.37368e-05 -0.000435 -0.000222269 -0.000158618 -0.000132923 -0.000117618 -0.000105988 -9.62682e-05 -8.78723e-05
          -8.05082e-05 -7.39683e-05 -6.80748e-05 -6.26606e-05 -5.75589e-05 -5.2593e-05 -4.75655e-05 -4.22461e-05 -3.63586e-05 -2.95701e-05 -2.14884e-05 -1.16952e-05
          -0.000359539 -0.00017836 -0.000123884 -0.000102656 -9.05247e-05 -8.1496e-05 -7.40028e-05 -6.75433e-05 -6.1881e-05 -5.68535e-05 -5.2323e-05 -4.81609e-05
          -4.42389e-05 -4.0421e-05 -3.65563e-05 -3.24696e-05 -2.79538e-05 -2.27656e-05 -1.66352e-05 -9.31667e-06 -0.000268006 -0.000130113 -8.85559e-05 -7.27353e-05
          -6.39627e-05 -5.75393e-05 -5.22383e-05 -4.76764e-05 -4.36795e-05 -4.01312e-05 -3.69341e-05 -3.3997e-05 -3.12293e-05 -2.85352e-05 -2.58085e-05 -2.29264e-05
          -1.9745e-05 -1.6099e-05 -1.18136e-05 -6.75606e-06 -0.000165029 -7.89743e-05 -5.3027e-05 -4.32911e-05 -3.79983e-05 -3.41662e-05 -3.10164e-05 -2.83089e-05
          -2.59378e-05 -2.3833e-05 -2.19367e-05 -2.01947e-05 -1.85533e-05 -1.69556e-05 -1.53387e-05 -1.36301e-05 -1.17453e-05 -9.58787e-06 -7.05942e-06 -4.09484e-06
          -5.56435e-05 -2.64344e-05 -1.76292e-05 -1.43488e-05 -1.25832e-05 -1.13121e-05 -1.02696e-05 -9.37408e-06 -8.58992e-06 -7.89393e-06 -7.26687e-06 -6.69086e-06
          -6.14812e-06 -5.61987e-06 -5.0853e-06 -4.52045e-06 -3.89745e-06 -3.18467e-06 -2.35005e-06 -1.37346e-06 5.56435e-05 2.64344e-05 1.76292e-05 1.43488e-05
          1.25832e-05 1.13121e-05 1.02696e-05 9.37408e-06 8.58992e-06 7.89393e-06 7.26687e-06 6.69086e-06 6.14812e-06 5.61987e-06 5.0853e-06 4.52045e-06
          3.89745e-06 3.18467e-06 2.35005e-06 1.37346e-06 0.000165029 7.89743e-05 5.3027e-05 4.32911e-05 3.79983e-05 3.41662e-05 3.10164e-05 2.83089e-05
          2.59378e-05 2.3833e-05 2.19367e-05 2.01947e-05 1.85533e-05 1.69556e-05 1.53387e-05 1.36301e-05 1.17453e-05 9.58787e-06 7.05942e-06 4.09484e-06
          0.000268006 0.000130113 8.85559e-05 7.27353e-05 6.39627e-05 5.75393e-05 5.22383e-05 4.76764e-05 4.36795e-05 4.01312e-05 3.69341e-05 3.3997e-05
          3.12293e-05 2.85352e-05 2.58085e-05 2.29264e-05 1.9745e-05 1.6099e-05 1.18136e-05 6.75606e-06 0.000359539 0.00017836 0.000123884 0.000102656
          9.05247e-05 8.1496e-05 7.40028e-05 6.75433e-05 6.1881e-05 5.68535e-05 5.2323e-05 4.81609e-05 4.42389e-05 4.0421e-05 3.65563e-05 3.24696e-05
          2.79538e-05 2.27656e-05 1.66352e-05 9.31667e-06 0.000435 0.000222269 0.000158618 0.000132923 0.000117618 0.000105988 9.62682e-05 8.78723e-05
          8.05082e-05 7.39683e-05 6.80748e-05 6.26606e-05 5.75589e-05 5.2593e-05 4.75655e-05 4.22461e-05 3.63586e-05 2.95701e-05 2.14884e-05 1.16952e-05
          0.00049018 0.000260555 0.000192297 0.000163247 0.000144996 0.000130787 0.000118818 0.000108454 9.93558e-05 9.12734e-05 8.39885e-05 7.72958e-05
          7.099e-05 6.48532e-05 5.86408e-05 5.2065e-05 4.47752e-05 3.63356e-05 2.62053e-05 1.37368e-05 0.000521077 0.00029209 0.000224173 0.000192876
          0.000171886 0.000155097 0.000140826 0.000128428 0.000117527 0.000107831 9.90859e-05 9.10504e-05 8.34835e-05 7.61295e-05 6.8701e-05 6.08575e-05
          5.2179e-05 4.2133e-05 3.00343e-05 1.50094e-05 0.000522608 0.000314548 0.000251326 0.000218392 0.000194527 0.00017487 0.000157992 0.000143268
          0.000130299 0.000118762 0.000108371 9.88602e-05 8.99629e-05 8.14018e-05 7.28687e-05 6.40023e-05 5.43604e-05 4.33832e-05 3.03474e-05 1.43171e-05
          0.000476227 0.000310619 0.000253931 0.000218858 0.000191609 0.000168852 0.000149409 0.000132643 0.00011809 0.000105371 9.41523e-05 8.41354e-05
          7.50392e-05 6.65875e-05 5.84937e-05 5.04429e-05 4.20701e-05 3.29324e-05 2.24751e-05 9.9948e-06 0.000218601 0.000148694 0.000122188 0.000104016
          8.95005e-05 7.7376e-05 6.7106e-05 5.83556e-05 5.08677e-05 4.44292e-05 3.88572e-05 3.39915e-05 2.96878e-05 2.58113e-05 2.22305e-05 1.88097e-05
          1.54008e-05 1.1833e-05 7.90037e-06 3.34887e-06
        </DataArray>
        <DataArray type="Float32" Name="bedSurface" NumberOfComponents="1" format="ascii">
          -9.9805 -9.9815 -9.9825 -9.9835 -9.9845 -9.9855 -9.9865 -9.9875 -9.9885 -9.9895 -9.9905 -9.9915
          -9.9925 -9.9935 -9.9945 -9.9955 -9.9965 -9.9975 -9.9985 -9.9995 -9.9805 -9.9815 -9.9825 -9.9835
          -9.9845 -9.9855 -9.9865 -9.9875 -9.9885 -9.9895 -9.9905 -9.9915 -9.9925 -9.9935 -9.9945 -9.9955
          -9.9965 -9.9975 -9.9985 -9.9995 -9.9805 -9.9815 -9.9825 -9.9835 -9.9845 -9.9855 -9.9865 -9.9875
          -9.9885 -9.9895 -9.9905 -9.9915 -9.9925 -9.9935 -9.9945 -9.9955 -9.9965 -9.9975 -9.9985 -9.9995
          -9.9805 -9.9815 -9.9825 -9.9835 -9.9845 -9.9855 -9.9865 -9.9875 -9.9885 -9.9895 -9.9905 -9.9915
          -9.9925 -9.9935 -9.9945 -9.9955 -9.9965 -9.9975 -9.9985 -9.9995 -9.9805 -9.9815 -9.9825 -9.9835
          -9.9845 -9.9855 -9.9865 -9.9875 -9.9885 -9.9895 -9.9905 -9.9915 -9.9925 -9.9935 -9.9945 -9.9955
          -9.9965 -9.9975 -9.9985 -9.9995 -9.9805 -9.9815 -9.9825 -9.9835 -9.9845 -9.9855 -9.9865 -9.9875
          -9.9885 -9.9895 -9.9905 -9.9915 -9.9925 -9.9935 -9.9945 -9.9955 -9.9965 -9.9975 -9.9985 -9.9995
          -9.9805 -9.9815 -9.9825 -9.9835 -9.9845 -9.9855 -9.9865 -9.9875 -9.9885 -9.9895 -9.9905 -9.9915
          -9.9925 -9.9935 -9.9945 -9.9955 -9.9965 -9.9975 -9.9985 -9.9995 -9.9805 -9.9815 -9.9825 -9.9835
          -9.9845 -9.9855 -9.9865 -9.9875 -9.9885 -9.9895 -9.9905 -9.9915 -9.9925 -9.9935 -9.9945 -9.9955
          -9.9965 -9.9975 -9.9985 -9.9995 -9.9805 -9.9815 -9.9825 -9.9835 -9.9845 -9.9855 -9.9865 -9.9875
          -9.9885 -9.9895 -9.9905 -9.9915 -9.9925 -9.9935 -9.9945 -9.9955 -9.9965 -9.9975 -9.9985 -9.9995
          -9.9805 -9.9815 -9.9825 -9.9835 -9.9845 -9.9855 -9.9865 -9.9875 -9.9885 -9.9895 -9.9905 -9.9915
          -9.9925 -9.9935 -9.9945 -9.9955 -9.9965 -9.9975 -9.9985 -9.9995 -9.9805 -9.9815 -9.9825 -9.9835
          -9.9845 -9.9855 -9.9865 -9.9875 -9.9885 -9.9895 -9.9905 -9.9915 -9.9925 -9.9935 -9.9945 -9.9955
          -9.9965 -9.9975 -9.9985 -9.9995 -9.9805 -9.9815 -9.9825 -9.9835 -9.9845 -9.9855 -9.9865 -9.9875
          -9.9885 -9.9895 -9.9905 -9.9915 -9.9925 -9.9935 -9.9945 -9.9955 -9.9965 -9.9975 -9.9985 -9.9995
          -9.9805 -9.9815 -9.9825 -9.9835 -9.9845 -9.9855 -9.9865 -9.9875 -9.9885 -9.9895 -9.9905 -9.9915
          -9.9925 -9.9935 -9.9945 -9.9955 -9.9965 -9.9975 -9.9985 -9.9995 -9.9805 -9.9815 -9.9825 -9.9835
          -9.9845 -9.9855 -9.9865 -9.9875 -9.9885 -9.9895 -9.9905 -9.9915 -9.9925 -9.9935 -9.9945 -9.9955
          -9.9965 -9.9975 -9.9985 -9.9995 -9.9805 -9.9815 -9.9825 -9.9835 -9.9845 -9.9855 -9.9865 -9.9875
          -9.9885 -9.9895 -9.9905 -9.9915 -9.9925 -9.9935 -9.9945 -9.9955 -9.9965 -9.9975 -9.9985 -9.9995
          -9.9805 -9.9815 -9.9825 -9.9835 -9.9845 -9.9855 -9.9865 -9.9875 -9.9885 -9.9895 -9.9905 -9.9915
          -9.9925 -9.9935 -9.9945 -9.9955 -9.9965 -9.9975 -9.9985 -9.9995 -9.9805 -9.9815 -9.9825 -9.9835
          -9.9845 -9.9855 -9.9865 -9.9875 -9.9885 -9.9895 -9.9905 -9.9915 -9.9925 -9.9935 -9.9945 -9.9955
          -9.9965 -9.9975 -9.9985 -9.9995 -9.9805 -9.9815 -9.9825 -9.9835 -9.9845 -9.9855 -9.9865 -9.9875
          -9.9885 -9.9895 -9.9905 -9.9915 -9.9925 -9.9935 -9.9945 -9.9955 -9.9965 -9.9975 -9.9985 -9.9995
          -9.9805 -9.9815 -9.9825 -9.9835 -9.9845 -9.9855 -9.9865 -9.9875 -9.9885 -9.9895 -9.9905 -9.9915
          -9.9925 -9.9935 -9.9945 -9.9955 -9.9965 -9.9975 -9.9985 -9.9995 -9.9805 -9.9815 -9.9825 -9.9835
          -9.9845 -9.9855 -9.9865 -9.9875 -9.9885 -9.9895 -9.9905 -9.9915 -9.9925 -9.9935 -9.9945 -9.9955
          -9.9965 -9.9975 -9.9985 -9.9995
        </DataArray>
        <DataArray type="Float32" Name="freeSurface" NumberOfComponents="1" format="ascii">
          0.0186509 0.0176291 0.0167676 0.015906 0.0150325 0.0141466 0.0132494 0.0123422 0.0114266 0.0105034 0.00957378 0.00863835
          0.00769776 0.00675248 0.00580283 0.00484901 0.00389104 0.00292877 0.00196183 0.000989606 0.0188329 0.0177643 0.0168809 0.0159999
          0.01511 0.0142104 0.0133017 0.012385 0.0114613 0.0105315 0.00959633 0.00865628 0.00771184 0.00676335 0.00581103 0.00485497
          0.00389512 0.00293126 0.00196295 0.000989517 0.0188651 0.0177749 0.0168988 0.0160198 0.0151307 0.0142313 0.0133224 0.0124053
          0.0114811 0.0105505 0.00961444 0.00867338 0.00772781 0.00677806 0.00582432 0.00486663 0.00390489 0.00293877 0.00196772 0.000990875
          0.0188816 0.0177626 0.0168972 0.0160207 0.0151327 0.0142338 0.0133254 0.0124088 0.0114849 0.0105546 0.00961874 0.00867783
          0.00773232 0.00678255 0.00582866 0.00487069 0.00390847 0.00294162 0.00196947 0.000991002 0.0188949 0.0177427 0.0168914 0.0160183
          0.0151312 0.0142328 0.0133247 0.0124083 0.0114846 0.0105545 0.00961876 0.00867796 0.00773255 0.00678282 0.00582895 0.00487094
          0.00390862 0.00294157 0.0019691 0.000990153 0.0189062 0.0177193 0.0168841 0.0160151 0.0151292 0.0142312 0.0133234 0.0124071
          0.0114836 0.0105536 0.00961798 0.00867726 0.0077319 0.00678221 0.00582834 0.0048703 0.00390791 0.00294076 0.00196816 0.000989061
          0.0189155 0.0176954 0.0168766 0.0160118 0.0151271 0.0142296 0.013322 0.0124059 0.0114825 0.0105527 0.00961712 0.00867647
          0.00773116 0.0067815 0.00582763 0.00486958 0.00390714 0.00293991 0.00196722 0.000988052 0.0189226 0.017674 0.0168698 0.0160089
          0.0151253 0.0142282 0.0133208 0.0124049 0.0114816 0.0105518 0.00961637 0.00867578 0.00773051 0.00678087 0.00582701 0.00486895
          0.00390648 0.0029392 0.00196645 0.000987238 0.0189272 0.0176579 0.0168646 0.0160067 0.015124 0.0142271 0.0133199 0.0124041
          0.0114809 0.0105512 0.00961579 0.00867525 0.00773001 0.0067804 0.00582655 0.00486848 0.003906 0.00293869 0.0019659 0.000986672
          0.0189291 0.0176491 0.0168617 0.0160055 0.0151232 0.0142265 0.0133194 0.0124036 0.0114805 0.0105508 0.00961546 0.00867494
          0.00772973 0.00678013 0.0058263 0.00486824 0.00390575 0.00293843 0.00196563 0.000986393 0.0189291 0.0176491 0.0168617 0.0160055
          0.0151232 0.0142265 0.0133194 0.0124036 0.0114805 0.0105508 0.00961546 0.00867494 0.00772973 0.00678013 0.0058263 0.00486824
          0.00390575 0.00293843 0.00196563 0.000986393 0.0189272 0.0176579 0.0168646 0.0160067 0.015124 0.0142271 0.0133199 0.0124041
          0.0114809 0.0105512 0.00961579 0.00867525 0.00773001 0.0067804 0.00582655 0.00486848 0.003906 0.00293869 0.0019659 0.000986672
          0.0189226 0.017674 0.0168698 0.0160089 0.0151253 0.0142282 0.0133208 0.0124049 0.0114816 0.0105518 0.00961637 0.00867578
          0.00773051 0.00678087 0.00582701 0.00486895 0.00390648 0.0029392 0.00196645 0.000987238 0.0189155 0.0176954 0.0168766 0.0160118
          0.0151271 0.0142296 0.013322 0.0124059 0.0114825 0.0105527 0.00961712 0.00867647 0.00773116 0.0067815 0.00582763 0.00486958
          0.00390714 0.00293991 0.00196722 0.000988052 0.0189062 0.0177193 0.0168841 0.0160151 0.0151292 0.0142312 0.0133234 0.0124071
          0.0114836 0.0105536 0.00961798 0.00867726 0.0077319 0.00678221 0.00582834 0.0048703 0.00390791 0.00294076 0.00196816 0.000989061
          0.0188949 0.0177427 0.0168914 0.0160183 0.0151312 0.0142328 0.0133247 0.0124083 0.0114846 0.0105545 0.00961876 0.00867796
          0.00773255 0.00678282 0.00582895 0.00487094 0.00390862 0.00294157 0.0019691 0.000990153 0.0188816 0.0177626 0.0168972 0.0160207
          0.0151327 0.0142338 0.0133254 0.0124088 0.0114849 0.0105546 0.00961874 0.00867783 0.00773232 0.00678255 0.00582866 0.00487069
          0.00390847 0.00294162 0.00196947 0.000991002 0.0188651 0.0177749 0.0168988 0.0160198 0.0151307 0.0142313 0.0133224 0.0124053
          0.0114811 0.0105505 0.00961444 0.00867338 0.00772781 0.00677806 0.00582432 0.00486663 0.00390489 0.00293877 0.00196772 0.000990875
          0.0188329 0.0177643 0.0168809 0.0159999 0.01511 0.0142104 0.0133017 0.012385 0.0114613 0.0105315 0.00959633 0.00865628
          0.00771184 0.00676335 0.00581103 0.00485497 0.00389512 0.00293126 0.00196295 0.000989517 0.0186509 0.0176291 0.0167676 0.015906
          0.0150325 0.0141466 0.0132494 0.0123422 0.0114266 0.0105034 0.00957378 0.00863835 0.00769776 0.00675248 0.00580283 0.00484901
          0.00389104 0.00292877 0.00196183 0.000989606
        </DataArray>
        <DataArray type="Float32" Name="process rank" NumberOfComponents="1" format="ascii">
          0 0 0 0 0 0 0 0 0 0 0 0
          0 0 0 0 0 0 0 0 0 0 0 0
          0 0 0 0 0 0 0 0 0 0 0 0
          0 0 0 0 0 0 0 0 0 0 0 0
          0 0 0 0 0 0 0 0 0 0 0 0
          0 0 0 0 0 0 0 0 0 0 0 0
          0 0 0 0 0 0 0 0 0 0 0 0
          0 0 0 0 0 0 0 0 0 0 0 0
          0 0 0 0 0 0 0 0 0 0 0 0
          0 0 0 0 0 0 0 0 0 0 0 0
          0 0 0 0 0 0 0 0 0 0 0 0
          0 0 0 0 0 0 0 0 0 0 0 0
          0 0 0 0 0 0 0 0 0 0 0 0
          0 0 0 0 0 0 0 0 0 0 0 0
          0 0 0 0 0 0 0 0 0 0 0 0
          0 0 0 0 0 0 0 0 0 0 0 0
          0 0 0 0 0 0 0 0 0 0 0 0
          0 0 0 0 0 0 0 0 0 0 0 0
          0 0 0 0 0 0 0 0 0 0 0 0
          0 0 0 0 0 0 0 0 0 0 0 0
          0 0 0 0 0 0 0 0 0 0 0 0
          0 0 0 0 0 0 0 0 0 0 0 0
          0 0 0 0 0 0 0 0 0 0 0 0
          0 0 0 0 0 0 0 0 0 0 0 0
          0 0 0 0 0 0 0 0 0 0 0 0
          0 0 0 0 0 0 0 0 0 0 0 0
          0 0 0 0 0 0 0 0 0 0 0 0
          0 0 0 0 0 0 0 0 0 0 0 0
          0 0 0 0 0 0 0 0 0 0 0 0
          0 0 0 0 0 0 0 0 0 0 0 0
          0 0 0 0 0 0 0 0 0 0 0 0
          0 0 0 0 0 0 0 0 0 0 0 0
          0 0 0 0 0 0 0 0 0 0 0 0
          0 0 0 0
        </DataArray>
        <DataArray type="Float32" Name="exactWaterDepth" NumberOfComponents="1" format="ascii">
          10 10 10 10 10 10 10 10 10 10 10 10
          10 10 10 10 10 10 10 10 10 10 10 10
          10 10 10 10 10 10 10 10 10 10 10 10
          10 10 10 10 10 10 10 10 10 10 10 10
          10 10 10 10 10 10 10 10 10 10 10 10
          10 10 10 10 10 10 10 10 10 10 10 10
          10 10 10 10 10 10 10 10 10 10 10 10
          10 10 10 10 10 10 10 10 10 10 10 10
          10 10 10 10 10 10 10 10 10 10 10 10
          10 10 10 10 10 10 10 10 10 10 10 10
          10 10 10 10 10 10 10 10 10 10 10 10
          10 10 10 10 10 10 10 10 10 10 10 10
          10 10 10 10 10 10 10 10 10 10 10 10
          10 10 10 10 10 10 10 10 10 10 10 10
          10 10 10 10 10 10 10 10 10 10 10 10
          10 10 10 10 10 10 10 10 10 10 10 10
          10 10 10 10 10 10 10 10 10 10 10 10
          10 10 10 10 10 10 10 10 10 10 10 10
          10 10 10 10 10 10 10 10 10 10 10 10
          10 10 10 10 10 10 10 10 10 10 10 10
          10 10 10 10 10 10 10 10 10 10 10 10
          10 10 10 10 10 10 10 10 10 10 10 10
          10 10 10 10 10 10 10 10 10 10 10 10
          10 10 10 10 10 10 10 10 10 10 10 10
          10 10 10 10 10 10 10 10 10 10 10 10
          10 10 10 10 10 10 10 10 10 10 10 10
          10 10 10 10 10 10 10 10 10 10 10 10
          10 10 10 10 10 10 10 10 10 10 10 10
          10 10 10 10 10 10 10 10 10 10 10 10
          10 10 10 10 10 10 10 10 10 10 10 10
          10 10 10 10 10 10 10 10 10 10 10 10
          10 10 10 10 10 10 10 10 10 10 10 10
          10 10 10 10 10 10 10 10 10 10 10 10
          10 10 10 10
        </DataArray>
        <DataArray type="Float32" Name="exactVelocityX" NumberOfComponents="1" format="ascii">
          0.597797 0.597797 0.597797 0.597797 0.597797 0.597797 0.597797 0.597797 0.597797 0.597797 0.597797 0.597797
          0.597797 0.597797 0.597797 0.597797 0.597797 0.597797 0.597797 0.597797 1.70142 1.70142 1.70142 1.70142
          1.70142 1.70142 1.70142 1.70142 1.70142 1.70142 1.70142 1.70142 1.70142 1.70142 1.70142 1.70142
          1.70142 1.70142 1.70142 1.70142 2.68242 2.68242 2.68242 2.68242 2.68242 2.68242 2.68242 2.68242
          2.68242 2.68242 2.68242 2.68242 2.68242 2.68242 2.68242 2.68242 2.68242 2.68242 2.68242 2.68242
          3.5408 3.5408 3.5408 3.5408 3.5408 3.5408 3.5408 3.5408 3.5408 3.5408 3.5408 3.5408
          3.5408 3.5408 3.5408 3.5408 3.5408 3.5408 3.5408 3.5408 4.27655 4.27655 4.27655 4.27655
          4.27655 4.27655 4.27655 4.27655 4.27655 4.27655 4.27655 4.27655 4.27655 4.27655 4.27655 4.27655
          4.27655 4.27655 4.27655 4.27655 4.88967 4.88967 4.88967 4.88967 4.88967 4.88967 4.88967 4.88967
          4.88967 4.88967 4.88967 4.88967 4.88967 4.88967 4.88967 4.88967 4.88967 4.88967 4.88967 4.88967
          5.38017 5.38017 5.38017 5.38017 5.38017 5.38017 5.38017 5.38017 5.38017 5.38017 5.38017 5.38017
          5.38017 5.38017 5.38017 5.38017 5.38017 5.38017 5.38017 5.38017 5.74805 5.74805 5.74805 5.74805
          5.74805 5.74805 5.74805 5.74805 5.74805 5.74805 5.74805 5.74805 5.74805 5.74805 5.74805 5.74805
          5.74805 5.74805 5.74805 5.74805 5.9933 5.9933 5.9933 5.9933 5.9933 5.9933 5.9933 5.9933
          5.9933 5.9933 5.9933 5.9933 5.9933 5.9933 5.9933 5.9933 5.9933 5.9933 5.9933 5.9933
          6.11592 6.11592 6.11592 6.11592 6.11592 6.11592 6.11592 6.11592 6.11592 6.11592 6.11592 6.11592
          6.11592 6.11592 6.11592 6.11592 6.11592 6.11592 6.11592 6.11592 6.11592 6.11592 6.11592 6.11592
          6.11592 6.11592 6.11592 6.11592 6.11592 6.11592 6.11592 6.11592 6.11592 6.11592 6.11592 6.11592
          6.11592 6.11592 6.11592 6.11592 5.9933 5.9933 5.9933 5.9933 5.9933 5.9933 5.9933 5.9933
          5.9933 5.9933 5.9933 5.9933 5.9933 5.9933 5.9933 5.9933 5.9933 5.9933 5.9933 5.9933
          5.74805 5.74805 5.74805 5.74805 5.74805 5.74805 5.74805 5.74805 5.74805 5.74805 5.74805 5.74805
          5.74805 5.74805 5.74805 5.74805 5.74805 5.74805 5.74805 5.74805 5.38017 5.38017 5.38017 5.38017
          5.38017 5.38017 5.38017 5.38017 5.38017 5.38017 5.38017 5.38017 5.38017 5.38017 5.38017 5.38017
          5.38017 5.38017 5.38017 5.38017 4.88967 4.88967 4.88967 4.88967 4.88967 4.88967 4.88967 4.88967
          4.88967 4.88967 4.88967 4.88967 4.88967 4.88967 4.88967 4.88967 4.88967 4.88967 4.88967 4.88967
          4.27655 4.27655 4.27655 4.27655 4.27655 4.27655 4.27655 4.27655 4.27655 4.27655 4.27655 4.27655
          4.27655 4.27655 4.27655 4.27655 4.27655 4.27655 4.27655 4.27655 3.5408 3.5408 3.5408 3.5408
          3.5408 3.5408 3.5408 3.5408 3.5408 3.5408 3.5408 3.5408 3.5408 3.5408 3.5408 3.5408
          3.5408 3.5408 3.5408 3.5408 2.68242 2.68242 2.68242 2.68242 2.68242 2.68242 2.68242 2.68242
          2.68242 2.68242 2.68242 2.68242 2.68242 2.68242 2.68242 2.68242 2.68242 2.68242 2.68242 2.68242
          1.70142 1.70142 1.70142 1.70142 1.70142 1.70142 1.70142 1.70142 1.70142 1.70142 1.70142 1.70142
          1.70142 1.70142 1.70142 1.70142 1.70142 1.70142 1.70142 1.70142 0.597797 0.597797 0.597797 0.597797
          0.597797 0.597797 0.597797 0.597797 0.597797 0.597797 0.597797 0.597797 0.597797 0.597797 0.597797 0.597797
          0.597797 0.597797 0.597797 0.597797
        </DataArray>
        <DataArray type="Float32" Name="exactVelocityY" NumberOfComponents="1" format="ascii">
          0 0 0 0 0 0 0 0 0 0 0 0
          0 0 0 0 0 0 0 0 0 0 0 0
          0 0 0 0 0 0 0 0 0 0 0 0
          0 0 0 0 0 0 0 0 0 0 0 0
          0 0 0 0 0 0 0 0 0 0 0 0
          0 0 0 0 0 0 0 0 0 0 0 0
          0 0 0 0 0 0 0 0 0 0 0 0
          0 0 0 0 0 0 0 0 0 0 0 0
          0 0 0 0 0 0 0 0 0 0 0 0
          0 0 0 0 0 0 0 0 0 0 0 0
          0 0 0 0 0 0 0 0 0 0 0 0
          0 0 0 0 0 0 0 0 0 0 0 0
          0 0 0 0 0 0 0 0 0 0 0 0
          0 0 0 0 0 0 0 0 0 0 0 0
          0 0 0 0 0 0 0 0 0 0 0 0
          0 0 0 0 0 0 0 0 0 0 0 0
          0 0 0 0 0 0 0 0 0 0 0 0
          0 0 0 0 0 0 0 0 0 0 0 0
          0 0 0 0 0 0 0 0 0 0 0 0
          0 0 0 0 0 0 0 0 0 0 0 0
          0 0 0 0 0 0 0 0 0 0 0 0
          0 0 0 0 0 0 0 0 0 0 0 0
          0 0 0 0 0 0 0 0 0 0 0 0
          0 0 0 0 0 0 0 0 0 0 0 0
          0 0 0 0 0 0 0 0 0 0 0 0
          0 0 0 0 0 0 0 0 0 0 0 0
          0 0 0 0 0 0 0 0 0 0 0 0
          0 0 0 0 0 0 0 0 0 0 0 0
          0 0 0 0 0 0 0 0 0 0 0 0
          0 0 0 0 0 0 0 0 0 0 0 0
          0 0 0 0 0 0 0 0 0 0 0 0
          0 0 0 0 0 0 0 0 0 0 0 0
          0 0 0 0 0 0 0 0 0 0 0 0
          0 0 0 0
        </DataArray>
      </CellData>
      <Points>
        <DataArray type="Float32" Name="Coordinates" NumberOfComponents="3" format="ascii">
          0 -50 0 20 -50 0 0 -45 0 20 -45 0
          40 -50 0 40 -45 0 60 -50 0 60 -45 0
          80 -50 0 80 -45 0 100 -50 0 100 -45 0
          120 -50 0 120 -45 0 140 -50 0 140 -45 0
          160 -50 0 160 -45 0 180 -50 0 180 -45 0
          200 -50 0 200 -45 0 220 -50 0 220 -45 0
          240 -50 0 240 -45 0 260 -50 0 260 -45 0
          280 -50 0 280 -45 0 300 -50 0 300 -45 0
          320 -50 0 320 -45 0 340 -50 0 340 -45 0
          360 -50 0 360 -45 0 380 -50 0 380 -45 0
          400 -50 0 400 -45 0 0 -40 0 20 -40 0
          40 -40 0 60 -40 0 80 -40 0 100 -40 0
          120 -40 0 140 -40 0 160 -40 0 180 -40 0
          200 -40 0 220 -40 0 240 -40 0 260 -40 0
          280 -40 0 300 -40 0 320 -40 0 340 -40 0
          360 -40 0 380 -40 0 400 -40 0 0 -35 0
          20 -35 0 40 -35 0 60 -35 0 80 -35 0
          100 -35 0 120 -35 0 140 -35 0 160 -35 0
          180 -35 0 200 -35 0 220 -35 0 240 -35 0