<?xml version="1.0"?>
<VTKFile type="UnstructuredGrid" version="0.1" byte_order="LittleEndian">
  <UnstructuredGrid>
    <Piece NumberOfCells="10" NumberOfPoints="18">
      <PointData Scalars="S_liq" Vectors="velocity_liq (m/s)">
        <DataArray type="Float32" Name="S_liq" NumberOfComponents="1" format="ascii">
          0.371978 0.371978 0.354838 0.354838 0.371978 0.354838 0.328172 0.328172 0.328172 0.315209 0.315209 0.315209
          0.300496 0.300496 0.300496 0.284002 0.284002 0.284002
        </DataArray>
        <DataArray type="Float32" Name="p_liq" NumberOfComponents="1" format="ascii">
          92441.6 92441.6 92339 92339 92441.6 92339 92142.7 92142.7 92142.7 92022.3 92022.3 92022.3
          91852.6 91852.6 91852.6 91588.1 91588.1 91588.1
        </DataArray>
        <DataArray type="Float32" Name="rho_liq" NumberOfComponents="1" format="ascii">
          1012.93 1012.93 1012.93 1012.93 1012.93 1012.93 1012.94 1012.94 1012.94 1013.27 1013.27 1013.27
          1021.12 1021.12 1021.12 1201.64 1201.64 1201.64
        </DataArray>
        <DataArray type="Float32" Name="mob_liq" NumberOfComponents="1" format="ascii">
          6.36547 6.36547 4.25166 4.25166 6.36547 4.25166 1.94604 1.94604 1.94604 1.20035 1.20035 1.20035
          0.597675 0.597675 0.597675 0.112315 0.112315 0.112315
        </DataArray>
        <DataArray type="Float32" Name="S_gas" NumberOfComponents="1" format="ascii">
          0.628022 0.628022 0.645162 0.645162 0.628022 0.645162 0.671828 0.671828 0.671828 0.684791 0.684791 0.684791
          0.699504 0.699504 0.699504 0.715998 0.715998 0.715998
        </DataArray>
        <DataArray type="Float32" Name="p_gas" NumberOfComponents="1" format="ascii">
          100002 100002 100002 100002 100002 100002 100002 100002 100002 100002 100002 100002
          100002 100002 100002 100001 100001 100001
        </DataArray>
        <DataArray type="Float32" Name="rho_gas" NumberOfComponents="1" format="ascii">
          1.21011 1.21011 1.21011 1.21011 1.21011 1.21011 1.21009 1.21009 1.21009 1.21009 1.21009 1.21009
          1.21011 1.21011 1.21011 1.21071 1.21071 1.21071
        </DataArray>
        <DataArray type="Float32" Name="mob_gas" NumberOfComponents="1" format="ascii">
          38092.6 38092.6 40506.3 40506.3 38092.6 40506.3 44380.7 44380.7 44380.7 46405.7 46405.7 46405.7
          49201.4 49201.4 49201.4 52412.2 52412.2 52412.2
        </DataArray>
        <DataArray type="Float32" Name="pc" NumberOfComponents="1" format="ascii">
          7560.15 7560.15 7662.69 7662.69 7560.15 7662.69 7858.89 7858.89 7858.89 7979.27 7979.27 7979.27
          8148.98 8148.98 8148.98 8413.08 8413.08 8413.08
        </DataArray>
        <DataArray type="Float32" Name="porosity" NumberOfComponents="1" format="ascii">
          0.4 0.4 0.4 0.4 0.4 0.4 0.4 0.4 0.4 0.4 0.4 0.4
          0.4 0.4 0.4 0.399881 0.399881 0.399881
        </DataArray>
        <DataArray type="Float32" Name="x^H2O_liq" NumberOfComponents="1" format="ascii">
          0.993731 0.993731 0.993731 0.993731 0.993731 0.993731 0.993726 0.993726 0.993726 0.993572 0.993572 0.993572
          0.989938 0.989938 0.989938 0.90155 0.90155 0.90155
        </DataArray>
        <DataArray type="Float32" Name="x^Air_liq" NumberOfComponents="1" format="ascii">
          1.69649e-05 1.69649e-05 1.69646e-05 1.69646e-05 1.69649e-05 1.69646e-05 1.69637e-05 1.69637e-05 1.69637e-05 1.69634e-05 1.69634e-05 1.69634e-05
          1.6964e-05 1.6964e-05 1.6964e-05 1.69866e-05 1.69866e-05 1.69866e-05
        </DataArray>
        <DataArray type="Float32" Name="x^NaCl_liq" NumberOfComponents="1" format="ascii">
          0.00625221 0.00625221 0.00625235 0.00625235 0.00625221 0.00625235 0.00625695 0.00625695 0.00625695 0.00641114 0.00641114 0.00641114
          0.0100447 0.0100447 0.0100447 0.0984327 0.0984327 0.0984327
        </DataArray>
        <DataArray type="Float32" Name="rhoMolar_liq" NumberOfComponents="1" format="ascii">
          55447.9 55447.9 55447.8 55447.8 55447.9 55447.8 55447.8 55447.8 55447.8 55447.1 55447.1 55447.1
          55430.8 55430.8 55430.8 54633 54633 54633
        </DataArray>
        <DataArray type="Float32" Name="x^H2O_gas" NumberOfComponents="1" format="ascii">
          0.0149482 0.0149482 0.014949 0.014949 0.0149482 0.014949 0.0149513 0.0149513 0.0149513 0.0149498 0.0149498 0.0149498
          0.014896 0.014896 0.014896 0.0135666 0.0135666 0.0135666
        </DataArray>
        <DataArray type="Float32" Name="x^Air_gas" NumberOfComponents="1" format="ascii">
          0.985052 0.985052 0.985051 0.985051 0.985052 0.985051 0.985049 0.985049 0.985049 0.98505 0.98505 0.98505
          0.985104 0.985104 0.985104 0.986433 0.986433 0.986433
        </DataArray>
        <DataArray type="Float32" Name="x^NaCl_gas" NumberOfComponents="1" format="ascii">
          -0 -0 -0 -0 -0 -0 -0 -0 -0 -0 -0 -0
          -0 -0 -0 -0 -0 -0
        </DataArray>
        <DataArray type="Float32" Name="rhoMolar_gas" NumberOfComponents="1" format="ascii">
          42.0232 42.0232 42.0231 42.0231 42.0232 42.0231 42.0227 42.0227 42.0227 42.0226 42.0226 42.0226
          42.0224 42.0224 42.0224 42.0221 42.0221 42.0221
        </DataArray>
        <DataArray type="Float32" Name="phase presence" NumberOfComponents="1" format="ascii">
          3 3 3 3 3 3 3 3 3 3 3 3
          3 3 3 3 3 3
        </DataArray>
        <DataArray type="Float32" Name="precipitateVolumeFraction^NaCl" NumberOfComponents="1" format="ascii">
          0 0 0 0 0 0 0 0 0 0 0 0
          0 0 0 0.000118571 0.000118571 0.000118571
        </DataArray>
        <DataArray type="Float32" Name="T" NumberOfComponents="1" format="ascii">
          286.213 286.213 286.214 286.214 286.213 286.214 286.216 286.216 286.216 286.217 286.217 286.217
          286.218 286.218 286.218 286.219 286.219 286.219
        </DataArray>
        <DataArray type="Float32" Name="velocity_liq (m/s)" NumberOfComponents="3" format="ascii">
          6.2062e-22 2.38488e-09 0 2.77889e-23 2.38488e-09 0 3.3719e-22 4.64329e-09 0 1.2838e-22 4.64329e-09 0
          -5.65042e-22 2.38488e-09 0 -8.04307e-23 4.64329e-09 0 -1.65664e-22 8.40667e-09 0 1.84071e-23 8.40667e-09 0
          2.02478e-22 8.40667e-09 0 -4.30149e-23 1.0537e-08 0 7.05231e-23 1.0537e-08 0 1.84061e-22 1.0537e-08 0
          -1.11478e-22 1.10058e-08 0 -2.56098e-23 1.10058e-08 0 6.02583e-23 1.10058e-08 0 -4.8864e-23 1.08492e-08 0
          -2.27388e-23 1.08492e-08 0 3.38638e-24 1.08492e-08 0
        </DataArray>
        <DataArray type="Float32" Name="velocity_gas (m/s)" NumberOfComponents="3" format="ascii">
          7.76048e-19 -2.41276e-09 0 -1.88469e-18 -2.41276e-09 0 3.35984e-18 -4.70999e-09 0 1.37046e-18 -4.70999e-09 0
          -4.54542e-18 -2.41276e-09 0 -6.18917e-19 -4.70999e-09 0 -4.16556e-18 -7.87067e-09 0 1.58227e-18 -7.87067e-09 0
          7.3301e-18 -7.87067e-09 0 5.4845e-18 1.09612e-08 0 5.6702e-18 1.09612e-08 0 5.85591e-18 1.09612e-08 0
          1.21162e-18 6.71232e-07 0 7.64283e-19 6.71232e-07 0 3.16942e-19 6.71232e-07 0 4.76578e-18 1.31181e-06 0
          -5.29865e-19 1.31181e-06 0 -5.82551e-18 1.31181e-06 0
        </DataArray>
        <DataArray type="Float32" Name="Permeability" NumberOfComponents="1" format="ascii">
          1e-13 1e-13 1e-13 1e-13 1e-13 1e-13 1e-13 1e-13 1e-13 1e-13 1e-13 1e-13
          9.99679e-14 9.99679e-14 9.99679e-14 9.99037e-14 9.99037e-14 9.99037e-14
        </DataArray>
      </PointData>
      <CellData Scalars="process rank">
        <DataArray type="Float32" Name="process rank" NumberOfComponents="1" format="ascii">
          0 0 0 0 0 0 0 0 0 0
        </DataArray>
      </CellData>
      <Points>
        <DataArray type="Float32" Name="Coordinates" NumberOfComponents="3" format="ascii">
          0 0 0 0.01 0 0 0 0.0075 0 0.01 0.0075 0
          0.02 0 0 0.02 0.0075 0 0 0.015 0 0.01 0.015 0
          0.02 0.015 0 0 0.016978 0 0.01 0.016978 0 0.02 0.016978 0
          0 0.0186264 0 0.01 0.0186264 0 0.02 0.0186264 0 0 0.02 0
          0.01 0.02 0 0.02 0.02 0
        </DataArray>
      </Points>
      <Cells>
        <DataArray type="Int32" Name="connectivity" NumberOfComponents="1" format="ascii">
          0 1 3 2 1 4 5 3 2 3 7 6
          3 5 8 7 6 7 10 9 7 8 11 10
          9 10 13 12 10 11 14 13 12 13 16 15
          13 14 17 16
        </DataArray>
        <DataArray type="Int32" Name="offsets" NumberOfComponents="1" format="ascii">
          4 8 12 16 20 24 28 32 36 40
        </DataArray>
        <DataArray type="UInt8" Name="types" NumberOfComponents="1" format="ascii">
          9 9 9 9 9 9 9 9 9 9
        </DataArray>
      </Cells>
    </Piece>
  </UnstructuredGrid>
</VTKFile>
