<?xml version="1.0"?>
<VTKFile type="UnstructuredGrid" version="0.1" byte_order="LittleEndian">
  <UnstructuredGrid>
    <Piece NumberOfCells="5088" NumberOfPoints="2597">
      <CellData Scalars="elementMarker">
        <DataArray type="Float32" Name="elementMarker" NumberOfComponents="1" format="ascii">
          -0.237116 -0.237116 -0.197147 -0.197147 0.0716858 0.0716858 0.208298 0.208298 0.244314 0.244314 0.286385 0.286385
          0.306261 0.306261 0.362645 0.362645 0.162444 0.162444 0.250927 0.250927 0.164852 0.164852 0.257516 0.257516
          0.339202 0.339202 0.395171 0.395171 0.083412 0.083412 0.176576 0.176576 0.218647 0.218647 0.161724 0.161724
          0.201516 0.201516 0.302817 0.302817 0.348572 0.348572 -0.122715 -0.122715 -0.0465049 -0.0465049 0.0160567 0.0160567
          -0.134194 -0.134194 -0.0667631 -0.0667631 0.0824563 0.0824563 0.15119 0.15119 0.28968 0.28968 0.356776 0.356776
          0.416475 0.416475 0.484365 0.484365 0.423937 0.423937 0.468121 0.468121 0.552374 0.552374 0.387147 0.387147
          0.460668 0.460668 0.441266 0.441266 0.542073 0.542073 0.506834 0.506834 0.579303 0.579303 0.509856 0.509856
          0.562274 0.562274 0.617023 0.617023 0.666352 0.666352 0.664142 0.664142 0.572596 0.572596 0.672679 0.672679
          0.735863 0.735863 0.614143 0.614143 0.67314 0.67314 0.73329 0.73329 0.774006 0.774006 0.812194 0.812194
          0.847618 0.847618 0.843323 0.843323 0.872207 0.872207 0.905999 0.905999 0.939194 0.939194 -0.00539014 -0.00539014
          0.0886972 0.0886972 -0.0814475 -0.0814475 -0.111266 -0.111266 0.00921385 0.00921385 0.153179 0.153179 0.27017 0.27017
          0.376152 0.376152 0.436195 0.436195 0.355287 0.355287 0.435246 0.435246 0.130084 0.130084 0.184407 0.184407
          0.266822 0.266822 0.344473 0.344473 0.441628 0.441628 -0.0829333 -0.0829333 -0.0533366 -0.0533366 -0.0238738 -0.0238738
          0.0466612 0.0466612 0.00407735 0.00407735 -0.0521413 -0.0521413 -0.0225446 -0.0225446 -0.0153511 -0.0153511 0.00402743 0.00402743
          0.00118656 0.00118656 0.0192965 0.0192965 0.00824125 0.00824125 -0.00129429 -0.00129429 0.100984 0.100984 0.166121 0.166121
          0.0860456 0.0860456 0.137328 0.137328 0.161829 0.161829 0.239007 0.239007 0.283623 0.283623 0.334783 0.334783
          0.228999 0.228999 0.0455052 0.0455052 0.0656251 0.0656251 0.0158781 0.0158781 0.019225 0.019225 0.0804071 0.0804071
          0.100807 0.100807 0.0114535 0.0114535 0.0248247 0.0248247 0.545263 0.545263 0.597801 0.597801 0.732186 0.732186
          0.669365 0.669365 0.772948 0.772948 0.752567 0.752567 0.789178 0.789178 0.487785 0.487785 0.482026 0.482026
          0.57596 0.57596 0.540444 0.540444 0.635104 0.635104 0.671715 0.671715 0.607938 0.607938 0.633673 0.633673
          0.844982 0.844982 0.87448 0.87448 0.849056 0.849056 0.872905 0.872905 0.921414 0.921414 0.937713 0.937713
          0.906318 0.906318 0.916603 0.916603 0.727831 0.727831 0.760552 0.760552 0.667691 0.667691 0.692992 0.692992
          0.783836 0.783836 0.794121 0.794121 0.712931 0.712931 0.717272 0.717272 0.388655 0.388655 0.419539 0.419539
          0.268491 0.268491 0.286567 0.286567 0.458337 0.458337 0.478766 0.478766 0.333068 0.333068 0.346131 0.346131
          0.115562 0.115562 0.0270339 0.0270339 0.125796 0.125796 0.0216504 0.0216504 0.138859 0.138859 0.0302068 0.0302068
          0.145699 0.145699 0.0265953 0.0265953 0.377011 0.377011 0.384829 0.384829 0.501626 0.501626 0.396201 0.396201
          0.513232 0.513232 0.517574 0.517574 0.403182 0.403182 0.403344 0.403344 0.153517 0.153517 0.0317034 0.0317034
          0.15759 0.15759 0.031839 0.031839 0.159543 0.159543 0.0315858 0.0315858 0.159451 0.159451 0.0309647 0.0309647
          -0.730892 -0.730892 -0.604515 -0.604515 -0.475939 -0.475939 -0.412703 -0.412703 -0.368871 -0.368871 -0.541067 -0.541067
          -0.449164 -0.449164 -0.374509 -0.374509 -0.297306 -0.297306 -0.196351 -0.196351 -0.701967 -0.701967 -0.657426 -0.657426
          -0.565242 -0.565242 -0.645005 -0.645005 -0.600894 -0.600894 -0.491259 -0.491259 -0.530135 -0.530135 -0.322245 -0.322245
          -0.244702 -0.244702 -0.438994 -0.438994 -0.339381 -0.339381 -0.612912 -0.612912 -0.571567 -0.571567 -0.522072 -0.522072
          -0.51172 -0.51172 -0.450069 -0.450069 -0.232595 -0.232595 -0.395557 -0.395557 -0.363278 -0.363278 -0.182248 -0.182248
          -0.15037 -0.15037 -0.101858 -0.101858 -0.431027 -0.431027 -0.433487 -0.433487 -0.386643 -0.386643 -0.309224 -0.309224
          -0.384256 -0.384256 -0.286996 -0.286996 -0.286123 -0.286123 -0.242325 -0.242325 -0.19229 -0.19229 -0.143849 -0.143849
          -0.152908 -0.152908 -0.115563 -0.115563 -0.284571 -0.284571 -0.253923 -0.253923 -0.263477 -0.263477 -0.179508 -0.179508
          -0.153535 -0.153535 -0.193705 -0.193705 -0.142331 -0.142331 -0.104986 -0.104986 -0.109611 -0.109611 -0.0535674 -0.0535674
          -0.0577176 -0.0577176 -0.0297184 -0.0297184 -0.0392858 -0.0392858 -0.0436981 -0.0436981 -0.0240084 -0.0240084 0.298211 0.298211
          0.0261242 0.0261242 0.042357 0.042357 -0.0638764 -0.0638764 0.072152 0.072152 0.113375 0.113375 0.458061 0.458061
          0.317901 0.317901 0.491692 0.491692 0.50102 0.50102 0.345483 0.345483 0.361716 0.361716 0.374653 0.374653
          0.385228 0.385228 0.387906 0.387906 0.521673 0.521673 0.520952 0.520952 0.525495 0.525495 0.516636 0.516636
          -0.033228 -0.033228 0.00247865 0.00247865 0.0284518 0.0284518 0.0516054 0.0516054 0.120413 0.120413 0.149497 0.149497
          0.15876 0.15876 0.15314 0.15314 0.0646829 0.0646829 -0.00181557 -0.00181557 0.00255525 0.00255525 0.0789645 0.0789645
          0.157157 0.157157 0.14218 0.14218 0.0734584 0.0734584 0.0778292 0.0778292 0.383936 0.383936 0.360529 0.360529
          0.500286 0.500286 0.478014 0.478014 0.354908 0.354908 0.312019 0.312019 0.444849 0.444849 0.412224 0.412224
          0.12688 0.12688 0.102627 0.102627 0.297042 0.297042 0.235454 0.235454 0.211201 0.211201 0.158603 0.158603
          0.735929 0.735929 0.75452 0.75452 0.765045 0.765045 0.769465 0.769465 0.827697 0.827697 0.848468 0.848468
          0.860172 0.860172 0.86351 0.86351 0.76072 0.76072 0.754689 0.754689 0.855486 0.855486 0.834553 0.834553
          0.721609 0.721609 0.70473 0.70473 0.812915 0.812915 0.935587 0.935587 0.952923 0.952923 0.959966 0.959966
          0.956604 0.956604 0.767876 0.767876 0.942836 0.942836 0.918778 0.918778 0.884659 0.884659 0.840819 0.840819
          0.648064 0.648064 0.620519 0.620519 0.566337 0.566337 0.478201 0.478201 0.359808 0.359808 0.31789 0.31789
          0.247644 0.247644 0.182657 0.182657 0.436284 0.436284 0.331325 0.331325 0.281722 0.281722 0.164327 0.164327
          0.733481 0.733481 0.665664 0.665664 0.602383 0.602383 0.551686 0.551686 0.787709 0.787709 0.72588 0.72588
          0.655983 0.655983 0.578759 0.578759 0.454642 0.454642 0.395676 0.395676 0.283903 0.283903 0.2192 0.2192
          0.495032 0.495032 0.4057 0.4057 0.311726 0.311726 0.214125 0.214125 0.00366562 0.00366562 0.19582 0.19582
          0.0978788 0.0978788 0.147297 0.147297 -0.120331 -0.120331 0.289422 0.289422 0.332127 0.332127 0.2382 0.2382
          0.284149 0.284149 0.4183 0.4183 0.455092 0.455092 0.508009 0.508009 -0.070913 -0.070913 -0.142899 -0.142899
          0.0281922 0.0281922 0.0976244 0.0976244 -0.0919912 -0.0919912 -0.0198876 -0.0198876 0.161903 0.161903 0.0474387 0.0474387
          0.108653 0.108653 0.363663 0.363663 0.417306 0.417306 0.569023 0.569023 0.450933 0.450933 0.219709 0.219709
          0.253336 0.253336 0.491217 0.491217 0.610707 0.610707 0.647499 0.647499 0.743826 0.743826 0.77271 0.77271
          0.708865 0.708865 0.736252 0.736252 0.823305 0.823305 0.849568 0.849568 0.767973 0.767973 0.908615 0.908615
          0.955492 0.955492 0.941891 0.941891 0.971615 0.971615 0.865881 0.865881 0.955046 0.955046 0.958396 0.958396
          0.603115 0.603115 0.790127 0.790127 0.802012 0.802012 0.618399 0.618399 0.641918 0.641918 0.528199 0.528199
          0.543182 0.543182 0.643427 0.643427 0.869231 0.869231 0.803521 0.803521 0.866962 0.866962 0.856031 0.856031
          0.949496 0.949496 0.786947 0.786947 0.774177 0.774177 0.825295 0.825295 0.788988 0.788988 -0.0614639 -0.0614639
          0.178031 0.178031 -0.0206849 -0.0206849 -0.0417967 -0.0417967 0.0430651 0.0430651 0.08294 0.08294 0.297822 0.297822
          0.220574 0.220574 0.244415 0.244415 0.34336 0.34336 0.358344 0.358344 0.276615 0.276615 0.376638 0.376638
          0.286948 0.286948 -0.0137975 -0.0137975 0.0252228 0.0252228 0.106781 0.106781 0.0656477 0.0656477 0.0760524 0.0760524
          -0.00285611 -0.00285611 0.0137278 0.0137278 0.134402 0.134402 0.144736 0.144736 0.291068 0.291068 0.145843 0.145843
          0.0904732 0.0904732 0.0882424 0.0882424 0.142227 0.142227 0.0762114 0.0762114 0.117514 0.117514 0.0618814 0.0618814
          0.552653 0.552653 0.638566 0.638566 0.553434 0.553434 0.625796 0.625796 0.37742 0.37742 0.367404 0.367404
          0.534266 0.534266 0.509275 0.509275 0.601092 0.601092 0.743741 0.743741 0.757859 0.757859 0.68627 0.68627
          0.554605 0.554605 0.48913 0.48913 0.447941 0.447941 0.5074 0.5074 0.633878 0.633878 0.287452 0.287452
          0.353979 0.353979 0.263644 0.263644 0.326984 0.326984 0.235125 0.235125 0.290607 0.290607 0.1007 0.1007
          0.197644 0.197644 0.152128 0.152128 0.398127 0.398127 0.45196 0.45196 0.409063 0.409063 0.318169 0.318169
          0.320933 0.320933 0.245706 0.245706 0.119356 0.119356 0.175872 0.175872 0.134659 0.134659 0.276956 0.276956
          0.957251 0.957251 0.922906 0.922906 0.959355 0.959355 0.977036 0.977036 0.971914 0.971914 0.954234 0.954234
          0.932291 0.932291 0.913247 0.913247 0.914538 0.914538 0.801925 0.801925 0.716483 0.716483 0.797 0.797
          0.787259 0.787259 0.904797 0.904797 0.869828 0.869828 0.760908 0.760908 0.730801 0.730801 0.930716 0.930716
          0.95603 0.95603 0.929737 0.929737 0.901554 0.901554 0.876812 0.876812 0.814126 0.814126 0.879461 0.879461
          0.847904 0.847904 0.793787 0.793787 0.848124 0.848124 0.866009 0.866009 0.834451 0.834451 0.789568 0.789568
          0.693549 0.693549 0.765707 0.765707 0.723899 0.723899 0.757836 0.757836 0.680188 0.680188 0.700975 0.700975
          0.516914 0.516914 0.399469 0.399469 0.509476 0.509476 0.499049 0.499049 0.690549 0.690549 0.666345 0.666345
          0.481573 0.481573 0.384636 0.384636 0.157413 0.157413 0.0300015 0.0300015 0.154467 0.154467 0.0314617 0.0314617
          0.36979 0.36979 0.361508 0.361508 0.148024 0.148024 0.0271711 0.0271711 0.140982 0.140982 0.0253735 0.0253735
          0.635448 0.635448 0.661817 0.661817 0.58159 0.58159 0.454634 0.454634 0.432508 0.432508 0.402067 0.402067
          0.600866 0.600866 0.556479 0.556479 0.561597 0.561597 0.489628 0.489628 0.362042 0.362042 0.329476 0.329476
          0.304941 0.304941 0.132613 0.132613 0.0233717 0.0233717 0.123109 0.123109 0.0212062 0.0212062 0.292498 0.292498
          0.264818 0.264818 0.112675 0.112675 0.0189183 0.0189183 0.10383 0.10383 0.0234099 0.0234099 0.706084 0.706084
          0.757335 0.757335 0.7151 0.7151 0.709744 0.709744 0.646349 0.646349 0.646129 0.646129 0.573483 0.573483
          0.530586 0.530586 0.556497 0.556497 0.506082 0.506082 0.546816 0.546816 0.638765 0.638765 0.639484 0.639484
          0.640919 0.640919 0.589646 0.589646 0.549823 0.549823 0.590365 0.590365 0.433255 0.433255 0.505277 0.505277
          0.438536 0.438536 0.325664 0.325664 0.0182302 0.0182302 0.011976 0.011976 0.0178782 0.0178782 0.0148802 0.0148802
          0.00405764 0.00405764 0.0526668 0.0526668 0.0310288 0.0310288 -0.0148552 -0.0148552 0.0126494 0.0126494 -0.0173035 -0.0173035
          -0.0316334 -0.0316334 -0.0363936 -0.0363936 -0.0767361 -0.0767361 -0.081488 -0.081488 -0.106341 -0.106341 -0.106741 -0.106741
          0.0722002 0.0722002 0.0194786 0.0194786 0.0279169 0.0279169 -0.0336624 -0.0336624 -0.0758276 -0.0758276 -0.00854199 -0.00854199
          -0.0578748 -0.0578748 0.100227 0.100227 -0.112311 -0.112311 -0.123708 -0.123708 -0.176515 -0.176515 -0.165021 -0.165021
          -0.233348 -0.233348 -0.171051 -0.171051 -0.233195 -0.233195 -0.269544 -0.269544 -0.316458 -0.316458 -0.36367 -0.36367
          0.025218 0.025218 0.0530743 0.0530743 0.000365245 0.000365245 -0.0416748 -0.0416748 0.00931777 0.00931777 -0.0234543 -0.0234543
          -0.171768 -0.171768 -0.2242 -0.2242 -0.107336 -0.107336 -0.14308 -0.14308 0.0415467 0.0415467 -0.0957954 -0.0957954
          -0.201217 -0.201217 -0.25509 -0.25509 -0.259944 -0.259944 -0.330361 -0.330361 -0.355004 -0.355004 -0.429836 -0.429836
          -0.417602 -0.417602 0.0085603 0.0085603 0.112615 0.112615 0.0574067 0.0574067 -0.0311761 -0.0311761 -0.132025 -0.132025
          -0.0394374 -0.0394374 -0.097792 -0.097792 0.109118 0.109118 -0.0156322 -0.0156322 -0.0739867 -0.0739867 -0.176695 -0.176695
          -0.201382 -0.201382 -0.281691 -0.281691 -0.328757 -0.328757 -0.432359 -0.432359 -0.26017 -0.26017 -0.36518 -0.36518
          -0.421571 -0.421571 0.0974571 0.0974571 0.0298145 0.0298145 -0.20055 -0.20055 -0.0965541 -0.0965541 -0.164197 -0.164197
          0.113955 0.113955 0.012305 0.012305 -0.089716 -0.089716 -0.190994 -0.190994 -0.259337 -0.259337 -0.38197 -0.38197
          -0.289514 -0.289514 -0.354203 -0.354203 -0.43836 -0.43836 -0.551394 -0.551394 -0.47273 -0.47273 -0.531629 -0.531629
          -0.29042 -0.29042 -0.386902 -0.386902 -0.479381 -0.479381 -0.566837 -0.566837 -0.478983 -0.478983 -0.522328 -0.522328
          0.0510827 0.0510827 0.0408646 0.0408646 -0.0138135 -0.0138135 -0.0443676 -0.0443676 0.0941494 0.0941494 0.0379727 0.0379727
          -0.00677292 -0.00677292 -0.0546756 -0.0546756 -0.0534039 -0.0534039 -0.100043 -0.100043 -0.107815 -0.107815 -0.146674 -0.146674
          -0.104537 -0.104537 -0.142731 -0.142731 -0.185683 -0.185683 -0.217513 -0.217513 -0.250121 -0.250121 -0.335666 -0.335666
          0.0835957 0.0835957 0.090739 0.090739 0.00572818 0.00572818 -0.0390174 -0.0390174 0.0032324 0.0032324 -0.104467 -0.104467
          0.0139369 0.0139369 -0.0814015 -0.0814015 -0.0778404 -0.0778404 -0.14289 -0.14289 -0.165317 -0.165317 -0.211926 -0.211926
          -0.244353 -0.244353 -0.33705 -0.33705 -0.387416 -0.387416 -0.206161 -0.206161 -0.267011 -0.267011 -0.171897 -0.171897
          -0.233702 -0.233702 -0.383515 -0.383515 -0.438017 -0.438017 -0.355133 -0.355133 -0.41362 -0.41362 -0.166064 -0.166064
          -0.171448 -0.171448 -0.196289 -0.196289 -0.1999 -0.1999 -0.31893 -0.31893 -0.249034 -0.249034 -0.278767 -0.278767
          -0.367496 -0.367496 -0.436194 -0.436194 -0.299102 -0.299102 -0.476566 -0.476566 -0.50991 -0.50991 -0.214665 -0.214665
          -0.330984 -0.330984 -0.219404 -0.219404 -0.340022 -0.340022 -0.221257 -0.221257 -0.344544 -0.344544 -0.220332 -0.220332
          -0.34469 -0.34469 -0.536033 -0.536033 -0.548088 -0.548088 -0.654506 -0.654506 -0.566381 -0.566381 -0.664891 -0.664891
          -0.570747 -0.570747 -0.671967 -0.671967 -0.464918 -0.464918 -0.505415 -0.505415 -0.553498 -0.553498 -0.593717 -0.593717
          -0.668597 -0.668597 -0.720272 -0.720272 -0.540206 -0.540206 -0.585878 -0.585878 -0.523676 -0.523676 -0.575499 -0.575499
          -0.668527 -0.668527 -0.710749 -0.710749 -0.76615 -0.76615 -0.625781 -0.625781 -0.76284 -0.76284 -0.785757 -0.785757
          -0.819227 -0.819227 -0.829612 -0.829612 -0.89599 -0.89599 -0.812462 -0.812462 -0.859066 -0.859066 -0.855406 -0.855406
          -0.885696 -0.885696 -0.875865 -0.875865 -0.932122 -0.932122 -0.955339 -0.955339 -0.153761 -0.153761 -0.264491 -0.264491
          -0.326296 -0.326296 -0.437375 -0.437375 -0.225156 -0.225156 -0.273739 -0.273739 -0.385546 -0.385546 -0.232399 -0.232399
          -0.495861 -0.495861 -0.600074 -0.600074 -0.436044 -0.436044 -0.544581 -0.544581 -0.593241 -0.593241 -0.651898 -0.651898
          -0.742392 -0.742392 -0.784614 -0.784614 -0.691409 -0.691409 -0.734547 -0.734547 -0.300729 -0.300729 -0.350731 -0.350731
          -0.422271 -0.422271 -0.565007 -0.565007 -0.516347 -0.516347 -0.445837 -0.445837 -0.815865 -0.815865 -0.850155 -0.850155
          -0.90925 -0.90925 -0.931989 -0.931989 -0.825906 -0.825906 -0.85471 -0.85471 -0.633324 -0.633324 -0.717806 -0.717806
          -0.538639 -0.538639 -0.604361 -0.604361 -0.756903 -0.756903 -0.723282 -0.723282 -0.757995 -0.757995 -0.645704 -0.645704
          -0.242865 -0.242865 -0.181294 -0.181294 -0.333657 -0.333657 -0.401812 -0.401812 -0.042873 -0.042873 -0.0982092 -0.0982092
          0.0506781 0.0506781 -0.223022 -0.223022 -0.312934 -0.312934 -0.488186 -0.488186 -0.446842 -0.446842 -0.357076 -0.357076
          -0.271164 -0.271164 -0.15872 -0.15872 -0.00637825 -0.00637825 -0.0685438 -0.0685438 -0.134403 -0.134403 -0.18029 -0.18029
          0.167782 0.167782 0.255491 0.255491 0.2928 0.2928 0.443738 0.443738 -0.219625 -0.219625 -0.34011 -0.34011
          -0.210757 -0.210757 -0.332702 -0.332702 -0.202489 -0.202489 -0.199711 -0.199711 -0.321119 -0.321119 -0.304717 -0.304717
          -0.568173 -0.568173 -0.558974 -0.558974 -0.670944 -0.670944 -0.662131 -0.662131 -0.543556 -0.543556 -0.532885 -0.532885
          -0.645943 -0.645943 -0.61678 -0.61678 -0.180149 -0.180149 -0.176348 -0.176348 -0.288483 -0.288483 -0.266208 -0.266208
          -0.151836 -0.151836 -0.147344 -0.147344 -0.245885 -0.245885 -0.219625 -0.219625 -0.496072 -0.496072 -0.479838 -0.479838
          -0.446704 -0.446704 -0.593592 -0.593592 -0.549991 -0.549991 -0.410064 -0.410064 -0.509266 -0.509266 -0.370638 -0.370638
          -0.464717 -0.464717 -0.622062 -0.622062 -0.588088 -0.588088 -0.836388 -0.836388 -0.834453 -0.834453 -0.898613 -0.898613
          -0.892245 -0.892245 -0.815343 -0.815343 -0.802006 -0.802006 -0.880927 -0.880927 -0.849672 -0.849672 -0.970607 -0.970607
          -0.967983 -0.967983 -0.958344 -0.958344 -0.974316 -0.974316 -0.961201 -0.961201 -0.949883 -0.949883 -0.979159 -0.979159
          -0.974186 -0.974186 -0.759385 -0.759385 -0.736196 -0.736196 -0.825541 -0.825541 -0.692537 -0.692537 -0.772498 -0.772498
          -0.683334 -0.683334 -0.722834 -0.722834 -0.826907 -0.826907 -0.791903 -0.791903 -0.912875 -0.912875 -0.950748 -0.950748
          -0.931659 -0.931659 -0.888745 -0.888745 -0.881778 -0.881778 -0.898487 -0.898487 -0.849796 -0.849796 -0.777124 -0.777124
          -0.850104 -0.850104 -0.818122 -0.818122 -0.417193 -0.417193 -0.505479 -0.505479 -0.606084 -0.606084 -0.559806 -0.559806
          -0.7097 -0.7097 -0.666425 -0.666425 -0.734421 -0.734421 -0.595673 -0.595673 -0.644149 -0.644149 -0.569887 -0.569887
          -0.70258 -0.70258 -0.745283 -0.745283 -0.763703 -0.763703 -0.728531 -0.728531 -0.559843 -0.559843 -0.610314 -0.610314
          -0.500372 -0.500372 -0.645246 -0.645246 -0.599977 -0.599977 -0.502525 -0.502525 -0.409254 -0.409254 -0.374602 -0.374602
          -0.902231 -0.902231 -0.918436 -0.918436 -0.940116 -0.940116 -0.942336 -0.942336 -0.876723 -0.876723 -0.889081 -0.889081
          -0.816914 -0.816914 -0.841696 -0.841696 -0.60436 -0.60436 -0.727587 -0.727587 -0.670033 -0.670033 -0.694815 -0.694815
          -0.935825 -0.935825 -0.923705 -0.923705 -0.895287 -0.895287 -0.874483 -0.874483 -0.896825 -0.896825 -0.847463 -0.847463
          -0.824831 -0.824831 -0.74006 -0.74006 -0.758767 -0.758767 -0.758573 -0.758573 -0.768327 -0.768327 -0.612631 -0.612631
          -0.645378 -0.645378 -0.664006 -0.664006 -0.766789 -0.766789 -0.680425 -0.680425 -0.683778 -0.683778 -0.548853 -0.548853
          -0.404296 -0.404296 -0.465684 -0.465684 -0.317689 -0.317689 -0.521711 -0.521711 -0.557269 -0.557269 -0.0461328 -0.0461328
          0.0984955 0.0984955 0.0526088 0.0526088 -0.0926571 -0.0926571 -0.163595 -0.163595 0.149093 0.149093 0.0970846 0.0970846
          -0.00118294 -0.00118294 -0.254682 -0.254682 -0.294403 -0.294403 -0.351429 -0.351429 -0.206445 -0.206445 -0.417646 -0.417646
          -0.442543 -0.442543 -0.474644 -0.474644 -0.354186 -0.354186 -0.263703 -0.263703 -0.29934 -0.29934 -0.121909 -0.121909
          -0.0738027 -0.0738027 0.128323 0.128323 0.0563511 0.0563511 -0.700967 -0.700967 -0.658613 -0.658613 -0.656283 -0.656283
          -0.639822 -0.639822 -0.623442 -0.623442 -0.547794 -0.547794 -0.539083 -0.539083 -0.504018 -0.504018 -0.603663 -0.603663
          -0.675368 -0.675368 -0.509022 -0.509022 -0.508438 -0.508438 -0.503547 -0.503547 -0.417441 -0.417441 -0.495674 -0.495674
          -0.471897 -0.471897 -0.448735 -0.448735 -0.395384 -0.395384 -0.420306 -0.420306 -0.413106 -0.413106 -0.418739 -0.418739
          -0.395286 -0.395286 -0.360221 -0.360221 -0.2857 -0.2857 -0.241563 -0.241563 -0.148409 -0.148409 -0.231117 -0.231117
          -0.265627 -0.265627 -0.354365 -0.354365 -0.330325 -0.330325 -0.249142 -0.249142 -0.233822 -0.233822 -0.174516 -0.174516
          -0.132072 -0.132072 -0.0870571 -0.0870571 -0.198556 -0.198556 -0.151483 -0.151483 -0.134075 -0.134075 -0.385558 -0.385558
          -0.40255 -0.40255 -0.251354 -0.251354 -0.206709 -0.206709 -0.183019 -0.183019 -0.232906 -0.232906 -0.14405 -0.14405
          -0.0311295 -0.0311295 -0.0717571 -0.0717571 -0.12539 -0.12539 0.100314 0.100314 -0.0213236 -0.0213236 0.0576479 0.0576479
          -0.0987911 -0.0987911 -0.0711118 -0.0711118 -0.253399 -0.253399 -0.17933 -0.17933 -0.165937 -0.165937 -0.174385 -0.174385
          -0.170148 -0.170148 -0.0668195 -0.0668195 -0.0562294 -0.0562294 -0.0650986 -0.0650986 -0.0411967 -0.0411967 0.0139626 0.0139626
          0.0671689 0.0671689 -0.0137167 -0.0137167 0.0369442 0.0369442 -0.0594612 -0.0594612 -0.0298261 -0.0298261 -0.0266178 -0.0266178
          -0.0234652 -0.0234652 -0.00530842 -0.00530842 -0.00827586 -0.00827586 -0.0653929 -0.0653929 0.043149 0.043149 -0.0108235 -0.0108235
          -0.0429926 -0.0429926 0.0280178 0.0280178 0.120162 0.120162 0.17387 0.17387 0.196313 0.196313 0.0879925 0.0879925
          0.129184 0.129184 0.0971421 0.0971421 0.25195 0.25195 0.240267 0.240267 0.296644 0.296644 0.333734 0.333734
          0.396361 0.396361 0.316453 0.316453 -0.0255741 -0.0255741 0.00504101 0.00504101 0.0457621 0.0457621 0.0143929 0.0143929
          -0.0230716 -0.0230716 -0.00491444 -0.00491444 0.119236 0.119236 0.0772863 0.0772863 0.057979 0.057979 -0.0194203 -0.0194203
          -0.0162677 -0.0162677 0.0135899 0.0135899 -0.00695023 -0.00695023 0.02719 0.02719 -0.00474091 -0.00474091 -0.0433769 -0.0433769
          -0.0293878 -0.0293878 0.187176 0.187176 0.257142 0.257142 0.200586 0.200586 0.110793 0.110793 0.161049 0.161049
          0.331593 0.331593 0.263945 0.263945 0.134526 0.134526 0.171575 0.171575 0.0575271 0.0575271 -0.0308151 -0.0308151
          -0.0751439 -0.0751439 0.0747187 0.0747187 0.0193531 0.0193531 0.109823 0.109823 0.0428107 0.0428107 -0.0203212 -0.0203212
          -0.0787805 -0.0787805 0.467412 0.467412 0.470003 0.470003 0.544062 0.544062 0.374058 0.374058 0.324985 0.324985
          0.419467 0.419467 0.251895 0.251895 0.199062 0.199062 0.505172 0.505172 0.454636 0.454636 0.4365 0.4365
          0.376616 0.376616 0.342736 0.342736 0.205645 0.205645 0.258477 0.258477 0.288278 0.288278 -0.0426253 -0.0426253
          -0.151145 -0.151145 0.0892172 0.0892172 0.0383404 0.0383404 0.171941 0.171941 0.107703 0.107703 -0.156986 -0.156986
          -0.00742134 -0.00742134 -0.0948609 -0.0948609 0.476474 0.476474 0.353676 0.353676 0.258243 0.258243 0.533501 0.533501
          0.448845 0.448845 0.565419 0.565419 0.385931 0.385931 0.289761 0.289761 0.194739 0.194739 0.0616865 0.0616865
          -0.0372452 -0.0372452 -0.100783 -0.100783 0.158684 0.158684 0.0898697 0.0898697 -0.0116513 -0.0116513 -0.144242 -0.144242
          0.363594 0.363594 0.317008 0.317008 0.246202 0.246202 0.484567 0.484567 0.578506 0.578506 0.642495 0.642495
          0.281009 0.281009 0.333017 0.333017 0.435164 0.435164 0.473757 0.473757 0.178756 0.178756 0.269096 0.269096
          0.422833 0.422833 0.319606 0.319606 0.620141 0.620141 0.572788 0.572788 0.686749 0.686749 0.656505 0.656505
          0.700645 0.700645 0.169845 0.169845 0.358856 0.358856 0.11908 0.11908 0.161746 0.161746 0.240866 0.240866
          0.308347 0.308347 0.264268 0.264268 0.500691 0.500691 0.449767 0.449767 0.590235 0.590235 0.523819 0.523819
          0.392727 0.392727 0.353035 0.353035 0.483903 0.483903 0.0568388 0.0568388 0.0996343 0.0996343 0.17148 0.17148
          0.204417 0.204417 0.0394752 0.0394752 0.0731205 0.0731205 0.255259 0.255259 0.156711 0.156711 0.106057 0.106057
          0.204671 0.204671 0.0779818 0.0779818 0.118176 0.118176 0.667557 0.667557 0.586863 0.586863 0.459444 0.459444
          0.398161 0.398161 0.359483 0.359483 0.307276 0.307276 0.293304 0.293304 0.160935 0.160935 0.205146 0.205146
          0.268576 0.268576 0.0124195 0.0124195 -0.00747505 -0.00747505 -0.0195988 -0.0195988 -0.0396983 -0.0396983 -0.0374419 -0.0374419
          -0.0556599 -0.0556599 -0.0571108 -0.0571108 -0.0171203 -0.0171203 0.0267369 0.0267369 0.0414036 0.0414036 -0.206382 -0.206382
          -0.195462 -0.195462 -0.185831 -0.185831 -0.13206 -0.13206 -0.144343 -0.144343 -0.183225 -0.183225 -0.185707 -0.185707
          -0.131874 -0.131874 -0.171649 -0.171649 -0.219748 -0.219748 -0.251268 -0.251268 -0.195764 -0.195764 -0.280712 -0.280712
          -0.300642 -0.300642 -0.318015 -0.318015 -0.319597 -0.319597 -0.319071 -0.319071 -0.0979164 -0.0979164 -0.0674662 -0.0674662
          -0.170917 -0.170917 -0.150317 -0.150317 -0.121972 -0.121972 -0.294314 -0.294314 -0.260704 -0.260704 -0.0266647 -0.0266647
          -0.23521 -0.23521 -0.219137 -0.219137 -0.322074 -0.322074 -0.299997 -0.299997 -0.576422 -0.576422 -0.579425 -0.579425
          -0.5895 -0.5895 -0.583817 -0.583817 -0.555288 -0.555288 -0.573349 -0.573349 -0.539215 -0.539215 -0.223875 -0.223875
          -0.26365 -0.26365 -0.384915 -0.384915 -0.353395 -0.353395 -0.239509 -0.239509 -0.390498 -0.390498 -0.336569 -0.336569
          -0.457439 -0.457439 -0.49871 -0.49871 -0.570559 -0.570559 -0.516083 -0.516083 -0.558318 -0.558318 -0.623295 -0.623295
          -0.653028 -0.653028 -0.472022 -0.472022 -0.517584 -0.517584 -0.230956 -0.230956 -0.323613 -0.323613 -0.380899 -0.380899
          -0.495519 -0.495519 -0.212291 -0.212291 -0.309219 -0.309219 -0.43035 -0.43035 -0.491042 -0.491042 -0.572931 -0.572931
          -0.618493 -0.618493 -0.706611 -0.706611 -0.761508 -0.761508 -0.573973 -0.573973 -0.671988 -0.671988 -0.719444 -0.719444
          -0.780441 -0.780441 -0.681902 -0.681902 -0.702659 -0.702659 -0.714211 -0.714211 -0.713833 -0.713833 -0.71292 -0.71292
          -0.70019 -0.70019 -0.671139 -0.671139 -0.79124 -0.79124 -0.844702 -0.844702 -0.872225 -0.872225 -0.883777 -0.883777
          -0.846152 -0.846152 -0.875775 -0.875775 -0.909139 -0.909139 -0.936712 -0.936712 -0.898003 -0.898003 -0.896146 -0.896146
          -0.889115 -0.889115 -0.863493 -0.863493 -0.945633 -0.945633 -0.948448 -0.948448 -0.935927 -0.935927 -0.923282 -0.923282
          0.927549 0.927549 0.948274 0.948274 0.958769 0.958769 0.958884 0.958884 0.94858 0.94858 0.927935 0.927935
          0.89714 0.89714 0.856498 0.856498 0.767876 0.767876 0.827697 0.827697 0.848468 0.848468 0.860172 0.860172
          0.86351 0.86351 0.735929 0.735929 0.75452 0.75452 0.765045 0.765045 0.769465 0.769465 0.855486 0.855486
          0.834553 0.834553 0.76072 0.76072 0.754689 0.754689 0.812915 0.812915 0.721609 0.721609 0.70473 0.70473
          0.806424 0.806424 0.747436 0.747436 0.680153 0.680153 0.605286 0.605286 0.733481 0.733481 0.665664 0.665664
          0.602383 0.602383 0.551686 0.551686 0.523632 0.523632 0.436066 0.436066 0.34353 0.34353 0.247023 0.247023
          0.454642 0.454642 0.395676 0.395676 0.283903 0.283903 0.2192 0.2192 0.648064 0.648064 0.620519 0.620519
          0.566337 0.566337 0.478201 0.478201 0.436284 0.436284 0.331325 0.331325 0.281722 0.281722 0.164327 0.164327
          0.359808 0.359808 0.31789 0.31789 0.247644 0.247644 0.182657 0.182657 0.491692 0.491692 0.50102 0.50102
          0.458061 0.458061 0.317901 0.317901 0.521673 0.521673 0.520952 0.520952 0.516636 0.516636 0.525495 0.525495
          0.361716 0.361716 0.345483 0.345483 0.385228 0.385228 0.387906 0.387906 0.374653 0.374653 0.298211 0.298211
          -0.0240084 -0.0240084 -0.0436981 -0.0436981 0.113375 0.113375 0.0261242 0.0261242 0.042357 0.042357 0.072152 0.072152
          -0.0638764 -0.0638764 0.500286 0.500286 0.478014 0.478014 0.360529 0.360529 0.444849 0.444849 0.412224 0.412224
          0.354908 0.354908 0.312019 0.312019 0.383936 0.383936 0.235454 0.235454 0.297042 0.297042 0.211201 0.211201
          0.158603 0.158603 0.12688 0.12688 0.102627 0.102627 0.120413 0.120413 0.149497 0.149497 0.15876 0.15876
          0.15314 0.15314 -0.033228 -0.033228 0.00247865 0.00247865 0.0284518 0.0284518 0.0516054 0.0516054 0.157157 0.157157
          0.14218 0.14218 0.0789645 0.0789645 0.0734584 0.0734584 0.0778292 0.0778292 0.0646829 0.0646829 -0.00181557 -0.00181557
          0.00255525 0.00255525 -0.232595 -0.232595 -0.182248 -0.182248 -0.15037 -0.15037 -0.101858 -0.101858 -0.395557 -0.395557
          -0.363278 -0.363278 -0.522072 -0.522072 -0.450069 -0.450069 -0.51172 -0.51172 -0.612912 -0.612912 -0.571567 -0.571567
          -0.153535 -0.153535 -0.284571 -0.284571 -0.253923 -0.253923 -0.179508 -0.179508 -0.263477 -0.263477 -0.0535674 -0.0535674
          -0.109611 -0.109611 -0.0392858 -0.0392858 -0.0297184 -0.0297184 -0.0577176 -0.0577176 -0.104986 -0.104986 -0.142331 -0.142331
          -0.193705 -0.193705 -0.386643 -0.386643 -0.433487 -0.433487 -0.309224 -0.309224 -0.431027 -0.431027 -0.115563 -0.115563
          -0.152908 -0.152908 -0.286123 -0.286123 -0.242325 -0.242325 -0.384256 -0.384256 -0.286996 -0.286996 -0.143849 -0.143849
          -0.19229 -0.19229 -0.730892 -0.730892 -0.600894 -0.600894 -0.645005 -0.645005 -0.530135 -0.530135 -0.491259 -0.491259
          -0.657426 -0.657426 -0.701967 -0.701967 -0.565242 -0.565242 -0.339381 -0.339381 -0.438994 -0.438994 -0.322245 -0.322245