<?xml version="1.0"?>
<VTKFile type="UnstructuredGrid" version="0.1" byte_order="LittleEndian">
  <UnstructuredGrid>
    <Piece NumberOfCells="762" NumberOfPoints="418">
      <PointData Scalars="S_liq">
        <DataArray type="Float32" Name="S_liq" NumberOfComponents="1" format="ascii">
          0.993144 0.987879 0.98962 0.993821 0.989028 0.993496 0.985678 0.985262 0.984165 0.981629 0.978844 0.960212
          0.981236 0.957571 0.981299 0.957596 0.977927 0.983448 0.985641 0.988836 0.988749 0.993395 0.99338 0.988808
          0.985671 0.985662 0.988954 0.993467 0.993959 0.99285 0.989443 0.985667 0.987453 0.983843 0.983292 0.981525
          0.976423 0.948351 0.977192 0.981976 0.955102 0.559271 0.44786 0.431788 0.428104 0.540599 0.441041 0.512866
          0.423183 0.419487 0.421547 0.414289 0.412521 0.404787 0.410284 0.416999 0.425777 0.423073 0.414116 0.420045
          0.428508 0.425222 0.416518 0.432759 0.471676 0.493913 0.43126 0.470397 0.768523 0.435025 0.426823 0.421965
          0.417387 0.412457 0.407807 0.402611 0.406961 0.410817 0.404488 0.40088 0.396786 0.39021 0.394102 0.382953
          0.385778 0.392082 0.397678 0.386686 0.374917 0.380644 0.37386 0.368414 0.361108 0.36231 0.35527 0.348575
          0.340809 0.347282 0.352916 0.366303 0.338278 0.343781 0.357953 0.370952 0.378698 0.375018 0.386674 0.378497
          0.36621 0.362406 0.352857 0.348666 0.333572 0.338232 0.342077 0.356337 0.326347 0.329813 0.345186 0.359119
          0.369372 0.381381 0.37189 0.383672 0.392505 0.394602 0.389863 0.40043 0.397514 0.407595 0.40286 0.406207
          0.396164 0.385389 0.386539 0.397185 0.387094 0.387031 0.397642 0.375717 0.375727 0.375079 0.363437 0.363466
          0.362678 0.37379 0.36124 0.349194 0.347555 0.332498 0.315694 0.317866 0.334371 0.319069 0.300715 0.300915
          0.335375 0.319249 0.350053 0.335494 0.350137 0.334758 0.3494 0.332972 0.318489 0.316585 0.300061 0.27846
          0.277666 0.298209 0.272838 0.252884 0.233786 0.29442 0.265906 0.289194 0.313318 0.330084 0.308903 0.345162
          0.326346 0.347742 0.361203 0.362752 0.375002 0.38632 0.373539 0.358835 0.341801 0.355643 0.371321 0.368198
          0.382794 0.384926 0.39543 0.396826 0.394646 0.379756 0.410527 0.849754 0.430654 0.966315 0.750728 0.406827
          0.453694 0.974299 0.904973 0.407318 0.420088 0.40747 0.397528 0.407103 0.416368 0.415572 0.43204 0.936275
          0.482404 0.975679 0.981283 0.983 0.985558 0.985653 0.983233 0.985723 0.981369 0.988945 0.989483 0.993813
          0.993353 0.988807 0.988784 0.993361 0.993375 0.988738 0.993362 0.985499 0.984999 0.980415 0.985332 0.980595
          0.980767 0.988697 0.988779 0.993362 0.993358 0.98881 0.985404 0.985505 0.987737 0.992961 0.993044 0.989107
          0.99368 0.985297 0.986768 0.983128 0.979229 0.983219 0.961547 0.48413 0.966137 0.979662 0.543506 0.938855
          0.375582 0.387005 0.363746 0.350992 0.344381 0.357478 0.335098 0.329482 0.320982 0.349095 0.3233 0.350916
          0.385585 0.310728 0.294615 0.303117 0.293682 0.261159 0.288408 0.2623 0.208593 0.278143 0.239516 0.234186
          0.271694 0.926752 0.970966 0.982027 0.982952 0.986122 0.985724 0.977954 0.990027 0.989608 0.99416 0.99357
          0.988604 0.989938 0.987427 0.993532 0.203421 0.258077 0.194078 0.255224 0.299455 0.285888 0.244305 0.186406
          0.177759 0.240844 0.27155 0.276326 0.298077 0.303914 0.314449 0.321851 0.337224 0.282799 0.260179 0.244681
          0.177021 0.17138 0.222474 0.160526 0.228947 0.169786 0.218252 0.164513 0.150479 0.157291 0.151361 0.217751
          0.207864 0.249702 0.254329 0.255023 0.220265 0.280188 0.279456 0.253282 0.219503 0.158704 0.158388 0.21828
          0.25092 0.215438 0.277373 0.274463 0.299148 0.296642 0.312679 0.293204 0.270341 0.247293 0.242252 0.211027
          0.206223 0.150987 0.154317 0.15766 0.148362 0.202048 0.147068 0.2043 0.147656 0.207037 0.148023 0.2015
          0.146006 0.237699 0.230917 0.24437 0.266509 0.275191 0.258315 0.236486 0.264937 0.288619 0.282945 0.303832
          0.30876 0.322035 0.316745 0.328151 0.310576 0.297622 0.290404 0.282406 0.303591 0.295271 0.272238 0.314828
          0.321988 0.331973 0.324696 0.333316 0.316304 0.297059 0.306567 0.285728 0.274893 0.261112 0.248962 0.23126
          0.24102 0.25744 0.229309 0.202347 0.201865 0.14543 0.140641 0.193769 0.214662 0.149263
        </DataArray>
        <DataArray type="Float32" Name="p_liq" NumberOfComponents="1" format="ascii">
          905373 856540 869563 905308 865180 905084 827718 822588 807976 782351 759748 735880
          780641 734778 776979 733167 752925 792061 822689 863229 862149 904695 904127 861688
          819832 821013 861833 903387 902495 901453 866745 820183 844832 799447 788205 773291
          750785 728394 750593 779221 730418 715402 714737 714463 714508 714972 714761 715031
          714545 714052 714297 714086 713843 713633 713603 713811 714263 714018 713581 713796
          714198 714044 713592 714425 714352 715223 714424 715096 716491 714659 714096 713845
          713607 713376 713154 712934 713150 713360 713143 712919 712714 712484 712703 712270
          712271 712492 712714 712280 711850 712057 711839 711631 711417 711423 711212 711000
          710789 710996 711206 711626 710788 710999 711417 711842 712051 712064 712494 712288
          711858 711637 711433 711214 710796 711012 711231 711654 710811 711030 711451 711878
          712082 712514 712308 712744 712952 713186 712721 713160 712929 713369 713394 713876
          713423 712978 713214 713664 713454 713696 713910 713242 713005 712771 712565 712798
          712335 712538 712105 711903 711677 711252 710833 711055 711478 711278 710858 711078
          711703 711501 712132 711928 712360 712156 712591 712385 711726 711952 711300 710883
          711119 711528 711336 710996 711085 711754 711568 711982 712180 712615 712408 713056
          712845 712823 713268 713033 713482 713942 713722 713504 713289 713740 713961 714202
          714426 714186 714664 714415 714880 714674 715167 719761 715178 734179 716467 714912
          715140 742589 722005 714636 714843 714374 714160 714122 714586 714334 714797 726015
          715066 746214 771549 782448 815676 817666 785256 819971 771915 857404 864771 900341
          899160 856268 855372 897986 896890 854370 895935 814086 811095 767116 811978 767914
          775676 853075 852676 895158 894557 851763 812049 812762 842905 894089 893705 852146
          893379 807760 822607 788421 762861 784338 739496 715514 739842 768694 715692 733454
          714942 715189 714446 713976 714210 714683 714435 713752 713979 714903 714640 715062
          715395 714829 715010 714171 713767 714125 714447 713839 713940 714688 714790 714355
          715430 731556 748612 776670 796669 813357 813732 761912 858143 854869 893118 892953
          841289 863686 844779 892897 713531 713468 713131 713102 713493 713023 712718 712740
          712359 712359 712672 712441 712865 712636 713305 713076 713521 712203 711791 712003
          711991 711635 711618 711292 711376 710964 710691 710650 710352 709806 710071 710232
          710412 710692 710490 710233 710016 710664 710440 710015 709779 709558 709329 709579
          709799 709363 710221 710004 710637 710417 710614 710201 709789 709590 709379 709168
          708996 708752 708925 709118 708599 708858 708465 708728 708351 708656 708258 708567
          708185 708929 709046 709084 709343 709551 709359 709202 709581 709984 709769 710180
          710397 710595 710379 710582 710167 709966 709752 709542 709956 709746 709334 710161
          710371 710578 710369 710579 710161 709745 709952 709539 709330 709130 708917 708723
          708870 709129 708796 708467 708488 708133 708102 708385 708504 708092
        </DataArray>
        <DataArray type="Float32" Name="rho_liq" NumberOfComponents="1" format="ascii">
          998.573 998.551 998.557 998.573 998.555 998.573 998.538 998.535 998.529 998.517 998.507 998.496
          998.516 998.495 998.515 998.495 998.504 998.521 998.535 998.554 998.553 998.573 998.573 998.553
          998.534 998.535 998.553 998.572 998.572 998.571 998.556 998.534 998.546 998.525 998.52 998.513
          998.503 998.492 998.502 998.516 998.493 998.486 998.486 998.486 998.486 998.486 998.486 998.486
          998.486 998.486 998.486 998.486 998.486 998.486 998.486 998.486 998.486 998.486 998.486 998.486
          998.486 998.486 998.486 998.486 998.486 998.486 998.486 998.486 998.487 998.486 998.486 998.486
          998.486 998.485 998.485 998.485 998.485 998.485 998.485 998.485 998.485 998.485 998.485 998.485
          998.485 998.485 998.485 998.485 998.485 998.485 998.485 998.485 998.485 998.485 998.484 998.484
          998.484 998.484 998.484 998.485 998.484 998.484 998.485 998.485 998.485 998.485 998.485 998.485
          998.485 998.485 998.485 998.484 998.484 998.484 998.484 998.485 998.484 998.484 998.485 998.485
          998.485 998.485 998.485 998.485 998.485 998.485 998.485 998.485 998.485 998.485 998.485 998.486
          998.485 998.485 998.485 998.486 998.485 998.486 998.486 998.485 998.485 998.485 998.485 998.485
          998.485 998.485 998.485 998.485 998.485 998.484 998.484 998.484 998.485 998.484 998.484 998.484
          998.485 998.485 998.485 998.485 998.485 998.485 998.485 998.485 998.485 998.485 998.484 998.484
          998.484 998.485 998.485 998.484 998.484 998.485 998.485 998.485 998.485 998.485 998.485 998.485
          998.485 998.485 998.485 998.485 998.486 998.486 998.486 998.486 998.485 998.486 998.486 998.486
          998.486 998.486 998.486 998.486 998.486 998.486 998.486 998.488 998.486 998.495 998.487 998.486
          998.486 998.499 998.489 998.486 998.486 998.486 998.486 998.486 998.486 998.486 998.486 998.491
          998.486 998.5 998.512 998.517 998.532 998.533 998.518 998.534 998.512 998.551 998.555 998.571
          998.57 998.551 998.55 998.57 998.569 998.55 998.569 998.531 998.53 998.51 998.531 998.51
          998.514 998.549 998.549 998.568 998.568 998.549 998.531 998.531 998.545 998.568 998.568 998.549
          998.568 998.529 998.535 998.52 998.508 998.518 998.497 998.486 998.498 998.511 998.487 998.495
          998.486 998.486 998.486 998.486 998.486 998.486 998.486 998.486 998.486 998.486 998.486 998.486
          998.486 998.486 998.486 998.486 998.486 998.486 998.486 998.486 998.486 998.486 998.486 998.486
          998.486 998.494 998.502 998.514 998.523 998.531 998.531 998.508 998.552 998.55 998.568 998.568
          998.544 998.554 998.545 998.567 998.486 998.485 998.485 998.485 998.486 998.485 998.485 998.485
          998.485 998.485 998.485 998.485 998.485 998.485 998.485 998.485 998.486 998.485 998.485 998.485
          998.485 998.485 998.485 998.484 998.485 998.484 998.484 998.484 998.484 998.484 998.484 998.484
          998.484 998.484 998.484 998.484 998.484 998.484 998.484 998.484 998.484 998.484 998.484 998.484
          998.484 998.484 998.484 998.484 998.484 998.484 998.484 998.484 998.484 998.484 998.484 998.484
          998.483 998.483 998.483 998.484 998.483 998.483 998.483 998.483 998.483 998.483 998.483 998.483
          998.483 998.483 998.483 998.484 998.484 998.484 998.484 998.484 998.484 998.484 998.484 998.484
          998.484 998.484 998.484 998.484 998.484 998.484 998.484 998.484 998.484 998.484 998.484 998.484
          998.484 998.484 998.484 998.484 998.484 998.484 998.484 998.484 998.484 998.484 998.483 998.483
          998.483 998.484 998.483 998.483 998.483 998.483 998.483 998.483 998.483 998.483
        </DataArray>
        <DataArray type="Float32" Name="mob_liq" NumberOfComponents="1" format="ascii">
          971.486 951.033 957.759 974.136 955.469 972.864 942.579 940.988 936.798 927.172 916.688 848.855
          925.689 839.554 925.925 839.64 913.257 934.068 942.435 954.725 954.389 972.468 972.41 954.617
          942.547 942.514 955.182 972.75 974.677 970.335 957.072 942.534 949.391 935.571 933.472 926.777
          907.651 807.68 910.513 928.482 830.928 97.69 40.1728 34.7093 33.5398 85.2832 37.7815 69.0841
          32.024 30.9197 31.5317 29.4154 28.9165 26.8081 28.2943 30.1926 32.8163 31.9907 29.3662 31.0846
          33.6664 32.6455 30.0537 35.0226 49.4241 59.4245 34.5398 48.8902 348.329 35.7618 33.1402 31.6568
          30.3051 28.8986 27.6174 26.2363 27.3889 28.4417 26.7292 25.7882 24.7506 23.1503 24.0878 21.4754
          22.1163 23.5976 24.9741 22.3252 19.7288 20.9622 19.5072 18.3953 16.9789 17.206 15.9073 14.7416
          13.4712 14.5241 15.4899 17.9773 13.0755 13.9473 16.3933 18.9074 20.5369 19.7502 22.3224 20.4934
          17.9591 17.2244 15.4795 14.7571 12.3629 13.0683 13.6729 16.0993 11.3262 11.815 14.1766 16.608
          18.5875 21.1251 19.0995 21.6373 23.6998 24.2103 23.068 25.6725 24.9328 27.5599 26.3013 27.1864
          24.596 22.0271 22.2913 24.8505 22.4197 22.4051 24.965 19.8979 19.8999 19.763 17.4213 17.4268
          17.2762 19.4927 17.0038 14.8466 14.5699 12.2045 9.9181 10.1938 12.4818 10.3491 8.16554 8.18728
          12.6324 10.3724 14.9933 12.6503 15.0077 12.5396 14.8817 12.2742 10.2739 10.0306 8.09465 6.00365
          5.93544 7.89672 5.53327 4.08365 2.9829 7.50289 4.99202 6.98425 9.6228 11.8539 9.09183 14.1727
          11.326 14.6013 16.9969 17.2903 19.7467 22.2409 19.4405 16.5555 13.6286 15.9742 18.9827 18.3521
          21.4398 21.9214 24.414 24.7607 24.2211 20.7674 28.3614 520.637 34.346 870.643 317.171 27.3527
          42.3073 899.776 669.739 27.4849 31.0975 27.5262 24.9364 27.4271 30.0104 29.7817 34.7903 767.323
          54.0762 904.888 925.864 932.364 942.115 942.481 933.25 942.75 926.19 955.144 957.227 974.103
          972.3 954.613 954.522 972.333 972.387 954.346 972.337 941.888 939.98 922.591 941.252 923.267
          923.92 954.185 954.503 972.335 972.319 954.623 941.525 941.912 950.482 970.765 971.089 955.769
          973.581 941.116 946.753 932.852 918.134 933.196 853.586 54.8544 870.004 919.761 87.1325 775.814
          19.8692 22.399 17.4805 15.1548 14.0449 16.3064 12.5907 11.7677 10.5994 14.8299 10.9089 15.1417
          22.0722 9.30858 7.52286 8.42948 7.428 4.64495 6.90865 4.72667 1.89043 5.97632 3.28626 3.00334
          5.44107 736.577 887.528 928.674 932.186 944.274 942.752 913.362 959.333 957.71 975.465 973.149
          953.826 958.989 949.291 973 1.70979 4.42955 1.41666 4.23688 8.02954 6.67029 3.55703 1.20559
          0.996988 3.35972 5.42949 5.82169 7.88269 8.51854 9.7625 10.7147 12.9132 6.38668 4.57562 3.57899
          0.980528 0.861386 2.44612 0.66304 2.74349 0.829783 2.26565 0.731412 0.511994 0.611187 0.5241 2.24494
          1.86414 3.88197 4.17775 4.22358 2.3504 6.15405 6.08995 4.10943 2.31806 0.633452 0.628418 2.26681
          3.95827 2.15105 5.91045 5.66626 7.99661 7.73198 9.5446 7.37975 5.33347 3.73431 3.439 1.98022
          1.80598 0.518944 0.566259 0.616945 0.483783 1.66411 0.467124 1.73953 0.474635 1.83465 0.479373 1.64612
          0.453784 3.18766 2.83912 3.56082 5.03743 5.72661 4.4459 3.12307 4.91964 6.92884 6.39986 8.50934
          9.07498 10.7393 10.0508 11.5787 9.29042 7.83465 7.10186 6.3512 8.48235 7.59005 5.48472 9.80964
          10.733 12.1276 11.0987 12.325 9.99489 7.77555 8.81989 6.65539 5.70187 4.64159 3.83613 2.85604
          3.36954 4.386 2.76088 1.67397 1.65807 0.446656 0.390672 1.40767 2.12023 0.495644
        </DataArray>
        <DataArray type="Float32" Name="S_gas" NumberOfComponents="1" format="ascii">
          0.00685594 0.0121212 0.0103801 0.00617915 0.0109718 0.00650372 0.0143218 0.0147376 0.015835 0.0183711 0.0211562 0.039788
          0.0187639 0.042429 0.018701 0.0424043 0.022073 0.0165518 0.014359 0.0111644 0.0112512 0.00660494 0.00661966 0.0111921
          0.0143295 0.0143383 0.011046 0.00653271 0.00604113 0.00714993 0.0105575 0.0143329 0.0125469 0.0161568 0.0167084 0.0184751
          0.023577 0.0516494 0.0228083 0.0180245 0.0448978 0.440729 0.55214 0.568212 0.571896 0.459401 0.558959 0.487134
          0.576817 0.580513 0.578453 0.585711 0.587479 0.595213 0.589716 0.583001 0.574223 0.576927 0.585884 0.579955
          0.571492 0.574778 0.583482 0.567241 0.528324 0.506087 0.56874 0.529603 0.231477 0.564975 0.573177 0.578035
          0.582613 0.587543 0.592193 0.597389 0.593039 0.589183 0.595512 0.59912 0.603214 0.60979 0.605898 0.617047
          0.614222 0.607918 0.602322 0.613314 0.625083 0.619356 0.62614 0.631586 0.638892 0.63769 0.64473 0.651425
          0.659191 0.652718 0.647084 0.633697 0.661722 0.656219 0.642047 0.629048 0.621302 0.624982 0.613326 0.621503
          0.633789 0.637594 0.647143 0.651334 0.666428 0.661768 0.657923 0.643663 0.673653 0.670187 0.654814 0.640881
          0.630628 0.618619 0.62811 0.616328 0.607495 0.605398 0.610137 0.59957 0.602486 0.592405 0.59714 0.593793
          0.603836 0.614611 0.613461 0.602815 0.612906 0.612969 0.602358 0.624283 0.624273 0.624921 0.636563 0.636534
          0.637322 0.62621 0.63876 0.650806 0.652445 0.667502 0.684306 0.682134 0.665629 0.680931 0.699284 0.699085
          0.664625 0.680751 0.649947 0.664506 0.649863 0.665242 0.6506 0.667028 0.681512 0.683415 0.699939 0.72154
          0.722334 0.701791 0.727162 0.747116 0.766214 0.70558 0.734094 0.710806 0.686682 0.669916 0.691097 0.654838
          0.673654 0.652258 0.638797 0.637248 0.624998 0.61368 0.626461 0.641165 0.658199 0.644357 0.628679 0.631802
          0.617206 0.615074 0.60457 0.603174 0.605354 0.620244 0.589473 0.150246 0.569346 0.0336846 0.249272 0.593173
          0.546306 0.0257014 0.0950271 0.592682 0.579912 0.59253 0.602472 0.592897 0.583632 0.584428 0.56796 0.0637246
          0.517596 0.0243205 0.0187168 0.0169997 0.0144421 0.0143466 0.0167667 0.0142766 0.0186305 0.0110555 0.0105172 0.00618737
          0.00664736 0.0111928 0.0112163 0.00663896 0.00662496 0.0112619 0.00663781 0.0145015 0.0150007 0.0195847 0.0146676 0.0194054
          0.0192325 0.0113034 0.0112212 0.00663823 0.00664227 0.0111899 0.0145962 0.014495 0.0122632 0.00703937 0.00695647 0.0108933
          0.00631998 0.0147029 0.0132321 0.0168716 0.0207707 0.0167808 0.038453 0.51587 0.0338626 0.0203376 0.456494 0.0611455
          0.624418 0.612995 0.636254 0.649008 0.655619 0.642522 0.664902 0.670518 0.679018 0.650905 0.6767 0.649084
          0.614415 0.689272 0.705385 0.696883 0.706318 0.738841 0.711592 0.7377 0.791407 0.721857 0.760484 0.765814
          0.728306 0.0732482 0.0290345 0.0179735 0.0170477 0.0138778 0.0142756 0.0220455 0.00997299 0.0103918 0.0058396 0.00643007
          0.0113956 0.010062 0.0125729 0.00646816 0.796579 0.741923 0.805922 0.744776 0.700545 0.714112 0.755695 0.813594
          0.822241 0.759156 0.72845 0.723674 0.701923 0.696086 0.685551 0.678149 0.662776 0.717201 0.739821 0.755319
          0.822979 0.82862 0.777526 0.839474 0.771053 0.830214 0.781748 0.835487 0.849521 0.842709 0.848639 0.782249
          0.792136 0.750298 0.745671 0.744977 0.779735 0.719812 0.720544 0.746718 0.780497 0.841296 0.841612 0.78172
          0.74908 0.784562 0.722627 0.725537 0.700852 0.703358 0.687321 0.706796 0.729659 0.752707 0.757748 0.788973
          0.793777 0.849013 0.845683 0.84234 0.851638 0.797952 0.852932 0.7957 0.852345 0.792963 0.851977 0.7985
          0.853994 0.762301 0.769083 0.75563 0.733491 0.724809 0.741685 0.763514 0.735063 0.711381 0.717055 0.696168
          0.69124 0.677965 0.683255 0.671849 0.689424 0.702378 0.709596 0.717594 0.696409 0.704729 0.727762 0.685172
          0.678012 0.668027 0.675304 0.666684 0.683696 0.702941 0.693433 0.714272 0.725107 0.738888 0.751038 0.76874
          0.75898 0.74256 0.770691 0.797653 0.798135 0.85457 0.859359 0.806231 0.785338 0.850737
        </DataArray>
        <DataArray type="Float32" Name="p_gas" NumberOfComponents="1" format="ascii">
          905373 856540 869563 905308 865180 905084 827718 822588 807976 782351 759748 735880
          780641 734778 776979 733167 752925 792061 822689 863229 862149 904695 904127 861688
          819832 821013 861833 903387 902495 901453 866745 820183 844832 799447 788205 773291
          750785 728394 750593 779221 730418 715402 714737 714463 714508 714972 714761 715031
          714545 714052 714297 714086 713843 713633 713603 713811 714263 714018 713581 713796
          714198 714044 713592 714425 714352 715223 714424 715096 716491 714659 714096 713845
          713607 713376 713154 712934 713150 713360 713143 712919 712714 712484 712703 712270
          712271 712492 712714 712280 711850 712057 711839 711631 711417 711423 711212 711000
          710789 710996 711206 711626 710788 710999 711417 711842 712051 712064 712494 712288
          711858 711637 711433 711214 710796 711012 711231 711654 710811 711030 711451 711878
          712082 712514 712308 712744 712952 713186 712721 713160 712929 713369 713394 713876
          713423 712978 713214 713664 713454 713696 713910 713242 713005 712771 712565 712798
          712335 712538 712105 711903 711677 711252 710833 711055 711478 711278 710858 711078
          711703 711501 712132 711928 712360 712156 712591 712385 711726 711952 711300 710883
          711119 711528 711336 710996 711085 711754 711568 711982 712180 712615 712408 713056
          712845 712823 713268 713033 713482 713942 713722 713504 713289 713740 713961 714202
          714426 714186 714664 714415 714880 714674 715167 719761 715178 734179 716467 714912
          715140 742589 722005 714636 714843 714374 714160 714122 714586 714334 714797 726015
          715066 746214 771549 782448 815676 817666 785256 819971 771915 857404 864771 900341
          899160 856268 855372 897986 896890 854370 895935 814086 811095 767116 811978 767914
          775676 853075 852676 895158 894557 851763 812049 812762 842905 894089 893705 852146
          893379 807760 822607 788421 762861 784338 739496 715514 739842 768694 715692 733454
          714942 715189 714446 713976 714210 714683 714435 713752 713979 714903 714640 715062
          715395 714829 715010 714171 713767 714125 714447 713839 713940 714688 714790 714355
          715430 731556 748612 776670 796669 813357 813732 761912 858143 854869 893118 892953
          841289 863686 844779 892897 713531 713468 713131 713102 713493 713023 712718 712740
          712359 712359 712672 712441 712865 712636 713305 713076 713521 712203 711791 712003
          711991 711635 711618 711292 711376 710964 710691 710650 710352 709806 710071 710232
          710412 710692 710490 710233 710016 710664 710440 710015 709779 709558 709329 709579
          709799 709363 710221 710004 710637 710417 710614 710201 709789 709590 709379 709168
          708996 708752 708925 709118 708599 708858 708465 708728 708351 708656 708258 708567
          708185 708929 709046 709084 709343 709551 709359 709202 709581 709984 709769 710180
          710397 710595 710379 710582 710167 709966 709752 709542 709956 709746 709334 710161
          710371 710578 710369 710579 710161 709745 709952 709539 709330 709130 708917 708723
          708870 709129 708796 708467 708488 708133 708102 708385 708504 708092
        </DataArray>
        <DataArray type="Float32" Name="rho_gas" NumberOfComponents="1" format="ascii">
          10.7573 10.1771 10.3318 10.7565 10.2797 10.7538 9.83461 9.77365 9.60004 9.29557 9.02701 8.74343
          9.27526 8.73034 9.23175 8.7112 8.94595 9.41095 9.77486 10.2565 10.2437 10.7492 10.7425 10.2382
          9.74091 9.75494 10.24 10.7337 10.7231 10.7107 10.2983 9.74508 10.0379 9.49871 9.36513 9.18793
          8.92052 8.65448 8.91824 9.25839 8.67853 8.50012 8.49221 8.48896 8.48949 8.495 8.4925 8.4957
          8.48993 8.48408 8.48699 8.48448 8.48159 8.4791 8.47874 8.48121 8.48658 8.48367 8.47848 8.48103
          8.48581 8.48398 8.47861 8.48851 8.48764 8.49799 8.4885 8.49648 8.51305 8.49129 8.48459 8.48162
          8.47878 8.47604 8.47341 8.47079 8.47335 8.47585 8.47327 8.47062 8.46818 8.46545 8.46805 8.4629
          8.46292 8.46554 8.46818 8.46302 8.45791 8.46037 8.45778 8.45531 8.45276 8.45284 8.45033 8.44781
          8.4453 8.44777 8.45026 8.45524 8.4453 8.4478 8.45277 8.45781 8.4603 8.46045 8.46556 8.46311
          8.45801 8.45538 8.45296 8.45036 8.44539 8.44796 8.45055 8.45559 8.44557 8.44816 8.45317 8.45824
          8.46067 8.46581 8.46336 8.46854 8.471 8.47378 8.46826 8.47347 8.47073 8.47596 8.47626 8.48198
          8.4766 8.47131 8.47411 8.47947 8.47696 8.47985 8.48239 8.47446 8.47163 8.46885 8.46641 8.46917
          8.46367 8.46609 8.46094 8.45854 8.45585 8.4508 8.44583 8.44846 8.45349 8.45111 8.44612 8.44873
          8.45616 8.45376 8.46126 8.45884 8.46398 8.46155 8.46672 8.46427 8.45644 8.45913 8.45138 8.44642
          8.44922 8.45409 8.4518 8.44776 8.44882 8.45677 8.45456 8.45948 8.46183 8.467 8.46454 8.47223
          8.46973 8.46947 8.47476 8.47196 8.4773 8.48276 8.48015 8.47756 8.47501 8.48037 8.483 8.48586
          8.48851 8.48567 8.49134 8.48839 8.49392 8.49147 8.49732 8.55191 8.49745 8.72321 8.51277 8.49429
          8.49701 8.82314 8.57856 8.49102 8.49347 8.4879 8.48536 8.4849 8.49041 8.48743 8.49292 8.62621
          8.49613 8.86621 9.16723 9.29673 9.69153 9.71517 9.3301 9.74256 9.17158 10.1873 10.2749 10.6975
          10.6834 10.1738 10.1632 10.6695 10.6565 10.1513 10.6451 9.67263 9.6371 9.11456 9.64758 9.12404
          9.21626 10.1359 10.1311 10.6359 10.6288 10.1203 9.64843 9.65691 10.0151 10.6232 10.6186 10.1249
          10.6148 9.59747 9.77388 9.3677 9.064 9.31918 8.78639 8.50145 8.7905 9.1333 8.50356 8.71461
          8.49464 8.49758 8.48876 8.48318 8.48595 8.49158 8.48862 8.48051 8.48321 8.49419 8.49106 8.49608
          8.50003 8.49331 8.49546 8.48549 8.48069 8.48494 8.48877 8.48154 8.48274 8.49163 8.49284 8.48767
          8.50045 8.69205 8.8947 9.22808 9.46569 9.66398 9.66843 9.05273 10.1961 10.1572 10.6117 10.6097
          9.99585 10.262 10.0373 10.609 8.47789 8.47714 8.47313 8.47278 8.47744 8.47185 8.46823 8.46848
          8.46396 8.46395 8.46767 8.46493 8.46997 8.46725 8.4752 8.47247 8.47777 8.46211 8.45721 8.45973
          8.45958 8.45535 8.45516 8.45128 8.45229 8.44738 8.44415 8.44365 8.44011 8.43362 8.43677 8.43868
          8.44083 8.44415 8.44175 8.4387 8.43612 8.44381 8.44115 8.43611 8.4333 8.43068 8.42795 8.43093
          8.43354 8.42836 8.43855 8.43598 8.4435 8.44089 8.44323 8.43831 8.43343 8.43106 8.42856 8.42605
          8.424 8.4211 8.42316 8.42545 8.41928 8.42236 8.41769 8.42082 8.41634 8.41996 8.41523 8.41891
          8.41437 8.4232 8.42459 8.42504 8.42813 8.4306 8.42831 8.42644 8.43096 8.43575 8.43319 8.43807
          8.44064 8.443 8.44044 8.44285 8.43791 8.43552 8.43299 8.43048 8.4354 8.43291 8.42801 8.43784
          8.44034 8.44279 8.44031 8.44281 8.43784 8.4329 8.43536 8.43045 8.42797 8.4256 8.42306 8.42075
          8.4225 8.42558 8.42163 8.41772 8.41797 8.41375 8.41338 8.41674 8.41816 8.41325
        </DataArray>
        <DataArray type="Float32" Name="mob_gas" NumberOfComponents="1" format="ascii">
          0.0350659 0.193363 0.121526 0.0256814 0.14348 0.0299397 0.318691 0.347206 0.430515 0.671563 1.02443 6.75175
          0.715445 8.17652 0.708318 8.16247 1.16299 0.491564 0.321194 0.151157 0.154704 0.031358 0.0315681 0.152286
          0.319231 0.319813 0.146409 0.0303419 0.0240009 0.0397688 0.127856 0.319455 0.21444 0.457262 0.505623 0.683061
          1.41626 14.6809 1.28269 0.634396 9.67669 7300.98 13329.7 14366.7 14610.3 8169.79 13764.6 9565.13
          14939 15188.6 15049.2 15543.1 15664.7 16202.4 15819.3 15357.8 14765.3 14946.5 15555.1 15150.8
          14583.5 14802.4 15390.6 14302.9 11870.3 10591.2 14401.5 11946.2 1199.71 14154.5 14695.5 15021.1
          15331.4 15669.2 15991.4 16355.5 16050.3 15782.4 16223.4 16477.7 16768.7 17241.6 16960.9 17771.3
          17564.1 17106.3 16705.1 17497.8 18367.5 17941.6 18446.6 18857.1 19414.9 19322.6 19866.5 20390.7
          21007 20492.7 20050 19017.4 21209.8 20770 19658.3 18665.2 18085.7 18359.8 17498.7 18100.6
          19024.4 19315.2 20054.6 20383.4 21589.4 21213.4 20905.6 19783.5 22178.3 21894.8 20658.4 19568.1
          18784.4 17887.1 18594.4 17718.4 17075.7 16924.9 17266.7 16509.5 16716.7 16006.1 16337.9 16102.9
          16813 17592.5 17508.4 16740 17467.8 17472.4 16707.4 18307.4 18306.7 18355.1 19236 19233.7
          19294.2 18451.7 19404.6 20341.7 20470.9 21676.3 23060.5 22879.3 21524.5 22779.1 24328 24310.9
          21443.3 22764.2 20274.1 21433.7 20267.5 21493.1 20325.4 21637.6 22827.3 22985.8 24384.1 26268.2
          26338.6 24543 26768.7 28578.4 30356.5 24869.9 27391.5 25323.8 23259.2 21872.3 23630.9 20660
          22178 20455.9 19407.2 19288.4 18360.8 17524.2 18470.3 19589.7 20927.3 19837 18637 18873
          17782.7 17626.2 16865.4 16765.6 16921.5 18006.8 15802.2 343.123 14441.4 4.10973 1483.13 16059.5
          12963.6 1.83279 89.402 16025.3 15147.7 16014.7 16715.5 16040.3 15400.7 15455.1 14350.1 27.4024
          11243.1 1.55399 0.710154 0.532487 0.326809 0.320381 0.510937 0.315713 0.700401 0.146792 0.126403 0.0257851
          0.0319671 0.15232 0.15328 0.0318466 0.0316461 0.155156 0.0318306 0.330851 0.366132 0.813271 0.342333 0.791196
          0.770248 0.156879 0.153485 0.0318369 0.0318952 0.152211 0.337371 0.330415 0.200254 0.0379571 0.0366335 0.140446
          0.0274788 0.344816 0.251491 0.520544 0.969602 0.512229 6.09863 11143.9 4.1746 0.910349 8030.75 24.2386
          18317.2 17474 19212 20200.1 20721.7 19694.5 21465.2 21921.2 22619.9 20348.9 22428.2 20205.8
          17577.7 23476.4 24852.2 24122 24933.3 27821 25391.8 27717.4 32766.5 26295.4 29817.3 30317.9
          26870 41.4087 2.63771 0.629062 0.536924 0.29007 0.315669 1.15858 0.107815 0.121953 0.0216824 0.0289385
          0.160758 0.110717 0.215774 0.0294553 33270.3 28101.9 34187.3 28363 24435.5 25612.8 29371.2 34947.2
          35810.5 29693.9 26883.7 26457.4 24554.1 24054.3 23164.2 22548.2 21294 25884.4 27910.7 29336.5
          35884.7 36452.3 31430 37552.4 30813.9 36613.4 31834.8 37147.3 38580.4 37882.9 38489.9 31883
          32838.4 28871.6 28445.8 28382.2 31641.9 26115.3 26180.1 28542 31714.9 37738.7 37771.1 31832.4