<?xml version="1.0"?>
<VTKFile type="UnstructuredGrid" version="0.1" byte_order="LittleEndian">
  <UnstructuredGrid>
    <Piece NumberOfCells="590" NumberOfPoints="336">
      <CellData Scalars="waterDepth">
        <DataArray type="Float32" Name="waterDepth" NumberOfComponents="1" format="ascii">
          9.75487 9.65042 9.72923 9.8883 9.8213 9.83524 9.83264 9.81938 9.82015 9.81438 9.82409 9.82167
          9.81262 9.81343 9.80696 9.81514 9.81318 9.80497 9.80589 9.79876 9.80786 9.80628 9.79659 9.79762
          9.79199 9.80213 9.80094 9.7919 9.79188 9.79658 9.79764 9.79638 9.7993 9.79776 9.81311 9.95232
          9.8022 9.96312 9.80004 9.79468 9.79879 9.80011 9.79761 9.79696 9.92223 9.93223 9.97414 9.80794
          9.92447 9.7959 9.79938 9.79156 9.80048 9.80421 9.79407 9.80565 9.81054 9.80309 9.81236 9.81841
          9.81126 9.82065 9.8282 9.81831 9.83124 9.82276 9.83122 9.81499 10.1042 9.8927 9.6453 9.81381
          9.73333 10.0335 9.99768 9.90624 9.82128 9.70634 9.82145 9.83323 9.79586 10.0307 9.84186 9.82391
          9.82317 9.83252 9.82228 9.83317 9.83298 9.82947 9.81982 9.81771 9.81774 9.81607 9.81494 9.823
          9.81516 9.82551 9.82331 9.81938 9.81398 9.81079 9.81041 9.80891 9.80735 9.81428 9.80787 9.81629
          9.81474 9.81131 9.80632 9.80294 9.80235 9.80087 9.7986 9.80718 9.79975 9.80881 9.80777 9.8048
          9.79746 9.79437 9.79496 9.79283 9.79139 9.80164 9.79236 9.80288 9.80238 9.79982 9.79132 9.7926
          9.79534 9.79416 9.79488 9.7971 9.79522 9.79829 9.79825 9.79522 9.7965 9.80579 9.82411 9.79776
          9.81529 9.9619 9.89853 9.96031 9.91234 9.94849 9.96914 9.79328 9.83248 9.79395 9.79013 9.80297
          9.85804 9.78724 9.81768 9.96824 9.96029 9.95703 9.81059 9.81791 9.92104 9.96285 9.83514 9.8468
          9.79782 9.80552 9.79875 9.79386 9.79216 9.79326 9.80129 9.80026 9.80341 9.792 9.79545 9.79358
          9.80626 9.80487 9.80954 9.79975 9.80388 9.80184 9.81286 9.81107 9.81721 9.80832 9.81164 9.80978
          9.821 9.81881 9.82667 9.81572 9.81842 9.81681 9.83089 9.82832 9.83531 9.83592 9.83282 9.82615
          9.81365 9.8487 9.81404 9.74135 9.80902 10.0003 9.82362 9.76583 9.90858 9.7842 10.0838 10.1031
          9.82985 9.82349 9.81913 9.82281 9.77395 9.81119 9.79693 9.79572 9.79443 9.78619 9.87315 9.93598
          9.94281 9.82513 9.79111 9.80135 9.79628 9.80659 9.80525 9.81344 9.81313 9.8218 9.81984 9.829
          9.82638 9.83395 9.82642 9.91551 9.79542 9.94626 9.83071 9.8215 9.73347 9.64352 9.82462 9.80093
          9.81808 9.82873 9.81918 9.82272 9.81925 9.82575 9.81706 9.81666 9.82317 9.81956 9.81237 9.82186
          9.81176 9.81673 9.80965 9.80933 9.80827 9.81159 9.80437 9.81367 9.80509 9.80937 9.80166 9.80088
          9.80076 9.80511 9.7965 9.80662 9.80065 9.80358 9.79484 9.7924 9.79566 9.80031 9.79393 9.80119
          9.79598 9.79927 9.79722 9.7928 9.80528 9.79241 9.8105 9.80002 9.85875 9.8477 9.88803 9.81499
          9.80985 9.94121 9.79367 9.92318 9.91878 9.93859 9.88844 9.91499 9.86382 9.83233 9.80001 9.88302
          9.79861 9.80235 9.79136 9.79218 9.80033 9.79415 9.79856 9.79937 9.79517 9.79335 9.80779 9.79786
          9.8025 9.80375 9.8042 9.802 9.81357 9.8057 9.80817 9.80983 9.81215 9.81026 9.81583 9.81354
          9.81539 9.81743 9.81885 9.81737 9.80526 9.81964 9.82415 9.82657 9.82556 9.80669 9.79251 9.8342
          9.83351 9.79291 9.65203 9.71489 9.8048 9.79641 9.84825 9.92 9.82118 9.81854 9.82582 9.82362
          9.81718 9.81519 9.80975 9.8081 9.80378 9.80258 9.79999 9.79973 9.83663 9.82387 9.78134 9.81812
          9.82393 9.81859 9.76853 9.8367 9.82113 9.81965 9.81791 9.82492 9.81969 9.82782 9.81564 9.81162
          9.82039 9.81608 9.81392 9.81427 9.81541 9.81767 9.81973 9.82139 9.80827 9.80368 9.81276 9.80842
          9.80981 9.80639 9.80771 9.81124 9.8105 9.81328 9.80234 9.79615 9.80542 9.80035 9.80316 9.79838
          9.79974 9.80361 9.80505 9.80654 9.79936 9.79508 9.79953 9.79388 9.79695 9.7935 9.79413 9.79959
          9.80025 9.80153 9.80533 9.79794 9.8146 9.80204 9.80093 9.80142 9.81479 9.79969 9.91319 9.82751
          9.89087 9.80321 9.84831 9.91756 9.88794 9.91318 9.85676 9.88108 9.8026 9.82635 9.80443 9.8304
          9.80769 9.82101 9.79935 9.79773 9.79898 9.79738 9.80449 9.80162 9.79738 9.80107 9.80999 9.81147
          9.80383 9.80947 9.81937 9.81625 9.81137 9.81555 9.82565 9.82778 9.81865 9.82477 9.80996 9.78819
          9.81525 9.82727 9.77784 9.8253 9.8141 9.81224 9.80351 9.81007 9.82115 9.82002 9.82115 9.8175
          9.81012 9.81311 9.8025 9.80603 9.79624 9.80062 9.79974 9.80008 9.91129 9.83869 9.81025 9.82837
          9.81118 9.87152 9.7966 9.80173 9.80441 9.80774 9.81001 9.81512 9.81754 9.82052 9.82136 9.8088
          9.81046 9.81919 9.78561 9.80652 9.81896 9.82048 9.82344 9.82086 9.8213 9.82289 9.81737 9.81913
          9.81193 9.81749 9.80863 9.80587 9.80437 9.80635 9.80976 9.8115 9.80626 9.80798 9.79882 9.80215
          9.79739 9.80288 9.79793 9.79983 9.79703 9.79887 9.80278 9.80331 9.80102 9.80122 9.84607 9.85384
          9.83136 9.8149 9.81259 9.80415 9.82279 9.81189 9.79815 9.79866 9.799 9.79945 9.79823 9.80002
          9.79639 9.7958 9.79953 9.80359 9.80157 9.803 9.80018 9.79879 9.80055 9.799 9.80683 9.8049
          9.80623 9.80804 9.8137 9.81815 9.81552 9.81711 9.81435 9.81227 9.8154 9.81346 9.82129 9.81972
          9.8202 9.82011 9.81128 9.81694 9.7877 9.83078 9.80166 9.77301 9.79462 9.79906 9.88468 9.84918
          9.84723 9.8821
        </DataArray>
        <DataArray type="Float32" Name="velocityX" NumberOfComponents="1" format="ascii">
          0.817704 0.764109 2.9304 4.61579 0.986715 1.15627 1.15962 0.978532 0.984485 0.952715 1.14995 1.14364
          0.945817 0.951 0.929787 1.11959 1.11015 0.925729 0.929459 0.916578 1.07799 1.06598 0.914935 0.917431
          0.927345 1.02585 1.01125 0.939519 0.936962 1.00557 0.968006 0.954968 1.03902 3.63 1.20668 5.09284
          1.06774 5.45813 5.20346 0.93417 0.949035 0.97378 0.913275 0.99053 3.32471 2.00243 4.17705 1.18487
          5.49593 0.946393 0.986995 3.57463 1.00197 1.04483 3.51895 1.05785 1.09284 3.47778 1.10323 1.13048
          3.4597 1.13813 1.15529 3.45421 1.15796 3.44497 1.18957 4.70005 5.9732 4.6316 1.48986 3.80712
          2.95383 5.73245 5.27027 6.10648 3.45562 2.99894 1.03926 1.0846 1.02008 5.72249 5.32591 0.998396
          0.99155 1.17036 0.990852 1.1406 3.54386 1.15882 3.45626 0.969189 5.16411 0.960511 3.45528 1.14493
          0.95836 1.15072 3.56751 1.1364 3.45732 0.939729 5.1754 0.934395 3.46684 1.11298 0.933797 1.12207
          3.57483 1.10006 3.4699 0.922156 5.19687 0.919087 3.49456 1.07017 0.919515 1.08182 3.57024 1.05328
          3.50128 0.915438 5.22261 0.919437 3.54616 1.01679 0.92624 1.03112 3.55343 0.996319 3.55593 0.956251
          5.24002 0.978053 3.6086 0.9599 0.997833 0.972597 3.52915 0.94208 3.62624 1.07776 1.15652 1.02896
          1.13346 5.53479 4.80475 5.53048 5.31975 5.06943 5.67934 0.925018 3.75467 0.931314 3.65201 0.956944
          3.41691 3.6898 3.8071 4.10603 5.44698 4.68636 1.15181 1.18199 5.33926 4.73075 3.91003 5.21834
          3.52915 3.80023 0.981594 3.60453 0.952158 0.972263 3.54737 3.54092 1.0399 3.54164 0.916894 0.919674
          3.56725 3.56344 1.08934 3.49088 0.925638 0.92231 3.57476 3.57395 1.12835 3.46568 0.944496 0.938776
          3.57058 3.57277 1.15516 3.45605 0.975671 0.966615 3.55189 3.55838 1.15222 3.53161 1.15757 3.43255
          3.61666 1.19373 5.23716 0.869814 1.11929 5.26887 4.71209 0.894275 6.11802 3.62873 6.08793 5.97386
          5.10848 1.00251 1.06814 1.02236 3.59298 3.80813 3.52423 3.67722 3.52648 3.56943 3.52678 3.43608
          5.70521 3.95876 3.56012 3.55252 3.50578 3.57044 3.47167 3.57612 3.45713 3.56991 3.455 3.5483
          5.22303 3.50055 3.44117 5.83608 3.52595 6.22429 5.20792 3.4535 0.805311 1.49013 3.46408 3.57881
          5.85671 3.55554 5.16324 5.22484 5.24108 3.56345 5.1658 3.45432 5.90253 3.57268 5.1716 5.23643
          5.24855 3.57416 5.17786 3.46294 5.87904 3.57578 5.19085 5.24731 5.24518 3.57245 5.20043 3.48535
          5.89666 3.56715 5.21622 5.24875 5.23149 3.55882 5.22664 3.53248 5.91076 3.54635 5.23739 5.23994
          3.52641 3.53456 5.24291 3.59042 5.89812 3.54326 5.23701 5.21994 5.25532 3.86069 4.76583 5.17297
          3.85802 5.73105 0.956393 1.81848 5.4879 5.73079 5.36799 5.75983 5.78247 5.85065 5.21333 5.82891
          3.65155 3.76736 3.57068 3.58648 5.93463 5.23692 3.53416 3.54 3.51382 3.52762 5.8813 5.21365
          3.55814 3.56304 3.4754 3.48235 5.92004 5.18822 3.57295 3.57472 3.45941 3.46221 5.86252 5.1705
          3.57572 3.57459 3.456 3.45562 5.91071 5.1644 3.56619 3.56141 3.45523 5.18908 5.91079 3.52139
          3.51524 5.39701 0.805882 3.01997 3.57004 5.94494 5.35432 5.84403 5.16461 5.86108 5.22957 5.23411
          5.24364 5.24563 5.24805 5.24772 5.2428 5.23974 5.22646 5.22089 5.16216 5.14576 5.95031 5.16329
          5.23217 5.16464 6.08942 5.21708 5.13813 5.16396 5.16594 5.89687 6.00866 5.22249 5.24548 5.17387
          6.01233 5.16577 5.86638 5.16836 5.16773 5.24308 5.24009 5.23794 5.24924 5.19419 6.02847 5.17979
          5.87677 5.18511 5.18265 5.92409 6.03152 5.24705 5.24321 5.22033 6.04358 5.20308 6.04608 5.20957
          5.2069 5.24578 5.24763 5.24681 5.22606 5.2405 6.05538 5.22843 5.91209 5.23344 5.23223 5.2313
          5.23595 5.23596 6.04281 5.24139 5.88326 5.24226 5.24502 5.21236 5.17976 5.92726 5.79917 5.21272
          5.78222 5.18941 5.26064 5.75408 5.78365 5.75575 5.89871 5.34739 5.20129 5.88083 5.9121 6.00681
          5.24954 5.2226 5.93419 6.05839 5.91008 6.0585 5.93233 6.04992 5.90707 6.0514 5.24917 5.24782
          5.89045 5.92658 5.90906 6.01961 5.87276 6.02143 5.22732 5.22465 5.85826 5.8987 5.16196 5.36716
          5.21203 6.19806 5.91598 6.1864 5.862 6.03753 5.81463 6.21786 5.9008 5.85478 5.90685 6.01734
          5.87463 5.92134 5.89245 5.93075 5.90839 5.93344 5.90766 5.92609 5.76225 5.22232 5.90618 5.83067
          5.89167 5.79804 5.90989 5.93358 5.93229 5.92877 6.03329 5.91799 5.85907 6.0086 6.00808 5.86586
          5.91323 5.84395 6.24252 5.85878 5.85673 6.01008 5.89781 5.89864 5.90485 5.90075 5.86088 5.91079
          5.87069 5.91293 6.03551 5.88585 5.88815 5.8835 5.92589 5.92325 5.93044 5.92831 5.9033 5.89469
          5.90516 5.93366 6.05699 5.93241 5.91112 5.9328 5.90428 5.91892 6.05191 5.9215 5.83007 5.95172
          5.97469 6.0235 6.03457 6.04815 5.86808 5.88292 6.05699 6.05707 5.93032 5.93045 6.05784 6.05492
          5.91173 5.91196 6.05423 6.04727 5.93436 5.93315 6.053 6.05497 5.89897 5.90105 6.03926 6.04238
          6.04088 6.03724 6.02531 6.01555 5.9166 5.91452 6.02358 6.02695 5.86454 5.86853 6.0089 6.0108
          5.85533 5.85596 6.02115 6.01104 6.06213 5.9015 6.08592 6.11197 6.06809 5.84993 5.87091 5.80531
          5.87541 5.84123
        </DataArray>
        <DataArray type="Float32" Name="velocityY" NumberOfComponents="1" format="ascii">
          0.00251791 -0.025476 -0.100295 -0.0710016 -0.000262602 -0.000799188 -0.000553708 -0.000422915 -0.00699533 -0.000388443 0.00506151 0.00585426
          -0.00034576 -0.00584848 -0.000239962 0.00768196 0.00821138 -0.000215153 -0.00353691 -0.000146061 0.00974428 0.0102863 -0.000108158 -0.00155379
          0.000287153 0.0119115 0.0123139 0.000466161 0.0100102 0.00116924 0.0105395 0.0111993 0.00147587 0.0346572 0.00253899 0.239728
          0.032071 0.0866622 0.00113691 0.000560141 -0.0270955 -0.0267581 0.0026784 -0.00146557 -0.0942325 0.677418 0.376614 -0.0475522
          0.136436 0.000629278 0.000735064 0.0157022 0.0007396 0.000684451 0.00173003 0.000658817 0.000583819 -0.00257303 0.000556878 0.000463003
          -0.00525927 0.000421818 0.000215209 -0.00869119 8.0353e-06 -0.00881043 0.0267157 -0.202426 0.054413 0.00859449 0.720442 0.454642
          0.0522763 -0.00481941 -0.298807 -0.0104686 -0.00629254 -0.299829 -0.00264818 0.0121284 0.218647 -0.0634898 0.0541223 -0.00851678
          -0.000519376 0.0018726 -0.00405723 0.00160796 -0.0156969 0.00262652 -0.00862307 -0.000468164 -0.00885838 -0.000431528 -0.00700986 0.000372591
          -0.00658043 0.000311053 0.00466941 0.00653799 -0.00591093 -0.000307858 -0.00254011 -0.000273066 -0.00378403 0.000528286 -0.0039823 0.00049807
          0.00811675 0.00872926 -0.00107555 -0.000193316 0.00360939 -0.000170783 -0.00125821 0.000633485 -0.00226902 0.000608807 0.0107167 0.0108536
          0.00538436 -1.53777e-05 0.0135841 0.000126927 0.00818566 0.000727312 0.00644774 0.000708116 0.0134478 0.0124331 0.0181428 0.000664295
          0.0294731 0.000894658 0.0253596 0.000609435 0.0228079 0.000697159 0.0116736 0.0101292 0.0432176 0.00175665 0.00403349 0.0276369
          0.065552 0.0810963 0.357726 -0.0708432 -0.0973897 -0.2386 0.00756505 0.000421601 -0.0974656 0.00764399 -0.0694922 -0.00137561
          -0.332596 -0.0089073 -0.215624 -0.391169 -0.075429 -0.174411 -0.00254178 0.0385522 0.110503 0.178367 0.226816 -0.0820101
          0.0130717 0.04526 0.0119509 0.0339414 0.0138138 0.0180449 0.0139543 0.0141557 0.0114097 0.0142654 0.000234956 0.00317859
          0.0113949 0.0121075 0.00923114 0.00338957 -0.00314177 -0.0027285 0.00878576 0.00944128 0.00714106 -0.00233048 -0.00518927 -0.0045753
          0.00575687 0.00664743 0.00409617 -0.0073324 -0.00788669 -0.00730194 -0.00266649 0.00125097 -0.0138585 -0.0304272 0.0240826 -0.0190916
          -0.0879529 -0.0150645 -0.0975792 -0.102714 -0.2452 0.233299 0.148935 -0.00404129 -0.0541104 -0.134883 -0.0352434 -0.124677
          0.00445071 -0.0017279 -0.0432975 -0.0295458 0.0893872 -0.512048 0.00850523 0.0221476 0.00880481 0.0189191 0.338276 0.0968113
          0.00854156 0.187152 0.0118438 0.0176213 -0.00027188 0.0132401 -0.00316288 0.00901094 -0.00608986 0.00404204 -0.00894157 -0.0121304
          -0.0117539 0.00740155 -0.00615789 -0.115534 -0.0473726 -0.0345182 -0.0624345 -0.00219612 0.0731534 -0.761155 -0.0256913 0.0538911
          -0.0136803 -0.0035929 -0.0104341 -0.0199751 0.00465282 0.00328744 -0.00777443 -0.00790742 -0.00386877 0.00551666 -0.00392841 0.000641846
          0.00974488 0.00741225 -0.000354472 -0.00450791 0.00306258 0.0100844 0.00190203 0.00813733 0.01528 0.0100733 0.00696554 -0.0019514
          0.0109785 0.0143997 0.0105558 0.0142475 0.0199964 0.0128092 0.017703 0.00478383 0.0225307 0.0182112 0.0248499 0.0209446
          0.00715398 0.0136649 0.0335764 0.019938 0.0385298 -0.0138508 0.0713942 0.0197974 0.107919 0.110766 -0.359686 -0.0370181
          -0.168314 0.0323128 0.0666842 -0.729706 -0.125889 -0.0125528 0.169104 0.0547382 -0.0413304 0.0762964 0.0129822 0.0200511
          0.06085 0.110986 0.0224295 0.0274603 0.0212364 0.024717 0.0163082 0.0180421 0.00787607 0.0107913 0.00538284 0.0118097
          0.0166627 0.015566 0.000292735 0.00175883 0.00563379 0.003304 0.0121504 0.0111134 -0.00461442 -0.00344481 -0.00473492 -0.0037166
          0.0079202 0.00677798 -0.00971362 -0.0086689 -0.0855658 -0.0114066 0.00226919 2.23356e-05 -0.0401801 0.0557328 0.0863226 0.00359763
          0.0167373 -0.0254457 0.0254816 0.26103 0.00980146 -0.142098 -0.111357 0.0497862 -0.00645453 -0.00715831 -0.00219112 0.000657558
          0.00616255 0.0075208 0.0113507 0.0125857 0.0166924 0.0180198 0.019942 0.0182455 -0.0379279 -0.002853 -0.0828273 0.00163641
          -0.00221299 -0.0096933 0.0441977 -0.0351652 0.0160601 -0.011661 -0.0111383 -0.0135909 -0.01628 -0.0143264 0.00655184 -0.00199028
          -0.00524914 -0.00719143 -0.00264552 -0.00546622 -0.00563277 0.00486259 0.0029484 0.00285197 0.0127167 0.00510544 0.00400176 -0.0012227
          0.00342596 0.000294426 0.00152054 0.00914869 0.00630778 0.00882873 0.0193497 0.0146672 0.0116517 0.00547793 0.0120244 0.00777015
          0.00918866 0.0176744 0.0159277 0.0138827 0.0223758 0.0286701 0.0206782 0.0170068 0.0272477 0.0207655 0.0210972 0.0229206
          0.0222677 0.0191996 0.0285728 0.0352571 0.0460199 0.0440699 0.0409896 0.0123472 -0.0245279 0.0238135 0.0149218 0.0724291
          0.0656522 -0.0185332 0.122273 0.0389402 -0.0463828 -0.0147639 -0.0239036 -0.155522 0.000260056 0.0485657 0.0143888 0.0303706
          0.0544639 0.0669382 0.0233033 0.024559 0.0301578 0.0251897 0.0149013 0.0160507 0.0188688 0.0155346 0.0112383 0.0101258
          0.00903965 0.0107705 -0.000602939 -9.88466e-05 0.00118482 -0.000787417 -0.00607898 -0.00661082 -0.00777721 -0.00786426 0.00014417 -0.0315102
          -0.0405171 -0.0286881 0.0266002 -0.0354425 -0.0146625 -0.013633 0.0425281 -0.0295994 -0.0232185 -0.0116099 -0.000830236 -0.00311805
          0.000919771 0.00731713 0.00869838 0.0140529 0.0193512 0.0215835 0.0333148 0.0255592 -0.0330846 -0.093297 0.0159251 -0.0319671
          0.0378424 0.0725589 0.0216758 0.0197677 0.0159275 0.0123951 0.00538287 0.00561486 -0.00724663 -0.0121397 -0.0129301 0.00466061
          -0.0263194 0.00865816 -0.0268773 -0.0893964 -0.00932645 -0.00873868 -0.0115962 -0.0181562 -0.00358413 -0.00704461 -0.00493439 0.00170464
          -0.000728761 0.0017601 0.00796265 0.00736856 0.00686041 0.00494842 0.00947242 0.0076962 0.0129301 0.0112222 0.0163565 0.0111076
          0.0164976 0.0171083 0.0220048 0.0231744 0.0292314 0.0249073 0.0323908 0.0224754 0.0275705 0.0217293 0.0625172 0.00904689
          0.00398844 0.0252281 0.0341837 0.024478 0.000618327 -0.00631774 0.0270237 0.0230715 0.0256969 0.0240801 0.0258106 0.0292932
          0.024601 0.0258426 0.0179206 0.0137605 0.0191575 0.0179135 0.0180445 0.019265 0.0137235 0.0136999 0.00977738 0.00979012
          0.00917407 0.0072308 0.00141752 -0.00236689 0.00383448 0.00377244 0.00206798 0.00189551 -0.00257343 -0.000369174 -0.0088296 -0.00758861
          -0.0123259 -0.0098498 -0.0269523 -0.0175074 -0.0127781 -0.0488433 -0.0492934 -0.0923768 0.0140162 0.0419827 -0.013328 -0.0258424
          0.0549112 0.0426945
        </DataArray>
        <DataArray type="Float32" Name="bedSurface" NumberOfComponents="1" format="ascii">
          -9.98093 -9.98034 -9.9803 -9.98035 -9.98406 -9.98344 -9.98375 -9.98469 -9.98438 -9.98656 -9.98563 -9.98625
          -9.98719 -9.98687 -9.98906 -9.98812 -9.98875 -9.98969 -9.98938 -9.99156 -9.99063 -9.99125 -9.99219 -9.99187
          -9.99406 -9.99312 -9.99375 -9.99469 -9.99438 -9.99656 -9.99563 -9.99625 -9.99719 -9.99687 -9.99907 -9.99982
          -9.9975 -9.99964 -9.99657 -9.99719 -9.99813 -9.99876 -9.99966 -9.99907 -9.9997 -9.99986 -9.99983 -9.99935
          -9.99928 -9.99656 -9.99469 -9.995 -9.99406 -9.99219 -9.9925 -9.99156 -9.98969 -9.99 -9.98906 -9.98719
          -9.9875 -9.98656 -9.98469 -9.985 -9.98406 -9.98312 -9.98187 -9.98074 -9.98018 -9.98035 -9.98014 -9.98017
          -9.9803 -9.98036 -9.98018 -9.98089 -9.98375 -9.98061 -9.98219 -9.98156 -9.98124 -9.98036 -9.98093 -9.98312
          -9.98344 -9.98219 -9.98375 -9.98281 -9.98313 -9.98438 -9.98406 -9.98531 -9.98531 -9.98594 -9.98625 -9.98594
          -9.98625 -9.98531 -9.98563 -9.98687 -9.98656 -9.98781 -9.98781 -9.98844 -9.98875 -9.98844 -9.98875 -9.98781
          -9.98812 -9.98938 -9.98906 -9.99031 -9.99031 -9.99094 -9.99125 -9.99094 -9.99125 -9.99031 -9.99063 -9.99187
          -9.99156 -9.99281 -9.99281 -9.99344 -9.99375 -9.99344 -9.99375 -9.99281 -9.99312 -9.99438 -9.99406 -9.99531
          -9.99531 -9.99594 -9.99625 -9.99594 -9.99625 -9.99531 -9.99563 -9.99688 -9.99656 -9.99781 -9.99844 -9.99687
          -9.99813 -9.99982 -9.99926 -9.99982 -9.99907 -9.99982 -9.99964 -9.99782 -9.99914 -9.9975 -9.99782 -9.99844
          -9.99939 -9.99814 -9.9988 -9.99983 -9.99964 -9.99965 -9.99965 -9.99876 -9.99907 -9.99965 -9.99879 -9.99845
          -9.99594 -9.99813 -9.995 -9.99594 -9.995 -9.99562 -9.99375 -9.99438 -9.9925 -9.99344 -9.9925 -9.99312
          -9.99125 -9.99187 -9.99 -9.99094 -9.99 -9.99063 -9.98875 -9.98938 -9.9875 -9.98844 -9.9875 -9.98812
          -9.98625 -9.98687 -9.985 -9.98594 -9.985 -9.98563 -9.98375 -9.98438 -9.98313 -9.98281 -9.9825 -9.9825
          -9.98121 -9.98156 -9.98156 -9.98065 -9.98124 -9.98018 -9.98074 -9.98093 -9.9809 -9.98086 -9.98036 -9.98018
          -9.98219 -9.98281 -9.98187 -9.9825 -9.98086 -9.98017 -9.99625 -9.9975 -9.99688 -9.99751 -9.99939 -9.99969
          -9.99929 -9.99847 -9.99438 -9.99344 -9.99187 -9.99094 -9.98938 -9.98844 -9.98687 -9.98594 -9.98438 -9.98344
          -9.98375 -9.9825 -9.98281 -9.98072 -9.98152 -9.98071 -9.98251 -9.98343 -9.98065 -9.98014 -9.98187 -9.9812
          -9.98374 -9.98406 -9.98469 -9.98313 -9.98656 -9.985 -9.98563 -9.98563 -9.985 -9.98656 -9.98719 -9.98563
          -9.98875 -9.9875 -9.98812 -9.98812 -9.98875 -9.98906 -9.98969 -9.98812 -9.99156 -9.99 -9.99063 -9.99063
          -9.99125 -9.99156 -9.99219 -9.99063 -9.99406 -9.9925 -9.99312 -9.99312 -9.99375 -9.99406 -9.99469 -9.99312
          -9.99657 -9.995 -9.99562 -9.99562 -9.99625 -9.9972 -9.99718 -9.99562 -9.99844 -9.99914 -9.99926 -9.99782
          -9.99848 -9.99911 -9.99935 -9.99986 -9.99928 -9.99911 -9.9987 -9.99857 -9.99806 -9.99748 -9.99594 -9.9983
          -9.99718 -9.99781 -9.99469 -9.99531 -9.99281 -9.99438 -9.99531 -9.99469 -9.99219 -9.99281 -9.98906 -9.99187
          -9.99281 -9.99219 -9.98969 -9.99031 -9.98781 -9.98938 -9.99031 -9.98969 -9.98719 -9.98781 -9.98625 -9.98687
          -9.98781 -9.98719 -9.98469 -9.98531 -9.98224 -9.98438 -9.98531 -9.98469 -9.98218 -9.98156 -9.98143 -9.98187
          -9.98219 -9.9813 -9.98034 -9.98061 -9.98153 -9.98143 -9.98093 -9.98072 -9.98343 -9.98309 -9.98469 -9.98531
          -9.98719 -9.98781 -9.98969 -9.99031 -9.99219 -9.99281 -9.99469 -9.99531 -9.9822 -9.9828 -9.98173 -9.98311
          -9.985 -9.985 -9.98185 -9.98282 -9.9825 -9.98406 -9.98374 -9.98375 -9.98354 -9.98344 -9.9875 -9.9875
          -9.98542 -9.98594 -9.98687 -9.98656 -9.98625 -9.98687 -9.98625 -9.98594 -9.99 -9.99 -9.98792 -9.98844
          -9.98844 -9.98906 -9.98875 -9.98875 -9.98833 -9.98844 -9.9925 -9.9925 -9.99042 -9.99094 -9.99083 -9.99156
          -9.99125 -9.99187 -9.99125 -9.99094 -9.995 -9.995 -9.99292 -9.99344 -9.99469 -9.99406 -9.99375 -9.99438
          -9.99375 -9.99344 -9.99604 -9.99594 -9.99687 -9.99656 -9.99625 -9.99626 -9.99751 -9.995 -9.99861 -9.9978
          -9.99827 -9.9972 -9.99808 -9.99877 -9.99828 -9.99877 -9.99787 -9.99871 -9.99689 -9.99718 -9.99626 -9.9971
          -9.99687 -9.99748 -9.99344 -9.99396 -9.99531 -9.99417 -9.99094 -9.99146 -9.99281 -9.99167 -9.98938 -9.98906
          -9.99031 -9.98938 -9.98594 -9.98646 -9.98781 -9.98667 -9.98438 -9.98406 -9.98531 -9.98438 -9.98191 -9.9813
          -9.98191 -9.98124 -9.98173 -9.98123 -9.98341 -9.98268 -9.98194 -9.98139 -9.98313 -9.98438 -9.98563 -9.98604
          -9.98812 -9.98812 -9.99063 -9.99063 -9.99312 -9.99312 -9.99562 -9.99531 -9.99858 -9.9981 -9.99659 -9.99753
          -9.99656 -9.99804 -9.99344 -9.9925 -9.99125 -9.99 -9.98854 -9.9875 -9.98563 -9.98417 -9.98396 -9.98277
          -9.98282 -9.98248 -9.98171 -9.98195 -9.985 -9.98479 -9.98406 -9.98344 -9.98531 -9.98469 -9.98594 -9.98625
          -9.9875 -9.98656 -9.98896 -9.98969 -9.99 -9.98938 -9.98906 -9.98844 -9.99031 -9.98969 -9.99219 -9.99094
          -9.9925 -9.99156 -9.99333 -9.99375 -9.995 -9.99406 -9.99594 -9.99594 -9.99542 -9.99562 -9.99775 -9.99768
          -9.99733 -9.99669 -9.99646 -9.99583 -9.99724 -9.99691 -9.99479 -9.99354 -9.99469 -9.99438 -9.99458 -9.99521
          -9.99406 -9.99438 -9.99229 -9.99104 -9.99219 -9.99187 -9.99208 -9.99271 -9.99156 -9.99187 -9.98958 -9.99021
          -9.98979 -9.98917 -9.98729 -9.98583 -9.98719 -9.98687 -9.98708 -9.98771 -9.98656 -9.98719 -9.98458 -9.98521
          -9.98406 -9.98469 -9.9829 -9.98331 -9.98233 -9.98252 -9.98218 -9.98185 -9.98215 -9.98221 -9.99816 -9.9978
          -9.99783 -9.99815
        </DataArray>
        <DataArray type="Float32" Name="freeSurface" NumberOfComponents="1" format="ascii">
          -0.226055 -0.329927 -0.251078 -0.0920554 -0.162761 -0.148203 -0.151108 -0.165311 -0.164227 -0.17218 -0.161536 -0.164583
          -0.174567 -0.173441 -0.1821 -0.172982 -0.175572 -0.184718 -0.18348 -0.1928 -0.182763 -0.184971 -0.195596 -0.194257
          -0.202077 -0.190995 -0.192812 -0.202789 -0.202497 -0.199983 -0.197985 -0.199871 -0.197892 -0.199115 -0.185957 -0.0474962
          -0.195302 -0.0365133 -0.196538 -0.202511 -0.199348 -0.198656 -0.202043 -0.202105 -0.0774653 -0.0676287 -0.0256925 -0.191414
          -0.0748028 -0.200667 -0.195303 -0.203439 -0.193581 -0.187976 -0.198426 -0.185916 -0.179147 -0.186913 -0.176701 -0.168774
          -0.176243 -0.165917 -0.156488 -0.166688 -0.152823 -0.160359 -0.150652 -0.165744 0.124035 -0.0876461 -0.33484 -0.166361
          -0.246973 0.0530964 0.0174972 -0.0746566 -0.162465 -0.274274 -0.160735 -0.148327 -0.185373 0.0503039 -0.139073 -0.159216
          -0.160268 -0.149667 -0.161466 -0.149641 -0.150151 -0.154903 -0.164239 -0.167606 -0.167572 -0.169863 -0.171313 -0.162935
          -0.171092 -0.159807 -0.16232 -0.167498 -0.172578 -0.177019 -0.177398 -0.179531 -0.1814 -0.174158 -0.180883 -0.171518
          -0.173382 -0.178064 -0.182738 -0.187373 -0.187959 -0.190066 -0.192645 -0.183756 -0.191501 -0.181499 -0.182858 -0.18708
          -0.194107 -0.198441 -0.19785 -0.20061 -0.202356 -0.191801 -0.201386 -0.189936 -0.19074 -0.194551 -0.202743 -0.202716
          -0.19997 -0.20178 -0.201374 -0.198839 -0.20103 -0.197024 -0.197376 -0.201655 -0.20006 -0.192028 -0.174336 -0.199115
          -0.182838 -0.0379158 -0.100734 -0.0395067 -0.0867359 -0.0513289 -0.0304961 -0.204531 -0.166667 -0.203554 -0.207686 -0.19547
          -0.141356 -0.210902 -0.18112 -0.0315951 -0.0393478 -0.0426161 -0.189068 -0.180856 -0.078029 -0.036797 -0.163649 -0.15165
          -0.198121 -0.192606 -0.19625 -0.202074 -0.202844 -0.202367 -0.192464 -0.194117 -0.189087 -0.201437 -0.197048 -0.19955
          -0.184986 -0.187008 -0.18046 -0.191186 -0.186117 -0.18879 -0.175894 -0.178308 -0.170294 -0.18012 -0.175861 -0.178343
          -0.165251 -0.168064 -0.158332 -0.170215 -0.166583 -0.168811 -0.152856 -0.156053 -0.14781 -0.146898 -0.149679 -0.156345
          -0.167552 -0.132853 -0.167518 -0.239302 -0.172222 0.0201482 -0.157118 -0.215099 -0.0723187 -0.19666 0.103423 0.122921
          -0.152338 -0.159322 -0.162742 -0.159684 -0.206908 -0.168979 -0.199326 -0.201775 -0.202454 -0.211312 -0.126242 -0.0637195
          -0.0564808 -0.173342 -0.203269 -0.192087 -0.195596 -0.184348 -0.184124 -0.174997 -0.173746 -0.164139 -0.164537 -0.15444
          -0.157377 -0.148553 -0.156386 -0.0652173 -0.186103 -0.0344532 -0.151805 -0.161934 -0.247177 -0.336617 -0.157245 -0.18028
          -0.165665 -0.155333 -0.165506 -0.160407 -0.167314 -0.159255 -0.168562 -0.168961 -0.161825 -0.167001 -0.174817 -0.163763
          -0.176987 -0.170773 -0.178472 -0.178794 -0.18048 -0.177476 -0.185316 -0.174458 -0.186472 -0.18063 -0.188964 -0.189749
          -0.190494 -0.186449 -0.195686 -0.184002 -0.193415 -0.188924 -0.19829 -0.200722 -0.198088 -0.193752 -0.200762 -0.191933
          -0.200593 -0.19573 -0.198406 -0.202829 -0.190969 -0.204784 -0.186679 -0.1956 -0.139684 -0.151434 -0.111232 -0.182828
          -0.188632 -0.0579009 -0.205677 -0.0766827 -0.0804966 -0.0605186 -0.110261 -0.0835837 -0.134246 -0.165151 -0.195932 -0.115274
          -0.198578 -0.195461 -0.203326 -0.203128 -0.19248 -0.200226 -0.196756 -0.195317 -0.197016 -0.199462 -0.181269 -0.194016
          -0.190315 -0.188438 -0.185492 -0.188315 -0.174245 -0.183677 -0.182147 -0.179855 -0.175036 -0.177555 -0.170423 -0.173333
          -0.172425 -0.169758 -0.165834 -0.167943 -0.176983 -0.164732 -0.161165 -0.158118 -0.15662 -0.174863 -0.188919 -0.147673
          -0.148681 -0.188392 -0.328311 -0.265717 -0.176729 -0.185025 -0.132679 -0.0607206 -0.162247 -0.164545 -0.158863 -0.161694
          -0.170003 -0.172622 -0.179942 -0.182213 -0.188412 -0.190231 -0.194698 -0.195587 -0.145564 -0.158932 -0.200396 -0.164986
          -0.161075 -0.16641 -0.213317 -0.146116 -0.161374 -0.164408 -0.165837 -0.158835 -0.163855 -0.155616 -0.17186 -0.175884
          -0.165024 -0.169854 -0.172952 -0.172291 -0.170838 -0.16921 -0.166522 -0.164548 -0.181726 -0.186318 -0.175157 -0.180015
          -0.178623 -0.182674 -0.181044 -0.177509 -0.177834 -0.17516 -0.190161 -0.196353 -0.184997 -0.190583 -0.187672 -0.193181
          -0.191515 -0.188261 -0.186203 -0.1844 -0.195638 -0.199917 -0.193384 -0.199554 -0.197735 -0.200563 -0.199617 -0.19478
          -0.193505 -0.191911 -0.190712 -0.197996 -0.182273 -0.194524 -0.195322 -0.194836 -0.182718 -0.19531 -0.0854166 -0.170287
          -0.107395 -0.193999 -0.149776 -0.081203 -0.110342 -0.0855913 -0.141107 -0.117626 -0.19429 -0.170828 -0.191823 -0.166704
          -0.189178 -0.176476 -0.194089 -0.196226 -0.196332 -0.196789 -0.186452 -0.189838 -0.195432 -0.1906 -0.179384 -0.177594
          -0.186484 -0.17991 -0.16657 -0.170212 -0.176445 -0.171118 -0.158723 -0.156279 -0.166665 -0.159605 -0.171947 -0.193103
          -0.16666 -0.153965 -0.203883 -0.155935 -0.169307 -0.170431 -0.178433 -0.171322 -0.161975 -0.164354 -0.164475 -0.168537
          -0.178003 -0.175015 -0.188122 -0.184595 -0.196889 -0.192503 -0.195889 -0.195237 -0.0872835 -0.15941 -0.186343 -0.169163
          -0.18538 -0.126527 -0.196835 -0.190771 -0.186836 -0.182265 -0.178531 -0.172383 -0.168081 -0.163651 -0.162602 -0.173969
          -0.172367 -0.163291 -0.196097 -0.175437 -0.166042 -0.164311 -0.160624 -0.162581 -0.164016 -0.161801 -0.168567 -0.167125
          -0.175565 -0.169077 -0.180327 -0.183821 -0.185627 -0.183027 -0.179301 -0.176936 -0.184055 -0.181706 -0.193363 -0.188787
          -0.195115 -0.188686 -0.1954 -0.193923 -0.197967 -0.195191 -0.193152 -0.192624 -0.194392 -0.194406 -0.151681 -0.143839
          -0.165972 -0.181786 -0.183865 -0.191684 -0.174458 -0.185025 -0.196638 -0.194886 -0.19569 -0.19492 -0.196356 -0.195192
          -0.197674 -0.198572 -0.192764 -0.187452 -0.190619 -0.188875 -0.191908 -0.193913 -0.191015 -0.192876 -0.182754 -0.185306
          -0.183559 -0.181129 -0.173592 -0.167679 -0.171671 -0.169763 -0.172733 -0.175438 -0.171163 -0.173732 -0.163289 -0.165485
          -0.163864 -0.164574 -0.171621 -0.166368 -0.194632 -0.151736 -0.180512 -0.208841 -0.187526 -0.183151 -0.113483 -0.14862