<?xml version="1.0"?>
<VTKFile type="UnstructuredGrid" version="0.1" byte_order="LittleEndian">
  <UnstructuredGrid>
    <Piece NumberOfCells="1536" NumberOfPoints="1617">
      <CellData Scalars="S_aq">
        <DataArray type="Float32" Name="S_aq" NumberOfComponents="1" format="ascii">
          1 1 1 1 1 1 1 1 1 1 1 1
          1 1 1 1 1 1 1 1 1 1 1 1
          1 1 1 1 1 1 1 1 1 1 1 1
          1 1 1 1 1 1 1 1 1 1 1 1
          1 1 1 1 1 1 1 1 1 1 1 1
          1 1 1 1 1 1 1 1 1 1 1 1
          1 1 1 1 1 1 1 1 1 1 1 1
          1 1 1 1 1 1 1 1 1 1 1 1
          1 1 1 1 1 1 1 1 1 1 1 1
          1 1 1 1 1 1 1 1 1 1 1 1
          1 1 1 1 1 1 1 1 1 1 1 1
          1 1 1 1 1 1 1 1 1 1 1 1
          1 1 1 1 1 1 1 1 1 1 1 1
          1 1 1 1 1 1 1 1 1 1 1 1
          1 1 1 1 1 1 1 1 1 1 1 1
          1 1 1 1 1 1 1 1 1 1 1 1
          1 1 1 1 1 1 1 1 1 1 1 1
          1 1 1 1 1 1 1 1 1 1 1 1
          1 1 1 1 1 1 1 1 1 1 1 1
          1 1 1 1 1 1 1 1 1 1 1 1
          1 1 1 1 1 1 1 1 1 1 1 1
          1 1 1 1 1 1 1 1 1 1 1 1
          1 1 1 1 1 1 1 1 1 1 1 1
          1 1 1 1 1 1 1 1 1 1 1 1
          1 1 1 1 1 1 1 1 1 1 1 1
          1 1 1 1 1 1 1 1 1 1 1 1
          1 1 1 1 1 1 1 1 1 1 1 1
          1 1 1 1 1 1 1 1 1 1 1 1
          1 1 1 1 1 1 1 1 1 1 1 1
          1 1 1 1 1 1 1 1 1 1 1 1
          1 1 1 1 1 1 1 1 1 1 1 1
          1 1 1 1 1 1 1 1 1 1 1 1
          1 1 1 1 1 1 1 1 1 1 1 1
          1 1 1 1 1 1 1 1 1 1 1 1
          1 1 1 1 1 1 1 1 1 1 1 1
          1 1 1 1 1 1 1 1 1 1 1 1
          1 1 1 1 1 1 1 1 1 1 1 1
          1 1 1 1 1 1 1 1 1 1 1 1
          1 1 1 1 1 1 1 1 1 1 1 1
          1 1 1 1 1 1 1 1 1 1 1 1
          1 1 1 1 1 1 1 1 1 1 1 1
          1 1 1 1 1 1 1 1 1 1 1 1
          1 1 1 1 1 1 1 1 1 1 1 1
          1 1 1 1 1 1 1 1 1 1 1 1
          1 1 1 1 1 1 1 1 1 1 1 1
          1 1 1 1 1 1 1 1 1 1 1 1
          1 1 1 1 1 1 1 1 0.999904 0.999863 0.999996 1
          1 1 1 1 1 1 1 1 1 1 1 1
          1 1 1 1 1 1 1 1 1 1 1 1
          1 1 1 1 1 1 1 1 1 1 1 1
          1 1 1 1 1 1 1 1 0.998023 0.997651 0.999595 0.999998
          1 1 1 1 1 1 1 1 1 1 1 1
          1 1 1 1 1 1 1 1 1 1 1 1
          1 1 1 1 1 1 1 1 1 1 1 1
          1 1 1 1 1 1 1 1 0.991475 0.990539 0.996316 0.999758
          1 1 1 1 1 1 1 1 1 1 1 1
          1 1 1 1 1 1 1 1 1 1 1 1
          1 1 1 1 1 1 1 1 1 1 1 1
          1 1 1 1 1 1 1 1 0.980477 0.978898 0.989246 0.998081
          0.999965 1 1 1 1 1 1 1 1 1 1 1
          1 1 1 1 1 1 1 1 1 1 1 1
          1 1 1 1 1 1 1 1 1 1 1 1
          1 1 1 1 1 1 1 1 0.965914 0.965478 0.980487 0.995243
          0.999756 1 1 1 1 1 1 1 1 1 1 1
          1 1 1 1 1 1 1 1 1 1 1 1
          1 1 1 1 1 1 1 1 1 1 1 1
          1 1 1 1 1 1 1 1 0.939353 0.951227 0.973478 0.993012
          0.999478 0.999998 1 1 1 1 1 1 1 1 1 1
          1 1 1 1 1 1 1 1 1 1 1 1
          1 1 1 1 1 1 1 1 1 1 1 1
          1 1 1 1 1 1 1 1 0.922435 0.941827 0.969694 0.992046
          0.999365 0.999998 1 1 1 1 1 1 1 1 1 1
          1 1 1 1 1 1 1 1 1 1 1 1
          1 1 1 1 1 1 1 1 1 1 1 1
          1 1 1 1 1 1 1 1 0.908653 0.934979 0.967612 0.991729
          0.999352 0.999998 1 1 1 1 1 1 1 1 1 1
          1 1 1 1 1 1 1 1 1 1 1 1
          1 1 1 1 1 1 1 1 1 1 1 1
          1 1 1 1 1 1 1 0.999967 0.896865 0.930075 0.966752 0.991799
          0.999389 0.999998 1 1 1 1 1 1 1 1 1 1
          1 1 1 1 1 1 1 1 1 1 1 1
          1 1 1 1 1 1 1 1 1 1 1 1
          1 1 1 1 1 1 1 0.999875 0.886562 0.926938 0.967002 0.992171
          0.999458 0.999999 1 1 1 1 1 1 1 1 1 1
          1 1 1 1 1 1 1 1 1 1 1 1
          1 1 1 1 1 1 1 1 1 1 1 1
          1 1 1 1 1 1 1 0.999788 0.877165 0.925725 0.968432 0.99283
          0.999555 0.999999 1 1 1 1 1 1 1 1 1 1
          1 1 1 1 1 1 1 1 1 1 1 1
          1 1 1 0.999999 0.999993 0.99999 0.999988 0.999986 0.999985 0.999983 0.999981 0.99998
          0.999979 0.999978 0.999977 0.999977 0.999977 0.999975 0.999973 0.999705 0.868381 0.926914 0.971242 0.993804
          0.999676 1 1 1 1 1 1 1 1 1 1 1
          1 1 1 1 1 1 1 1 1 1 1 1
          1 1 0.999949 0.998426 0.997782 0.99764 0.99753 0.997434 0.997343 0.997256 0.997173 0.997095
          0.997024 0.996957 0.996889 0.996816 0.996734 0.996641 0.996527 0.996371 0.859973 0.931634 0.97583 0.995181
          0.999815 1 1 1 1 1 1 1 1 1 1 1
          1 1 1 1 1 1 1 1 1 1 1 1
          1 0.999944 0.994492 0.95724 0.849339 0.78023 0.725351 0.679358 0.640178 0.606837 0.578885 0.556471
          0.540786 0.533062 0.53407 0.543173 0.558718 0.579907 0.609874 0.669244 0.851711 0.943317 0.983089 0.997137
          0.999945 1 1 1 1 1 1 1 1 1 1 1
          1 1 1 1 1 1 1 1 1 1 1 1
          1 1 0.999633 0.992624 0.94633 0.931221 0.923017 0.918253 0.915245 0.913141 0.911746 0.91267
          0.922999 0.941797 0.964847 0.985849 0.997122 0.99993 1 1 1 1 1 1
          1 1 1 1 1 1 1 1 1 1 1 1
          1 1 1 1 1 1 1 1 1 1 1 1
          1 1 0.999499 0.992072 0.945906 0.933392 0.927881 0.92552 0.924556 0.924184 0.924237 0.926337
          0.938729 0.957414 0.976906 0.992097 0.998991 0.999994 1 1 1 1 1 1
          1 1 1 1 1 1 1 1 1 1 1 1
          1 1 1 1 1 1 1 1 1 1 1 1
          1 1 0.999228 0.991074 0.942953 0.931495 0.926982 0.925272 0.924664 0.924471 0.9246 0.926866
          0.941845 0.961929 0.980725 0.993835 0.999404 0.999998 1 1 1 1 1 1
          1 1 1 1 1 1 1 1 1 1 1 1
          1 1 1 1 1 1 1 1 1 1 1 1
          1 1 0.998891 0.990167 0.939785 0.929584 0.92606 0.924886 0.924517 0.924415 0.924551 0.926889
          0.945313 0.966758 0.984478 0.995452 0.999702 1 1 1 1 1 1 1
          1 1 1 1 1 1 1 1 1 1 1 1
          1 1 1 1 1 1 1 1 1 1 1 1
          1 1 0.998575 0.989538 0.936462 0.927842 0.925332 0.924618 0.924423 0.924377 0.924494 0.926785
          0.949924 0.972349 0.988286 0.997022 0.999892 1 1 1 1 1 1 1
          1 1 1 1 1 1 1 1 1 1 1 1
          1 1 1 1 1 1 1 1 1 1 1 1
          1 1 0.99843 0.98933 0.93295 0.926329 0.92481 0.924456 0.924374 0.924358 0.92444 0.926475
          0.956424 0.978885 0.992023 0.998465 0.999978 1 1 1 1 1 1 1
          1 1 1 1 1 1 1 1 1 1 1 1
          1 1 1 1 1 1 1 1 1 1 1 1
          1 1 0.998676 0.990508 0.929057 0.925126 0.92449 0.924375 0.924354 0.92435 0.924389 0.925795
          0.96669 0.986702 0.995582 0.999583 0.999999 1 1 1 1 1 1 1
          1 1 1 1 1 1 1 1 1 1 1 1
        </DataArray>
        <DataArray type="Float32" Name="p_aq" NumberOfComponents="1" format="ascii">
          152499 151567 150800 150141 149562 149042 148571 148138 147738 147365 147015 146685
          146370 146070 145781 145502 145231 144968 144711 144460 144213 143971 143732 143496
          143264 143035 142808 142585 142364 142146 141932 141720 141512 141307 141105 140906
          140710 140518 140328 140141 139957 139774 139594 139416 139239 139063 138888 138714
          150981 150174 149464 148836 148275 147768 147305 146879 146485 146116 145770 145442
          145130 144832 144544 144267 143998 143736 143480 143229 142983 142741 142502 142267
          142035 141805 141579 141355 141135 140917 140702 140491 140282 140077 139875 139676
          139481 139288 139099 138912 138728 138546 138366 138188 138012 137836 137662 137488
          149378 148686 148047 147465 146934 146449 146003 145590 145205 144845 144506 144184
          143876 143582 143299 143024 142757 142497 142243 141994 141748 141507 141269 141034
          140802 140573 140347 140123 139903 139685 139470 139258 139050 138844 138642 138444
          138248 138056 137867 137681 137497 137316 137137 136959 136783 136608 136434 136261
          147746 147144 146574 146042 145548 145091 144667 144272 143902 143553 143224 142910
          142610 142322 142043 141773 141510 141253 141001 140754 140510 140270 140033 139799
          139567 139338 139112 138889 138668 138450 138234 138022 137814 137608 137406 137208
          137013 136821 136632 136447 136264 136083 135905 135729 135554 135380 135207 135034
          146100 145571 145062 144580 144126 143701 143302 142928 142576 142243 141926 141623
          141332 141052 140780 140515 140257 140004 139755 139510 139268 139030 138794 138561
          138330 138101 137875 137651 137430 137211 136996 136783 136574 136369 136167 135969
          135774 135583 135395 135210 135028 134849 134672 134496 134323 134150 133979 133807
          144446 143979 143525 143089 142675 142283 141913 141563 141231 140916 140614 140324
          140045 139773 139509 139251 138999 138750 138505 138263 138024 137787 137553 137320
          137090 136861 136635 136411 136189 135970 135754 135541 135332 135126 134924 134726
          134532 134341 134154 133971 133790 133612 133437 133263 133091 132920 132750 132580
          142787 142373 141968 141577 141202 140844 140504 140180 139871 139575 139290 139015
          138748 138488 138233 137982 137736 137492 137252 137013 136777 136542 136309 136078
          135848 135620 135393 135168 134946 134726 134509 134295 134085 133879 133677 133479
          133285 133096 132910 132728 132549 132373 132199 132028 131857 131689 131521 131353
          141125 140758 140398 140049 139712 139388 139078 138782 138497 138222 137957 137698
          137445 137196 136952 136710 136470 136232 135996 135761 135528 135295 135064 134833
          134604 134376 134149 133924 133700 133479 133261 133046 132835 132628 132425 132228
          132035 131847 131663 131483 131306 131132 130960 130791 130623 130456 130291 130126
          139461 139137 138818 138508 138207 137918 137639 137371 137113 136861 136616 136375
          136137 135902 135668 135434 135202 134970 134739 134508 134278 134047 133818 133588
          133359 133131 132904 132677 132452 132230 132009 131793 131580 131372 131169 130972
          130780 130594 130411 130234 130059 129888 129719 129552 129387 129223 129060 128898
          137794 137510 137231 136957 136692 136437 136190 135952 135721 135495 135271 135049
          134827 134605 134382 134159 133934 133708 133482 133255 133027 132799 132571 132342
          132114 131885 131657 131429 131203 130977 130755 130535 130320 130111 129908 129711
          129520 129336 129156 128981 128810 128641 128476 128312 128150 127989 127830 127670
          136127 135880 135636 135398 135168 134946 134732 134526 134324 134125 133925 133723
          133518 133310 133098 132884 132666 132447 132225 132002 131777 131551 131325 131097
          130868 130639 130410 130180 129951 129723 129496 129273 129055 128844 128640 128443
          128255 128073 127896 127725 127557 127392 127230 127070 126912 126755 126598 126442
          134458 134245 134036 133832 133636 133447 133268 133095 132925 132755 132581 132400
          132212 132017 131817 131611 131401 131187 130970 130750 130529 130305 130079 129852
          129623 129394 129163 128931 128699 128466 128235 128006 127784 127569 127364 127169
          126983 126804 126632 126464 126301 126141 125983 125827 125672 125519 125366 125214
          132788 132607 132430 132258 132095 131940 131796 131660 131528 131390 131243 131083
          130912 130731 130541 130344 130140 129931 129718 129501 129282 129059 128835 128608
          128380 128149 127917 127682 127446 127208 126970 126734 126504 126284 126078 125885
          125703 125529 125362 125200 125042 124886 124733 124582 124432 124283 124134 123986
          131117 130966 130818 130677 130545 130423 130316 130221 130135 130036 129917 129779
          129623 129454 129273 129082 128884 128679 128469 128255 128037 127817 127593 127367
          127138 126907 126673 126436 126195 125951 125704 125456 125213 124987 124779 124590
          124414 124248 124088 123932 123780 123630 123482 123336 123190 123046 122901 122758
          129444 129320 129200 129087 128983 128893 128822 128775 128754 128700 128610 128491
          128348 128188 128014 127828 127634 127432 127225 127013 126796 126577 126354 126128
          125899 125667 125432 125192 124948 124697 124438 124172 123904 123669 123462 123282
          123117 122960 122808 122661 122515 122372 122230 122089 121948 121808 121669 121529
          127770 127671 127576 127487 127408 127344 127303 127304 127407 127401 127333 127226
          127091 126936 126766 126583 126391 126191 125985 125774 125559 125340 125117 124892
          124663 124431 124195 123954 123707 123451 123181 122889 122550 122317 122125 121961
          121811 121667 121526 121387 121249 121112 120976 120841 120705 120570 120435 120301
          126096 126019 125945 125877 125818 125771 125741 125733 125847 125875 125821 125723
          125596 125449 125287 125114 124931 124741 124544 124342 124135 123925 123711 123492
          123270 123044 122812 122573 122324 122057 121757 121376 121048 120915 120767 120630
          120500 120370 120241 120111 119982 119852 119722 119593 119463 119332 119202 119072
          124420 124363 124309 124259 124216 124181 124158 124148 124162 124142 124078 123982
          123863 123727 123579 123421 123254 123081 122901 122716 122527 122333 122134 121931
          121723 121509 121287 121054 120807 120535 120225 119849 119611 119523 119410 119300
          119189 119074 118956 118836 118715 118592 118469 118344 118220 118095 117969 117843
          122743 122705 122668 122634 122604 122580 122562 122553 122523 122454 122367 122263
          122145 122017 121880 121736 121585 121427 121264 121096 120923 120745 120562 120374
          120181 119981 119772 119551 119313 119052 118756 118416 118218 118154 118066 117976
          117882 117780 117673 117563 117449 117333 117216 117097 116977 116857 116736 116615
          121066 121045 121025 121006 120987 120971 120958 120951 120894 120784 120673 120558
          120439 120316 120189 120058 119921 119779 119632 119480 119323 119162 118995 118824
          118646 118462 118269 118065 117844 117603 117333 117031 116860 116810 116739 116664
          116583 116492 116395 116292 116185 116076 115964 115850 115736 115620 115503 115387
          119389 119386 119382 119376 119368 119359 119349 119342 119263 119116 118982 118856
          118737 118620 118503 118384 118263 118136 118005 117869 117729 117583 117433 117278
          117118 116952 116778 116594 116396 116181 115943 115679 115531 115489 115429 115365
          115293 115211 115121 115025 114925 114821 114714 114605 114495 114383 114271 114158
          117712 117727 117740 117747 117750 117746 117738 117730 117622 117436 117281 117149
          117032 116923 116818 116714 116608 116498 116383 116263 116139 116010 115876 115739
          115597 115450 115297 115137 114966 114781 114579 114355 114228 114189 114136 114080
          114014 113937 113853 113763 113667 113568 113466 113361 113255 113148 113039 112930
          116036 116072 116102 116125 116137 116138 116128 116113 115955 115725 115558 115427
          115319 115222 115133 115046 114959 114866 114767 114662 114553 114440 114323 114203
          114080 113953 113824 113690 113549 113400 113237 113055 112947 112909 112860 112807
          112745 112672 112592 112505 112414 112319 112220 112119 112017 111913 111808 111702
          114362 114421 114473 114512 114537 114541 114523 114487 114208 113953 113797 113684
          113593 113514 113444 113379 113314 113239 113155 113066 112972 112874 112774 112671
          112566 112460 112354 112249 112142 112032 111914 111782 111692 111650 111601 111548
          111486 111415 111337 111253 111164 111072 110977 110879 110780 110679 110577 110474
          112691 112777 112855 112916 112956 112966 112936 112836 112567 112397 112277 112183
          112106 112038 111979 111927 111880 111812 111735 111653 111566 111476 111384 111290
          111193 111097 111004 110914 110825 110737 110646 110555 110469 110410 110356 110300
          110236 110164 110087 110005 109919 109829 109736 109641 109544 109446 109347 109247
          111022 111144 111252 111341 111403 111433 111420 111354 111226 111109 111012 110930
          110859 110795 110735 110678 110620 110545 110461 110371 110277 110181 110083 109983
          109883 109788 109704 109627 109554 109481 109406 109330 109255 109188 109125 109061
          108993 108920 108843 108762 108677 108588 108498 108405 108310 108214 108117 108019
          109358 109522 109670 109792 109884 109941 109957 109933 109872 109802 109732 109667
          109605 109547 109490 109433 109375 109301 109217 109128 109035 108940 108843 108744
          108646 108554 108473 108398 108325 108252 108179 108105 108032 107962 107894 107825
          107754 107680 107603 107522 107437 107351 107261 107170 107077 106983 106888 106792
          107700 107917 108112 108275 108401 108488 108536 108548 108529 108493 108448 108399
          108349 108297 108244 108189 108133 108059 107976 107888 107796 107702 107606 107509
          107411 107322 107243 107169 107097 107025 106952 106879 106806 106735 106664 106592
          106519 106444 106366 106285 106201 106115 106027 105937 105846 105753 105659 105565
          106051 106335 106586 106793 106956 107075 107152 107193 107204 107193 107168 107134
          107093 107048 106999 106948 106893 106819 106737 106650 106559 106466 106371 106274
          106177 106091 106014 105941 105869 105797 105724 105652 105579 105507 105434 105361
          105287 105210 105132 105051 104967 104882 104795 104706 104615 104524 104431 104338
          104416 104787 105102 105357 105555 105702 105804 105868 105900 105908 105898 105875
          105842 105803 105758 105709 105656 105582 105500 105414 105325 105233 105138 105041
          104945 104861 104786 104714 104642 104570 104497 104425 104352 104279 104206 104131
          104056 103979 103900 103819 103736 103651 103564 103475 103386 103295 103204 103112
          102813 103295 103679 103978 104206 104375 104495 104574 104620 104640 104640 104625
          104598 104563 104521 104474 104422 104348 104267 104181 104093 104001 103907 103811
          103713 103633 103559 103487 103415 103343 103271 103198 103125 103051 102977 102903
          102827 102749 102670 102589 102506 102421 102335 102247 102158 102067 101976 101885
          101293 101901 102341 102669 102915 103097 103226 103314 103367 103393 103398 103386
          103362 103329 103289 103243 103192 103118 103037 102952 102863 102772 102678 102582
          102484 102406 102333 102261 102189 102117 102044 101971 101898 101825 101750 101675
          101599 101521 101442 101361 101278 101193 101107 101019 100930 100840 100750 100659
        </DataArray>
        <DataArray type="Float32" Name="rho_aq" NumberOfComponents="1" format="ascii">
          1000 1000 1000 1000 1000 1000 1000 1000 1000 1000 1000 1000
          1000 1000 1000 1000 1000 1000 1000 1000 1000 1000 1000 1000
          1000 1000 1000 1000 1000 1000 1000 1000 1000 1000 1000 1000
          1000 1000 1000 1000 1000 1000 1000 1000 1000 1000 1000 1000
          1000 1000 1000 1000 1000 1000 1000 1000 1000 1000 1000 1000
          1000 1000 1000 1000 1000 1000 1000 1000 1000 1000 1000 1000
          1000 1000 1000 1000 1000 1000 1000 1000 1000 1000 1000 1000
          1000 1000 1000 1000 1000 1000 1000 1000 1000 1000 1000 1000
          1000 1000 1000 1000 1000 1000 1000 1000 1000 1000 1000 1000
          1000 1000 1000 1000 1000 1000 1000 1000 1000 1000 1000 1000
          1000 1000 1000 1000 1000 1000 1000 1000 1000 1000 1000 1000
          1000 1000 1000 1000 1000 1000 1000 1000 1000 1000 1000 1000
          1000 1000 1000 1000 1000 1000 1000 1000 1000 1000 1000 1000
          1000 1000 1000 1000 1000 1000 1000 1000 1000 1000 1000 1000
          1000 1000 1000 1000 1000 1000 1000 1000 1000 1000 1000 1000
          1000 1000 1000 1000 1000 1000 1000 1000 1000 1000 1000 1000
          1000 1000 1000 1000 1000 1000 1000 1000 1000 1000 1000 1000
          1000 1000 1000 1000 1000 1000 1000 1000 1000 1000 1000 1000
          1000 1000 1000 1000 1000 1000 1000 1000 1000 1000 1000 1000
          1000 1000 1000 1000 1000 1000 1000 1000 1000 1000 1000 1000
          1000 1000 1000 1000 1000 1000 1000 1000 1000 1000 1000 1000
          1000 1000 1000 1000 1000 1000 1000 1000 1000 1000 1000 1000
          1000 1000 1000 1000 1000 1000 1000 1000 1000 1000 1000 1000
          1000 1000 1000 1000 1000 1000 1000 1000 1000 1000 1000 1000
          1000 1000 1000 1000 1000 1000 1000 1000 1000 1000 1000 1000
          1000 1000 1000 1000 1000 1000 1000 1000 1000 1000 1000 1000
          1000 1000 1000 1000 1000 1000 1000 1000 1000 1000 1000 1000
          1000 1000 1000 1000 1000 1000 1000 1000 1000 1000 1000 1000
          1000 1000 1000 1000 1000 1000 1000 1000 1000 1000 1000 1000
          1000 1000 1000 1000 1000 1000 1000 1000 1000 1000 1000 1000
          1000 1000 1000 1000 1000 1000 1000 1000 1000 1000 1000 1000
          1000 1000 1000 1000 1000 1000 1000 1000 1000 1000 1000 1000
          1000 1000 1000 1000 1000 1000 1000 1000 1000 1000 1000 1000
          1000 1000 1000 1000 1000 1000 1000 1000 1000 1000 1000 1000
          1000 1000 1000 1000 1000 1000 1000 1000 1000 1000 1000 1000
          1000 1000 1000 1000 1000 1000 1000 1000 1000 1000 1000 1000
          1000 1000 1000 1000 1000 1000 1000 1000 1000 1000 1000 1000
          1000 1000 1000 1000 1000 1000 1000 1000 1000 1000 1000 1000
          1000 1000 1000 1000 1000 1000 1000 1000 1000 1000 1000 1000
          1000 1000 1000 1000 1000 1000 1000 1000 1000 1000 1000 1000
          1000 1000 1000 1000 1000 1000 1000 1000 1000 1000 1000 1000
          1000 1000 1000 1000 1000 1000 1000 1000 1000 1000 1000 1000
          1000 1000 1000 1000 1000 1000 1000 1000 1000 1000 1000 1000
          1000 1000 1000 1000 1000 1000 1000 1000 1000 1000 1000 1000
          1000 1000 1000 1000 1000 1000 1000 1000 1000 1000 1000 1000
          1000 1000 1000 1000 1000 1000 1000 1000 1000 1000 1000 1000
          1000 1000 1000 1000 1000 1000 1000 1000 1000 1000 1000 1000
          1000 1000 1000 1000 1000 1000 1000 1000 1000 1000 1000 1000
          1000 1000 1000 1000 1000 1000 1000 1000 1000 1000 1000 1000
          1000 1000 1000 1000 1000 1000 1000 1000 1000 1000 1000 1000
          1000 1000 1000 1000 1000 1000 1000 1000 1000 1000 1000 1000
          1000 1000 1000 1000 1000 1000 1000 1000 1000 1000 1000 1000
          1000 1000 1000 1000 1000 1000 1000 1000 1000 1000 1000 1000
          1000 1000 1000 1000 1000 1000 1000 1000 1000 1000 1000 1000
          1000 1000 1000 1000 1000 1000 1000 1000 1000 1000 1000 1000
          1000 1000 1000 1000 1000 1000 1000 1000 1000 1000 1000 1000
          1000 1000 1000 1000 1000 1000 1000 1000 1000 1000 1000 1000
          1000 1000 1000 1000 1000 1000 1000 1000 1000 1000 1000 1000
          1000 1000 1000 1000 1000 1000 1000 1000 1000 1000 1000 1000
          1000 1000 1000 1000 1000 1000 1000 1000 1000 1000 1000 1000
          1000 1000 1000 1000 1000 1000 1000 1000 1000 1000 1000 1000
          1000 1000 1000 1000 1000 1000 1000 1000 1000 1000 1000 1000
          1000 1000 1000 1000 1000 1000 1000 1000 1000 1000 1000 1000
          1000 1000 1000 1000 1000 1000 1000 1000 1000 1000 1000 1000
          1000 1000 1000 1000 1000 1000 1000 1000 1000 1000 1000 1000
          1000 1000 1000 1000 1000 1000 1000 1000 1000 1000 1000 1000
          1000 1000 1000 1000 1000 1000 1000 1000 1000 1000 1000 1000
          1000 1000 1000 1000 1000 1000 1000 1000 1000 1000 1000 1000
          1000 1000 1000 1000 1000 1000 1000 1000 1000 1000 1000 1000
          1000 1000 1000 1000 1000 1000 1000 1000 1000 1000 1000 1000
          1000 1000 1000 1000 1000 1000 1000 1000 1000 1000 1000 1000
          1000 1000 1000 1000 1000 1000 1000 1000 1000 1000 1000 1000
          1000 1000 1000 1000 1000 1000 1000 1000 1000 1000 1000 1000
          1000 1000 1000 1000 1000 1000 1000 1000 1000 1000 1000 1000
          1000 1000 1000 1000 1000 1000 1000 1000 1000 1000 1000 1000
          1000 1000 1000 1000 1000 1000 1000 1000 1000 1000 1000 1000
          1000 1000 1000 1000 1000 1000 1000 1000 1000 1000 1000 1000
          1000 1000 1000 1000 1000 1000 1000 1000 1000 1000 1000 1000
          1000 1000 1000 1000 1000 1000 1000 1000 1000 1000 1000 1000
          1000 1000 1000 1000 1000 1000 1000 1000 1000 1000 1000 1000
          1000 1000 1000 1000 1000 1000 1000 1000 1000 1000 1000 1000
          1000 1000 1000 1000 1000 1000 1000 1000 1000 1000 1000 1000
          1000 1000 1000 1000 1000 1000 1000 1000 1000 1000 1000 1000
          1000 1000 1000 1000 1000 1000 1000 1000 1000 1000 1000 1000
          1000 1000 1000 1000 1000 1000 1000 1000 1000 1000 1000 1000
          1000 1000 1000 1000 1000 1000 1000 1000 1000 1000 1000 1000
          1000 1000 1000 1000 1000 1000 1000 1000 1000 1000 1000 1000
          1000 1000 1000 1000 1000 1000 1000 1000 1000 1000 1000 1000
          1000 1000 1000 1000 1000 1000 1000 1000 1000 1000 1000 1000
          1000 1000 1000 1000 1000 1000 1000 1000 1000 1000 1000 1000
          1000 1000 1000 1000 1000 1000 1000 1000 1000 1000 1000 1000
          1000 1000 1000 1000 1000 1000 1000 1000 1000 1000 1000 1000
          1000 1000 1000 1000 1000 1000 1000 1000 1000 1000 1000 1000
          1000 1000 1000 1000 1000 1000 1000 1000 1000 1000 1000 1000
          1000 1000 1000 1000 1000 1000 1000 1000 1000 1000 1000 1000
          1000 1000 1000 1000 1000 1000 1000 1000 1000 1000 1000 1000
          1000 1000 1000 1000 1000 1000 1000 1000 1000 1000 1000 1000
          1000 1000 1000 1000 1000 1000 1000 1000 1000 1000 1000 1000
          1000 1000 1000 1000 1000 1000 1000 1000 1000 1000 1000 1000
          1000 1000 1000 1000 1000 1000 1000 1000 1000 1000 1000 1000
          1000 1000 1000 1000 1000 1000 1000 1000 1000 1000 1000 1000
          1000 1000 1000 1000 1000 1000 1000 1000 1000 1000 1000 1000
          1000 1000 1000 1000 1000 1000 1000 1000 1000 1000 1000 1000
          1000 1000 1000 1000 1000 1000 1000 1000 1000 1000 1000 1000
          1000 1000 1000 1000 1000 1000 1000 1000 1000 1000 1000 1000
          1000 1000 1000 1000 1000 1000 1000 1000 1000 1000 1000 1000
          1000 1000 1000 1000 1000 1000 1000 1000 1000 1000 1000 1000
          1000 1000 1000 1000 1000 1000 1000 1000 1000 1000 1000 1000
          1000 1000 1000 1000 1000 1000 1000 1000 1000 1000 1000 1000
          1000 1000 1000 1000 1000 1000 1000 1000 1000 1000 1000 1000
          1000 1000 1000 1000 1000 1000 1000 1000 1000 1000 1000 1000
          1000 1000 1000 1000 1000 1000 1000 1000 1000 1000 1000 1000
          1000 1000 1000 1000 1000 1000 1000 1000 1000 1000 1000 1000
          1000 1000 1000 1000 1000 1000 1000 1000 1000 1000 1000 1000
          1000 1000 1000 1000 1000 1000 1000 1000 1000 1000 1000 1000
          1000 1000 1000 1000 1000 1000 1000 1000 1000 1000 1000 1000
          1000 1000 1000 1000 1000 1000 1000 1000 1000 1000 1000 1000
          1000 1000 1000 1000 1000 1000 1000 1000 1000 1000 1000 1000
          1000 1000 1000 1000 1000 1000 1000 1000 1000 1000 1000 1000
          1000 1000 1000 1000 1000 1000 1000 1000 1000 1000 1000 1000
          1000 1000 1000 1000 1000 1000 1000 1000 1000 1000 1000 1000
          1000 1000 1000 1000 1000 1000 1000 1000 1000 1000 1000 1000
          1000 1000 1000 1000 1000 1000 1000 1000 1000 1000 1000 1000
          1000 1000 1000 1000 1000 1000 1000 1000 1000 1000 1000 1000
          1000 1000 1000 1000 1000 1000 1000 1000 1000 1000 1000 1000
          1000 1000 1000 1000 1000 1000 1000 1000 1000 1000 1000 1000
          1000 1000 1000 1000 1000 1000 1000 1000 1000 1000 1000 1000
          1000 1000 1000 1000 1000 1000 1000 1000 1000 1000 1000 1000
        </DataArray>
        <DataArray type="Float32" Name="mob_aq" NumberOfComponents="1" format="ascii">
          1000 1000 1000 1000 1000 1000 1000 1000 1000 1000 1000 1000
          1000 1000 1000 1000 1000 1000 1000 1000 1000 1000 1000 1000
          1000 1000 1000 1000 1000 1000 1000 1000 1000 1000 1000 1000
          1000 1000 1000 1000 1000 1000 1000 1000 1000 1000 1000 1000
          1000 1000 1000 1000 1000 1000 1000 1000 1000 1000 1000 1000
          1000 1000 1000 1000 1000 1000 1000 1000 1000 1000 1000 1000
          1000 1000 1000 1000 1000 1000 1000 1000 1000 1000 1000 1000
          1000 1000 1000 1000 1000 1000 1000 1000 1000 1000 1000 1000
          1000 1000 1000 1000 1000 1000 1000 1000 1000 1000 1000 1000
          1000 1000 1000 1000 1000 1000 1000 1000 1000 1000 1000 1000
          1000 1000 1000 1000 1000 1000 1000 1000 1000 1000 1000 1000
          1000 1000 1000 1000 1000 1000 1000 1000 1000 1000 1000 1000
          1000 1000 1000 1000 1000 1000 1000 1000 1000 1000 1000 1000
          1000 1000 1000 1000 1000 1000 1000 1000 1000 1000 1000 1000
          1000 1000 1000 1000 1000 1000 1000 1000 1000 1000 1000 1000
          1000 1000 1000 1000 1000 1000 1000 1000 1000 1000 1000 1000
          1000 1000 1000 1000 1000 1000 1000 1000 1000 1000 1000 1000
          1000 1000 1000 1000 1000 1000 1000 1000 1000 1000 1000 1000
          1000 1000 1000 1000 1000 1000 1000 1000 1000 1000 1000 1000
          1000 1000 1000 1000 1000 1000 1000 1000 1000 1000 1000 1000
          1000 1000 1000 1000 1000 1000 1000 1000 1000 1000 1000 1000
          1000 1000 1000 1000 1000 1000 1000 1000 1000 1000 1000 1000
          1000 1000 1000 1000 1000 1000 1000 1000 1000 1000 1000 1000
          1000 1000 1000 1000 1000 1000 1000 1000 1000 1000 1000 1000
          1000 1000 1000 1000 1000 1000 1000 1000 1000 1000 1000 1000
          1000 1000 1000 1000 1000 1000 1000 1000 1000 1000 1000 1000
          1000 1000 1000 1000 1000 1000 1000 1000 1000 1000 1000 1000
          1000 1000 1000 1000 1000 1000 1000 1000 1000 1000 1000 1000
          1000 1000 1000 1000 1000 1000 1000 1000 1000 1000 1000 1000
          1000 1000 1000 1000 1000 1000 1000 1000 1000 1000 1000 1000
          1000 1000 1000 1000 1000 1000 1000 1000 1000 1000 1000 1000
          1000 1000 1000 1000 1000 1000 1000 1000 1000 1000 1000 1000
          1000 1000 1000 1000 1000 1000 1000 1000 1000 1000 1000 1000
          1000 1000 1000 1000 1000 1000 1000 1000 1000 1000 1000 1000