<?xml version="1.0"?>
<VTKFile type="UnstructuredGrid" version="0.1" byte_order="LittleEndian">
  <UnstructuredGrid>
    <Piece NumberOfCells="28948" NumberOfPoints="14815">
      <PointData Scalars="p">
        <DataArray type="Float32" Name="p" NumberOfComponents="1" format="ascii">
          9.69438e-05 0.000263712 9.42359e-05 0.0194915 0.0200065 0.0195946 0.0295023 0.0289966 0.0290586 0.026384 0.0262261 0.0261916
          0.0138418 0.0137413 0.0138974 0.0596066 0.058849 0.0592592 0.0217221 0.0215603 0.0215797 0.0209526 0.0210229 0.0208635
          0.0607742 0.0608602 0.0601805 0.0233564 0.0237056 0.0234797 0.0581352 0.0579505 0.0587357 0.0183116 0.0187915 0.0187269
          0.0216944 0.0218814 0.0220471 0.0215478 0.0154551 0.0154769 0.0155981 0.0404753 0.0411869 0.0403682 0.014446 0.0143472
          0.014519 0.020811 0.0556804 0.0555384 0.0552498 0.0244258 0.0243084 0.0244274 0.0513813 0.0520325 0.0510085 0.0241588
          0.024236 0.0241025 0.00646512 0.00658191 0.00659277 0.0169645 0.0169019 0.0170537 0.0204946 0.0205848 0.0204367 0.055444
          0.0556613 0.0551664 0.0495673 0.0490183 0.0491305 0.0127786 0.0128533 0.0129484 0.00645144 0.0128894 0.00570914 0.00583452
          0.00582203 0.0488027 0.048575 0.0481004 0.00365825 0.00381331 0.00369258 0.0491954 0.0496025 0.0494764 0.000327411 0.000281499
          0.000106352 0.00378525 0.000254828 0.0243249 0.0126779 0.0500029 0.0496827 0.0494388 0.0127506 0.0193293 0.0574368 0.0575304
          0.0568629 0.0509334 0.0508028 0.0509087 0.00985749 0.00984417 0.00972713 0.0249646 0.0247972 0.0248467 0.0144226 0.00625035
          0.00624419 0.00609972 0.00146273 0.00135769 0.00128371 0.000333785 0.000184633 0.000235486 0.0249706 0.0250944 0.0250758 0.00613743
          0.0208318 0.0215346 0.0212843 0.025839 0.0258103 0.0258648 0.0263548 0.0262457 0.0261887 0.0223113 0.0224451 0.0224235
          0.0289084 0.0294312 0.0298041 0.020562 0.0207063 0.0206348 0.0478395 0.0277557 0.0272843 0.0271855 0.0138005 0.0136191
          0.0115487 0.0115604 0.0116874 0.036074 0.0365315 0.035902 0.0550639 0.0242462 0.0242657 0.0243733 0.0258788 0.0259241
          0.0258066 0.0108881 0.0108537 0.0107514 0.0481051 0.0482689 0.0488553 0.0512396 0.0511409 0.0509767 0.0322403 0.0324147
          0.0328929 0.00717553 0.00719881 0.00731837 0.0303866 0.0317217 0.0314083 0.0207603 0.0294041 0.0225405 0.0225452 0.0226491
          0.0241838 0.0501287 0.0536707 0.0539434 0.0534888 0.0493833 0.049154 0.0223515 0.0596236 0.0603031 0.0598249 0.00531939
          0.00545808 0.00544594 0.0225693 0.0224233 0.0224644 0.0247282 0.0246862 0.00187781 0.00201454 0.00199094 0.037866 0.0369458
          0.0373722 0.0245966 0.0247169 0.0246698 0.0569382 0.0564674 0.0563193 0.0345013 0.0337395 0.0346057 0.0251594 0.0252708
          0.0252239 0.00381405 0.00393435 0.00379704 0.0242374 0.0241288 0.024076 0.0475779 0.0484372 0.0483982 0.0226633 0.0221512
          0.0191437 0.0186244 0.0186214 0.0327965 0.0508747 0.0225137 0.0224462 0.0225952 0.0331388 0.032659 0.0321275 0.0216723
          0.0215321 0.056703 0.0508138 0.0492376 0.0137004 0.0322531 0.0329721 0.0323112 0.00283597 0.0029717 0.0029569 0.0612722
          0.0254843 0.0254053 0.025462 0.00457536 0.00440731 0.00449556 0.0239811 0.0238931 0.0240223 0.0238434 0.00897858 0.00884213
          0.00897172 0.0184033 0.0184757 0.0185472 0.00112812 0.000986921 0.00112301 0.00391416 0.0343611 0.0340412 0.0336591 0.0118761
          0.0118197 0.0117285 0.0117796 0.0364496 0.00594178 0.00606822 0.00593598 0.0434067 0.0434551 0.0441254 0.000253998 0.0213231
          0.0442965 0.0446491 0.0437347 0.00602637 0.0378769 0.0377079 0.0367689 0.0291546 0.0291983 0.028653 0.0125858 0.0124921
          0.0126695 0.0135588 0.0134113 0.0134967 0.0272496 0.0278828 0.0281974 0.0607535 0.0608149 0.0612653 0.0553251 0.026696
          0.0241968 0.0545286 0.0546377 0.0549718 0.0427613 0.0125689 0.0118163 0.0119185 0.0119651 0.0032978 0.00342466 0.00328438
          0.029197 0.0292179 0.0287892 0.0134197 0.0123023 0.0122228 0.0121308 0.0548721 0.0507697 0.0509092 0.0262681 0.0121835
          0.0188971 0.0188414 0.0187441 0.0253645 0.000418717 0.000389251 0.000262117 0.00340166 0.0247885 0.0256591 0.0257519 0.0156302
          0.0155151 0.0156643 0.0532309 0.0536668 0.0540067 0.028583 0.0191118 0.0192508 0.0192337 0.0049503 0.00508524 0.00506956
          0.0113036 0.0112128 0.0113648 0.0536887 0.00906782 0.00907077 0.00921062 0.0013402 0.00133485 0.00122053 0.0329018 0.0321691
          0.0323676 0.0562748 0.0568797 0.0567397 0.0191245 0.0160386 0.0160361 0.0159061 0.0202634 0.0204048 0.020272 0.0153346
          0.0453376 0.04573 0.0461487 0.013888 0.0137378 0.0138821 0.01048 0.0105178 0.0103998 0.0106026 0.0250836 0.0251223
          0.0251979 0.0265053 0.0269561 0.0267527 0.0271099 0.0268317 0.0270609 0.0489045 0.0488492 0.0306573 0.030843 0.0299328
          0.00535396 0.00523052 0.00519334 0.0517311 0.0519707 0.0515407 0.0137625 0.00029489 0.000272818 0.000121788 0.024405 0.0241657
          0.024091 0.0273221 0.0274971 0.0275629 0.024981 0.0287552 0.00537114 0.0258822 0.0258071 0.0258762 0.0173457 0.0173467
          0.0174797 0.0244072 0.0243154 0.0244616 0.00557653 0.00569184 0.0564875 0.0571557 0.0570561 0.0614516 0.0608588 0.0614327
          0.0249001 0.0428063 0.0422355 0.041917 0.0619647 0.00556239 0.0242753 0.0241341 0.0241509 0.010721 0.0553445 0.0548053
          0.0550692 0.05287 0.0532594 0.053155 0.027787 0.0273327 0.0269924 0.055148 0.0586446 0.0118958 0.0187972 0.0164162
          0.0164839 0.0163347 0.0189157 0.0188067 0.0189515 0.0252057 0.043353 0.0441612 0.0438932 0.0405781 0.0397558 0.0407642
          0.00705515 0.0408849 0.0403905 0.0411334 0.0558797 0.0555936 0.000420512 0.000390191 0.000271972 0.0273425 0.0131711 0.0133043
          0.013297 0.0198611 0.0204481 0.0202232 0.0270069 0.0264165 0.00190405 0.00187371 0.00176092 0.0208258 0.0209595 0.0209315
          0.0274052 0.0270358 0.0272605 0.0125923 0.0243911 0.0126892 0.0505469 0.0601153 0.0365057 0.0374241 0.0372047 0.055964
          0.0257754 0.0257224 0.0256233 0.040111 0.0131525 0.0131331 0.0130197 0.0246925 0.0531319 0.0528009 0.0532904 0.0143567
          0.0143936 0.0145051 0.0156603 0.0155902 0.0155176 0.0236954 0.0238605 0.0235055 0.0523039 0.0151464 0.0152022 0.0150494
          0.0124807 0.0124352 0.0123336 0.0251787 0.0254735 0.025233 0.00848108 0.00837391 0.00836468 0.00825896 0.0302196 0.0298023
          0.0297065 0.0575565 0.0223932 0.0222612 0.0222911 0.0541932 0.0548388 0.0545606 0.0258276 0.0327897 0.0328346 0.0333902
          0.0569384 0.0569981 0.0565109 0.0311995 0.0312606 0.0307285 0.0053099 0.00519283 0.0190637 0.0077826 0.00766667 0.00781264
          0.0112663 0.00963249 0.00974819 0.00964038 0.0095287 0.0238905 0.02391 0.0240204 0.0092263 0.0516118 0.0517498 0.0516262
          0.0346715 0.0157803 0.011134 0.0109844 0.0110126 0.0266935 0.0267612 0.0265474 0.0503109 0.0502168 0.0508096 0.0507272
          0.0595825 0.0595817 0.0247838 0.0507772 0.0510461 0.0502846 0.0199816 0.0198437 0.0198906 0.0101035 0.0101418 0.0100209
          0.0518005 0.0519676 0.0522607 0.0250558 0.0249979 0.0220016 0.0223557 0.030981 0.0305775 0.0305198 0.0236063 0.0235885
          0.0234661 0.0533802 0.0529841 0.0532101 0.00317959 0.00328221 0.00332849 0.00100553 0.0102214 0.0228576 0.0228751 0.022986
          0.0549098 0.0550403 0.0552138 0.025453 0.0251818 0.0284197 0.0288088 0.0283524 0.0271932 0.0465829 0.0475113 0.0473916
          0.0353925 0.053471 0.00363396 0.00348744 0.00355545 0.0250558 0.0252573 0.0251669 0.026268 0.026257 0.0263873 0.00868675
          0.00862432 0.00877113 0.0261129 0.0262806 0.0240015 0.00419054 0.00432453 0.00430841 0.038221 0.0364464 0.0364403 0.0371061
          0.024478 0.0118548 0.011918 0.0117671 0.00716686 0.00703713 0.00717866 0.0244302 0.0253848 0.0517409 0.0270271 0.0270155
          0.0268594 0.0520428 0.0521736 0.0517982 0.0287433 0.0282582 0.0175027 0.0415178 0.0550251 0.0553637 0.0549315 0.0504017
          0.0496921 0.0274357 0.0270753 0.0297463 0.0111994 0.011089 0.0112344 0.0304468 0.0298816 0.0298753 0.00527833 0.00516449
          0.00530343 0.0529003 0.0482932 0.0486615 0.0489083 0.00325754 0.00883384 0.0110397 0.0105531 0.0106269 0.0106979 0.0155515
          0.0441343 0.0429354 0.0437151 0.0390084 0.0395371 0.0386767 0.0248416 0.0249212 0.0245508 0.0382879 0.038896 0.0377304
          0.049505 0.0445172 0.0442792 0.0450486 0.0177436 0.0175941 0.0177067 0.0241366 0.0546268 0.0176395 0.0465929 0.0470968
          0.0473171 0.0254067 0.0247425 0.0257276 0.022752 0.0226609 0.022808 0.0352184 0.0162787 0.0163471 0.0162214 0.0330739
          0.0333329 0.0047976 0.00493749 0.0133888 0.0134044 0.0135234 0.0269467 0.0268789 0.0266876 0.0196969 0.019776 0.0520409
          0.0196525 0.0247359 0.0321354 0.00729605 0.0073519 0.00720013 0.0257126 0.025751 0.0257743 0.0161448 0.00480844 0.059168
          0.0266096 0.0226057 0.0530321 0.0487315 0.0343995 0.033721 0.033753 0.0306981 0.0302346 0.0273145 0.0129261 0.013066
          0.0130515 0.0519237 0.0514606 0.0516537 0.0392701 0.0399995 0.0402086 0.0509704 0.0511214 0.0508516 0.0506753 0.0508053
          0.0261171 0.0186286 0.00120708 0.00108352 0.00106305 0.0261184 0.0255926 0.0255778 0.025397 0.0266514 0.0366303 0.0477902
          0.0171204 0.0295809 0.0293561 0.0295928 0.0544463 0.0553036 0.0546511 0.0325454 0.0321888 0.0318099 0.011365 0.0114188
          0.0112677 0.00143435 0.0322953 0.0320432 0.0329394 0.0546885 0.0541964 0.054875 0.0244312 0.0245484 0.0243925 0.0337922
          0.022038 0.022468 0.0225648 0.0198656 0.0200961 0.0205284 0.0316011 0.0308901 0.0306514 0.0563606 0.055935 0.0562424
          0.0315291 0.0325966 9.84397e-05 0.000256262 9.43405e-05 0.0465367 0.0467012 0.0475496 0.0284759 0.0283783 0.0533092 0.0539069
          0.0164291 0.0202361 0.0201099 0.0201411 0.0276993 0.0277799 0.027488 0.00975342 0.0577263 0.0240335 0.0243859 0.0236823
          0.0304902 0.0553681 0.0552161 0.0554773 0.0273185 0.0269705 0.0272133 0.0272408 0.0277536 0.0276011 0.0330384 0.033104
          0.0164757 0.0261386 0.0266956 0.0267956 0.0358737 0.0478329 0.0481758 0.0485854 0.0350495 0.034302 0.0346684 0.00329444
          0.0031307 0.00321967 0.00277612 0.00284627 0.00270585 0.0244414 0.00792737 0.0268693 0.0270439 0.0270992 0.0388891 0.0523792
          0.00985544 0.0190915 0.0578133 0.0580041 0.0572875 0.0251623 0.025096 0.0252691 0.0252005 0.0250542 0.0204108 0.0253496
          0.0325065 0.0324313 0.0323447 0.0206238 0.0439045 0.0448846 0.0448006 0.0210685 0.055924 0.0557456 0.0279902 0.0277236
          0.027485 0.0240814 0.0338221 0.0431132 0.0241396 0.0243752 0.0275995 0.0268222 0.0271513 0.0240721 0.0557536 0.0565295
          0.0564622 0.024698 0.0246507 0.0245456 0.0258967 0.0241397 0.0499969 0.0496461 0.0497193 0.0396328 0.00518382 0.0268151
          0.0265909 0.0266127 0.0246404 0.024522 0.0245616 0.031315 0.0314106 0.0319477 0.0507415 0.0511135 0.0511463 0.0071198
          0.00699005 0.00702302 0.0256707 0.0242691 0.0493714 0.0501306 0.0494004 0.0112132 0.0213803 0.0214796 0.0209433 0.0066607
          0.0065584 0.00649461 0.0576261 0.0221598 0.0330774 0.0193829 0.0594439 0.0601347 0.0598476 0.0253677 0.0412362 0.0416206
          0.0406904 0.0194972 0.0198565 0.0252376 0.04398 0.0506551 0.0508535 0.0510266 0.0257164 0.0366841 0.00236121 0.00234613
          0.00222289 0.0311466 0.0239789 0.0494982 0.0496257 0.0491314 0.0539789 0.0541798 0.0535985 0.055059 0.0233479 0.0232541
          0.0233796 0.0507114 0.0245437 0.0545213 0.0544365 0.0545197 0.0248003 0.0247548 0.024883 0.0599372 0.0606937 0.0604489
          0.0280685 0.014986 0.0552952 0.0556229 0.02268 0.0240695 0.0383249 0.038394 0.0375827 0.00935468 0.00941938 0.00926972
          0.049813 0.0564957 0.0245355 0.0242651 0.0195719 0.0196405 0.0195068 0.0513934 0.051068 0.050755 0.0204126 0.0268691
          0.0268337 0.011167 0.0242782 0.0243804 0.0283518 0.0282693 0.0289059 0.0498417 0.025659 0.0584244 0.0592531 0.0270703
          0.0505968 0.0566459 0.0513162 0.0521028 0.044345 0.0447773 0.0486602 0.0186791 0.0411214 0.0414183 0.0111023 0.0109608
          0.0200852 0.0318572 0.0216732 0.0217946 0.0216669 0.0517727 0.0256097 0.0166225 0.0164608 0.0165819 0.0165192 0.0105393
          0.0104262 0.0105606 0.0194302 0.0316251 0.0312114 0.0308621 0.0550785 0.0241476 0.0248713 0.00464188 0.0297942 0.0293306
          0.0291698 0.0400968 0.0391519 0.0400249 0.0263811 0.0268224 0.0200167 0.0517243 0.0516583 0.0515661 0.0271443 0.0279269
          0.0147611 0.014638 0.0147689 0.0239548 0.0239627 0.0192674 0.0191308 0.0192092 0.0013535 0.0244373 0.0190754 0.0204636
          0.0286024 0.0234727 0.0273281 0.0275741 0.0197147 0.0197543 0.0485995 0.0480138 0.0488553 0.0365539 0.0373101 0.0373165
          0.0268417 0.0256936 0.0257933 0.0259309 7.88784e-05 0.0306125 0.0308281 0.0310696 0.0387966 0.0380796 0.0387773 0.0445529
          0.00899489 0.00913293 0.00910694 0.0499151 0.0282323 0.0547163 0.0547263 0.0546225 0.000371795 0.0412643 0.0252 0.0252787
          0.0251407 0.0318118 0.0236183 0.0233845 0.0228701 0.0272269 0.0258492 0.026081 0.0430469 0.0239299 0.0243274 0.0198342
          0.0196917 0.0197743 0.0100326 0.0101297 0.0101993 0.0111984 0.011203 0.0113249 0.0537833 0.00126553 0.00139532 0.00138543
          0.02581 0.0257934 0.0257535 0.0259021 0.0225483 0.0240407 0.0455766 0.0458272 0.0433822 0.0425162 0.00633811 0.00636105
          0.0519956 0.0523953 0.0520799 0.0232372 0.0236397 0.0233599 0.0227539 0.0230564 0.0226481 0.0419962 0.042644 0.0418359
          0.00656072 0.0494414 0.0493582 0.0291442 0.0299971 0.0305931 0.0223601 0.00691306 0.00678777 0.0069165 0.000590262 0.000589088
          0.000471725 0.018971 0.0195065 0.0117107 0.0131809 0.000465502 0.0536528 0.0200927 0.0198637 0.0263811 0.0264257 0.0266009
          0.0272591 0.0272653 0.0030317 0.00316143 0.00314984 0.00102275 0.00115105 0.00114127 0.0221317 0.0542287 0.0541897 0.0539354
          0.0546608 0.024112 4.67345e-05 0.0388 0.0382934 0.0378891 0.035275 0.0350778 0.0358728 0.0271844 0.0273918 0.0302152
          0.0224075 0.0220294 0.0219507 0.0236993 0.0235687 0.0235957 0.0256762 0.025599 0.0472919 0.053774 0.0537608 0.053988
          0.0395872 0.0390501 0.0398865 0.0106713 0.0107772 0.0106438 0.0536635 0.0252607 0.0518107 0.0513266 0.00377854 0.0327683
          0.0369517 0.0363768 0.0375662 0.00713684 0.00394477 0.00408479 0.00406853 0.0348027 0.0353445 0.0342515 0.0258745 0.0257666
          0.0257877 0.0106135 0.0318646 0.043922 0.000226571 0.02402 0.0125797 0.0471672 0.046481 0.0472539 0.00792483 0.00794823
          0.00806127 0.0474261 0.0249316 0.0252027 0.0249464 0.0129644 0.0258421 0.0258439 0.0258797 0.00074059 0.000726752 0.000601876
          0.0227138 0.0414822 0.0418399 0.00010122 0.0505268 0.0503865 0.0545005 0.0537054 0.0536413 0.0494206 0.0498238 0.0494498
          0.000105544 0.000275246 0.000103427 0.0544275 0.020637 0.0531966 0.0531573 0.0525349 0.0374947 0.0197058 0.0196171 0.0195567
          0.0265428 0.0263834 0.0493653 0.048802 0.0491355 0.0264682 0.0263899 0.0262591 0.0234423 0.0033744 0.0034416 0.00352585
          0.0540379 0.0226731 0.0182526 0.0181505 0.0183006 0.015639 0.0154652 0.0155838 0.0155228 0.0528226 0.052763 0.0530851
          0.0510119 0.0270066 0.0255468 0.0252462 0.0349349 0.034164 0.0349465 0.0397615 0.0404287 0.0406519 0.037988 0.0232683
          0.0232442 0.0231372 0.0546919 0.055331 0.0546868 0.040074 0.0392804 0.0397566 0.0397284 0.0399843 0.0388534 0.0387534
          0.0338143 0.0344071 0.0502067 0.0500015 0.0504057 0.0506641 0.0269283 0.0265127 0.0279773 0.0280091 0.0277403 0.0479946
          0.0322425 0.0250298 0.0251843 0.0188681 0.0187209 0.0187938 0.0263694 0.0521665 0.0526274 0.0529108 0.0528833 0.0555796
          0.0557342 0.0225683 0.0218508 0.0222113 0.00343321 0.00357039 0.00355629 0.0408664 0.0246937 0.0252116 0.0249605 0.0556653
          0.0560355 0.0560334 0.0499053 0.026317 0.0264162 0.0262748 0.0265377 0.0560367 0.00808539 0.0497402 0.0497701 0.0505294
          0.0369463 0.0365537 0.0487939 0.00418053 0.0551616 0.0547046 0.0547197 0.0132484 0.003084 0.0484572 0.0259938 0.0264754
          0.0258559 0.00338278 0.00925168 0.0251735 0.0250226 0.0289314 0.028667 0.0292026 0.0265378 0.00329967 0.00883749 0.00886851
          0.00875263 0.0412549 0.0414584 0.0420765 0.038785 0.0387818 0.0380548 0.0235071 0.0116914 0.0232646 0.0239768 0.0237493
          0.0238617 0.0240165 0.0239534 0.045973 0.0461489 0.0469506 0.0254321 0.0254296 0.0255251 0.00306415 0.0395438 0.0344268
          0.0544536 0.0257537 0.00212166 0.0193477 0.0186993 0.0188339 0.0188049 0.0235269 0.0231258 0.0232767 0.0429528 0.0434017
          0.00540846 0.0185978 0.0519262 0.0289583 0.0286932 0.0293945 0.036122 0.0132867 0.0186852 0.0180588 0.018036 0.0262686
          0.0298111 0.0295345 0.0300715 0.0238557 0.025311 0.0261833 0.0449176 0.00464339 0.00456478 0.00470313 0.0242856 0.0255246
          0.00403222 0.00413977 0.00400313 0.00278142 0.00283948 0.00292537 0.00450591 4.37764e-05 0.000161 7.28443e-05 0.0542956 0.0515484
          0.0515719 0.0525243 0.0449805 0.0442844 0.0450788 0.0142876 0.0142963 0.0141717 0.0396622 0.0396286 0.0541371 0.0540431
          0.0539124 0.0375937 0.0244203 0.0244629 0.0245643 0.0501325 0.022857 0.0123501 0.00969639 0.0250359 0.0251138 0.0242028
          0.0240746 0.044354 0.0447716 0.0453752 0.00869906 0.00855866 0.0086391 0.0250862 0.0250977 0.0248877 0.0284409 0.0292411
          0.0302543 0.0323002 0.0105106 0.010372 0.0104009 0.0532574 0.0527357 0.0529486 0.0171153 0.0171982 0.017256 0.0542405
          0.0503139 0.00326441 8.08894e-05 0.010127 0.0553221 0.0552478 0.0555862 0.025018 0.0251213 0.0250899 0.000326765 0.000253773
          0.0469079 0.0181394 0.0180038 0.0180874 0.0535893 0.0526 0.0220991 0.0276725 0.0271903 0.0274308 0.0179487 0.0522059
          0.0515304 0.0518474 0.0209693 0.0277627 0.0204372 0.0207943 0.0210817 0.0225895 0.0555832 0.0616574 0.0246061 0.0245031
          0.0301185 0.0143992 0.051609 0.0516373 0.0308835 0.0317184 0.0310562 0.0442218 0.00895491 0.00184294 0.0234955 0.0246025
          0.0162644 0.0214784 0.0219002 0.0241003 0.0116272 0.011544 0.0529138 0.0525403 0.058776 0.0582152 0.036137 0.0366517
          0.0369958 0.0265693 0.00155475 0.001643 0.00170897 0.0336043 0.034182 0.0334809 0.030788 0.0193852 0.0282498 0.0364628
          0.0359767 0.0368255 0.023866 0.0560154 0.0556187 0.0561106 0.019048 0.0257143 0.0257326 0.0256994 0.056291 0.0259909
          0.0273381 0.0237266 0.0238538 0.0238493 0.0290616 0.0266289 0.0602524 0.0151567 0.0152908 0.01526 0.0215234 0.0218139
          0.022109 0.0209562 0.020854 0.0209839 0.0522118 0.0252952 0.0389583 0.0386407 0.038637 0.0380248 0.0224303 0.0555316
          0.014255 0.0210286 0.0219461 0.0219648 0.0220723 0.0132696 0.0131562 0.0131396 0.0289654 0.0340199 0.0339242 0.0331926
          0.0397124 0.0320755 0.0270088 0.0487 0.0479296 0.0477072 0.0512285 0.0505782 0.0501309 0.0499655 0.0507644 0.0477556
          0.0476769 0.0555498 0.0237671 0.0237277 0.0236337 0.0383405 0.0386038 0.0376505 0.0218372 0.0543219 0.0544129 0.0522699
          0.0514034 0.0517819 0.0237277 0.014098 0.0142042 0.014085 0.016072 0.0255404 0.0253457 0.0261032 0.0584424 0.058581
          0.0591885 0.0256577 0.0256537 0.0256011 0.0350873 0.0348884 0.0558774 0.0559029 0.0555373 0.055176 0.0181873 0.0180993
          0.0180433 0.00994619 0.0476042 0.0474194 0.0480058 0.00848465 0.0165922 0.01661 0.0167231 0.0174864 0.0512261 0.0518177
          0.0514808 0.0205561 0.0205344 0.0306735 0.0310764 0.030542 0.0174433 0.0532481 0.0530871 0.0528312 0.06196 0.0517536
          0.0263427 0.0164814 0.0246 0.000310378 0.0286172 0.0290205 0.0287403 0.0266463 0.0160136 0.0224591 0.022332 0.0223546
          0.00478506 0.00474699 0.0189761 0.0188916 0.0188309 0.0412489 0.0422735 0.0233201 0.0231932 0.0232256 0.037409 0.0522728
          0.0380558 0.0398414 0.0278276 0.0282887 0.0284508 0.0257954 0.0258318 0.0257996 0.0476946 0.0473056 0.0468726 0.0321168
          0.0286494 0.0281214 0.0220286 0.029823 0.0293348 0.0302 0.0266224 0.0263456 0.0264301 0.0251826 0.0250704 0.0252606
          0.0244691 0.023316 0.0211118 0.0212257 0.0212653 0.0535214 0.00322623 0.0251477 0.0224832 0.018925 0.0342615 0.0273676
          0.0141835 0.0258477 0.0310503 0.0306462 0.0255209 0.0263821 0.0258827 0.0391124 0.0452821 0.0443555 0.0453928 0.029375
          0.0293143 0.036013 0.0390197 0.0306683 0.0302692 0.0354536 0.0357855 0.0254412 0.025282 0.0254276 0.0501995 0.0362906
          0.0357328 0.0552614 0.00389229 0.050582 0.0507058 0.0587334 0.0581738 0.0588532 0.0255463 0.0256852 0.0255222 0.0139846
          0.0139956 0.0465825 0.0465854 0.0459538 0.0363663 0.0266204 0.0480711 0.0483231 0.0487372 0.0204494 0.0201014 0.0484772
          0.00300281 0.025628 0.0255235 0.0256566 0.00688304 0.0102629 0.0268203 0.00677381 0.0066629 0.00680174 0.020054 0.0194337
          0.0195775 0.0552308 0.0546601 0.0252874 0.00280252 0.0248575 0.0247543 0.0547692 0.0545664 0.0525669 0.0526073 0.0238095
          0.0239299 0.0239272 0.0554068 0.00019918 0.0140595 0.0515225 0.0088364 0.000238736 0.000349698 0.000341506 0.0148331 0.0147615
          0.0149099 0.0219098 0.0219989 0.0220519 0.058098 0.0193689 0.0243795 0.0337553 0.0345039 0.0339009 0.0246669 0.0138798
          0.0126439 0.0127662 0.0127768 0.0289525 0.00982559 0.00991444 0.00998234 0.0478177 0.00901598 0.0559282 0.0255825 0.0255833
          0.00433492 0.0255666 0.0521291 0.0359372 0.0364994 0.0356779 0.0274511 0.0134506 0.0135628 0.0134918 0.0467885 0.046185
          0.0468413 0.00351611 0.0226925 0.0227208 0.0228291 0.0515333 0.0198718 0.0245357 0.0246426 0.0246247 0.0502125 0.0504856
          0.0501886 0.0471293 0.0471298 0.0511613 0.05146 0.0594469 0.0595665 0.0591207 0.0255162 0.0529866 0.0331705 0.0323225
          0.0322875 0.00729287 0.00219198 0.0244278 0.0186784 0.0126466 0.0156329 0.00858218 0.0520412 0.0491354 0.0498708 0.0334578
          0.0331861 0.0327855 0.0449832 0.0441861 0.0450605 0.00857394 0.00848375 0.00841559 0.028782 0.020704 0.0212098 0.021135
          0.0311316 0.0459413 0.0227289 0.0228168 0.0545357 0.0545829 0.0219235 0.0275876 0.020211 0.0272687 0.0404285 0.0403714
          0.0191902 0.0191131 0.0192657 0.0190201 0.0452449 0.0179061 0.017802 0.0179469 0.0325654 0.00667083 0.00653235 0.00655052
          0.00993534 0.00992741 0.00979935 0.0405456 0.0524539 0.0549761 0.0551075 0.0189782 0.0569004 0.0564664 0.0562368 0.0485868
          0.0483775 0.0489225 0.0326267 0.026534 0.0266108 0.026472 0.0267935 0.0555993 0.0545832 0.0544699 0.0158917 0.00833182
          0.00831292 0.0082022 0.0387887 0.0381184 0.0386159 0.0258747 0.0555902 0.0512839 0.0502172 0.0501853 0.0472365 0.0289985
          0.0292273 0.0540337 0.0535304 0.0534332 9.68284e-05 9.79509e-05 0.0406604 0.0133392 0.0131823 0.0133006 0.0185783 0.0185342
          0.0329164 0.0456816 0.0132333 0.0264299 0.0264894 0.0262951 0.0577057 0.057326 0.0578835 0.019379 0.0192383 0.0187443
          0.0257417 0.00934035 0.0466582 0.0251858 0.0228023 0.0564572 0.026359 0.00461824 0.0393392 0.0352215 0.0343814 0.0346257
          0.0220925 0.0214551 0.000234927 0.0139166 0.0137958 0.0138112 0.0480418 0.0476714 0.0484625 0.0614718 0.0610974 0.0255258
          0.00126043 0.0331768 0.0338785 0.0339654 0.018013 0.0179887 0.0178775 0.0274816 0.0273003 0.0276073 0.0325009 0.0595669
          0.0599176 0.0284939 0.0257732 0.025595 0.0256775 0.00844493 0.0574488 0.0573505 0.0578251 0.00316321 0.0276163 0.0291125
          0.0206512 0.0200033 0.0201467 0.00101585 0.0378204 0.0380491 0.0386021 0.0325098 0.0318805 0.00258264 0.00264186 0.00249271
          0.0535765 0.0435666 0.0436315 0.0428759 0.0418931 0.026386 0.046856 0.0462153 0.0460735 0.0223229 0.0287799 0.0289912
          0.0291971 0.0547688 0.0124415 0.0129067 0.0027571 0.00265228 0.0123559 0.0295276 0.0297199 0.0114353 0.0103429 0.010208
          0.0102338 0.0136924 0.0374481 0.0371686 0.0262029 0.0261612 0.0263185 0.045498 0.0453659 0.0270877 0.0442271 0.0202664
          0.0204065 0.0203914 0.0261191 0.0269256 0.0261775 0.0193632 0.0256399 0.0251113 0.025246 0.0252706 0.051101 0.0393017
          0.0389552 0.0384192 0.00201238 0.0242203 0.0146086 0.0294417 0.00245817 0.0261583 0.0259807 0.0260271 0.0467683 0.0348051
          0.0344267 0.00934919 0.0311427 0.028246 0.0444643 0.0440957 0.0434994 0.00642231 0.0126363 0.0126708 0.012773 0.000846044
          0.0534449 0.0532004 0.0532146 0.0526768 0.0524498 0.0531968 0.0237325 0.0237563 0.00177753 0.0535233 0.00590573 0.00601871
          0.00606525 0.0116081 0.00676448 0.0350703 0.0350052 0.0357978 0.00254443 0.00259017 0.00269765 0.0254872 0.025311 0.0311469
          0.0314925 0.0121238 0.0119866 0.012069 0.017839 0.0179078 0.0177454 0.0257448 0.05684 0.0476152 0.0469405 0.0472493
          0.0153872 0.0305631 0.0476299 0.0397819 0.0220543 0.0193014 0.0253245 0.0251836 0.0251802 0.0465984 0.0509246 0.0514548
          0.0425043 0.0426742 0.0417269 0.0119339 0.00150494 0.0236059 0.023602 0.00919822 0.0274283 0.0275556 0.00475067 0.00477828
          0.00489393 0.0255264 0.034586 0.0471414 0.0476496 0.047611 0.000243226 0.0541596 0.0515632 0.0515688 0.0515987 0.0523339
          0.0476605 0.0184702 0.0183667 0.018332 0.0233747 0.00979824 0.0445633 0.0449212 0.0454095 0.0417837 0.0409354 0.0296857
          0.0491739 0.0492247 0.0496877 0.00691041 0.0402344 0.021088 0.0307855 0.0590514 0.0536864 0.0533986 0.0538654 0.055127
          0.0504642 0.0243402 0.0244459 0.0243074 0.0396588 0.0399407 0.0406994 0.0107495 0.0429701 0.0182016 0.0251095 0.0579646
          0.0581406 0.0234917 0.0235176 0.023624 0.0277647 0.0478671 0.0263352 0.0263084 0.0264828 0.00301879 0.0229165 0.0227718
          0.0228044 0.026549 0.0183293 0.04817 0.0478783 0.047235 0.0111707 0.011232 0.0110881 0.0492339 0.0342135 0.0349508
          0.0348867 0.028429 0.0460069 0.0466127 0.0273249 0.0420685 0.0246572 0.0310954 0.0314866 0.0319252 0.0252932 0.0248561
          0.0254032 0.0113091 0.0586253 0.0589776 0.0613205 0.038411 0.0231705 0.0137017 0.0225149 0.0565123 0.050276 0.0494891
          0.0492118 0.0504376 0.0551411 0.0557182 0.055647 0.0073547 0.0555019 0.0257995 0.0258675 0.0258991 0.0345552 0.0346091
          0.0340998 0.0254281 0.025431 0.0255305 0.0389623 0.0111316 0.0248414 0.0247562 0.0100617 0.0101403 0.0102042 0.0283126
          0.0284289 0.028715 0.0108371 0.0109151 0.0107639 0.0128532 0.0229657 0.0172237 0.0170804 0.017154 0.0514614 0.0180481
          0.0129123 0.0128946 0.0505051 0.0507146 0.0503705 0.0223746 0.0425774 0.0524222 0.0235988 0.0136103 0.0350832 0.0258621
          0.0258728 0.0028993 0.0140152 0.0138898 0.0444844 0.0310983 0.0311918 0.0341969 0.0339413 0.0558766 0.0488687 0.04975
          0.0228042 0.0259479 0.025965 0.00976699 0.0270831 0.0270309 0.0273617 0.0486831 0.0285642 0.0259876 0.0118185 0.0434176
          0.0173987 0.0173299 0.000234459 0.000298782 0.000374486 0.0617796 0.0622859 0.0623705 0.0127668 0.00892013 0.00894345 0.00906663
          0.012981 0.0279834 0.028074 0.0283495 0.0311971 0.0463578 0.0154733 0.0218969 0.0219244 0.00149177 0.000247805 0.0422443
          0.0234856 0.047328 0.0477833 0.0470892 0.00756498 0.0076014 0.00748224 0.0289941 0.0118711 0.0237878 0.0241917 0.0240613
          0.0240885 0.0334115 0.0504205 0.0505645 0.0353138 0.0359422 0.0351192 0.051192 0.0182222 0.0514693 0.0510892 0.0514241
          0.0427038 0.043481 0.0428014 0.0278309 0.0276475 0.0382678 0.00172179 0.00159972 0.00161644 0.0389867 0.00149573 0.0272863
          0.0270859 0.0271559 0.0180949 0.024607 0.0257474 0.0257251 0.0259031 0.031678 0.0312296 0.0294698 0.0303261 0.0299155
          0.053229 0.0531926 0.00257143 0.00244689 0.00246487 0.000240186 0.000103617 0.000258867 0.0426893 0.0425305 0.0265421 0.00692321
          0.00692867 0.00278315 0.00265701 0.0026755 0.0110458 0.0108786 0.011001 0.0542735 0.0541042 0.0109225 0.00234109 0.0130508
          0.0130342 0.012925 0.00458246 0.00461428 0.00472345 0.0258506 0.0258811 0.0258276 0.0259143 0.0367409 0.00255417 0.019902
          0.00477026 0.00474769 0.00464295 0.0243211 0.0242871 0.0242002 0.011089 0.0244012 0.00664219 0.00675197 0.00661213 0.0125339
          0.0239124 0.0243942 0.0240605 0.0238748 0.0233861 0.0237716 0.056184 0.0216008 0.0217434 0.0220473 0.0531077 0.0525668
          0.0528656 0.0133826 0.0132715 0.0221223 0.0225193 0.0222265 0.0257383 0.0256969 0.0173211 0.0515074 0.0444566 0.0437063
          0.0287553 0.0437622 0.0536839 0.0538658 0.0246409 0.0246535 0.0243322 0.0258181 0.000251565 0.0263872 0.0266075 0.0264354
          0.0263538 0.0504883 0.050573 0.0504916 0.011353 0.044306 0.0452036 0.0449761 0.000236432 0.0537326 0.0540176 0.0256478
          0.0254751 0.0262815 0.021817 0.0133992 0.0184914 0.0253438 0.0588533 0.00512368 0.0617718 0.02396 0.023858 0.0239873
          0.00922169 0.0534065 0.000873846 0.00147829 0.0015042 0.00161602 0.00243526 0.0278614 0.0503333 0.0497209 0.0496198 0.0419032
          0.00966414 0.0481605 0.0190434 0.0058801 0.0408652 0.0405517 0.0520154 0.0259598 0.0262062 0.0502545 0.050624 0.015208
          0.0152147 0.0517663 0.0515998 0.0515286 0.0245211 0.0245003 0.0314971 0.0282222 0.0287189 0.0602599 0.0567489 0.0481802
          0.0484919 0.0474262 0.0472908 0.0377279 0.0373741 0.037116 0.0227659 0.000921652 0.000800586 0.000816589 0.0245221 0.053656
          0.015937 0.0202282 0.0325118 0.0280606 0.0178781 0.000699395 0.050456 0.0246316 0.0291302 0.0284388 0.0283922 0.0215467
          0.0214788 0.0214005 0.021833 0.0269396 0.0262127 0.0260396 0.0527948 0.0257127 0.0267621 0.0235475 0.0356134 0.0266395
          0.000195715 0.0343308 0.0269156 0.0271761 0.0507286 0.0502735 0.0210818 0.0210658 0.0413044 0.0415513 0.0262191 0.0221172