<?xml version="1.0"?>
<VTKFile type="UnstructuredGrid" version="0.1" byte_order="LittleEndian">
  <UnstructuredGrid>
    <Piece NumberOfCells="4592" NumberOfPoints="2383">
      <PointData Scalars="S_aq">
        <DataArray type="Float32" Name="S_aq" NumberOfComponents="1" format="ascii">
          1 1 1 1 1 1 1 1 1 1 1 1
          1 1 1 1 1 1 1 1 1 1 1 1
          1 1 1 1 1 1 1 1 1 1 1 1
          1 1 1 1 1 1 1 1 1 1 1 1
          1 1 1 1 1 1 1 1 1 1 1 1
          1 1 1 1 1 1 1 1 1 1 1 1
          1 1 1 1 1 1 1 1 1 1 1 1
          1 1 1 1 1 1 1 1 1 1 1 1
          1 1 1 1 1 1 1 1 1 1 1 1
          1 1 1 1 1 1 1 1 1 1 1 1
          1 1 1 1 1 1 1 1 1 1 1 1
          1 1 1 1 1 1 1 1 1 1 1 1
          1 1 1 1 1 1 1 1 1 1 1 1
          1 1 1 1 1 1 1 1 1 1 1 1
          1 1 1 1 1 1 1 1 1 1 1 1
          1 1 1 1 1 1 1 1 1 1 1 1
          1 1 1 1 1 1 1 1 1 1 1 1
          1 1 1 1 1 1 1 1 1 1 1 1
          1 1 1 1 1 1 1 1 1 1 1 1
          1 1 1 1 1 1 1 1 1 1 1 1
          1 1 1 1 1 1 1 1 1 1 1 1
          1 1 1 1 1 1 1 1 1 1 1 1
          1 1 1 1 1 1 1 1 1 1 1 1
          1 1 1 1 1 1 1 1 1 1 1 1
          1 1 1 1 1 1 1 1 1 1 1 1
          1 1 1 1 1 1 1 1 1 1 1 1
          1 1 1 1 1 1 1 1 1 1 1 1
          1 1 1 1 1 1 1 1 1 1 1 1
          1 1 1 1 1 1 1 1 1 1 1 1
          1 1 1 1 1 1 1 1 1 1 1 1
          1 1 1 1 1 1 1 1 1 1 1 1
          1 1 1 1 1 1 1 1 1 1 1 1
          1 1 1 1 1 1 1 1 1 1 1 1
          1 1 1 1 1 1 1 1 1 1 1 1
          1 1 1 1 1 1 1 1 1 1 1 1
          1 1 1 1 1 1 1 1 1 1 1 1
          1 1 1 1 1 1 1 1 1 1 1 1
          1 1 1 1 1 1 1 1 1 1 1 1
          1 1 1 1 1 1 1 1 1 1 1 1
          1 1 1 1 1 1 1 1 1 1 1 1
          1 1 1 1 1 1 1 1 1 1 1 1
          1 1 1 1 1 1 1 1 1 1 1 1
          1 1 1 1 1 1 1 1 1 1 1 1
          1 1 1 1 1 1 1 1 1 1 1 1
          1 1 1 1 1 1 1 1 1 1 1 1
          1 1 1 1 1 1 1 1 1 1 1 1
          1 1 1 1 1 1 1 1 1 1 1 1
          0.999999 0.99969 1 1 1 1 1 1 1 1 1 1
          1 1 1 1 1 1 1 1 1 1 1 1
          1 1 1 1 1 1 1 1 1 1 1 1
          1 1 1 1 1 1 1 1 1 1 1 1
          1 1 1 1 1 1 1 1 1 1 1 1
          1 1 1 1 1 1 1 1 1 1 1 1
          1 1 1 1 1 1 1 1 1 1 1 1
          1 1 1 1 1 1 1 1 1 1 1 0.999998
          0.999997 1 1 1 1 1 1 0.999988 1 0.999981 1 1
          1 0.999974 1 0.99997 1 0.999974 1 1 0.999885 1 1 0.99972
          0.999996 0.999983 0.999385 0.999972 0.999982 0.999927 0.998291 0.999869 0.999935 0.995687 0.999432 0.999657
          0.999754 0.998685 0.992307 0.998666 0.999069 0.988742 0.997738 0.998233 0.996515 0.993806 1 1
          0.999079 0.999942 0.999957 0.999824 0.998766 0.999905 0.999924 0.999689 1 1 0.998487 0.999872
          0.999889 0.999546 0.998329 0.999849 0.999861 0.999431 0.985364 0.996747 0.997279 0.982296 0.995779 0.996301
          0.990919 0.988079 0.979728 0.994934 0.995392 0.978338 0.99445 0.994716 0.985479 0.983517 1 1
          1 1 1 1 0.999972 1 0.999982 1 1 1 0.999994 1
          0.999998 1 1 1 1 1 1 1 1 1 0.999985 1
          1 0.999943 1 1 0.999681 0.999925 0.999963 1 1 0.998423 0.99986 0.999855
          0.999407 0.998795 0.999908 0.999884 0.999528 1 0.999281 0.999964 0.999936 0.999741 0.999717 0.999978
          0.99991 0.979159 0.994725 0.994596 0.982535 0.995859 0.995306 0.983131 0.985131 0.987449 0.99741 0.996672
          0.992078 0.998663 0.99808 0.989119 0.993387 0.99988 0.999996 0.999983 0.999942 1 1 1
          1 0.999875 0.999563 0.999897 0.999974 0.999947 0.998209 0.999153 0.999541 0.999024 0.995474 0.999407
          0.99906 0.997848 0.999818 0.999619 0.996462 0.998511 0.997895 0.999381 0.999742 0.994501 0.996433 0.997983
          0.999352 0.996614 1 1 1 1 1 1 1 1 1 1
          1 1 1 1 1 1 1 1 1 1 1 1
          1 1 1 1 1 1 1 1 1 1 1 1
          1 1 1 1 1 1 1 1 1 1 1 1
          1 1 1 1 1 1 1 1 1 1 1 1
          1 1 1 1 1 1 1 1 1 1 1 1
          1 1 1 1 1 1 1 1 1 1 1 1
          1 1 1 1 1 1 1 1 1 1 1 1
          1 1 1 1 1 1 1 1 1 1 1 1
          1 1 1 1 1 1 1 1 1 1 1 1
          1 1 1 1 1 1 1 1 1 1 1 1
          1 1 1 1 1 1 1 1 1 1 1 1
          1 1 1 1 1 1 1 1 1 1 1 1
          1 1 1 1 1 1 1 1 1 1 1 1
          1 1 1 1 1 1 1 1 1 1 1 1
          1 1 1 1 1 1 1 1 1 1 1 1
          1 1 1 1 1 1 1 1 1 1 1 1
          1 1 1 1 1 1 1 1 1 1 1 1
          1 1 1 1 1 1 1 1 1 1 1 1
          1 1 1 1 1 1 1 1 1 1 1 1
          1 1 1 1 1 1 1 1 1 1 1 1
          1 1 1 1 1 1 1 1 1 1 1 1
          1 1 1 1 1 1 1 1 1 1 1 1
          1 1 0.999992 1 1 1 1 1 0.999786 0.999958 0.999941 0.999981
          1 0.999979 1 1 1 1 1 1 1 1 1 1
          1 1 1 1 1 1 1 0.99976 0.999941 0.99875 0.999472 0.999217
          0.998235 0.999809 0.999963 0.999761 0.999514 0.999997 0.99999 0.99998 1 0.996222 0.997732 0.99658
          0.999357 0.999769 0.998963 0.994369 0.998348 0.999977 1 0.999936 1 1 0.99989 1
          1 1 1 1 1 1 1 1 1 1 1 1
          1 1 1 1 1 1 1 1 1 1 1 1
          1 1 1 1 1 1 1 1 1 1 1 1
          1 1 1 1 1 1 1 1 1 1 1 1
          1 1 1 1 1 1 1 1 1 1 1 1
          1 1 1 1 1 1 1 1 1 1 1 1
          1 1 1 1 1 1 1 1 1 1 1 1
          1 1 1 1 1 1 1 1 1 1 1 1
          1 1 1 1 1 1 1 1 1 1 1 1
          1 1 1 0.999999 1 0.999995 0.999996 0.999137 0.999978 0.999992 0.999099 0.999992
          0.999996 0.999986 0.993226 0.998972 0.999546 0.998539 0.990439 0.99777 0.999141 0.957995 0.983653 0.991939
          0.999978 0.999874 0.999989 0.999997 0.996975 0.998815 0.999688 0.999367 0.99772 0.980478 0.975222 0.985252
          0.994384 0.98877 0.908297 0.933553 0.963129 0.91641 1 1 1 1 1 1
          1 1 1 1 1 1 0.999976 0.999989 0.999997 0.998739 0.998505 0.999639
          0.999887 0.989133 0.985195 0.993775 0.966425 0.953687 0.970365 0.99652 0.98009 0.999974 1 1
          0.999077 0.999526 0.999882 0.99987 0.999968 1 1 0.998915 0.99941 0.999851 0.991888 0.992809
          0.997183 0.997268 0.97346 0.972956 0.983427 0.984158 0.991132 0.992505 0.997007 0.971995 0.973087 0.983295
          1 1 1 1 1 1 1 1 1 1 1 1
          1 1 1 1 1 1 1 1 1 1 1 1
          1 1 1 1 1 1 1 1 1 1 1 1
          1 1 1 1 1 1 1 1 1 1 1 1
          1 1 1 1 1 1 0.999835 0.999962 1 1 0.998775 0.999285
          0.999818 0.999804 0.996873 0.982834 0.990328 0.991727 0.996613 0.996525 0.970056 0.971192 0.981892 0.981454
          0.999958 1 1 0.998692 0.999192 0.999793 0.999786 0.989605 0.991031 0.996302 0.967865 0.969144
          0.980477 0.996287 0.980041 1 1 1 1 1 1 1 1 1
          1 1 1 0.999959 1 1 0.998708 0.999165 0.999788 0.999792 0.999968 1
          1 0.998902 0.999254 0.999813 0.989007 0.990457 0.996129 0.99623 0.964938 0.966661 0.978941 0.978468
          0.988945 0.990194 0.996241 0.960228 0.963026 0.977144 0.999835 0.999984 1 1 0.999118 0.999517
          0.999876 0.99992 0.996565 0.977153 0.992251 0.991119 0.996961 0.997643 0.951461 0.956867 0.976479 0.98775
          0.979087 0.994711 0.997013 0.991159 0.960713 0.987588 0.991477 0.975944 0.904825 0.952692 0.969295 0.85355
          0.918427 0.935337 0.942969 0.978961 0.98355 0.958027 0.928051 0.970675 0.975066 0.941453 0.814551 0.889555
          0.903466 0.787179 0.867801 0.878314 0.934652 0.87795 0.808008 0.855241 0.888584 0.769502 0.7023 0.785861
          0.807383 0.636337 0.831488 0.798501 0.617474 0.734725 0.747423 0.549586 0.562348 0.700103 0.707479 0.500123
          0.916065 0.963376 0.967278 0.927752 0.906364 0.957075 0.960532 0.916655 0.768103 0.851749 0.859658 0.754314
          0.839486 0.845688 0.898794 0.951906 0.954776 0.907605 0.894681 0.949039 0.950593 0.901172 0.744496 0.830185
          0.834886 0.739657 0.825083 0.827391 0.775748 0.75965 0.528481 0.677027 0.681077 0.470851 0.508533 0.661184
          0.663281 0.45308 0.747833 0.740082 0.498647 0.650918 0.651106 0.442902 0.499077 0.647167 0.644145 0.439479
          0.943278 0.919034 0.935654 0.927346 0.888769 0.903204 0.955405 0.935813 0.917702 0.862641 0.875895 0.911893
          0.839664 0.852595 0.923455 0.916035 0.955411 0.953467 0.962515 0.963929 0.944834 0.941611 0.946947 0.949544
          0.954019 0.954866 0.963052 0.94429 0.944895 0.949024 0.940094 0.935659 0.938437 0.942401 0.938325 0.932927
          0.934418 0.939559 0.940488 0.940795 0.942395 0.939332 0.939457 0.939967 0.908195 0.82025 0.832649 0.905931
          0.805581 0.816521 0.911421 0.908415 0.905664 0.79798 0.805844 0.909532 0.801463 0.803788 0.90695 0.908462
          0.937739 0.931635 0.932591 0.938605 0.937755 0.931127 0.931738 0.938376 0.939072 0.939121 0.93926 0.939306
          0.93929 0.939176 0.939193 0.932059 0.9318 0.9389 0.944946 0.937017 0.934368 0.942042 0.941126 0.940889
          0.939834 0.948028 0.947187 0.943299 0.896463 0.950452 0.949685 0.899565 0.905713 0.95708 0.953682 0.905183
          0.742603 0.826975 0.825372 0.755934 0.838165 0.83161 0.921513 0.967497 0.962414 0.918534 0.940008 0.978154
          0.973225 0.936859 0.780225 0.858709 0.847515 0.812171 0.884955 0.871402 0.738454 0.746022 0.513303 0.653089
          0.644435 0.444671 0.546356 0.67171 0.655385 0.461974 0.764678 0.793465 0.601057 0.703805 0.678803 0.493853
          0.674232 0.74541 0.713599 0.540523 0.957662 0.986736 0.982802 0.95532 0.974526 0.993459 0.990369 0.972284
          0.847921 0.912306 0.898235 0.891084 0.942911 0.927041 0.985818 0.996103 0.995377 0.986455 0.986369 0.990816
          0.993825 0.989491 0.936428 0.969656 0.957403 0.970972 0.978578 0.976147 0.827239 0.866832 0.75365 0.790973
          0.754228 0.599831 0.831647 0.846376 0.803158 0.673474 0.91469 0.956062 0.902409 0.908597 0.867774 0.772861
          0.966251 0.965737 0.934307 0.88537 0.919492 0.819551 0.814608 0.933598 0.849114 0.838865 0.915624 0.928894
          0.947121 0.880133 0.868918 0.957301 0.904845 0.895419 0.944171 0.956904 0.957576 0.94857 0.942502 0.951338
          0.974153 0.964423 0.95675 0.967157 0.96249 0.960958 0.953257 0.979935 0.978439 0.969615 0.98789 0.978447
          0.97231 0.983808 0.995058 0.987024 0.983553 0.994896 0.992766 0.992188 0.985943 0.998532 0.998575 0.995997
          0.964336 0.922652 0.914926 0.971418 0.939374 0.930995 0.965425 0.971763 0.980404 0.958457 0.948525 0.99125
          0.980373 0.969448 0.978957 0.988318 0.997287 0.990511 0.989123 0.999215 0.998461 0.992866 0.991698 0.999928
          0.999909 0.999943 0.999519 0.999998 0.999986 0.999019 0.995295 0.994057 0.999984 0.999735 0.998647 0.996942
          0.999995 1 1 1 1 0.962039 0.948085 0.951755 0.952716 0.960888 0.959762 0.942642
          0.94339 0.947124 0.946052 0.941847 0.939717 0.93953 0.940007 0.941252 0.940583 0.938713 0.939054 0.939379
          0.93897 0.949028 0.950244 0.958469 0.940613 0.941598 0.944932 0.957069 0.943585 0.938226 0.938917 0.939851
          0.937621 0.938241 0.938471 0.938976 0.937839 0.939144 0.939113 0.93851 0.938839 0.938908 0.9386 0.938845
          0.939103 0.938921 0.939822 0.943591 0.941012 0.941006 0.939702 0.939461 0.949222 0.948481 0.943826 0.943949
          0.937602 0.938191 0.937963 0.938478 0.93827 0.940425 0.94067 0.939151 0.950327 0.949651 0.944052 0.938623
          0.943953 0.94512 0.947017 0.955369 0.953207 0.937732 0.93923 0.942063 0.940098 0.938566 0.941966 0.950405
          0.933355 0.935716 0.937732 0.936209 0.937328 0.937932 0.936615 0.935449 0.936709 0.937013 0.936007 0.932779
          0.934717 0.934955 0.932761 0.934684 0.946046 0.934694 0.928188 0.933616 0.940273 0.928707 0.927178 0.930528
          0.931009 0.926374 0.932823 0.926923 0.930209 0.930099 0.926232 0.927393 0.930419 0.935912 0.936777 0.936234
          0.937235 0.937028 0.933185 0.932865 0.934794 0.934783 0.938795 0.939627 0.937921 0.936811 0.950985 0.950615
          0.94371 0.943003 0.934968 0.937035 0.935322 0.950308 0.950815 0.941858 0.927404 0.930555 0.926984 0.930278
          0.930359 0.933148 0.939443 0.927604 0.931581 0.930296 0.926276 0.947174 0.949253 0.935901 0.927868 0.954401
          0.971534 0.965656 0.964116 0.955432 0.956655 0.983439 0.982033 0.973196 0.975249 0.987518 0.996618 0.99465
          0.994162 0.988862 0.99036 0.999052 0.999109 0.997176 0.997686 0.969246 0.967583 0.957774 0.98706 0.985686
          0.977069 0.959176 0.979336 0.996356 0.995931 0.991661 0.99946 0.999502 0.99817 0.993028 0.998596 0.999632
          0.999953 0.999977 0.99972 0.999796 0.999999 0.999994 1 1 0.999981 0.999994 0.999856 1
          0.999999 0.999907 1 1 0.973448 0.971615 0.960353 0.962004 0.990783 0.989451 0.981373 0.983914
          0.978805 0.976567 0.963226 0.994428 0.993196 0.986317 0.997825 0.997499 0.99426 0.995464 0.999751 0.999778
          0.998978 0.999298 0.998985 0.998761 0.996629 0.999938 0.999938 0.999556 0.96581 0.989162 0.987849 0.983181
          0.968108 0.984578 0.996727 0.996517 0.991788 0.994694 0.997668 0.999757 0.999562 0.999608 0.998507 0.99908
          0.999989 0.999994 0.99987 0.999956 0.999996 1 0.99994 0.999969 1 1 0.999999 0.999983
          1 1 1 1 1 1 0.999999 1 1 1 0.992328 0.994581
          0.991468 0.987675 0.998768 0.999366 0.997447 0.996744 0.988528 0.990765 0.9828 0.998459 0.999006 0.995871
          0.99995 0.999994 0.999825 0.999766 0.999999 0.999999 0.99994 0.999989 0.999735 0.999999 0.999997 0.979451
          0.995617 0.990667 0.989471 0.977504 0.980537 0.998862 0.999084 0.995867 0.996542 0.999714 0.999964 0.999994
          0.99977 0.999822 1 0.999999 1 1 1 1 1 1 1 1
          1 1 1 1 0.998154 0.995518 0.989194 0.999864 0.999693 0.998323 0.996814 0.999733
          1 1 0.999915 1 1 1 0.999975 0.999873 0.999276 1 1 1
          0.999938 1 1 1 1 1 1 1 1 1 1 1
          1 1 1 1 1 1 1 1 1 1 1 1
          1 1 1 1 1 1 1 1 1 1 1 1
          1 1 1 1 1 1 1 1 1 1 1 1
          1 1 1 1 1 1 1 1 1 1 1 1
          1 1 1 1 1 1 1 1 1 1 1 1
          1 1 1 1 1 1 1 1 1 1 1 1
          1 1 1 1 1 1 1 1 1 1 1 1
          1 1 1 1 1 1 1 1 1 1 1 1
          1 1 1 1 1 1 1 1 1 1 1 1
          1 1 1 1 1 1 1 1 1 1 1 1
          1 1 1 1 1 1 1 1 1 1 1 1
          1 1 1 1 1 1 1
        </DataArray>
        <DataArray type="Float32" Name="p_aq" NumberOfComponents="1" format="ascii">
          151335 152728 153955 150526 151835 152269 149828 151105 149215 150478 149818 150583
          149108 148245 147621 148465 147886 147039 146503 148669 149923 148175 149423 147724
          148968 147308 148549 147362 146883 146009 145553 146444 146037 145131 144738 148897
          146643 147211 146092 145569 145077 145025 144536 145525 144066 143618 144618 144190
          143790 143415 143196 142798 142423 142069 146922 148160 146560 147797 146220 147455
          145897 147131 145658 145302 144371 144025 144967 144648 143697 143385 145589 146822
          145294 146526 145010 146241 144735 145965 144344 144051 143086 142799 143770 143497
          142521 142251 143062 142728 142411 142108 141734 141416 141112 140820 141817 141536
          141264 140998 140538 140265 139999 139740 143396 143838 142962 141761 141374 142540
          142135 140997 140633 142152 140120 140466 139777 139441 139116 141749 141383 140283
          139949 141035 140705 139630 139324 138802 138500 138210 137932 138475 138172 138780
          137876 137588 136827 137094 136562 135176 134947 136303 136050 134722 134504 137308
          137039 136780 136529 135805 135569 134293 134090 135340 135119 133894 133704 140390
          140089 139032 138750 139800 139521 138478 138213 137663 137402 137148 136900 139250
          138986 137955 137702 138729 138476 137453 137208 136655 136414 136174 135937 136286
          136048 135814 135582 134903 134689 133517 133330 134476 134263 133140 132945 135352
          135123 134894 134665 134048 133831 132746 132542 133613 133392 132334 132122 144468
          145697 144207 145436 143952 145181 143703 144931 143231 142972 141988 141732 142719
          142470 141480 141233 143458 144686 143217 144445 142979 144207 142745 143973 142226
          141985 140990 140750 141748 141514 140513 140280 140740 140486 140237 139992 139486
          139236 138990 138747 139750 139511 139276 139043 138507 138270 138036 137803 142514
          143742 142286 143513 142061 143288 141839 143067 141283 141055 140049 139821 140830
          140608 139596 139374 141620 142848 141404 142632 141192 142419 140982 142210 140389
          140173 139155 138939 139960 139751 138726 138516 138812 138585 138360 138137 137573
          137345 137120 136897 137918 137701 137488 137278 136677 136461 136247 136037 138227
          137982 136965 136725 137739 137500 136486 136250 135701 135466 135232 134998 137262
          137027 136015 135781 136793 136561 135549 135318 134766 134534 134303 134072 134435
          134206 133976 133746 133170 132946 131906 131688 132721 132495 131467 131244 133516
          133286 133056 132826 132267 132039 131019 130792 131810 131580 130564 130334 136332
          136104 135088 134860 135878 135655 134634 134410 133843 133614 133387 133162 135434
          135216 134188 133969 135002 134792 133754 133542 132939 132718 132501 132289 132597
          132367 132139 131912 131350 131120 130104 129872 130890 130660 129640 129407 131687
          131464 131245 131030 130432 130206 129175 128945 129984 129767 128718 128497 135408
          133524 133722 133327 133136 132951 131868 131703 132036 131543 131389 132773 132604
          132443 132287 131245 131110 130985 130868 130211 130350 130075 128551 128441 129943
          129820 128336 128239 128664 126889 126978 126802 126720 126647 129706 129606 128155
          128087 129521 129449 128043 128029 126586 126544 126536 126598 132132 131973 131807
          131632 130751 130624 130483 130328 131449 131258 131059 130855 130159 129980 129790
          129593 129379 129288 128027 127977 129174 129037 127886 127764 126721 126708 126630
          126515 128881 128711 127618 127455 128529 128338 127278 127090 126373 126212 126037
          125851 125224 125158 125291 125096 125042 123557 123605 123510 121889 121859 123466
          123427 121830 121804 124998 124968 124959 124969 123394 123372 121782 121764 123361
          123360 121754 121750 121919 120220 120233 120207 120192 120178 118552 118555 118547
          118555 118552 120164 120150 120140 120134 118544 118533 118521 118513 124992 124960
          124886 124782 123317 123255 121662 121572 123172 123071 121475 121372 124658 124518
          124367 124208 122957 122835 121266 121158 122706 122573 121050 120943 120011 119894
          119783 119677 118354 118211 118087 117977 119576 119481 119393 119308 117880 117797
          117725 117673 118492 118525 117697 130646 130432 130215 129995 129389 129180 128966
          128749 129772 129547 129319 129090 128528 128303 128076 127847 128138 127933 126894
          126690 127721 127506 126481 126267 125656 125454 125246 125032 127286 127063 126048
          125826 126836 126607 125600 125370 124815 124593 124367 124137 128858 128625 128390
          128153 127614 127379 127141 126900 127916 127680 127446 127219 126657 126412 126168
          125931 126373 126137 125136 124898 125896 125650 124655 124405 123903 123665 123421
          123169 125399 125142 124147 123877 124882 124627 123591 123296 122907 122627 122311
          121901 124042 123869 123689 123503 122434 122290 120831 120718 122139 121981 120596
          120464 123309 123107 122898 122681 121810 121630 120322 121145 120164 120982 121438
          121234 119990 120806 119800 120616 119231 120078 119270 119152 119983 119192 119065
          119883 119110 118966 119713 119773 119017 117633 118432 118461 117595 118373 118403
          117652 117615 117548 118305 118340 117483 118222 118265 117573 117518 120395 120245
          118850 119584 119651 118910 118715 119437 119513 118785 120079 119897 118560 119273
          119357 118640 118384 119090 119184 118475 117396 118120 118173 117285 117998 118062
          117442 117343 117151 117853 117928 116990 117684 117771 117221 117073 122455 122220
          121973 121713 121017 120786 119592 120411 119366 120191 120539 120276 119123 119954
          118860 121436 121130 120780 120348 119991 119678 118576 118265 119323 118911 119843
          119126 117924 118618 118797 117547 118224 118427 119698 119482 118186 118886 118991
          118288 117966 118664 118778 118079 119247 117725 118421 118545 117848 117463 118293
          117597 116802 117491 117591 116586 117273 117385 116899 116697 116347 117033 117156
          116088 116774 116906 116469 116219 117184 118021 117326 116885 117572 117727 117037
          118099 117740 116563 117240 117409 116727 116217 116878 117063 116393 115814 116497
          116637 115527 116204 116352 115952 115672 115228 115893 116051 114913 115562 115730
          115379 115073 140776 142004 140574 141802 140375 141602 140179 141406 139545 139343
          138310 138108 139143 138948 137909 137713 139986 141214 139796 141024 139609 140837
          139425 140652 138755 138565 137521 137332 138379 138195 137146 136963 137072 136870
          136671 136476 135830 135628 135429 135235 136284 136096 135910 135728 135044 134856
          134672 134491 139243 140470 139063 140291 138886 140113 138709 139936 138014 137834
          136782 136603 137657 137481 136427 136252 138534 139761 138360 139587 138187 139413
          138014 139240 137307 137133 136078 135905 136960 136788 135733 135561 135548 135371
          135195 135021 134312 134136 133962 133789 134848 134677 134506 134335 133618 133448
          133278 133109 134585 134382 133335 133132 134184 133990 132934 132741 132081 131878
          131680 131488 133800 133613 132552 132367 133430 133250 132186 132008 131300 131117
          130938 130762 130821 130618 130421 130230 129556 129352 128284 128079 129156 128966
          127884 127697 130044 129863 129686 129513 128783 128604 127516 127342 128431 128261
          127172 127006 133073 132899 131833 131660 132726 132556 131490 131321 130589 130419
          130251 130085 132386 132218 131154 130987 132050 131882 130822 130656 129920 129756
          129593 129430 129343 129176 129011 128847 128095 127931 126843 126683 127769 127609
          126525 126369 128685 128524 128364 128204 127450 127292 126213 126059 127135 126978
          125905 125751 127002 126797 126604 126420 125709 125504 125314 125135 126244 126074
          125909 125748 124965 124801 124642 124486 124399 124197 123064 122871 124013 123843
          122700 122541 121689 121523 121374 121232 123680 123524 122390 122242 123372 123222
          122098 121956 121094 120958 120823 120689 125590 125434 125280 125127 124333 124183
          124033 123885 124976 124825 124675 124525 123738 123591 123445 123299 123075 122930
          121815 121676 122785 122642 121537 121398 120555 120421 120287 120154 122499 122357
          121260 121122 122214 122072 120984 120846 120020 119887 119753 119620 120268 120157
          120041 119920 118877 119603 118901 118806 119528 118845 117523 118196 118215 117470
          118135 118169 118712 118610 117395 118095 117307 119797 119673 119547 119421 118501
          118388 117210 117107 118272 118154 116999 116888 117539 117499 116197 116857 116871
          116210 116153 116809 116836 116178 116091 116777 116124 116013 114895 115543 115555
          114856 115503 115525 114907 114878 114800 115444 115475 114729 115408 114830 115926
          115831 115730 115625 114649 114560 114465 114366 119294 119166 119038 118910 118033
          117912 116774 116658 117789 117666 116541 116422 118781 118652 118523 118394 117541
          117417 116303 116182 117292 117168 116062 115941 115517 115406 115294 115180 114262
          114156 114048 113938 115064 114948 114832 114715 113827 113715 113602 113489 116885
          116861 116906 115221 115262 116922 116930 115296 115317 115175 113561 113489 113627
          113682 113720 116928 116917 115322 115308 116899 116883 115274 115230 113736 113720
          113657 113501 111906 112003 111803 112085 112146 110259 110117 110393 108622 108801
          110508 110599 108956 109082 112180 112180 112134 112028 110660 110685 109174 109229
          110670 110614 109247 109231 116678 116511 114965 114778 116375 116264 114639 114532
          113176 112996 112873 112779 116171 116095 114443 114374 115238 115271 116044 116888
          116915 116067 116024 116851 116867 116030 114331 115193 115211 114341 115189 115185
          114406 112698 113572 113613 112628 113503 113536 112662 114348 114327 112567 113456
          113476 112596 112511 113451 113449 112540 111865 111729 111622 111534 110525 110435
          109188 109133 110352 110277 109073 109013 111456 112078 112117 111388 112009 112043
          111421 111324 111946 111977 111260 111884 111915 111355 111293 110207 110833 110869
          110142 110766 110798 110174 108954 109581 109613 108895 109519 109550 110080 110702
          110733 110111 110016 110638 110670 110048 108835 109457 109488 108774 109394 109426
          108430 106997 106744 107231 107434 107600 105391 105693 105058 105950 106158 107725
          107811 107859 107875 106317 106431 106505 106544 103815 103372 104200 102295 102778
          104515 104764 103148 103429 101686 100901 100000 101468 101869 102164 104952 105090
          103639 103793 105184 105242 103900 103969 102383 102543 102655 102727 107864 107835
          107795 107750 106556 106548 106524 106490 108924 107700 108327 108354 107648 108271
          108299 107674 108865 108805 107592 108214 108243 107620 107534 108153 108184 107564
          106449 107074 107097 106403 107025 107050 106427 106352 106972 106999 106296 106914
          106944 106378 106325 105270 105275 104007 104020 105263 105238 104015 103995 102768
          102784 102781 102763 105204 105826 105845 105162 105782 105805 105184 103965 104584
          104600 103927 104544 104565 105115 105733 105758 105139 105062 105679 105707 105090
          103882 104498 104522 103832 104446 104473 103947 102735 103349 103364 102698 103312
          103331 102717 103905 103858 102654 103268 103290 102676 102606 103218 103244 102630
          116033 116834 116841 116026 116047 116820 116828 116039 114384 115222 115204 114409
          115251 115244 116042 116795 116810 116044 116009 116747 116774 116025 114409 115253
          115263 114378 115223 115249 114359 114396 112450 113462 113470 112485 112385 113464
          113492 112425 114410 114394 112319 113447 113493 112361 112254 113407 113464 112294
          115946 116674 116714 115977 115856 116575 116629 115900 114321 115165 115205 114241
          115082 115134 115739 116450 116517 115796 115594 116297 116379 115666 114139 114973
          115038 114014 114837 114916 114349 114280 112183 113347 113412 112222 112104 113269
          113341 112143 114188 114074 112016 113175 113254 112058 111920 113063 113150 111965
          111190 111816 111851 111109 111737 111776 111226 111150 111022 111652 111691 110932
          111564 111601 111066 110977 109945 110567 110603 109982 109866 110486 110528 109907
          108705 109325 109361 108627 109246 109287 109780 110400 110444 109824 109691 110310
          110355 109736 108543 109161 109204 108455 109073 109117 110840 111475 111509 110746
          111383 111417 110885 110792 110652 111290 111323 110559 111196 111229 110699 110605
          109600 110218 110264 109645 109507 110126 110172 109554 108365 108982 109028 108274
          108891 108937 109415 110032 110078 109461 109322 109940 109985 109368 108182 108798
          108844 108091 108707 108752 115420 116115 116211 115507 115216 115903 116014 115318
          113866 114675 114767 113694 114484 114590 114984 115665 115787 115099 114728 115406
          115537 114854 113499 114266 114384 113285 114026 114154 113938 113778 111815 112933
          113029 111865 111705 112786 112892 111761 113596 113392 111596 112625 112739 111656
          111496 112454 112573 111555 114458 115134 115271 114592 114182 114853 114994 114320
          113057 113772 113906 112824 113509 113645 113908 114567 114711 114045 113632 114269
          114420 113771 112595 113252 113380 112374 112999 113125 113172 112940 111406 112275
          112393 111459 111321 112096 112206 111370 112707 112483 111240 111924 112019 111285
          111156 111757 111844 111202 110470 111103 111136 110386 111015 111048 110513 110427
          110307 110932 110966 110232 110853 110888 110346 110269 109235 109851 109894 109278
          109153 109768 109808 109193 108005 108620 108662 107925 108539 108578 109077 109691
          109729 109115 109004 109617 109654 109040 107851 108464 108501 107778 108391 108427
          110157 110775 110811 110083 110698 110735 110194 110120 110011 110623 110660 109942
          110552 110586 110046 109976 108931 109543 109580 108967 108858 109471 109507 108894
          107705 108318 108354 107633 108282 108787 109399 109434 108823 108719 109331 109365
          108753 107562 108210 107492 108140 108740 108667 107467 108085 108121 107501 107390
          108008 108048 107429 108586 108499 107308 107925 107967 107349 107221 107838 107882
          107265 106231 106848 106883 106156 106773 106812 106265 106194 106074 106691 106732
          105989 106605 106648 106115 106032 108411 108320 107133 107749 107794 107177 107042
          107658 107704 108228 108136 106951 107566 107612 106997 106860 107476 107521 106905
          105901 106561 105812 106427 106472 105720 106335 106381 105630 106245 106290 105766
          105675 104998 105614 105648 105032 104924 105539 105578 104962 103769 104383 104417
          103695 104309 104347 104843 105458 105499 104884 104759 105374 105416 104801 103615
          104229 104269 103531 104187 103802 103733 102543 103155 103189 102576 102468 103081
          103119 102506 103655 102388 103001 103041 102428 102305 102960 104672 105330 104583
          105197 105242 103444 103355 103969 104014 104491 105106 105151 104537 104401 105016
          105060 104446 103264 103877 103923 103172 103787 103831 102219 102875 102130 102742
          102787 103310 103218 102038 102651 102697 102084 101945 102558 102604 101992 108047
          107964 106775 107390 107432 106817 106698 107312 107350 106736 107888 107814 106624