<?xml version="1.0"?>
<VTKFile type="UnstructuredGrid" version="0.1" byte_order="LittleEndian">
  <UnstructuredGrid>
    <Piece NumberOfCells="163" NumberOfPoints="194">
      <CellData Scalars="wetting pressure">
        <DataArray type="Float32" Name="wetting pressure" NumberOfComponents="1" format="ascii">
          265464 270510 271932 270853 267776 262885 256137 247281 235787 220569 261917 264326
          264625 263043 259783 254935 248437 240111 229705 217058 260171 260253 259200 256911
          253380 248635 242565 235022 225865 215392 259063 257315 255012 252022 250446 248379
          246011 248062 246087 243557 241400 243807 240727 237624 235836 238750 231549 223341
          214414 258205 254931 251512 249801 247940 245976 247866 245948 243963 242260 244072
          241837 239556 238083 240256 237087 234468 233243 235738 231791 228000 227047 230590
          221539 213713 257410 252691 248181 245991 244019 241978 244023 242121 240405 238369
          240057 238568 236541 234759 236645 234339 231990 230557 232714 229459 225863 224139
          227909 219569 212993 256534 250242 244546 241958 239803 237415 239632 237850 236150
          233741 235503 234488 232719 230445 232101 230794 228736 225856 228570 225535 222197
          219847 222786 216876 212058 255393 247198 240154 234412 232770 231042 227431 229315
          229409 227432 223227 225485 224997 222374 218672 220975 217104 213409 210800 253612
          243003 234462 227713 222433 217980 213942 210698 208856 208912 250041 236739 226980
          219547 213757 209101 205374 202890 202407 205284
        </DataArray>
        <DataArray type="Float32" Name="nonwetting pressure" NumberOfComponents="1" format="ascii">
          265464 270510 271932 270853 267776 262885 256137 247281 235787 220569 261917 264326
          264625 263043 259783 254935 248437 240111 229705 217058 260171 260253 259200 256911
          253380 248635 242565 235022 225865 215392 259063 257315 255012 252022 250446 248379
          246011 248062 246087 243557 241400 243807 240727 237624 235836 238750 231549 223341
          214414 258205 254931 251512 249801 247940 245976 247866 246364 244541 243012 244645
          242197 239783 238454 240781 237236 234569 233433 236004 231812 228000 227047 230696
          221539 213713 257410 252691 248181 245991 244019 241978 244023 242458 240910 238712
          240253 239011 236894 235056 236988 234612 232192 230722 232953 229565 225863 224139
          227910 219569 212993 256534 250242 244546 241958 239803 237415 239632 237964 236382
          233890 235564 234745 232954 230606 232285 230986 228827 225856 228665 225535 222197
          219847 222786 216876 212058 255393 247198 240154 234412 232770 231110 227431 229315
          229497 227432 223227 225485 224997 222374 218672 220975 217104 213409 210800 253612
          243003 234462 227713 222433 217980 213942 210698 208856 208912 250041 236739 226980
          219547 213757 209101 205374 202890 202407 205284
        </DataArray>
        <DataArray type="Float32" Name="wetting saturation" NumberOfComponents="1" format="ascii">
          1 1 1 1 1 1 1 1 1 1 1 1
          1 1 1 1 1 1 1 1 1 1 1 1
          1 1 1 1 1 1 1 1 1 1 1 1
          1 1 1 1 1 1 1 1 1 1 1 1
          1 1 1 1 1 1 1 1 0.958422 0.9422 0.924762 0.942701
          0.964086 0.977332 0.962907 0.94745 0.985042 0.989956 0.980975 0.973362 0.997837 1 1 0.989452
          1 1 1 1 1 1 1 1 1 0.966283 0.949428 0.965762
          0.980372 0.955704 0.964687 0.970379 0.965718 0.972701 0.979759 0.983504 0.976075 0.9894 1 1
          0.999925 1 1 1 1 1 1 1 1 1 0.988552 0.976835
          0.985105 0.993912 0.974235 0.976437 0.983879 0.981661 0.980796 0.99089 1 0.990458 1 1
          1 1 1 1 1 1 1 1 1 0.993205 1 1
          0.99127 1 1 1 1 1 1 1 1 1 1 1
          1 1 1 1 1 1 1 1 1 1 1 1
          1 1 1 1 1 1 1
        </DataArray>
        <DataArray type="Float32" Name="C^w from cellData" NumberOfComponents="1" format="ascii">
          199.956 199.956 199.957 199.956 199.956 199.956 199.955 199.954 199.953 199.952 199.956 199.956
          199.956 199.956 199.955 199.955 199.954 199.954 199.953 199.951 199.955 199.955 199.955 199.955
          199.955 199.954 199.954 199.953 199.952 199.951 199.955 199.955 199.955 199.954 199.954 199.954
          199.784 199.84 199.952 199.952 199.942 199.965 199.95 199.949 199.945 199.99 199.952 199.952
          199.951 199.955 199.955 199.955 199.954 199.765 199.766 199.954 191.816 188.622 185.168 188.708
          192.796 195.326 192.523 189.58 196.789 197.425 195.923 194.506 199.038 199.922 199.369 197.186
          199.952 199.951 199.955 199.955 199.954 199.954 199.9 199.897 199.954 193.163 189.958 193.076
          195.878 191.139 192.832 193.911 193.035 194.349 195.627 195.93 194.971 197.083 199.616 199.951
          198.959 199.952 199.951 199.955 199.954 199.954 199.953 199.908 199.932 199.954 197.441 195.184
          196.689 198.239 194.653 195.044 195.971 195.976 195.746 197.65 199.838 197.534 199.908 199.948
          199.949 199.949 199.951 199.951 199.955 199.954 199.954 199.953 199.518 198.096 199.749 199.953
          197.554 198.994 199.943 199.745 199.897 199.945 199.945 199.945 199.951 199.951 199.951 199.955
          199.954 199.953 199.952 199.952 199.951 199.951 199.951 199.951 199.951 199.955 199.953 199.952
          199.952 199.951 199.951 199.95 199.95 199.95 199.95
        </DataArray>
        <DataArray type="Float32" Name="C^n from cellData" NumberOfComponents="1" format="ascii">
          0 0 0 8.0755e-11 3.26568e-10 2.08694e-10 9.2781e-11 5.96278e-12 1.89283e-13 5.11276e-15 0 0
          0 1.91905e-08 8.28887e-08 4.24851e-08 2.48322e-08 2.25165e-09 5.21796e-11 9.27334e-13 0 0 0 1.76639e-06
          8.00956e-06 3.34405e-06 2.33889e-06 5.03701e-07 7.74947e-09 9.24435e-11 0 0 0 7.7538e-05 0.000288125 0.000446393
          0.00493676 0.00346444 0.000154785 0.000117499 0.00161836 0.00199401 9.71422e-05 8.64785e-05 0.000886304 0.00108449 8.2609e-05 7.48873e-07
          6.08156e-09 0 0 0 3.98734e-08 0.00291126 0.00409764 4.30311e-07 0.0389961 0.0481962 0.0580314 0.0479207
          0.0350273 0.0270791 0.0351474 0.0444089 0.0224182 0.0193831 0.0243138 0.0288807 0.0148099 0.000740557 0.0073377 0.0193242
          2.23562e-05 1.45002e-07 0 0 0 3.85859e-06 4.1179e-06 3.79349e-06 3.51945e-06 0.0337813 0.0432904 0.0335559
          0.025383 0.0393499 0.0339015 0.0304364 0.033332 0.0290755 0.0248495 0.0225816 0.0269873 0.0192485 0.00406673 0.000140801
          0.013393 4.18565e-06 1.17871e-08 0 0 0 0 0 0 0 0.0204908 0.0269671
          0.0220525 0.0172502 0.0282331 0.0267869 0.0223607 0.0238031 0.0241383 0.0184012 0.00141751 0.0186201 0.000545507 7.84171e-05
          7.83496e-05 7.8957e-05 1.06655e-07 9.58183e-11 0 0 0 0 0.00508998 0.017311 0.00221718 0
          0.0182319 0.0132754 0.00010967 0.00229622 0.000633042 9.43311e-05 9.4292e-05 9.43098e-05 6.26784e-08 2.47517e-11 1.42983e-14 0
          0 0 0 0 0 0 0 0 0 0 0 0
          0 0 0 0 0 0 0
        </DataArray>
        <DataArray type="Float32" Name="capillary pressure" NumberOfComponents="1" format="ascii">
          0 0 0 0 0 0 0 0 0 0 0 0
          0 0 0 0 0 0 0 0 0 0 0 0
          0 0 0 0 0 0 0 0 0 0 0 0
          0 0 0 0 0 0 0 0 0 0 0 0
          0 0 0 0 0 0 0 0 415.783 577.996 752.374 572.994
          359.136 226.681 370.928 525.5 149.577 100.44 190.253 266.378 21.6294 0 0 105.478
          0 0 0 0 0 0 0 0 0 337.169 505.718 342.375
          196.277 442.958 353.125 296.212 342.823 272.989 202.404 164.956 239.245 106 0 0
          0.747336 0 0 0 0 0 0 0 0 0 114.477 231.647
          148.946 60.8843 257.647 235.631 161.206 183.386 192.038 91.0996 0 95.4149 0 0
          0 0 0 0 0 0 0 0 0 67.952 0 0
          87.301 0 0 0 0 0 0 0 0 0 0 0
          0 0 0 0 0 0 0 0 0 0 0 0
          0 0 0 0 0 0 0
        </DataArray>
        <DataArray type="Float32" Name="wetting density" NumberOfComponents="1" format="ascii">
          999.78 999.783 999.783 999.783 999.781 999.779 999.776 999.771 999.766 999.759 999.779 999.78
          999.78 999.779 999.777 999.775 999.772 999.768 999.763 999.757 999.778 999.778 999.777 999.776
          999.774 999.772 999.769 999.766 999.761 999.756 999.777 999.776 999.775 999.774 999.774 999.773
          999.78 999.778 999.771 999.77 999.772 999.774 999.769 999.767 999.768 999.769 999.764 999.76
          999.756 999.777 999.775 999.773 999.773 999.777 999.779 999.772 999.798 999.797 999.796 999.797
          999.796 999.794 999.794 999.795 999.793 999.791 999.791 999.792 999.79 999.764 999.776 999.789
          999.759 999.755 999.776 999.774 999.772 999.771 999.77 999.769 999.77 999.796 999.795 999.794
          999.795 999.794 999.793 999.792 999.793 999.791 999.79 999.789 999.79 999.789 999.769 999.761
          999.788 999.758 999.755 999.776 999.773 999.77 999.769 999.768 999.767 999.768 999.793 999.792
          999.791 999.792 999.792 999.79 999.789 999.79 999.789 999.788 999.764 999.788 999.762 999.76
          999.759 999.76 999.757 999.755 999.775 999.771 999.768 999.765 999.774 999.789 999.766 999.763
          999.789 999.787 999.76 999.765 999.762 999.76 999.758 999.759 999.757 999.755 999.754 999.775
          999.769 999.765 999.762 999.76 999.758 999.756 999.754 999.753 999.753 999.773 999.766 999.762
          999.758 999.755 999.753 999.751 999.75 999.75 999.751
        </DataArray>
        <DataArray type="Float32" Name="nonwetting density" NumberOfComponents="1" format="ascii">
          3.25983 3.3219 3.33939 3.32611 3.28827 3.2281 3.14509 3.03615 2.89477 2.70756 3.21619 3.24583
          3.24951 3.23004 3.18995 3.1303 3.05037 2.94795 2.81995 2.66437 3.19471 3.19572 3.18277 3.15461
          3.11118 3.05281 2.97814 2.88536 2.77271 2.64387 3.18108 3.15958 3.13125 3.09447 3.07508 3.04966
          3.02053 3.04576 3.02146 2.99034 2.96381 2.99342 2.95552 2.91736 2.89536 2.93121 2.84263 2.74166
          2.63184 3.17053 3.13025 3.0882 3.06715 3.04426 3.0201 3.04335 3.02486 3.00243 2.98362 3.00371
          2.9736 2.94391 2.92756 2.95618 2.91259 2.87977 2.8658 2.89742 2.84587 2.79897 2.78725 2.83213
          2.71949 2.62323 3.16075 3.1027 3.04722 3.02028 2.99603 2.97092 2.99607 2.97681 2.95777 2.93073
          2.94969 2.93441 2.90837 2.88576 2.90952 2.8803 2.85053 2.83245 2.85989 2.81822 2.77268 2.75147
          2.79786 2.69526 2.61436 3.14997 3.07257 3.00251 2.97067 2.94416 2.91479 2.94205 2.92154 2.90208
          2.87142 2.89201 2.88194 2.85991 2.83103 2.85167 2.83569 2.80915 2.77259 2.80715 2.76865 2.72759
          2.69868 2.73483 2.66213 2.60287 3.13594 3.03513 2.94848 2.87784 2.85765 2.83723 2.79197 2.81515
          2.81738 2.79199 2.74026 2.76803 2.76203 2.72976 2.68423 2.71256 2.66494 2.61948 2.58739 3.11403
          2.98352 2.87847 2.79544 2.73049 2.67571 2.62604 2.58613 2.56348 2.56417 3.07011 2.90647 2.78642
          2.69499 2.62377 2.56649 2.52065 2.49009 2.48415 2.51953
        </DataArray>
        <DataArray type="Float32" Name="mobility w_phase" NumberOfComponents="1" format="ascii">
          765.842 765.844 765.845 765.845 765.843 765.84 765.837 765.832 765.826 765.818 765.84 765.841
          765.841 765.841 765.839 765.836 765.833 765.828 765.823 765.816 765.839 765.839 765.839 765.837
          765.835 765.833 765.83 765.826 765.821 765.815 765.838 765.838 765.836 765.835 765.834 765.833
          765.832 765.833 765.832 765.83 765.829 765.83 765.829 765.827 765.826 765.828 765.824 765.82
          765.815 765.838 765.836 765.834 765.833 765.833 765.831 765.833 733.99 721.566 708.21 721.949
          738.326 748.468 737.421 725.584 754.372 758.133 751.255 745.426 764.167 765.822 765.821 757.746
          765.819 765.814 765.838 765.835 765.833 765.831 765.83 765.829 765.83 740.008 727.099 739.607
          750.797 731.904 738.783 743.141 739.572 744.919 750.323 753.191 747.502 757.705 765.821 765.82
          765.765 765.818 765.814 765.837 765.834 765.831 765.829 765.828 765.827 765.828 757.06 748.086
          754.418 761.163 746.094 747.779 753.478 751.78 751.117 758.845 765.821 758.515 765.821 765.819
          765.818 765.819 765.816 765.814 765.836 765.832 765.828 765.825 765.825 760.62 765.822 765.823
          759.137 765.822 765.819 765.821 765.82 765.819 765.817 765.818 765.816 765.814 765.813 765.836
          765.83 765.825 765.822 765.819 765.817 765.815 765.813 765.812 765.812 765.834 765.827 765.821
          765.818 765.814 765.812 765.81 765.809 765.808 765.81
        </DataArray>
        <DataArray type="Float32" Name="mobility nw_phase" NumberOfComponents="1" format="ascii">
          0 0 0 0 0 0 0 0 0 0 0 0
          0 0 0 0 0 0 0 0 0 0 0 0
          0 0 0 0 0 0 0 0 0 0 0 0
          0 0 0 0 0 0 0 0 0 0 0 0
          0 0 0 0 0 0 0 0 2379.44 3307.83 4305.87 3279.2
          2055.35 1297.34 2122.93 3007.52 856.077 574.872 1088.94 1524.6 123.829 0 0 603.736
          0 0 0 0 0 0 0 0 0 1929.63 2894.3 1959.51
          1123.32 2535.17 2021.08 1695.38 1962.11 1562.47 1158.5 944.179 1369.36 606.742 0 0
          4.28226 0 0 0 0 0 0 0 0 0 655.184 1325.81
          852.507 348.466 1474.66 1348.67 922.711 1049.65 1099.19 521.472 0 546.171 0 0
          0 0 0 0 0 0 0 0 0 388.948 0 0
          499.713 0 0 0 0 0 0 0 0 0 0 0
          0 0 0 0 0 0 0 0 0 0 0 0
          0 0 0 0 0 0 0
        </DataArray>
        <DataArray type="Float32" Name="mass fraction H2O in liquid-phase" NumberOfComponents="1" format="ascii">
          1 1 1 1 1 1 1 1 1 1 1 1
          1 1 1 1 1 1 1 1 1 1 1 1
          1 1 1 1 1 1 1 1 1 1 0.999999 0.999998
          0.999975 0.999983 0.999999 0.999999 0.999992 0.99999 1 1 0.999996 0.999995 1 1
          1 1 1 1 1 0.999985 0.999979 1 0.999928 0.999928 0.999929 0.999928
          0.999929 0.999929 0.99993 0.999929 0.99993 0.999931 0.999931 0.999931 0.999932 0.999996 0.999963 0.999932
          1 1 1 1 1 1 1 1 1 0.999929 0.999929 0.99993
          0.999929 0.99993 0.99993 0.999931 0.99993 0.999931 0.999932 0.999932 0.999931 0.999932 0.99998 0.999999
          0.999933 1 1 1 1 1 1 1 1 1 0.99993 0.99993
          0.999931 0.999931 0.999931 0.999931 0.999932 0.999932 0.999932 0.999933 0.999993 0.999933 0.999997 1
          1 1 1 1 1 1 1 1 0.999974 0.999932 0.999989 1
          0.999932 0.999933 0.999999 0.999988 0.999997 1 1 1 1 1 1 1
          1 1 1 1 1 1 1 1 1 1 1 1
          1 1 1 1 1 1 1
        </DataArray>
        <DataArray type="Float32" Name="mass fraction H2O in gas-phase" NumberOfComponents="1" format="ascii">
          0.00288294 0.00282907 0.00281426 0.00282549 0.00285801 0.00291128 0.00298813 0.00309535 0.00324653 0.00347102 0.00292206 0.00289538
          0.0028921 0.00290953 0.0029461 0.00300224 0.00308092 0.00318796 0.00333267 0.00352729 0.00294171 0.00294078 0.00295274 0.0029791
          0.0030207 0.00307845 0.00315564 0.00325712 0.00338945 0.00355463 0.00295431 0.00297442 0.00300133 0.00303701 0.00305616 0.00308163
          0.00311135 0.00308558 0.0031104 0.00314276 0.0031709 0.00313953 0.00317979 0.00322139 0.00324587 0.00320617 0.00330608 0.00342784
          0.00357088 0.00296414 0.00300229 0.00304317 0.00306406 0.0030871 0.0031118 0.00308802 0.00311215 0.00313752 0.00315963 0.00313612
          0.00316516 0.00319536 0.00321517 0.00318603 0.0032287 0.00326483 0.00328203 0.00324722 0.00330263 0.00335765 0.00337178 0.00331985
          0.00345579 0.0035826 0.00297331 0.00302895 0.0030841 0.00311161 0.0031368 0.00316331 0.00313676 0.00316144 0.00318406 0.0032113
          0.00318868 0.00320861 0.00323617 0.00326078 0.00323475 0.00326664 0.00329979 0.00332033 0.0032895 0.00333625 0.00338949 0.00341562
          0.00335899 0.00348685 0.00359476 0.00298349 0.00305865 0.00313003 0.00316358 0.00319206 0.00322423 0.00319435 0.00321833 0.00324153
          0.00327502 0.00325047 0.00326456 0.00328943 0.00332195 0.0032982 0.00331693 0.00334682 0.0033896 0.00334926 0.00339443 0.00344552
          0.00348243 0.0034364 0.00353025 0.00361063 0.00299684 0.00309639 0.00318738 0.00326563 0.0032887 0.00331335 0.00336607 0.00333836
          0.00333698 0.00336605 0.0034296 0.00339518 0.00340256 0.00344278 0.00350118 0.00346462 0.00352653 0.00358773 0.00363223 0.00301793
          0.00314995 0.00326492 0.00336189 0.00344186 0.00351233 0.00357877 0.003634 0.00366611 0.00366512 0.00306111 0.00323346 0.00337277
          0.0034872 0.00358187 0.00366181 0.00372841 0.00377417 0.0037832 0.00373006
        </DataArray>
        <DataArray type="Float32" Name="volume Error" NumberOfComponents="1" format="ascii">
          -2.22574e-08 -6.78246e-08 -1.15414e-07 -1.44627e-07 -1.54857e-07 -1.43187e-07 -1.08727e-07 -5.29564e-08 2.84992e-08 3.57238e-08 -3.33969e-08 -8.56935e-08
          -1.31842e-07 -1.64991e-07 -1.78981e-07 -1.68066e-07 -1.31398e-07 -7.65257e-08 -8.62365e-09 1.06524e-08 -3.46638e-08 -9.62522e-08 -1.50943e-07 -1.96868e-07
          -2.18391e-07 -2.09319e-07 -1.62994e-07 -1.02367e-07 -3.62084e-08 -2.26736e-09 -3.55905e-08 -1.04256e-07 -1.73185e-07 -2.45201e-07 -5.05347e-07 -4.99166e-07
          -0.000167634 -0.000112033 -2.30386e-06 -2.25172e-06 -1.11043e-05 1.21974e-05 -3.96972e-06 -3.96655e-06 -7.77565e-06 3.7014e-05 -9.33078e-07 -5.62827e-08
          -1.1706e-08 -3.51176e-08 -1.07396e-07 -1.89092e-07 -4.91911e-07 -0.000187933 -0.000185898 -4.78191e-08 0.000192398 0.000248365 0.000288388 0.000233181
          3.33551e-05 -8.86301e-05 -4.95005e-06 0.000150444 -0.000167154 -0.000516115 -0.000221897 -0.000115166 -0.00047481 -3.03892e-05 -0.000578947 -0.00065676
          -7.11366e-08 -1.82751e-08 -3.15191e-08 -1.0019e-07 -1.8269e-07 -6.51588e-07 -5.36976e-05 -5.69552e-05 -2.03497e-07 -4.18831e-05 0.000130828 -2.40918e-05
          -0.000144894 5.33394e-05 -5.4362e-05 -0.000114525 -5.71638e-05 -0.000141401 -0.000276189 -0.000727809 -0.000194308 -0.000750181 -0.000333742 -9.85913e-07
          -0.000970942 -7.52691e-08 -2.24299e-08 -2.41181e-08 -8.10923e-08 -1.49648e-07 -4.49321e-07 -4.51943e-05 -2.11528e-05 2.60957e-08 -0.000217746 -0.000132118
          -0.000281478 -0.000491685 -0.000143305 -0.000193268 -0.000762657 -0.000307721 -0.000365979 -0.000477276 -0.000113465 -0.000507044 -4.38178e-05 -3.55171e-06
          -3.08212e-06 -3.08221e-06 -7.37415e-08 -2.50792e-08 -1.38775e-08 -5.58022e-08 -1.12315e-07 -1.56437e-07 -0.000431836 -0.000493199 -0.000201569 6.57919e-08
          -0.000650132 -0.000950116 -8.58054e-06 -0.000206162 -5.50529e-05 -7.22131e-06 -6.7523e-06 -6.7524e-06 -1.09499e-07 -7.27801e-08 -2.74162e-08 -1.00429e-09
          -2.59504e-08 -8.07169e-08 -1.19441e-07 -1.3783e-07 -1.37471e-07 -1.22686e-07 -9.98507e-08 -6.91754e-08 -2.94751e-08 2.28128e-08 1.0398e-08 -5.59359e-08
          -9.68194e-08 -1.17656e-07 -1.20821e-07 -1.09975e-07 -8.89769e-08 -5.66951e-08 -2.13136e-08
        </DataArray>
        <DataArray type="Float32" Name="Error Correction" NumberOfComponents="1" format="ascii">
          0 0 0 0 0 0 0 0 0 0 0 0
          0 0 0 0 0 0 0 0 0 0 0 0
          0 0 0 0 0 0 0 0 0 0 0 0
          0 0 0 0 0 0 0 0 0 0 0 0
          0 0 0 0 0 0 0 0 0 0 0 0
          0 0 0 0 0 0 0 0 0 0 0 0
          0 0 0 0 0 0 0 0 0 0 0 0
          0 0 0 0 0 0 0 0 0 0 0 0
          0 0 0 0 0 0 0 0 0 0 0 0
          0 0 0 0 0 0 0 0 0 0 0 0
          0 0 0 0 0 0 0 0 0 0 0 0
          0 0 0 0 0 0 0 0 0 0 0 0
          0 0 0 0 0 0 0 0 0 0 0 0
          0 0 0 0 0 0 0
        </DataArray>
        <DataArray type="Float32" Name="dv_dp" NumberOfComponents="1" format="ascii">
          -9.55458e-11 -9.55402e-11 -9.55347e-11 -9.5518e-11 -9.55347e-11 -9.55402e-11 -9.55458e-11 -9.55486e-11 -9.55375e-11 -9.55458e-11 -9.55402e-11 -9.55458e-11
          -9.55319e-11 -9.5543e-11 -9.55319e-11 -9.55347e-11 -9.55375e-11 -9.55458e-11 -9.5543e-11 -9.55513e-11 -9.55375e-11 -9.55402e-11 -9.55458e-11 -9.55486e-11
          -9.55513e-11 -9.55458e-11 -9.55347e-11 -9.55624e-11 -9.5543e-11 -9.55597e-11 -9.55347e-11 -9.55319e-11 -9.55402e-11 -9.55347e-11 -9.55402e-11 -9.55402e-11
          -9.54653e-11 -9.54903e-11 -9.5543e-11 -9.55569e-11 -9.5543e-11 -9.55541e-11 -9.55375e-11 -9.55347e-11 -9.55402e-11 -9.55624e-11 -9.55541e-11 -9.55513e-11
          -9.55569e-11 -9.55319e-11 -9.55458e-11 -9.5543e-11 -9.55402e-11 -9.54542e-11 -9.54598e-11 -9.55458e-11 -5.2943e-08 -6.63433e-08 -8.07482e-08 -6.59223e-08
          -4.91703e-08 -3.88021e-08 -5.07933e-08 -6.29237e-08 -3.28451e-08 -2.90578e-08 -3.67094e-08 -4.26323e-08 -2.23556e-08 -9.55402e-11 -9.52932e-11 -2.993e-08
          -9.5543e-11 -9.55597e-11 -9.55402e-11 -9.55486e-11 -9.55402e-11 -9.55513e-11 -9.5518e-11 -9.55319e-11 -9.5543e-11 -4.73396e-08 -6.12957e-08 -4.84165e-08
          -3.62518e-08 -5.65575e-08 -4.96046e-08 -4.52391e-08 -4.8745e-08 -4.33943e-08 -3.78819e-08 -3.49411e-08 -4.08549e-08 -2.9991e-08 -9.54181e-11 -9.55347e-11
          -9.51489e-11 -9.55513e-11 -9.55569e-11 -9.55402e-11 -9.5543e-11 -9.55375e-11 -9.55375e-11 -9.55375e-11 -9.55264e-11 -9.5543e-11 -2.98582e-08 -3.97061e-08
          -3.31704e-08 -2.56676e-08 -4.20985e-08 -4.05578e-08 -3.46755e-08 -3.62656e-08 -3.71689e-08 -2.86118e-08 -9.55153e-11 -2.90333e-08 -9.55569e-11 -9.55569e-11
          -9.55569e-11 -9.55569e-11 -9.55624e-11 -9.5543e-11 -9.55513e-11 -9.55569e-11 -9.55402e-11 -9.55513e-11 -9.53571e-11 -2.66175e-08 -9.54736e-11 -9.55624e-11
          -2.8351e-08 -9.51489e-11 -9.55402e-11 -9.54764e-11 -9.55486e-11 -9.55486e-11 -9.55486e-11 -9.55486e-11 -9.55486e-11 -9.5543e-11 -9.55458e-11 -9.5543e-11
          -9.55486e-11 -9.55486e-11 -9.55458e-11 -9.55486e-11 -9.55569e-11 -9.55458e-11 -9.55513e-11 -9.55624e-11 -9.55541e-11 -9.55486e-11 -9.5543e-11 -9.55513e-11
          -9.55513e-11 -9.55513e-11 -9.55513e-11 -9.55569e-11 -9.55597e-11 -9.55569e-11 -9.55569e-11
        </DataArray>
        <DataArray type="Float32" Name="dV_dC1" NumberOfComponents="1" format="ascii">
          0.00100022 0.00100022 0.00100022 0.00100022 0.00100022 0.00100022 0.00100022 0.00100023 0.00100023 0.00100024 0.00100022 0.00100022
          0.00100022 0.00100022 0.00100022 0.00100022 0.00100023 0.00100023 0.00100024 0.00100024 0.00100022 0.00100022 0.00100022 0.00100022
          0.00100023 0.00100023 0.00100023 0.00100023 0.00100024 0.00100024 0.00100022 0.00100022 0.00100022 0.00100023 0.00100023 0.00100023
          0.00100023 0.00100023 0.00100023 0.00100023 0.00100023 0.00100023 0.00100023 0.00100023 0.00100023 0.00100023 0.00100024 0.00100024
          0.00100024 0.00100022 0.00100022 0.00100023 0.00100023 0.00100023 0.00100023 0.00100023 0.000976249 0.000976266 0.000976284 0.000976266
          0.000976246 0.000976233 0.000976248 0.000976263 0.000976226 0.000976222 0.000976232 0.000976239 0.000976215 0.00100024 0.00100024 0.000976224
          0.00100024 0.00100024 0.00100022 0.00100023 0.00100023 0.00100023 0.00100023 0.00100023 0.00100023 0.000976243 0.000976261 0.000976245
          0.00097623 0.000976255 0.000976247 0.000976242 0.000976246 0.00097624 0.000976234 0.00097623 0.000976237 0.000976225 0.00100024 0.00100024
          0.00100024 0.00100024 0.00100024 0.00100022 0.00100023 0.00100023 0.00100023 0.00100023 0.00100023 0.00100023 0.000976223 0.000976235
          0.000976228 0.000976218 0.000976238 0.000976237 0.00097623 0.000976232 0.000976233 0.000976223 0.00100024 0.000976223 0.00100024 0.00100024
          0.00100024 0.00100024 0.00100024 0.00100025 0.00100022 0.00100023 0.00100023 0.00100023 0.00100024 0.00097622 0.00100024 0.00100024
          0.000976222 0.00100024 0.00100024 0.00100024 0.00100024 0.00100024 0.00100024 0.00100024 0.00100024 0.00100024 0.00100025 0.00100023
          0.00100023 0.00100023 0.00100024 0.00100024 0.00100024 0.00100024 0.00100025 0.00100025 0.00100025 0.00100023 0.00100023 0.00100024
          0.00100024 0.00100024 0.00100025 0.00100025 0.00100025 0.00100025 0.00100025
        </DataArray>
        <DataArray type="Float32" Name="dV_dC2" NumberOfComponents="1" format="ascii">
          0.000622208 0.000622207 0.000622206 0.000622207 0.000622208 0.000622207 0.00062221 0.000622213 0.000622215 0.000622222 0.000622208 0.000622208
          0.000622208 0.000622207 0.00062221 0.000622211 0.000622213 0.000622216 0.000622218 0.00062222 0.000622209 0.00062221 0.000622211 0.00062221
          0.000622211 0.000622213 0.000622216 0.000622217 0.000622219 0.000622223 0.000622211 0.000622212 0.00062221 0.000622212 0.000622212 0.000622213
          0.000622214 0.000622213 0.000622214 0.000622214 0.000622215 0.000622214 0.000622215 0.000622216 0.000622217 0.000622216 0.000622218 0.000622221
          0.000622223 0.000622212 0.000622211 0.000622211 0.000622212 0.000622213 0.000622214 0.000622213 0.331752 0.334224 0.336327 0.334082
          0.337499 0.340975 0.342889 0.33949 0.344765 0.348908 0.350591 0.346578 0.353546 0.000622219 0.000622219 0.355021
          0.000622221 0.000622223 0.000622211 0.000622212 0.000622214 0.000622215 0.000622214 0.000622215 0.000622216 0.337125 0.3393 0.342488
          0.340273 0.34205 0.345202 0.347997 0.345047 0.348702 0.352549 0.355017 0.351303 0.356821 0.00062222 0.00062222
          0.0827098 0.000622222 0.000622224 0.00062221 0.000622213 0.000622217 0.000622216 0.000622217 0.000622216 0.000622215 0.343626 0.345946
          0.349734 0.347239 0.348452 0.351278 0.355144 0.352297 0.354407 0.357756 0.00062222 0.358005 0.000622221 0.000622221
          0.000622221 0.000622221 0.000622222 0.000622223 0.000622211 0.000622214 0.000622216 0.000622217 0.000622218 0.353994 0.000622219 0.000622219
          0.356662 0.0362502 0.000622221 0.00062222 0.000622221 0.000622221 0.000622221 0.000622221 0.000622222 0.000622224 0.000622226 0.000622213
          0.000622216 0.000622216 0.000622219 0.000622221 0.000622223 0.000622224 0.000622223 0.000622225 0.000622225 0.000622212 0.000622216 0.00062222
          0.000622222 0.000622222 0.000622225 0.000622226 0.000622225 0.000622224 0.000622225
        </DataArray>
        <DataArray type="Float32" Name="updEstimate comp 1" NumberOfComponents="1" format="ascii">
          2.64622e-07 7.61884e-07 1.1651e-06 1.56107e-06 1.88609e-06 2.1105e-06 2.20348e-06 2.13183e-06 1.93146e-06 8.93599e-07 2.03044e-07 7.05797e-07
          1.18429e-06 1.61461e-06 1.96223e-06 2.21905e-06 2.35522e-06 2.27755e-06 1.87223e-06 7.76497e-07 2.51042e-07 7.99764e-07 1.34051e-06 1.79693e-06
          2.12346e-06 2.49865e-06 2.79556e-06 2.83459e-06 2.20303e-06 8.69367e-07 3.24301e-07 9.82809e-07 1.61178e-06 1.72382e-06 5.53885e-07 -1.9557e-07
          0.000223085 0.000552563 1.37865e-06 1.84221e-06 4.16961e-05 6.86763e-05 2.51526e-06 2.9846e-06 -0.000421336 5.47404e-05 -0.000383344 2.97555e-06
          1.12653e-06 4.18894e-07 1.23718e-06 1.9797e-06 2.3505e-06 -0.000273249 -0.00034628 2.64984e-06 0.0218441 0.00994688 -0.0203511 0.0133614
          0.0058882 0.00368427 -0.0239291 -0.0249517 0.00326897 -0.0039966 -0.0235786 -0.022404 -0.0427471 -0.00196748 -0.0430398 -0.0677508
          2.65629e-06 1.54492e-06 5.37078e-07 1.56525e-06 2.48777e-06 2.92657e-06 -0.000655355 -0.00068323 3.40031e-06 0.0115371 -0.0192469 -0.0154283
          0.00975802 -0.0330027 -0.0341738 -0.0345819 -0.0306229 -0.0334877 -0.0343515 -0.0606047 -0.0364336 -0.134541 -0.0441086 0.227022
          -0.0863127 5.54576e-06 2.10476e-06 6.78176e-07 1.96563e-06 3.15242e-06 3.83715e-06 -0.000704859 -0.000951405 4.33974e-06 0.0105562 -0.0127099
          -0.0140383 -0.0103238 -0.0273747 -0.0337625 -0.057244 -0.0246836 -0.0187224 -0.264295 -0.0563199 -0.2837 0.120524 -0.762631
          -0.0278628 0.70647 0.0353297 2.51107e-06 8.31826e-07 2.39805e-06 3.89899e-06 5.5934e-06 -0.0206207 -0.0780827 -0.0279698 7.67906e-06
          -0.151157 -0.108261 -0.124116 -0.0312112 0.212163 -0.540155 -0.114446 0.434138 2.58518e-05 7.3843e-06 2.38094e-06 9.86843e-07
          2.81017e-06 4.49607e-06 6.54981e-06 9.27534e-06 1.20091e-05 -0.0151383 1.02383e-05 6.32418e-06 2.0738e-06 1.19687e-06 3.16935e-06 4.79322e-06
          6.74599e-06 8.90754e-06 1.0599e-05 1.07738e-05 8.90128e-06 5.72374e-06 1.9303e-06
        </DataArray>
        <DataArray type="Float32" Name="updEstimate comp 2" NumberOfComponents="1" format="ascii">
          0 0 0 3.49308e-12 1.3667e-11 7.26247e-12 4.8017e-12 5.70852e-13 2.18786e-14 7.44491e-16 0 0
          0 5.9319e-10 2.48404e-09 1.0899e-09 8.48443e-10 2.17846e-10 5.7954e-12 1.16172e-13 0 0 0 3.45904e-08
          1.5367e-07 6.18408e-08 4.53614e-08 4.63789e-08 8.4372e-10 1.11477e-11 0 0 0 7.14372e-07 2.88382e-06 4.20356e-06
          8.54793e-06 8.75521e-06 2.07408e-06 1.58466e-06 1.45977e-05 1.57423e-05 1.09317e-06 9.23031e-07 1.70895e-05 1.6136e-05 5.18161e-06 7.28016e-08
          6.65089e-10 0 0 0 4.08612e-10 -7.36987e-07 -7.52266e-06 3.63235e-09 -2.75425e-05 -2.5391e-05 1.2422e-05 -2.89026e-05
          -9.10257e-06 -1.95237e-06 6.66806e-05 6.0363e-05 -1.45336e-06 1.02818e-05 6.82018e-05 6.19567e-05 0.000372835 0.000124889 0.000619896 9.80208e-05
          2.66478e-06 1.39331e-08 0 0 0 -3.40988e-09 -5.51851e-10 -4.10989e-09 -6.64301e-09 -2.06456e-05 4.77699e-05 4.45415e-05
          -1.69469e-05 9.03513e-05 0.000100305 0.000105503 9.02531e-05 9.79147e-05 0.000104674 0.000137045 0.000107127 0.00011252 0.000629874 1.65814e-05
          0.00116793 1.20688e-06 1.73701e-09 0 0 0 0 0 0 0 -1.54975e-05 3.53604e-05
          4.86199e-05 -2.73029e-06 8.22606e-05 0.000101514 0.000127936 9.45293e-05 0.000190545 7.06363e-05 0.000934972 5.09121e-06 0.00057379 -2.99094e-07
          -9.11001e-08 1.25772e-06 5.38729e-08 2.83702e-11 0 0 0 0 0.000274349 6.43731e-05 0.000402792 0
          9.7757e-05 0.00121205 1.38474e-06 0.000558259 0.000693149 -2.54838e-07 -9.65316e-08 1.61644e-07 5.7534e-08 7.15009e-12 3.95768e-15 0
          0 0 0 0 0 0 0 0 0 0 0 0
          0 0 0 0 0 0 0
        </DataArray>
      </CellData>
      <Points>
        <DataArray type="Float32" Name="Coordinates" NumberOfComponents="3" format="ascii">
          0 0 0 1 0 0 0 1 0 1 1 0
          2 0 0 2 1 0 3 0 0 3 1 0
          4 0 0 4 1 0 5 0 0 5 1 0
          6 0 0 6 1 0 7 0 0 7 1 0
          8 0 0 8 1 0 9 0 0 9 1 0
          10 0 0 10 1 0 0 2 0 1 2 0