<?xml version="1.0"?>
<VTKFile type="UnstructuredGrid" version="0.1" byte_order="LittleEndian">
  <UnstructuredGrid>
    <Piece NumberOfCells="3200" NumberOfPoints="1681">
      <CellData Scalars="rank" Vectors="velocity">
        <DataArray type="Float32" Name="velocity" NumberOfComponents="3" format="ascii">
          9.52908e-06 -8.95105e-06 0 8.9786e-06 -9.55664e-06 0 4.54032e-05 -2.61112e-05 0 2.60836e-05 -4.53756e-05 0
          3.61309e-05 -1.56917e-05 0 0.000111847 -3.95303e-05 0 7.64945e-05 -2.10769e-05 0 0.000110641 -9.20429e-05 0
          0.000250424 -0.000130137 0 1.57193e-05 -3.61584e-05 0 3.95027e-05 -0.000111819 0 9.20704e-05 -0.000110668 0
          2.11044e-05 -7.65221e-05 0 0.000130164 -0.000250452 0 0.000240145 -0.000172197 0 0.000172169 -0.000240117 0
          0.000395159 -0.000345925 0 0.000345952 -0.000395187 0 0.000128103 -2.52529e-05 0 0.000203162 -5.01992e-05 0
          0.000188577 -2.83322e-05 0 0.000314482 -5.83834e-05 0 0.000435666 -0.000160456 0 0.000657137 -0.000183628 0
          0.000255674 -3.04106e-05 0 0.000441213 -6.42982e-05 0 0.000579037 -6.81325e-05 0 0.000906144 -0.000200201 0
          0.000447775 -0.000221907 0 0.00069254 -0.000430926 0 0.000703461 -0.000260722 0 0.00104927 -0.000496595 0
          0.000650402 -0.000512851 0 0.00102644 -0.000605316 0 0.000996363 -0.000289447 0 0.00145118 -0.00054429 0
          0.0013163 -0.000308829 0 0.00145796 -0.000674312 0 0.00192988 -0.000721483 0 2.52804e-05 -0.000128131 0
          5.01716e-05 -0.000203134 0 0.000160484 -0.000435693 0 5.83559e-05 -0.000314454 0 2.83598e-05 -0.000188604 0
          0.000183656 -0.000657165 0 0.00022188 -0.000447747 0 0.000430954 -0.000692567 0 0.000512823 -0.000650375 0
          0.000260694 -0.000703434 0 0.000496623 -0.00104929 0 0.000605288 -0.00102641 0 6.42707e-05 -0.000441185 0
          3.04381e-05 -0.000255702 0 0.000200229 -0.000906172 0 6.8105e-05 -0.00057901 0 0.000289419 -0.000996335 0
          0.000544317 -0.00145121 0 0.000674284 -0.00145794 0 0.000308801 -0.00131627 0 0.000721456 -0.00192986 0
          0.000902003 -0.000813802 0 0.000813829 -0.00090203 0 0.00128749 -0.00106714 0 0.00136959 -0.000940615 0
          0.00106712 -0.00128746 0 0.000940643 -0.00136961 0 0.00162254 -0.00149051 0 0.00149054 -0.00162257 0
          0.00183157 -0.00119083 0 0.00189691 -0.00103328 0 0.00242695 -0.0012759 0 0.00224932 -0.00163935 0
          0.00212259 -0.00181247 0 0.00281453 -0.00194356 0 0.0011908 -0.00183154 0 0.0010333 -0.00189694 0
          0.00181245 -0.00212256 0 0.00163938 -0.00224935 0 0.00127587 -0.00242692 0 0.00194353 -0.00281451 0
          0.00251428 -0.00233631 0 0.00233634 -0.00251431 0 0.00309959 -0.00269761 0 0.00269758 -0.00309957 0
          0.000327294 -3.1574e-05 0 0.000723918 -7.00603e-05 0 0.000401476 -3.19027e-05 0 0.00117453 -0.000210681 0
          0.00145468 -0.000215548 0 0.000476405 -3.14729e-05 0 0.000872102 -7.02457e-05 0 0.000550408 -3.03578e-05 0
          0.00102012 -6.88463e-05 0 0.00173952 -0.000215268 0 0.00202252 -0.000210292 0 0.00165374 -0.000319578 0
          0.00188502 -0.000575301 0 0.00233838 -0.000590883 0 0.00242808 -0.000748426 0 0.00199985 -0.00032238 0
          0.00279977 -0.000592259 0 0.00234642 -0.000317908 0 0.0032586 -0.000580637 0 0.00293944 -0.000756699 0
          0.00345182 -0.000747843 0 0.000621956 -2.86286e-05 0 0.00116479 -6.60151e-05 0 0.00130322 -6.19017e-05 0
          0.00229773 -0.000201066 0 0.000689666 -2.6355e-05 0 0.00143279 -5.66531e-05 0 0.000752301 -2.36052e-05 0
          0.00255971 -0.00018803 0 0.00280361 -0.000171617 0 0.00268595 -0.000306822 0 0.00370514 -0.000557212 0
          0.00301159 -0.000289775 0 0.00395408 -0.000723378 0 0.00443609 -0.000684817 0 0.00331718 -0.000267414 0
          0.00413057 -0.000523168 0 0.00452699 -0.000479685 0 0.0048887 -0.000633661 0 0.0024665 -0.00109416 0
          0.00305578 -0.00132514 0 0.00306203 -0.00112561 0 0.00292662 -0.00173769 0 0.00354558 -0.00201998 0
          0.00363499 -0.0017892 0 0.00366837 -0.00112992 0 0.00370145 -0.00134125 0 0.00434863 -0.00132695 0
          0.00427154 -0.00110935 0 0.00435641 -0.00179748 0 0.0042964 -0.00204586 0 0.00507423 -0.00176613 0
          0.00504912 -0.00202528 0 0.00327292 -0.00247802 0 0.00390617 -0.00280499 0 0.00406656 -0.00255285 0
          0.00351288 -0.00328898 0 0.00436595 -0.00338957 0 0.00487496 -0.00256595 0 0.00473473 -0.00284212 0
          0.00567947 -0.00252241 0 0.00556552 -0.00281466 0 0.00523503 -0.00340814 0 0.00610005 -0.00335142 0
          0.00498322 -0.0012849 0 0.00485878 -0.00106617 0 0.0055924 -0.00121777 0 0.00577322 -0.00169871 0
          0.00578735 -0.00196231 0 0.00649615 -0.00186098 0 0.00541846 -0.00100261 0 0.0061646 -0.0011282 0
          0.00594016 -0.000920925 0 0.00643957 -0.0015988 0 0.00716206 -0.00172533 0 0.00706083 -0.00146992 0
          0.00646301 -0.00242732 0 0.00638043 -0.00272824 0 0.00716298 -0.00258845 0 0.00694262 -0.00322615 0
          0.00721005 -0.00228573 0 0.00789828 -0.00240089 0 0.00790668 -0.0021027 0 0.00774605 -0.00303904 0
          0.00849536 -0.00279679 0 3.16016e-05 -0.000327321 0 7.00327e-05 -0.000723891 0 0.000210709 -0.00117456 0
          3.19303e-05 -0.000401504 0 0.000215576 -0.0014547 0 0.000575329 -0.00188504 0 0.00031955 -0.00165372 0
          0.000748398 -0.00242806 0 0.00059091 -0.00233841 0 3.15005e-05 -0.000476433 0 7.02181e-05 -0.000872074 0
          0.000215295 -0.00173954 0 6.88187e-05 -0.00102009 0 3.03854e-05 -0.000550435 0 0.00021032 -0.00202255 0
          0.000322353 -0.00199982 0 0.000592286 -0.0027998 0 0.000756672 -0.00293941 0 0.00031788 -0.00234639 0
          0.000580664 -0.00325863 0 0.000747815 -0.00345179 0 0.00109419 -0.00246653 0 0.00132511 -0.00305575 0
          0.00173772 -0.00292664 0 0.00201995 -0.00354555 0 0.00112564 -0.00306206 0 0.00178922 -0.00363502 0
          0.00247804 -0.00327295 0 0.00280496 -0.00390615 0 0.00328901 -0.0035129 0 0.00255288 -0.00406658 0
          0.0033896 -0.00436598 0 0.00134123 -0.00370142 0 0.00112994 -0.00366839 0 0.0017975 -0.00435643 0
          0.00204583 -0.00429637 0 0.00132692 -0.0043486 0 0.00110938 -0.00427157 0 0.00202526 -0.00504909 0
          0.00176615 -0.00507426 0 0.00256598 -0.00487499 0 0.0028421 -0.0047347 0 0.00340816 -0.00523506 0
          0.00281464 -0.00556549 0 0.00252244 -0.0056795 0 0.00335144 -0.00610008 0 6.59876e-05 -0.00116476 0
          2.86562e-05 -0.000621984 0 0.000201094 -0.00229776 0 6.18742e-05 -0.00130319 0 0.000306794 -0.00268592 0
          0.000557239 -0.00370516 0 0.000723351 -0.00395406 0 0.000289747 -0.00301157 0 0.000684789 -0.00443607 0
          2.63826e-05 -0.000689694 0 5.66255e-05 -0.00143277 0 0.000188057 -0.00255974 0 2.36327e-05 -0.000752328 0
          0.000171645 -0.00280364 0 0.000523196 -0.0041306 0 0.000267387 -0.00331715 0 0.000633634 -0.00488868 0
          0.000479713 -0.00452702 0 0.00128487 -0.00498319 0 0.00106619 -0.00485881 0 0.00196228 -0.00578732 0
          0.00169874 -0.00577325 0 0.00121774 -0.00559237 0 0.00186095 -0.00649612 0 0.00272821 -0.00638041 0
          0.00242735 -0.00646303 0 0.00322617 -0.00694265 0 0.00258842 -0.00716295 0 0.00100264 -0.00541849 0
          0.00112817 -0.00616457 0 0.00159882 -0.00643959 0 0.0017253 -0.00716204 0 0.000920952 -0.00594019 0
          0.00146994 -0.00706086 0 0.00228576 -0.00721008 0 0.00240086 -0.00789825 0 0.00303907 -0.00774608 0
          0.00210273 -0.00790671 0 0.00279682 -0.00849539 0 0.00414618 -0.00365394 0 0.00365391 -0.00414615 0
          0.00454235 -0.00427413 0 0.00427415 -0.00454238 0 0.00502684 -0.00370342 0 0.00544759 -0.00429861 0
          0.00591 -0.00366868 0 0.0063487 -0.00422809 0 0.00518308 -0.00460492 0 0.00609469 -0.0045627 0
          0.00370339 -0.00502681 0 0.00429863 -0.00544762 0 0.00460489 -0.00518305 0 0.00366865 -0.00590997 0
          0.00422811 -0.00634873 0 0.00456267 -0.00609466 0 0.00552355 -0.00521373 0 0.00521376 -0.00552358 0
          0.0061317 -0.00547384 0 0.00643813 -0.00512915 0 0.00547382 -0.00613168 0 0.00512918 -0.00643816 0
          0.00638101 -0.00603308 0 0.00603311 -0.00638104 0 0.00677639 -0.00355704 0 0.00722653 -0.00407104 0
          0.00760846 -0.00337579 0 0.00698909 -0.00442479 0 0.00784817 -0.00420025 0 0.00839041 -0.0031322 0
          0.00806367 -0.00383593 0 0.00884452 -0.00353118 0 0.00865557 -0.00389813 0 0.00703241 -0.00530928 0
          0.00732917 -0.00493956 0 0.00789763 -0.00504073 0 0.00726495 -0.00581095 0 0.00692017 -0.00619003 0
          0.00777236 -0.00587776 0 0.008179 -0.00465521 0 0.0087109 -0.00467905 0 0.00897176 -0.00428633 0
          0.00810809 -0.0054773 0 0.00857347 -0.00545686 0 0.0088947 -0.00504417 0 0.00355701 -0.00677636 0
          0.00407107 -0.00722656 0 0.00442476 -0.00698907 0 0.00337576 -0.00760844 0 0.00420022 -0.00784814 0
          0.00530925 -0.00703238 0 0.00493959 -0.00732919 0 0.00619 -0.00692014 0 0.00581097 -0.00726497 0
          0.00504071 -0.0078976 0 0.00587773 -0.00777234 0 0.00383595 -0.0080637 0 0.00313217 -0.00839038 0
          0.0038981 -0.00865554 0 0.00353121 -0.00884454 0 0.00465524 -0.00817903 0 0.00467902 -0.00871087 0
          0.00547733 -0.00810812 0 0.00545684 -0.00857344 0 0.00428636 -0.00897179 0 0.0050442 -0.00889473 0
          0.00704826 -0.00666616 0 0.00666618 -0.00704829 0 0.00748787 -0.00669351 0 0.00669348 -0.00748784 0
          0.007867 -0.00628422 0 0.00826038 -0.00621499 0 0.00863093 -0.00578813 0 0.00747175 -0.0070596 0
          0.008198 -0.00650309 0 0.00628425 -0.00786703 0 0.00621497 -0.00826035 0 0.00705963 -0.00747178 0
          0.00578816 -0.00863095 0 0.00650312 -0.00819803 0 0.0077887 -0.00693839 0 0.00693836 -0.00778867 0
          0.00761349 -0.00717545 0 0.00717547 -0.00761352 0 0.000808767 -2.04464e-05 0 0.0015512 -5.04141e-05 0
          0.000858116 -1.69452e-05 0 0.00165642 -4.33281e-05 0 0.0030251 -0.00015226 0 0.00322044 -0.000130388 0
          0.000899549 -1.31671e-05 0 0.0017467 -3.55371e-05 0 0.0018206 -2.7182e-05 0 0.00338641 -0.000106426 0
          0.00359721 -0.000240383 0 0.00488736 -0.000427935 0 0.00384688 -0.000209319 0 0.00520557 -0.000369086 0
          0.00530377 -0.000571407 0 0.00567414 -0.000499546 0 0.00406204 -0.000174861 0 0.0054764 -0.000304304 0
          0.00423924 -0.000137642 0 0.00599368 -0.000419564 0 0.00625724 -0.000332946 0 0.000932409 -9.17706e-06 0
          0.00187695 -1.84029e-05 0 0.000956187 -5.03961e-06 0 0.00352037 -8.08005e-05 0 0.00362024 -5.39343e-05 0
          0.000970518 -8.18591e-07 0 0.00191489 -9.33869e-06 0 0.000975187 3.42261e-06 0 0.00193384 -1.27986e-07 0
          0.00368447 -2.62497e-05 0 0.0037121 1.83216e-06 0 0.00437568 -9.82942e-05 0 0.00569551 -0.000234752 0
          0.0058595 -0.00016159 0 0.00646067 -0.000241173 0 0.00446926 -5.74493e-05 0 0.00596584 -8.59765e-05 0
          0.00451856 -1.57366e-05 0 0.00601292 -9.06914e-06 0 0.00660085 -0.000145724 0 0.00667562 -4.80766e-05 0
          0.00641464 -0.000823327 0 0.00668952 -0.00101884 0 0.00715811 -0.00089232 0 0.00683383 -0.000712044 0
          0.00762601 -0.00131561 0 0.00777309 -0.00155938 0 0.00812548 -0.00113941 0 0.00831869 -0.00136715 0
          0.00756261 -0.000751278 0 0.00719084 -0.000589292 0 0.0078965 -0.000598339 0 0.00855105 -0.000944831 0
          0.00878983 -0.00115265 0 0.00917891 -0.000919878 0 0.00854053 -0.00188326 0 0.00857309 -0.00217113 0
          0.00910082 -0.00163246 0 0.00917577 -0.00190476 0 0.00917725 -0.0025061 0 0.00978011 -0.00217364 0
          0.00957836 -0.00135531 0 0.00969633 -0.00160734 0 0.0101264 -0.00128444 0 0.0102941 -0.00180609 0
          0.00747998 -0.000457287 0 0.00815452 -0.000436126 0 0.00769674 -0.00031824 0 0.00889593 -0.000735405 0
          0.00947982 -0.000672837 0 0.00915473 -0.000514643 0 0.00783779 -0.00017436 0 0.00833271 -0.00026726 0
          0.00842834 -9.43597e-05 0 0.00790098 -2.78564e-05 0 0.00932348 -0.000286062 0 0.00968792 -0.000415527 0
          0.00939963 -5.31726e-05 0 0.00980004 -0.000151943 0 0.00996551 -0.00105685 0 0.0104592 -0.000941596 0
          0.0102563 -0.000742088 0 0.0107109 -0.00141012 0 0.0110241 -0.000992388 0 0.0104461 -0.000416043 0
          0.0106895 -0.000584377 0 0.0105322 -8.37302e-05 0 0.010814 -0.000218332 0 0.0112288 -0.000559567 0
          0.0113221 -0.000118312 0 0.000970122 7.62108e-06 0 0.00193352 9.0915e-06 0 0.00191392 1.81826e-05 0
          0.0037027 2.98912e-05 0 0.000955397 1.17143e-05 0 0.00187534 2.70089e-05 0 0.000931234 1.56404e-05 0
          0.0036564 5.75082e-05 0 0.00357391 8.42647e-05 0 0.00452282 2.62154e-05 0 0.00600002 6.79766e-05 0
          0.00448198 6.77793e-05 0 0.00668387 5.02937e-05 0 0.00662545 0.000147913 0 0.00439665 0.000108329 0
          0.00592733 0.000144006 0 0.00579595 0.000217867 0 0.00650125 0.000243307 0 0.000898 1.93376e-05 0
          0.00181836 3.54343e-05 0 0.00085621 2.27449e-05 0 0.00174386 4.33235e-05 0 0.00345647 0.000109743 0
          0.0033059 0.000133528 0 0.000806523 2.58016e-05 0 0.001653 5.05418e-05 0 0.00154724 5.69551e-05 0
          0.00312457 0.000155202 0 0.00426812 0.000147239 0 0.00560786 0.000288407 0 0.00409836 0.000183884 0
          0.00536597 0.000354476 0 0.00631315 0.000335005 0 0.00606402 0.000421537 0 0.00389003 0.000217642 0
          0.00507408 0.000414924 0 0.00364644 0.000247891 0 0.00575776 0.000501435 0 0.00539926 0.00057323 0
          0.00843998 7.99569e-05 0 0.00788536 0.000119067 0 0.00836743 0.000253075 0 0.009382 0.000180515 0
          0.00981449 0.000113922 0 0.00973104 0.000378077 0 0.00779116 0.000264205 0 0.00821179 0.000422381 0
          0.0076198 0.000405356 0 0.00927088 0.000411494 0 0.00955094 0.000636532 0 0.00906792 0.000636257 0
          0.0105132 0.00024984 0 0.0108307 0.000150991 0 0.0107394 0.000518046 0 0.0113023 0.000324719 0
          0.0103895 0.000579657 0 0.0105414 0.000877288 0 0.0101628 0.000900714 0 0.01117 0.00076287 0
          0.0109269 0.00118949 0 0.00737387 0.000540318 0 0.00797542 0.000585263 0 0.00766193 0.00073911 0
          0.00705717 0.000666894 0 0.00877622 0.000851299 0 0.00927693 0.000885302 0 0.00840026 0.00105312 0
          0.0089132 0.0011204 0 0.00727621 0.000881315 0 0.00667466 0.000782884 0 0.00682444 0.00100927 0
          0.00794595 0.00123822 0 0.00846543 0.00133784 0 0.00794076 0.00153365 0 0.00983665 0.00120801 0
          0.0102397 0.00122318 0 0.00941604 0.00149653 0 0.00983898 0.00155017 0 0.0105769 0.00159793 0
          0.0101253 0.00198153 0 0.00890759 0.00176129 0 0.00934546 0.00185273 0 0.00876703 0.00212533 0
          0.00957926 0.00233366 0 0.00910812 -0.00283354 0 0.00955519 -0.00316524 0 0.00974923 -0.00248708 0
          0.0101836 -0.00274653 0 0.00939675 -0.00352745 0 0.0100589 -0.00309722 0 0.0103031 -0.00210005 0
          0.0107195 -0.00228346 0 0.0107608 -0.00167971 0 0.0106311 -0.00261647 0 0.011104 -0.00209421 0
          0.00969338 -0.00384314 0 0.00945754 -0.00423505 0 0.0101247 -0.00371955 0 0.0103316 -0.00333586 0
          0.00961081 -0.00452358 0 0.00930904 -0.00493994 0 0.0102442 -0.00392752 0 0.00996638 -0.00433961 0
          0.0107013 -0.00314335 0 0.0108759 -0.00277469 0 0.011178 -0.00251727 0 0.0107845 -0.003268 0
          0.0105346 -0.00366844 0 0.0110045 -0.00293904 0 0.0111151 -0.00123329 0 0.0111542 -0.00178445 0
          0.011481 -0.00125789 0 0.0114703 -0.00153942 0 0.0113607 -0.000768037 0 0.0116949 -0.000712199 0
          0.0114936 -0.00029118 0 0.0117926 -0.000155772 0 0.0117243 -0.000961116 0 0.0118622 -0.000368288 0
          0.0113175 -0.00216983 0 0.0115473 -0.00185208 0 0.0116497 -0.00153147 0 0.0112231 -0.00255701 0
          0.0113687 -0.002164 0 0.0115531 -0.00180654 0 0.0118674 -0.000869812 0 0.0118036 -0.0011586 0
          0.011943 -0.000447613 0 0.0119671 -0.000195039 0 0.0117695 -0.00102858 0 0.0116216 -0.00135587 0
          0.011869 -0.000235114 0 0.0117594 -0.000527259 0 0.00932647 -0.00519164 0 0.00896978 -0.0056271 0
          0.00994178 -0.00450854 0 0.00960383 -0.00494417 0 0.00885933 -0.00583378 0 0.00944448 -0.00506711 0
          0.0104668 -0.00375257 0 0.010152 -0.00418054 0 0.0106055 -0.00335053 0 0.00994382 -0.00421854 0
          0.00845829 -0.00628287 0 0.00822837 -0.00643774 0 0.00905686 -0.00552123 0 0.00877251 -0.00559259 0
          0.00779307 -0.00689499 0 0.00834526 -0.00605997 0 0.00957445 -0.00466945 0 0.00923697 -0.00465703 0
          0.0100027 -0.00374352 0 0.00882286 -0.00512602 0 0.00921816 -0.00411066 0 0.010893 -0.00293749 0
          0.0109571 -0.00246847 0 0.0112139 -0.00207705 0 0.0103494 -0.00330351 0 0.0106549 -0.00233747 0
          0.0114245 -0.00118499 0 0.0112014 -0.00154868 0 0.0115216 -0.000275072 0 0.0113348 -0.000605485 0
          0.0108555 -0.00133584 0 0.0109484 -0.000314068 0 0.010335 -0.00275944 0 0.00961434 -0.00364809 0
          0.00989872 -0.00258282 0 0.00952497 -0.00303143 0 0.010566 -0.00173317 0 0.0100858 -0.00147822 0
          0.0106924 -0.000680704 0 0.0101726 -0.000351328 0 0.00973855 -0.00190587 0 0.00985564 -0.000751482 0
          0.011512 0.00019005 0 0.0117726 0.000402993 0 0.0114156 0.000668424 0 0.0118818 0.00023007 0
          0.0117829 0.00082497 0 0.0112058 0.00113671 0 0.0116354 0.0009557 0 0.0113828 0.00149396 0
          0.0115669 0.00140742 0 0.0119633 0.000270101 0 0.0119474 0.000482662 0 0.0118643 0.000983753 0
          0.01185 0.000561885 0 0.01178 0.000309276 0 0.011683 0.00114116 0 0.0118087 0.00115311 0
          0.0116474 0.00168256 0 0.0115529 0.00180611 0 0.011713 0.00135044 0 0.01147 0.00195582 0
          0.0114598 0.00211856 0 0.0108858 0.0015877 0 0.0110188 0.00200938 0 0.0104604 0.00201415 0
          0.0105489 0.00249357 0 0.0112371 0.00196844 0 0.0107987 0.00249905 0 0.0099364 0.00240886 0
          0.00998066 0.00293815 0 0.00932207 0.0027646 0 0.0102583 0.00299027 0 0.00962472 0.00343311 0
          0.011184 0.00243151 0 0.0113159 0.00235575 0 0.0108749 0.00299253 0 0.0107077 0.00301911 0
          0.0110945 0.0028543 0 0.0111441 0.0027407 0 0.0106225 0.00354567 0 0.0107104 0.00348323 0
          0.0103314 0.00358214 0 0.0101315 0.00355875 0 0.00969383 0.00411381 0 0.0100514 0.00418071 0
          0.0101756 0.00417084 0 0.00954826 0.00479099 0 0.0115038 0.00063898 0 0.0113552 0.000346809 0
          0.0112623 0.00129389 0 0.010932 0.000712421 0 0.0113713 0.00154342 0 0.0110575 0.00222144 0
          0.0111261 0.00242453 0 0.0108066 0.0017282 0 0.0105741 0.00271784 0 0.0107122 0.00038199 0
          0.010158 0.000780841 0 0.0106251 0.00143894 0 0.00987449 0.000414192 0 0.00979482 0.00157364 0
          0.0104325 0.00247417 0 0.010042 0.00190127 0 0.00982659 0.00299294 0 0.00961781 0.00270933 0
          0.0107719 0.00326855 0 0.0107439 0.00311515 0 0.0103142 0.00406178 0 0.0103263 0.00396073 0
          0.0102381 0.00366591 0 0.00980368 0.00455701 0 0.00976026 0.00479047 0 0.00981122 0.00474388 0
          0.00920691 0.00545029 0 0.0092777 0.00537571 0 0.0101372 0.00347172 0 0.00951489 0.00403884 0
          0.00974374 0.00441562 0 0.00911175 0.00502196 0 0.00934616 0.00380376 0 0.00898403 0.00483941 0
          0.00925832 0.00528991 0 0.00862349 0.0059253 0 0.00868865 0.00607864 0 0.00853706 0.00579877 0
          0.00801239 0.00666434 0 2.0474e-05 -0.000808794 0 5.03865e-05 -0.00155118 0 0.000152288 -0.00302513 0
          4.33005e-05 -0.00165639 0 1.69727e-05 -0.000858144 0 0.000130415 -0.00322047 0 0.000240355 -0.00359719 0
          0.000427962 -0.00488739 0 0.00057138 -0.00530374 0 0.000209292 -0.00384686 0 0.000369113 -0.0052056 0
          0.000499519 -0.00567412 0 3.55096e-05 -0.00174667 0 1.31946e-05 -0.000899577 0 0.000106454 -0.00338644 0
          2.71545e-05 -0.00182057 0 0.000174833 -0.00406202 0 0.000304332 -0.00547643 0 0.000419537 -0.00599365 0
          0.000137614 -0.00423921 0 0.000332919 -0.00625721 0 0.00101881 -0.00668949 0 0.000823355 -0.00641467 0
          0.00131564 -0.00762603 0 0.00155936 -0.00777306 0 0.000892292 -0.00715809 0 0.000712071 -0.00683385 0
          0.00136713 -0.00831867 0 0.00113943 -0.00812551 0 0.00188329 -0.00854055 0 0.00217111 -0.00857306 0
          0.00250613 -0.00917727 0 0.00190474 -0.00917575 0 0.00163249 -0.00910085 0 0.00217367 -0.00978014 0
          0.000751251 -0.00756258 0 0.00058932 -0.00719087 0 0.00115262 -0.0087898 0 0.000944859 -0.00855108 0
          0.000598312 -0.00789647 0 0.00091985 -0.00917888 0 0.00160732 -0.0096963 0 0.00135534 -0.00957838 0
          0.00180612 -0.0102941 0 0.00128441 -0.0101264 0 9.20462e-06 -0.000932436 0 1.83753e-05 -0.00187692 0
          8.08281e-05 -0.0035204 0 5.06717e-06 -0.000956214 0 5.39619e-05 -0.00362027 0 0.000234779 -0.00569554 0
          9.82667e-05 -0.00437565 0 0.000241146 -0.00646064 0 0.000161617 -0.00585953 0 8.46149e-07 -0.000970546 0
          9.31113e-06 -0.00191486 0 2.62773e-05 -0.0036845 0 1.00428e-07 -0.00193382 0 -3.39506e-06 -0.000975215 0
          -1.8046e-06 -0.00371213 0 5.74217e-05 -0.00446923 0 8.6004e-05 -0.00596587 0 0.000145697 -0.00660082 0
          1.57091e-05 -0.00451853 0 9.0967e-06 -0.00601295 0 4.80491e-05 -0.00667559 0 0.000457314 -0.00748001 0
          0.000436098 -0.00815449 0 0.000735432 -0.00889596 0 0.00067281 -0.00947979 0 0.000318267 -0.00769677 0
          0.000514671 -0.00915476 0 0.00105688 -0.00996554 0 0.000941568 -0.0104591 0 0.00141014 -0.0107109 0
          0.000742115 -0.0102563 0 0.000992416 -0.0110241 0 0.000267232 -0.00833268 0 0.000174388 -0.00783782 0
          0.00028609 -0.00932351 0 0.0004155 -0.00968789 0 9.43321e-05 -0.00842832 0 2.78839e-05 -0.00790101 0
          0.000151916 -0.00980001 0 5.32002e-05 -0.00939965 0 0.000416071 -0.0104461 0 0.00058435 -0.0106895 0
          0.000559594 -0.0112289 0 0.000218305 -0.010814 0 8.37577e-05 -0.0105322 0 0.000118339 -0.0113221 0
          0.00283352 -0.00910809 0 0.00316527 -0.00955522 0 0.00352742 -0.00939672 0 0.00248705 -0.0097492 0
          0.00274656 -0.0101836 0 0.0030972 -0.0100589 0 0.00423502 -0.00945751 0 0.00384317 -0.00969341 0
          0.0045236 -0.00961084 0 0.00493992 -0.00930901 0 0.00371952 -0.0101247 0 0.00333589 -0.0103316 0
          0.00433958 -0.00996636 0 0.00392754 -0.0102443 0 0.00210002 -0.0103031 0 0.00228349 -0.0107195 0
          0.00261645 -0.0106311 0 0.00167968 -0.0107608 0 0.00209418 -0.011104 0 0.00314332 -0.0107012 0
          0.00277472 -0.0108759 0 0.00366842 -0.0105346 0 0.00326802 -0.0107846 0 0.00251724 -0.0111779 0
          0.00293902 -0.0110045 0 0.00519167 -0.0093265 0 0.00562707 -0.00896976 0 0.00583381 -0.00885936 0
          0.00494414 -0.00960381 0 0.00450856 -0.00994181 0 0.00506714 -0.0094445 0 0.00628284 -0.00845826 0
          0.00643777 -0.0082284 0 0.00689496 -0.00779305 0 0.0055212 -0.00905683 0 0.00559261 -0.00877254 0
          0.00605995 -0.00834523 0 0.00418051 -0.010152 0 0.00375259 -0.0104668 0 0.00421857 -0.00994385 0
          0.0033505 -0.0106054 0 0.00466942 -0.00957442 0 0.00465705 -0.009237 0 0.00512599 -0.00882283 0
          0.00374349 -0.0100027 0 0.00411063 -0.00921814 0 0.00178447 -0.0111542 0 0.00123326 -0.0111151 0
          0.00153939 -0.0114703 0 0.00125792 -0.011481 0 0.00216986 -0.0113176 0 0.00185206 -0.0115473 0
          0.00255704 -0.0112231 0 0.00216397 -0.0113687 0 0.0015315 -0.0116498 0 0.00180657 -0.0115532 0
          0.00076801 -0.0113606 0 0.000712226 -0.0116949 0 0.000961089 -0.0117243 0 0.000291152 -0.0114936 0
          0.0001558 -0.0117926 0 0.000368261 -0.0118622 0 0.00115858 -0.0118036 0 0.000869839 -0.0118674 0
          0.00102861 -0.0117695 0 0.00135585 -0.0116216 0 0.000447585 -0.011943 0 0.000195067 -0.0119671 0
          0.000527231 -0.0117594 0 0.000235141 -0.011869 0 0.00293751 -0.0108931 0 0.00246844 -0.010957 0
          0.00330354 -0.0103494 0 0.00207707 -0.0112139 0 0.00233749 -0.0106549 0 0.00364812 -0.00961437 0
          0.00275941 -0.0103349 0 0.00303141 -0.00952494 0 0.00258284 -0.00989875 0 0.00118502 -0.0114245 0
          0.00154865 -0.0112014 0 0.00133587 -0.0108556 0 0.000605457 -0.0113348 0 0.0002751 -0.0115217 0
          0.000314095 -0.0109484 0 0.00173314 -0.010566 0 0.00147825 -0.0100858 0 0.00190584 -0.00973852 0
          0.000680676 -0.0106924 0 0.000351355 -0.0101726 0 0.000751455 -0.00985562 0 -9.11906e-06 -0.00193349 0
          -7.59352e-06 -0.000970149 0 -2.98636e-05 -0.00370272 0 -1.82102e-05 -0.00191389 0 -2.62429e-05 -0.00452279 0
          -6.79491e-05 -0.00600005 0 -5.03213e-05 -0.00668384 0 -6.78069e-05 -0.00448195 0 -0.00014794 -0.00662542 0
          -1.16868e-05 -0.000955424 0 -2.70364e-05 -0.00187531 0 -5.74806e-05 -0.00365643 0 -1.56128e-05 -0.000931261 0
          -8.42372e-05 -0.00357394 0 -0.000143979 -0.00592736 0 -0.000108356 -0.00439662 0 -0.000243334 -0.00650123 0
          -0.00021784 -0.00579598 0 -7.99845e-05 -0.00843995 0 -0.000119039 -0.00788539 0 -0.000113949 -0.00981446 0
          -0.000180488 -0.00938203 0 -0.000253102 -0.0083674 0 -0.000378104 -0.00973101 0 -0.000151018 -0.0108307 0
          -0.000249812 -0.0105133 0 -0.000324691 -0.0113024 0 -0.000518073 -0.0107394 0 -0.000264177 -0.00779119 0
          -0.000422408 -0.00821177 0 -0.000411466 -0.00927091 0 -0.00063656 -0.00955091 0 -0.000405328 -0.00761983 0
          -0.000636229 -0.00906795 0 -0.000579629 -0.0103895 0 -0.000877315 -0.0105413 0 -0.000762842 -0.01117 0
          -0.000900686 -0.0101628 0 -0.00118946 -0.0109269 0 -1.931e-05 -0.000898028 0 -3.54619e-05 -0.00181833 0
          -0.000109716 -0.0034565 0 -4.33511e-05 -0.00174383 0 -2.27173e-05 -0.000856237 0 -0.0001335 -0.00330593 0
          -0.000147266 -0.0042681 0 -0.00028838 -0.00560789 0 -0.000335033 -0.00631312 0 -0.000183912 -0.00409834 0
          -0.000354448 -0.005366 0 -0.000421565 -0.00606399 0 -5.05694e-05 -0.00165297 0 -2.5774e-05 -0.000806551 0
          -0.000155174 -0.00312459 0 -5.69827e-05 -0.00154721 0 -0.00021767 -0.00389 0 -0.000414896 -0.0050741 0
          -0.000501462 -0.00575773 0 -0.000247918 -0.00364641 0 -0.000573257 -0.00539923 0 -0.00058529 -0.00797539 0
          -0.000540291 -0.0073739 0 -0.000851272 -0.00877624 0 -0.000885329 -0.0092769 0 -0.000739138 -0.0076619 0
          -0.000666866 -0.00705719 0 -0.00112043 -0.00891317 0 -0.00105309 -0.00840028 0 -0.00120798 -0.00983667 0
          -0.0012232 -0.0102397 0 -0.0015979 -0.0105769 0 -0.0015502 -0.00983895 0 -0.0014965 -0.00941607 0
          -0.0019815 -0.0101254 0 -0.000881343 -0.00727619 0 -0.000782857 -0.00667469 0 -0.00133787 -0.0084654 0
          -0.00123819 -0.00794598 0 -0.0010093 -0.00682441 0 -0.00153368 -0.00794074 0 -0.00185276 -0.00934543 0
          -0.00176126 -0.00890762 0 -0.00233364 -0.00957929 0 -0.00212535 -0.00876701 0 -0.000190078 -0.011512 0
          -0.000402965 -0.0117727 0 -0.000230098 -0.0118818 0 -0.000668452 -0.0114156 0 -0.000824997 -0.0117828 0
          -0.000270129 -0.0119633 0 -0.000482634 -0.0119475 0 -0.000309304 -0.01178 0 -0.000561857 -0.0118501 0
          -0.000983781 -0.0118643 0 -0.00114119 -0.011683 0 -0.000955673 -0.0116354 0 -0.00113674 -0.0112058 0
          -0.00140745 -0.0115669 0 -0.00149393 -0.0113828 0 -0.00115308 -0.0118087 0 -0.00168259 -0.0116474 0
          -0.00135041 -0.011713 0 -0.00195585 -0.01147 0 -0.00180609 -0.0115529 0 -0.00211854 -0.0114599 0
          -0.000346836 -0.0113551 0 -0.000638952 -0.0115038 0 -0.000712394 -0.010932 0 -0.00129391 -0.0112622 0
          -0.000382017 -0.0107122 0 -0.000780814 -0.010158 0 -0.000414219 -0.00987447 0 -0.00143897 -0.0106251 0
          -0.00157366 -0.00979479 0 -0.0015434 -0.0113713 0 -0.00222146 -0.0110574 0 -0.00172817 -0.0108066 0
          -0.0024245 -0.0111261 0 -0.00271781 -0.0105742 0 -0.00190124 -0.0100421 0 -0.0024742 -0.0104325 0
          -0.00270936 -0.00961778 0 -0.00299291 -0.00982662 0 -0.00158773 -0.0108857 0 -0.00200935 -0.0110188 0
          -0.00196847 -0.0112371 0 -0.00201418 -0.0104604 0 -0.00249354 -0.010549 0 -0.00249908 -0.0107986 0
          -0.00235577 -0.0113159 0 -0.00243148 -0.0111841 0 -0.00285427 -0.0110945 0 -0.00274073 -0.0111441 0
          -0.00299256 -0.0108749 0 -0.00301908 -0.0107078 0 -0.00348325 -0.0107104 0 -0.00354564 -0.0106226 0
          -0.00240889 -0.00993637 0 -0.00293812 -0.00998068 0 -0.00299029 -0.0102583 0 -0.00276463 -0.00932205 0
          -0.00343314 -0.00962469 0 -0.00358217 -0.0103313 0 -0.00355872 -0.0101315 0 -0.00417087 -0.0101756 0
          -0.00418068 -0.0100515 0 -0.00411384 -0.0096938 0 -0.00479102 -0.00954823 0 -0.00326853 -0.0107719 0
          -0.00311518 -0.0107438 0 -0.00366589 -0.0102381 0 -0.00396076 -0.0103262 0 -0.00406175 -0.0103143 0
          -0.00455698 -0.0098037 0 -0.00347175 -0.0101371 0 -0.00403881 -0.00951492 0 -0.00380379 -0.00934613 0
          -0.00441565 -0.00974371 0 -0.00502194 -0.00911178 0 -0.00483944 -0.008984 0 -0.0047439 -0.00981119 0
          -0.00479044 -0.00976029 0 -0.00537568 -0.00927772 0 -0.00545031 -0.00920688 0 -0.00528994 -0.00925829 0
          -0.00592527 -0.00862352 0 -0.0057988 -0.00853703 0 -0.00607866 -0.00868862 0 -0.00666436 -0.00801236 0
          0.00745254 -0.00699262 0 0.00699264 -0.00745257 0 0.00748886 -0.00655083 0 0.00794609 -0.00607547 0
          0.0065508 -0.00748883 0 0.00607549 -0.00794611 0 0.0069854 -0.00650741 0 0.00650744 -0.00698543 0
          0.00791816 -0.00554213 0 0.00836748 -0.0050601 0 0.00827362 -0.00444541 0 0.0073566 -0.00542079 0
          0.00688127 -0.00591068 0 0.00719095 -0.00474205 0 0.0055421 -0.00791813 0 0.00506012 -0.00836751 0
          0.00591065 -0.00688124 0 0.00542081 -0.00735663 0 0.00444538 -0.0082736 0 0.00474202 -0.00719093 0
          0.00622558 -0.00573309 0 0.00573312 -0.00622561 0 0.00599201 -0.00499571 0 0.00499568 -0.00599198 0
          0.00870999 -0.003965 0 0.00854967 -0.00327961 0 0.00896827 -0.00280865 0 0.00765846 -0.00424874 0
          0.00743162 -0.00349973 0 0.00788627 -0.00301105 0 0.00913836 -0.00160954 0 0.00874204 -0.00206368 0
          0.0088478 -0.000816542 0 0.00921768 -0.000386158 0 0.00803654 -0.00172753 0 0.00759957 -0.00220391 0