<?xml version="1.0"?>
<VTKFile type="UnstructuredGrid" version="0.1" byte_order="LittleEndian">
  <UnstructuredGrid>
    <Piece NumberOfCells="4096" NumberOfPoints="4225">
      <PointData Scalars="S_liq">
        <DataArray type="Float32" Name="S_liq" NumberOfComponents="1" format="ascii">
          1 1 1 1 1 1 1 1 1 1 1 1
          1 1 1 1 1 1 1 1 1 1 1 1
          1 1 1 1 1 1 1 1 1 1 1 1
          1 1 1 1 1 1 1 1 1 1 1 0.973729
          0.8 0.842272 0.8 0.838645 0.8 0.840114 0.8 0.840968 0.8 0.841309 0.8 0.841165
          0.8 0.840191 0.8 0.835873 0.8 0.805751 0.8 0.803419 0.8 0.802616 0.8 0.80206
          0.8 0.801476 0.8 0.800733 0.8 0.799703 0.8 0.798758 0.8 0.808209 0.964921 0.93957
          1 1 1 1 1 1 1 1 1 1 1 1
          1 1 1 1 1 1 1 1 1 1 1 1
          1 1 1 1 1 1 1 1 1 1 1 1
          1 1 1 1 1 1 1 1 1 1 1 1
          1 1 1 1 1 1 1 1 1 1 1 1
          1 1 1 1 1 1 1 1 1 1 0.88331 0.88486
          0.887681 0.889108 0.889679 0.889482 0.888068 0.881463 0.841015 0.837137 0.835906 0.834994 0.834007 0.83274
          0.830948 0.828903 0.837742 0.974382 1 1 1 1 1 1 1 1
          1 1 1 1 1 1 1 1 1 1 1 1
          1 1 1 1 1 1 1 1 1 1 1 1
          1 1 1 1 1 1 1 1 1 1 1 1
          1 1 1 0.968015 0.972899 0.976279 0.977967 0.97865 0.978476 0.977012 0.969796 0.912701
          0.906941 0.904856 0.903157 0.901271 0.898857 0.895443 0.89089 0.899348 1 1 1 1
          1 1 1 1 1 1 1 1 1 1 1 1
          1 1 1 1 1 1 1 1 1 1 1 1
          1 1 1 1 1 1 1 1 1 1 1 1
          1 1 1 1 1 1 1 1 1 1 1 1
          1 1 1 1 1 1 1 1 0.999358 0.998018 0.996027 0.993159
          0.998094 1 1 1 1 1 1 1 1 1 1 1
          1 1 1 1 1 1 1 1 1 1 1 1
          1 1 1 1 1 1 1 1 1 1 1 1
          1 1 1 1 1 1 1 1 1 1 1 1
          1 1 1 1 1 1 1 1 1 1 1 1
          1 1 1 1 1 1 1 1 1 1 1 1
          1 1 1 1 1 1 1 1 1 1 1 1
          1 1 1 1 1 1 1 1 1 1 1 1
          1 1 1 1 1 1 1 1 1 1 1 1
          1 1 1 1 1 1 1 1 1 1 1 1
          1 1 1 1 1 1 1 1 1 1 1 1
          1 1 1 1 1 1 1 1 1 1 1 1
          1 1 1 1 1 1 1 1 1 1 1 1
          1 1 1 1 1 1 1 1 1 1 1 1
          1 1 1 1 1 1 1 1 1 1 1 1
          1 1 1 1 1 1 1 1 1 1 1 1
          1 1 1 1 1 1 1 1 1 1 1 1
          1 1 1 1 1 1 1 1 1 1 1 1
          1 1 1 1 1 1 1 1 1 1 1 1
          1 1 1 1 1 1 1 1 1 1 1 1
          1 1 1 1 1 1 1 1 1 1 1 1
          1 1 1 1 1 1 1 1 1 1 1 1
          1 1 1 1 1 1 1 1 1 1 1 1
          1 1 1 1 1 1 1 1 1 1 1 1
          1 1 1 1 1 1 1 1 1 1 1 1
          1 1 1 1 1 1 1 1 1 1 1 1
          1 1 1 1 1 1 1 1 1 1 1 1
          1 1 1 1 1 1 1 1 1 1 1 1
          1 1 1 1 1 1 1 1 1 1 1 1
          1 1 1 1 1 1 1 1 1 1 1 1
          1 1 1 1 1 1 1 1 1 1 1 1
          1 1 1 1 1 1 1 1 1 1 1 1
          1 1 1 1 1 1 1 1 1 1 1 1
          1 1 1 1 1 1 1 1 1 1 1 1
          1 1 1 1 1 1 1 1 1 1 1 1
          1 1 1 1 1 1 1 1 1 1 1 1
          1 1 1 1 1 1 1 1 1 1 1 1
          1 1 1 1 1 1 1 1 1 1 1 1
          1 1 1 1 1 1 1 1 1 1 1 1
          1 1 1 1 1 1 1 1 1 1 1 1
          1 1 1 1 1 1 1 1 1 1 1 1
          1 1 1 1 1 1 1 1 1 1 1 1
          1 1 1 1 1 1 1 1 1 1 1 1
          1 1 1 1 1 1 1 1 1 1 1 1
          1 1 1 1 1 1 1 1 1 1 1 1
          1 1 1 1 1 1 1 1 1 1 1 1
          1 1 1 1 1 1 1 1 1 1 1 1
          1 1 1 1 1 1 1 1 1 1 1 1
          1 1 1 1 1 1 1 1 1 1 1 1
          1 1 1 1 1 1 1 1 1 1 1 1
          1 1 1 1 1 1 1 1 1 1 1 1
          1 1 1 1 1 1 1 1 1 1 1 1
          1 1 1 1 1 1 1 1 1 1 1 1
          1 1 1 1 1 1 1 1 1 1 1 1
          1 1 1 1 1 1 1 1 1 1 1 1
          1 1 1 1 1 1 1 1 1 1 1 1
          1 1 1 1 1 1 1 1 1 1 1 1
          1 1 1 1 1 1 1 1 1 1 1 1
          1 1 1 1 1 1 1 1 1 1 1 1
          1 1 1 1 1 1 1 1 1 1 1 1
          1 1 1 1 1 1 1 1 1 1 1 1
          1 1 1 1 1 1 1 1 1 1 1 1
          1 1 1 1 1 1 1 1 1 1 1 1
          1 1 1 1 1 1 1 1 1 1 1 1
          1 1 1 1 1 1 1 1 1 1 1 1
          1 1 1 1 1 1 1 1 1 1 1 1
          1 1 1 1 1 1 1 1 1 1 1 1
          1 1 1 1 1 1 1 1 1 1 1 1
          1 1 1 1 1 1 1 1 1 1 1 1
          1 1 1 1 1 1 1 1 1 1 1 1
          1 1 1 1 1 1 1 1 1 1 1 1
          1 1 1 1 1 1 1 1 1 1 1 1
          1 1 1 1 1 1 1 1 1 1 1 1
          1 1 1 1 1 1 1 1 1 1 1 1
          1 1 1 1 1 1 1 1 1 1 1 1
          1 1 1 1 1 1 1 1 1 1 1 1
          1 1 1 1 1 1 1 1 1 1 1 1
          1 1 1 1 1 1 1 1 1 1 1 1
          1 1 1 1 1 1 1 1 1 1 1 1
          1 1 1 1 1 1 1 1 1 1 1 1
          1 1 1 1 1 1 1 1 1 1 1 1
          1 1 1 1 1 1 1 1 1 1 1 1
          1 1 1 1 1 1 1 1 1 1 1 1
          1 1 1 1 1 1 1 1 1 1 1 1
          1 1 1 1 1 1 1 1 1 1 1 1
          1 1 1 1 1 1 1 1 1 1 1 1
          1 1 1 1 1 1 1 1 1 1 1 1
          1 1 1 1 1 1 1 1 1 1 1 1
          1 1 1 1 1 1 1 1 1 1 1 1
          1 1 1 1 1 1 1 1 1 1 1 1
          1 1 1 1 1 1 1 1 1 1 1 1
          1 1 1 1 1 1 1 1 1 1 1 1
          1 1 1 1 1 1 1 1 1 1 1 1
          1 1 1 1 1 1 1 1 1 1 1 1
          1 1 1 1 1 1 1 1 1 1 1 1
          1 1 1 1 1 1 1 1 1 1 1 1
          1 1 1 1 1 1 1 1 1 1 1 1
          1 1 1 1 1 1 1 1 1 1 1 1
          1 1 1 1 1 1 1 1 1 1 1 1
          1 1 1 1 1 1 1 1 1 1 1 1
          1 1 1 1 1 1 1 1 1 1 1 1
          1 1 1 1 1 1 1 1 1 1 1 1
          1 1 1 1 1 1 1 1 1 1 1 1
          1 1 1 1 1 1 1 1 1 1 1 1
          1 1 1 1 1 1 1 1 1 1 1 1
          1 1 1 1 1 1 1 1 1 1 1 1
          1 1 1 1 1 1 1 1 1 1 1 1
          1 1 1 1 1 1 1 1 1 1 1 1
          1 1 1 1 1 1 1 1 1 1 1 1
          1 1 1 1 1 1 1 1 1 1 1 1
          1 1 1 1 1 1 1 1 1 1 1 1
          1 1 1 1 1 1 1 1 1 1 1 1
          1 1 1 1 1 1 1 1 1 1 1 1
          1 1 1 1 1 1 1 1 1 1 1 1
          1 1 1 1 1 1 1 1 1 1 1 1
          1 1 1 1 1 1 1 1 1 1 1 1
          1 1 1 1 1 1 1 1 1 1 1 1
          1 1 1 1 1 1 1 1 1 1 1 1
          1 1 1 1 1 1 1 1 1 1 1 1
          1 1 1 1 1 1 1 1 1 1 1 1
          1 1 1 1 1 1 1 1 1 1 1 1
          1 1 1 1 1 1 1 1 1 1 1 1
          1 1 1 1 1 1 1 1 1 1 1 1
          1 1 1 1 1 1 1 1 1 1 1 1
          1 1 1 1 1 1 1 1 1 1 1 1
          1 1 1 1 1 1 1 1 1 1 1 1
          1 1 1 1 1 1 1 1 1 1 1 1
          1 1 1 1 1 1 1 1 1 1 1 1
          1 1 1 1 1 1 1 1 1 1 1 1
          1 1 1 1 1 1 1 1 1 1 1 1
          1 1 1 1 1 1 1 1 1 1 1 1
          1 1 1 1 1 1 1 1 1 1 1 1
          1 1 1 1 1 1 1 1 1 1 1 1
          1 1 1 1 1 1 1 1 1 1 1 1
          1 1 1 1 1 1 1 1 1 1 1 1
          1 1 1 1 1 1 1 1 1 1 1 1
          1 1 1 1 1 1 1 1 1 1 1 1
          1 1 1 1 1 1 1 1 1 1 1 1
          1 1 1 1 1 1 1 1 1 1 1 1
          1 1 1 1 1 1 1 1 1 1 1 1
          1 1 1 1 1 1 1 1 1 1 1 1
          1 1 1 1 1 1 1 1 1 1 1 1
          1 1 1 1 1 1 1 1 1 1 1 1
          1 1 1 1 1 1 1 1 1 1 1 1
          1 1 1 1 1 1 1 1 1 1 1 1
          1 1 1 1 1 1 1 1 1 1 1 1
          1 1 1 1 1 1 1 1 1 1 1 1
          1 1 1 1 1 1 1 1 1 1 1 1
          1 1 1 1 1 1 1 1 1 1 1 1
          1 1 1 1 1 1 1 1 1 1 1 1
          1 1 1 1 1 1 1 1 1 1 1 1
          1 1 1 1 1 1 1 1 1 1 1 1
          1 1 1 1 1 1 1 1 1 1 1 1
          1 1 1 1 1 1 1 1 1 1 1 1
          1 1 1 1 1 1 1 1 1 1 1 1
          1 1 1 1 1 1 1 1 1 1 1 1
          1 1 1 1 1 1 1 1 1 1 1 1
          1 1 1 1 1 1 1 1 1 1 1 1
          1 1 1 1 1 1 1 1 1 1 1 1
          1 1 1 1 1 1 1 1 1 1 1 1
          1 1 1 1 1 1 1 1 1 1 1 1
          1 1 1 1 1 1 1 1 1 1 1 1
          1 1 1 1 1 1 1 1 1 1 1 1
          1 1 1 1 1 1 1 1 1 1 1 1
          1 1 1 1 1 1 1 1 1 1 1 1
          1 1 1 1 1 1 1 1 1 1 1 1
          1 1 1 1 1 1 1 1 1 1 1 1
          1 1 1 1 1 1 1 1 1 1 1 1
          1 1 1 1 1 1 1 1 1 1 1 1
          1 1 1 1 1 1 1 1 1 1 1 1
          1 1 1 1 1 1 1 1 1 1 1 1
          1 1 1 1 1 1 1 1 1 1 1 1
          1 1 1 1 1 1 1 1 1 1 1 1
          1 1 1 1 1 1 1 1 1 1 1 1
          1 1 1 1 1 1 1 1 1 1 1 1
          1 1 1 1 1 1 1 1 1 1 1 1
          1 1 1 1 1 1 1 1 1 1 1 1
          1 1 1 1 1 1 1 1 1 1 1 1
          1 1 1 1 1 1 1 1 1 1 1 1
          1 1 1 1 1 1 1 1 1 1 1 1
          1 1 1 1 1 1 1 1 1 1 1 1
          1 1 1 1 1 1 1 1 1 1 1 1
          1 1 1 1 1 1 1 1 1 1 1 1
          1 1 1 1 1 1 1 1 1 1 1 1
          1 1 1 1 1 1 1 1 1 1 1 1
          1 1 1 1 1 1 1 1 1 1 1 1
          1 1 1 1 1 1 1 1 1 1 1 1
          1 1 1 1 1 1 1 1 1 1 1 1
          1 1 1 1 1 1 1 1 1 1 1 1
          1 1 1 1 1 1 1 1 1 1 1 1
          1 1 1 1 1 1 1 1 1 1 1 1
          1 1 1 1 1 1 1 1 1 1 1 1
          1 1 1 1 1 1 1 1 1 1 1 1
          1 1 1 1 1 1 1 1 1 1 1 1
          1 1 1 1 1 1 1 1 1 1 1 1
          1 1 1 1 1 1 1 1 1 1 1 1
          1 1 1 1 1 1 1 1 1 1 1 1
          1 1 1 1 1 1 1 1 1 1 1 1
          1 1 1 1 1 1 1 1 1 1 1 1
          1 1 1 1 1 1 1 1 1 1 1 1
          1 1 1 1 1 1 1 1 1 1 1 1
          1 1 1 1 1 1 1 1 1 1 1 1
          1 1 1 1 1 1 1 1 1 1 1 1
          1 1 1 1 1 1 1 1 1 1 1 1
          1 1 1 1 1 1 1 1 1 1 1 1
          1 1 1 1 1 1 1 1 1 1 1 1
          1 1 1 1 1 1 1 1 1 1 1 1
          1 1 1 1 1 1 1 1 1 1 1 1
          1 1 1 1 1 1 1 1 1 1 1 1
          1 1 1 1 1 1 1 1 1 1 1 1
          1 1 1 1 1 1 1 1 1 1 1 1
          1 1 1 1 1 1 1 1 1 1 1 1
          1 1 1 1 1 1 1 1 1 1 1 1
          1 1 1 1 1 1 1 1 1 1 1 1
          1 1 1 1 1 1 1 1 1 1 1 1
          1 1 1 1 1 1 1 1 1 1 1 1
          1 1 1 1 1 1 1 1 1 1 1 1
          1 1 1 1 1 1 1 1 1 1 1 1
          1 1 1 1 1 1 1 1 1 1 1 1
          1 1 1 1 1 1 1 1 1 1 1 1
          1 1 1 1 1 1 1 1 1 1 1 1
          1 1 1 1 1 1 1 1 1 1 1 1
          1 1 1 1 1 1 1 1 1 1 1 1
          1 1 1 1 1 1 1 1 1 1 1 1
          1 1 1 1 1 1 1 1 1 1 1 1
          1 1 1 1 1 1 1 1 1 1 1 1
          1 1 1 1 1 1 1 1 1 1 1 1
          1 1 1 1 1 1 1 1 1 1 1 1
          1 1 1 1 1 1 1 1 1 1 1 1
          1 1 1 1 1 1 1 1 1 1 1 1
          1 1 1 1 1 1 1 1 1 1 1 1
          1 1 1 1 1 1 1 1 1 1 1 1
          1 1 1 1 1 1 1 1 1 1 1 1
          1 1 1 1 1 1 1 1 1 1 1 1
          1 1 1 1 1 1 1 1 1 1 1 1
          1 1 1 1 1 1 1 1 1 1 1 1
          1 1 1 1 1 1 1 1 1 1 1 1
          1 1 1 1 1 1 1 1 1 1 1 1
          1 1 1 1 1 1 1 1 1 1 1 1
          1 1 1 1 1 1 1 1 1 1 1 1
          1 1 1 1 1 1 1 1 1 1 1 1
          1 1 1 1 1 1 1 1 1 1 1 1
          1 1 1 1 1 1 1 1 1 1 1 1
          1 1 1 1 1 1 1 1 1 1 1 1
          1 1 1 1 1 1 1 1 1 1 1 1
          1 1 1 1 1 1 1 1 1 1 1 1
          1 1 1 1 1 1 1 1 1 1 1 1
          1 1 1 1 1 1 1 1 1 1 1 1
          1 1 1 1 1 1 1 1 1 1 1 1
          1 1 1 1 1 1 1 1 1 1 1 1
          1 1 1 1 1 1 1 1 1 1 1 1
          1 1 1 1 1 1 1 1 1 1 1 1
          1 1 1 1 1 1 1 1 1 1 1 1
          1 1 1 1 1 1 1 1 1 1 1 1
          1 1 1 1 1 1 1 1 1 1 1 1
          1 1 1 1 1 1 1 1 1 1 1 1
          1 1 1 1 1 1 1 1 1 1 1 1
          1 1 1 1 1 1 1 1 1 1 1 1
          1 1 1 1 1 1 1 1 1 1 1 1
          1 1 1 1 1 1 1 1 1 1 1 1
          1 1 1 1 1 1 1 1 1 1 1 1
          1 1 1 1 1 1 1 1 1 1 1 1
          1 1 1 1 1 1 1 1 1 1 1 1
          1 1 1 1 1 1 1 1 1 1 1 1
          1 1 1 1 1 1 1 1 1 1 1 1
          1 1 1 1 1 1 1 1 1 1 1 1
          1 1 1 1 1 1 1 1 1 1 1 1
          1 1 1 1 1 1 1 1 1 1 1 1
          1 1 1 1 1 1 1 1 1 1 1 1
          1 1 1 1 1 1 1 1 1 1 1 1
          1 1 1 1 1 1 1 1 1 1 1 1
          1 1 1 1 1 1 1 1 1 1 1 1
          1 1 1 1 1 1 1 1 1 1 1 1
          1 1 1 1 1 1 1 1 1 1 1 1
          1 1 1 1 1 1 1 1 1 1 1 1
          1 1 1 1 1 1 1 1 1 1 1 1
          1 1 1 1 1 1 1 1 1 1 1 1
          1 1 1 1 1 1 1 1 1 1 1 1
          1 1 1 1 1 1 1 1 1 1 1 1
          1 1 1 1 1 1 1 1 1 1 1 1
          1 1 1 1 1 1 1 1 1 1 1 1
          1 1 1 1 1 1 1 1 1 1 1 1
          1 1 1 1 1 1 1 1 1 1 1 1
          1 1 1 1 1 1 1 1 1 1 1 1
          1 1 1 1 1 1 1 1 1 1 1 1
          1 1 1 1 1 1 1 1 1 1 1 1
          1 1 1 1 1 1 1 1 1 1 1 1
          1 1 1 1 1 1 1 1 1 1 1 1
          1 1 1 1 1 1 1 1 1 1 1 1
          1 1 1 1 1 1 1 1 1 1 1 1
          1 1 1 1 1 1 1 1 1 1 1 1
          1 1 1 1 1 1 1 1 1 1 1 1
          1 1 1 1 1 1 1 1 1 1 1 1
          1 1 1 1 1 1 1 1 1 1 1 1
          1 1 1 1 1 1 1 1 1 1 1 1
          1 1 1 1 1 1 1 1 1 1 1 1
          1 1 1 1 1 1 1 1 1 1 1 1
          1 1 1 1 1 1 1 1 1 1 1 1
          1 1 1 1 1 1 1 1 1 1 1 1
          1 1 1 1 1 1 1 1 1 1 1 1
          1 1 1 1 1 1 1 1 1 1 1 1
          1 1 1 1 1 1 1 1 1 1 1 1
          1 1 1 1 1 1 1 1 1 1 1 1
          1 1 1 1 1 1 1 1 1 1 1 1
          1 1 1 1 1 1 1 1 1 1 1 1
          1 1 1 1 1 1 1 1 1 1 1 1
          1 1 1 1 1 1 1 1 1 1 1 1
          1 1 1 1 1 1 1 1 1 1 1 1
          1 1 1 1 1 1 1 1 1 1 1 1
          1 1 1 1 1 1 1 1 1 1 1 1
          1 1 1 1 1 1 1 1 1 1 1 1
          1 1 1 1 1 1 1 1 1 1 1 1
          1 1 1 1 1 1 1 1 1 1 1 1
          1 1 1 1 1 1 1 1 1 1 1 1
          1 1 1 1 1 1 1 1 1 1 1 1
          1 1 1 1 1 1 1 1 1 1 1 1
          1 1 1 1 1 1 1 1 1 1 1 1
          1 1 1 1 1 1 1 1 1 1 1 1
          1 1 1 1 1 1 1 1 1 1 1 1
          1 1 1 1 1 1 1 1 1 1 1 1
          1 1 1 1 1 1 1 1 1 1 1 1
          1 1 1 1 1 1 1 1 1 1 1 1
          1 1 1 1 1 1 1 1 1 1 1 1
          1 1 1 1 1 1 1 1 1 1 1 1
          1 1 1 1 1 1 1 1 1 1 1 1
          1 1 1 1 1 1 1 1 1 1 1 1
          1 1 1 1 1 1 1 1 1 1 1 1
          1
        </DataArray>
        <DataArray type="Float32" Name="p_liq" NumberOfComponents="1" format="ascii">
          9.91e+06 9.91012e+06 9.90387e+06 9.904e+06 9.91026e+06 9.90414e+06 9.9104e+06 9.90429e+06 9.91055e+06 9.90444e+06 9.91071e+06 9.9046e+06
          9.91087e+06 9.90476e+06 9.91103e+06 9.90492e+06 9.91119e+06 9.90508e+06 9.91136e+06 9.90524e+06 9.91152e+06 9.90541e+06 9.91169e+06 9.90558e+06
          9.91186e+06 9.90575e+06 9.91204e+06 9.90593e+06 9.91222e+06 9.90611e+06 9.9124e+06 9.90628e+06 9.91257e+06 9.90646e+06 9.91275e+06 9.90664e+06
          9.91293e+06 9.90682e+06 9.91309e+06 9.90699e+06 9.91323e+06 9.90715e+06 9.91332e+06 9.90726e+06 9.91328e+06 9.90731e+06 9.91275e+06 9.90731e+06
          9.91e+06 9.90731e+06 9.91e+06 9.90733e+06 9.91e+06 9.90746e+06 9.91e+06 9.90753e+06 9.91e+06 9.90755e+06 9.91e+06 9.90754e+06
          9.91e+06 9.90746e+06 9.91e+06 9.90725e+06 9.91e+06 9.90672e+06 9.91e+06 9.90658e+06 9.91e+06 9.9065e+06 9.91e+06 9.90645e+06
          9.91e+06 9.90639e+06 9.91e+06 9.90632e+06 9.91e+06 9.90622e+06 9.91e+06 9.90608e+06 9.91e+06 9.90609e+06 9.91162e+06 9.90615e+06
          9.91189e+06 9.90609e+06 9.91186e+06 9.90601e+06 9.91179e+06 9.90592e+06 9.9117e+06 9.90582e+06 9.91163e+06 9.90575e+06 9.91159e+06 9.90569e+06
          9.91159e+06 9.90567e+06 9.91173e+06 9.90568e+06 9.91174e+06 9.90566e+06 9.9117e+06 9.9056e+06 9.91161e+06 9.90551e+06 9.91151e+06 9.9054e+06
          9.91139e+06 9.90528e+06 9.91126e+06 9.90515e+06 9.91112e+06 9.90502e+06 9.91098e+06 9.90488e+06 9.91084e+06 9.90473e+06 9.91069e+06 9.90458e+06
          9.91054e+06 9.90444e+06 9.9104e+06 9.90429e+06 9.91026e+06 9.90414e+06 9.91012e+06 9.904e+06 9.91e+06 9.90387e+06 9.89774e+06 9.89788e+06
          9.89803e+06 9.89818e+06 9.89833e+06 9.89848e+06 9.89864e+06 9.8988e+06 9.89896e+06 9.89913e+06 9.8993e+06 9.89947e+06 9.89964e+06 9.89982e+06
          9.89999e+06 9.90017e+06 9.90036e+06 9.90054e+06 9.90072e+06 9.9009e+06 9.90109e+06 9.90127e+06 9.90147e+06 9.90174e+06 9.90278e+06 9.9033e+06
          9.90352e+06 9.90364e+06 9.90368e+06 9.90366e+06 9.90356e+06 9.9033e+06 9.90262e+06 9.90245e+06 9.90234e+06 9.90224e+06 9.90215e+06 9.90204e+06
          9.90187e+06 9.90162e+06 9.9012e+06 9.90067e+06 9.90034e+06 9.90017e+06 9.90004e+06 9.89992e+06 9.89983e+06 9.89977e+06 9.89972e+06 9.89969e+06
          9.89962e+06 9.89953e+06 9.89943e+06 9.89931e+06 9.89919e+06 9.89905e+06 9.89891e+06 9.89877e+06 9.89862e+06 9.89847e+06 9.89832e+06 9.89818e+06
          9.89803e+06 9.89788e+06 9.89774e+06 9.89161e+06 9.89175e+06 9.8919e+06 9.89206e+06 9.89221e+06 9.89236e+06 9.89252e+06 9.89268e+06 9.89285e+06
          9.89301e+06 9.89318e+06 9.89335e+06 9.89352e+06 9.8937e+06 9.89388e+06 9.89406e+06 9.89424e+06 9.89443e+06 9.89462e+06 9.89482e+06 9.89503e+06
          9.89527e+06 9.89557e+06 9.89604e+06 9.89709e+06 9.89761e+06 9.89787e+06 9.898e+06 9.89805e+06 9.89803e+06 9.89794e+06 9.89776e+06 9.89737e+06
          9.89721e+06 9.8971e+06 9.897e+06 9.89689e+06 9.89677e+06 9.89659e+06 9.8963e+06 9.89576e+06 9.89484e+06 9.89454e+06 9.89431e+06 9.89414e+06
          9.894e+06 9.8939e+06 9.89382e+06 9.89375e+06 9.8937e+06 9.89359e+06 9.89348e+06 9.89336e+06 9.89323e+06 9.8931e+06 9.89296e+06 9.89282e+06
          9.89267e+06 9.89252e+06 9.89236e+06 9.89221e+06 9.89206e+06 9.89191e+06 9.89176e+06 9.89161e+06 9.88548e+06 9.88563e+06 9.88578e+06 9.88593e+06
          9.88609e+06 9.88624e+06 9.8864e+06 9.88657e+06 9.88673e+06 9.8869e+06 9.88706e+06 9.88723e+06 9.88741e+06 9.88758e+06 9.88776e+06 9.88794e+06
          9.88813e+06 9.88832e+06 9.88852e+06 9.88873e+06 9.88895e+06 9.88922e+06 9.88954e+06 9.88998e+06 9.89047e+06 9.8909e+06 9.89117e+06 9.89133e+06
          9.8914e+06 9.89139e+06 9.89131e+06 9.89112e+06 9.89082e+06 9.89069e+06 9.89058e+06 9.89046e+06 9.89035e+06 9.89023e+06 9.89006e+06 9.88981e+06
          9.88938e+06 9.88898e+06 9.88863e+06 9.88839e+06 9.8882e+06 9.88806e+06 9.88794e+06 9.88785e+06 9.88777e+06 9.88771e+06 9.88757e+06 9.88744e+06
          9.8873e+06 9.88716e+06 9.88702e+06 9.88687e+06 9.88672e+06 9.88657e+06 9.88641e+06 9.88626e+06 9.8861e+06 9.88594e+06 9.88579e+06 9.88563e+06
          9.88548e+06 9.87934e+06 9.8795e+06 9.87965e+06 9.87981e+06 9.87996e+06 9.88012e+06 9.88028e+06 9.88044e+06 9.88061e+06 9.88078e+06 9.88094e+06
          9.88111e+06 9.88129e+06 9.88146e+06 9.88164e+06 9.88182e+06 9.88201e+06 9.8822e+06 9.8824e+06 9.88261e+06 9.88284e+06 9.8831e+06 9.8834e+06
          9.88375e+06 9.8841e+06 9.88441e+06 9.88465e+06 9.8848e+06 9.88488e+06 9.88489e+06 9.88482e+06 9.88469e+06 9.88449e+06 9.8844e+06 9.8843e+06
          9.88419e+06 9.88407e+06 9.88392e+06 9.88374e+06 9.88351e+06 9.88322e+06 9.88292e+06 9.88265e+06 9.88242e+06 9.88224e+06 9.88208e+06 9.88196e+06
          9.88186e+06 9.88177e+06 9.8817e+06 9.88155e+06 9.88139e+06 9.88124e+06 9.88109e+06 9.88094e+06 9.88078e+06 9.88063e+06 9.88047e+06 9.88031e+06
          9.88015e+06 9.87999e+06 9.87983e+06 9.87967e+06 9.8795e+06 9.87934e+06 9.87321e+06 9.87337e+06 9.87352e+06 9.87368e+06 9.87384e+06 9.874e+06
          9.87416e+06 9.87432e+06 9.87449e+06 9.87465e+06 9.87482e+06 9.87499e+06 9.87516e+06 9.87534e+06 9.87552e+06 9.8757e+06 9.87588e+06 9.87607e+06
          9.87627e+06 9.87648e+06 9.87671e+06 9.87695e+06 9.87722e+06 9.8775e+06 9.87777e+06 9.87802e+06 9.87822e+06 9.87835e+06 9.87843e+06 9.87845e+06
          9.87841e+06 9.87832e+06 9.87818e+06 9.87811e+06 9.87802e+06 9.87792e+06 9.8778e+06 9.87766e+06 9.87749e+06 9.87729e+06 9.87706e+06 9.87683e+06
          9.8766e+06 9.8764e+06 9.87623e+06 9.87608e+06 9.87596e+06 9.87585e+06 9.87576e+06 9.87569e+06 9.87552e+06 9.87535e+06 9.87518e+06 9.87502e+06
          9.87486e+06 9.8747e+06 9.87454e+06 9.87437e+06 9.87421e+06 9.87404e+06 9.87388e+06 9.87371e+06 9.87354e+06 9.87338e+06 9.87321e+06 9.86708e+06
          9.86724e+06 9.8674e+06 9.86756e+06 9.86771e+06 9.86787e+06 9.86804e+06 9.8682e+06 9.86836e+06 9.86853e+06 9.8687e+06 9.86886e+06 9.86904e+06
          9.86921e+06 9.86939e+06 9.86957e+06 9.86975e+06 9.86994e+06 9.87014e+06 9.87034e+06 9.87055e+06 9.87078e+06 9.87101e+06 9.87125e+06 9.87147e+06
          9.87168e+06 9.87184e+06 9.87197e+06 9.87204e+06 9.87207e+06 9.87205e+06 9.87199e+06 9.8719e+06 9.87184e+06 9.87176e+06 9.87167e+06 9.87156e+06
          9.87143e+06 9.87128e+06 9.87111e+06 9.87092e+06 9.87072e+06 9.87054e+06 9.87036e+06 9.8702e+06 9.87006e+06 9.86994e+06 9.86983e+06 9.86974e+06
          9.86966e+06 9.86948e+06 9.8693e+06 9.86913e+06 9.86896e+06 9.86878e+06 9.86862e+06 9.86845e+06 9.86828e+06 9.86811e+06 9.86794e+06 9.86776e+06
          9.8676e+06 9.86742e+06 9.86725e+06 9.86708e+06 9.86095e+06 9.86111e+06 9.86127e+06 9.86143e+06 9.86159e+06 9.86175e+06 9.86191e+06 9.86207e+06
          9.86224e+06 9.8624e+06 9.86257e+06 9.86274e+06 9.86291e+06 9.86308e+06 9.86326e+06 9.86343e+06 9.86361e+06 9.8638e+06 9.86399e+06 9.86418e+06
          9.86438e+06 9.86459e+06 9.8648e+06 9.865e+06 9.8652e+06 9.86537e+06 9.86552e+06 9.86563e+06 9.8657e+06 9.86573e+06 9.86573e+06 9.86569e+06
          9.86563e+06 9.86558e+06 9.86552e+06 9.86543e+06 9.86534e+06 9.86522e+06 9.86509e+06 9.86494e+06 9.86478e+06 9.86462e+06 9.86445e+06 9.8643e+06
          9.86416e+06 9.86402e+06 9.86391e+06 9.8638e+06 9.8637e+06 9.86362e+06 9.86343e+06 9.86325e+06 9.86306e+06 9.86289e+06 9.86271e+06 9.86253e+06
          9.86236e+06 9.86218e+06 9.86201e+06 9.86183e+06 9.86165e+06 9.86148e+06 9.8613e+06 9.86113e+06 9.86095e+06 9.85482e+06 9.85498e+06 9.85514e+06
          9.8553e+06 9.85546e+06 9.85562e+06 9.85578e+06 9.85594e+06 9.85611e+06 9.85627e+06 9.85644e+06 9.85661e+06 9.85678e+06 9.85695e+06 9.85712e+06
          9.8573e+06 9.85747e+06 9.85765e+06 9.85784e+06 9.85802e+06 9.85821e+06 9.8584e+06 9.85859e+06 9.85877e+06 9.85894e+06 9.8591e+06 9.85922e+06
          9.85933e+06 9.8594e+06 9.85944e+06 9.85944e+06 9.85942e+06 9.85938e+06 9.85934e+06 9.85929e+06 9.85922e+06 9.85913e+06 9.85903e+06 9.85891e+06
          9.85878e+06 9.85865e+06 9.8585e+06 9.85836e+06 9.85822e+06 9.85809e+06 9.85797e+06 9.85786e+06 9.85776e+06 9.85766e+06 9.85758e+06 9.85738e+06
          9.85719e+06 9.857e+06 9.85682e+06 9.85663e+06 9.85645e+06 9.85627e+06 9.85609e+06 9.8559e+06 9.85572e+06 9.85554e+06 9.85536e+06 9.85518e+06
          9.855e+06 9.85482e+06 9.84869e+06 9.84885e+06 9.84901e+06 9.84917e+06 9.84933e+06 9.84949e+06 9.84965e+06 9.84982e+06 9.84998e+06 9.85014e+06
          9.85031e+06 9.85048e+06 9.85064e+06 9.85081e+06 9.85098e+06 9.85116e+06 9.85133e+06 9.85151e+06 9.85168e+06 9.85186e+06 9.85204e+06 9.85222e+06
          9.85239e+06 9.85255e+06 9.85271e+06 9.85284e+06 9.85296e+06 9.85306e+06 9.85312e+06 9.85317e+06 9.85318e+06 9.85318e+06 9.85315e+06 9.85312e+06
          9.85308e+06 9.85301e+06 9.85294e+06 9.85285e+06 9.85275e+06 9.85264e+06 9.85252e+06 9.85239e+06 9.85227e+06 9.85214e+06 9.85202e+06 9.85191e+06
          9.8518e+06 9.8517e+06 9.85161e+06 9.85152e+06 9.85132e+06 9.85113e+06 9.85093e+06 9.85074e+06 9.85055e+06 9.85036e+06 9.85018e+06 9.84999e+06
          9.8498e+06 9.84962e+06 9.84943e+06 9.84925e+06 9.84906e+06 9.84887e+06 9.84869e+06 9.84256e+06 9.84272e+06 9.84288e+06 9.84304e+06 9.8432e+06
          9.84336e+06 9.84352e+06 9.84369e+06 9.84385e+06 9.84402e+06 9.84418e+06 9.84434e+06 9.84451e+06 9.84468e+06 9.84485e+06 9.84502e+06 9.84519e+06
          9.84536e+06 9.84553e+06 9.8457e+06 9.84587e+06 9.84603e+06 9.84619e+06 9.84634e+06 9.84648e+06 9.84661e+06 9.84672e+06 9.84681e+06 9.84688e+06
          9.84693e+06 9.84695e+06 9.84696e+06 9.84694e+06 9.84692e+06 9.84688e+06 9.84683e+06 9.84676e+06 9.84668e+06 9.8466e+06 9.8465e+06 9.84639e+06
          9.84628e+06 9.84617e+06 9.84606e+06 9.84595e+06 9.84584e+06 9.84574e+06 9.84564e+06 9.84555e+06 9.84546e+06 9.84526e+06 9.84506e+06 9.84486e+06
          9.84467e+06 9.84447e+06 9.84428e+06 9.84409e+06 9.8439e+06 9.8437e+06 9.84351e+06 9.84332e+06 9.84313e+06 9.84294e+06 9.84275e+06 9.84256e+06
          9.83642e+06 9.83659e+06 9.83675e+06 9.83691e+06 9.83707e+06 9.83723e+06 9.83739e+06 9.83756e+06 9.83772e+06 9.83788e+06 9.83805e+06 9.83821e+06
          9.83838e+06 9.83854e+06 9.83871e+06 9.83887e+06 9.83904e+06 9.83921e+06 9.83937e+06 9.83954e+06 9.8397e+06 9.83985e+06 9.84e+06 9.84015e+06
          9.84028e+06 9.8404e+06 9.8405e+06 9.84059e+06 9.84066e+06 9.84071e+06 9.84074e+06 9.84075e+06 9.84074e+06 9.84073e+06 9.8407e+06 9.84065e+06
          9.8406e+06 9.84053e+06 9.84045e+06 9.84037e+06 9.84027e+06 9.84018e+06 9.84007e+06 9.83997e+06 9.83987e+06 9.83977e+06 9.83967e+06 9.83958e+06
          9.83948e+06 9.8394e+06 9.8392e+06 9.83899e+06 9.83879e+06 9.83859e+06 9.83839e+06 9.83819e+06 9.838e+06 9.8378e+06 9.8376e+06 9.83741e+06
          9.83721e+06 9.83701e+06 9.83682e+06 9.83662e+06 9.83642e+06 9.83029e+06 9.83046e+06 9.83062e+06 9.83078e+06 9.83094e+06 9.8311e+06 9.83126e+06
          9.83143e+06 9.83159e+06 9.83175e+06 9.83192e+06 9.83208e+06 9.83224e+06 9.83241e+06 9.83257e+06 9.83273e+06 9.8329e+06 9.83306e+06 9.83322e+06
          9.83338e+06 9.83353e+06 9.83368e+06 9.83382e+06 9.83396e+06 9.83408e+06 9.8342e+06 9.8343e+06 9.83438e+06 9.83446e+06 9.83451e+06 9.83454e+06
          9.83456e+06 9.83456e+06 9.83455e+06 9.83453e+06 9.83449e+06 9.83444e+06 9.83439e+06 9.83432e+06 9.83424e+06 9.83416e+06 9.83407e+06 9.83398e+06
          9.83388e+06 9.83379e+06 9.8337e+06 9.8336e+06 9.83351e+06 9.83342e+06 9.83333e+06 9.83313e+06 9.83292e+06 9.83272e+06 9.83251e+06 9.83231e+06
          9.83211e+06 9.8319e+06 9.8317e+06 9.8315e+06 9.8313e+06 9.8311e+06 9.8309e+06 9.8307e+06 9.8305e+06 9.83029e+06 9.82416e+06 9.82432e+06
          9.82449e+06 9.82465e+06 9.82481e+06 9.82497e+06 9.82513e+06 9.8253e+06 9.82546e+06 9.82562e+06 9.82578e+06 9.82594e+06 9.82611e+06 9.82627e+06
          9.82643e+06 9.82659e+06 9.82675e+06 9.82691e+06 9.82706e+06 9.82722e+06 9.82737e+06 9.82751e+06 9.82765e+06 9.82778e+06 9.8279e+06 9.82801e+06
          9.82811e+06 9.8282e+06 9.82827e+06 9.82832e+06 9.82837e+06 9.82839e+06 9.8284e+06 9.82839e+06 9.82837e+06 9.82834e+06 9.8283e+06 9.82825e+06
          9.82819e+06 9.82812e+06 9.82805e+06 9.82797e+06 9.82788e+06 9.8278e+06 9.82771e+06 9.82762e+06 9.82753e+06 9.82744e+06 9.82735e+06 9.82726e+06
          9.82706e+06 9.82685e+06 9.82664e+06 9.82643e+06 9.82622e+06 9.82602e+06 9.82581e+06 9.8256e+06 9.8254e+06 9.82519e+06 9.82499e+06 9.82478e+06
          9.82458e+06 9.82437e+06 9.82416e+06 9.81803e+06 9.81819e+06 9.81836e+06 9.81852e+06 9.81868e+06 9.81884e+06 9.819e+06 9.81916e+06 9.81933e+06
          9.81949e+06 9.81965e+06 9.81981e+06 9.81997e+06 9.82013e+06 9.82029e+06 9.82045e+06 9.82061e+06 9.82076e+06 9.82092e+06 9.82106e+06 9.82121e+06
          9.82135e+06 9.82149e+06 9.82161e+06 9.82173e+06 9.82184e+06 9.82194e+06 9.82202e+06 9.8221e+06 9.82216e+06 9.8222e+06 9.82224e+06 9.82224e+06
          9.82224e+06 9.82223e+06 9.82221e+06 9.82217e+06 9.82213e+06 9.82207e+06 9.82201e+06 9.82195e+06 9.82187e+06 9.8218e+06 9.82171e+06 9.82163e+06
          9.82154e+06 9.82146e+06 9.82137e+06 9.82128e+06 9.82119e+06 9.82099e+06 9.82078e+06 9.82056e+06 9.82035e+06 9.82014e+06 9.81993e+06 9.81972e+06
          9.81951e+06 9.8193e+06 9.81909e+06 9.81888e+06 9.81866e+06 9.81845e+06 9.81824e+06 9.81803e+06 9.8119e+06 9.81206e+06 9.81222e+06 9.81239e+06
          9.81255e+06 9.81271e+06 9.81287e+06 9.81303e+06 9.8132e+06 9.81336e+06 9.81352e+06 9.81368e+06 9.81384e+06 9.814e+06 9.81416e+06 9.81431e+06
          9.81447e+06 9.81462e+06 9.81477e+06 9.81492e+06 9.81506e+06 9.8152e+06 9.81533e+06 9.81545e+06 9.81557e+06 9.81568e+06 9.81578e+06 9.81586e+06
          9.81594e+06 9.816e+06 9.81605e+06 9.81609e+06 9.8161e+06 9.81611e+06 9.8161e+06 9.81608e+06 9.81605e+06 9.81601e+06 9.81596e+06 9.81591e+06
          9.81585e+06 9.81578e+06 9.81571e+06 9.81563e+06 9.81555e+06 9.81547e+06 9.81538e+06 9.8153e+06 9.81521e+06 9.81512e+06 9.81492e+06 9.8147e+06
          9.81449e+06 9.81427e+06 9.81406e+06 9.81384e+06 9.81363e+06 9.81341e+06 9.8132e+06 9.81298e+06 9.81276e+06 9.81255e+06 9.81233e+06 9.81212e+06
          9.8119e+06 9.80577e+06 9.80593e+06 9.80609e+06 9.80626e+06 9.80642e+06 9.80658e+06 9.80674e+06 9.8069e+06 9.80706e+06 9.80723e+06 9.80739e+06
          9.80755e+06 9.8077e+06 9.80786e+06 9.80802e+06 9.80817e+06 9.80833e+06 9.80848e+06 9.80863e+06 9.80877e+06 9.80891e+06 9.80905e+06 9.80918e+06
          9.8093e+06 9.80942e+06 9.80952e+06 9.80962e+06 9.80971e+06 9.80979e+06 9.80986e+06 9.80992e+06 9.80996e+06 9.80997e+06 9.80998e+06 9.80998e+06
          9.80996e+06 9.80994e+06 9.8099e+06 9.80986e+06 9.80981e+06 9.80976e+06 9.80969e+06 9.80962e+06 9.80955e+06 9.80948e+06 9.8094e+06 9.80931e+06
          9.80923e+06 9.80914e+06 9.80905e+06 9.80884e+06 9.80863e+06 9.80841e+06 9.80819e+06 9.80797e+06 9.80775e+06 9.80754e+06 9.80732e+06 9.80709e+06
          9.80687e+06 9.80665e+06 9.80643e+06 9.80621e+06 9.80599e+06 9.80577e+06 9.79964e+06 9.7998e+06 9.79996e+06 9.80012e+06 9.80029e+06 9.80045e+06
          9.80061e+06 9.80077e+06 9.80093e+06 9.8011e+06 9.80126e+06 9.80141e+06 9.80157e+06 9.80173e+06 9.80188e+06 9.80204e+06 9.80219e+06 9.80234e+06
          9.80249e+06 9.80263e+06 9.80277e+06 9.8029e+06 9.80303e+06 9.80316e+06 9.80327e+06 9.80338e+06 9.80348e+06 9.80357e+06 9.80365e+06 9.80373e+06
          9.80379e+06 9.80384e+06 9.80386e+06 9.80386e+06 9.80386e+06 9.80385e+06 9.80383e+06 9.8038e+06 9.80377e+06 9.80372e+06 9.80367e+06 9.80361e+06
          9.80355e+06 9.80348e+06 9.8034e+06 9.80333e+06 9.80324e+06 9.80316e+06 9.80307e+06 9.80298e+06 9.80277e+06 9.80256e+06 9.80234e+06 9.80211e+06
          9.80189e+06 9.80167e+06 9.80144e+06 9.80122e+06 9.80099e+06 9.80077e+06 9.80054e+06 9.80032e+06 9.80009e+06 9.79986e+06 9.79964e+06 9.79351e+06
          9.79367e+06 9.79383e+06 9.794e+06 9.79416e+06 9.79432e+06 9.79448e+06 9.79464e+06 9.7948e+06 9.79496e+06 9.79512e+06 9.79528e+06 9.79544e+06
          9.7956e+06 9.79575e+06 9.7959e+06 9.79606e+06 9.7962e+06 9.79635e+06 9.79649e+06 9.79663e+06 9.79677e+06 9.7969e+06 9.79702e+06 9.79714e+06
          9.79725e+06 9.79735e+06 9.79744e+06 9.79753e+06 9.7976e+06 9.79767e+06 9.79773e+06 9.79775e+06 9.79776e+06 9.79776e+06 9.79775e+06 9.79774e+06
          9.79771e+06 9.79768e+06 9.79764e+06 9.79759e+06 9.79754e+06 9.79747e+06 9.79741e+06 9.79734e+06 9.79726e+06 9.79718e+06 9.7971e+06 9.79701e+06
          9.79692e+06 9.79671e+06 9.79648e+06 9.79626e+06 9.79604e+06 9.79581e+06 9.79558e+06 9.79535e+06 9.79512e+06 9.79489e+06 9.79466e+06 9.79443e+06
          9.7942e+06 9.79397e+06 9.79374e+06 9.79351e+06 9.78738e+06 9.78754e+06 9.7877e+06 9.78786e+06 9.78803e+06 9.78819e+06 9.78835e+06 9.78851e+06
          9.78867e+06 9.78884e+06 9.78899e+06 9.78915e+06 9.78931e+06 9.78947e+06 9.78962e+06 9.78977e+06 9.78992e+06 9.79007e+06 9.79022e+06 9.79036e+06
          9.7905e+06 9.79063e+06 9.79076e+06 9.79089e+06 9.79101e+06 9.79112e+06 9.79122e+06 9.79132e+06 9.79141e+06 9.79149e+06 9.79156e+06 9.79162e+06
          9.79165e+06 9.79166e+06 9.79167e+06 9.79166e+06 9.79165e+06 9.79163e+06 9.7916e+06 9.79156e+06 9.79152e+06 9.79147e+06 9.79141e+06 9.79134e+06
          9.79127e+06 9.7912e+06 9.79112e+06 9.79103e+06 9.79095e+06 9.79086e+06 9.79064e+06 9.79042e+06 9.79019e+06 9.78996e+06 9.78973e+06 9.78949e+06