<?xml version="1.0"?>
<VTKFile type="UnstructuredGrid" version="0.1" byte_order="LittleEndian">
  <UnstructuredGrid>
    <Piece NumberOfCells="1928" NumberOfPoints="5784">
      <PointData Scalars="x^tracer_0">
        <DataArray type="Float32" Name="x^tracer_0" NumberOfComponents="1" format="ascii">
          0 0 0 0 0 0 0 0 0 0 0 0
          0 0 0 0 0 0 0 0 0 0 0 0
          0 0 0 0 0 0 0 0 0 0 0 0
          0 0 0 0 0 0 0 0 0 0 0 0
          0 0 0 0 0 0 0 0 0 0 0 0
          0 0 0 0 0 0 0 0 0 0 1.29528e-18 0
          0 0 0 0 0 0 0 0 0 0 0 0
          0 0 0 0 0 0 0 0 0 0 0 0
          0 0 0 0 0 0 0 0 0 0 0 0
          0 0 0 0 0 0 0 0 0 0 0 0
          0 0 0 0 0 0 0 0 0 0 0 0
          0 0 0 0 0 8.03887e-17 0 8.03887e-17 1.29528e-18 0 8.03887e-17 0
          0 0 0 0 0 0 0 0 0 0 0 0
          0 0 0 0 0 0 0 0 6.5819e-14 0 6.5819e-14 8.03887e-17
          5.61977e-12 6.5819e-14 0 0 0 0 0 0 0 0 0 0
          6.99494e-26 0 0 6.99494e-26 0 6.31984e-23 6.99494e-26 6.31984e-23 1.7382e-24 3.91699e-26 6.99494e-26 1.7382e-24
          4.54472e-24 1.7382e-24 6.31984e-23 3.91699e-26 1.7382e-24 8.28452e-26 2.49706e-27 3.91699e-26 8.28452e-26 2.49706e-27 8.28452e-26 2.76126e-27
          4.54472e-24 8.28452e-26 1.7382e-24 4.54472e-24 1.90117e-24 8.28452e-26 4.93784e-26 2.76126e-27 8.28452e-26 4.93784e-26 8.28452e-26 1.90117e-24
          6.29709e-21 0 0 6.29709e-21 6.31984e-23 0 6.29709e-21 2.08099e-22 6.31984e-23 6.29709e-21 2.25117e-20 2.08099e-22
          6.29709e-21 0 1.29528e-18 6.29709e-21 1.29528e-18 2.25117e-20 4.54472e-24 6.31984e-23 2.08099e-22 2.38855e-22 4.54472e-24 2.08099e-22
          2.38855e-22 1.90117e-24 4.54472e-24 4.93784e-26 1.90117e-24 4.3625e-24 2.38855e-22 4.3625e-24 1.90117e-24 2.38855e-22 2.08099e-22 2.25117e-20
          2.38855e-22 2.25117e-20 3.56895e-22 2.38855e-22 6.57062e-24 4.3625e-24 2.38855e-22 3.56895e-22 6.57062e-24 1.35027e-28 2.49706e-27 2.76126e-27
          4.49894e-29 1.35027e-28 8.28131e-28 2.36128e-31 4.438e-33 5.53769e-32 1.38472e-33 4.438e-33 8.88154e-32 1.35027e-28 2.76126e-27 8.28131e-28
          4.49894e-29 8.28131e-28 8.82942e-29 8.82942e-29 8.28131e-28 1.8159e-27 4.93784e-26 8.28131e-28 2.76126e-27 4.93784e-26 1.8159e-27 8.28131e-28
          2.36128e-31 8.88154e-32 4.438e-33 8.82942e-29 1.8159e-27 2.06448e-27 2.36128e-31 7.80202e-30 8.88154e-32 2.06448e-27 1.8159e-27 7.27124e-26
          7.80202e-30 2.9798e-31 8.88154e-32 2.26475e-30 1.38472e-33 2.41654e-30 3.6591e-29 2.26475e-30 4.82504e-27 1.38472e-33 8.88154e-32 2.41654e-30
          7.22905e-28 2.41654e-30 8.88154e-32 2.26475e-30 2.41654e-30 9.30243e-28 7.22905e-28 8.88154e-32 2.9798e-31 7.22905e-28 9.30243e-28 2.41654e-30
          2.28205e-25 9.30243e-28 7.22905e-28 2.26475e-30 9.30243e-28 4.82504e-27 3.6591e-29 4.82504e-27 2.76323e-28 9.30243e-28 1.62869e-24 4.82504e-27
          2.28205e-25 1.62869e-24 9.30243e-28 4.19231e-26 4.82504e-27 1.62869e-24 4.93784e-26 4.3625e-24 7.27124e-26 4.93784e-26 7.27124e-26 1.8159e-27
          1.63051e-25 7.27124e-26 4.3625e-24 1.63051e-25 4.2039e-27 7.27124e-26 2.06448e-27 7.27124e-26 2.20285e-27 2.20285e-27 7.27124e-26 4.2039e-27
          7.80202e-30 7.01925e-30 2.9798e-31 7.01925e-30 1.74439e-25 2.9798e-31 2.20285e-27 4.2039e-27 3.01001e-28 7.01925e-30 4.45454e-24 1.74439e-25
          1.63051e-25 4.3625e-24 6.57062e-24 1.63051e-25 6.57062e-24 1.32709e-25 1.63051e-25 1.32709e-25 3.48663e-27 3.38007e-24 1.32709e-25 6.57062e-24
          3.38007e-24 4.6951e-26 1.32709e-25 1.63051e-25 3.48663e-27 4.2039e-27 3.01001e-28 4.2039e-27 3.48663e-27 3.01001e-28 3.48663e-27 1.53827e-24
          4.45454e-24 4.94951e-21 1.11627e-22 4.6951e-26 3.48663e-27 1.32709e-25 1.53827e-24 3.48663e-27 4.6951e-26 1.53827e-24 4.6951e-26 9.50903e-19
          7.22905e-28 2.9798e-31 1.74439e-25 2.28205e-25 7.22905e-28 1.74439e-25 2.28205e-25 1.74439e-25 4.09366e-23 1.11627e-22 4.09366e-23 1.74439e-25
          4.45454e-24 1.11627e-22 1.74439e-25 2.28205e-25 3.80604e-22 1.62869e-24 4.19231e-26 1.62869e-24 1.38846e-23 1.38846e-23 1.62869e-24 3.80604e-22
          2.28205e-25 4.09366e-23 3.80604e-22 2.62908e-20 3.80604e-22 4.09366e-23 3.26873e-21 1.38846e-23 3.80604e-22 4.94951e-21 3.14114e-20 1.11627e-22
          2.62908e-20 4.09366e-23 1.11627e-22 2.62908e-20 1.11627e-22 3.14114e-20 4.94951e-21 2.58532e-18 3.14114e-20 2.58532e-18 5.34453e-18 3.14114e-20
          2.62908e-20 3.14114e-20 5.34453e-18 2.62908e-20 1.38913e-19 3.80604e-22 3.26873e-21 3.80604e-22 1.38913e-19 2.62908e-20 5.34453e-18 1.38913e-19
          5.34453e-18 1.46462e-17 1.38913e-19 3.26873e-21 1.38913e-19 6.00901e-19 2.49862e-17 6.00901e-19 1.38913e-19 3.9814e-15 1.29528e-18 8.03887e-17
          2.25117e-20 1.29528e-18 3.31228e-20 3.9814e-15 3.31228e-20 1.29528e-18 3.9814e-15 8.03887e-17 6.5819e-14 3.56895e-22 2.25117e-20 3.31228e-20
          5.99498e-16 3.56895e-22 3.31228e-20 3.38007e-24 6.57062e-24 3.56895e-22 3.38007e-24 3.56895e-22 9.49897e-21 3.9814e-15 5.99498e-16 3.31228e-20
          5.99498e-16 9.49897e-21 3.56895e-22 9.94144e-17 9.49897e-21 5.99498e-16 3.9814e-15 6.5819e-14 6.68408e-14 3.9814e-15 6.68408e-14 9.79839e-16
          6.68408e-14 6.5819e-14 3.07095e-12 6.68408e-14 3.07095e-12 5.83432e-13 6.68408e-14 5.83432e-13 1.66257e-14 9.79839e-16 6.68408e-14 1.66257e-14
          9.99606e-17 9.79839e-16 3.94667e-16 9.79839e-16 1.66257e-14 3.94667e-16 1.40866e-14 3.94667e-16 1.66257e-14 3.38007e-24 3.63226e-23 4.6951e-26
          3.38007e-24 9.49897e-21 3.63226e-23 5.46362e-23 3.63226e-23 9.49897e-21 4.6951e-26 3.63226e-23 4.55947e-25 9.50903e-19 4.6951e-26 4.55947e-25
          9.50903e-19 4.55947e-25 3.71042e-16 5.46362e-23 4.55947e-25 3.63226e-23 3.71042e-16 4.55947e-25 5.30176e-25 5.46362e-23 5.30176e-25 4.55947e-25
          5.46362e-23 9.49897e-21 4.05948e-20 9.94144e-17 4.05948e-20 9.49897e-21 5.46362e-23 4.05948e-20 1.11405e-22 5.46362e-23 1.11405e-22 5.30176e-25
          1.74836e-20 1.11405e-22 4.05948e-20 2.58532e-18 5.15764e-16 5.34453e-18 5.15764e-16 7.824e-16 5.34453e-18 5.34453e-18 7.824e-16 1.46462e-17
          5.15764e-16 5.53173e-14 7.824e-16 3.71042e-16 5.30176e-25 3.44373e-14 5.53173e-14 4.73789e-14 7.824e-16 1.41814e-15 7.824e-16 4.73789e-14
          2.49862e-17 1.38913e-19 1.46462e-17 2.49862e-17 1.46462e-17 1.41814e-15 1.41814e-15 1.46462e-17 7.824e-16 2.49862e-17 1.41814e-15 3.19229e-15
          1.26935e-16 2.49862e-17 3.19229e-15 3.44373e-14 5.30176e-25 1.11405e-22 3.44373e-14 1.11405e-22 1.405e-12 5.53173e-14 3.23494e-12 4.73789e-14
          3.23494e-12 1.10331e-12 4.73789e-14 1.405e-12 1.11405e-22 1.74836e-20 1.405e-12 1.74836e-20 6.50255e-11 3.23494e-12 6.27314e-11 1.10331e-12
          2.73872e-13 1.41814e-15 4.73789e-14 2.73872e-13 3.19229e-15 1.41814e-15 2.73872e-13 4.73789e-14 1.10331e-12 2.73872e-13 9.14692e-15 3.19229e-15
          2.73872e-13 1.10331e-12 4.27904e-11 6.27314e-11 4.27904e-11 1.10331e-12 2.73872e-13 7.87661e-13 9.14692e-15 2.73872e-13 4.27904e-11 7.87661e-13
          2.11038e-17 4.05948e-20 9.94144e-17 2.11038e-17 1.74836e-20 4.05948e-20 2.11038e-17 5.70712e-20 1.74836e-20 2.11399e-17 9.99606e-17 4.17328e-18
          9.99606e-17 3.94667e-16 4.17328e-18 1.07606e-17 4.17328e-18 3.94667e-16 2.11399e-17 4.17328e-18 3.34031e-20 1.07606e-17 2.5503e-19 4.17328e-18
          3.34031e-20 4.17328e-18 2.5503e-19 3.1121e-21 3.34031e-20 2.5503e-19 6.50255e-11 1.74836e-20 5.70712e-20 6.27314e-11 3.80189e-09 4.27904e-11
          6.50255e-11 5.70712e-20 7.51189e-10 6.10002e-18 5.70712e-20 2.11038e-17 7.51189e-10 5.70712e-20 6.10002e-18 1.09503e-07 7.51189e-10 6.10002e-18
          3.80189e-09 1.58971e-09 4.27904e-11 3.06527e-11 7.87661e-13 4.27904e-11 3.06527e-11 4.27904e-11 1.58971e-09 1.14387e-07 1.58971e-09 3.80189e-09
          3.06527e-11 1.58971e-09 7.03018e-10 5.14572e-08 7.03018e-10 1.58971e-09 5.84885e-18 2.11399e-17 3.34031e-20 5.84885e-18 3.34031e-20 2.20129e-22
          8.22869e-08 5.84885e-18 2.20129e-22 3.1121e-21 2.20129e-22 3.34031e-20 3.1121e-21 1.39036e-21 2.20129e-22 4.84759e-07 2.20129e-22 1.39036e-21
          1.14387e-07 5.14572e-08 1.58971e-09 8.22869e-08 2.20129e-22 4.84759e-07 4.85963e-07 5.18359e-08 1.2629e-07 1.7211e-08 5.18359e-08 1.09562e-08
          4.84759e-07 1.39036e-21 1.24795e-06 4.85963e-07 1.09562e-08 5.18359e-08 4.85963e-07 1.20604e-06 1.09562e-08 0 0 0
          0 0 0 0 0 0 0 0 0 0 0 0
          0 0 0 0 0 0 0 0 0 0 0 0
          0 0 0 0 0 0 0 0 0 0 0 0
          0 0 0 0 0 0 0 0 0 0 0 0
          0 0 0 0 0 0 0 0 0 0 0 0
          0 0 0 0 0 0 0 0 0 7.16667e-08 0 0
          5.61977e-12 0 0 5.61977e-12 3.07095e-12 6.5819e-14 5.61977e-12 0 3.91089e-09 7.16667e-08 3.91089e-09 0
          5.61977e-12 3.91089e-09 1.94859e-10 1.30869e-09 1.94859e-10 3.91089e-09 0 0 0 0 1.23988e-06 0
          7.16667e-08 0 1.23988e-06 7.16667e-08 1.23988e-06 4.58826e-07 0 0 3.2838e-05 0 3.2838e-05 1.23988e-06
          0.000479161 3.2838e-05 0 5.48702e-06 4.58826e-07 1.23988e-06 5.48702e-06 1.23988e-06 3.2838e-05 7.16667e-08 4.82068e-08 3.91089e-09
          1.30869e-09 3.91089e-09 4.82068e-08 7.16667e-08 4.58826e-07 4.82068e-08 5.48702e-06 1.17831e-05 4.58826e-07 1.17831e-05 4.82068e-08 4.58826e-07
          1.30869e-09 4.82068e-08 2.28364e-09 1.1682e-06 2.28364e-09 4.82068e-08 0 0 0 0 0 0
          0 0 0 0 0 0 0 0 0 0 0 0
          0 0 0 0 0 0 0 0 0 0 0 0
          0.000479161 0 0 0.00697895 0 0 0.000479161 0 0.00697895 0.000479161 0.00697895 0.0060867
          0.0673978 0 0 0.0673978 0 0 0.0673978 0.00697895 0 0.0673978 0.164924 0.00697895
          0.00697895 0.164924 0.0060867 0 0 0 0 0 0 0 0 0
          0 0 0 0 0 0 0 0 0 0 0 0
          5.78783e-08 2.09988e-07 0 0 0 0 0 0 0 0 0 0.0149557
          2.09988e-07 0 0 0.00138933 0.0149557 0 2.09988e-07 0.00138933 0 0.0673978 0 0.0851611
          0.0673978 0.0851611 0.164924 0 0.0851611 0 0 0.0654274 0.0851611 0.174829 0.0851611 0.0654274
          0.0900184 0.164924 0.212173 0.174829 0.164924 0.0851611 0.174829 0.212173 0.164924 0.174829 0.188579 0.212173
          0 0.0149557 0.0654274 0.174829 0.0654274 0.104811 0.0654274 0.0149557 0.104811 0.00138933 0.00782886 0.0149557
          0.00782886 0.104811 0.0149557 0.00782886 0.0173594 0.104811 0.179632 0.174829 0.104811 0.174829 0.179632 0.188579
          0.0239426 0.188579 0.179632 0.0173594 0.179632 0.104811 0.0173594 0.0239426 0.179632 0.0124771 0 0.0192186
          0.0239426 0.0255233 0.188579 0.000479161 0.00111524 3.2838e-05 0.000479161 0.0060867 0.00111524 5.48702e-06 3.2838e-05 9.15955e-05
          0.00111524 9.15955e-05 3.2838e-05 5.48702e-06 9.15955e-05 1.17831e-05 0.000432934 9.15955e-05 0.00111524 0.0900184 0.00111524 0.0060867
          0.0900184 0.0060867 0.164924 0.0900184 0.0209106 0.00111524 0.000432934 0.00111524 0.0209106 0.000432934 0.0209106 0.00382628
          0.000432934 1.17831e-05 9.15955e-05 1.17831e-05 0.000158652 1.18035e-05 1.1682e-06 4.82068e-08 1.17831e-05 1.1682e-06 1.17831e-05 1.18035e-05
          1.18035e-05 1.75764e-05 1.1682e-06 0.000432934 0.000158652 1.17831e-05 0.000432934 0.00382628 0.000158652 0.000436812 0.000158652 0.00382628
          1.18035e-05 0.000158652 1.75764e-05 1.75764e-05 1.07481e-06 1.1682e-06 0.000436812 1.75764e-05 0.000158652 0.0900184 0.212173 0.133528
          0.0900184 0.051354 0.0209106 0.0900184 0.133528 0.051354 0.133528 0.212173 0.188579 0.133528 0.0410417 0.051354
          0.133528 0.0973696 0.0410417 0.0141139 0.0209106 0.051354 0.0141139 0.00382628 0.0209106 0.0141139 0.00196582 0.00382628
          0.0141139 0.051354 0.0410417 0.0141139 0.0410417 0.00772178 0.0141139 0.00772178 0.00196582 0.133528 0.188579 0.0973696
          0.0255233 0.0973696 0.188579 0.0246108 0.0410417 0.0973696 0.0255233 0.0246108 0.0973696 0.0192186 0 0.0228099
          0.0228099 0 0 0.0228099 0 0.0236028 0.0236028 0 0 0.0234628 0.00772178 0.0410417
          0.0246108 0.0234628 0.0410417 0.0234628 0.0224695 0.00772178 0.0236028 0 0.0232305 0.0232305 0 0.0225289
          0.0232305 0 0 0.000436812 0.00382628 0.00196582 0.0224695 0.00196582 0.00772178 0.000436812 0.00196582 0.000182623
          0.0216321 0.000182623 0.00196582 0.000436812 3.97242e-05 1.75764e-05 0.000436812 0.000182623 3.97242e-05 1.14645e-06 1.75764e-05 3.97242e-05
          1.14645e-06 3.97242e-05 2.83866e-06 3.97242e-05 0.000182623 1.68435e-05 0.0209369 1.68435e-05 0.000182623 3.97242e-05 1.68435e-05 2.83866e-06
          0.0202258 2.83866e-06 1.68435e-05 0.0224695 0.0216321 0.00196582 0.0225289 0 0.0216965 0.0216321 0.0209369 0.000182623
          0.0216965 0 0.0209697 0.0225289 0 0 0 0 0 0.0216965 0 0
          0 0 0 0.0209697 0 0 0.0209369 0.0202258 1.68435e-05 0.0209697 0 0.0202446
          0.0202446 0 0 0 0 0 0 0 0 0 0 0
          5.61977e-12 1.94859e-10 3.07095e-12 2.69586e-11 5.83432e-13 3.07095e-12 2.69586e-11 5.33699e-13 5.83432e-13 2.69586e-11 3.07095e-12 1.94859e-10
          1.94859e-10 1.30869e-09 2.69586e-11 5.33699e-13 1.66257e-14 5.83432e-13 1.40866e-14 1.66257e-14 5.33699e-13 1.40866e-14 4.10928e-16 3.94667e-16
          1.40866e-14 5.33699e-13 1.34043e-14 1.40866e-14 1.34043e-14 4.10928e-16 2.69586e-11 1.68552e-12 5.33699e-13 3.87713e-14 5.33699e-13 1.68552e-12
          3.87713e-14 1.34043e-14 5.33699e-13 7.05841e-16 1.34043e-14 3.87713e-14 2.69586e-11 1.30869e-09 5.78825e-11 1.30869e-09 2.28364e-09 5.78825e-11
          2.69586e-11 5.78825e-11 1.68552e-12 9.29693e-11 2.28364e-09 5.63608e-09 1.1682e-06 5.63608e-09 2.28364e-09 9.29693e-11 5.78825e-11 2.28364e-09
          9.29693e-11 3.00073e-12 5.78825e-11 9.29693e-11 1.28884e-10 3.00073e-12 1.19899e-12 1.68552e-12 5.78825e-11 1.19899e-12 3.87713e-14 1.68552e-12
          1.19899e-12 3.17615e-14 3.87713e-14 2.09939e-15 6.76532e-16 3.87713e-14 2.09939e-15 3.87713e-14 3.17615e-14 1.19899e-12 5.78825e-11 3.00073e-12
          1.19899e-12 3.00073e-12 8.32501e-14 2.55375e-12 8.32501e-14 3.00073e-12 2.55375e-12 3.33346e-11 8.32501e-14 1.19899e-12 8.32501e-14 3.17615e-14
          4.28115e-12 3.17615e-14 8.32501e-14 4.28115e-12 2.86468e-13 3.17615e-14 4.28115e-12 8.32501e-14 3.33346e-11 1.07606e-17 3.94667e-16 4.10928e-16
          7.05841e-16 4.10928e-16 1.34043e-14 1.07606e-17 4.10928e-16 1.40355e-17 7.05841e-16 1.40355e-17 4.10928e-16 1.07606e-17 1.40355e-17 2.5503e-19
          3.1121e-21 2.5503e-19 5.49253e-20 1.63361e-18 2.5503e-19 1.40355e-17 1.63361e-18 5.49253e-20 2.5503e-19 7.05841e-16 4.11731e-17 1.40355e-17
          7.05841e-16 3.87713e-14 6.76532e-16 7.05841e-16 6.76532e-16 4.11731e-17 1.63361e-18 1.40355e-17 1.16879e-16 1.63361e-18 5.10795e-18 5.49253e-20
          1.63361e-18 1.16879e-16 5.10795e-18 4.11731e-17 1.16879e-16 1.40355e-17 4.81106e-16 5.10795e-18 1.16879e-16 3.1121e-21 5.49253e-20 1.55234e-19
          3.1121e-21 1.55234e-19 1.39036e-21 1.55234e-19 6.02813e-21 1.39036e-21 1.71293e-17 1.55234e-19 5.49253e-20 1.24795e-06 1.39036e-21 6.02813e-21
          1.24795e-06 6.02813e-21 3.0225e-06 1.20604e-06 1.70893e-08 1.09562e-08 1.20604e-06 2.91804e-06 1.70893e-08 1.55234e-19 4.89309e-19 6.02813e-21
          3.0225e-06 6.02813e-21 4.89309e-19 2.91804e-06 6.97861e-06 7.56535e-08 1.71293e-17 5.49253e-20 5.10795e-18 1.71293e-17 4.89309e-19 1.55234e-19
          4.81106e-16 2.23152e-15 5.10795e-18 1.71293e-17 5.10795e-18 2.23152e-15 1.71293e-17 2.23152e-15 4.47983e-17 1.71293e-17 4.47983e-17 4.89309e-19
          3.0225e-06 4.89309e-19 7.12315e-06 7.12315e-06 4.89309e-19 3.77861e-18 4.47983e-17 3.77861e-18 4.89309e-19 7.12315e-06 3.77861e-18 1.62384e-05
          4.47983e-17 4.41469e-16 3.77861e-18 1.62384e-05 3.77861e-18 4.41469e-16 2.09939e-15 3.01958e-15 6.76532e-16 4.11731e-17 6.76532e-16 3.01958e-15
          2.09939e-15 3.17615e-14 2.86468e-13 2.09939e-15 2.86468e-13 3.01958e-15 4.11731e-17 1.92239e-14 1.16879e-16 1.92239e-14 4.11731e-17 3.01958e-15
          1.16879e-16 1.92239e-14 4.81106e-16 1.92239e-14 2.78364e-13 4.81106e-16 1.92239e-14 3.01958e-15 2.65554e-12 1.92239e-14 2.74906e-11 2.78364e-13
          2.65554e-12 3.01958e-15 2.86468e-13 4.28115e-12 5.10524e-11 2.86468e-13 2.86468e-13 5.10524e-11 2.80055e-11 2.65554e-12 2.86468e-13 2.80055e-11
          1.92239e-14 2.65554e-12 2.74906e-11 2.65554e-12 2.80055e-11 5.48348e-10 2.65554e-12 4.25769e-09 2.74906e-11 1.1065e-09 2.74906e-11 4.25769e-09
          4.81106e-16 2.78364e-13 2.23152e-15 2.78364e-13 8.57151e-14 2.23152e-15 8.57151e-14 2.23617e-15 2.23152e-15 8.57151e-14 2.78364e-13 8.14984e-12
          8.57151e-14 8.14984e-12 1.49318e-13 4.47983e-17 2.23152e-15 2.23617e-15 4.47983e-17 2.23617e-15 4.41469e-16 1.62384e-05 4.41469e-16 3.52074e-05
          3.6126e-14 4.41469e-16 2.23617e-15 3.52074e-05 4.41469e-16 1.10685e-13 8.57151e-14 1.49318e-13 2.23617e-15 3.6126e-14 2.23617e-15 1.49318e-13
          3.6126e-14 1.10685e-13 4.41469e-16 3.6126e-14 1.17262e-11 1.10685e-13 8.14984e-12 2.78364e-13 2.74906e-11 3.79974e-12 8.14984e-12 1.15538e-10
          1.1065e-09 8.14984e-12 2.74906e-11 1.1065e-09 1.15538e-10 8.14984e-12 3.79974e-12 1.49318e-13 8.14984e-12 3.79974e-12 3.6126e-14 1.49318e-13
          3.79974e-12 1.17262e-11 3.6126e-14 3.79974e-12 1.15538e-10 3.52904e-10 3.79974e-12 1.53437e-09 1.17262e-11 3.79974e-12 3.52904e-10 1.53437e-09
          1.1682e-06 9.44902e-09 5.63608e-09 1.1682e-06 3.81028e-07 9.44902e-09 9.29693e-11 5.63608e-09 1.28884e-10 1.28884e-10 5.63608e-09 9.44902e-09
          1.88461e-08 1.28884e-10 9.44902e-09 1.88461e-08 2.26003e-10 1.28884e-10 3.81028e-07 5.71573e-09 9.44902e-09 1.14645e-06 1.07481e-06 1.75764e-05
          2.7223e-07 1.00299e-08 3.81028e-07 3.81028e-07 1.00299e-08 5.71573e-09 1.88461e-08 9.44902e-09 5.71573e-09 1.88461e-08 5.71573e-09 5.07947e-06
          5.07947e-06 5.71573e-09 1.00299e-08 1.88461e-08 5.07947e-06 0.000182856 2.55375e-12 3.00073e-12 1.28884e-10 2.55375e-12 7.85606e-09 3.33346e-11
          2.55375e-12 1.28884e-10 2.26003e-10 2.55375e-12 2.26003e-10 7.85606e-09 2.88837e-09 3.33346e-11 7.85606e-09 4.28115e-12 3.33346e-11 2.88837e-09
          4.28115e-12 2.88837e-09 5.10524e-11 6.36031e-07 2.88837e-09 7.85606e-09 1.88461e-08 1.74389e-06 2.26003e-10 1.74389e-06 7.85606e-09 2.26003e-10
          1.88461e-08 0.000182856 1.74389e-06 1.74389e-06 0.000182856 0.000204005 1.74389e-06 0.000204005 8.38433e-05 6.36031e-07 7.85606e-09 1.74389e-06
          6.36031e-07 2.43912e-07 2.88837e-09 6.36031e-07 7.1525e-05 2.43912e-07 6.36031e-07 1.74389e-06 8.38433e-05 6.36031e-07 8.38433e-05 0.000142703
          6.36031e-07 0.000142703 7.1525e-05 5.07947e-06 1.00299e-08 0.000375292 2.7223e-07 0.000375292 1.00299e-08 0.0159221 1.14645e-06 2.83866e-06
          0.0159221 2.83866e-06 0.0202258 0.0159799 0.000375292 2.7223e-07 0.0159799 0.0152411 0.000375292 0.014122 5.07947e-06 0.000375292
          0.014122 0.000182856 5.07947e-06 0.0152411 0.014122 0.000375292 0.014122 0.0131206 0.000182856 0.0142457 0.000426955 0.0130928
          0.0159339 0.0202446 0 0.0159339 0 1.39281e-05 0.0159654 0.000372093 0.015204 0.0159654 1.07787e-06 0.000372093
          1.39281e-05 0 0 0 1.39281e-05 0 1.07787e-06 1.25241e-08 0.000372093 0 1.25241e-08 1.07787e-06
          0.015204 0.000426955 0.0142457 0.015204 0.000372093 0.000426955 1.10827e-05 0.000426955 0.000372093 1.10827e-05 0.000372093 1.25241e-08
          1.10827e-05 5.66588e-06 0.000426955 0.000161896 0.000426955 5.66588e-06 1.10827e-05 6.98201e-08 5.66588e-06 0.0131206 0.000204005 0.000182856
          0.012104 8.38433e-05 0.000204005 0.0131206 0.012104 0.000204005 0.0130928 0.000482469 0.0121227 0.0121227 0.000482469 0.000288624
          0.0110078 0.000142703 8.38433e-05 0.012104 0.0110078 8.38433e-05 0.00988177 7.1525e-05 0.000142703 0.0110078 0.00988177 0.000142703
          0.0121227 0.000288624 0.0109923 0.0109923 0.000288624 0.000236806 0.0109923 0.000236806 0.00988371 0.00988371 0.000236806 0.000362666
          0.0130928 0.000426955 0.000161896 0.0130928 0.000161896 0.000482469 9.01622e-06 0.000482469 0.000161896 9.01622e-06 0.000288624 0.000482469
          9.01622e-06 0.000161896 2.23579e-06 0.000161896 5.66588e-06 2.23579e-06 9.01622e-06 2.23579e-06 6.30824e-08 9.01622e-06 6.30824e-08 1.64042e-07
          9.01622e-06 6.21711e-06 0.000288624 0.000236806 0.000288624 6.21711e-06 9.01622e-06 1.64042e-07 6.21711e-06 1.68516e-06 0.000236806 6.21711e-06
          1.68516e-06 1.18569e-05 0.000236806 1.68516e-06 6.21711e-06 1.64042e-07 3.75754e-09 2.80055e-11 5.10524e-11 3.75754e-09 5.10524e-11 2.88837e-09
          3.75754e-09 5.48348e-10 2.80055e-11 3.75754e-09 2.88837e-09 2.43912e-07 3.75754e-09 1.71208e-07 5.48348e-10 3.75754e-09 1.31209e-06 1.71208e-07
          2.65554e-12 5.48348e-10 4.25769e-09 1.71208e-07 4.25769e-09 5.48348e-10 1.28697e-06 1.66921e-07 4.25769e-09 1.28697e-06 4.25769e-09 1.71208e-07
          3.75754e-09 2.43912e-07 1.31209e-06 1.31209e-06 2.43912e-07 7.1525e-05 1.31209e-06 7.1525e-05 0.000151898 1.31209e-06 0.000151898 6.81793e-05
          1.28697e-06 1.71208e-07 6.81793e-05 1.31209e-06 6.81793e-05 1.71208e-07 1.28697e-06 0.000136239 3.19396e-05 0.00765049 6.81793e-05 0.000151898
          1.28697e-06 6.81793e-05 0.000136239 0.00665429 0.000136239 6.81793e-05 1.1065e-09 4.25769e-09 1.66921e-07 1.1065e-09 1.66921e-07 1.1952e-08
          1.1065e-09 1.1952e-08 1.15538e-10 1.1952e-08 3.52904e-10 1.15538e-10 1.36004e-06 1.1952e-08 1.66921e-07 1.36004e-06 7.21686e-07 1.1952e-08
          5.61548e-08 3.52904e-10 1.1952e-08 5.61548e-08 1.53437e-09 3.52904e-10 5.61548e-08 3.297e-07 1.53437e-09 5.61548e-08 1.1952e-08 7.21686e-07
          5.61548e-08 7.21686e-07 2.33827e-05 5.61548e-08 2.33827e-05 3.297e-07 1.24465e-06 3.297e-07 2.33827e-05 1.28697e-06 3.19396e-05 1.66921e-07
          1.36004e-06 1.66921e-07 3.19396e-05 1.36004e-06 3.19396e-05 0.000126055 1.36004e-06 0.000126055 6.8216e-05 0.00565702 0.000126055 3.19396e-05
          0.00565702 3.19396e-05 0.000136239 0.00480457 6.8216e-05 0.000126055 0.00565702 0.00480457 0.000126055 1.36004e-06 6.8216e-05 7.21686e-07
          2.33827e-05 7.21686e-07 6.8216e-05 1.24465e-06 2.33827e-05 7.83881e-05 0.00387962 2.33827e-05 6.8216e-05 0.00480457 0.00387962 6.8216e-05
          0.00387962 7.83881e-05 2.33827e-05 0.00387962 0.00316674 7.83881e-05 0.00988177 0.00879911 7.1525e-05 0.00879911 0.000151898 7.1525e-05
          0.00879911 0.00765049 0.000151898 0.00882734 0.000354727 0.00762011 0.00988371 0.000362666 0.00882734 0.00882734 0.000362666 0.000354727
          0.00762011 0.000354727 0.000107197 0.00765049 0.00665429 6.81793e-05 0.00665429 0.00565702 0.000136239 0.00762011 0.000261797 0.0066801
          0.0066801 0.000261797 0.000251112 0.00762011 0.000107197 0.000261797 5.37699e-06 0.000261797 0.000107197 8.19367e-06 0.000251112 0.000261797
          5.37699e-06 8.19367e-06 0.000261797 0.000236806 1.18569e-05 0.000362666 1.10009e-05 0.000362666 1.18569e-05 1.10009e-05 0.000354727 0.000362666
          1.10009e-05 0.000107197 0.000354727 1.10009e-05 9.55372e-07 0.000107197 1.68516e-06 3.58675e-07 1.18569e-05 1.10009e-05 1.18569e-05 3.58675e-07
          1.10009e-05 3.58675e-07 9.55372e-07 2.89439e-08 9.55372e-07 3.58675e-07 5.37699e-06 0.000107197 9.55372e-07 5.37699e-06 1.80074e-07 8.19367e-06
          5.37699e-06 9.55372e-07 1.06315e-07 1.29514e-08 1.06315e-07 9.55372e-07 5.37699e-06 1.06315e-07 1.80074e-07 3.62489e-09 1.80074e-07 1.06315e-07
          0.0066801 0.000251112 0.00569036 0.00569036 0.000251112 0.000110108 0.00569036 0.000110108 0.00479089 0.00479089 0.000110108 0.000114709
          8.19367e-06 0.000110108 0.000251112 8.19367e-06 1.46552e-06 0.000110108 2.51207e-06 0.000110108 1.46552e-06 0.00479089 0.000114709 0.00389832
          0.00389832 4.99524e-05 0.00316041 0.00389832 0.000114709 4.99524e-05 2.51207e-06 0.000114709 0.000110108 2.51207e-06 4.99524e-05 0.000114709
          2.51207e-06 5.7479e-07 4.99524e-05 8.19367e-06 1.80074e-07 1.46552e-06 2.56707e-08 1.46552e-06 1.80074e-07 2.56707e-08 3.94822e-08 1.46552e-06
          2.56707e-08 1.80074e-07 2.69239e-09 3.62489e-09 2.69239e-09 1.80074e-07 2.56707e-08 5.8112e-10 3.94822e-08 2.56707e-08 2.69239e-09 5.8112e-10
          2.51207e-06 1.46552e-06 3.94822e-08 2.51207e-06 3.94822e-08 3.52809e-08 2.51207e-06 3.52809e-08 5.7479e-07 9.53482e-09 5.7479e-07 3.52809e-08
          6.3829e-10 3.52809e-08 3.94822e-08 6.3829e-10 3.94822e-08 5.8112e-10 6.3829e-10 4.42494e-10 3.52809e-08 9.53482e-09 3.52809e-08 4.42494e-10
          4.34966e-26 3.6591e-29 2.76323e-28 4.34966e-26 2.76323e-28 1.16841e-23 4.19231e-26 2.76323e-28 4.82504e-27 4.19231e-26 1.16841e-23 2.76323e-28
          4.34966e-26 1.16841e-23 6.39254e-23 6.74738e-25 4.34966e-26 6.39254e-23 6.74738e-25 6.39254e-23 5.49311e-20 4.41036e-22 6.74738e-25 5.49311e-20
          4.41036e-22 5.49311e-20 3.55856e-21 4.19231e-26 1.38846e-23 1.16841e-23 1.16841e-23 1.38846e-23 4.65922e-21 3.26873e-21 4.65922e-21 1.38846e-23
          2.49702e-20 1.16841e-23 4.65922e-21 2.49702e-20 6.39254e-23 1.16841e-23 3.26873e-21 8.41465e-19 4.65922e-21 3.26873e-21 6.00901e-19 8.41465e-19
          8.41465e-19 4.29359e-18 4.65922e-21 2.49702e-20 4.65922e-21 4.29359e-18 6.04526e-16 4.29359e-18 8.41465e-19 2.49702e-20 5.49311e-20 6.39254e-23
          2.49702e-20 1.81014e-17 5.49311e-20 1.15218e-18 3.55856e-21 5.49311e-20 1.15218e-18 5.49311e-20 1.81014e-17 2.49702e-20 4.29359e-18 1.81014e-17
          1.81014e-17 4.29359e-18 8.62228e-17 1.15218e-18 1.81014e-17 2.80408e-16 3.91388e-23 4.41036e-22 3.55856e-21 3.91388e-23 3.55856e-21 1.48768e-19
          1.39572e-21 3.91388e-23 1.48768e-19 1.39572e-21 1.48768e-19 3.96822e-19 7.66764e-21 1.39572e-21 3.96822e-19 1.15218e-18 1.48768e-19 3.55856e-21
          1.15218e-18 6.39399e-17 1.48768e-19 1.66954e-18 1.48768e-19 6.39399e-17 1.15218e-18 2.80408e-16 6.39399e-17 1.66954e-18 3.96822e-19 1.48768e-19
          1.66954e-18 2.53252e-16 3.96822e-19 1.66954e-18 6.39399e-17 2.53252e-16 3.96822e-19 2.53252e-16 6.95273e-18 6.00901e-19 2.49862e-17 1.26935e-16
          1.26935e-16 8.41465e-19 6.00901e-19 6.04526e-16 8.41465e-19 1.26935e-16 1.26935e-16 3.19229e-15 9.14692e-15 6.04526e-16 8.62228e-17 4.29359e-18
          6.04526e-16 1.26935e-16 7.12325e-14 1.26935e-16 9.14692e-15 7.12325e-14 8.37081e-14 9.14692e-15 7.87661e-13 8.37081e-14 7.12325e-14 9.14692e-15
          8.37081e-14 7.78368e-12 7.12325e-14 6.04526e-16 7.12325e-14 7.6587e-15 6.41653e-13 7.6587e-15 7.12325e-14 5.71251e-15 1.81014e-17 8.62228e-17
          6.04526e-16 7.6587e-15 8.62228e-17 5.71251e-15 8.62228e-17 7.6587e-15 5.71251e-15 2.80408e-16 1.81014e-17 5.71251e-15 3.29889e-14 2.80408e-16
          5.71251e-15 7.6587e-15 6.43393e-13 6.41653e-13 6.43393e-13 7.6587e-15 5.71251e-15 6.43393e-13 3.29889e-14 3.06527e-11 7.78368e-12 7.87661e-13
          7.78368e-12 8.37081e-14 7.87661e-13 9.12388e-12 7.12325e-14 7.78368e-12 3.06527e-11 7.03018e-10 7.78368e-12 9.12388e-12 7.78368e-12 7.03018e-10
          9.12388e-12 7.03018e-10 3.55591e-10 6.41653e-13 7.12325e-14 9.12388e-12 6.41653e-13 9.12388e-12 6.12169e-11 9.12388e-12 3.55591e-10 6.12169e-11
          1.80542e-08 7.03018e-10 5.14572e-08 1.80542e-08 3.55591e-10 7.03018e-10 5.07123e-09 3.55591e-10 1.80542e-08 1.7211e-08 1.09562e-08 1.70893e-08
          1.7211e-08 1.70893e-08 1.08265e-10 5.0566e-09 1.7211e-08 1.08265e-10 5.07123e-09 6.12169e-11 3.55591e-10 1.10587e-09 6.12169e-11 5.07123e-09
          6.41653e-13 6.12169e-11 6.43393e-13 6.12169e-11 2.10257e-11 6.43393e-13 2.3109e-12 3.29889e-14 6.43393e-13 2.3109e-12 6.43393e-13 2.10257e-11
          1.10587e-09 2.10257e-11 6.12169e-11 1.60207e-10 2.10257e-11 1.10587e-09 1.60207e-10 2.3109e-12 2.10257e-11 1.46886e-14 6.39399e-17 2.80408e-16
          2.53252e-16 6.39399e-17 1.46886e-14 1.46886e-14 2.80408e-16 3.29889e-14 1.46886e-14 3.29889e-14 1.52982e-12 1.46886e-14 2.38802e-14 2.53252e-16
          1.40274e-15 2.53252e-16 2.38802e-14 2.3109e-12 1.52982e-12 3.29889e-14 1.46886e-14 1.52982e-12 2.38802e-14 1.60207e-10 1.52982e-12 2.3109e-12
          1.86535e-11 1.52982e-12 1.60207e-10 1.86535e-11 5.15642e-13 1.52982e-12 2.38802e-14 1.52982e-12 5.15642e-13 2.59116e-13 2.38802e-14 5.15642e-13
          7.66764e-21 3.96822e-19 6.95273e-18 1.40274e-15 6.95273e-18 2.53252e-16 2.59116e-13 1.40274e-15 2.38802e-14 1.03419e-09 1.08265e-10 1.70893e-08
          2.91804e-06 7.56535e-08 1.70893e-08 1.03419e-09 1.70893e-08 7.56535e-08 1.03419e-09 7.56535e-08 1.29148e-07 5.0566e-09 1.08265e-10 5.24812e-12
          1.03419e-09 5.24812e-12 1.08265e-10 1.10372e-09 5.0566e-09 5.24812e-12 1.03419e-09 8.5827e-10 5.24812e-12 4.73384e-11 1.79245e-13 5.24812e-12
          6.97861e-06 1.29148e-07 7.56535e-08 6.97861e-06 1.58172e-05 1.29148e-07 1.03419e-09 1.29148e-07 8.5827e-10 7.76348e-09 8.5827e-10 1.29148e-07
          1.58172e-05 4.96453e-07 1.29148e-07 7.76348e-09 1.29148e-07 4.96453e-07 4.73384e-11 5.24812e-12 8.5827e-10 4.73384e-11 8.5827e-10 7.76348e-09
          4.73384e-11 7.76348e-09 6.07242e-09 1.10372e-09 5.24812e-12 1.79245e-13 1.76746e-10 1.10372e-09 1.79245e-13 1.76746e-10 1.79245e-13 1.77407e-13
          4.73384e-11 6.97212e-13 1.79245e-13 4.73384e-11 1.17041e-10 6.97212e-13 6.97212e-13 1.77407e-13 1.79245e-13 3.14976e-14 1.77407e-13 6.97212e-13
          3.14976e-14 6.97212e-13 8.68065e-13 1.58172e-05 3.40293e-05 4.96453e-07 7.76348e-09 4.96453e-07 7.11222e-07 3.40293e-05 7.11222e-07 4.96453e-07
          3.52074e-05 1.10685e-13 7.3519e-05 7.3519e-05 1.10685e-13 1.17262e-11 3.40293e-05 6.9379e-05 7.11222e-07 6.9379e-05 1.81573e-06 7.11222e-07
          7.76348e-09 7.11222e-07 6.07242e-09 4.73384e-11 6.07242e-09 1.17041e-10 1.81575e-08 1.17041e-10 6.07242e-09 1.81575e-08 6.07242e-09 7.11222e-07
          1.81575e-08 7.11222e-07 1.81573e-06 7.3519e-05 1.17262e-11 0.000143621 6.9379e-05 0.000148724 1.81573e-06 0.000148724 6.05689e-06 1.81573e-06
          0.000143621 1.17262e-11 1.53437e-09 0.000143621 1.53437e-09 0.000290984 0.000148724 0.00030003 6.05689e-06 1.81575e-08 1.81573e-06 1.0812e-07
          1.0812e-07 1.81573e-06 6.05689e-06 1.81575e-08 1.0812e-07 1.38353e-09 0.00030003 6.48356e-06 6.05689e-06 1.0812e-07 6.05689e-06 6.48356e-06