<?xml version="1.0"?>
<VTKFile type="UnstructuredGrid" version="0.1" byte_order="LittleEndian">
  <UnstructuredGrid>
    <Piece NumberOfCells="3200" NumberOfPoints="1681">
      <PointData Scalars="p">
        <DataArray type="Float32" Name="p" NumberOfComponents="1" format="ascii">
          0.0245035 0.0266342 0.000183254 -0.00199904 0.0465635 0.0255763 0.0513305 0.0680244 0.0745998 0.0476349 0.070394 -0.00356824
          0.02599 -0.00496103 0.0467444 0.0695065 0.0881242 0.0962327 0.10709 0.116372 0.0912675 0.110973 0.124876 0.135004
          0.1415 0.129305 0.0897809 0.109172 0.12719 0.146328 0.143996 -0.00596863 0.026515 0.046497 0.0269242 -0.00673282
          0.046166 0.0698586 0.0698415 0.0272633 -0.00723954 0.045959 0.0275143 0.0699494 0.0458106 0.0700177 0.0901323 0.109814
          0.0898252 0.109507 0.127978 0.144944 0.127542 0.144453 0.089786 0.109597 0.089695 0.109561 0.127632 0.144607
          0.127532 0.15216 0.156956 0.16786 0.162032 0.171243 0.182122 0.184357 0.194966 0.176428 0.189522 0.15955
          0.173869 0.186949 0.196292 0.20641 0.207044 0.201319 0.216471 0.216606 0.225167 0.211826 0.221048 0.198793
          0.209401 0.218772 0.160608 0.160056 0.175007 0.188133 0.174419 0.187524 0.16024 0.144507 0.160113 0.17464
          0.187768 0.174505 0.187623 0.199991 0.210584 0.199378 0.209981 0.219915 0.219335 0.199641 0.210254 0.199493
          0.219611 0.210106 0.219467 -0.00752144 0.0276829 -0.00759566 0.045732 0.0700886 -0.007483 0.0277707 0.0457109 0.027782
          -0.007202 0.0457425 0.0701451 0.07019 0.0896559 0.109583 0.127524 0.144526 0.0896322 0.109595 0.0896315 0.109615
          0.127499 0.144509 0.127496 0.144516 0.0277217 -0.00677096 0.0458201 0.0275952 0.070221 0.0459382 0.0702383 -0.00620742
          0.0274083 -0.00552851 0.0460912 0.0702418 0.0896479 0.109636 0.0896797 0.109658 0.127498 0.144521 0.12751 0.0897242
          0.109679 0.127528 0.144533 0.144548 0.160132 0.174538 0.187664 0.160101 0.1601 0.174507 0.187628 0.174511
          0.187632 0.199542 0.210162 0.219528 0.199506 0.210125 0.199514 0.210135 0.219493 0.219506 0.160097 0.160102
          0.174508 0.187625 0.174514 0.187629 0.160111 0.174521 0.187633 0.199507 0.210128 0.199511 0.219499 0.210132
          0.219504 0.199515 0.210135 0.219507 0.224972 0.232515 0.232136 0.23853 0.22899 0.235657 0.238092 0.243229
          0.242832 0.241054 0.226907 0.233805 0.239464 0.245184 0.243885 0.246627 0.246351 0.248741 0.248053 0.248641
          0.249585 0.249695 0.249175 0.249664 0.250021 0.247065 0.249004 0.249701 0.227985 0.234796 0.227439 0.234296
          0.24035 0.244649 0.239904 0.244266 0.227712 0.234559 0.227575 0.234432 0.240153 0.244494 0.240038 0.247694
          0.24738 0.249487 0.250029 0.249247 0.249867 0.247584 0.244394 0.2475 0.249423 0.250011 0.249356 0.249963
          0.249506 0.247526 0.248068 0.249128 0.244653 0.245373 0.24057 0.24699 0.243609 0.249153 0.24736 0.244321
          0.241414 0.235294 0.236185 0.228837 0.23899 0.233136 0.22968 0.221216 0.221889 0.226052 0.240033 0.234496
          0.227708 0.217739 0.219667 0.249322 0.247365 0.249239 0.247365 0.244162 0.244244 0.24935 0.24744 0.249321
          0.244282 0.247431 0.244292 0.239712 0.234017 0.239875 0.234259 0.227078 0.218896 0.227396 0.219283 0.239875
          0.23422 0.239905 0.23427 0.227319 0.219169 0.227386 0.22764 0.234499 0.240106 0.244461 0.227607 0.234469
          0.227623 0.234487 0.24008 0.244439 0.2401 0.244461 0.247564 0.249417 0.25002 0.247547 0.24757 0.249405
          0.250013 0.249429 0.250037 0.227617 0.234483 0.227623 0.23449 0.240097 0.24446 0.240106 0.227626 0.234494
          0.24011 0.24447 0.244475 0.247571 0.247582 0.249432 0.250042 0.249444 0.250055 0.247588 0.249451 0.250063
          0.249372 0.247475 0.244328 0.249371 0.247479 0.249395 0.247502 0.244337 0.24436 0.239933 0.234288 0.227395
          0.219254 0.219253 0.239947 0.234307 0.239968 0.234326 0.227418 0.21928 0.227435 0.219294 0.249402 0.247511
          0.249415 0.24437 0.247525 0.244385 0.249424 0.247535 0.244396 0.23998 0.234339 0.239995 0.234354 0.227449
          0.21931 0.227464 0.240006 0.234367 0.227477 0.219324 0.219338 -0.00475091 0.0271671 0.0462741 0.0268779 -0.00389097
          0.0464821 0.070232 0.0702094 0.0265472 -0.00296475 0.0467106 0.0261817 0.070175 0.0469551 0.0701295 0.0897795 0.1097
          0.0898434 0.109718 0.127552 0.144564 0.12758 0.144582 0.0899142 0.109735 0.0899903 0.109749 0.127611 0.144601
          0.127645 -0.00198808 0.0257883 -0.000976563 0.0472115 0.0700742 5.43927e-05 0.0253737 0.0474757 0.0249448 0.00108952 0.0477436
          0.0700103 0.0699389 0.09007 0.10976 0.12768 0.14462 0.14464 0.0901521 0.109768 0.0902352 0.109773 0.127716
          0.144658 0.127753 0.144676 0.160124 0.16014 0.174532 0.187641 0.174545 0.187652 0.160158 0.160178 0.174559
          0.187664 0.174575 0.187678 0.199522 0.210141 0.199531 0.210149 0.219513 0.21952 0.199542 0.210158 0.199554
          0.219529 0.210169 0.219539 0.1602 0.174592 0.187694 0.160222 0.160245 0.174609 0.18771 0.174626 0.187727
          0.199568 0.210181 0.219551 0.199582 0.210195 0.199597 0.210209 0.219563 0.219576 0.0245086 0.00211373 0.0480113
          0.0240721 0.0698615 0.0482749 0.0697795 0.00311201 0.0236422 0.0040696 0.0485308 0.0696942 0.090318 0.109775 0.0903993
          0.109774 0.127789 0.144693 0.127824 0.0904781 0.109771 0.127858 0.144708 0.144722 0.0049715 0.0232258 0.0487751
          0.0228301 0.00580358 0.0490043 0.069607 0.0695197 0.0224609 0.00655005 0.0492139 0.0221273 0.0694328 0.0494021 0.0693495
          0.090553 0.109765 0.0906233 0.109756 0.12789 0.144735 0.12792 0.144745 0.0906872 0.109745 0.0907451 0.109732
          0.127947 0.144754 0.127971 0.160267 0.16029 0.174644 0.187745 0.174661 0.187762 0.160311 0.174677 0.18778
          0.199612 0.210223 0.199628 0.219589 0.210239 0.219603 0.199644 0.210254 0.219618 0.160332 0.160351 0.174693
          0.187797 0.174708 0.187813 0.16037 0.144761 0.160387 0.174722 0.18783 0.174735 0.187845 0.199659 0.210269
          0.199675 0.210285 0.219632 0.219647 0.19969 0.2103 0.199705 0.219662 0.210315 0.219676 0.227632 0.2345
          0.227639 0.234507 0.240117 0.244482 0.240124 0.24449 0.227647 0.234515 0.227656 0.234524 0.240132 0.244498
          0.240141 0.247597 0.247604 0.24946 0.250073 0.249468 0.250082 0.247613 0.244507 0.247622 0.249478 0.250091
          0.249487 0.250101 0.227667 0.234534 0.24015 0.244516 0.227678 0.234545 0.227691 0.234557 0.240161 0.244527
          0.240172 0.244537 0.247632 0.249497 0.250111 0.247642 0.247652 0.249507 0.250121 0.249517 0.250131 0.249435
          0.247547 0.249445 0.247557 0.244408 0.244419 0.249455 0.247567 0.249465 0.24443 0.247578 0.244441 0.240019
          0.23438 0.24003 0.234392 0.22749 0.219352 0.227503 0.219365 0.240042 0.234405 0.240054 0.234417 0.227517
          0.21938 0.22753 0.249475 0.247589 0.244452 0.249485 0.247599 0.249496 0.24761 0.244464 0.244475 0.240066
          0.23443 0.227544 0.219394 0.219409 0.240078 0.234443 0.24009 0.234455 0.227558 0.219425 0.227571 0.219439
          0.227704 0.234569 0.227717 0.234582 0.240184 0.244549 0.240196 0.227731 0.234595 0.240208 0.24456 0.244572
          0.247663 0.247674 0.249528 0.250142 0.249538 0.250152 0.247686 0.249549 0.250163 0.227745 0.234608 0.227759
          0.234621 0.240221 0.244584 0.240233 0.244596 0.227773 0.234635 0.227787 0.234648 0.240246 0.244608 0.240258
          0.247697 0.247708 0.24956 0.250173 0.24957 0.250182 0.247719 0.244618 0.247728 0.24958 0.250191 0.249588
          0.250198 0.249506 0.247621 0.249517 0.244486 0.247631 0.244496 0.249527 0.247641 0.244506 0.240101 0.234468
          0.240112 0.234479 0.227585 0.219454 0.227597 0.240122 0.23449 0.227608 0.219468 0.21948 0.249536 0.24765
          0.249545 0.247658 0.244515 0.244522 0.249552 0.247665 0.249558 0.244528 0.247669 0.244531 0.240131 0.234499
          0.240138 0.234506 0.227618 0.219491 0.227625 0.219499 0.240143 0.234511 0.240145 0.234512 0.227631 0.219505
          0.227631 0.212442 0.212811 0.202536 0.208206 0.202429 0.191502 0.190759 0.179376 0.197447 0.185486 0.210374
          0.199821 0.188025 0.17775 0.16613 0.163488 0.172288 0.151868 0.147788 0.13643 0.157937 0.142279 0.174946
          0.160663 0.145014 0.209474 0.209925 0.198806 0.18691 0.199315 0.187466 0.209775 0.209875 0.199131 0.18725
          0.199244 0.187374 0.173752 0.159407 0.174346 0.160026 0.143721 0.144353 0.174102 0.159754 0.174235 0.144061
          0.15989 0.144202 0.131002 0.120184 0.112441 0.10249 0.125639 0.107395 0.093409 0.0846306 0.0714728 0.0887818
          0.128324 0.109937 0.0911583 0.0674672 0.0694088 0.0643793 0.0510706 0.0460042 0.0478354 0.0240943 0.0230296 0.00534385
          0.00868344 0.0220692 0.00349693 0.0496703 0.0223837 0.00537839 0.127018 0.108636 0.127646 0.109237 0.0899199 0.0681724
          0.0904976 0.0686174 0.127331 0.10891 0.127464 0.109044 0.0901631 0.0682538 0.0902771 0.0487117 0.0492522 0.0212008
          0.00516758 0.0210635 0.00637897 0.0489836 0.068347 0.0491073 0.0205723 0.00656945 0.0204584 0.00710825 0.209864 0.199223
          0.187342 0.209894 0.209905 0.199256 0.187375 0.199264 0.187378 0.174194 0.159836 0.144142 0.174229 0.159868
          0.174231 0.159861 0.144179 0.144175 0.20992 0.209934 0.19928 0.187394 0.199294 0.187405 0.209948 0.199308
          0.187419 0.174248 0.159874 0.17426 0.144194 0.159881 0.144209 0.174277 0.159894 0.144231 0.127385 0.10897
          0.090173 0.0682639 0.127409 0.109009 0.127388 0.109008 0.0901762 0.0683127 0.0901304 0.0683389 0.0490017 0.0203292
          0.00721255 0.0489801 0.0488862 0.0203653 0.00730281 0.0204604 0.00717125 0.127393 0.109039 0.127391 0.109068 0.0901104
          0.0684125 0.090081 0.127397 0.109109 0.0900587 0.0684957 0.0686023 0.0487984 0.0486807 0.0206521 0.00693942 0.020908
          0.00656376 0.048553 0.0212308 0.00608446 0.209962 0.209976 0.199323 0.187434 0.199339 0.18745 0.209992 0.210007
          0.199356 0.187467 0.199374 0.187485 0.174294 0.159908 0.174314 0.159925 0.144255 0.144282 0.174335 0.159943
          0.174357 0.144312 0.159964 0.144345 0.210024 0.199392 0.187505 0.21004 0.210057 0.199411 0.187525 0.19943
          0.187546 0.174381 0.159986 0.144379 0.174405 0.16001 0.17443 0.160035 0.144415 0.144451 0.127404 0.109154
          0.127415 0.109205 0.0900361 0.0687218 0.0900166 0.0688554 0.12743 0.109261 0.127447 0.109321 0.0899991 0.068999
          0.0899843 0.0484091 0.0482554 0.0216067 0.00550104 0.0220302 0.0048334 0.0480927 0.0691508 0.0479245 0.022492 0.00409196
          0.0229847 0.00329202 0.127467 0.109383 0.0899723 0.0693083 0.127489 0.109448 0.127513 0.109513 0.0899635 0.0694693
          0.0899581 0.0696314 0.0477533 0.0235004 0.00244686 0.0475823 0.0474143 0.0240313 0.00157099 0.0245696 0.000678614 0.210073
          0.210088 0.199448 0.187566 0.199466 0.187586 0.210102 0.199482 0.187605 0.174455 0.160061 0.17448 0.144488
          0.160086 0.144524 0.174502 0.160111 0.144559 0.210114 0.210124 0.199496 0.187621 0.199508 0.187635 0.21013
          0.219505 0.210132 0.199516 0.187646 0.199518 0.187651 0.174523 0.160134 0.174541 0.160155 0.144591 0.14462
          0.174554 0.160173 0.174562 0.144644 0.160185 0.144662 0.127539 0.109579 0.127567 0.109643 0.0899564 0.0697924
          0.0899587 0.127595 0.109705 0.0899651 0.06995 0.0701018 0.0472524 0.0470998 0.0251077 -0.000215684 0.0256378 -0.00109724
          0.0469595 0.0261522 -0.00195119 0.127623 0.109763 0.12765 0.109817 0.0899759 0.0702454 0.0899911 0.0703783 0.127676
          0.109864 0.127699 0.109904 0.0900105 0.070498 0.0900338 0.0468348 0.0467287 0.0266431 -0.00276253 0.0271027 -0.00351606
          0.0466443 0.0706015 0.0465846 0.0275233 -0.00419644 0.0278967 -0.00478816 0.00719882 0.0218308 0.00773008 0.0495608 0.0692672
          0.00813991 0.0215884 0.0496948 0.0213842 0.00839136 0.0497819 0.0691954 0.0691175 0.0907925 0.109716 0.127991 0.144765
          0.0908357 0.109702 0.0908572 0.109676 0.12801 0.144771 0.128017 0.144767 0.0212688 0.00851393 0.0498552 0.0211564
          0.0690715 0.0498324 0.0689809 0.00840179 0.0212323 0.00821542 0.0498657 0.0690056 0.0908909 0.109671 0.0908611 0.109617
          0.12804 0.144781 0.128013 0.0909224 0.109665 0.128082 0.144751 0.144814 0.160401 0.174746 0.18786 0.160417
          0.160424 0.174759 0.187876 0.174765 0.187886 0.199719 0.21033 0.219691 0.199734 0.210345 0.199746 0.210359
          0.219705 0.21972 0.160447 0.16043 0.174786 0.187909 0.174773 0.187903 0.160499 0.174837 0.187965 0.199766
          0.210379 0.199765 0.219737 0.210382 0.219744 0.19982 0.21043 0.219783 0.00758819 0.0211441 0.0496321 0.0215821
          0.00715861 0.0497524 0.0688208 0.069084 0.0212404 0.00564578 0.0489914 0.0225539 0.0684883 0.0496829 0.0696136 0.0907507
          0.109498 0.0910083 0.109781 0.127936 0.144678 0.128232 0.144972 0.0903503 0.109146 0.0914734 0.110402 0.127605
          0.144365 0.128889 0.00527584 0.0210839 0.00178612 0.04744 0.0674775 0.00166368 0.0249318 0.0500863 0.0193259 -0.00842651
          0.0442749 0.0716396 0.0642645 0.0890589 0.107892 0.126284 0.14567 0.143034 0.0934451 0.112955 0.0851002 0.103262
          0.13157 0.148558 0.121196 0.137531 0.160381 0.160671 0.174732 0.187876 0.175007 0.188132 0.160093 0.161377
          0.174464 0.187634 0.175702 0.188801 0.199747 0.210373 0.199975 0.210571 0.219742 0.219905 0.199529 0.210182
          0.200601 0.219579 0.211143 0.22041 0.158764 0.17316 0.186378 0.164311 0.153051 0.178649 0.191678 0.167336
          0.180592 0.19834 0.209082 0.218584 0.203361 0.21373 0.192698 0.203698 0.222781 0.213552 0.227801 0.234662
          0.240271 0.24463 0.227815 0.234674 0.22783 0.234688 0.240282 0.244639 0.240296 0.244652 0.247739 0.249597
          0.250205 0.247745 0.247757 0.249601 0.250207 0.249612 0.250216 0.227844 0.234699 0.227855 0.234713 0.240303
          0.244655 0.240319 0.227883 0.234731 0.240325 0.244673 0.244667 0.247756 0.247775 0.249606 0.250206 0.249626
          0.250226 0.247758 0.249597 0.250185 0.249564 0.247673 0.244534 0.249563 0.247671 0.24957 0.247675 0.244529
          0.244531 0.240147 0.234512 0.22763 0.219504 0.24014 0.234503 0.240139 0.2345 0.22762 0.219492 0.227614
          0.219484 0.249556 0.247656 0.249575 0.244508 0.247675 0.244525 0.249523 0.247612 0.244452 0.240113 0.23447
          0.240126 0.23448 0.227581 0.219448 0.227587 0.240044 0.23439 0.227491 0.219449 0.219348 0.227859 0.234722
          0.227984 0.234807 0.240332 0.24469 0.240376 0.244691 0.227726 0.23462 0.228415 0.235156 0.240263 0.244652
          0.240637 0.247795 0.247753 0.249647 0.250247 0.249563 0.250122 0.247789 0.24486 0.247827 0.249672 0.250302
          0.249541 0.250004 0.226853 0.233881 0.239668 0.244211 0.23053 0.236981 0.22226 0.229802 0.242144 0.246026
          0.236168 0.241343 0.247507 0.249553 0.250345 0.248635 0.245313 0.249979 0.250065 0.248063 0.24958 0.249596
          0.247694 0.249432 0.247492 0.244541 0.244305 0.249679 0.247801 0.249217 0.244669 0.247185 0.243908 0.240137
          0.234485 0.239871 0.234193 0.227584 0.219435 0.22727 0.219106 0.240283 0.234643 0.239389 0.233631 0.227749
          0.2196 0.226636 0.249882 0.248159 0.245174 0.248902 0.246496 0.249849 0.248856 0.242857 0.246584 0.240924
          0.235405 0.228614 0.218407 0.220549 0.237991 0.231906 0.243021 0.238149 0.22461 0.216111 0.231954 0.224421
          0.21013 0.199517 0.187652 0.210119 0.210108 0.199505 0.187642 0.199493 0.18763 0.174564 0.160192 0.144672
          0.174555 0.160191 0.174542 0.160182 0.144672 0.144662 0.210071 0.210067 0.199454 0.187593 0.199444 0.187577
          0.209962 0.199337 0.187472 0.174505 0.160153 0.174482 0.144631 0.160129 0.144598 0.174378 0.160036 0.144504
          0.127718 0.109933 0.0900605 0.0706858 0.12773 0.109949 0.127736 0.109951 0.0900894 0.0707474 0.0901191 0.0707824
          0.0465524 0.0282149 -0.00527554 0.0465503 0.0465805 0.0284694 -0.00564272 0.0286518 -0.00587369 0.127726 0.109932 0.12771
          0.109894 0.0901459 0.0707856 0.0901692 0.127647 0.109813 0.090172 0.0707525 0.0706715 0.0466441 0.0467418 0.0287525
          -0.00595238 0.0287618 -0.00586267 0.0468696 0.0286679 -0.00558909 0.210041 0.209701 0.199404 0.187523 0.199059 0.187183
          0.210198 0.208948 0.199544 0.187639 0.198261 0.186351 0.174408 0.160049 0.174077 0.159739 0.144486 0.144196
          0.174487 0.160089 0.173223 0.144461 0.158881 0.143336 0.211206 0.200583 0.188678 0.206418 0.215533 0.195538
          0.183481 0.205275 0.193631 0.175489 0.161016 0.145263 0.170255 0.155871 0.180585 0.16612 0.14034 0.150222
          0.127629 0.109742 0.127391 0.109504 0.090178 0.0705489 0.0900728 0.0703245 0.12758 0.10956 0.126584 0.108683
          0.0901293 0.0701409 0.0894925 0.0470269 0.0471805 0.0284601 -0.00511689 0.0281166 -0.00443695 0.0473687 0.0695031 0.0473132
          0.0276434 -0.00354414 0.0269327 -0.00247232 0.128231 0.109952 0.0903904 0.0698184 0.123673 0.105891 0.132874 0.11407
          0.0869896 0.0670729 0.093802 0.0721053 0.0476314 0.0262782 -0.00125092 0.0458589 0.0490118 0.0244962 -0.000353491 0.024977
          0.000153451
        </DataArray>
        <DataArray type="Float32" Name="rho" NumberOfComponents="1" format="ascii">
          1 1 1 1 1 1 1 1 1 1 1 1
          1 1 1 1 1 1 1 1 1 1 1 1
          1 1 1 1 1 1 1 1 1 1 1 1
          1 1 1 1 1 1 1 1 1 1 1 1
          1 1 1 1 1 1 1 1 1 1 1 1
          1 1 1 1 1 1 1 1 1 1 1 1
          1 1 1 1 1 1 1 1 1 1 1 1
          1 1 1 1 1 1 1 1 1 1 1 1
          1 1 1 1 1 1 1 1 1 1 1 1
          1 1 1 1 1 1 1 1 1 1 1 1
          1 1 1 1 1 1 1 1 1 1 1 1
          1 1 1 1 1 1 1 1 1 1 1 1
          1 1 1 1 1 1 1 1 1 1 1 1
          1 1 1 1 1 1 1 1 1 1 1 1
          1 1 1 1 1 1 1 1 1 1 1 1
          1 1 1 1 1 1 1 1 1 1 1 1
          1 1 1 1 1 1 1 1 1 1 1 1
          1 1 1 1 1 1 1 1 1 1 1 1
          1 1 1 1 1 1 1 1 1 1 1 1
          1 1 1 1 1 1 1 1 1 1 1 1
          1 1 1 1 1 1 1 1 1 1 1 1
          1 1 1 1 1 1 1 1 1 1 1 1
          1 1 1 1 1 1 1 1 1 1 1 1
          1 1 1 1 1 1 1 1 1 1 1 1
          1 1 1 1 1 1 1 1 1 1 1 1
          1 1 1 1 1 1 1 1 1 1 1 1
          1 1 1 1 1 1 1 1 1 1 1 1
          1 1 1 1 1 1 1 1 1 1 1 1
          1 1 1 1 1 1 1 1 1 1 1 1
          1 1 1 1 1 1 1 1 1 1 1 1
          1 1 1 1 1 1 1 1 1 1 1 1
          1 1 1 1 1 1 1 1 1 1 1 1
          1 1 1 1 1 1 1 1 1 1 1 1
          1 1 1 1 1 1 1 1 1 1 1 1
          1 1 1 1 1 1 1 1 1 1 1 1
          1 1 1 1 1 1 1 1 1 1 1 1
          1 1 1 1 1 1 1 1 1 1 1 1
          1 1 1 1 1 1 1 1 1 1 1 1
          1 1 1 1 1 1 1 1 1 1 1 1
          1 1 1 1 1 1 1 1 1 1 1 1
          1 1 1 1 1 1 1 1 1 1 1 1
          1 1 1 1 1 1 1 1 1 1 1 1
          1 1 1 1 1 1 1 1 1 1 1 1
          1 1 1 1 1 1 1 1 1 1 1 1
          1 1 1 1 1 1 1 1 1 1 1 1
          1 1 1 1 1 1 1 1 1 1 1 1
          1 1 1 1 1 1 1 1 1 1 1 1
          1 1 1 1 1 1 1 1 1 1 1 1
          1 1 1 1 1 1 1 1 1 1 1 1
          1 1 1 1 1 1 1 1 1 1 1 1
          1 1 1 1 1 1 1 1 1 1 1 1
          1 1 1 1 1 1 1 1 1 1 1 1
          1 1 1 1 1 1 1 1 1 1 1 1
          1 1 1 1 1 1 1 1 1 1 1 1
          1 1 1 1 1 1 1 1 1 1 1 1
          1 1 1 1 1 1 1 1 1 1 1 1
          1 1 1 1 1 1 1 1 1 1 1 1
          1 1 1 1 1 1 1 1 1 1 1 1
          1 1 1 1 1 1 1 1 1 1 1 1
          1 1 1 1 1 1 1 1 1 1 1 1
          1 1 1 1 1 1 1 1 1 1 1 1
          1 1 1 1 1 1 1 1 1 1 1 1
          1 1 1 1 1 1 1 1 1 1 1 1
          1 1 1 1 1 1 1 1 1 1 1 1
          1 1 1 1 1 1 1 1 1 1 1 1
          1 1 1 1 1 1 1 1 1 1 1 1
          1 1 1 1 1 1 1 1 1 1 1 1
          1 1 1 1 1 1 1 1 1 1 1 1
          1 1 1 1 1 1 1 1 1 1 1 1
          1 1 1 1 1 1 1 1 1 1 1 1
          1 1 1 1 1 1 1 1 1 1 1 1
          1 1 1 1 1 1 1 1 1 1 1 1
          1 1 1 1 1 1 1 1 1 1 1 1
          1 1 1 1 1 1 1 1 1 1 1 1
          1 1 1 1 1 1 1 1 1 1 1 1
          1 1 1 1 1 1 1 1 1 1 1 1
          1 1 1 1 1 1 1 1 1 1 1 1
          1 1 1 1 1 1 1 1 1 1 1 1
          1 1 1 1 1 1 1 1 1 1 1 1
          1 1 1 1 1 1 1 1 1 1 1 1
          1 1 1 1 1 1 1 1 1 1 1 1
          1 1 1 1 1 1 1 1 1 1 1 1
          1 1 1 1 1 1 1 1 1 1 1 1
          1 1 1 1 1 1 1 1 1 1 1 1
          1 1 1 1 1 1 1 1 1 1 1 1
          1 1 1 1 1 1 1 1 1 1 1 1
          1 1 1 1 1 1 1 1 1 1 1 1
          1 1 1 1 1 1 1 1 1 1 1 1
          1 1 1 1 1 1 1 1 1 1 1 1
          1 1 1 1 1 1 1 1 1 1 1 1
          1 1 1 1 1 1 1 1 1 1 1 1
          1 1 1 1 1 1 1 1 1 1 1 1
          1 1 1 1 1 1 1 1 1 1 1 1
          1 1 1 1 1 1 1 1 1 1 1 1
          1 1 1 1 1 1 1 1 1 1 1 1
          1 1 1 1 1 1 1 1 1 1 1 1
          1 1 1 1 1 1 1 1 1 1 1 1
          1 1 1 1 1 1 1 1 1 1 1 1
          1 1 1 1 1 1 1 1 1 1 1 1
          1 1 1 1 1 1 1 1 1 1 1 1
          1 1 1 1 1 1 1 1 1 1 1 1
          1 1 1 1 1 1 1 1 1 1 1 1
          1 1 1 1 1 1 1 1 1 1 1 1
          1 1 1 1 1 1 1 1 1 1 1 1
          1 1 1 1 1 1 1 1 1 1 1 1
          1 1 1 1 1 1 1 1 1 1 1 1
          1 1 1 1 1 1 1 1 1 1 1 1
          1 1 1 1 1 1 1 1 1 1 1 1
          1 1 1 1 1 1 1 1 1 1 1 1
          1 1 1 1 1 1 1 1 1 1 1 1
          1 1 1 1 1 1 1 1 1 1 1 1
          1 1 1 1 1 1 1 1 1 1 1 1
          1 1 1 1 1 1 1 1 1 1 1 1
          1 1 1 1 1 1 1 1 1 1 1 1
          1 1 1 1 1 1 1 1 1 1 1 1
          1 1 1 1 1 1 1 1 1 1 1 1
          1 1 1 1 1 1 1 1 1 1 1 1
          1 1 1 1 1 1 1 1 1 1 1 1
          1 1 1 1 1 1 1 1 1 1 1 1
          1 1 1 1 1 1 1 1 1 1 1 1
          1 1 1 1 1 1 1 1 1 1 1 1
          1 1 1 1 1 1 1 1 1 1 1 1
          1 1 1 1 1 1 1 1 1 1 1 1
          1 1 1 1 1 1 1 1 1 1 1 1
          1 1 1 1 1 1 1 1 1 1 1 1
          1 1 1 1 1 1 1 1 1 1 1 1
          1 1 1 1 1 1 1 1 1 1 1 1
          1 1 1 1 1 1 1 1 1 1 1 1
          1 1 1 1 1 1 1 1 1 1 1 1
          1 1 1 1 1 1 1 1 1 1 1 1
          1 1 1 1 1 1 1 1 1 1 1 1
          1 1 1 1 1 1 1 1 1 1 1 1
          1 1 1 1 1 1 1 1 1 1 1 1
          1 1 1 1 1 1 1 1 1 1 1 1
          1 1 1 1 1 1 1 1 1 1 1 1
          1 1 1 1 1 1 1 1 1 1 1 1
          1 1 1 1 1 1 1 1 1 1 1 1
          1 1 1 1 1 1 1 1 1 1 1 1
          1 1 1 1 1 1 1 1 1 1 1 1
          1 1 1 1 1 1 1 1 1 1 1 1
          1
        </DataArray>
        <DataArray type="Float32" Name="pressureExact" NumberOfComponents="1" format="ascii">
          0.024375 0.024375 0 0 0.0475 0.024375 0.0475 0.069375 0.069375 0.0475 0.069375 0
          0.024375 0 0.0475 0.069375 0.09 0.09 0.109375 0.109375 0.09 0.109375 0.1275 0.1275
          0.144375 0.1275 0.09 0.109375 0.1275 0.144375 0.144375 0 0.024375 0.0475 0.024375 0
          0.0475 0.069375 0.069375 0.024375 0 0.0475 0.024375 0.069375 0.0475 0.069375 0.09 0.109375
          0.09 0.109375 0.1275 0.144375 0.1275 0.144375 0.09 0.109375 0.09 0.109375 0.1275 0.144375
          0.1275 0.144375 0.16 0.16 0.16 0.174375 0.174375 0.1875 0.1875 0.174375 0.1875 0.16
          0.174375 0.1875 0.199375 0.199375 0.21 0.199375 0.21 0.219375 0.219375 0.21 0.219375 0.199375
          0.21 0.219375 0.16 0.16 0.174375 0.1875 0.174375 0.1875 0.16 0.144375 0.16 0.174375
          0.1875 0.174375 0.1875 0.199375 0.21 0.199375 0.21 0.219375 0.219375 0.199375 0.21 0.199375
          0.219375 0.21 0.219375 0 0.024375 0 0.0475 0.069375 0 0.024375 0.0475 0.024375
          0 0.0475 0.069375 0.069375 0.09 0.109375 0.1275 0.144375 0.09 0.109375 0.09 0.109375
          0.1275 0.144375 0.1275 0.144375 0.024375 0 0.0475 0.024375 0.069375 0.0475 0.069375 0
          0.024375 0 0.0475 0.069375 0.09 0.109375 0.09 0.109375 0.1275 0.144375 0.1275 0.09
          0.109375 0.1275 0.144375 0.144375 0.16 0.174375 0.1875 0.16 0.16 0.174375 0.1875 0.174375
          0.1875 0.199375 0.21 0.219375 0.199375 0.21 0.199375 0.21 0.219375 0.219375 0.16 0.16
          0.174375 0.1875 0.174375 0.1875 0.16 0.174375 0.1875 0.199375 0.21 0.199375 0.219375 0.21
          0.219375 0.199375 0.21 0.219375 0.2275 0.2275 0.234375 0.234375 0.2275 0.234375 0.24 0.24
          0.244375 0.24 0.2275 0.234375 0.24 0.244375 0.244375 0.244375 0.2475 0.2475 0.2475 0.249375
          0.249375 0.25 0.25 0.249375 0.25 0.2475 0.249375 0.25 0.2275 0.234375 0.2275 0.234375
          0.24 0.244375 0.24 0.244375 0.2275 0.234375 0.2275 0.234375 0.24 0.244375 0.24 0.2475
          0.2475 0.249375 0.25 0.249375 0.25 0.2475 0.244375 0.2475 0.249375 0.25 0.249375 0.25
          0.249375 0.249375 0.2475 0.249375 0.2475 0.244375 0.244375 0.2475 0.244375 0.249375 0.2475 0.244375
          0.24 0.24 0.234375 0.234375 0.24 0.234375 0.2275 0.2275 0.219375 0.2275 0.24 0.234375
          0.2275 0.219375 0.219375 0.249375 0.2475 0.249375 0.2475 0.244375 0.244375 0.249375 0.2475 0.249375
          0.244375 0.2475 0.244375 0.24 0.234375 0.24 0.234375 0.2275 0.219375 0.2275 0.219375 0.24
          0.234375 0.24 0.234375 0.2275 0.219375 0.2275 0.2275 0.234375 0.24 0.244375 0.2275 0.234375
          0.2275 0.234375 0.24 0.244375 0.24 0.244375 0.2475 0.249375 0.25 0.2475 0.2475 0.249375
          0.25 0.249375 0.25 0.2275 0.234375 0.2275 0.234375 0.24 0.244375 0.24 0.2275 0.234375
          0.24 0.244375 0.244375 0.2475 0.2475 0.249375 0.25 0.249375 0.25 0.2475 0.249375 0.25
          0.249375 0.2475 0.244375 0.249375 0.2475 0.249375 0.2475 0.244375 0.244375 0.24 0.234375 0.2275
          0.219375 0.219375 0.24 0.234375 0.24 0.234375 0.2275 0.219375 0.2275 0.219375 0.249375 0.2475
          0.249375 0.244375 0.2475 0.244375 0.249375 0.2475 0.244375 0.24 0.234375 0.24 0.234375 0.2275
          0.219375 0.2275 0.24 0.234375 0.2275 0.219375 0.219375 0 0.024375 0.0475 0.024375 0
          0.0475 0.069375 0.069375 0.024375 0 0.0475 0.024375 0.069375 0.0475 0.069375 0.09 0.109375
          0.09 0.109375 0.1275 0.144375 0.1275 0.144375 0.09 0.109375 0.09 0.109375 0.1275 0.144375
          0.1275 0 0.024375 0 0.0475 0.069375 0 0.024375 0.0475 0.024375 0 0.0475
          0.069375 0.069375 0.09 0.109375 0.1275 0.144375 0.144375 0.09 0.109375 0.09 0.109375 0.1275
          0.144375 0.1275 0.144375 0.16 0.16 0.174375 0.1875 0.174375 0.1875 0.16 0.16 0.174375
          0.1875 0.174375 0.1875 0.199375 0.21 0.199375 0.21 0.219375 0.219375 0.199375 0.21 0.199375
          0.219375 0.21 0.219375 0.16 0.174375 0.1875 0.16 0.16 0.174375 0.1875 0.174375 0.1875
          0.199375 0.21 0.219375 0.199375 0.21 0.199375 0.21 0.219375 0.219375 0.024375 0 0.0475
          0.024375 0.069375 0.0475 0.069375 0 0.024375 0 0.0475 0.069375 0.09 0.109375 0.09
          0.109375 0.1275 0.144375 0.1275 0.09 0.109375 0.1275 0.144375 0.144375 0 0.024375 0.0475
          0.024375 0 0.0475 0.069375 0.069375 0.024375 0 0.0475 0.024375 0.069375 0.0475 0.069375
          0.09 0.109375 0.09 0.109375 0.1275 0.144375 0.1275 0.144375 0.09 0.109375 0.09 0.109375
          0.1275 0.144375 0.1275 0.16 0.16 0.174375 0.1875 0.174375 0.1875 0.16 0.174375 0.1875
          0.199375 0.21 0.199375 0.219375 0.21 0.219375 0.199375 0.21 0.219375 0.16 0.16 0.174375
          0.1875 0.174375 0.1875 0.16 0.144375 0.16 0.174375 0.1875 0.174375 0.1875 0.199375 0.21
          0.199375 0.21 0.219375 0.219375 0.199375 0.21 0.199375 0.219375 0.21 0.219375 0.2275 0.234375
          0.2275 0.234375 0.24 0.244375 0.24 0.244375 0.2275 0.234375 0.2275 0.234375 0.24 0.244375
          0.24 0.2475 0.2475 0.249375 0.25 0.249375 0.25 0.2475 0.244375 0.2475 0.249375 0.25
          0.249375 0.25 0.2275 0.234375 0.24 0.244375 0.2275 0.234375 0.2275 0.234375 0.24 0.244375
          0.24 0.244375 0.2475 0.249375 0.25 0.2475 0.2475 0.249375 0.25 0.249375 0.25 0.249375
          0.2475 0.249375 0.2475 0.244375 0.244375 0.249375 0.2475 0.249375 0.244375 0.2475 0.244375 0.24
          0.234375 0.24 0.234375 0.2275 0.219375 0.2275 0.219375 0.24 0.234375 0.24 0.234375 0.2275
          0.219375 0.2275 0.249375 0.2475 0.244375 0.249375 0.2475 0.249375 0.2475 0.244375 0.244375 0.24
          0.234375 0.2275 0.219375 0.219375 0.24 0.234375 0.24 0.234375 0.2275 0.219375 0.2275 0.219375
          0.2275 0.234375 0.2275 0.234375 0.24 0.244375 0.24 0.2275 0.234375 0.24 0.244375 0.244375
          0.2475 0.2475 0.249375 0.25 0.249375 0.25 0.2475 0.249375 0.25 0.2275 0.234375 0.2275
          0.234375 0.24 0.244375 0.24 0.244375 0.2275 0.234375 0.2275 0.234375 0.24 0.244375 0.24
          0.2475 0.2475 0.249375 0.25 0.249375 0.25 0.2475 0.244375 0.2475 0.249375 0.25 0.249375
          0.25 0.249375 0.2475 0.249375 0.244375 0.2475 0.244375 0.249375 0.2475 0.244375 0.24 0.234375
          0.24 0.234375 0.2275 0.219375 0.2275 0.24 0.234375 0.2275 0.219375 0.219375 0.249375 0.2475
          0.249375 0.2475 0.244375 0.244375 0.249375 0.2475 0.249375 0.244375 0.2475 0.244375 0.24 0.234375
          0.24 0.234375 0.2275 0.219375 0.2275 0.219375 0.24 0.234375 0.24 0.234375 0.2275 0.219375
          0.2275 0.219375 0.21 0.21 0.21 0.199375 0.199375 0.1875 0.1875 0.199375 0.1875 0.21
          0.199375 0.1875 0.174375 0.174375 0.16 0.174375 0.16 0.144375 0.144375 0.16 0.144375 0.174375
          0.16 0.144375 0.21 0.21 0.199375 0.1875 0.199375 0.1875 0.21 0.21 0.199375 0.1875
          0.199375 0.1875 0.174375 0.16 0.174375 0.16 0.144375 0.144375 0.174375 0.16 0.174375 0.144375
          0.16 0.144375 0.1275 0.1275 0.109375 0.109375 0.1275 0.109375 0.09 0.09 0.069375 0.09
          0.1275 0.109375 0.09 0.069375 0.069375 0.069375 0.0475 0.0475 0.0475 0.024375 0.024375 0
          0 0.024375 0 0.0475 0.024375 0 0.1275 0.109375 0.1275 0.109375 0.09 0.069375
          0.09 0.069375 0.1275 0.109375 0.1275 0.109375 0.09 0.069375 0.09 0.0475 0.0475 0.024375
          0 0.024375 0 0.0475 0.069375 0.0475 0.024375 0 0.024375 0 0.21 0.199375
          0.1875 0.21 0.21 0.199375 0.1875 0.199375 0.1875 0.174375 0.16 0.144375 0.174375 0.16
          0.174375 0.16 0.144375 0.144375 0.21 0.21 0.199375 0.1875 0.199375 0.1875 0.21 0.199375
          0.1875 0.174375 0.16 0.174375 0.144375 0.16 0.144375 0.174375 0.16 0.144375 0.1275 0.109375
          0.09 0.069375 0.1275 0.109375 0.1275 0.109375 0.09 0.069375 0.09 0.069375 0.0475 0.024375
          0 0.0475 0.0475 0.024375 0 0.024375 0 0.1275 0.109375 0.1275 0.109375 0.09