<?xml version="1.0"?>
<VTKFile type="UnstructuredGrid" version="0.1" byte_order="LittleEndian">
  <UnstructuredGrid>
    <Piece NumberOfCells="100" NumberOfPoints="121">
      <PointData Scalars="porosity" Vectors="u">
        <DataArray type="Float32" Name="porosity" NumberOfComponents="1" format="ascii">
          0.655433 0.868323 0.673007 0.829742 0.899778 0.860935 0.890441 0.845739 0.813398 0.74706 0 0
          1 1 1 1 1 1 1 1 1 1 0.622657 0.582873
          0.530497 0.459697 0.362053 0.221299 0.00392792 0 0 0 0 0.43368 1 1
          1 1 0.532211 0.793253 0.835704 0.811659 0.629244 0.0846488 0 1 1 1
          1 0.633066 0.864543 0.896728 0.884937 0.788132 0.528307 1 1 1 1 1
          0.645392 0.869508 0.901388 0.892633 0.81819 0.654846 1 1 1 1 1 0.580769
          0.820502 0.862699 0.855891 0.788993 0.680161 0 0 0 0 0.208237 0.370369 0.475464
          0.546141 0.595773 0.633181 0.632466 0.021907 0.765078 0.833856 0.82673 0.730821 0 1 1
          1 0 0.454613 0.518772 0.85745 0.895845 0.887874 0.811065 0 1 1 1
          1 0 0.602019 0.862957 0.897598 0.888887 0.811913 0 1 1 1 1
          0
        </DataArray>
        <DataArray type="Float32" Name="u" NumberOfComponents="3" format="ascii">
          0 0 0 0 0 0 0 0 0 0.0486589 0.363955 0
          0 0 0 0.0940824 0.589126 0 0 0 0 0.131509 0.588989 0
          0 0 0 0.156285 0.363953 0 0 0 0 0.164956 -9.51701e-06 0
          0 0 0 0.156245 -0.36397 0 0 0 0 0.131438 -0.589 0
          0 0 0 0.0940009 -0.589123 0 0 0 0 0.0485949 -0.363933 0
          0 0 0 0 0 0 0 0 0 0.0846379 0.589629 0
          0.153289 0.951747 0 0.204822 0.95076 0 0.23693 0.587317 0 0.247828 -3.19437e-05 0
          0.236861 -0.587379 0 0.204701 -0.950817 0 0.153151 -0.951788 0 0.0845361 -0.589645 0
          0 0 0 0 0 0 0.0876695 0.590077 0 0.151807 0.951569 0
          0.19477 0.950106 0 0.219177 0.586777 0 0.227034 -5.86404e-05 0 0.219106 -0.586895 0
          0.194646 -0.950224 0 0.151666 -0.951679 0 0.0875678 -0.590155 0 0 0 0
          0 0 0 0.0561262 0.365362 0 0.0900875 0.588766 0 0.106983 0.587607 0
          0.113485 0.362807 0 0.114957 -7.98866e-05 0 0.11344 -0.36297 0 0.106906 -0.587777 0
          0.0899998 -0.588934 0 0.0560633 -0.365495 0 0 0 0 0 0 0
          0.00219115 0.0013533 0 -0.00779061 0.00164582 0 -0.0239508 0.0013414 0 -0.0381341 0.000703644 0
          -0.043704 -8.79524e-05 0 -0.0381341 -0.000883643 0 -0.0239508 -0.00153054 0 -0.00779061 -0.00183707 0
          0.00219115 -0.00150793 0 0 0 0 0 0 0 -0.0534487 -0.363046 0
          -0.104235 -0.585916 0 -0.147681 -0.585267 0 -0.177309 -0.361576 0 -0.187839 -7.98866e-05 0
          -0.177264 0.361413 0 -0.147603 0.585097 0 -0.104147 0.585747 0 -0.0533858 0.362912 0
          0 0 0 0 0 0 -0.0896213 -0.588755 0 -0.162628 -0.949841 0
          -0.217322 -0.948633 0 -0.251387 -0.585993 0 -0.262955 -5.86404e-05 0 -0.251316 0.585875 0
          -0.217198 0.948515 0 -0.162487 0.949732 0 -0.0895196 0.588677 0 0 0 0
          0 0 0 -0.0926354 -0.589435 0 -0.161177 -0.951283 0 -0.207348 -0.950273 0
          -0.233731 -0.587042 0 -0.242265 -3.19437e-05 0 -0.233662 0.58698 0 -0.207226 0.950216 0
          -0.161038 0.951242 0 -0.0925336 0.589419 0 0 0 0 0 0 0
          -0.0608532 -0.364404 0 -0.100318 -0.589402 0 -0.123322 -0.589115 0 -0.13471 -0.364003 0
          -0.138052 -9.51701e-06 0 -0.13467 0.363986 0 -0.123252 0.589104 0 -0.100237 0.589404 0
          -0.0607892 0.364425 0 0 0 0 0 0 0 0 0 0
          0 0 0 0 0 0 0 0 0 0 0 0
          0 0 0 0 0 0 0 0 0 0 0 0
          0 0 0
        </DataArray>
        <DataArray type="Float32" Name="u_exact" NumberOfComponents="3" format="ascii">
          0 0 0 0 0 0 0 0 0 0.0529007 0.345491 0
          0 0 0 0.0940456 0.559017 0 0 0 0 0.123435 0.559017 0
          0 0 0 0.141068 0.345491 0 0 0 0 0.146946 7.19829e-17 0
          0 0 0 0.141068 -0.345491 0 0 -0 0 0.123435 -0.559017 0
          0 -0 0 0.0940456 -0.559017 0 0 -0 0 0.0529007 -0.345491 0
          0 -0 0 0 -1.43966e-16 0 0 0 0 0.0855951 0.559017 0
          0.152169 0.904508 0 0.199722 0.904508 0 0.228254 0.559017 0 0.237764 1.16471e-16 0
          0.228254 -0.559017 0 0.199722 -0.904508 0 0.152169 -0.904508 0 0.0855951 -0.559017 0
          0 -2.32942e-16 0 0 0 0 0.0855951 0.559017 0 0.152169 0.904508 0
          0.199722 0.904508 0 0.228254 0.559017 0 0.237764 1.16471e-16 0 0.228254 -0.559017 0
          0.199722 -0.904508 0 0.152169 -0.904508 0 0.0855951 -0.559017 0 0 -2.32942e-16 0
          0 0 0 0.0529007 0.345491 0 0.0940456 0.559017 0 0.123435 0.559017 0
          0.141068 0.345491 0 0.146946 7.19829e-17 0 0.141068 -0.345491 0 0.123435 -0.559017 0
          0.0940456 -0.559017 0 0.0529007 -0.345491 0 0 -1.43966e-16 0 0 0 0
          1.10218e-17 7.19829e-17 0 1.95943e-17 1.16471e-16 0 2.57176e-17 1.16471e-16 0 2.93915e-17 7.19829e-17 0
          3.06162e-17 1.49976e-32 0 2.93915e-17 -7.19829e-17 0 2.57176e-17 -1.16471e-16 0 1.95943e-17 -1.16471e-16 0
          1.10218e-17 -7.19829e-17 0 0 -2.99952e-32 0 0 0 0 -0.0529007 -0.345491 0
          -0.0940456 -0.559017 0 -0.123435 -0.559017 0 -0.141068 -0.345491 0 -0.146946 -7.19829e-17 0
          -0.141068 0.345491 0 -0.123435 0.559017 0 -0.0940456 0.559017 0 -0.0529007 0.345491 0
          0 1.43966e-16 0 -0 -0 0 -0.0855951 -0.559017 0 -0.152169 -0.904508 0
          -0.199722 -0.904508 0 -0.228254 -0.559017 0 -0.237764 -1.16471e-16 0 -0.228254 0.559017 0
          -0.199722 0.904508 0 -0.152169 0.904508 0 -0.0855951 0.559017 0 -0 2.32942e-16 0
          -0 -0 0 -0.0855951 -0.559017 0 -0.152169 -0.904508 0 -0.199722 -0.904508 0
          -0.228254 -0.559017 0 -0.237764 -1.16471e-16 0 -0.228254 0.559017 0 -0.199722 0.904508 0
          -0.152169 0.904508 0 -0.0855951 0.559017 0 -0 2.32942e-16 0 -0 -0 0
          -0.0529007 -0.345491 0 -0.0940456 -0.559017 0 -0.123435 -0.559017 0 -0.141068 -0.345491 0
          -0.146946 -7.19829e-17 0 -0.141068 0.345491 0 -0.123435 0.559017 0 -0.0940456 0.559017 0
          -0.0529007 0.345491 0 -0 1.43966e-16 0 -0 -0 0 -2.20436e-17 -1.43966e-16 0
          -3.91887e-17 -2.32942e-16 0 -5.14352e-17 -2.32942e-16 0 -5.8783e-17 -1.43966e-16 0 -6.12323e-17 -2.99952e-32 0
          -5.8783e-17 1.43966e-16 0 -5.14352e-17 2.32942e-16 0 -3.91887e-17 2.32942e-16 0 -2.20436e-17 1.43966e-16 0
          -0 5.99904e-32 0
        </DataArray>
      </PointData>
      <CellData Scalars="process rank" Vectors="sigma_0">
        <DataArray type="Float32" Name="process rank" NumberOfComponents="1" format="ascii">
          0 0 0 0 0 0 0 0 0 0 0 0
          0 0 0 0 0 0 0 0 0 0 0 0
          0 0 0 0 0 0 0 0 0 0 0 0
          0 0 0 0 0 0 0 0 0 0 0 0
          0 0 0 0 0 0 0 0 0 0 0 0
          0 0 0 0 0 0 0 0 0 0 0 0
          0 0 0 0 0 0 0 0 0 0 0 0
          0 0 0 0 0 0 0 0 0 0 0 0
          0 0 0 0
        </DataArray>
        <DataArray type="Float32" Name="sigma_0" NumberOfComponents="3" format="ascii">
          -4.91536 4.12614 0 0.854117 3.67913 0 2.84601 2.25455 0 0.202398 0.627571 0
          -6.17691 -0.427214 0 -13.9776 -0.427597 0 -20.3442 0.62653 0 -22.9623 2.25316 0
          -20.9321 3.67786 0 -15.1119 4.12528 0 -3.78278 9.89563 0 -0.797953 6.82475 0
          -0.23901 1.31397 0 -2.62619 -4.34522 0 -7.37973 -7.87793 0 -13.0249 -7.87819 0
          -17.7453 -4.34589 0 -20.0661 1.31317 0 -19.4075 6.82425 0 -16.2895 9.89519 0
          -4.8738 11.8274 0 -6.14113 7.2516 0 -7.36094 -0.139846 0 -8.54401 -7.54577 0
          -9.6905 -12.1273 0 -10.8098 -12.1273 0 -11.9153 -7.54576 0 -13.0164 -0.139666 0
          -14.1129 7.25215 0 -15.2157 11.8283 0 -7.97171 9.23895 0 -13.0354 4.91634 0
          -15.6089 -1.52128 0 -15.1215 -7.81608 0 -12.1603 -11.6749 0 -8.24455 -11.6747 0
          -5.25015 -7.81541 0 -4.69634 -1.52019 0 -7.17014 4.91793 0 -12.1008 9.24145 0
          -11.9052 3.1278 0 -18.8313 0.718834 0 -21.7697 -2.30275 0 -19.7845 -5.07991 0
          -13.8205 -6.73959 0 -6.33412 -6.73922 0 -0.357515 -5.07885 0 1.65312 -2.30111 0
          -1.24721 0.721057 0 -8.12244 3.13131 0 -15.167 -4.17332 0 -21.3032 -3.74662 0
          -23.472 -2.19829 0 -20.7329 -0.398519 0 -14.0292 0.773945 0 -5.81614 0.774317 0
          0.874877 -0.397454 0 3.58856 -2.19665 0 1.38173 -3.74439 0 -4.80528 -4.16981 0
          -16.5108 -9.87973 0 -19.507 -6.78522 0 -20.0654 -1.26177 0 -17.6046 4.42612 0
          -12.7067 7.98237 0 -6.88852 7.98259 0 -2.02377 4.42679 0 0.370721 -1.26068 0
          -0.287512 -6.78364 0 -3.41677 -9.87723 0 -15.427 -11.812 0 -14.1402 -7.24498 0
          -12.8693 0.13644 0 -11.6128 7.535 0 -10.3658 12.1129 0 -9.13394 12.1129 0
          -7.92782 7.53501 0 -6.75343 0.13662 0 -5.60581 -7.24443 0 -4.48348 -11.8111 0
          -12.3159 -9.22056 0 -7.26792 -4.94206 0 -4.69315 1.46182 0 -5.10712 7.7139 0
          -7.92541 11.5424 0 -11.6699 11.5421 0 -14.5214 7.71323 0 -15.0017 1.46102 0
          -12.5266 -4.94256 0 -7.61182 -9.221 0 -8.16688 -3.03551 0 -1.6065 -0.638264 0
          1.15299 2.23927 0 -0.740157 4.83144 0 -6.38366 6.36755 0 -13.4618 6.36717 0
          -19.1181 4.8304 0 -21.0367 2.23788 0 -18.3155 -0.639531 0 -11.8059 -3.03636 0
        </DataArray>
        <DataArray type="Float32" Name="effSigma_0" NumberOfComponents="3" format="ascii">
          5.09931 4.12614 0 10.8935 3.67913 0 12.904 2.25455 0 10.2727 0.627571 0
          3.89957 -0.427214 0 -3.90114 -0.427597 0 -10.2739 0.62653 0 -12.9044 2.25316 0
          -10.8927 3.67786 0 -5.09718 4.12528 0 6.25564 9.89563 0 9.3052 6.82475 0
          9.91268 1.31397 0 7.55786 -4.34522 0 2.82051 -7.87793 0 -2.82468 -7.87819 0
          -7.56125 -4.34589 0 -9.91444 1.31317 0 -9.30439 6.82425 0 -6.25104 9.89519 0
          5.1737 11.8274 0 3.98637 7.2516 0 2.82656 -0.139846 0 1.68349 -7.54577 0
          0.557004 -12.1273 0 -0.562296 -12.1273 0 -1.68783 -7.54576 0 -2.82887 -0.139666 0
          -3.9854 7.25215 0 -5.16822 11.8283 0 2.06672 9.23895 0 -2.93223 4.91634 0
          -5.45725 -1.52128 0 -4.93746 -7.81608 0 -1.96002 -11.6749 0 1.95569 -11.6747 0
          4.9339 -7.81541 0 5.45536 -1.52019 0 2.93301 4.91793 0 -2.06233 9.24145 0
          -1.89056 3.1278 0 -8.79189 0.718834 0 -11.7118 -2.30275 0 -9.71415 -5.07991 0
          -3.74403 -6.73959 0 3.74236 -6.73922 0 9.71279 -5.07885 0 11.7111 -2.30111 0
          8.79219 0.721057 0 1.89224 3.13131 0 -5.18172 -4.17332 0 -11.3426 -3.74662 0
          -13.5299 -2.19829 0 -10.8032 -0.398519 0 -4.10571 0.773945 0 4.10738 0.774317 0
          10.8046 -0.397454 0 13.5306 -2.19665 0 11.3423 -3.74439 0 5.18004 -4.16981 0
          -6.5492 -9.87973 0 -9.61012 -6.78522 0 -10.2171 -1.26177 0 -7.78862 4.42612 0
          -2.90691 7.98237 0 2.91125 7.98259 0 7.79218 4.42679 0 10.219 -1.26068 0
          9.60934 -6.78364 0 6.5448 -9.87723 0 -5.4745 -11.812 0 -4.26766 -7.24498 0
          -3.05676 0.13644 0 -1.84034 7.535 0 -0.613271 12.1129 0 0.618563 12.1129 0
          1.84468 7.53501 0 3.05907 0.13662 0 4.26669 -7.24443 0 5.46902 -11.8111 0
          -2.35435 -9.22056 0 2.62893 -4.94206 0 5.15516 1.46182 0 4.70883 7.7139 0
          1.87436 11.5424 0 -1.87018 11.5421 0 -4.70544 7.71323 0 -5.1534 1.46102 0
          -2.62974 -4.94256 0 2.34975 -9.221 0 1.81844 -3.03551 0 8.3541 -0.638264 0
          11.0951 2.23927 0 9.18954 4.83144 0 3.53986 6.36755 0 -3.53829 6.36717 0
          -9.18835 4.8304 0 -11.0946 2.23788 0 -8.35487 -0.639531 0 -1.82058 -3.03636 0
        </DataArray>
        <DataArray type="Float32" Name="sigma_1" NumberOfComponents="3" format="ascii">
          4.12614 1.39055 0 3.67913 19.0073 0 2.25455 25.6598 0 0.627571 18.7657 0
          -0.427214 0.928528 0 -0.427597 -21.083 0 0.62653 -38.9075 0 2.25316 -45.776 0
          3.67786 -39.0852 0 4.12528 -21.4186 0 9.89563 -1.93524 0 6.82475 8.68643 0
          1.31397 12.4696 0 -4.34522 7.93882 0 -7.87793 -3.30429 0 -7.87819 -17.1 0
          -4.34589 -28.3105 0 1.31317 -32.776 0 6.82425 -28.8946 0 9.89519 -18.1411 0
          11.8274 -8.31099 0 7.2516 -8.79149 0 -0.139846 -9.26748 0 -7.54577 -9.69816 0
          -12.1273 -10.0769 0 -12.1273 -10.4227 0 -7.54576 -10.7614 0 -0.139666 -11.1117 0
          7.25215 -11.4667 0 11.8283 -11.7839 0 9.23895 -15.3419 0 4.91634 -26.7477 0
          -1.52128 -31.3122 0 -7.81608 -27.469 0 -11.6749 -16.8267 0 -11.6747 -3.57756 0
          -7.81541 7.09719 0 -1.52019 11.0052 0 4.91793 6.53867 0 9.24145 -4.73493 0
          3.1278 -20.3518 0 0.718834 -38.3334 0 -2.30275 -45.2522 0 -5.07991 -38.5982 0
          -6.73959 -20.9808 0 -6.73922 0.826391 0 -5.07885 18.4562 0 -2.30111 25.1349 0
          0.721057 18.2536 0 3.13131 0.322385 0 -4.17332 -21.4299 0 -3.74662 -39.1271 0
          -2.19829 -45.7632 0 -0.398519 -38.8344 0 0.773945 -20.9527 0 0.774317 1.10706 0
          -0.397454 18.9765 0 -2.19665 25.8805 0 -3.74439 19.207 0 -4.16981 1.45923 0
          -9.87973 -18.1636 0 -6.78522 -28.8238 0 -1.26177 -32.6485 0 4.42612 -28.0864 0
          7.98237 -16.7526 0 7.98259 -2.84313 0 4.42679 8.45825 0 -1.26068 12.9554 0
          -6.78364 9.03289 0 -9.87723 -1.75959 0 -11.812 -11.7955 0 -7.24498 -11.3516 0
          0.13644 -10.9136 0 7.535 -10.4576 0 12.1129 -9.98419 0 12.1129 -9.51614 0
          7.53501 -9.0828 0 0.13662 -8.70719 0 -7.24443 -8.39021 0 -11.8111 -8.1097 0
          -9.22056 -4.74553 0 -4.94206 6.63046 0 1.46182 11.1511 0 7.7139 7.33226 0
          11.5424 -3.22666 0 11.5421 -16.3691 0 7.71323 -26.9606 0 1.46102 -30.8447 0
          -4.94256 -26.4222 0 -9.221 -15.1781 0 -3.03551 0.338265 0 -0.638264 18.2589 0
          2.23927 25.1834 0 4.83144 18.5499 0 6.36755 0.963427 0 6.36717 -20.809 0
          4.8304 -38.4082 0 2.23788 -45.0672 0 -0.639531 -38.181 0 -3.03636 -20.3102 0
        </DataArray>
        <DataArray type="Float32" Name="effSigma_1" NumberOfComponents="3" format="ascii">
          4.12614 11.4052 0 3.67913 29.0467 0 2.25455 35.7177 0 0.627571 28.836 0
          -0.427214 11.005 0 -0.427597 -11.0065 0 0.62653 -28.8372 0 2.25316 -35.7181 0
          3.67786 -29.0458 0 4.12528 -11.4039 0 9.89563 8.10319 0 6.82475 18.7896 0
          1.31397 22.6213 0 -4.34522 18.1229 0 -7.87793 6.89594 0 -7.87819 -6.89974 0
          -4.34589 -18.1264 0 1.31317 -22.6243 0 6.82425 -18.7915 0 9.89519 -8.10265 0
          11.8274 1.73651 0 7.2516 1.33601 0 -0.139846 0.920016 0 -7.54577 0.529337 0
          -12.1273 0.170574 0 -12.1273 -0.175243 0 -7.54576 -0.533901 0 -0.139666 -0.924238 0
          7.25215 -1.33917 0 11.8283 -1.73636 0 9.23895 -5.30349 0 4.91634 -16.6446 0
          -1.52128 -21.1605 0 -7.81608 -17.285 0 -11.6749 -6.62645 0 -11.6747 6.62268 0
          -7.81541 17.2812 0 -1.52019 21.1569 0 4.91793 16.6418 0 9.24145 5.3035 0
          3.1278 -10.3371 0 0.718834 -28.294 0 -2.30275 -35.1942 0 -5.07991 -28.5279 0
          -6.73959 -10.9043 0 -6.73922 10.9029 0 -5.07885 28.5265 0 -2.30111 35.1928 0
          0.721057 28.293 0 3.13131 10.3371 0 -4.17332 -11.4445 0 -3.74662 -29.1665 0
          -2.19829 -35.8212 0 -0.398519 -28.9047 0 0.773945 -11.0291 0 0.774317 11.0306 0
          -0.397454 28.9062 0 -2.19665 35.8225 0 -3.74439 29.1676 0 -4.16981 11.4446 0
          -9.87973 -8.20199 0 -6.78522 -18.927 0 -1.26177 -22.8002 0 4.42612 -18.2705 0
          7.98237 -6.95287 0 7.98259 6.95664 0 4.42679 18.2742 0 -1.26068 22.8037 0
          -6.78364 18.9297 0 -9.87723 8.20198 0 -11.812 -1.84295 0 -7.24498 -1.47913 0
          0.13644 -1.10109 0 7.535 -0.685138 0 12.1129 -0.231687 0 12.1129 0.236356 0
          7.53501 0.689703 0 0.13662 1.10531 0 -7.24443 1.48229 0 -11.8111 1.8428 0
          -9.22056 5.21604 0 -4.94206 16.5273 0 1.46182 20.9994 0 7.7139 17.1482 0
          11.5424 6.5731 0 11.5421 -6.5693 0 7.71323 -17.1446 0 1.46102 -20.9964 0
          -4.94256 -16.5254 0 -9.221 -5.21657 0 -3.03551 10.3236 0 -0.638264 28.2195 0
          2.23927 35.1255 0 4.83144 28.4796 0 6.36755 10.8869 0 6.36717 -10.8855 0
          4.8304 -28.4785 0 2.23788 -35.1251 0 -0.639531 -28.2204 0 -3.03636 -10.3249 0
        </DataArray>
      </CellData>
      <Points>
        <DataArray type="Float32" Name="Coordinates" NumberOfComponents="3" format="ascii">
          0 0 0 0.1 0 0 0 0.1 0 0.1 0.1 0
          0.2 0 0 0.2 0.1 0 0.3 0 0 0.3 0.1 0
          0.4 0 0 0.4 0.1 0 0.5 0 0 0.5 0.1 0
          0.6 0 0 0.6 0.1 0 0.7 0 0 0.7 0.1 0
          0.8 0 0 0.8 0.1 0 0.9 0 0 0.9 0.1 0
          1 0 0 1 0.1 0 0 0.2 0 0.1 0.2 0
          0.2 0.2 0 0.3 0.2 0 0.4 0.2 0 0.5 0.2 0
          0.6 0.2 0 0.7 0.2 0 0.8 0.2 0 0.9 0.2 0
          1 0.2 0 0 0.3 0 0.1 0.3 0 0.2 0.3 0
          0.3 0.3 0 0.4 0.3 0 0.5 0.3 0 0.6 0.3 0
          0.7 0.3 0 0.8 0.3 0 0.9 0.3 0 1 0.3 0
          0 0.4 0 0.1 0.4 0 0.2 0.4 0 0.3 0.4 0
          0.4 0.4 0 0.5 0.4 0 0.6 0.4 0 0.7 0.4 0
          0.8 0.4 0 0.9 0.4 0 1 0.4 0 0 0.5 0
          0.1 0.5 0 0.2 0.5 0 0.3 0.5 0 0.4 0.5 0
          0.5 0.5 0 0.6 0.5 0 0.7 0.5 0 0.8 0.5 0
          0.9 0.5 0 1 0.5 0 0 0.6 0 0.1 0.6 0
          0.2 0.6 0 0.3 0.6 0 0.4 0.6 0 0.5 0.6 0
          0.6 0.6 0 0.7 0.6 0 0.8 0.6 0 0.9 0.6 0
          1 0.6 0 0 0.7 0 0.1 0.7 0 0.2 0.7 0
          0.3 0.7 0 0.4 0.7 0 0.5 0.7 0 0.6 0.7 0
          0.7 0.7 0 0.8 0.7 0 0.9 0.7 0 1 0.7 0
          0 0.8 0 0.1 0.8 0 0.2 0.8 0 0.3 0.8 0
          0.4 0.8 0 0.5 0.8 0 0.6 0.8 0 0.7 0.8 0
          0.8 0.8 0 0.9 0.8 0 1 0.8 0 0 0.9 0
          0.1 0.9 0 0.2 0.9 0 0.3 0.9 0 0.4 0.9 0
          0.5 0.9 0 0.6 0.9 0 0.7 0.9 0 0.8 0.9 0
          0.9 0.9 0 1 0.9 0 0 1 0 0.1 1 0
          0.2 1 0 0.3 1 0 0.4 1 0 0.5 1 0
          0.6 1 0 0.7 1 0 0.8 1 0 0.9 1 0
          1 1 0
        </DataArray>
      </Points>
      <Cells>
        <DataArray type="Int32" Name="connectivity" NumberOfComponents="1" format="ascii">
          0 1 3 2 1 4 5 3 4 6 7 5
          6 8 9 7 8 10 11 9 10 12 13 11
          12 14 15 13 14 16 17 15 16 18 19 17
          18 20 21 19 2 3 23 22 3 5 24 23
          5 7 25 24 7 9 26 25 9 11 27 26
          11 13 28 27 13 15 29 28 15 17 30 29
          17 19 31 30 19 21 32 31 22 23 34 33
          23 24 35 34 24 25 36 35 25 26 37 36
          26 27 38 37 27 28 39 38 28 29 40 39
          29 30 41 40 30 31 42 41 31 32 43 42
          33 34 45 44 34 35 46 45 35 36 47 46
          36 37 48 47 37 38 49 48 38 39 50 49
          39 40 51 50 40 41 52 51 41 42 53 52
          42 43 54 53 44 45 56 55 45 46 57 56
          46 47 58 57 47 48 59 58 48 49 60 59
          49 50 61 60 50 51 62 61 51 52 63 62
          52 53 64 63 53 54 65 64 55 56 67 66
          56 57 68 67 57 58 69 68 58 59 70 69
          59 60 71 70 60 61 72 71 61 62 73 72
          62 63 74 73 63 64 75 74 64 65 76 75
          66 67 78 77 67 68 79 78 68 69 80 79
          69 70 81 80 70 71 82 81 71 72 83 82
          72 73 84 83 73 74 85 84 74 75 86 85
          75 76 87 86 77 78 89 88 78 79 90 89
          79 80 91 90 80 81 92 91 81 82 93 92
          82 83 94 93 83 84 95 94 84 85 96 95
          85 86 97 96 86 87 98 97 88 89 100 99
          89 90 101 100 90 91 102 101 91 92 103 102
          92 93 104 103 93 94 105 104 94 95 106 105
          95 96 107 106 96 97 108 107 97 98 109 108
          99 100 111 110 100 101 112 111 101 102 113 112
          102 103 114 113 103 104 115 114 104 105 116 115
          105 106 117 116 106 107 118 117 107 108 119 118
          108 109 120 119
        </DataArray>
        <DataArray type="Int32" Name="offsets" NumberOfComponents="1" format="ascii">
          4 8 12 16 20 24 28 32 36 40 44 48
          52 56 60 64 68 72 76 80 84 88 92 96
          100 104 108 112 116 120 124 128 132 136 140 144
          148 152 156 160 164 168 172 176 180 184 188 192
          196 200 204 208 212 216 220 224 228 232 236 240
          244 248 252 256 260 264 268 272 276 280 284 288
          292 296 300 304 308 312 316 320 324 328 332 336
          340 344 348 352 356 360 364 368 372 376 380 384
          388 392 396 400
        </DataArray>
        <DataArray type="UInt8" Name="types" NumberOfComponents="1" format="ascii">
          9 9 9 9 9 9 9 9 9 9 9 9
          9 9 9 9 9 9 9 9 9 9 9 9
          9 9 9 9 9 9 9 9 9 9 9 9
          9 9 9 9 9 9 9 9 9 9 9 9
          9 9 9 9 9 9 9 9 9 9 9 9
          9 9 9 9 9 9 9 9 9 9 9 9
          9 9 9 9 9 9 9 9 9 9 9 9
          9 9 9 9 9 9 9 9 9 9 9 9
          9 9 9 9
        </DataArray>
      </Cells>
    </Piece>
  </UnstructuredGrid>
</VTKFile>
