<?xml version="1.0"?>
<VTKFile type="UnstructuredGrid" version="0.1" byte_order="LittleEndian">
  <UnstructuredGrid>
    <Piece NumberOfCells="1536" NumberOfPoints="1617">
      <PointData Scalars="S_aq">
        <DataArray type="Float32" Name="S_aq" NumberOfComponents="1" format="ascii">
          1 1 1 1 1 1 1 1 1 1 1 1
          1 1 1 1 1 1 1 1 1 1 1 1
          1 1 1 1 1 1 1 1 1 1 1 1
          1 1 1 1 1 1 1 1 1 1 1 1
          1 1 1 1 1 1 1 1 1 1 1 1
          1 1 1 1 1 1 1 1 1 1 1 1
          1 1 1 1 1 1 1 1 1 1 1 1
          1 1 1 1 1 1 1 1 1 1 1 1
          1 1 1 1 1 1 1 1 1 1 1 1
          1 1 1 1 1 1 1 1 1 1 1 1
          1 1 1 1 1 1 1 1 1 1 1 1
          1 1 1 1 1 1 1 1 1 1 1 1
          1 1 1 1 1 1 1 1 1 1 1 1
          1 1 1 1 1 1 1 1 1 1 1 1
          1 1 1 1 1 1 1 1 1 1 1 1
          1 1 1 1 1 1 1 1 1 1 1 1
          1 1 1 1 1 1 1 1 1 1 1 1
          1 1 1 1 1 1 1 1 1 1 1 1
          1 1 1 1 1 1 1 1 1 1 1 1
          1 1 1 1 1 1 1 1 1 1 1 1
          1 1 1 1 1 1 1 1 1 1 1 1
          1 1 1 1 1 1 1 1 1 1 1 1
          1 1 1 1 1 1 1 1 1 1 1 1
          1 1 1 1 1 1 1 1 1 1 1 1
          1 1 1 1 1 1 1 1 1 1 1 1
          1 1 1 1 1 1 1 1 1 1 1 1
          1 1 1 1 1 1 1 1 1 1 1 1
          1 1 1 1 1 1 1 1 1 1 1 1
          1 1 1 1 1 1 1 1 1 1 1 1
          1 1 1 1 1 1 1 1 1 1 1 1
          1 1 1 1 1 1 1 1 1 1 1 1
          1 1 1 1 1 1 1 1 1 1 1 1
          1 1 1 1 1 1 1 1 1 1 1 1
          1 1 1 1 1 1 1 1 1 1 1 1
          1 1 1 1 1 1 1 1 1 1 1 1
          1 1 1 1 1 1 1 1 1 1 1 1
          1 1 1 1 1 1 1 1 1 1 1 1
          1 1 1 1 1 1 1 1 1 1 1 1
          1 1 1 1 1 1 1 1 1 1 1 1
          1 1 1 1 1 1 1 1 1 1 1 1
          1 1 1 1 1 1 1 1 1 1 1 1
          1 1 1 1 1 1 1 1 1 1 1 1
          1 1 1 1 1 1 1 1 1 1 1 1
          1 1 1 1 1 1 1 1 1 1 1 1
          1 1 1 1 1 1 1 1 1 1 1 1
          1 1 1 1 1 1 1 1 1 1 1 1
          1 1 1 1 1 1 1 1 1 1 1 1
          1 1 1 1 1 1 1 1 1 1 1 1
          1 1 1 1 1 1 1 1 1 1 1 1
          1 1 1 1 1 1 1 1 1 1 1 1
          1 1 1 1 1 1 1 1 1 1 1 1
          1 1 1 1 1 1 1 1 1 1 1 1
          1 1 1 1 1 1 1 1 1 1 1 1
          1 1 1 1 1 1 1 1 1 1 1 1
          1 1 1 1 1 1 1 1 1 1 1 1
          1 1 1 1 1 1 1 1 1 1 1 1
          1 1 1 1 1 1 1 1 1 1 1 1
          1 1 1 1 1 1 1 1 1 1 1 1
          1 1 1 1 1 1 1 1 1 1 1 1
          1 1 1 1 1 1 1 1 1 1 1 1
          1 1 1 1 1 1 1 1 1 1 1 1
          1 1 1 1 1 1 1 1 1 1 1 1
          1 1 1 1 1 1 1 1 1 1 1 1
          1 1 1 1 1 1 1 1 1 1 1 1
          1 1 1 1 1 1 1 1 1 1 1 1
          1 1 1 1 1 1 1 1 1 1 1 1
          1 1 1 1 1 1 1 1 1 1 1 1
          1 1 1 1 1 1 1 1 1 1 1 1
          1 1 1 1 1 1 1 1 1 1 1 1
          1 1 1 1 1 1 1 1 1 1 1 1
          1 1 1 1 1 1 1 1 1 1 1 1
          1 1 1 1 1 1 1 1 1 1 1 1
          1 1 1 1 1 1 1 1 1 1 1 1
          1 1 1 1 1 1 1 1 1 1 1 1
          1 1 1 1 1 1 1 1 1 1 1 1
          1 1 1 1 1 1 1 1 1 1 1 1
          1 1 1 1 1 1 1 1 1 1 1 1
          1 1 1 1 1 1 1 1 1 1 1 1
          1 1 1 1 1 1 1 1 1 1 1 1
          1 1 1 1 1 1 1 1 1 1 1 1
          1 1 1 1 1 1 1 1 1 1 1 1
          1 1 1 1 1 1 1 1 1 1 1 1
          1 1 1 1 1 1 1 1 1 1 1 1
          1 1 1 1 1 1 1 1 1 1 1 1
          1 1 1 1 1 1 1 1 1 1 1 1
          1 1 1 1 1 1 1 1 1 1 1 1
          1 1 1 1 1 1 1 1 1 1 1 1
          1 1 1 1 1 1 1 1 1 1 1 1
          1 1 1 1 1 1 1 1 1 1 1 1
          1 1 1 1 1 1 1 1 1 1 1 1
          1 1 1 1 1 1 1 1 1 1 1 1
          1 1 1 1 1 1 1 1 1 1 1 1
          1 1 1 1 1 1 1 1 1 1 1 1
          1 1 1 1 1 1 1 1 1 1 1 1
          1 1 1 1 1 1 1 1 1 1 1 1
          1 1 1 1 1 1 1 1 1 1 1 1
          1 1 1 1 1 1 1 1 1 1 1 1
          1 1 1 1 1 1 1 1 1 1 1 1
          1 1 1 1 1 1 1 1 1 1 1 1
          1 1 1 1 1 1 1 1 1 1 1 1
          1 1 1 1 1 1 1 1 1 1 1 1
          1 1 1 1 1 1 1 1 1 1 1 1
          1 1 1 1 1 1 1 1 1 1 1 1
          1 1 1 1 1 1 0.999995 0.999963 0.999944 0.99994 0.999939 0.999942
          0.99997 1 1 1 1 1 1 1 1 1 1 1
          1 1 1 1 1 1 1 1 1 1 1 1
          1 1 1 1 1 1 1 1 1 1 1 1
          1 1 1 1 1 1 1 0.998668 0.996791 0.99612 0.995969 0.995956
          0.996027 0.997023 0.999934 1 1 1 1 1 1 1 1 1
          1 1 1 1 1 1 1 1 1 1 1 1
          1 1 1 1 1 1 1 1 1 1 1 1
          1 1 1 1 1 1 1 0.99978 0.986441 0.979999 0.978043 0.977589
          0.977534 0.97772 0.98033 0.996084 0.999983 1 1 1 1 1 1 1
          1 1 1 1 1 1 1 1 1 1 1 1
          1 1 1 1 1 1 1 1 1 1 1 1
          1 1 1 1 1 1 1 0.999997 0.994791 0.968176 0.961385 0.959413
          0.958937 0.958859 0.959001 0.961334 0.98045 0.998821 0.999999 1 1 1 1 1
          1 1 1 1 1 1 1 1 1 1 1 1
          1 1 1 1 1 1 1 1 1 1 1 1
          1 1 1 1 1 1 1 1 0.999597 0.981206 0.958207 0.952819
          0.951408 0.95108 0.95102 0.951096 0.952478 0.966645 0.993462 0.999925 1 1 1 1
          1 1 1 1 1 1 1 1 1 1 1 1
          1 1 1 1 1 1 1 1 1 1 1 1
          1 1 1 1 1 1 1 1 1 0.997826 0.971111 0.953573
          0.949793 0.948941 0.948765 0.948734 0.948772 0.949626 0.961441 0.987418 0.999389 1 1 1
          1 1 1 1 1 1 1 1 1 1 1 1
          1 1 1 1 1 1 1 1 1 1 1 1
          1 1 1 1 1 1 1 1 1 0.999996 0.995997 0.966551
          0.95102 0.948679 0.948281 0.948213 0.948203 0.94822 0.948743 0.960779 0.985347 0.998553 0.999997 1
          1 1 1 1 1 1 1 1 1 1 1 1
          1 1 1 1 1 1 1 1 1 1 1 1
          1 1 1 1 1 1 1 1 1 1 0.999985 0.995675
          0.964008 0.949087 0.948208 0.948125 0.948115 0.948114 0.948119 0.948319 0.961907 0.988997 0.998622 0.999996
          1 1 1 1 1 1 1 1 1 1 1 1
          1 1 1 1 1 1 1 1 1
        </DataArray>
        <DataArray type="Float32" Name="p_aq" NumberOfComponents="1" format="ascii">
          153955 152693 152269 151342 151821 150526 151102 149830 150482 149221 149932 148679
          149437 148190 148986 147742 148571 147330 148186 146947 147826 146589 147486 146251
          147165 145931 146858 145626 146564 145332 146281 145050 146006 144776 145740 144510
          145480 144251 145225 143996 144975 143747 144730 143502 144488 143260 144250 143022
          144015 142787 143783 142555 143553 142326 143327 142099 143103 141876 142883 141655
          142665 141438 142451 141223 142240 141012 142032 140804 141827 140599 141626 140398
          141428 140200 141233 140005 141041 139813 140852 139624 140666 139438 140482 139255
          140300 139073 140121 138894 139943 138716 139766 138539 139590 138363 139415 138188
          139240 138014 150583 149825 149115 148473 147896 147375 146900 146464 146060 145684
          145332 144999 144683 144381 144090 143810 143539 143274 143016 142763 142515 142270
          142029 141791 141556 141324 141095 140869 140645 140424 140207 139992 139781 139573
          139368 139167 138969 138774 138583 138394 138208 138025 137844 137665 137487 137311
          137136 136962 136788 148897 148251 147630 147050 146516 146024 145572 145153 144763
          144398 144055 143730 143420 143124 142838 142562 142294 142032 141776 141525 141278
          141035 140795 140557 140323 140091 139862 139635 139412 139190 138972 138758 138546
          138338 138133 137932 137734 137540 137349 137161 136976 136793 136613 136435 136258
          136083 135908 135735 135561 147211 146649 146102 145581 145092 144635 144210 143813
          143441 143091 142760 142446 142145 141856 141577 141306 141043 140785 140532 140283
          140038 139796 139557 139321 139087 138855 138626 138399 138175 137954 137735 137520
          137308 137100 136895 136694 136497 136303 136112 135925 135741 135559 135380 135203
          135027 134853 134680 134507 134335 145525 145030 144546 144079 143634 143214 142819
          142447 142097 141765 141449 141148 140858 140579 140308 140044 139786 139532 139283
          139038 138795 138555 138317 138082 137848 137617 137388 137161 136936 136714 136495
          136279 136067 135858 135653 135452 135255 135062 134872 134686 134503 134323 134145
          133969 133795 133622 133450 133279 133109 143838 143401 142971 142553 142152 141769
          141406 141061 140734 140422 140124 139838 139561 139293 139031 138775 138524 138276
          138031 137789 137549 137312 137075 136841 136608 136377 136147 135920 135694 135471
          135251 135035 134822 134612 134407 134207 134010 133818 133629 133444 133263 133084
          132908 132733 132561 132390 132220 132051 131882 142152 141765 141383 141010 140650
          140304 139973 139657 139355 139066 138787 138518 138256 138000 137749 137502 137258
          137016 136777 136539 136302 136066 135832 135598 135366 135135 134905 134676 134450
          134226 134004 133786 133572 133363 133157 132957 132761 132569 132382 132199 132019
          131842 131668 131496 131326 131157 130990 130823 130656 140466 140124 139786 139455
          139133 138823 138525 138239 137964 137698 137441 137190 136945 136703 136463 136226
          135990 135755 135520 135287 135053 134820 134587 134355 134123 133891 133661 133431
          133203 132977 132754 132535 132319 132108 131902 131702 131507 131317 131132 130950
          130773 130598 130427 130257 130090 129924 129758 129594 129430 138780 138479 138181
          137889 137605 137330 137065 136810 136563 136323 136089 135858 135630 135403 135176
          134949 134721 134493 134264 134034 133804 133573 133342 133111 132879 132647 132415
          132184 131954 131726 131501 131278 131061 130849 130642 130442 130248 130060 129877
          129698 129523 129352 129183 129016 128852 128689 128526 128365 128204 137094 136831
          136571 136316 136068 135827 135595 135372 135155 134942 134733 134524 134314 134102
          133888 133672 133453 133231 133008 132782 132555 132327 132097 131867 131635 131403
          131170 130937 130704 130473 130243 130018 129797 129583 129376 129176 128984 128797
          128617 128442 128270 128102 127937 127774 127613 127453 127294 127135 126978 135408
          135181 134956 134735 134522 134316 134117 133927 133742 133559 133376 133190 133000
          132804 132603 132397 132187 131972 131754 131532 131308 131082 130854 130624 130392
          130159 129924 129689 129452 129217 128983 128752 128527 128310 128102 127903 127712
          127529 127353 127181 127014 126850 126689 126529 126372 126216 126060 125906 125751
          133722 133528 133336 133148 132968 132795 132632 132476 132326 132176 132023 131862
          131692 131512 131324 131128 130925 130716 130502 130285 130064 129839 129612 129382
          129150 128916 128680 128441 128201 127959 127718 127480 127249 127028 126818 126621
          126434 126255 126083 125917 125754 125595 125438 125283 125130 124978 124827 124676
          124525 132036 131872 131711 131555 131406 131266 131138 131020 130909 130797 130677
          130543 130393 130229 130052 129864 129668 129465 129255 129041 128822 128599 128373
          128144 127911 127676 127437 127196 126950 126702 126451 126202 125961 125733 125523
          125328 125147 124974 124809 124648 124491 124338 124186 124036 123887 123739 123592
          123445 123299 130350 130214 130081 129953 129834 129726 129632 129556 129492 129428
          129347 129240 129109 128958 128790 128610 128419 128220 128013 127801 127584 127362
          127137 126908 126675 126439 126198 125954 125704 125447 125184 124917 124657 124420
          124211 124023 123850 123686 123529 123376 123226 123078 122932 122787 122643 122500
          122357 122215 122072 128664 128553 128446 128344 128251 128170 128108 128075 128075
          128080 128046 127962 127845 127703 127542 127366 127178 126982 126777 126566 126350
          126129 125904 125675 125442 125205 124964 124717 124463 124200 123923 123625 123327
          123077 122877 122705 122545 122393 122245 122101 121958 121817 121677 121538 121399
          121260 121122 120984 120846 126978 126890 126806 126726 126655 126597 126558 126552
          126634 126800 126791 126717 126605 126466 126307 126133 125947 125751 125547 125337
          125121 124900 124676 124447 124214 123976 123734 123487 123231 122966 122682 122365
          121912 121684 121522 121374 121233 121095 120959 120823 120689 120555 120421 120288
          120154 120020 119887 119753 119620 125291 125225 125160 125100 125047 125005 124979
          124974 124978 125022 125003 124932 124826 124697 124550 124390 124220 124041 123855
          123663 123465 123263 123057 122846 122630 122408 122180 121943 121694 121426 121128
          120773 120311 120261 120154 120038 119917 119795 119671 119546 119420 119293 119165
          119037 118909 118780 118652 118523 118394 123605 123557 123510 123467 123429 123398
          123378 123368 123366 123326 123265 123179 123070 122945 122806 122658 122501 122338
          122168 121994 121814 121630 121442 121249 121051 120847 120634 120411 120173 119914
          119623 119283 118885 118859 118793 118705 118604 118497 118384 118269 118151 118031
          117910 117787 117664 117541 117416 117292 117168 121919 121888 121857 121828 121802
          121780 121764 121755 121752 121656 121556 121447 121330 121205 121072 120934 120790
          120641 120487 120330 120168 120002 119832 119658 119478 119293 119099 118893 118674
          118433 118164 117860 117517 117500 117452 117383 117298 117203 117101 116994 116884
          116771 116655 116538 116420 116301 116182 116062 115941 120233 120218 120203 120187
          120172 120157 120144 120135 120132 119991 119856 119726 119598 119471 119344 119215
          119083 118948 118810 118669 118525 118378 118227 118072 117912 117747 117574 117390
          117194 116979 116742 116478 116185 116171 116133 116075 116001 115916 115823 115723
          115620 115512 115402 115291 115177 115062 114947 114831 114715 118547 118549 118549
          118547 118541 118532 118520 118510 118505 118319 118151 118001 117866 117739 117618
          117498 117379 117258 117136 117012 116886 116757 116625 116490 116352 116208 116058
          115900 115732 115549 115348 115126 114880 114868 114834 114782 114715 114637 114550
          114457 114359 114257 114152 114044 113935 113825 113713 113601 113489 116861 116881
          116898 116909 116914 116909 116895 116878 116869 116627 116425 116262 116124 116003
          115890 115782 115676 115570 115465 115358 115249 115139 115027 114913 114796 114675
          114551 114421 114284 114136 113976 113799 113600 113588 113554 113504 113440 113366
          113284 113195 113102 113004 112903 112800 112694 112588 112480 112371 112262 115175
          115215 115252 115280 115296 115296 115277 115236 115210 114885 114661 114498 114369
          114258 114158 114063 113972 113883 113794 113704 113614 113523 113431 113337 113243
          113147 113049 112949 112845 112736 112620 112493 112344 112329 112291 112239 112175
          112103 112024 111939 111848 111754 111657 111557 111455 111352 111247 111142 111036
          113489 113554 113614 113662 113694 113704 113682 113614 113427 113034 112841 112704
          112596 112503 112420 112342 112268 112195 112124 112052 111980 111908 111835 111763
          111691 111620 111550 111481 111412 111343 111275 111206 111131 111089 111041 110984
          110920 110848 110770 110687 110599 110508 110413 110316 110217 110117 110015 109913
          109810 111803 111898 111987 112061 112115 112140 112129 112066 111932 111753 111591
          111465 111362 111272 111190 111114 111040 110968 110897 110825 110753 110681 110609
          110536 110464 110393 110323 110254 110185 110117 110048 109981 109916 109857 109799
          109738 109671 109599 109521 109439 109354 109264 109172 109078 108981 108883 108784
          108684 108584 110117 110250 110375 110481 110563 110613 110625 110593 110518 110415
          110306 110205 110115 110032 109956 109882 109811 109741 109671 109599 109527 109455
          109382 109309 109237 109166 109096 109026 108958 108890 108822 108755 108690 108626
          108562 108497 108427 108354 108277 108196 108111 108024 107933 107841 107746 107650
          107553 107456 107358 108430 108611 108780 108926 109042 109123 109165 109168 109137
          109080 109009 108934 108860 108788 108718 108649 108582 108514 108445 108373 108301
          108228 108155 108081 108007 107937 107867 107798 107730 107662 107595 107528 107461
          107395 107328 107259 107188 107114 107037 106956 106872 106786 106697 106606 106513
          106419 106324 106228 106131 106744 106985 107209 107402 107558 107672 107745 107780
          107781 107757 107714 107661 107603 107541 107478 107415 107352 107287 107218 107146
          107073 107000 106926 106852 106777 106706 106638 106570 106502 106435 106367 106299
          106232 106164 106095 106025 105952 105877 105800 105719 105636 105550 105463 105373
          105281 105188 105094 105000 104905 105058 105377 105670 105918 106115 106263 106365
          106426 106452 106451 106430 106393 106348 106296 106240 106181 106122 106059 105990
          105918 105845 105772 105697 105622 105547 105476 105409 105342 105275 105207 105139
          105071 105003 104934 104864 104792 104719 104643 104566 104485 104402 104317 104230
          104141 104051 103959 103866 103773 103679 103372 103799 104178 104485 104723 104900
          105025 105106 105151 105167 105159 105135 105099 105054 105003 104949 104892 104830
          104761 104689 104617 104543 104469 104394 104318 104246 104180 104114 104047 103979
          103912 103843 103774 103705 103634 103562 103488 103412 103334 103254 103171 103086
          103000 102911 102821 102730 102638 102545 102452 101686 102281 102763 103122 103391
          103588 103729 103823 103879 103904 103906 103889 103858 103817 103770 103718 103664
          103602 103533 103462 103389 103316 103241 103166 103090 103018 102952 102886 102820
          102752 102685 102616 102547 102477 102406 102333 102259 102183 102104 102024 101942
          101857 101771 101683 101593 101503 101411 101319 101226 100000 100929 101467 101848
          102128 102333 102479 102578 102637 102666 102670 102655 102627 102588 102542 102491
          102437 102375 102306 102235 102162 102089 102015 101939 101863 101791 101726 101660
          101593 101526 101458 101389 101320 101250 101179 101106 101032 100955 100877 100797
          100714 100630 100544 100456 100366 100276 100184 100092 100000
        </DataArray>
        <DataArray type="Float32" Name="rho_aq" NumberOfComponents="1" format="ascii">
          1000 1000 1000 1000 1000 1000 1000 1000 1000 1000 1000 1000
          1000 1000 1000 1000 1000 1000 1000 1000 1000 1000 1000 1000
          1000 1000 1000 1000 1000 1000 1000 1000 1000 1000 1000 1000
          1000 1000 1000 1000 1000 1000 1000 1000 1000 1000 1000 1000
          1000 1000 1000 1000 1000 1000 1000 1000 1000 1000 1000 1000
          1000 1000 1000 1000 1000 1000 1000 1000 1000 1000 1000 1000
          1000 1000 1000 1000 1000 1000 1000 1000 1000 1000 1000 1000
          1000 1000 1000 1000 1000 1000 1000 1000 1000 1000 1000 1000
          1000 1000 1000 1000 1000 1000 1000 1000 1000 1000 1000 1000
          1000 1000 1000 1000 1000 1000 1000 1000 1000 1000 1000 1000
          1000 1000 1000 1000 1000 1000 1000 1000 1000 1000 1000 1000
          1000 1000 1000 1000 1000 1000 1000 1000 1000 1000 1000 1000
          1000 1000 1000 1000 1000 1000 1000 1000 1000 1000 1000 1000
          1000 1000 1000 1000 1000 1000 1000 1000 1000 1000 1000 1000
          1000 1000 1000 1000 1000 1000 1000 1000 1000 1000 1000 1000
          1000 1000 1000 1000 1000 1000 1000 1000 1000 1000 1000 1000
          1000 1000 1000 1000 1000 1000 1000 1000 1000 1000 1000 1000
          1000 1000 1000 1000 1000 1000 1000 1000 1000 1000 1000 1000
          1000 1000 1000 1000 1000 1000 1000 1000 1000 1000 1000 1000
          1000 1000 1000 1000 1000 1000 1000 1000 1000 1000 1000 1000
          1000 1000 1000 1000 1000 1000 1000 1000 1000 1000 1000 1000
          1000 1000 1000 1000 1000 1000 1000 1000 1000 1000 1000 1000
          1000 1000 1000 1000 1000 1000 1000 1000 1000 1000 1000 1000
          1000 1000 1000 1000 1000 1000 1000 1000 1000 1000 1000 1000
          1000 1000 1000 1000 1000 1000 1000 1000 1000 1000 1000 1000
          1000 1000 1000 1000 1000 1000 1000 1000 1000 1000 1000 1000
          1000 1000 1000 1000 1000 1000 1000 1000 1000 1000 1000 1000
          1000 1000 1000 1000 1000 1000 1000 1000 1000 1000 1000 1000
          1000 1000 1000 1000 1000 1000 1000 1000 1000 1000 1000 1000
          1000 1000 1000 1000 1000 1000 1000 1000 1000 1000 1000 1000
          1000 1000 1000 1000 1000 1000 1000 1000 1000 1000 1000 1000
          1000 1000 1000 1000 1000 1000 1000 1000 1000 1000 1000 1000
          1000 1000 1000 1000 1000 1000 1000 1000 1000 1000 1000 1000
          1000 1000 1000 1000 1000 1000 1000 1000 1000 1000 1000 1000
          1000 1000 1000 1000 1000 1000 1000 1000 1000 1000 1000 1000
          1000 1000 1000 1000 1000 1000 1000 1000 1000 1000 1000 1000
          1000 1000 1000 1000 1000 1000 1000 1000 1000 1000 1000 1000
          1000 1000 1000 1000 1000 1000 1000 1000 1000 1000 1000 1000
          1000 1000 1000 1000 1000 1000 1000 1000 1000 1000 1000 1000
          1000 1000 1000 1000 1000 1000 1000 1000 1000 1000 1000 1000
          1000 1000 1000 1000 1000 1000 1000 1000 1000 1000 1000 1000
          1000 1000 1000 1000 1000 1000 1000 1000 1000 1000 1000 1000
          1000 1000 1000 1000 1000 1000 1000 1000 1000 1000 1000 1000
          1000 1000 1000 1000 1000 1000 1000 1000 1000 1000 1000 1000
          1000 1000 1000 1000 1000 1000 1000 1000 1000 1000 1000 1000
          1000 1000 1000 1000 1000 1000 1000 1000 1000 1000 1000 1000
          1000 1000 1000 1000 1000 1000 1000 1000 1000 1000 1000 1000
          1000 1000 1000 1000 1000 1000 1000 1000 1000 1000 1000 1000
          1000 1000 1000 1000 1000 1000 1000 1000 1000 1000 1000 1000
          1000 1000 1000 1000 1000 1000 1000 1000 1000 1000 1000 1000
          1000 1000 1000 1000 1000 1000 1000 1000 1000 1000 1000 1000
          1000 1000 1000 1000 1000 1000 1000 1000 1000 1000 1000 1000
          1000 1000 1000 1000 1000 1000 1000 1000 1000 1000 1000 1000
          1000 1000 1000 1000 1000 1000 1000 1000 1000 1000 1000 1000
          1000 1000 1000 1000 1000 1000 1000 1000 1000 1000 1000 1000
          1000 1000 1000 1000 1000 1000 1000 1000 1000 1000 1000 1000
          1000 1000 1000 1000 1000 1000 1000 1000 1000 1000 1000 1000
          1000 1000 1000 1000 1000 1000 1000 1000 1000 1000 1000 1000
          1000 1000 1000 1000 1000 1000 1000 1000 1000 1000 1000 1000
          1000 1000 1000 1000 1000 1000 1000 1000 1000 1000 1000 1000
          1000 1000 1000 1000 1000 1000 1000 1000 1000 1000 1000 1000
          1000 1000 1000 1000 1000 1000 1000 1000 1000 1000 1000 1000
          1000 1000 1000 1000 1000 1000 1000 1000 1000 1000 1000 1000
          1000 1000 1000 1000 1000 1000 1000 1000 1000 1000 1000 1000
          1000 1000 1000 1000 1000 1000 1000 1000 1000 1000 1000 1000
          1000 1000 1000 1000 1000 1000 1000 1000 1000 1000 1000 1000
          1000 1000 1000 1000 1000 1000 1000 1000 1000 1000 1000 1000
          1000 1000 1000 1000 1000 1000 1000 1000 1000 1000 1000 1000
          1000 1000 1000 1000 1000 1000 1000 1000 1000 1000 1000 1000
          1000 1000 1000 1000 1000 1000 1000 1000 1000 1000 1000 1000
          1000 1000 1000 1000 1000 1000 1000 1000 1000 1000 1000 1000
          1000 1000 1000 1000 1000 1000 1000 1000 1000 1000 1000 1000
          1000 1000 1000 1000 1000 1000 1000 1000 1000 1000 1000 1000
          1000 1000 1000 1000 1000 1000 1000 1000 1000 1000 1000 1000
          1000 1000 1000 1000 1000 1000 1000 1000 1000 1000 1000 1000
          1000 1000 1000 1000 1000 1000 1000 1000 1000 1000 1000 1000
          1000 1000 1000 1000 1000 1000 1000 1000 1000 1000 1000 1000
          1000 1000 1000 1000 1000 1000 1000 1000 1000 1000 1000 1000
          1000 1000 1000 1000 1000 1000 1000 1000 1000 1000 1000 1000
          1000 1000 1000 1000 1000 1000 1000 1000 1000 1000 1000 1000
          1000 1000 1000 1000 1000 1000 1000 1000 1000 1000 1000 1000
          1000 1000 1000 1000 1000 1000 1000 1000 1000 1000 1000 1000
          1000 1000 1000 1000 1000 1000 1000 1000 1000 1000 1000 1000
          1000 1000 1000 1000 1000 1000 1000 1000 1000 1000 1000 1000
          1000 1000 1000 1000 1000 1000 1000 1000 1000 1000 1000 1000
          1000 1000 1000 1000 1000 1000 1000 1000 1000 1000 1000 1000
          1000 1000 1000 1000 1000 1000 1000 1000 1000 1000 1000 1000
          1000 1000 1000 1000 1000 1000 1000 1000 1000 1000 1000 1000
          1000 1000 1000 1000 1000 1000 1000 1000 1000 1000 1000 1000
          1000 1000 1000 1000 1000 1000 1000 1000 1000 1000 1000 1000
          1000 1000 1000 1000 1000 1000 1000 1000 1000 1000 1000 1000
          1000 1000 1000 1000 1000 1000 1000 1000 1000 1000 1000 1000
          1000 1000 1000 1000 1000 1000 1000 1000 1000 1000 1000 1000
          1000 1000 1000 1000 1000 1000 1000 1000 1000 1000 1000 1000
          1000 1000 1000 1000 1000 1000 1000 1000 1000 1000 1000 1000
          1000 1000 1000 1000 1000 1000 1000 1000 1000 1000 1000 1000
          1000 1000 1000 1000 1000 1000 1000 1000 1000 1000 1000 1000
          1000 1000 1000 1000 1000 1000 1000 1000 1000 1000 1000 1000
          1000 1000 1000 1000 1000 1000 1000 1000 1000 1000 1000 1000
          1000 1000 1000 1000 1000 1000 1000 1000 1000 1000 1000 1000
          1000 1000 1000 1000 1000 1000 1000 1000 1000 1000 1000 1000
          1000 1000 1000 1000 1000 1000 1000 1000 1000 1000 1000 1000
          1000 1000 1000 1000 1000 1000 1000 1000 1000 1000 1000 1000
          1000 1000 1000 1000 1000 1000 1000 1000 1000 1000 1000 1000
          1000 1000 1000 1000 1000 1000 1000 1000 1000 1000 1000 1000
          1000 1000 1000 1000 1000 1000 1000 1000 1000 1000 1000 1000
          1000 1000 1000 1000 1000 1000 1000 1000 1000 1000 1000 1000
          1000 1000 1000 1000 1000 1000 1000 1000 1000 1000 1000 1000
          1000 1000 1000 1000 1000 1000 1000 1000 1000 1000 1000 1000
          1000 1000 1000 1000 1000 1000 1000 1000 1000 1000 1000 1000
          1000 1000 1000 1000 1000 1000 1000 1000 1000 1000 1000 1000
          1000 1000 1000 1000 1000 1000 1000 1000 1000 1000 1000 1000
          1000 1000 1000 1000 1000 1000 1000 1000 1000 1000 1000 1000
          1000 1000 1000 1000 1000 1000 1000 1000 1000 1000 1000 1000
          1000 1000 1000 1000 1000 1000 1000 1000 1000 1000 1000 1000
          1000 1000 1000 1000 1000 1000 1000 1000 1000 1000 1000 1000
          1000 1000 1000 1000 1000 1000 1000 1000 1000 1000 1000 1000
          1000 1000 1000 1000 1000 1000 1000 1000 1000 1000 1000 1000
          1000 1000 1000 1000 1000 1000 1000 1000 1000 1000 1000 1000
          1000 1000 1000 1000 1000 1000 1000 1000 1000 1000 1000 1000
          1000 1000 1000 1000 1000 1000 1000 1000 1000 1000 1000 1000
          1000 1000 1000 1000 1000 1000 1000 1000 1000 1000 1000 1000
          1000 1000 1000 1000 1000 1000 1000 1000 1000 1000 1000 1000
          1000 1000 1000 1000 1000 1000 1000 1000 1000 1000 1000 1000
          1000 1000 1000 1000 1000 1000 1000 1000 1000 1000 1000 1000
          1000 1000 1000 1000 1000 1000 1000 1000 1000 1000 1000 1000
          1000 1000 1000 1000 1000 1000 1000 1000 1000 1000 1000 1000
          1000 1000 1000 1000 1000 1000 1000 1000 1000 1000 1000 1000
          1000 1000 1000 1000 1000 1000 1000 1000 1000 1000 1000 1000
          1000 1000 1000 1000 1000 1000 1000 1000 1000 1000 1000 1000
          1000 1000 1000 1000 1000 1000 1000 1000 1000 1000 1000 1000
          1000 1000 1000 1000 1000 1000 1000 1000 1000 1000 1000 1000
          1000 1000 1000 1000 1000 1000 1000 1000 1000 1000 1000 1000
          1000 1000 1000 1000 1000 1000 1000 1000 1000 1000 1000 1000
          1000 1000 1000 1000 1000 1000 1000 1000 1000
        </DataArray>
        <DataArray type="Float32" Name="mob_aq" NumberOfComponents="1" format="ascii">
          1000 1000 1000 1000 1000 1000 1000 1000 1000 1000 1000 1000
          1000 1000 1000 1000 1000 1000 1000 1000 1000 1000 1000 1000
          1000 1000 1000 1000 1000 1000 1000 1000 1000 1000 1000 1000
          1000 1000 1000 1000 1000 1000 1000 1000 1000 1000 1000 1000
          1000 1000 1000 1000 1000 1000 1000 1000 1000 1000 1000 1000
          1000 1000 1000 1000 1000 1000 1000 1000 1000 1000 1000 1000
          1000 1000 1000 1000 1000 1000 1000 1000 1000 1000 1000 1000
          1000 1000 1000 1000 1000 1000 1000 1000 1000 1000 1000 1000
          1000 1000 1000 1000 1000 1000 1000 1000 1000 1000 1000 1000
          1000 1000 1000 1000 1000 1000 1000 1000 1000 1000 1000 1000
          1000 1000 1000 1000 1000 1000 1000 1000 1000 1000 1000 1000
          1000 1000 1000 1000 1000 1000 1000 1000 1000 1000 1000 1000
          1000 1000 1000 1000 1000 1000 1000 1000 1000 1000 1000 1000
          1000 1000 1000 1000 1000 1000 1000 1000 1000 1000 1000 1000
          1000 1000 1000 1000 1000 1000 1000 1000 1000 1000 1000 1000
          1000 1000 1000 1000 1000 1000 1000 1000 1000 1000 1000 1000
          1000 1000 1000 1000 1000 1000 1000 1000 1000 1000 1000 1000
          1000 1000 1000 1000 1000 1000 1000 1000 1000 1000 1000 1000
          1000 1000 1000 1000 1000 1000 1000 1000 1000 1000 1000 1000
          1000 1000 1000 1000 1000 1000 1000 1000 1000 1000 1000 1000
          1000 1000 1000 1000 1000 1000 1000 1000 1000 1000 1000 1000
          1000 1000 1000 1000 1000 1000 1000 1000 1000 1000 1000 1000
          1000 1000 1000 1000 1000 1000 1000 1000 1000 1000 1000 1000
          1000 1000 1000 1000 1000 1000 1000 1000 1000 1000 1000 1000
          1000 1000 1000 1000 1000 1000 1000 1000 1000 1000 1000 1000
          1000 1000 1000 1000 1000 1000 1000 1000 1000 1000 1000 1000
          1000 1000 1000 1000 1000 1000 1000 1000 1000 1000 1000 1000
          1000 1000 1000 1000 1000 1000 1000 1000 1000 1000 1000 1000
          1000 1000 1000 1000 1000 1000 1000 1000 1000 1000 1000 1000