<?xml version="1.0"?>
<VTKFile type="PolyData" version="0.1" byte_order="LittleEndian">
  <PolyData>
    <Piece NumberOfLines="137" NumberOfPoints="90">
      <PointData Scalars="S_liq">
        <DataArray type="Float32" Name="S_liq" NumberOfComponents="1" format="ascii">
          1 0.0342338 0.038367 0.103921 0.0517104 0.0377777 0.0537666 1 0.0386924 1 0.0451167 0.0864794
          0.092539 1 1 1 1 1 1 1 1 1 1 1
          1 1 1 1 0.122546 0.0587525 0.370331 0.062426 0.783474 0.991552 1 1
          1 1 0.0476177 1 1 1 0.1204 1 1 1 0.0668555 0.0943604
          1 1 1 0.0711613 1 1 0.0354763 1 1 1 1 1
          1 1 1 1 1 1 1 1 1 1 1 1
          1 1 1 1 1 0.970445 1 1 1 1 1 1
          1 1 1 1 1 1
        </DataArray>
        <DataArray type="Float32" Name="p_liq" NumberOfComponents="1" format="ascii">
          101576 101927 101662 101710 101563 101255 101632 101819 101324 101511 102008 102101
          101123 104502 104502 104502 101425 101004 101004 104502 104502 101004 101150 101100
          101025 101786 101786 101014 101819 102201 102426 101305 104502 102951 101320 101546
          101534 101440 101526 101190 101057 100924 101786 101074 100605 101203 101359 101404
          101352 101337 101399 101235 101653 100963 101541 102007 101264 100557 100683 100937
          101777 101089 101149 100268 100980 100878 100657 101087 100837 100523 100295 101199
          101229 101221 101226 101134 101314 102847 101235 101125 100730 101653 101087 100000
          100000 100631 100523 100523 100000 100657
        </DataArray>
        <DataArray type="Float32" Name="rho_liq" NumberOfComponents="1" format="ascii">
          1000 1000 1000 1000 1000 1000 1000 1000 1000 1000 1000 1000
          1000 1000 1000 1000 1000 1000 1000 1000 1000 1000 1000 1000
          1000 1000 1000 1000 1000 1000 1000 1000 1000 1000 1000 1000
          1000 1000 1000 1000 1000 1000 1000 1000 1000 1000 1000 1000
          1000 1000 1000 1000 1000 1000 1000 1000 1000 1000 1000 1000
          1000 1000 1000 1000 1000 1000 1000 1000 1000 1000 1000 1000
          1000 1000 1000 1000 1000 1000 1000 1000 1000 1000 1000 1000
          1000 1000 1000 1000 1000 1000
        </DataArray>
        <DataArray type="Float32" Name="mob_liq" NumberOfComponents="1" format="ascii">
          1000 1000 1000 1000 1000 1000 1000 1000 1000 1000 1000 1000
          1000 1000 1000 1000 1000 1000 1000 1000 1000 1000 1000 1000
          1000 1000 1000 1000 1000 1000 1000 1000 1000 1000 1000 1000
          1000 1000 1000 1000 1000 1000 1000 1000 1000 1000 1000 1000
          1000 1000 1000 1000 1000 1000 1000 1000 1000 1000 1000 1000
          1000 1000 1000 1000 1000 1000 1000 1000 1000 1000 1000 1000
          1000 1000 1000 1000 1000 1000 1000 1000 1000 1000 1000 1000
          1000 1000 1000 1000 1000 1000
        </DataArray>
        <DataArray type="Float32" Name="S_gas" NumberOfComponents="1" format="ascii">
          0 0.965766 0.961633 0.896079 0.94829 0.962222 0.946233 0 0.961308 0 0.954883 0.913521
          0.907461 0 0 0 0 0 0 0 0 0 0 0
          0 0 0 0 0.877454 0.941248 0.629669 0.937574 0.216526 0.00844828 0 0
          0 0 0.952382 0 0 0 0.8796 0 0 0 0.933145 0.90564
          0 0 0 0.928839 0 0 0.964524 0 0 0 0 0
          0 0 0 0 0 0 0 0 0 0 0 0
          0 0 0 0 0 0.0295548 0 0 0 0 0 0
          0 0 0 0 0 0
        </DataArray>
        <DataArray type="Float32" Name="p_gas" NumberOfComponents="1" format="ascii">
          101576 105000 104995 105000 104984 105000 105000 101819 104988 101511 104997 105000
          104991 104502 104502 104502 101425 101004 101004 104502 104502 101004 101150 101100
          101025 101786 101786 101014 104975 104972 104988 104994 104938 104972 101320 101546
          101534 101440 104982 101190 101057 100924 104971 101074 100605 101203 104973 104994
          101352 101337 101399 104971 101653 100963 104979 102007 101264 100557 100683 100937
          101777 101089 101149 100268 100980 100878 100657 101087 100837 100523 100295 101199
          101229 101221 101226 101134 101314 104971 101235 101125 100730 101653 101087 100000
          100000 100631 100523 100523 100000 100657
        </DataArray>
        <DataArray type="Float32" Name="rho_gas" NumberOfComponents="1" format="ascii">
          1.24951 1.29163 1.29156 1.29163 1.29143 1.29163 1.29163 1.2525 1.29147 1.24871 1.29159 1.29163
          1.29152 1.28549 1.28549 1.28549 1.24765 1.24246 1.24246 1.28549 1.28549 1.24246 1.24427 1.24365
          1.24273 1.25209 1.25209 1.2426 1.29131 1.29128 1.29148 1.29155 1.29087 1.29128 1.24636 1.24914
          1.24899 1.24783 1.2914 1.24476 1.24313 1.24149 1.29127 1.24333 1.23756 1.24492 1.29129 1.29155
          1.24675 1.24657 1.24733 1.29127 1.25045 1.24196 1.29137 1.2548 1.24567 1.23697 1.23853 1.24164
          1.25197 1.24352 1.24425 1.23342 1.24218 1.24092 1.2382 1.24349 1.24042 1.23656 1.23375 1.24487
          1.24524 1.24513 1.2452 1.24407 1.24628 1.29127 1.24531 1.24396 1.2391 1.25045 1.24349 1.23012
          1.23012 1.23788 1.23656 1.23656 1.23012 1.2382
        </DataArray>
        <DataArray type="Float32" Name="mob_gas" NumberOfComponents="1" format="ascii">
          56559.2 56557.2 56557.2 56557.2 56557.2 56557.2 56557.2 56559.1 56557.2 56559.2 56557.2 56557.2
          56557.2 56557.5 56557.5 56557.5 56559.3 56559.5 56559.5 56557.5 56557.5 56559.5 56559.4 56559.5
          56559.5 56559.1 56559.1 56559.5 56557.2 56557.2 56557.2 56557.2 56557.2 56557.2 56559.3 56559.2
          56559.2 56559.3 56557.2 56559.4 56559.5 56559.6 56557.2 56559.5 56559.8 56559.4 56557.2 56557.2
          56559.3 56559.3 56559.3 56557.2 56559.1 56559.5 56557.2 56558.9 56559.4 56559.8 56559.7 56559.6
          56559.1 56559.5 56559.4 56560 56559.5 56559.6 56559.7 56559.5 56559.6 56559.8 56559.9 56559.4
          56559.4 56559.4 56559.4 56559.4 56559.3 56557.2 56559.4 56559.5 56559.7 56559.1 56559.5 56560.1
          56560.1 56559.7 56559.8 56559.8 56560.1 56559.7
        </DataArray>
        <DataArray type="Float32" Name="pc" NumberOfComponents="1" format="ascii">
          0 3073.21 3332.97 3290.18 3420.69 3745.2 3368.41 0 3663.52 0 2989.62 2899.19
          3868.29 -0 -0 -0 0 -0 -0 -0 -0 -0 -0 -0
          -0 -0 -0 -0 3155.65 2770.84 2562.1 3689.1 436.894 2020.82 0 0
          -0 -0 3455.72 0 0 -0 3184.5 -0 -0 -0 3613.62 3589.87
          0 0 0 3736.21 -0 -0 3437.47 0 -0 -0 -0 -0
          -0 -0 -0 -0 -0 -0 -0 -0 -0 -0 -0 -0
          -0 -0 -0 -0 -0 2124.12 0 0 -0 -0 -0 -0
          -0 -0 -0 -0 -0 -0
        </DataArray>
        <DataArray type="Float32" Name="porosity" NumberOfComponents="1" format="ascii">
          1 1 1 1 1 1 1 1 1 1 1 1
          1 1 1 1 1 1 1 1 1 1 1 1
          1 1 1 1 1 1 1 1 1 1 1 1
          1 1 1 1 1 1 1 1 1 1 1 1
          1 1 1 1 1 1 1 1 1 1 1 1
          1 1 1 1 1 1 1 1 1 1 1 1
          1 1 1 1 1 1 1 1 1 1 1 1
          1 1 1 1 1 1
        </DataArray>
        <DataArray type="Float32" Name="poreInscribedRadius" NumberOfComponents="1" format="ascii">
          0.00010842 0.0002263 0.00018872 8.6711e-05 0.00014246 0.00017024 0.00014006 5.8137e-05 0.00017043 0.00014712 0.00018289 0.00011213
          8.001e-05 0.00026652 0.00010984 0.00018149 0.0001191 0.00010862 6.7563e-05 0.00013353 8.8091e-05 0.00011873 8.6177e-05 0.00014165
          9.7691e-05 0.00014071 8.5166e-05 0.00010965 8.1041e-05 0.00015832 6.1496e-05 0.00011323 0.00033347 6.7184e-05 0.00010274 0.00016438
          0.00011759 8.0701e-05 0.00015113 0.00013784 9.8161e-05 0.00013 8.1223e-05 0.00014997 0.00013153 0.00020701 0.00010946 8.5023e-05
          7.8721e-05 0.00017262 0.00012575 0.00010082 0.00015856 0.00012022 0.00019603 9.1747e-05 0.0001146 0.00025862 0.00012908 0.00025963
          0.00010958 6.7231e-05 0.00012907 0.00015315 9.4275e-05 0.00019972 7.1623e-05 0.00014025 0.00011092 0.00015744 5.0362e-05 0.00022549
          0.00010874 9.8868e-05 0.00010793 0.00015434 8.0185e-05 6.8354e-05 0.00014551 0.00014525 0.00017218 0.00012177 9.0671e-05 0.00015715
          0.00012027 0.00015784 0.00022979 0.00010367 5.3866e-05 0.00024136
        </DataArray>
        <DataArray type="Float32" Name="coordinationNumber" NumberOfComponents="1" format="ascii">
          6 1 4 1 3 1 5 2 6 3 4 1
          2 4 2 3 2 6 1 1 1 1 4 2
          3 2 1 2 3 7 2 4 3 4 6 2
          3 4 3 5 5 3 4 6 4 5 4 4
          4 4 5 7 3 3 2 3 2 5 2 4
          3 2 2 2 3 4 5 4 4 6 2 5
          4 3 2 2 2 1 1 4 2 1 1 3
          1 2 1 1 1 1
        </DataArray>
        <DataArray type="Float32" Name="poreLabel" NumberOfComponents="1" format="ascii">
          -1 2 -1 2 -1 2 2 -1 -1 -1 -1 2
          -1 -1 -1 -1 -1 -1 -1 -1 -1 -1 -1 -1
          -1 -1 -1 -1 -1 -1 -1 -1 -1 -1 -1 -1
          -1 -1 -1 -1 -1 -1 -1 -1 -1 -1 -1 -1
          -1 -1 -1 -1 -1 -1 -1 -1 -1 -1 -1 -1
          -1 -1 -1 -1 -1 -1 -1 -1 -1 -1 -1 -1
          -1 -1 -1 -1 -1 -1 -1 -1 -1 -1 -1 3
          3 -1 -1 -1 3 -1
        </DataArray>
      </PointData>
      <CellData Scalars="process rank" Vectors="velocity_liq (m/s)">
        <DataArray type="Float32" Name="velocity_liq (m/s)" NumberOfComponents="3" format="ascii">
          0.474002 0.474002 -0.474002 0.00419239 -0 -0.00419239 -0.0214278 0.0214278 0 0.0865342 -0 -0
          -0.3117 0.3117 0 0.280493 0.280493 0.280493 0.133148 -0 0.133148 -0.0159949 0 0.0159949
          0.254578 -0.254578 -0.254578 -0.00937851 0.00937851 0.00937851 -0.00360271 -0.00360271 0.00360271 -0 0 0
          -0 0 -0 0.237102 -0 -0 -0.136539 0.136539 0.136539 -0 -0 0
          -0 0 -0 -0 0 -0 -0 0 0 -0.084087 0.084087 0
          0.068677 0.068677 -0.068677 -0 0 -0 -0.0171587 0 0 0.0121719 -0.0121719 -0
          -0.0152211 0 0 -0.052731 -0.052731 0 -0.0477246 0 0 0.0257216 -0 -0.0257216
          0.206149 -0 -0 2.58405 2.58405 -0 0 -0 -0 -0.863433 -0.863433 0.863433
          0.632005 0.632005 0.632005 0.513009 -0 0.513009 -0 -0 0.154503 0.284343 0.284343 -0
          0.0705327 -0 -0.0705327 -0 -0 0.337141 -0.404358 0 0 -0 0.45816 -0
          -0 0.194793 -0.194793 0 0 -0 0.454464 -0.454464 -0 -0 0.443113 -0.443113
          0.37418 0.37418 -0 -0.108578 0.108578 0.108578 -0 0 0 -0.0397463 0 0
          -0 -0 0.254438 0.623685 0.623685 0.623685 -0.489196 0 0.489196 0 -0.102913 0
          0.264495 -0 0.264495 0 -0.052644 0 0.0342697 -0 0.0342697 -0 -0 0.00974109
          0 -0.304524 0 0.139349 0.139349 -0.139349 0.109697 -0 -0.109697 -0.084888 -0.084888 -0.084888
          -0 0.190157 0.190157 -0 0.0367884 0.0367884 0 -0.0674709 0 0.051012 -0.051012 0.051012
          0.0335945 -0 0.0335945 -0 0.013184 0.013184 -0.109926 -0.109926 0.109926 0.498646 -0 0.498646
          0.751993 -0 0.751993 0 -0.211999 0.211999 0 -0.000878985 0 1.54959 1.54959 -0
          -0.602121 -0.602121 0.602121 -0 0.793944 0.793944 0.192435 -0.192435 -0 0.233096 -0.233096 -0.233096
          -0 0.388682 -0.388682 0.424611 -0 0.424611 -0.42451 0 0.42451 0.194347 -0.194347 -0.194347
          -1.08116 0 0 -0 -0 0.892361 0.138626 -0.138626 -0 -0 -0 0.201192
          -0 0.378742 0.378742 -0.0690685 0.0690685 0.0690685 0.894479 -0 -0.894479 -0 0.104578 -0.104578
          -0 0.434322 -0 0.245059 0.245059 -0 -0.353461 0.353461 0 -0.160703 0.160703 0.160703
          0.621102 -0.621102 -0 0 0 -0.518137 0.389722 -0.389722 0.389722 0.0731817 -0.0731817 0.0731817
          1.02346 -0 -1.02346 0 0 -0.103917 0 -0.0676454 0 0.18746 0.18746 0.18746
          -0 0.0129456 -0.0129456 0 0 -0.0413702 -0.00581637 -0.00581637 0 0.0289074 0.0289074 -0.0289074
          0 -0.269951 0 0.00490993 0.00490993 -0.00490993 0.129854 0.129854 0.129854 0.104297 0.104297 0.104297
          0.167134 -0 -0 -0.131386 -0.131386 0 -0.0900754 0.0900754 0.0900754 -0 0 -0
          0.298273 0.298273 0.298273 -0 0.198612 0.198612 0.372558 0.372558 -0.372558 -0 0.644352 -0
          0.263267 -0 -0.263267 -0 -0 0 -0.0851049 0.0851049 0 -0.451886 0 0
          -0.239076 0.239076 0.239076 -0 0 0 -0.129916 0.129916 -0.129916 1.8382 1.8382 -0
          -0.231057 0.231057 0.231057 0.729076 0.729076 -0.729076 -0 -0 0.49133 -0.483111 0.483111 0
          -0 0.604064 0.604064 -0 -0 0.504166 0.826114 -0 -0 -0 0 0
          -0 0 0 0 -0.147742 0.147742 0.991976 -0 0.991976 -0 0 0
          0.591005 -0.591005 0.591005
        </DataArray>
        <DataArray type="Float32" Name="velocity_gas (m/s)" NumberOfComponents="3" format="ascii">
          -0 -0 0 0.963555 -0 -0.963555 2.98223 -2.98223 -0 -0 0 0
          -0 0 0 -0 -0 -0 -0 0 -0 0.250313 -0 -0.250313
          -0 0 0 -0.172451 0.172451 0.172451 0.184134 0.184134 -0.184134 -0 0 0
          -0 0 -0 -0 0 0 -0 0 0 -0 -0 0
          -0 0 -0 -0 0 -0 -0 0 0 -0 0 0
          -0 -0 0 -0 0 -0 -0 0 0 -0 0 0
          1.16298 -0 -0 2.18819 2.18819 -0 0.844319 -0 -0 0.160695 -0 -0.160695
          -4.18242 0 0 -0 -0 0 0 -0 -0 -0 -0 0
          -0 -0 -0 -0 0 -0 0 0 -0 -0 -0 0
          -0 0 0 0 0 -0 -0 0 0 0 -0 0
          0 -0 0 0 0 -0 -0 0 0 0 -0 0
          -0 -0 0 -0 0 0 -0 0 0 -0 0 0
          0 0 -0 -0 -0 -0 -0 0 0 0 -0 0
          -0 0 -0 -0 0.714991 -0 0.299351 -0 0.299351 0 0 -0.0891647
          0 -0 0 -0 -0 0 -0 0 0 -0 -0 -0
          0 -0 -0 -0 0.579861 0.579861 -0 0.00297034 -0 -0.173245 0.173245 -0.173245
          0.0657653 -0 0.0657653 -0 0.0597082 0.0597082 -0 -0 0 -0 0 -0
          -0 0 -0 0 -0 0 -0 0.373232 -0 -0 -0 0
          -0 -0 0 0 -0 -0 -0 0 0 -0 0 0
          0 -0 0 -0 0 -0 -0 0 0 -0 0 0
          -0 0 0 0 0 -0 -0 0 0 0 0 -0
          0 -0 -0 -0 0 0 -0 0 0 0 -0 0
          0 -0 0 -0 -0 0 -0 0 0 -0 0 0
          -0 0 0 0 0 -0 -0 0 -0 -0 0 -0
          -0 0 0 0 0 -0 0 -0 0 -0 -0 -0
          0 -0 0 0 0 -0 -0 -0 0 -0 -0 0
          0 -0 0 -0 -0 0 -0 -0 -0 -0 -0 -0
          -0 0 0 -0 -0 0 0.00663679 -0.00663679 -0.00663679 -0 0 -0
          -0 -0 -0 0 -0 -0 -0 -0 0 0 -0 0
          -0 0 0 -0 -0 0 -0 0 0 -0 0 0
          -0 0 0 -0 0 0 -0 0 -0 -0 -0 0
          -0 0 0 -0 -0 0 0 0 -0 -0 0 0
          0 -0 -0 0 0 -0 -0 0 0 -0 0 0
          -0 0 0 0 -0 0 -0 0 -0 -0 0 0
          -0 0 -0
        </DataArray>
        <DataArray type="Float32" Name="process rank" NumberOfComponents="1" format="ascii">
          0 0 0 0 0 0 0 0 0 0 0 0
          0 0 0 0 0 0 0 0 0 0 0 0
          0 0 0 0 0 0 0 0 0 0 0 0
          0 0 0 0 0 0 0 0 0 0 0 0
          0 0 0 0 0 0 0 0 0 0 0 0
          0 0 0 0 0 0 0 0 0 0 0 0
          0 0 0 0 0 0 0 0 0 0 0 0
          0 0 0 0 0 0 0 0 0 0 0 0
          0 0 0 0 0 0 0 0 0 0 0 0
          0 0 0 0 0 0 0 0 0 0 0 0
          0 0 0 0 0 0 0 0 0 0 0 0
          0 0 0 0 0
        </DataArray>
        <DataArray type="Float32" Name="throatLabel" NumberOfComponents="1" format="ascii">
          2 2 2 2 2 2 2 2 2 -1 -1 -1
          -1 -1 -1 -1 -1 -1 -1 -1 -1 -1 -1 -1
          -1 -1 -1 -1 -1 -1 -1 -1 -1 -1 -1 -1
          -1 -1 -1 -1 -1 -1 -1 -1 -1 -1 -1 -1
          -1 -1 -1 -1 -1 -1 -1 -1 -1 -1 -1 -1
          -1 -1 -1 -1 -1 -1 -1 -1 -1 -1 -1 -1
          -1 -1 -1 -1 -1 -1 -1 -1 -1 -1 -1 -1
          -1 -1 -1 -1 -1 -1 -1 -1 -1 -1 -1 -1
          -1 -1 -1 -1 -1 -1 -1 -1 -1 -1 -1 -1
          -1 -1 -1 -1 -1 -1 -1 -1 -1 -1 -1 -1
          -1 -1 -1 3 -1 3 -1 -1 -1 -1 3 -1
          -1 -1 3 -1 3
        </DataArray>
        <DataArray type="Float32" Name="throatInscribedRadius" NumberOfComponents="1" format="ascii">
          3.3304e-05 3.384e-05 3.3615e-05 3.3259e-05 3.3423e-05 3.3717e-05 3.3301e-05 3.3963e-05 3.3418e-05 3.4247e-05 3.3272e-05 3.37e-05
          3.3125e-05 3.3391e-05 3.3434e-05 3.3768e-05 3.3951e-05 3.3734e-05 3.3508e-05 3.3908e-05 3.3903e-05 3.3674e-05 3.3826e-05 3.3772e-05
          3.3303e-05 3.389e-05 3.3413e-05 3.3431e-05 3.3693e-05 3.353e-05 3.3589e-05 3.3834e-05 3.3987e-05 3.3567e-05 3.3743e-05 3.3553e-05
          3.371e-05 3.3781e-05 3.3426e-05 3.3726e-05 3.3836e-05 3.3664e-05 3.422e-05 3.3429e-05 3.3386e-05 3.305e-05 3.3941e-05 3.3926e-05
          3.3606e-05 3.3937e-05 3.3695e-05 3.3731e-05 3.3671e-05 3.3781e-05 3.3667e-05 3.4584e-05 3.3243e-05 3.3015e-05 3.3252e-05 3.3267e-05
          3.3488e-05 3.3576e-05 3.356e-05 3.3816e-05 3.3764e-05 3.3887e-05 3.4237e-05 3.4047e-05 3.3204e-05 3.2859e-05 3.3938e-05 3.3021e-05
          3.3656e-05 3.3645e-05 3.4391e-05 3.361e-05 3.3463e-05 3.3712e-05 3.3716e-05 3.3657e-05 3.3429e-05 3.3224e-05 3.374e-05 3.3184e-05
          3.3288e-05 3.4084e-05 3.3492e-05 3.3586e-05 3.3937e-05 3.3532e-05 3.3981e-05 3.3517e-05 3.3975e-05 3.3845e-05 3.3562e-05 3.3343e-05
          3.3284e-05 3.3542e-05 3.3486e-05 3.3496e-05 3.3966e-05 3.3533e-05 3.402e-05 3.3455e-05 3.3962e-05 3.3458e-05 3.3693e-05 3.3961e-05
          3.3494e-05 3.3486e-05 3.4314e-05 3.3954e-05 3.3488e-05 3.3852e-05 3.3512e-05 3.3871e-05 3.4113e-05 3.3098e-05 3.3981e-05 3.4127e-05
          3.3649e-05 3.4226e-05 3.3685e-05 3.322e-05 3.2903e-05 3.3521e-05 3.3874e-05 3.374e-05 3.3772e-05 3.344e-05 3.3682e-05 3.3086e-05
          3.3378e-05 3.3359e-05 3.3808e-05 3.3628e-05 3.3247e-05
        </DataArray>
        <DataArray type="Float32" Name="throatLength" NumberOfComponents="1" format="ascii">
          6.6609e-05 3.384e-05 3.3615e-05 9.9777e-05 6.6846e-05 0.00010115 9.9902e-05 6.7925e-05 0.00010025 0.00010274 9.9816e-05 3.37e-05
          9.9376e-05 6.6781e-05 0.0001003 6.7537e-05 6.7903e-05 0.0001012 3.3508e-05 6.7817e-05 0.00010171 6.7347e-05 0.00010148 0.00010132
          6.6606e-05 3.389e-05 6.6826e-05 3.3431e-05 6.7385e-05 6.706e-05 0.00010077 0.0001015 0.00010196 0.0001007 6.7487e-05 0.00010066
          6.7421e-05 3.3781e-05 3.3426e-05 0.00010118 6.7672e-05 0.00010099 3.422e-05 6.6858e-05 6.6772e-05 3.305e-05 6.7881e-05 6.7852e-05
          3.3606e-05 6.7873e-05 3.3695e-05 3.3731e-05 3.3671e-05 3.3781e-05 3.3667e-05 3.4584e-05 6.6486e-05 3.3015e-05 6.6503e-05 9.9802e-05
          6.6975e-05 6.7153e-05 6.7119e-05 3.3816e-05 6.7529e-05 0.00010166 0.00010271 3.4047e-05 3.3204e-05 6.5718e-05 6.7876e-05 6.6043e-05
          3.3656e-05 0.00010094 3.4391e-05 3.361e-05 3.3463e-05 3.3712e-05 6.7432e-05 6.7313e-05 3.3429e-05 9.9673e-05 0.00010122 9.9553e-05
          3.3288e-05 0.00010225 0.00010048 0.00010076 0.00010181 0.0001006 6.7962e-05 3.3517e-05 6.7951e-05 3.3845e-05 3.3562e-05 0.00010003
          3.3284e-05 3.3542e-05 3.3486e-05 6.6992e-05 6.7931e-05 3.3533e-05 0.00010206 6.691e-05 0.00010189 6.6916e-05 6.7385e-05 3.3961e-05
          3.3494e-05 6.6972e-05 3.4314e-05 0.00010186 3.3488e-05 0.00010156 6.7024e-05 0.00010161 0.00010234 3.3098e-05 6.7962e-05 6.8254e-05
          0.00010095 0.00010268 3.3685e-05 3.322e-05 6.5807e-05 3.3521e-05 6.7748e-05 6.748e-05 3.3772e-05 3.344e-05 0.00010104 9.9259e-05
          6.6757e-05 0.00010008 3.3808e-05 0.00010088 9.974e-05
        </DataArray>
        <DataArray type="Float32" Name="pcEntry" NumberOfComponents="1" format="ascii">
          4106.16 4041.12 4068.17 4111.71 4091.54 4055.86 4106.53 4026.48 4092.15 3993.09 4110.11 4057.91
          4128.35 4095.46 4090.19 4049.74 4027.91 4053.82 4081.16 4033.01 4033.61 4061.04 4042.79 4049.26
          4106.28 4035.16 4092.76 4090.56 4058.75 4078.48 4071.32 4041.84 4023.64 4073.98 4052.74 4075.68
          4056.7 4048.18 4091.17 4054.78 4041.6 4062.25 3996.24 4090.8 4096.07 4137.71 4029.09 4030.87
          4069.26 4029.57 4058.51 4054.18 4061.4 4048.18 4061.88 3954.18 4113.69 4142.1 4112.58 4110.72
          4083.6 4072.89 4074.83 4043.99 4050.21 4035.51 3994.26 4016.55 4118.52 4161.77 4029.45 4141.35
          4063.21 4064.54 3976.37 4068.77 4086.65 4056.46 4055.98 4063.09 4090.8 4116.04 4053.1 4121.01
          4108.13 4012.19 4083.11 4071.68 4029.57 4078.24 4024.35 4080.06 4025.06 4040.52 4074.59 4101.35
          4108.62 4077.02 4083.84 4082.62 4026.13 4078.12 4019.74 4087.62 4026.6 4087.26 4058.75 4026.72
          4082.86 4083.84 3985.3 4027.55 4083.6 4039.69 4080.67 4037.42 4008.78 4131.71 4024.35 4007.13
          4064.06 3995.54 4059.71 4116.54 4156.2 4079.58 4037.06 4053.1 4049.26 4089.46 4060.08 4133.21
          4097.05 4099.39 4044.94 4066.59 4113.2
        </DataArray>
        <DataArray type="Float32" Name="transmissibilityW" NumberOfComponents="1" format="ascii">
          1.03853e-14 5.0088e-17 3.16272e-17 6.89564e-15 1.04972e-14 7.18452e-15 6.92186e-15 2.39201e-17 6.99529e-15 9.09232e-18 9.35867e-18 2.15208e-14
          6.81256e-15 1.04673e-14 7.0052e-15 1.08255e-14 1.10024e-14 7.19547e-15 2.1155e-14 1.09607e-14 7.30394e-15 1.07357e-14 7.25421e-15 7.21938e-15
          2.29363e-17 4.5078e-17 2.53641e-17 3.37801e-17 5.266e-17 1.05984e-14 7.10273e-15 7.25965e-15 7.3585e-15 7.08906e-15 1.08015e-14 7.08005e-15
          1.07698e-14 2.16763e-14 2.10001e-14 7.19006e-15 1.08912e-14 7.15077e-15 2.25324e-14 1.05029e-14 1.04624e-14 2.02994e-14 1.09931e-14 1.09783e-14
          2.13412e-14 1.09892e-14 2.15112e-14 2.15802e-14 2.14653e-14 6.24405e-17 3.64348e-17 3.26539e-17 1.03285e-14 2.02349e-14 1.03371e-14 6.90054e-15
          1.05587e-14 2.18411e-17 5.28687e-17 3.62743e-17 1.58957e-17 2.00068e-17 7.52208e-15 2.21924e-14 2.05845e-14 9.97473e-15 2.16084e-17 1.01228e-14
          2.14366e-14 7.13817e-15 2.28719e-14 2.13488e-14 2.10699e-14 2.15438e-14 1.07757e-14 1.07194e-14 2.10058e-14 6.87382e-15 7.19916e-15 6.84902e-15
          2.07411e-14 7.42176e-15 7.0413e-15 7.10089e-15 7.32608e-15 7.06656e-15 1.10318e-14 2.11721e-14 1.10258e-14 2.17998e-14 2.12575e-14 6.94795e-15
          2.07336e-14 2.12195e-14 2.11134e-14 1.05662e-14 1.10174e-14 2.12024e-14 7.37989e-15 1.05274e-14 7.34192e-15 1.05302e-14 1.07538e-14 2.20247e-14
          2.11285e-14 1.05567e-14 3.12823e-17 7.33716e-15 2.11172e-14 7.27081e-15 1.05813e-14 7.28356e-15 7.4405e-15 2.03879e-14 1.10318e-14 1.11746e-14
          7.14086e-15 7.51462e-15 2.1492e-14 2.06142e-14 1.00147e-14 2.11797e-14 1.09279e-14 1.07987e-14 2.1659e-14 2.10265e-14 7.16253e-15 6.78852e-15
          1.04547e-14 6.95781e-15 2.17283e-14 7.12799e-15 6.88824e-15
        </DataArray>
        <DataArray type="Float32" Name="transmissibilityN" NumberOfComponents="1" format="ascii">
          0 1.90471e-14 1.92173e-14 0 0 0 0 9.66779e-15 0 6.85065e-15 6.24298e-15 0
          0 0 0 0 0 0 0 0 0 0 0 0
          9.10385e-15 1.92829e-14 9.13275e-15 1.8811e-14 8.77042e-15 0 0 0 0 0 0 0
          0 0 0 0 0 0 0 0 0 0 0 0
          0 0 0 0 0 1.86144e-14 1.91475e-14 2.09918e-14 0 0 0 0
          0 9.37809e-15 8.65149e-15 1.94243e-14 9.74142e-15 6.28879e-15 0 0 0 0 9.71341e-15 0
          0 0 0 0 0 0 0 0 0 0 0 0
          0 0 0 0 0 0 0 0 0 0 0 0
          0 0 0 0 0 0 0 0 0 0 0 0
          0 0 2.05264e-14 0 0 0 0 0 0 0 0 0
          0 0 0 0 0 0 0 0 0 0 0 0
          0 0 0 0 0
        </DataArray>
        <DataArray type="Float32" Name="volumeFluxW" NumberOfComponents="1" format="ascii">
          3.64245e-09 2.40814e-12 9.74793e-12 3.82883e-10 1.96971e-09 2.20923e-09 8.35263e-10 8.99531e-12 1.96971e-09 4.89807e-12 1.88157e-12 0
          0 1.05743e-09 1.05743e-09 0 0 0 0 5.469e-10 5.469e-10 0 7.85318e-11 7.85318e-11
          5.86931e-12 2.87556e-11 1.93842e-11 1.20598e-11 1.21151e-10 1.6434e-08 0 6.84788e-09 5.05786e-09 3.26983e-09 7.0366e-10 1.81084e-09
          4.53402e-10 1.53892e-09 1.80715e-09 2.08452e-09 1.26155e-09 0 3.01047e-09 2.80115e-09 2.35931e-09 8.21684e-10 0 1.82988e-10
          1.14941e-09 4.9766e-09 3.14188e-09 4.68368e-10 1.69631e-09 2.38529e-11 1.67459e-11 3.22951e-12 1.34611e-09 1.05232e-09 6.86126e-10 6.5087e-10
          1.20633e-09 1.96571e-11 3.96517e-11 3.05293e-11 1.53564e-11 8.29561e-12 8.92711e-10 3.26983e-09 4.68996e-09 1.29485e-09 3.32104e-13 9.55809e-09
          4.7253e-09 5.084e-09 1.28751e-09 1.82428e-09 2.46206e-09 2.72983e-09 2.72983e-09 1.52528e-09 4.83279e-09 3.94007e-09 8.92711e-10 8.86193e-10
          2.37407e-09 5.55907e-10 5.6758e-09 6.67314e-10 2.00087e-09 1.55871e-09 2.30881e-09 1.25076e-09 4.05562e-09 2.37407e-09 3.04138e-09 5.6368e-10
          6.41379e-09 4.67652e-10 3.03406e-10 1.45718e-09 8.44861e-11 1.86077e-10 3.80799e-11 2.24157e-10 1.24546e-09 3.80799e-11 1.02131e-09 8.33396e-10
          7.49997e-10 8.33396e-10 5.04284e-11 0 2.31747e-09 1.28751e-09 2.89878e-09 2.95692e-09 1.73305e-09 0 5.55907e-10 2.10516e-09
          1.87543e-09 0 1.02131e-09 1.14754e-08 1.73305e-09 5.6758e-09 2.2551e-09 3.11108e-09 3.89737e-09 2.2551e-09 3.74883e-09 0
          0 9.3005e-10 6.41379e-09 0 4.52602e-09
        </DataArray>
        <DataArray type="Float32" Name="volumeFluxN" NumberOfComponents="1" format="ascii">
          0 5.68836e-09 1.7706e-08 0 0 0 0 1.49255e-09 0 1.31123e-09 1.31609e-09 0
          0 0 0 0 0 0 0 0 0 0 0 0
          4.71094e-09 1.30235e-08 3.42755e-09 9.40618e-10 1.65339e-08 0 0 0 0 0 0 0
          0 0 0 0 0 0 0 0 0 0 0 0
          0 0 0 0 0 2.9397e-09 1.77312e-09 3.97022e-10 0 0 0 0
          0 3.38808e-09 1.1636e-11 1.26886e-09 3.94049e-10 3.5029e-10 0 0 0 0 1.57852e-09 0
          0 0 0 0 0 0 0 0 0 0 0 0
          0 0 0 0 0 0 0 0 0 0 0 0
          0 0 0 0 0 0 0 0 0 0 0 0
          0 0 5.04248e-11 0 0 0 0 0 0 0 0 0
          0 0 0 0 0 0 0 0 0 0 0 0
          0 0 0 0 0
        </DataArray>
      </CellData>
      <Points>
        <DataArray type="Float32" Name="Coordinates" NumberOfComponents="3" format="ascii">
          2 2 3 1 1 4 2 1 4 1 1 5
          2 1 1 1 2 1 1 2 3 2 1 3
          2 3 4 2 2 4 2 2 2 1 2 4
          1 2 5 2 3 2 1 3 2 2 3 3
          1 3 4 2 4 4 1 3 5 1 4 1
          1 4 2 1 4 4 2 3 5 1 4 5
          2 5 4 2 4 2 1 5 1 1 5 4
          3 1 1 3 2 1 3 1 4 3 1 3
          2 2 1 3 3 1 3 3 3 3 2 3
          3 2 2 2 2 5 3 2 5 3 2 4
          2 4 3 3 4 5 3 3 2 3 4 3
          3 5 4 3 4 2 4 1 2 3 1 2
          4 2 1 4 1 1 4 2 4 4 2 2
          4 3 1 4 2 5 3 3 5 4 4 1
          4 2 3 4 3 5 3 3 4 4 3 3
          3 4 1 3 5 3 4 3 2 4 4 2
          3 5 2 3 4 4 4 5 4 4 3 4
          4 4 3 4 4 5 4 5 3 5 2 2
          4 1 4 4 1 3 5 2 3 5 2 5
          5 3 2 5 1 1 5 1 3 5 3 3
          5 2 4 5 4 1 5 3 4 5 4 5
          5 5 1 4 4 4 5 3 5 5 4 4
          5 5 4 5 4 3
        </DataArray>
      </Points>
      <Lines>
        <DataArray type="Int32" Name="connectivity" NumberOfComponents="1" format="ascii">
          0 1 2 3 4 5 0 6 7 6 8 6
          9 6 10 6 7 11 2 12 8 12 13 14
          15 14 8 16 0 16 17 18 13 19 15 20
          17 21 22 23 24 23 25 26 24 27 17 27
          28 4 29 4 30 2 31 2 29 32 33 32
          13 32 33 10 34 10 35 10 9 0 34 0
          36 0 37 9 38 37 22 37 8 37 15 13
          39 8 40 8 41 22 39 22 42 25 43 40
          17 40 44 40 45 40 24 17 41 17 29 28
          46 28 31 47 36 47 48 47 49 47 50 31
          39 31 38 30 33 29 46 29 51 29 42 29
          52 36 50 35 53 39 34 39 54 38 55 33
          55 42 43 42 56 34 51 34 45 34 57 58
          59 58 50 54 55 60 45 60 52 60 43 45
          61 45 62 43 63 43 64 43 44 65 66 65
          67 65 59 65 57 41 61 64 68 64 69 44
          70 44 46 49 48 49 71 49 48 46 72 73
          74 73 71 73 50 72 74 72 75 72 76 48
          71 51 76 51 77 51 78 51 79 51 67 56
          79 50 57 53 80 53 81 52 71 62 79 59
          71 59 82 67 75 67 83 57 80 57 84 63
          85 68 79 68 66 68 69 85 83 69 86 69
          87 69 66 69 88 70 89 66 83 66
        </DataArray>
        <DataArray type="Int32" Name="offsets" NumberOfComponents="1" format="ascii">
          2 4 6 8 10 12 14 16 18 20 22 24
          26 28 30 32 34 36 38 40 42 44 46 48
          50 52 54 56 58 60 62 64 66 68 70 72
          74 76 78 80 82 84 86 88 90 92 94 96
          98 100 102 104 106 108 110 112 114 116 118 120
          122 124 126 128 130 132 134 136 138 140 142 144
          146 148 150 152 154 156 158 160 162 164 166 168
          170 172 174 176 178 180 182 184 186 188 190 192
          194 196 198 200 202 204 206 208 210 212 214 216
          218 220 222 224 226 228 230 232 234 236 238 240
          242 244 246 248 250 252 254 256 258 260 262 264
          266 268 270 272 274
        </DataArray>
      </Lines>
    </Piece>
  </PolyData>
</VTKFile>
