<?xml version="1.0"?>
<VTKFile type="UnstructuredGrid" version="0.1" byte_order="LittleEndian">
  <UnstructuredGrid>
    <Piece NumberOfCells="250" NumberOfPoints="306">
      <CellData Scalars="S_liq">
        <DataArray type="Float32" Name="S_liq" NumberOfComponents="1" format="ascii">
          0.97475 0.981716 0.99432 1 1 1 1 1 1 1 1 1
          1 1 1 1 1 1 1 1 1 1 1 1
          1 1 1 1 1 1 1 1 1 1 1 1
          1 1 1 1 1 1 1 1 1 1 1 1
          1 1 0.974611 0.981427 0.993947 1 1 1 1 1 1 1
          1 1 1 1 1 1 1 1 1 1 1 1
          1 1 1 1 1 1 1 1 1 1 1 1
          1 1 1 1 1 1 1 1 1 1 1 1
          1 1 1 1 0.97461 0.981426 0.993947 1 1 1 1 1
          1 1 1 1 1 1 1 1 1 1 1 1
          1 1 1 1 1 1 1 1 1 1 1 1
          1 1 1 1 1 1 1 1 1 1 1 1
          1 1 1 1 1 1 0.974611 0.981427 0.993947 1 1 1
          1 1 1 1 1 1 1 1 1 1 1 1
          1 1 1 1 1 1 1 1 1 1 1 1
          1 1 1 1 1 1 1 1 1 1 1 1
          1 1 1 1 1 1 1 1 0.97475 0.981716 0.99432 1
          1 1 1 1 1 1 1 1 1 1 1 1
          1 1 1 1 1 1 1 1 1 1 1 1
          1 1 1 1 1 1 1 1 1 1 1 1
          1 1 1 1 1 1 1 1 1 1
        </DataArray>
        <DataArray type="Float32" Name="p_liq" NumberOfComponents="1" format="ascii">
          100000 100000 100000 100000 100000 100000 100000 100000 100000 100000 100000 100000
          100000 100000 100000 100000 100000 100000 100000 100000 100000 100000 100000 100000
          100000 100000 100000 100000 100000 100000 100000 100000 100000 100000 100000 100000
          100000 100000 100000 100000 100000 100000 100000 100000 100000 100000 100000 100000
          100000 100000 100000 100000 100000 100000 100000 100000 100000 100000 100000 100000
          100000 100000 100000 100000 100000 100000 100000 100000 100000 100000 100000 100000
          100000 100000 100000 100000 100000 100000 100000 100000 100000 100000 100000 100000
          100000 100000 100000 100000 100000 100000 100000 100000 100000 100000 100000 100000
          100000 100000 100000 100000 100000 100000 100000 100000 100000 100000 100000 100000
          100000 100000 100000 100000 100000 100000 100000 100000 100000 100000 100000 100000
          100000 100000 100000 100000 100000 100000 100000 100000 100000 100000 100000 100000
          100000 100000 100000 100000 100000 100000 100000 100000 100000 100000 100000 100000
          100000 100000 100000 100000 100000 100000 100000 100000 100000 100000 100000 100000
          100000 100000 100000 100000 100000 100000 100000 100000 100000 100000 100000 100000
          100000 100000 100000 100000 100000 100000 100000 100000 100000 100000 100000 100000
          100000 100000 100000 100000 100000 100000 100000 100000 100000 100000 100000 100000
          100000 100000 100000 100000 100000 100000 100000 100000 100000 100000 100000 100000
          100000 100000 100000 100000 100000 100000 100000 100000 100000 100000 100000 100000
          100000 100000 100000 100000 100000 100000 100000 100000 100000 100000 100000 100000
          100000 100000 100000 100000 100000 100000 100000 100000 100000 100000 100000 100000
          100000 100000 100000 100000 100000 100000 100000 100000 100000 100000
        </DataArray>
        <DataArray type="Float32" Name="rho_liq" NumberOfComponents="1" format="ascii">
          998.191 998.191 998.191 998.191 998.191 998.191 998.191 998.191 998.191 998.191 998.191 998.191
          998.191 998.191 998.191 998.191 998.191 998.191 998.191 998.191 998.191 998.191 998.191 998.191
          998.191 998.191 998.191 998.191 998.191 998.191 998.191 998.191 998.191 998.191 998.191 998.191
          998.191 998.191 998.191 998.191 998.191 998.191 998.191 998.191 998.191 998.191 998.191 998.191
          998.191 998.191 998.191 998.191 998.191 998.191 998.191 998.191 998.191 998.191 998.191 998.191
          998.191 998.191 998.191 998.191 998.191 998.191 998.191 998.191 998.191 998.191 998.191 998.191
          998.191 998.191 998.191 998.191 998.191 998.191 998.191 998.191 998.191 998.191 998.191 998.191
          998.191 998.191 998.191 998.191 998.191 998.191 998.191 998.191 998.191 998.191 998.191 998.191
          998.191 998.191 998.191 998.191 998.191 998.191 998.191 998.191 998.191 998.191 998.191 998.191
          998.191 998.191 998.191 998.191 998.191 998.191 998.191 998.191 998.191 998.191 998.191 998.191
          998.191 998.191 998.191 998.191 998.191 998.191 998.191 998.191 998.191 998.191 998.191 998.191
          998.191 998.191 998.191 998.191 998.191 998.191 998.191 998.191 998.191 998.191 998.191 998.191
          998.191 998.191 998.191 998.191 998.191 998.191 998.191 998.191 998.191 998.191 998.191 998.191
          998.191 998.191 998.191 998.191 998.191 998.191 998.191 998.191 998.191 998.191 998.191 998.191
          998.191 998.191 998.191 998.191 998.191 998.191 998.191 998.191 998.191 998.191 998.191 998.191
          998.191 998.191 998.191 998.191 998.191 998.191 998.191 998.191 998.191 998.191 998.191 998.191
          998.191 998.191 998.191 998.191 998.191 998.191 998.191 998.191 998.191 998.191 998.191 998.191
          998.191 998.191 998.191 998.191 998.191 998.191 998.191 998.191 998.191 998.191 998.191 998.191
          998.191 998.191 998.191 998.191 998.191 998.191 998.191 998.191 998.191 998.191 998.191 998.191
          998.191 998.191 998.191 998.191 998.191 998.191 998.191 998.191 998.191 998.191 998.191 998.191
          998.191 998.191 998.191 998.191 998.191 998.191 998.191 998.191 998.191 998.191
        </DataArray>
        <DataArray type="Float32" Name="mob_liq" NumberOfComponents="1" format="ascii">
          885.633 915.338 971.061 997.019 997.019 997.019 997.019 997.019 997.019 997.019 997.019 997.019
          997.019 997.019 997.019 997.019 997.019 997.019 997.019 997.019 997.019 997.019 997.019 997.019
          997.019 997.019 997.019 997.019 997.019 997.019 997.019 997.019 997.019 997.019 997.019 997.019
          997.019 997.019 997.019 997.019 997.019 997.019 997.019 997.019 997.019 997.019 997.019 997.019
          997.019 997.019 885.046 914.094 969.377 997.019 997.019 997.019 997.019 997.019 997.019 997.019
          997.019 997.019 997.019 997.019 997.019 997.019 997.019 997.019 997.019 997.019 997.019 997.019
          997.019 997.019 997.019 997.019 997.019 997.019 997.019 997.019 997.019 997.019 997.019 997.019
          997.019 997.019 997.019 997.019 997.019 997.019 997.019 997.019 997.019 997.019 997.019 997.019
          997.019 997.019 997.019 997.019 885.044 914.089 969.374 997.019 997.019 997.019 997.019 997.019
          997.019 997.019 997.019 997.019 997.019 997.019 997.019 997.019 997.019 997.019 997.019 997.019
          997.019 997.019 997.019 997.019 997.019 997.019 997.019 997.019 997.019 997.019 997.019 997.019
          997.019 997.019 997.019 997.019 997.019 997.019 997.019 997.019 997.019 997.019 997.019 997.019
          997.019 997.019 997.019 997.019 997.019 997.019 885.046 914.094 969.377 997.019 997.019 997.019
          997.019 997.019 997.019 997.019 997.019 997.019 997.019 997.019 997.019 997.019 997.019 997.019
          997.019 997.019 997.019 997.019 997.019 997.019 997.019 997.019 997.019 997.019 997.019 997.019
          997.019 997.019 997.019 997.019 997.019 997.019 997.019 997.019 997.019 997.019 997.019 997.019
          997.019 997.019 997.019 997.019 997.019 997.019 997.019 997.019 885.633 915.338 971.061 997.019
          997.019 997.019 997.019 997.019 997.019 997.019 997.019 997.019 997.019 997.019 997.019 997.019
          997.019 997.019 997.019 997.019 997.019 997.019 997.019 997.019 997.019 997.019 997.019 997.019
          997.019 997.019 997.019 997.019 997.019 997.019 997.019 997.019 997.019 997.019 997.019 997.019
          997.019 997.019 997.019 997.019 997.019 997.019 997.019 997.019 997.019 997.019
        </DataArray>
        <DataArray type="Float32" Name="S_gas" NumberOfComponents="1" format="ascii">
          0.0252499 0.0182845 0.00568 0 0 0 0 0 0 0 0 0
          0 0 0 0 0 0 0 0 0 0 0 0
          0 0 0 0 0 0 0 0 0 0 0 0
          0 0 0 0 0 0 0 0 0 0 0 0
          0 0 0.0253894 0.0185726 0.00605256 0 0 0 0 0 0 0
          0 0 0 0 0 0 0 0 0 0 0 0
          0 0 0 0 0 0 0 0 0 0 0 0
          0 0 0 0 0 0 0 0 0 0 0 0
          0 0 0 0 0.0253898 0.0185737 0.00605314 0 0 0 0 0
          0 0 0 0 0 0 0 0 0 0 0 0
          0 0 0 0 0 0 0 0 0 0 0 0
          0 0 0 0 0 0 0 0 0 0 0 0
          0 0 0 0 0 0 0.0253894 0.0185726 0.00605256 0 0 0
          0 0 0 0 0 0 0 0 0 0 0 0
          0 0 0 0 0 0 0 0 0 0 0 0
          0 0 0 0 0 0 0 0 0 0 0 0
          0 0 0 0 0 0 0 0 0.0252499 0.0182845 0.00568 0
          0 0 0 0 0 0 0 0 0 0 0 0
          0 0 0 0 0 0 0 0 0 0 0 0
          0 0 0 0 0 0 0 0 0 0 0 0
          0 0 0 0 0 0 0 0 0 0
        </DataArray>
        <DataArray type="Float32" Name="p_gas" NumberOfComponents="1" format="ascii">
          100102 100101 100100 100100 100100 100100 100100 100100 100100 100100 100100 100100
          100100 100100 100100 100100 100100 100100 100100 100100 100100 100100 100100 100100
          100100 100100 100100 100100 100100 100100 100100 100100 100100 100100 100100 100100
          100100 100100 100100 100100 100100 100100 100100 100100 100100 100100 100100 100100
          100100 100100 100102 100101 100100 100100 100100 100100 100100 100100 100100 100100
          100100 100100 100100 100100 100100 100100 100100 100100 100100 100100 100100 100100
          100100 100100 100100 100100 100100 100100 100100 100100 100100 100100 100100 100100
          100100 100100 100100 100100 100100 100100 100100 100100 100100 100100 100100 100100
          100100 100100 100100 100100 100102 100101 100100 100100 100100 100100 100100 100100
          100100 100100 100100 100100 100100 100100 100100 100100 100100 100100 100100 100100
          100100 100100 100100 100100 100100 100100 100100 100100 100100 100100 100100 100100
          100100 100100 100100 100100 100100 100100 100100 100100 100100 100100 100100 100100
          100100 100100 100100 100100 100100 100100 100102 100101 100100 100100 100100 100100
          100100 100100 100100 100100 100100 100100 100100 100100 100100 100100 100100 100100
          100100 100100 100100 100100 100100 100100 100100 100100 100100 100100 100100 100100
          100100 100100 100100 100100 100100 100100 100100 100100 100100 100100 100100 100100
          100100 100100 100100 100100 100100 100100 100100 100100 100102 100101 100100 100100
          100100 100100 100100 100100 100100 100100 100100 100100 100100 100100 100100 100100
          100100 100100 100100 100100 100100 100100 100100 100100 100100 100100 100100 100100
          100100 100100 100100 100100 100100 100100 100100 100100 100100 100100 100100 100100
          100100 100100 100100 100100 100100 100100 100100 100100 100100 100100
        </DataArray>
        <DataArray type="Float32" Name="rho_gas" NumberOfComponents="1" format="ascii">
          1.14085 1.14085 1.14084 0.948607 0.936296 0.935909 0.935898 0.935898 0.935898 0.935898 0.935898 0.935898
          0.935898 0.935898 0.935898 0.935898 0.935898 0.935898 0.935898 0.935898 0.935898 0.935898 0.935898 0.935898
          0.935898 0.935898 0.935898 0.935898 0.935898 0.935898 0.935898 0.935898 0.935898 0.935898 0.935898 0.935898
          0.935898 0.935898 0.935898 0.935898 0.935898 0.935898 0.935898 0.935898 0.935898 0.935898 0.935898 0.935898
          0.935898 0.935898 1.14085 1.14085 1.14084 0.949389 0.93631 0.93591 0.935898 0.935898 0.935898 0.935898
          0.935898 0.935898 0.935898 0.935898 0.935898 0.935898 0.935898 0.935898 0.935898 0.935898 0.935898 0.935898
          0.935898 0.935898 0.935898 0.935898 0.935898 0.935898 0.935898 0.935898 0.935898 0.935898 0.935898 0.935898
          0.935898 0.935898 0.935898 0.935898 0.935898 0.935898 0.935898 0.935898 0.935898 0.935898 0.935898 0.935898
          0.935898 0.935898 0.935898 0.935898 1.14085 1.14085 1.14084 0.949337 0.936306 0.93591 0.935898 0.935898
          0.935898 0.935898 0.935898 0.935898 0.935898 0.935898 0.935898 0.935898 0.935898 0.935898 0.935898 0.935898
          0.935898 0.935898 0.935898 0.935898 0.935898 0.935898 0.935898 0.935898 0.935898 0.935898 0.935898 0.935898
          0.935898 0.935898 0.935898 0.935898 0.935898 0.935898 0.935898 0.935898 0.935898 0.935898 0.935898 0.935898
          0.935898 0.935898 0.935898 0.935898 0.935898 0.935898 1.14085 1.14085 1.14084 0.949389 0.93631 0.93591
          0.935898 0.935898 0.935898 0.935898 0.935898 0.935898 0.935898 0.935898 0.935898 0.935898 0.935898 0.935898
          0.935898 0.935898 0.935898 0.935898 0.935898 0.935898 0.935898 0.935898 0.935898 0.935898 0.935898 0.935898
          0.935898 0.935898 0.935898 0.935898 0.935898 0.935898 0.935898 0.935898 0.935898 0.935898 0.935898 0.935898
          0.935898 0.935898 0.935898 0.935898 0.935898 0.935898 0.935898 0.935898 1.14085 1.14085 1.14084 0.948607
          0.936296 0.935909 0.935898 0.935898 0.935898 0.935898 0.935898 0.935898 0.935898 0.935898 0.935898 0.935898
          0.935898 0.935898 0.935898 0.935898 0.935898 0.935898 0.935898 0.935898 0.935898 0.935898 0.935898 0.935898
          0.935898 0.935898 0.935898 0.935898 0.935898 0.935898 0.935898 0.935898 0.935898 0.935898 0.935898 0.935898
          0.935898 0.935898 0.935898 0.935898 0.935898 0.935898 0.935898 0.935898 0.935898 0.935898
        </DataArray>
        <DataArray type="Float32" Name="mob_gas" NumberOfComponents="1" format="ascii">
          2.44685 0.934277 0.0282871 0 0 0 0 0 0 0 0 0
          0 0 0 0 0 0 0 0 0 0 0 0
          0 0 0 0 0 0 0 0 0 0 0 0
          0 0 0 0 0 0 0 0 0 0 0 0
          0 0 2.48737 0.978913 0.0342164 0 0 0 0 0 0 0
          0 0 0 0 0 0 0 0 0 0 0 0
          0 0 0 0 0 0 0 0 0 0 0 0
          0 0 0 0 0 0 0 0 0 0 0 0
          0 0 0 0 2.48749 0.97909 0.0342263 0 0 0 0 0
          0 0 0 0 0 0 0 0 0 0 0 0
          0 0 0 0 0 0 0 0 0 0 0 0
          0 0 0 0 0 0 0 0 0 0 0 0
          0 0 0 0 0 0 2.48737 0.978913 0.0342164 0 0 0
          0 0 0 0 0 0 0 0 0 0 0 0
          0 0 0 0 0 0 0 0 0 0 0 0
          0 0 0 0 0 0 0 0 0 0 0 0
          0 0 0 0 0 0 0 0 2.44685 0.934277 0.0282871 0
          0 0 0 0 0 0 0 0 0 0 0 0
          0 0 0 0 0 0 0 0 0 0 0 0
          0 0 0 0 0 0 0 0 0 0 0 0
          0 0 0 0 0 0 0 0 0 0
        </DataArray>
        <DataArray type="Float32" Name="pc" NumberOfComponents="1" format="ascii">
          102.028 101.459 100.448 100 100 100 100 100 100 100 100 100
          100 100 100 100 100 100 100 100 100 100 100 100
          100 100 100 100 100 100 100 100 100 100 100 100
          100 100 100 100 100 100 100 100 100 100 100 100
          100 100 102.04 101.483 100.478 100 100 100 100 100 100 100
          100 100 100 100 100 100 100 100 100 100 100 100
          100 100 100 100 100 100 100 100 100 100 100 100
          100 100 100 100 100 100 100 100 100 100 100 100
          100 100 100 100 102.04 101.483 100.478 100 100 100 100 100
          100 100 100 100 100 100 100 100 100 100 100 100
          100 100 100 100 100 100 100 100 100 100 100 100
          100 100 100 100 100 100 100 100 100 100 100 100
          100 100 100 100 100 100 102.04 101.483 100.478 100 100 100
          100 100 100 100 100 100 100 100 100 100 100 100
          100 100 100 100 100 100 100 100 100 100 100 100
          100 100 100 100 100 100 100 100 100 100 100 100
          100 100 100 100 100 100 100 100 102.028 101.459 100.448 100
          100 100 100 100 100 100 100 100 100 100 100 100
          100 100 100 100 100 100 100 100 100 100 100 100
          100 100 100 100 100 100 100 100 100 100 100 100
          100 100 100 100 100 100 100 100 100 100
        </DataArray>
        <DataArray type="Float32" Name="porosity" NumberOfComponents="1" format="ascii">
          0.2 0.2 0.2 0.2 0.2 0.2 0.2 0.2 0.2 0.2 0.2 0.2
          0.2 0.2 0.2 0.2 0.2 0.2 0.2 0.2 0.2 0.2 0.2 0.2
          0.2 0.2 0.2 0.2 0.2 0.2 0.2 0.2 0.2 0.2 0.2 0.2
          0.2 0.2 0.2 0.2 0.2 0.2 0.2 0.2 0.2 0.2 0.2 0.2
          0.2 0.2 0.2 0.2 0.2 0.2 0.2 0.2 0.2 0.2 0.2 0.2
          0.2 0.2 0.2 0.2 0.2 0.2 0.2 0.2 0.2 0.2 0.2 0.2
          0.2 0.2 0.2 0.2 0.2 0.2 0.2 0.2 0.2 0.2 0.2 0.2
          0.2 0.2 0.2 0.2 0.2 0.2 0.2 0.2 0.2 0.2 0.2 0.2
          0.2 0.2 0.2 0.2 0.2 0.2 0.2 0.2 0.2 0.2 0.2 0.2
          0.2 0.2 0.2 0.2 0.2 0.2 0.2 0.2 0.2 0.2 0.2 0.2
          0.2 0.2 0.2 0.2 0.2 0.2 0.2 0.2 0.2 0.2 0.2 0.2
          0.2 0.2 0.2 0.2 0.2 0.2 0.2 0.2 0.2 0.2 0.2 0.2
          0.2 0.2 0.2 0.2 0.2 0.2 0.2 0.2 0.2 0.2 0.2 0.2
          0.2 0.2 0.2 0.2 0.2 0.2 0.2 0.2 0.2 0.2 0.2 0.2
          0.2 0.2 0.2 0.2 0.2 0.2 0.2 0.2 0.2 0.2 0.2 0.2
          0.2 0.2 0.2 0.2 0.2 0.2 0.2 0.2 0.2 0.2 0.2 0.2
          0.2 0.2 0.2 0.2 0.2 0.2 0.2 0.2 0.2 0.2 0.2 0.2
          0.2 0.2 0.2 0.2 0.2 0.2 0.2 0.2 0.2 0.2 0.2 0.2
          0.2 0.2 0.2 0.2 0.2 0.2 0.2 0.2 0.2 0.2 0.2 0.2
          0.2 0.2 0.2 0.2 0.2 0.2 0.2 0.2 0.2 0.2 0.2 0.2
          0.2 0.2 0.2 0.2 0.2 0.2 0.2 0.2 0.2 0.2
        </DataArray>
        <DataArray type="Float32" Name="x^H2O_liq" NumberOfComponents="1" format="ascii">
          0.999988 0.999988 0.999988 0.99999 0.99999 0.99999 0.99999 0.99999 0.99999 0.99999 0.99999 0.99999
          0.99999 0.99999 0.99999 0.99999 0.99999 0.99999 0.99999 0.99999 0.99999 0.99999 0.99999 0.99999
          0.99999 0.99999 0.99999 0.99999 0.99999 0.99999 0.99999 0.99999 0.99999 0.99999 0.99999 0.99999
          0.99999 0.99999 0.99999 0.99999 0.99999 0.99999 0.99999 0.99999 0.99999 0.99999 0.99999 0.99999
          0.99999 0.99999 0.999988 0.999988 0.999988 0.99999 0.99999 0.99999 0.99999 0.99999 0.99999 0.99999
          0.99999 0.99999 0.99999 0.99999 0.99999 0.99999 0.99999 0.99999 0.99999 0.99999 0.99999 0.99999
          0.99999 0.99999 0.99999 0.99999 0.99999 0.99999 0.99999 0.99999 0.99999 0.99999 0.99999 0.99999
          0.99999 0.99999 0.99999 0.99999 0.99999 0.99999 0.99999 0.99999 0.99999 0.99999 0.99999 0.99999
          0.99999 0.99999 0.99999 0.99999 0.999988 0.999988 0.999988 0.99999 0.99999 0.99999 0.99999 0.99999
          0.99999 0.99999 0.99999 0.99999 0.99999 0.99999 0.99999 0.99999 0.99999 0.99999 0.99999 0.99999
          0.99999 0.99999 0.99999 0.99999 0.99999 0.99999 0.99999 0.99999 0.99999 0.99999 0.99999 0.99999
          0.99999 0.99999 0.99999 0.99999 0.99999 0.99999 0.99999 0.99999 0.99999 0.99999 0.99999 0.99999
          0.99999 0.99999 0.99999 0.99999 0.99999 0.99999 0.999988 0.999988 0.999988 0.99999 0.99999 0.99999
          0.99999 0.99999 0.99999 0.99999 0.99999 0.99999 0.99999 0.99999 0.99999 0.99999 0.99999 0.99999
          0.99999 0.99999 0.99999 0.99999 0.99999 0.99999 0.99999 0.99999 0.99999 0.99999 0.99999 0.99999
          0.99999 0.99999 0.99999 0.99999 0.99999 0.99999 0.99999 0.99999 0.99999 0.99999 0.99999 0.99999
          0.99999 0.99999 0.99999 0.99999 0.99999 0.99999 0.99999 0.99999 0.999988 0.999988 0.999988 0.99999
          0.99999 0.99999 0.99999 0.99999 0.99999 0.99999 0.99999 0.99999 0.99999 0.99999 0.99999 0.99999
          0.99999 0.99999 0.99999 0.99999 0.99999 0.99999 0.99999 0.99999 0.99999 0.99999 0.99999 0.99999
          0.99999 0.99999 0.99999 0.99999 0.99999 0.99999 0.99999 0.99999 0.99999 0.99999 0.99999 0.99999
          0.99999 0.99999 0.99999 0.99999 0.99999 0.99999 0.99999 0.99999 0.99999 0.99999
        </DataArray>
        <DataArray type="Float32" Name="X^H2O_liq" NumberOfComponents="1" format="ascii">
          0.999981 0.999981 0.999981 0.999984 0.999984 0.999984 0.999984 0.999984 0.999984 0.999984 0.999984 0.999984
          0.999984 0.999984 0.999984 0.999984 0.999984 0.999984 0.999984 0.999984 0.999984 0.999984 0.999984 0.999984
          0.999984 0.999984 0.999984 0.999984 0.999984 0.999984 0.999984 0.999984 0.999984 0.999984 0.999984 0.999984
          0.999984 0.999984 0.999984 0.999984 0.999984 0.999984 0.999984 0.999984 0.999984 0.999984 0.999984 0.999984
          0.999984 0.999984 0.999981 0.999981 0.999981 0.999984 0.999984 0.999984 0.999984 0.999984 0.999984 0.999984
          0.999984 0.999984 0.999984 0.999984 0.999984 0.999984 0.999984 0.999984 0.999984 0.999984 0.999984 0.999984
          0.999984 0.999984 0.999984 0.999984 0.999984 0.999984 0.999984 0.999984 0.999984 0.999984 0.999984 0.999984
          0.999984 0.999984 0.999984 0.999984 0.999984 0.999984 0.999984 0.999984 0.999984 0.999984 0.999984 0.999984
          0.999984 0.999984 0.999984 0.999984 0.999981 0.999981 0.999981 0.999984 0.999984 0.999984 0.999984 0.999984
          0.999984 0.999984 0.999984 0.999984 0.999984 0.999984 0.999984 0.999984 0.999984 0.999984 0.999984 0.999984
          0.999984 0.999984 0.999984 0.999984 0.999984 0.999984 0.999984 0.999984 0.999984 0.999984 0.999984 0.999984
          0.999984 0.999984 0.999984 0.999984 0.999984 0.999984 0.999984 0.999984 0.999984 0.999984 0.999984 0.999984
          0.999984 0.999984 0.999984 0.999984 0.999984 0.999984 0.999981 0.999981 0.999981 0.999984 0.999984 0.999984
          0.999984 0.999984 0.999984 0.999984 0.999984 0.999984 0.999984 0.999984 0.999984 0.999984 0.999984 0.999984
          0.999984 0.999984 0.999984 0.999984 0.999984 0.999984 0.999984 0.999984 0.999984 0.999984 0.999984 0.999984
          0.999984 0.999984 0.999984 0.999984 0.999984 0.999984 0.999984 0.999984 0.999984 0.999984 0.999984 0.999984
          0.999984 0.999984 0.999984 0.999984 0.999984 0.999984 0.999984 0.999984 0.999981 0.999981 0.999981 0.999984
          0.999984 0.999984 0.999984 0.999984 0.999984 0.999984 0.999984 0.999984 0.999984 0.999984 0.999984 0.999984
          0.999984 0.999984 0.999984 0.999984 0.999984 0.999984 0.999984 0.999984 0.999984 0.999984 0.999984 0.999984
          0.999984 0.999984 0.999984 0.999984 0.999984 0.999984 0.999984 0.999984 0.999984 0.999984 0.999984 0.999984
          0.999984 0.999984 0.999984 0.999984 0.999984 0.999984 0.999984 0.999984 0.999984 0.999984
        </DataArray>
        <DataArray type="Float32" Name="x^N2_liq" NumberOfComponents="1" format="ascii">
          1.22313e-05 1.22313e-05 1.22311e-05 1.01384e-05 1.00043e-05 1.00001e-05 1e-05 1e-05 1e-05 1e-05 1e-05 1e-05
          1e-05 1e-05 1e-05 1e-05 1e-05 1e-05 1e-05 1e-05 1e-05 1e-05 1e-05 1e-05
          1e-05 1e-05 1e-05 1e-05 1e-05 1e-05 1e-05 1e-05 1e-05 1e-05 1e-05 1e-05
          1e-05 1e-05 1e-05 1e-05 1e-05 1e-05 1e-05 1e-05 1e-05 1e-05 1e-05 1e-05
          1e-05 1e-05 1.22313e-05 1.22313e-05 1.22312e-05 1.01469e-05 1.00045e-05 1.00001e-05 1e-05 1e-05 1e-05 1e-05
          1e-05 1e-05 1e-05 1e-05 1e-05 1e-05 1e-05 1e-05 1e-05 1e-05 1e-05 1e-05
          1e-05 1e-05 1e-05 1e-05 1e-05 1e-05 1e-05 1e-05 1e-05 1e-05 1e-05 1e-05
          1e-05 1e-05 1e-05 1e-05 1e-05 1e-05 1e-05 1e-05 1e-05 1e-05 1e-05 1e-05
          1e-05 1e-05 1e-05 1e-05 1.22313e-05 1.22313e-05 1.22312e-05 1.01463e-05 1.00044e-05 1.00001e-05 1e-05 1e-05
          1e-05 1e-05 1e-05 1e-05 1e-05 1e-05 1e-05 1e-05 1e-05 1e-05 1e-05 1e-05
          1e-05 1e-05 1e-05 1e-05 1e-05 1e-05 1e-05 1e-05 1e-05 1e-05 1e-05 1e-05
          1e-05 1e-05 1e-05 1e-05 1e-05 1e-05 1e-05 1e-05 1e-05 1e-05 1e-05 1e-05
          1e-05 1e-05 1e-05 1e-05 1e-05 1e-05 1.22313e-05 1.22313e-05 1.22312e-05 1.01469e-05 1.00045e-05 1.00001e-05
          1e-05 1e-05 1e-05 1e-05 1e-05 1e-05 1e-05 1e-05 1e-05 1e-05 1e-05 1e-05
          1e-05 1e-05 1e-05 1e-05 1e-05 1e-05 1e-05 1e-05 1e-05 1e-05 1e-05 1e-05
          1e-05 1e-05 1e-05 1e-05 1e-05 1e-05 1e-05 1e-05 1e-05 1e-05 1e-05 1e-05
          1e-05 1e-05 1e-05 1e-05 1e-05 1e-05 1e-05 1e-05 1.22313e-05 1.22313e-05 1.22311e-05 1.01384e-05
          1.00043e-05 1.00001e-05 1e-05 1e-05 1e-05 1e-05 1e-05 1e-05 1e-05 1e-05 1e-05 1e-05
          1e-05 1e-05 1e-05 1e-05 1e-05 1e-05 1e-05 1e-05 1e-05 1e-05 1e-05 1e-05
          1e-05 1e-05 1e-05 1e-05 1e-05 1e-05 1e-05 1e-05 1e-05 1e-05 1e-05 1e-05
          1e-05 1e-05 1e-05 1e-05 1e-05 1e-05 1e-05 1e-05 1e-05 1e-05
        </DataArray>
        <DataArray type="Float32" Name="X^N2_liq" NumberOfComponents="1" format="ascii">
          1.90195e-05 1.90194e-05 1.90192e-05 1.57649e-05 1.55565e-05 1.555e-05 1.55498e-05 1.55498e-05 1.55498e-05 1.55498e-05 1.55498e-05 1.55498e-05
          1.55498e-05 1.55498e-05 1.55498e-05 1.55498e-05 1.55498e-05 1.55498e-05 1.55498e-05 1.55498e-05 1.55498e-05 1.55498e-05 1.55498e-05 1.55498e-05
          1.55498e-05 1.55498e-05 1.55498e-05 1.55498e-05 1.55498e-05 1.55498e-05 1.55498e-05 1.55498e-05 1.55498e-05 1.55498e-05 1.55498e-05 1.55498e-05
          1.55498e-05 1.55498e-05 1.55498e-05 1.55498e-05 1.55498e-05 1.55498e-05 1.55498e-05 1.55498e-05 1.55498e-05 1.55498e-05 1.55498e-05 1.55498e-05
          1.55498e-05 1.55498e-05 1.90195e-05 1.90194e-05 1.90192e-05 1.57782e-05 1.55568e-05 1.555e-05 1.55498e-05 1.55498e-05 1.55498e-05 1.55498e-05
          1.55498e-05 1.55498e-05 1.55498e-05 1.55498e-05 1.55498e-05 1.55498e-05 1.55498e-05 1.55498e-05 1.55498e-05 1.55498e-05 1.55498e-05 1.55498e-05
          1.55498e-05 1.55498e-05 1.55498e-05 1.55498e-05 1.55498e-05 1.55498e-05 1.55498e-05 1.55498e-05 1.55498e-05 1.55498e-05 1.55498e-05 1.55498e-05
          1.55498e-05 1.55498e-05 1.55498e-05 1.55498e-05 1.55498e-05 1.55498e-05 1.55498e-05 1.55498e-05 1.55498e-05 1.55498e-05 1.55498e-05 1.55498e-05
          1.55498e-05 1.55498e-05 1.55498e-05 1.55498e-05 1.90195e-05 1.90194e-05 1.90192e-05 1.57773e-05 1.55567e-05 1.555e-05 1.55498e-05 1.55498e-05
          1.55498e-05 1.55498e-05 1.55498e-05 1.55498e-05 1.55498e-05 1.55498e-05 1.55498e-05 1.55498e-05 1.55498e-05 1.55498e-05 1.55498e-05 1.55498e-05
          1.55498e-05 1.55498e-05 1.55498e-05 1.55498e-05 1.55498e-05 1.55498e-05 1.55498e-05 1.55498e-05 1.55498e-05 1.55498e-05 1.55498e-05 1.55498e-05
          1.55498e-05 1.55498e-05 1.55498e-05 1.55498e-05 1.55498e-05 1.55498e-05 1.55498e-05 1.55498e-05 1.55498e-05 1.55498e-05 1.55498e-05 1.55498e-05
          1.55498e-05 1.55498e-05 1.55498e-05 1.55498e-05 1.55498e-05 1.55498e-05 1.90195e-05 1.90194e-05 1.90192e-05 1.57782e-05 1.55568e-05 1.555e-05
          1.55498e-05 1.55498e-05 1.55498e-05 1.55498e-05 1.55498e-05 1.55498e-05 1.55498e-05 1.55498e-05 1.55498e-05 1.55498e-05 1.55498e-05 1.55498e-05
          1.55498e-05 1.55498e-05 1.55498e-05 1.55498e-05 1.55498e-05 1.55498e-05 1.55498e-05 1.55498e-05 1.55498e-05 1.55498e-05 1.55498e-05 1.55498e-05
          1.55498e-05 1.55498e-05 1.55498e-05 1.55498e-05 1.55498e-05 1.55498e-05 1.55498e-05 1.55498e-05 1.55498e-05 1.55498e-05 1.55498e-05 1.55498e-05
          1.55498e-05 1.55498e-05 1.55498e-05 1.55498e-05 1.55498e-05 1.55498e-05 1.55498e-05 1.55498e-05 1.90195e-05 1.90194e-05 1.90192e-05 1.57649e-05
          1.55565e-05 1.555e-05 1.55498e-05 1.55498e-05 1.55498e-05 1.55498e-05 1.55498e-05 1.55498e-05 1.55498e-05 1.55498e-05 1.55498e-05 1.55498e-05
          1.55498e-05 1.55498e-05 1.55498e-05 1.55498e-05 1.55498e-05 1.55498e-05 1.55498e-05 1.55498e-05 1.55498e-05 1.55498e-05 1.55498e-05 1.55498e-05
          1.55498e-05 1.55498e-05 1.55498e-05 1.55498e-05 1.55498e-05 1.55498e-05 1.55498e-05 1.55498e-05 1.55498e-05 1.55498e-05 1.55498e-05 1.55498e-05
          1.55498e-05 1.55498e-05 1.55498e-05 1.55498e-05 1.55498e-05 1.55498e-05 1.55498e-05 1.55498e-05 1.55498e-05 1.55498e-05
        </DataArray>
        <DataArray type="Float32" Name="rhoMolar_liq" NumberOfComponents="1" format="ascii">
          55408.3 55408.3 55408.3 55408.3 55408.3 55408.3 55408.3 55408.3 55408.3 55408.3 55408.3 55408.3
          55408.3 55408.3 55408.3 55408.3 55408.3 55408.3 55408.3 55408.3 55408.3 55408.3 55408.3 55408.3
          55408.3 55408.3 55408.3 55408.3 55408.3 55408.3 55408.3 55408.3 55408.3 55408.3 55408.3 55408.3
          55408.3 55408.3 55408.3 55408.3 55408.3 55408.3 55408.3 55408.3 55408.3 55408.3 55408.3 55408.3
          55408.3 55408.3 55408.3 55408.3 55408.3 55408.3 55408.3 55408.3 55408.3 55408.3 55408.3 55408.3
          55408.3 55408.3 55408.3 55408.3 55408.3 55408.3 55408.3 55408.3 55408.3 55408.3 55408.3 55408.3
          55408.3 55408.3 55408.3 55408.3 55408.3 55408.3 55408.3 55408.3 55408.3 55408.3 55408.3 55408.3
          55408.3 55408.3 55408.3 55408.3 55408.3 55408.3 55408.3 55408.3 55408.3 55408.3 55408.3 55408.3
          55408.3 55408.3 55408.3 55408.3 55408.3 55408.3 55408.3 55408.3 55408.3 55408.3 55408.3 55408.3
          55408.3 55408.3 55408.3 55408.3 55408.3 55408.3 55408.3 55408.3 55408.3 55408.3 55408.3 55408.3
          55408.3 55408.3 55408.3 55408.3 55408.3 55408.3 55408.3 55408.3 55408.3 55408.3 55408.3 55408.3
          55408.3 55408.3 55408.3 55408.3 55408.3 55408.3 55408.3 55408.3 55408.3 55408.3 55408.3 55408.3
          55408.3 55408.3 55408.3 55408.3 55408.3 55408.3 55408.3 55408.3 55408.3 55408.3 55408.3 55408.3
          55408.3 55408.3 55408.3 55408.3 55408.3 55408.3 55408.3 55408.3 55408.3 55408.3 55408.3 55408.3
          55408.3 55408.3 55408.3 55408.3 55408.3 55408.3 55408.3 55408.3 55408.3 55408.3 55408.3 55408.3
          55408.3 55408.3 55408.3 55408.3 55408.3 55408.3 55408.3 55408.3 55408.3 55408.3 55408.3 55408.3
          55408.3 55408.3 55408.3 55408.3 55408.3 55408.3 55408.3 55408.3 55408.3 55408.3 55408.3 55408.3
          55408.3 55408.3 55408.3 55408.3 55408.3 55408.3 55408.3 55408.3 55408.3 55408.3 55408.3 55408.3
          55408.3 55408.3 55408.3 55408.3 55408.3 55408.3 55408.3 55408.3 55408.3 55408.3 55408.3 55408.3
          55408.3 55408.3 55408.3 55408.3 55408.3 55408.3 55408.3 55408.3 55408.3 55408.3 55408.3 55408.3
          55408.3 55408.3 55408.3 55408.3 55408.3 55408.3 55408.3 55408.3 55408.3 55408.3
        </DataArray>
        <DataArray type="Float32" Name="x^H2O_gas" NumberOfComponents="1" format="ascii">
          0.0234767 0.0234768 0.0234771 0.0234772 0.0234772 0.0234772 0.0234772 0.0234772 0.0234772 0.0234772 0.0234772 0.0234772
          0.0234772 0.0234772 0.0234772 0.0234772 0.0234772 0.0234772 0.0234772 0.0234772 0.0234772 0.0234772 0.0234772 0.0234772