<?xml version="1.0"?>
<VTKFile type="PolyData" version="0.1" byte_order="LittleEndian">
  <PolyData>
    <Piece NumberOfLines="137" NumberOfPoints="90">
      <PointData Scalars="p">
        <DataArray type="Float32" Name="p" NumberOfComponents="1" format="ascii">
          98363.1 100000 98013 100000 97885.8 100000 100000 100000 97566.5 98397.5 97540.4 100000
          97803.4 97137.9 97137.9 97137.9 97919.9 95980.5 95980.5 97137.9 97137.9 95980.5 96677.3 96426.2
          96097.4 96658.6 96658.6 96039.1 97280.2 97141.1 97788 97185 97137.9 97134.6 96811.5 97072.7
          97493.4 97597 97559.6 96812.3 95893.8 95937 96658.6 95659.2 93643.4 96079.3 97117.8 97157.5
          97030.4 96995.5 96835.2 96648.9 97117.3 95717.9 97197.5 96783 96491.7 94963.4 95186.9 95495.2
          96730.2 95718.8 96065.5 92382.2 95387.1 94739.4 93529.7 95880.2 94623.4 93148.8 91202.5 96379.5
          96405.5 96397.9 96402.3 96096.2 96888.6 96648.9 96648.9 95955.3 95319 97117.3 95880.2 90000
          90000 93817.6 93148.8 93148.8 90000 93529.7
        </DataArray>
        <DataArray type="Float32" Name="poreInscribedRadius" NumberOfComponents="1" format="ascii">
          0.00010842 0.0002263 0.00018872 8.6711e-05 0.00014246 0.00017024 0.00014006 5.8137e-05 0.00017043 0.00014712 0.00018289 0.00011213
          8.001e-05 0.00026652 0.00010984 0.00018149 0.0001191 0.00010862 6.7563e-05 0.00013353 8.8091e-05 0.00011873 8.6177e-05 0.00014165
          9.7691e-05 0.00014071 8.5166e-05 0.00010965 8.1041e-05 0.00015832 6.1496e-05 0.00011323 0.00033347 6.7184e-05 0.00010274 0.00016438
          0.00011759 8.0701e-05 0.00015113 0.00013784 9.8161e-05 0.00013 8.1223e-05 0.00014997 0.00013153 0.00020701 0.00010946 8.5023e-05
          7.8721e-05 0.00017262 0.00012575 0.00010082 0.00015856 0.00012022 0.00019603 9.1747e-05 0.0001146 0.00025862 0.00012908 0.00025963
          0.00010958 6.7231e-05 0.00012907 0.00015315 9.4275e-05 0.00019972 7.1623e-05 0.00014025 0.00011092 0.00015744 5.0362e-05 0.00022549
          0.00010874 9.8868e-05 0.00010793 0.00015434 8.0185e-05 6.8354e-05 0.00014551 0.00014525 0.00017218 0.00012177 9.0671e-05 0.00015715
          0.00012027 0.00015784 0.00022979 0.00010367 5.3866e-05 0.00024136
        </DataArray>
        <DataArray type="Float32" Name="coordinationNumber" NumberOfComponents="1" format="ascii">
          6 1 4 1 3 1 5 2 6 3 4 1
          2 4 2 3 2 6 1 1 1 1 4 2
          3 2 1 2 3 7 2 4 3 4 6 2
          3 4 3 5 5 3 4 6 4 5 4 4
          4 4 5 7 3 3 2 3 2 5 2 4
          3 2 2 2 3 4 5 4 4 6 2 5
          4 3 2 2 2 1 1 4 2 1 1 3
          1 2 1 1 1 1
        </DataArray>
        <DataArray type="Float32" Name="poreLabel" NumberOfComponents="1" format="ascii">
          -1 2 -1 2 -1 2 2 -1 -1 -1 -1 2
          -1 -1 -1 -1 -1 -1 -1 -1 -1 -1 -1 -1
          -1 -1 -1 -1 -1 -1 -1 -1 -1 -1 -1 -1
          -1 -1 -1 -1 -1 -1 -1 -1 -1 -1 -1 -1
          -1 -1 -1 -1 -1 -1 -1 -1 -1 -1 -1 -1
          -1 -1 -1 -1 -1 -1 -1 -1 -1 -1 -1 -1
          -1 -1 -1 -1 -1 -1 -1 -1 -1 -1 -1 3
          3 -1 -1 -1 3 -1
        </DataArray>
      </PointData>
      <CellData Scalars="process rank" Vectors="velocity_liq (m/s)">
        <DataArray type="Float32" Name="velocity_liq (m/s)" NumberOfComponents="3" format="ascii">
          0.779514 0.779514 -0.779514 1.16371 -0 -1.16371 1.1927 -1.1927 -0 1.2201 -0 -0
          0 -0 -0 0.880436 0.880436 0.880436 0.829538 -0 0.829538 1.17663 -0 -1.17663
          0 -0 -0 -0.158777 0.158777 0.158777 0.168219 0.168219 -0.168219 0 -0 -0
          0 -0 0 0.48444 -0 -0 -0.278973 0.278973 0.278973 0 0 -0
          0 -0 0 0 -0 0 0 -0 -0 -0.275554 0.275554 0
          0.225055 0.225055 -0.225055 0 -0 0 -0.0859141 0 0 0.0609449 -0.0609449 -0
          0.74817 -0 -0 0.662555 0.662555 -0 0.377533 -0 -0 0.721617 -0 -0.721617
          -0.00762163 0 0 0.00544183 0.00544183 -0 -0 0 0 0.274829 0.274829 -0.274829
          0.409318 0.409318 0.409318 0.348651 -0 0.348651 0 0 -0.0741285 0.847243 0.847243 -0
          0.648712 -0 -0.648712 -0 -0 1.06608 0.129902 -0 -0 -0 0.875149 -0
          -0 0.0469348 -0.0469348 -0 -0 0 0.674528 -0.674528 -0 -0 0.984094 -0.984094
          0.584003 0.584003 -0 -0.197255 0.197255 0.197255 0 -0 -0 0.367227 -0 -0
          0 0 -0.249979 0.94683 0.94683 0.94683 -0.295137 0 0.295137 0 -0.307394 0
          0.103367 -0 0.103367 -0 0.34065 -0 0.275148 -0 0.275148 0 0 -0.106351
          0 -0.492545 0 0.195452 0.195452 -0.195452 0.193462 -0 -0.193462 0.23037 0.23037 0.23037
          -0 0.360526 0.360526 -0 0.26437 0.26437 -0 0.0151987 -0 0.0514845 -0.0514845 0.0514845
          0.448439 -0 0.448439 -0 0.378194 0.378194 0.245392 0.245392 -0.245392 0.338889 -0 0.338889
          0.842513 -0 0.842513 -0 0.00132122 -0.00132122 -0 0.491955 -0 0.370085 0.370085 -0
          -0.192914 -0.192914 0.192914 -0 0.620079 0.620079 0.419473 -0.419473 -0 0.223018 -0.223018 -0.223018
          -0 0.651607 -0.651607 0.314652 -0 0.314652 -0.314577 0 0.314577 0.288793 -0.288793 -0.288793
          -0.171992 0 0 -0 -0 0.625466 -0.309462 0.309462 0 -0 -0 0.452902
          -0 0.478398 0.478398 -0.259881 0.259881 0.259881 1.29939 -0 -1.29939 -0 0.235515 -0.235515
          -0 0.921524 -0 0.745439 0.745439 -0 -0.73938 0.73938 0 -0.53412 0.53412 0.53412
          0.665455 -0.665455 -0 0 0 -0.654471 0.576831 -0.576831 0.576831 0.297176 -0.297176 0.297176
          1.51775 -0 -1.51775 0 0 -0.304594 0 -0.122796 0 0.402864 0.402864 0.402864
          -0 0.122788 -0.122788 0 0 -0.0332517 -0.00503431 -0.00503431 0 0.023538 0.023538 -0.023538
          0 -0.478067 0 0.00424975 0.00424975 -0.00424975 0.25723 0.25723 0.25723 0.216073 0.216073 0.216073
          0.505293 -0 -0 -0.272195 -0.272195 0 -4.0536e-14 4.0536e-14 4.0536e-14 -2.67428e-14 2.67428e-14 -2.67428e-14
          0.527239 0.527239 0.527239 -0 0.432937 0.432937 0.520444 0.520444 -0.520444 -0 0.696385 -0
          0.312754 -0 -0.312754 0 0 -0 -0.32022 0.32022 0 -0.577451 0 0
          -0.444882 0.444882 0.444882 2.33538e-14 -0 -0 -0.257353 0.257353 -0.257353 1.86179 1.86179 -0
          -0.274489 0.274489 0.274489 1.05911 1.05911 -1.05911 -0 -0 0.854075 -0.847209 0.847209 0
          -0 0.93574 0.93574 -0 -0 0.876389 1.79222 -0 -0 1.59156e-14 -1.59156e-14 -0
          2.41619e-14 -0 -2.41619e-14 0 -0.305621 0.305621 1.47107 -0 1.47107 0 -0 -0
          1.15625 -1.15625 1.15625
        </DataArray>
        <DataArray type="Float32" Name="process rank" NumberOfComponents="1" format="ascii">
          0 0 0 0 0 0 0 0 0 0 0 0
          0 0 0 0 0 0 0 0 0 0 0 0
          0 0 0 0 0 0 0 0 0 0 0 0
          0 0 0 0 0 0 0 0 0 0 0 0
          0 0 0 0 0 0 0 0 0 0 0 0
          0 0 0 0 0 0 0 0 0 0 0 0
          0 0 0 0 0 0 0 0 0 0 0 0
          0 0 0 0 0 0 0 0 0 0 0 0
          0 0 0 0 0 0 0 0 0 0 0 0
          0 0 0 0 0 0 0 0 0 0 0 0
          0 0 0 0 0 0 0 0 0 0 0 0
          0 0 0 0 0
        </DataArray>
        <DataArray type="Float32" Name="throatLabel" NumberOfComponents="1" format="ascii">
          2 2 2 2 2 2 2 2 2 -1 -1 -1
          -1 -1 -1 -1 -1 -1 -1 -1 -1 -1 -1 -1
          -1 -1 -1 -1 -1 -1 -1 -1 -1 -1 -1 -1
          -1 -1 -1 -1 -1 -1 -1 -1 -1 -1 -1 -1
          -1 -1 -1 -1 -1 -1 -1 -1 -1 -1 -1 -1
          -1 -1 -1 -1 -1 -1 -1 -1 -1 -1 -1 -1
          -1 -1 -1 -1 -1 -1 -1 -1 -1 -1 -1 -1
          -1 -1 -1 -1 -1 -1 -1 -1 -1 -1 -1 -1
          -1 -1 -1 -1 -1 -1 -1 -1 -1 -1 -1 -1
          -1 -1 -1 -1 -1 -1 -1 -1 -1 -1 -1 -1
          -1 -1 -1 3 -1 3 -1 -1 -1 -1 3 -1
          -1 -1 3 -1 3
        </DataArray>
        <DataArray type="Float32" Name="throatInscribedRadius" NumberOfComponents="1" format="ascii">
          3.3304e-05 3.384e-05 3.3615e-05 3.3259e-05 3.3423e-05 3.3717e-05 3.3301e-05 3.3963e-05 3.3418e-05 3.4247e-05 3.3272e-05 3.37e-05
          3.3125e-05 3.3391e-05 3.3434e-05 3.3768e-05 3.3951e-05 3.3734e-05 3.3508e-05 3.3908e-05 3.3903e-05 3.3674e-05 3.3826e-05 3.3772e-05
          3.3303e-05 3.389e-05 3.3413e-05 3.3431e-05 3.3693e-05 3.353e-05 3.3589e-05 3.3834e-05 3.3987e-05 3.3567e-05 3.3743e-05 3.3553e-05
          3.371e-05 3.3781e-05 3.3426e-05 3.3726e-05 3.3836e-05 3.3664e-05 3.422e-05 3.3429e-05 3.3386e-05 3.305e-05 3.3941e-05 3.3926e-05
          3.3606e-05 3.3937e-05 3.3695e-05 3.3731e-05 3.3671e-05 3.3781e-05 3.3667e-05 3.4584e-05 3.3243e-05 3.3015e-05 3.3252e-05 3.3267e-05
          3.3488e-05 3.3576e-05 3.356e-05 3.3816e-05 3.3764e-05 3.3887e-05 3.4237e-05 3.4047e-05 3.3204e-05 3.2859e-05 3.3938e-05 3.3021e-05
          3.3656e-05 3.3645e-05 3.4391e-05 3.361e-05 3.3463e-05 3.3712e-05 3.3716e-05 3.3657e-05 3.3429e-05 3.3224e-05 3.374e-05 3.3184e-05
          3.3288e-05 3.4084e-05 3.3492e-05 3.3586e-05 3.3937e-05 3.3532e-05 3.3981e-05 3.3517e-05 3.3975e-05 3.3845e-05 3.3562e-05 3.3343e-05
          3.3284e-05 3.3542e-05 3.3486e-05 3.3496e-05 3.3966e-05 3.3533e-05 3.402e-05 3.3455e-05 3.3962e-05 3.3458e-05 3.3693e-05 3.3961e-05
          3.3494e-05 3.3486e-05 3.4314e-05 3.3954e-05 3.3488e-05 3.3852e-05 3.3512e-05 3.3871e-05 3.4113e-05 3.3098e-05 3.3981e-05 3.4127e-05
          3.3649e-05 3.4226e-05 3.3685e-05 3.322e-05 3.2903e-05 3.3521e-05 3.3874e-05 3.374e-05 3.3772e-05 3.344e-05 3.3682e-05 3.3086e-05
          3.3378e-05 3.3359e-05 3.3808e-05 3.3628e-05 3.3247e-05
        </DataArray>
        <DataArray type="Float32" Name="throatLength" NumberOfComponents="1" format="ascii">
          6.6609e-05 3.384e-05 3.3615e-05 9.9777e-05 6.6846e-05 0.00010115 9.9902e-05 6.7925e-05 0.00010025 0.00010274 9.9816e-05 3.37e-05
          9.9376e-05 6.6781e-05 0.0001003 6.7537e-05 6.7903e-05 0.0001012 3.3508e-05 6.7817e-05 0.00010171 6.7347e-05 0.00010148 0.00010132
          6.6606e-05 3.389e-05 6.6826e-05 3.3431e-05 6.7385e-05 6.706e-05 0.00010077 0.0001015 0.00010196 0.0001007 6.7487e-05 0.00010066
          6.7421e-05 3.3781e-05 3.3426e-05 0.00010118 6.7672e-05 0.00010099 3.422e-05 6.6858e-05 6.6772e-05 3.305e-05 6.7881e-05 6.7852e-05
          3.3606e-05 6.7873e-05 3.3695e-05 3.3731e-05 3.3671e-05 3.3781e-05 3.3667e-05 3.4584e-05 6.6486e-05 3.3015e-05 6.6503e-05 9.9802e-05
          6.6975e-05 6.7153e-05 6.7119e-05 3.3816e-05 6.7529e-05 0.00010166 0.00010271 3.4047e-05 3.3204e-05 6.5718e-05 6.7876e-05 6.6043e-05
          3.3656e-05 0.00010094 3.4391e-05 3.361e-05 3.3463e-05 3.3712e-05 6.7432e-05 6.7313e-05 3.3429e-05 9.9673e-05 0.00010122 9.9553e-05
          3.3288e-05 0.00010225 0.00010048 0.00010076 0.00010181 0.0001006 6.7962e-05 3.3517e-05 6.7951e-05 3.3845e-05 3.3562e-05 0.00010003
          3.3284e-05 3.3542e-05 3.3486e-05 6.6992e-05 6.7931e-05 3.3533e-05 0.00010206 6.691e-05 0.00010189 6.6916e-05 6.7385e-05 3.3961e-05
          3.3494e-05 6.6972e-05 3.4314e-05 0.00010186 3.3488e-05 0.00010156 6.7024e-05 0.00010161 0.00010234 3.3098e-05 6.7962e-05 6.8254e-05
          0.00010095 0.00010268 3.3685e-05 3.322e-05 6.5807e-05 3.3521e-05 6.7748e-05 6.748e-05 3.3772e-05 3.344e-05 0.00010104 9.9259e-05
          6.6757e-05 0.00010008 3.3808e-05 0.00010088 9.974e-05
        </DataArray>
        <DataArray type="Float32" Name="transmissibility" NumberOfComponents="1" format="ascii">
          1.03853e-14 2.17901e-14 2.13583e-14 6.89564e-15 1.04972e-14 7.18452e-15 6.92186e-15 1.10144e-14 6.99529e-15 7.52868e-15 6.90373e-15 2.15208e-14
          6.81256e-15 1.04673e-14 7.0052e-15 1.08255e-14 1.10024e-14 7.19547e-15 2.1155e-14 1.09607e-14 7.30394e-15 1.07357e-14 7.25421e-15 7.21938e-15
          1.03846e-14 2.18868e-14 1.04878e-14 2.10095e-14 1.07538e-14 1.05984e-14 7.10273e-15 7.25965e-15 7.3585e-15 7.08906e-15 1.08015e-14 7.08005e-15
          1.07698e-14 2.16763e-14 2.10001e-14 7.19006e-15 1.08912e-14 7.15077e-15 2.25324e-14 1.05029e-14 1.04624e-14 2.02994e-14 1.09931e-14 1.09783e-14
          2.13412e-14 1.09892e-14 2.15112e-14 2.15802e-14 2.14653e-14 2.16763e-14 2.14576e-14 2.32591e-14 1.03285e-14 2.02349e-14 1.03371e-14 6.90054e-15
          1.05587e-14 1.06419e-14 1.0627e-14 2.17438e-14 1.08216e-14 7.29374e-15 7.52208e-15 2.21924e-14 2.05845e-14 9.97473e-15 1.099e-14 1.01228e-14
          2.14366e-14 7.13817e-15 2.28719e-14 2.13488e-14 2.10699e-14 2.15438e-14 1.07757e-14 1.07194e-14 2.10058e-14 6.87382e-15 7.19916e-15 6.84902e-15
          2.07411e-14 7.42176e-15 7.0413e-15 7.10089e-15 7.32608e-15 7.06656e-15 1.10318e-14 2.11721e-14 1.10258e-14 2.17998e-14 2.12575e-14 6.94795e-15
          2.07336e-14 2.12195e-14 2.11134e-14 1.05662e-14 1.10174e-14 2.12024e-14 7.37989e-15 1.05274e-14 7.34192e-15 1.05302e-14 1.07538e-14 2.20247e-14
          2.11285e-14 1.05567e-14 2.27186e-14 7.33716e-15 2.11172e-14 7.27081e-15 1.05813e-14 7.28356e-15 7.4405e-15 2.03879e-14 1.10318e-14 1.11746e-14
          7.14086e-15 7.51462e-15 2.1492e-14 2.06142e-14 1.00147e-14 2.11797e-14 1.09279e-14 1.07987e-14 2.1659e-14 2.10265e-14 7.16253e-15 6.78852e-15
          1.04547e-14 6.95781e-15 2.17283e-14 7.12799e-15 6.88824e-15
        </DataArray>
        <DataArray type="Float32" Name="volumeFlux" NumberOfComponents="1" format="ascii">
          5.99015e-09 7.53841e-09 7.62382e-09 5.39852e-09 0 6.93452e-09 5.20387e-09 7.67762e-09 0 1.29019e-09 1.29019e-09 0
          0 2.16052e-09 2.16052e-09 0 0 0 0 1.7922e-09 1.7922e-09 0 3.93211e-10 3.93211e-10
          3.31915e-09 4.30467e-09 1.68595e-09 4.56227e-09 3.46089e-11 3.46089e-11 0 2.17966e-09 3.27572e-09 2.22224e-09 3.37608e-10 5.39567e-09
          4.17008e-09 4.86626e-09 5.80559e-10 3.98173e-09 3.03968e-10 0 4.46822e-09 6.22097e-09 3.6823e-09 1.49277e-09 0 1.69068e-09
          1.12927e-09 7.55509e-09 1.89552e-09 1.39899e-09 6.62929e-10 1.55494e-09 1.76421e-09 5.08805e-10 2.17724e-09 1.47599e-09 1.21006e-09 1.76634e-09
          2.28712e-09 1.68595e-09 6.84715e-11 4.07889e-10 2.89192e-09 2.45672e-09 1.99284e-09 2.22224e-09 5.25451e-09 8.06972e-12 2.26651e-09 2.28274e-09
          1.51394e-09 3.97066e-09 2.80652e-09 1.74541e-09 4.12753e-09 2.0229e-09 2.0229e-09 2.26651e-09 7.68804e-10 2.76164e-09 1.99284e-09 1.9949e-09
          2.99875e-09 2.09168e-09 8.24509e-09 1.50283e-09 4.24535e-09 4.74139e-09 4.82964e-09 4.1571e-09 4.34523e-09 2.99875e-09 4.50158e-09 2.28899e-09
          9.51145e-09 1.37076e-09 5.50772e-10 3.13159e-09 8.01346e-10 1.49561e-10 3.29597e-11 1.82521e-10 2.20564e-09 3.29597e-11 2.02312e-09 1.72656e-09
          2.26745e-09 1.72656e-09 3.30677e-22 2.13604e-22 4.09644e-09 2.80652e-09 4.04945e-09 3.1957e-09 2.05881e-09 0 2.09168e-09 2.69012e-09
          3.48988e-09 1.09428e-22 2.02312e-09 1.16226e-08 2.05881e-09 8.24509e-09 3.92003e-09 5.45577e-09 6.03731e-09 3.92003e-09 8.13293e-09 9.85568e-23
          1.52274e-22 1.92391e-09 9.51145e-09 0 8.8548e-09
        </DataArray>
      </CellData>
      <Points>
        <DataArray type="Float32" Name="Coordinates" NumberOfComponents="3" format="ascii">
          2 2 3 1 1 4 2 1 4 1 1 5
          2 1 1 1 2 1 1 2 3 2 1 3
          2 3 4 2 2 4 2 2 2 1 2 4
          1 2 5 2 3 2 1 3 2 2 3 3
          1 3 4 2 4 4 1 3 5 1 4 1
          1 4 2 1 4 4 2 3 5 1 4 5
          2 5 4 2 4 2 1 5 1 1 5 4
          3 1 1 3 2 1 3 1 4 3 1 3
          2 2 1 3 3 1 3 3 3 3 2 3
          3 2 2 2 2 5 3 2 5 3 2 4
          2 4 3 3 4 5 3 3 2 3 4 3
          3 5 4 3 4 2 4 1 2 3 1 2
          4 2 1 4 1 1 4 2 4 4 2 2
          4 3 1 4 2 5 3 3 5 4 4 1
          4 2 3 4 3 5 3 3 4 4 3 3
          3 4 1 3 5 3 4 3 2 4 4 2
          3 5 2 3 4 4 4 5 4 4 3 4
          4 4 3 4 4 5 4 5 3 5 2 2
          4 1 4 4 1 3 5 2 3 5 2 5
          5 3 2 5 1 1 5 1 3 5 3 3
          5 2 4 5 4 1 5 3 4 5 4 5
          5 5 1 4 4 4 5 3 5 5 4 4
          5 5 4 5 4 3
        </DataArray>
      </Points>
      <Lines>
        <DataArray type="Int32" Name="connectivity" NumberOfComponents="1" format="ascii">
          0 1 2 3 4 5 0 6 7 6 8 6
          9 6 10 6 7 11 2 12 8 12 13 14
          15 14 8 16 0 16 17 18 13 19 15 20
          17 21 22 23 24 23 25 26 24 27 17 27
          28 4 29 4 30 2 31 2 29 32 33 32
          13 32 33 10 34 10 35 10 9 0 34 0
          36 0 37 9 38 37 22 37 8 37 15 13
          39 8 40 8 41 22 39 22 42 25 43 40
          17 40 44 40 45 40 24 17 41 17 29 28
          46 28 31 47 36 47 48 47 49 47 50 31
          39 31 38 30 33 29 46 29 51 29 42 29
          52 36 50 35 53 39 34 39 54 38 55 33
          55 42 43 42 56 34 51 34 45 34 57 58
          59 58 50 54 55 60 45 60 52 60 43 45
          61 45 62 43 63 43 64 43 44 65 66 65
          67 65 59 65 57 41 61 64 68 64 69 44
          70 44 46 49 48 49 71 49 48 46 72 73
          74 73 71 73 50 72 74 72 75 72 76 48
          71 51 76 51 77 51 78 51 79 51 67 56
          79 50 57 53 80 53 81 52 71 62 79 59
          71 59 82 67 75 67 83 57 80 57 84 63
          85 68 79 68 66 68 69 85 83 69 86 69
          87 69 66 69 88 70 89 66 83 66
        </DataArray>
        <DataArray type="Int32" Name="offsets" NumberOfComponents="1" format="ascii">
          2 4 6 8 10 12 14 16 18 20 22 24
          26 28 30 32 34 36 38 40 42 44 46 48
          50 52 54 56 58 60 62 64 66 68 70 72
          74 76 78 80 82 84 86 88 90 92 94 96
          98 100 102 104 106 108 110 112 114 116 118 120
          122 124 126 128 130 132 134 136 138 140 142 144
          146 148 150 152 154 156 158 160 162 164 166 168
          170 172 174 176 178 180 182 184 186 188 190 192
          194 196 198 200 202 204 206 208 210 212 214 216
          218 220 222 224 226 228 230 232 234 236 238 240
          242 244 246 248 250 252 254 256 258 260 262 264
          266 268 270 272 274
        </DataArray>
      </Lines>
    </Piece>
  </PolyData>
</VTKFile>
