<?xml version="1.0"?>
<VTKFile type="UnstructuredGrid" version="0.1" byte_order="LittleEndian">
  <UnstructuredGrid>
    <Piece NumberOfCells="3667" NumberOfPoints="3794">
      <PointData Scalars="S_liq">
        <DataArray type="Float32" Name="S_liq" NumberOfComponents="1" format="ascii">
          0.529707 0.535345 0.480065 0.504598 0.555484 0.56362 0.393282 0.458604 0.553653 0.573741 0.522097 0.587012
          0.602875 0.591198 0.619137 0.607586 0.575607 0.488237 0.319288 0.42437 0.473477 0.29741 0.409303 0.511826
          0.541756 0.593685 0.563764 0.582877 0.636855 0.624595 0.655344 0.642638 0.675138 0.659249 0.699549 0.675639
          0.737058 0.698834 0.843279 0.76088 0.611569 0.631538 0.650694 0.600767 0.663853 0.67726 0.709001 0.658115
          0.639452 0.668032 0.464243 0.264441 0.376675 0.504292 0.53384 0.415248 0.557889 0.578474 0.306091 0.435788
          0.484738 0.518431 0.334231 0.531501 0.502047 0.543482 0.564135 0.582324 0.55241 0.569836 0.615708 0.623909
          0.597423 0.645435 0.628744 0.726861 0.678339 0.615543 0.598456 0.611321 0.639765 0.656158 0.627127 0.696573
          0.675538 1 0.915577 1 1 1 1 1 1 1 1 0.798333
          0.977404 1 1 1 1 1 1 1 1 1 1 1
          1 1 1 1 1 1 1 1 1 1 1 1
          1 1 1 1 1 1 1 1 0.840149 1 0.902526 1
          1 0.753167 0.804339 0.723668 0.977688 1 1 1 1 1 1 1
          1 1 1 1 1 1 1 0.461119 0.384674 0.466861 0.492876 0.523714
          0.549358 0.586113 0.566858 0.576448 0.58588 0.509734 0.541915 0.354641 0.453617 0.499823 0.569466 0.599651
          0.586708 0.600687 0.613211 0.618924 0.623599 0.635588 0.651466 0.661992 0.687504 0.612997 0.626948 0.643166
          0.601623 0.616793 0.634947 0.657699 0.679683 0.338239 0.440533 0.530568 0.490435 0.521092 0.554743 0.572372
          0.544964 0.563956 0.58135 0.588332 0.315511 0.41014 0.455421 0.530691 0.513398 0.378262 0.488214 0.551425
          0.570912 0.536926 0.589065 0.603459 0.616566 0.643142 0.665389 0.626439 0.687785 0.597989 0.613623 0.628967
          0.606544 0.623512 0.641832 0.648379 0.676349 0.720082 0.70801 0.77382 0.719842 0.933881 1 1
          1 0.791612 0.958012 0.70466 0.761486 1 1 1 1 1 1 1
          1 1 1 1 1 0.705154 0.911654 0.754549 0.880453 1 1 1
          1 1 0.800276 1 0.957065 1 1 1 1 1 1 1
          1 1 1 1 1 1 1 1 1 1 1 1
          1 1 1 1 1 1 1 1 1 1 1 1
          1 1 1 1 1 1 1 1 1 1 1 1
          1 1 1 1 1 1 1 1 1 1 1 1
          1 1 1 1 1 1 1 1 1 1 1 1
          1 1 1 1 1 1 1 1 1 1 1 1
          1 1 1 1 1 1 1 1 1 1 1 1
          1 1 1 1 1 1 1 1 1 1 1 1
          1 1 1 1 1 1 1 1 1 1 1 1
          1 1 1 1 1 1 1 1 1 1 1 1
          1 1 1 1 1 1 1 1 1 1 1 1
          1 1 1 1 1 1 1 1 1 1 1 1
          1 1 1 1 1 1 1 1 1 1 1 1
          1 1 1 1 1 1 1 1 1 1 1 1
          1 1 1 1 1 1 1 1 1 1 1 1
          1 1 1 1 1 1 1 1 1 1 1 1
          1 1 1 1 1 1 1 1 1 1 1 1
          1 1 1 1 1 1 1 1 1 1 1 1
          1 1 1 1 1 1 1 1 1 1 1 1
          1 1 1 1 1 1 1 1 1 1 1 1
          1 1 1 1 1 1 1 0.451603 0.508211 0.333913 0.432169 0.479546
          0.511834 0.540543 0.561642 0.582412 0.563316 0.477464 0.310289 0.417701 0.466663 0.277741 0.385108 0.507186
          0.584067 0.53586 0.557645 0.578854 0.601746 0.620537 0.640584 0.664764 0.699711 0.664638 0.603729 0.622827
          0.599118 0.643128 0.701426 0.66655 0.694848 0.413944 0.309721 0.431301 0.475958 0.511826 0.538909 0.555687
          0.574981 0.558123 0.337192 0.455799 0.489124 0.524075 0.385145 0.596467 0.584542 0.618549 0.638417 0.616033
          0.659559 0.683349 0.633006 0.605166 0.620512 0.644019 0.671803 0.6881 0.659806 0.768046 0.899344 1
          1 1 1 0.953478 1 1 1 0.785269 0.735297 1 0.923911 1
          1 1 1 1 1 1 1 1 1 1 1 1
          1 1 1 1 0.787662 0.717613 0.797983 0.991442 1 1 1 0.726067
          0.825496 0.702193 0.999575 1 1 1 1 1 1 1 1 1
          1 1 1 1 1 1 1 1 1 1 1 0.468684
          0.483415 0.513666 0.546329 0.442742 0.496859 0.535691 0.568194 0.577962 0.603117 0.550033 0.479499 0.520039
          0.579468 0.598894 0.623753 0.604261 0.624026 0.642253 0.629834 0.652488 0.686855 0.645167 0.667219 0.684875
          0.705426 0.753164 0.715713 0.856341 0.506341 0.539752 0.563628 0.591079 0.578031 0.608265 0.620726 0.619007
          0.640019 0.609226 0.623793 0.527806 0.556593 0.590521 0.545723 0.570663 0.62363 0.633543 0.633258 0.640873
          0.641968 0.644522 0.662418 0.685321 0.711503 0.76821 0.974144 0.656194 0.680885 0.709491 0.671898 0.705897
          0.752177 0.755348 0.883147 1 0.84995 1 1 0.778436 0.949049 1 1 1
          1 0.921587 1 1 1 1 1 1 1 1 1 1
          1 1 1 1 1 1 1 1 1 1 1 1
          1 1 1 1 1 1 1 1 1 1 1 1
          1 1 1 1 1 1 1 1 1 1 1 1
          1 1 1 1 1 1 1 1 1 1 1 1
          1 1 1 1 1 1 1 1 1 1 1 1
          1 1 1 1 1 1 1 1 1 1 1 1
          1 1 1 1 1 1 1 1 1 1 1 1
          1 1 1 1 1 1 1 1 1 1 1 1
          1 1 1 1 1 1 1 1 1 1 1 1
          1 1 1 1 1 1 1 1 1 1 1 1
          1 1 1 1 1 1 1 1 1 1 1 1
          1 1 1 1 1 1 1 1 1 1 1 1
          1 1 1 1 1 1 1 1 1 1 1 1
          1 1 1 1 1 1 1 1 1 1 1 1
          1 1 1 1 1 1 1 1 1 1 1 1
          1 1 1 1 1 1 1 1 1 1 1 1
          1 1 1 1 1 1 1 1 1 1 1 1
          1 1 1 1 1 1 1 1 1 1 1 1
          1 1 1 1 1 1 1 1 1 1 1 1
          1 1 1 1 1 1 1 1 1 1 1 1
          1 1 1 1 1 1 1 1 1 1 1 1
          1 1 1 1 1 1 1 1 1 1 1 1
          1 1 1 1 1 1 1 1 1 1 1 1
          1 1 1 1 1 1 1 1 1 1 1 1
          1 1 1 1 1 1 1 1 1 1 1 1
          1 1 1 1 1 1 1 1 1 1 1 1
          1 1 1 1 1 1 1 1 1 1 1 1
          1 1 1 1 1 1 1 1 1 1 1 1
          1 1 1 1 1 1 1 1 1 1 1 1
          1 1 1 1 1 1 1 1 1 1 1 1
          1 1 1 1 1 1 1 1 1 1 1 1
          1 1 1 1 1 1 1 1 1 1 1 1
          1 1 1 1 1 1 1 1 1 1 1 1
          1 1 1 1 1 1 1 1 1 1 1 1
          1 1 1 1 1 1 1 1 1 1 1 1
          1 1 1 1 1 1 1 1 1 1 1 1
          1 1 1 1 1 1 1 1 1 1 1 1
          1 1 1 1 1 1 1 1 1 1 1 1
          1 1 1 1 1 1 1 1 1 1 1 1
          1 1 1 1 1 1 1 1 1 1 1 1
          1 1 1 1 1 1 1 1 1 1 1 1
          1 1 1 1 1 1 1 1 1 1 1 1
          1 1 1 1 1 1 1 1 1 1 1 1
          1 1 1 1 1 1 1 1 1 1 1 1
          1 1 1 1 1 1 1 1 1 1 1 1
          1 1 1 1 1 1 1 1 1 1 1 1
          1 1 1 1 1 1 1 1 1 1 1 1
          1 1 1 1 1 1 1 1 1 1 1 1
          1 1 1 1 1 1 1 1 1 1 1 1
          1 1 1 1 1 1 1 1 1 1 1 1
          1 1 1 1 1 1 1 1 1 1 1 1
          1 1 1 1 1 1 1 1 1 1 1 1
          1 1 1 1 1 1 1 1 1 1 1 1
          1 1 1 1 1 1 1 1 1 1 1 1
          1 1 1 1 1 1 1 1 1 1 1 1
          1 1 1 1 1 1 1 1 1 1 1 1
          1 1 1 1 1 1 1 1 1 1 1 1
          1 1 1 1 1 1 1 1 1 1 1 1
          1 1 1 1 1 1 1 1 1 1 1 1
          1 1 1 1 1 1 1 1 1 1 1 1
          1 1 1 1 1 1 1 1 1 1 1 1
          1 1 1 1 1 1 1 1 1 1 1 1
          1 1 1 1 1 1 1 1 1 1 1 1
          1 1 1 1 1 1 1 1 1 1 1 1
          1 1 1 1 1 1 1 1 1 1 1 1
          1 1 1 1 1 1 1 1 1 1 1 1
          1 1 1 1 1 1 1 1 1 1 1 1
          1 1 1 1 1 1 1 1 1 1 1 1
          1 1 1 1 1 1 1 1 1 1 1 1
          1 1 1 1 1 1 1 1 1 1 1 1
          1 1 1 1 1 1 1 1 1 1 1 1
          1 1 1 1 1 1 1 1 1 1 1 1
          1 1 1 1 1 1 1 1 1 1 1 1
          1 1 1 1 1 1 1 1 1 1 1 1
          1 1 1 1 1 1 1 1 1 1 1 1
          1 1 1 1 1 1 1 1 1 1 1 1
          1 1 1 1 1 1 1 1 1 1 1 1
          1 1 1 1 1 1 1 1 1 1 1 1
          1 1 1 1 1 1 1 1 1 1 1 1
          1 1 1 1 1 1 1 1 1 1 1 1
          1 1 1 1 1 1 1 1 1 1 1 1
          1 1 1 1 1 1 1 1 1 1 1 1
          1 1 1 1 1 1 1 1 1 1 1 1
          1 1 1 1 1 1 1 1 1 1 1 1
          1 1 1 1 1 1 1 1 1 1 1 1
          1 1 1 1 1 1 1 1 1 1 1 1
          1 1 1 1 1 1 1 1 1 1 1 1
          1 1 1 1 1 1 1 1 1 1 1 1
          1 1 1 1 1 1 1 1 1 1 1 1
          1 1 1 1 1 1 1 1 1 1 1 1
          1 1 1 1 1 1 1 1 1 1 1 1
          1 1 1 1 1 1 1 1 1 1 1 1
          1 1 1 1 1 1 1 1 1 1 1 1
          1 1 1 1 1 1 1 1 1 1 1 1
          1 1 1 1 1 1 1 1 1 1 1 1
          1 1 1 1 1 1 1 1 1 1 1 1
          1 1 1 1 1 1 1 1 1 1 1 1
          1 1 1 1 1 1 1 1 1 1 1 1
          1 1 1 1 1 1 1 1 1 1 1 1
          1 1 1 1 1 1 1 1 1 1 1 1
          1 1 1 1 1 1 1 1 1 1 1 1
          1 1 1 1 1 1 1 1 1 1 1 1
          1 1 1 1 1 1 1 1 1 1 1 1
          1 1 0.599646 0.634212 0.561061 0.581377 0.622127 0.652681 0.657108 0.658478 0.671382 0.678742
          0.576112 0.590388 0.669756 0.64531 0.658158 0.718731 0.764534 0.760436 0.686586 0.756971 0.876461 1
          1 1 0.6987 0.770693 0.921629 0.965945 1 1 1 1 1 1
          0.730904 0.672847 0.749773 0.788254 0.875769 0.724425 0.897866 0.891788 0.976965 0.964256 1 1
          1 1 1 1 1 1 1 1 1 1 1 1
          1 1 1 1 1 1 1 1 1 1 1 1
          1 1 1 1 1 1 1 1 1 1 1 1
          1 1 1 1 1 1 1 1 1 1 1 1
          1 1 1 1 1 1 1 1 1 1 1 1
          1 1 1 1 1 1 1 1 1 1 1 1
          1 1 1 1 1 1 1 1 1 1 1 1
          1 1 1 1 1 1 1 1 1 1 1 1
          1 1 1 1 1 1 1 1 1 1 1 1
          1 1 1 1 1 1 1 1 1 1 1 1
          1 1 1 1 1 1 1 1 1 1 1 1
          1 1 1 1 1 1 1 1 1 1 1 1
          1 1 1 1 1 1 1 1 1 1 1 1
          1 1 1 1 1 1 1 1 1 1 1 1
          1 1 1 1 1 1 1 1 1 1 1 1
          1 1 1 1 1 1 1 1 1 1 1 1
          1 1 1 1 1 1 1 1 1 1 1 1
          1 1 1 1 1 1 1 1 1 1 1 1
          1 1 1 1 1 1 1 1 1 1 1 1
          1 1 1 1 1 1 1 1 1 1 1 1
          1 1 1 1 1 1 1 1 1 1 1 1
          1 1 1 1 1 1 1 1 1 1 1 1
          1 1 1 1 1 1 1 1 1 1 1 1
          1 1 1 1 1 1 1 1 1 1 1 1
          1 1 1 1 1 1 1 1 1 1 1 1
          1 1 1 1 1 1 1 1 1 1 1 1
          1 1 1 1 1 1 1 1 1 1 1 1
          1 1 1 1 1 1 1 1 1 1 1 1
          1 1 1 1 1 1 1 1 1 1 1 1
          1 1 1 1 1 1 1 1 1 1 1 1
          1 1 1 1 1 1 1 1 1 1 1 1
          1 1 1 1 1 1 1 1 1 1 1 1
          1 1 1 1 1 1 1 1 1 1 1 1
          1 1 1 1 1 1 1 1 1 1 1 1
          1 1 1 1 1 1 1 1 1 1 1 1
          1 1 1 1 1 1 1 1 1 1 1 1
          1 1 1 1 1 1 1 1 1 1 1 1
          1 1 1 1 1 1 1 1 1 1 1 1
          1 1 1 1 1 1 1 1 1 1 1 1
          1 1 1 1 1 1 1 1 1 1 1 1
          1 1 1 1 1 1 1 1 1 1 1 1
          1 1 1 1 1 1 1 1 1 1 1 1
          1 1 1 1 1 1 1 1 1 1 1 1
          1 1 1 1 1 1 1 1 1 1 1 1
          1 1 1 1 1 1 1 1 1 1 1 1
          1 1 1 1 1 1 1 1 1 1 1 1
          1 1 1 1 1 1 1 1 1 1 1 1
          1 1 1 1 1 1 1 1 1 1 1 1
          1 1 1 1 1 1 1 1 1 1 1 1
          1 1 1 1 1 1 1 1 1 1 1 1
          1 1 1 1 1 1 1 1 1 1 1 1
          1 1 1 1 1 1 1 1 1 1 1 1
          1 1 1 1 1 1 1 1 1 1 1 1
          1 1 1 1 1 1 1 1 1 1 1 1
          1 1 1 1 1 1 1 1 1 1 1 1
          1 1 1 1 1 1 1 1 1 1 1 1
          1 1 1 1 1 1 1 1 1 1 1 1
          1 1 1 1 1 1 1 1 1 1 1 1
          1 1 1 1 1 1 1 1 1 1 1 1
          1 1 1 1 1 1 1 1 1 1 1 1
          1 1 1 1 1 1 1 1 1 1 1 1
          1 1 1 1 1 1 1 1 1 1 1 1
          1 1 1 1 1 1 1 1 1 1 1 1
          1 1 1 1 1 1 1 1 1 1 1 1
          1 1 1 1 1 1 1 1 1 1 1 1
          1 1 1 1 1 1 1 1 1 1 1 1
          1 1 1 1 1 1 1 1 1 1 1 1
          1 1 1 1 1 1 1 1 1 1 1 1
          1 1 1 1 1 1 1 1 1 1 1 1
          1 1 1 1 1 1 1 1 1 1 1 1
          1 1 1 1 1 1 1 1 1 1 1 1
          1 1 1 1 1 1 1 1 1 1 1 1
          1 1 1 1 1 1 1 1 1 1 1 1
          1 1 1 1 1 1 1 1 1 1 1 1
          1 1 1 1 1 1 1 1 1 1 1 1
          1 1 1 1 1 1 1 1 1 1 1 1
          1 1 1 1 1 1 1 1 1 1 1 1
          1 1 1 1 1 1 1 1 1 1 1 1
          1 1 1 1 1 1 1 1 1 1 1 1
          1 1 1 1 1 1 1 1 1 1 1 1
          1 1 1 1 1 1 1 1 1 1 1 1
          1 1 1 1 1 1 1 1 1 1 1 1
          1 1 1 1 1 1 1 1 1 1 1 1
          1 1 1 1 1 1 1 1 1 1 1 1
          1 1 1 1 1 1 1 1 1 1 1 1
          1 1 1 1 1 1 1 1 1 1 1 1
          1 1 1 1 1 1 1 1 1 1 1 1
          1 1 1 1 1 1 1 1 1 1 1 1
          1 1 1 1 1 1 1 1 1 1 1 1
          1 1 1 1 1 1 1 1 1 1 1 1
          1 1 1 1 1 1 1 1 1 1 1 1
          1 1 1 1 1 1 1 1 1 1 1 1
          1 1 1 1 1 1 1 1 1 1 1 1
          1 1 1 1 1 1 1 1 1 1 1 1
          1 1 1 1 1 1 1 1 1 1 1 1
          1 1 1 1 1 1 1 1 1 1 1 1
          1 1 1 1 1 1 1 1 1 1 1 1
          1 1 1 1 1 1 1 1 1 1 1 1
          1 1 1 1 1 1 1 1 1 1 1 1
          1 1 1 1 1 1 1 1 1 1 1 1
          1 1 1 1 1 1 1 1 1 1 1 1
          1 1 1 1 1 1 1 1 1 1 1 1
          1 1 1 1 1 1 1 1 1 1 1 1
          1 1 1 1 1 1 1 1 1 1 1 1
          1 1 1 1 1 1 1 1 1 1 1 1
          1 1 1 1 1 1 1 1 1 1 1 1
          1 1 1 1 1 1 1 1 1 1 1 1
          1 1 1 1 1 1 1 1 1 1 1 1
          1 1 1 1 1 1 1 1 1 1 1 1
          1 1 1 1 1 1 1 1 1 1 1 1
          1 1 1 1 1 1 1 1 1 1 1 1
          1 1 1 1 1 1 1 1 1 1 1 1
          1 1 1 1 1 1 1 1 1 1 1 1
          1 1 1 1 1 1 1 1 1 1 1 1
          1 1 1 1 1 1 1 1 1 1 1 1
          1 1 1 1 1 1 1 1 1 1 1 1
          1 1 1 1 1 1 1 1 1 1 1 1
          1 1 1 1 1 1 1 1 1 1 1 1
          1 1 1 1 1 1 1 1 1 1 1 1
          1 1 1 1 1 1 1 1 1 1 1 1
          1 1 1 1 1 1 1 1 1 1 1 1
          1 1 1 1 1 1 1 1 1 1 1 1
          1 1 1 1 1 1 1 1 1 1 1 1
          1 1 1 1 1 1 1 1 1 1 1 1
          1 1 1 1 1 1 1 1 1 1 1 1
          1 1 1 1 1 1 1 1 1 1 1 1
          1 1 1 1 1 1 1 1 1 1 1 1
          1 1 1 1 1 1 1 1 1 1 1 1
          1 1 1 1 1 1 1 1 1 1 1 1
          1 1 1 1 1 1 1 1 1 1 1 1
          1 1 1 1 1 1 1 1 1 1 1 1
          1 1 1 1 1 1 1 1 1 1 1 1
          1 1 1 1 1 1 1 1 1 1 1 1
          1 1 1 1 1 1 1 1 1 1 1 1
          1 1 1 1 1 1 1 1 1 1 1 1
          1 1 1 1 1 1 1 1 1 1 1 1
          1 1 1 1 1 1 1 1 1 1 1 1
          1 1 1 1 1 1 1 1 1 1 1 1
          1 1 1 1 1 1 1 1 1 1 1 1
          1 1 1 1 1 1 1 1 1 1 1 1
          1 1 1 1 1 1 1 1 1 1 1 1
          1 1 1 1 1 1 1 1 1 1 1 1
          1 1 1 1 1 1 1 1 1 1 1 1
          1 1 1 1 1 1 1 1 1 1 1 1
          1 1 1 1 1 1 1 1 1 1 1 1
          1 1 1 1 1 1 1 1 1 1 1 1
          1 1 1 1 1 1 1 1 1 1 1 1
          1 1 1 1 1 1 1 1 1 1 1 1
          1 1 1 1 1 1 1 1 1 1 1 1
          1 1
        </DataArray>
        <DataArray type="Float32" Name="p_liq" NumberOfComponents="1" format="ascii">
          4.35422e+07 4.33754e+07 4.3603e+07 4.35153e+07 4.32289e+07 4.32853e+07 4.37067e+07 4.36206e+07 4.31463e+07 4.30114e+07 4.33926e+07 4.2924e+07
          4.26659e+07 4.27058e+07 4.23861e+07 4.23633e+07 4.27492e+07 4.35239e+07 4.37527e+07 4.36689e+07 4.35354e+07 4.3771e+07 4.36992e+07 4.33335e+07
          4.30622e+07 4.23599e+07 4.26993e+07 4.23031e+07 4.19865e+07 4.19338e+07 4.15518e+07 4.14603e+07 4.10639e+07 4.09738e+07 4.05312e+07 4.05108e+07
          3.99482e+07 3.99823e+07 3.92531e+07 3.93014e+07 4.18832e+07 4.13055e+07 4.08179e+07 4.18409e+07 4.04926e+07 4.01027e+07 3.94366e+07 4.04361e+07
          4.07982e+07 3.99817e+07 4.35628e+07 4.37675e+07 4.37251e+07 4.32918e+07 4.29942e+07 4.36858e+07 4.26317e+07 4.22291e+07 4.37586e+07 4.3626e+07
          4.34541e+07 4.31931e+07 4.37319e+07 4.30845e+07 4.33551e+07 4.28873e+07 4.25472e+07 4.21651e+07 4.27675e+07 4.24642e+07 4.13543e+07 4.09815e+07
          4.1776e+07 4.04037e+07 4.07793e+07 3.90093e+07 3.95658e+07 4.12272e+07 4.17747e+07 4.1352e+07 4.04736e+07 4.00147e+07 4.08531e+07 3.91823e+07
          3.95801e+07 3.81526e+07 3.82951e+07 3.74798e+07 3.75681e+07 3.71303e+07 3.71177e+07 3.67993e+07 3.67303e+07 3.651e+07 3.63784e+07 3.84478e+07
          3.75465e+07 3.70281e+07 3.66024e+07 3.68775e+07 3.73435e+07 3.64138e+07 3.58396e+07 3.60726e+07 3.58259e+07 3.6225e+07 3.54319e+07 3.56205e+07
          3.62018e+07 3.58592e+07 3.508e+07 3.49032e+07 3.51745e+07 3.47312e+07 3.45817e+07 3.44038e+07 3.42516e+07 3.5374e+07 3.47766e+07 3.50077e+07
          3.44565e+07 3.41199e+07 3.56098e+07 3.59971e+07 3.50911e+07 3.47486e+07 3.52512e+07 3.43817e+07 3.81848e+07 3.71776e+07 3.78703e+07 3.67087e+07
          3.6208e+07 3.86647e+07 3.83619e+07 3.88303e+07 3.75993e+07 3.65977e+07 3.61129e+07 3.70739e+07 3.57631e+07 3.47448e+07 3.43106e+07 3.46992e+07
          3.51672e+07 3.42384e+07 3.56599e+07 3.51165e+07 3.55963e+07 3.46465e+07 3.41654e+07 4.35484e+07 4.37057e+07 4.34612e+07 4.34205e+07 4.32435e+07
          4.29737e+07 4.21173e+07 4.26514e+07 4.24438e+07 4.22058e+07 4.31933e+07 4.28731e+07 4.36235e+07 4.34334e+07 4.31604e+07 4.2438e+07 4.18737e+07
          4.20093e+07 4.17731e+07 4.13712e+07 4.10846e+07 4.10407e+07 4.06594e+07 4.02088e+07 4.00949e+07 3.95024e+07 4.14758e+07 4.10867e+07 4.06232e+07
          4.16026e+07 4.11743e+07 4.06399e+07 3.99877e+07 3.93923e+07 4.3538e+07 4.33854e+07 4.28484e+07 4.3114e+07 4.28151e+07 4.24896e+07 4.21119e+07
          4.25182e+07 4.21745e+07 4.18264e+07 4.17336e+07 4.34433e+07 4.3368e+07 4.32386e+07 4.27383e+07 4.28735e+07 4.33652e+07 4.30253e+07 4.25148e+07
          4.21641e+07 4.25706e+07 4.17924e+07 4.13119e+07 4.09095e+07 4.02798e+07 3.97279e+07 4.05732e+07 3.91619e+07 4.13959e+07 4.09896e+07 4.05195e+07
          4.13382e+07 4.088e+07 4.03545e+07 4.00509e+07 3.94205e+07 3.86517e+07 3.89148e+07 3.82726e+07 3.88899e+07 3.75092e+07 3.6507e+07 3.60533e+07
          3.69406e+07 3.82168e+07 3.74276e+07 3.88313e+07 3.82094e+07 3.68893e+07 3.60156e+07 3.64376e+07 3.5104e+07 3.55556e+07 3.46286e+07 3.41682e+07
          3.55055e+07 3.5962e+07 3.50797e+07 3.45954e+07 3.41505e+07 3.87849e+07 3.74516e+07 3.83373e+07 3.7582e+07 3.67871e+07 3.63461e+07 3.69501e+07
          3.61369e+07 3.64874e+07 3.76904e+07 3.6671e+07 3.69515e+07 3.65717e+07 3.6291e+07 3.59432e+07 3.57744e+07 3.53518e+07 3.49446e+07 3.45052e+07
          3.40783e+07 3.55775e+07 3.51839e+07 3.47879e+07 3.44025e+07 3.39413e+07 3.46205e+07 3.43729e+07 3.40958e+07 3.40786e+07 3.39016e+07 3.36887e+07
          3.35359e+07 3.3302e+07 3.31193e+07 3.37655e+07 3.27542e+07 3.26465e+07 3.22128e+07 3.21589e+07 3.34345e+07 3.40289e+07 3.36931e+07 3.3468e+07
          3.30166e+07 3.3276e+07 3.25541e+07 3.20285e+07 3.18464e+07 3.17581e+07 3.14828e+07 3.14253e+07 3.11948e+07 3.11263e+07 3.09083e+07 3.07927e+07
          3.05356e+07 3.05e+07 3.03142e+07 3.00955e+07 3.10924e+07 3.13573e+07 3.06371e+07 3.16023e+07 3.12836e+07 3.15687e+07 3.02451e+07 3.00178e+07
          3.08718e+07 3.39209e+07 3.35546e+07 3.38319e+07 3.34292e+07 3.31106e+07 3.28009e+07 3.25342e+07 3.22474e+07 3.25531e+07 3.37392e+07 3.3262e+07
          3.2936e+07 3.18524e+07 3.21016e+07 3.28234e+07 3.25828e+07 3.11072e+07 3.04857e+07 3.06415e+07 3.14928e+07 3.17204e+07 3.0995e+07 3.1281e+07
          3.01848e+07 3.03685e+07 3.06311e+07 3.02945e+07 3.00359e+07 2.96852e+07 2.94927e+07 2.97975e+07 2.9278e+07 2.91219e+07 2.88885e+07 2.8753e+07
          2.85012e+07 2.83706e+07 2.81685e+07 2.86318e+07 2.93661e+07 2.96129e+07 2.97142e+07 2.93839e+07 2.90036e+07 2.9015e+07 2.86328e+07 2.82348e+07
          2.80457e+07 2.80886e+07 2.75933e+07 2.785e+07 2.72836e+07 2.75564e+07 2.71153e+07 2.70494e+07 2.66401e+07 2.67496e+07 2.69304e+07 2.78051e+07
          2.79481e+07 2.72875e+07 2.75403e+07 2.63652e+07 2.64702e+07 2.68472e+07 2.71337e+07 2.64682e+07 2.9866e+07 2.94403e+07 2.90599e+07 2.86494e+07
          2.81887e+07 2.97721e+07 2.94531e+07 2.91008e+07 2.98925e+07 2.9725e+07 2.94994e+07 2.91537e+07 2.86907e+07 2.83175e+07 2.78048e+07 2.72666e+07
          2.75368e+07 2.68685e+07 2.6418e+07 2.78378e+07 2.80252e+07 2.72385e+07 2.75785e+07 2.66414e+07 2.69939e+07 2.62877e+07 3.37497e+07 3.33507e+07
          3.2951e+07 3.30379e+07 3.22316e+07 3.26789e+07 3.23751e+07 3.37403e+07 3.33843e+07 3.30936e+07 3.27558e+07 3.25121e+07 3.18666e+07 3.20328e+07
          3.27886e+07 3.24048e+07 3.13555e+07 3.09788e+07 3.14395e+07 3.05934e+07 3.01576e+07 3.10299e+07 3.15062e+07 3.10719e+07 3.06284e+07 3.02338e+07
          3.06561e+07 3.02785e+07 3.33898e+07 3.37013e+07 3.31759e+07 3.30441e+07 3.33022e+07 3.35963e+07 3.2253e+07 3.26117e+07 3.29069e+07 3.18818e+07
          3.31937e+07 3.34488e+07 3.35565e+07 3.31168e+07 3.27779e+07 3.21137e+07 3.24705e+07 3.1748e+07 3.14437e+07 3.1041e+07 2.99472e+07 2.98778e+07
          3.06433e+07 3.02994e+07 3.00489e+07 3.13462e+07 3.09659e+07 3.02204e+07 3.05763e+07 2.98997e+07 2.96412e+07 2.97964e+07 2.9376e+07 2.86952e+07
          2.83055e+07 2.85753e+07 2.89553e+07 2.81747e+07 2.94941e+07 2.91839e+07 2.91717e+07 2.95337e+07 2.88688e+07 2.84765e+07 2.80481e+07 2.79204e+07
          2.77583e+07 2.73395e+07 2.64482e+07 2.67566e+07 2.75988e+07 2.70587e+07 2.65707e+07 2.63173e+07 2.66379e+07 2.95884e+07 2.91627e+07 2.91419e+07
          2.87915e+07 2.8399e+07 2.79816e+07 2.94412e+07 2.97486e+07 2.91006e+07 2.87331e+07 2.83472e+07 2.87156e+07 2.79452e+07 2.75586e+07 2.71063e+07
          2.62707e+07 2.66924e+07 2.62897e+07 2.75472e+07 2.71478e+07 2.67352e+07 2.62931e+07 4.31251e+07 4.28121e+07 4.32505e+07 4.30888e+07 4.29503e+07
          4.26507e+07 4.23652e+07 4.21362e+07 4.17237e+07 4.19952e+07 4.28852e+07 4.31418e+07 4.30221e+07 4.27978e+07 4.30333e+07 4.29856e+07 4.24894e+07
          4.1582e+07 4.2178e+07 4.18521e+07 4.14613e+07 4.12451e+07 4.07317e+07 4.01784e+07 3.97917e+07 3.91281e+07 3.95475e+07 4.112e+07 4.05924e+07
          4.10158e+07 4.00539e+07 3.88619e+07 3.94183e+07 3.87907e+07 4.28816e+07 4.29394e+07 4.27368e+07 4.25385e+07 4.22249e+07 4.19201e+07 4.17355e+07
          4.1427e+07 4.14906e+07 4.28527e+07 4.26492e+07 4.22477e+07 4.18772e+07 4.27867e+07 4.09775e+07 4.09244e+07 4.04891e+07 3.99702e+07 4.04979e+07
          3.93061e+07 3.87044e+07 4.0033e+07 4.04667e+07 4.00421e+07 3.95858e+07 3.88835e+07 3.85613e+07 3.92627e+07 3.83114e+07 3.73832e+07 3.67596e+07
          3.6417e+07 3.60918e+07 3.57469e+07 3.69817e+07 3.65299e+07 3.62406e+07 3.5919e+07 3.78888e+07 3.80921e+07 3.65955e+07 3.70537e+07 3.62763e+07
          3.61204e+07 3.58462e+07 3.5899e+07 3.53729e+07 3.49981e+07 3.55814e+07 3.51974e+07 3.48166e+07 3.43534e+07 3.37197e+07 3.38969e+07 3.54985e+07
          3.51146e+07 3.47459e+07 3.43573e+07 3.397e+07 3.75526e+07 3.81146e+07 3.74369e+07 3.65739e+07 3.62823e+07 3.6061e+07 3.57719e+07 3.81179e+07
          3.74128e+07 3.82128e+07 3.66144e+07 3.61345e+07 3.57554e+07 3.61687e+07 3.54525e+07 3.50535e+07 3.46946e+07 3.53986e+07 3.43527e+07 3.40104e+07
          3.43125e+07 3.46198e+07 3.36145e+07 3.36165e+07 3.40674e+07 3.49956e+07 3.5384e+07 3.49134e+07 3.44611e+07 3.3884e+07 3.41768e+07 4.17336e+07
          4.20815e+07 4.17182e+07 4.1503e+07 4.14812e+07 4.08462e+07 4.14358e+07 4.12319e+07 4.11515e+07 4.07243e+07 4.03616e+07 4.01663e+07 3.95937e+07
          3.99724e+07 4.08071e+07 4.04719e+07 3.93748e+07 4.03119e+07 3.99249e+07 3.97329e+07 3.95754e+07 3.90745e+07 4.00795e+07 3.97234e+07 3.93356e+07
          3.81007e+07 3.73211e+07 3.77261e+07 3.69629e+07 3.88023e+07 3.8232e+07 3.90481e+07 3.87595e+07 3.76953e+07 3.74759e+07 3.81162e+07 3.86962e+07
          3.86606e+07 3.85455e+07 3.75052e+07 3.72999e+07 3.66801e+07 3.60681e+07 3.57584e+07 3.51119e+07 3.58412e+07 3.67699e+07 3.71201e+07 3.58149e+07
          3.58117e+07 3.57406e+07 3.83438e+07 3.80126e+07 3.74763e+07 3.66707e+07 3.58598e+07 3.69754e+07 3.66034e+07 3.63251e+07 3.54924e+07 3.50476e+07
          3.47597e+07 3.58809e+07 3.51101e+07 3.45537e+07 3.42656e+07 3.36104e+07 3.345e+07 3.73565e+07 3.67162e+07 3.57607e+07 3.54301e+07 3.61079e+07
          3.5674e+07 3.69674e+07 3.67248e+07 3.67065e+07 3.63312e+07 3.61751e+07 3.53969e+07 3.55538e+07 3.44882e+07 3.4622e+07 3.52391e+07 3.41709e+07
          3.39362e+07 3.36337e+07 3.43277e+07 3.37206e+07 3.34039e+07 3.39593e+07 3.52319e+07 3.44271e+07 3.43613e+07 3.40581e+07 3.37598e+07 3.31786e+07
          3.29812e+07 3.27378e+07 3.59464e+07 3.51966e+07 3.46149e+07 3.45697e+07 3.36424e+07 3.36744e+07 3.41876e+07 3.35474e+07 3.35241e+07 3.32747e+07
          3.27277e+07 3.27099e+07 3.26596e+07 3.33351e+07 3.35129e+07 3.32325e+07 3.27042e+07 3.23789e+07 3.20818e+07 3.24995e+07 3.22455e+07 3.1554e+07
          3.18324e+07 3.12604e+07 3.18292e+07 3.14877e+07 3.1212e+07 3.09171e+07 3.06116e+07 3.33287e+07 3.2952e+07 3.27379e+07 3.26149e+07 3.233e+07
          3.19582e+07 3.22709e+07 3.18102e+07 3.35215e+07 3.31677e+07 3.28583e+07 3.2571e+07 3.22152e+07 3.19604e+07 3.16308e+07 3.15784e+07 3.11973e+07
          3.08269e+07 3.14049e+07 3.10401e+07 3.04581e+07 3.00869e+07 3.06793e+07 3.12576e+07 3.09074e+07 3.05521e+07 3.03431e+07 2.99159e+07 3.03247e+07
          3.00786e+07 3.33212e+07 3.31837e+07 3.25065e+07 3.29127e+07 3.17575e+07 3.14973e+07 3.1852e+07 3.14778e+07 3.33058e+07 3.26494e+07 3.30475e+07
          3.19477e+07 3.14232e+07 3.11413e+07 3.0784e+07 3.0337e+07 2.94998e+07 2.97447e+07 2.99413e+07 3.11274e+07 3.07908e+07 3.11116e+07 3.08348e+07
          3.04048e+07 3.00175e+07 2.94591e+07 2.96778e+07 2.96591e+07 2.93539e+07 2.95666e+07 2.9104e+07 2.8341e+07 2.87357e+07 2.79351e+07 2.9265e+07
          2.88911e+07 2.83661e+07 2.79224e+07 2.85026e+07 2.75381e+07 2.71694e+07 2.6801e+07 2.6481e+07 2.62178e+07 2.6031e+07 2.75005e+07 2.7152e+07
          2.6818e+07 2.65856e+07 2.64204e+07 2.67125e+07 2.90886e+07 2.81429e+07 2.86093e+07 2.82431e+07 2.93332e+07 2.89754e+07 2.85983e+07 2.79293e+07
          2.79258e+07 2.82722e+07 2.79372e+07 2.77055e+07 2.73829e+07 2.70385e+07 2.72874e+07 2.69189e+07 2.61631e+07 2.59399e+07 2.65714e+07 2.76135e+07
          2.72648e+07 2.7604e+07 2.68904e+07 2.65214e+07 2.61435e+07 3.21837e+07 3.21129e+07 3.24718e+07 3.14599e+07 3.12603e+07 3.15985e+07 3.13242e+07
          3.18049e+07 3.11126e+07 3.05391e+07 3.10266e+07 3.08638e+07 3.07778e+07 3.00285e+07 2.96174e+07 3.08577e+07 3.0028e+07 2.98473e+07 2.94906e+07
          2.90495e+07 2.91495e+07 3.09316e+07 3.07901e+07 3.06496e+07 3.03434e+07 3.03879e+07 2.9972e+07 3.00259e+07 2.99556e+07 2.96601e+07 2.99256e+07
          2.9372e+07 2.92671e+07 2.88881e+07 2.8878e+07 2.85625e+07 2.92477e+07 2.88114e+07 2.83147e+07 2.83009e+07 2.81845e+07 2.80867e+07 2.92877e+07
          2.85345e+07 2.88314e+07 2.83115e+07 2.7928e+07 2.88482e+07 2.85136e+07 2.84178e+07 2.83239e+07 2.84008e+07 2.85313e+07 2.83218e+07 2.78053e+07
          2.81867e+07 2.75776e+07 2.69056e+07 2.72744e+07 2.76062e+07 2.65172e+07 2.60541e+07 2.62965e+07 2.58434e+07 2.58166e+07 2.58088e+07 2.7358e+07
          2.70067e+07 2.66631e+07 2.67396e+07 2.64303e+07 2.60865e+07 2.57462e+07 2.57525e+07 2.85935e+07 2.82773e+07 2.81316e+07 2.8169e+07 2.78492e+07
          2.79204e+07 2.76339e+07 2.70352e+07 2.74393e+07 2.70549e+07 2.79501e+07 2.75633e+07 2.77631e+07 2.72112e+07 2.75291e+07 2.71385e+07 2.68864e+07
          2.66172e+07 2.66707e+07 2.65498e+07 2.65075e+07 2.62284e+07 2.58957e+07 2.55829e+07 2.53258e+07 2.53155e+07 2.60665e+07 2.56706e+07 2.61991e+07
          2.53541e+07 2.50876e+07 2.62359e+07 2.58334e+07 2.60052e+07 2.55423e+07 2.5692e+07 2.54677e+07 2.52725e+07 2.47481e+07 2.49642e+07 2.47587e+07
          2.51033e+07 2.4732e+07 2.51157e+07 2.6112e+07 2.58053e+07 2.53622e+07 2.5415e+07 2.50863e+07 2.47238e+07 2.44152e+07 2.45216e+07 2.40469e+07
          2.41841e+07 2.36796e+07 2.3865e+07 2.43029e+07 2.33505e+07 2.31904e+07 2.34612e+07 2.30223e+07 2.29068e+07 2.36543e+07 2.26936e+07 2.30431e+07
          2.39454e+07 2.43353e+07 2.39694e+07 2.33405e+07 2.36369e+07 2.32918e+07 2.36264e+07 2.29675e+07 2.61373e+07 2.55e+07 2.59083e+07 2.60635e+07
          2.57822e+07 2.50905e+07 2.47221e+07 2.56616e+07 2.53687e+07 2.59543e+07 2.50438e+07 2.47071e+07 2.4345e+07 2.39701e+07 2.36074e+07 2.32501e+07
          2.29078e+07 2.43592e+07 2.39789e+07 2.36043e+07 2.32319e+07 2.28703e+07 2.27305e+07 2.27444e+07 2.25404e+07 2.24673e+07 2.21739e+07 2.22474e+07
          2.23185e+07 2.19572e+07 2.20146e+07 2.18813e+07 2.15677e+07 2.16369e+07 2.1255e+07 2.13505e+07 2.16724e+07 2.13873e+07 2.10876e+07 2.11151e+07
          2.22703e+07 2.2627e+07 2.19416e+07 2.12985e+07 2.11072e+07 2.15902e+07 2.10455e+07 2.08363e+07 2.08393e+07 2.06239e+07 2.05744e+07 2.04119e+07
          2.02918e+07 2.08542e+07 2.05425e+07 2.01495e+07 2.00363e+07 1.99903e+07 1.95706e+07 1.98269e+07 1.92711e+07 1.95585e+07 2.09083e+07 2.0588e+07
          2.10596e+07 2.02502e+07 1.98227e+07 1.99813e+07 1.93139e+07 1.95913e+07 2.25582e+07 2.21942e+07 2.1831e+07 2.14486e+07 2.12913e+07 2.16783e+07
          2.09436e+07 2.24905e+07 2.20983e+07 2.20302e+07 2.24498e+07 2.15107e+07 2.10949e+07 2.06511e+07 2.02571e+07 2.0691e+07 2.04784e+07 1.9871e+07
          1.96212e+07 1.93424e+07 2.07414e+07 2.02153e+07 1.9943e+07 1.96539e+07 1.93291e+07 2.5821e+07 2.61372e+07 2.55411e+07 2.52737e+07 2.50087e+07
          2.47191e+07 2.51714e+07 2.49991e+07 2.541e+07 2.48171e+07 2.45648e+07 2.44055e+07 2.60191e+07 2.56915e+07 2.52358e+07 2.55284e+07 2.59302e+07
          2.50012e+07 2.47556e+07 2.49954e+07 2.401e+07 2.35986e+07 2.32217e+07 2.28509e+07 2.42811e+07 2.44702e+07 2.38862e+07 2.3573e+07 2.41047e+07
          2.32316e+07 2.28712e+07 2.2918e+07 2.32653e+07 2.59201e+07 2.55698e+07 2.53241e+07 2.52142e+07 2.47762e+07 2.49886e+07 2.44411e+07 2.46607e+07
          2.51884e+07 2.54938e+07 2.58905e+07 2.47649e+07 2.49256e+07 2.44939e+07 2.51192e+07 2.46304e+07 2.4147e+07 2.38697e+07 2.35754e+07 2.41683e+07
          2.33013e+07 2.35879e+07 2.26334e+07 2.29774e+07 2.25482e+07 2.38743e+07 2.42107e+07 2.38773e+07 2.36004e+07 2.30568e+07 2.33541e+07 2.27354e+07
          2.24841e+07 2.2091e+07 2.16888e+07 2.08822e+07 2.12108e+07 2.21614e+07 2.17675e+07 2.14441e+07 2.14329e+07 2.10771e+07 2.05114e+07 2.02335e+07
          1.99287e+07 1.90725e+07 1.93583e+07 1.96034e+07 2.07117e+07 1.97957e+07 1.93313e+07 1.91129e+07 1.94578e+07 2.22572e+07 2.18731e+07 2.14983e+07
          2.11053e+07 2.23617e+07 2.19855e+07 2.15829e+07 2.20703e+07 2.1667e+07 2.11751e+07 2.07741e+07 2.07207e+07 2.12765e+07 2.08733e+07 2.02919e+07
          1.98941e+07 1.91677e+07 1.91515e+07 1.95218e+07 1.91995e+07 2.03581e+07 1.99676e+07 2.04797e+07 1.95323e+07 1.91768e+07 1.90897e+07 1.90341e+07
          1.86112e+07 1.87417e+07 1.89347e+07 1.82817e+07 1.84003e+07 1.79529e+07 1.80777e+07 1.77573e+07 1.7817e+07 1.81506e+07 1.78578e+07 1.85004e+07
          1.91852e+07 1.88995e+07 1.85218e+07 1.8178e+07 1.78741e+07 1.75906e+07 1.76006e+07 1.75618e+07 1.75753e+07 1.73365e+07 1.73357e+07 1.71114e+07
          1.70909e+07 1.6789e+07 1.68118e+07 1.734e+07 1.70936e+07 1.68333e+07 1.6467e+07 1.65339e+07 1.61757e+07 1.62458e+07 1.58845e+07 1.59794e+07
          1.65808e+07 1.62941e+07 1.60366e+07 1.73416e+07 1.70872e+07 1.68248e+07 1.62685e+07 1.59981e+07 1.6562e+07 1.8963e+07 1.85093e+07 1.78598e+07
          1.75946e+07 1.81622e+07 1.78004e+07 1.75722e+07 1.87436e+07 1.83994e+07 1.80724e+07 1.76971e+07 1.75492e+07 1.79316e+07 1.73385e+07 1.70791e+07