<?xml version="1.0"?>
<VTKFile type="UnstructuredGrid" version="0.1" byte_order="LittleEndian">
  <UnstructuredGrid>
    <Piece NumberOfCells="4096" NumberOfPoints="4913">
      <CellData Scalars="wetting potential">
        <DataArray type="Float32" Name="wetting potential" NumberOfComponents="1" format="ascii">
          1.15102 1.15881 1.15247 1.12972 1.09223 1.04377 0.989299 0.933746 0.903854 0.895961 0.88857 0.881715
          0.875408 0.869622 0.864261 0.859181 1.13844 1.14034 1.13552 1.11761 1.08601 1.04314 0.993418 0.93911
          0.903123 0.89473 0.887348 0.88082 0.875128 0.870343 0.866521 0.863496 1.09868 1.09636 1.09367 1.08614
          1.07177 1.05088 1.02504 0.996188 0.973477 0.958878 0.945353 0.932959 0.92181 0.912084 0.90427 0.899643
          1.04123 1.03967 1.03937 1.04005 1.04108 1.04177 1.04168 1.04066 1.0364 1.02683 1.01472 1.00199
          0.989566 0.977989 0.967548 0.959394 1.02266 1.02548 1.02755 1.02914 1.03055 1.0319 1.03305 1.03298
          1.03204 1.02934 1.02277 1.01444 1.0056 0.996995 0.989396 0.9827 1.02366 1.02576 1.02767 1.02925
          1.03039 1.03103 1.03095 1.0303 1.02779 1.0222 1.01487 1.00692 0.998985 0.991552 0.985006 0.979598
          1.01977 1.02195 1.02343 1.02438 1.0247 1.02427 1.02308 1.02114 1.01749 1.01236 1.00664 1.00091
          0.995517 0.990639 0.986372 0.982922 1.00935 1.01144 1.01246 1.01276 1.01232 1.01117 1.00934 1.00698
          1.00427 1.00146 0.998952 0.996904 0.995339 0.994085 0.992989 0.992259 0.992822 0.994732 0.995499 0.995668
          0.99538 0.994788 0.994105 0.993701 0.993865 0.994788 0.996311 0.998521 1.00111 1.00355 1.00565 1.00769
          0.970851 0.972885 0.974172 0.975508 0.97716 0.979414 0.982643 0.987487 0.992423 0.996989 1.00253 1.00882
          1.01486 1.02012 1.02461 1.02882 0.944656 0.947629 0.951033 0.955716 0.961889 0.969837 0.980045 0.993753
          1.0043 1.01246 1.02182 1.03061 1.03823 1.04459 1.04988 1.0548 0.915801 0.921201 0.929367 0.940377
          0.95397 0.970298 0.989651 1.0157 1.03717 1.04863 1.05806 1.06583 1.07226 1.07755 1.08179 1.08519
          0.914325 0.919699 0.92847 0.939668 0.952654 0.9672 0.983306 1.00189 1.01857 1.03098 1.04283 1.05387
          1.06394 1.07289 1.08047 1.08628 0.950793 0.950641 0.95267 0.955403 0.958342 0.961267 0.964017 0.966122
          0.969058 0.976186 0.986757 0.99906 1.01181 1.02417 1.03554 1.04505 0.974738 0.973012 0.971489 0.970192
          0.969153 0.96837 0.967843 0.967415 0.970761 0.972776 0.977055 0.984538 0.993856 1.00376 1.01303 1.02077
          0.974499 0.973872 0.973201 0.97257 0.972019 0.971568 0.971219 0.970998 0.970616 0.973678 0.979225 0.987031
          0.996309 1.006 1.01504 1.02239 1.43974 1.4656 1.44699 1.37967 1.26923 1.12692 0.96762 0.808949
          0.724555 0.70194 0.680549 0.660486 0.641812 0.624509 0.608429 0.593292 1.40765 1.42112 1.40861 1.35471
          1.25915 1.12956 0.978426 0.819551 0.72764 0.70468 0.683678 0.664438 0.646989 0.631524 0.618213 0.606884
          1.29179 1.28932 1.28412 1.26391 1.22325 1.16206 1.08405 0.994595 0.927581 0.888418 0.850952 0.815568
          0.782722 0.753001 0.727693 0.709662 1.12274 1.11801 1.11653 1.11825 1.12162 1.12433 1.12455 1.12116
          1.10591 1.07658 1.04185 1.00522 0.969263 0.935637 0.90515 0.880612 1.06757 1.07577 1.08176 1.08649
          1.0908 1.09503 1.09857 1.09967 1.09762 1.08772 1.06735 1.04235 1.01601 0.990502 0.968016 0.948265
          1.07035 1.07695 1.0832 1.08834 1.09218 1.09443 1.09454 1.09267 1.08498 1.06818 1.04611 1.02219
          0.99838 0.976047 0.956444 0.939969 1.05775 1.06379 1.06853 1.07179 1.07314 1.07217 1.06878 1.06303
          1.05246 1.03712 1.02021 1.00335 0.987483 0.973101 0.960572 0.950136 1.02585 1.03087 1.03387 1.035
          1.03412 1.03112 1.02611 1.0196 1.01218 1.00448 0.997614 0.992006 0.987649 0.984105 0.981054 0.978436
          0.975823 0.979266 0.980969 0.981479 0.981111 0.980166 0.979237 0.979363 0.981154 0.984928 0.990385 0.997492
          1.00537 1.01276 1.01915 1.02437 0.910142 0.912475 0.914846 0.918392 0.923906 0.932089 0.943947 0.960875
          0.977577 0.992521 1.00969 1.02826 1.04596 1.0616 1.07501 1.08636 0.832892 0.83604 0.843087 0.855641
          0.87462 0.900673 0.935008 0.979741 1.01469 1.03912 1.06561 1.0906 1.11273 1.13166 1.14758 1.16129
          0.749521 0.757206 0.775364 0.804957 0.84574 0.897709 0.961697 1.04502 1.10924 1.13926 1.16509 1.18732
          1.20655 1.22303 1.23663 1.24717 0.743797 0.753229 0.773532 0.803196 0.840304 0.884178 0.934617 0.993748
          1.04379 1.07869 1.11311 1.14619 1.17738 1.20615 1.2316 1.25172 0.851362 0.849172 0.8541 0.861458
          0.869709 0.878289 0.886909 0.894691 0.905989 0.927971 0.958968 0.995239 1.03316 1.07013 1.10455 1.13393
          0.924277 0.919087 0.914686 0.911081 0.908281 0.906235 0.904901 0.904376 0.912553 0.918623 0.931728 0.954222
          0.982152 1.01178 1.03948 1.0626 0.923452 0.921365 0.919137 0.917049 0.915239 0.913772 0.912654 0.911824
          0.911661 0.920629 0.937063 0.960461 0.988356 1.01754 1.04476 1.06695 1.68365 1.72779 1.69844 1.59265
          1.41956 1.19704 0.949209 0.705789 0.576881 0.542023 0.508846 0.477525 0.44823 0.421068 0.395955 0.372429
          1.64206 1.67477 1.65642 1.56968 1.41563 1.20759 0.966314 0.720424 0.586842 0.552394 0.520086 0.489772
          0.461531 0.435731 0.412958 0.393759 1.47167 1.47726 1.47323 1.44211 1.37616 1.27662 1.14897 1.00282
          0.895946 0.836037 0.778229 0.722908 0.670623 0.621999 0.578436 0.543426 1.20524 1.19999 1.19775 1.20035
          1.20523 1.20912 1.20889 1.20191 1.17322 1.12295 1.06691 1.00838 0.950729 0.896742 0.847632 0.806255
          1.11218 1.12568 1.13559 1.1437 1.15143 1.15919 1.16599 1.16964 1.16631 1.1462 1.11071 1.06891
          1.02519 0.983048 0.945979 0.913753 1.11658 1.12826 1.13945 1.14877 1.15593 1.16036 1.16107 1.15794
          1.1443 1.11531 1.07802 1.03799 0.998234 0.960996 0.928364 0.900903 1.09472 1.10473 1.11323 1.11944
          1.12237 1.1212 1.11559 1.10585 1.08819 1.06244 1.03432 1.00638 0.980045 0.956147 0.93536 0.918068
          1.0415 1.04887 1.05383 1.05617 1.05527 1.0507 1.04268 1.03224 1.02039 1.00807 0.997062 0.98793
          0.980617 0.974557 0.96933 0.964836 0.959495 0.96289 0.96474 0.965506 0.965306 0.964417 0.963804 0.965146
          0.969161 0.976111 0.985518 0.997101 1.00956 1.0212 1.03126 1.0394 0.853829 0.853322 0.854638 0.859352
          0.868484 0.883008 0.904378 0.934307 0.963241 0.988438 1.01641 1.04584 1.07379 1.09861 1.11996 1.138
          0.732332 0.730125 0.736105 0.753318 0.783518 0.827695 0.88711 0.963327 1.02224 1.06127 1.10248 1.14136
          1.17618 1.20643 1.2321 1.25425 0.605008 0.606027 0.6242 0.664653 0.728553 0.815239 0.924817 1.06327
          1.165 1.21005 1.24949 1.28414 1.3149 1.34215 1.36542 1.38377 0.59066 0.597825 0.619421 0.659072
          0.715127 0.785485 0.869527 0.968777 1.05067 1.10593 1.16077 1.21411 1.26518 1.31345 1.35796 1.39596
          0.753455 0.747968 0.754307 0.764762 0.777252 0.790639 0.804484 0.817904 0.839268 0.877313 0.928088 0.987289
          1.04944 1.11012 1.16704 1.21763 0.873931 0.865151 0.858 0.852391 0.848178 0.84519 0.843372 0.842977
          0.854217 0.864629 0.887059 0.924598 0.97107 1.0203 1.06632 1.10459 0.872604 0.868887 0.864907 0.861201
          0.85803 0.855498 0.853597 0.85224 0.852862 0.867394 0.894525 0.933462 0.979961 1.02866 1.07407 1.11116
          1.85314 1.91112 1.87371 1.74084 1.52419 1.24582 0.936544 0.634895 0.475447 0.432158 0.390842 0.351734
          0.315114 0.281244 0.250124 0.220989 1.81033 1.86107 1.83717 1.72645 1.53033 1.265 0.958883 0.652434
          0.491036 0.448777 0.408667 0.370582 0.334588 0.301183 0.271461 0.24707 1.62211 1.63963 1.63728 1.59852
          1.51218 1.37973 1.21083 1.01858 0.879864 0.803296 0.729006 0.657416 0.589056 0.524338 0.464155 0.411554
          1.28809 1.28673 1.28515 1.2892 1.29473 1.29755 1.29429 1.28123 1.23759 1.16624 1.08992 1.01127
          0.933736 0.861051 0.794899 0.736837 1.15612 1.17511 1.1894 1.20159 1.21354 1.22559 1.23636 1.24294
          1.23709 1.20395 1.15218 1.09354 1.03272 0.974307 0.922978 0.879025 1.16161 1.17869 1.19523 1.20921
          1.2201 1.22692 1.22816 1.22329 1.20256 1.16027 1.10763 1.05176 0.996489 0.944837 0.899621 0.86216
          1.12978 1.14389 1.15639 1.16581 1.17043 1.16891 1.16071 1.14655 1.12154 1.08548 1.04658 1.00804
          0.971719 0.938775 0.910211 0.887036 1.05563 1.06497 1.0718 1.07538 1.07443 1.06815 1.05701 1.04274
          1.02677 1.01028 0.995532 0.98317 0.973105 0.964692 0.95754 0.951879 0.944407 0.946737 0.948168 0.948944
          0.948788 0.947927 0.947777 0.950607 0.957052 0.967189 0.980327 0.99597 1.01248 1.02785 1.0412 1.05235
          0.805253 0.8 0.798889 0.803838 0.81591 0.836276 0.866727 0.908982 0.949235 0.983628 1.02109 1.05991
          1.0966 1.12914 1.15721 1.1811 0.650936 0.64009 0.641994 0.661059 0.699854 0.759753 0.841746 0.945859
          1.02548 1.07684 1.13032 1.18067 1.22584 1.26514 1.29842 1.3271 0.496494 0.485781 0.497792 0.541441
          0.621216 0.736763 0.885635 1.07031 1.20264 1.25966 1.30981 1.35398 1.39342 1.42879 1.45933 1.48292
          0.466722 0.469054 0.485397 0.52559 0.59275 0.684621 0.797903 0.932904 1.04282 1.11586 1.18853 1.25935
          1.32748 1.39261 1.45442 1.51041 0.659694 0.650793 0.657183 0.668332 0.683017 0.699983 0.718355 0.737448
          0.769705 0.824447 0.894586 0.975731 1.06114 1.14446 1.22262 1.29493 0.823837 0.811285 0.801444 0.794044
          0.788623 0.784816 0.782491 0.781912 0.794853 0.8103 0.842754 0.895387 0.960293 1.02901 1.09328 1.1465
          0.822185 0.81678 0.810963 0.805588 0.801067 0.797525 0.794937 0.79319 0.79458 0.81437 0.852144 0.906544
          0.971539 1.03962 1.10312 1.15503 1.92843 1.99332 1.95106 1.80527 1.56924 1.2665 0.930162 0.603097
          0.430506 0.383602 0.338823 0.296426 0.256766 0.220245 0.186945 0.155694 1.89055 1.95273 1.92299 1.79825
          1.58325 1.29201 0.954619 0.620028 0.447109 0.401587 0.358154 0.316777 0.277491 0.240806 0.208224 0.182658
          1.72831 1.75667 1.75488 1.70909 1.61252 1.46028 1.26293 1.03977 0.879417 0.791157 0.70491 0.62127
          0.540967 0.464173 0.390865 0.32254 1.36962 1.37619 1.37658 1.38145 1.38697 1.38706 1.37777 1.35593
          1.29677 1.20554 1.11034 1.01333 0.91769 0.827878 0.746314 0.672572 1.19935 1.22438 1.24385 1.26092
          1.27762 1.29414 1.30865 1.31759 1.30764 1.25954 1.19086 1.11545 1.03792 0.963696 0.898403 0.843611
          1.20481 1.22741 1.2495 1.26823 1.28266 1.29135 1.29228 1.28476 1.25598 1.20005 1.1326 1.06165
          0.991727 0.926529 0.869481 0.823613 1.16212 1.18006 1.19627 1.20846 1.21416 1.21154 1.20006 1.18108
          1.14891 1.10331 1.05465 1.00652 0.961237 0.920225 0.884866 0.857359 1.06776 1.07842 1.08655 1.09077
          1.08915 1.08072 1.06638 1.04864 1.02926 1.00941 0.991648 0.976694 0.964447 0.954216 0.945764 0.939888
          0.931333 0.931643 0.931941 0.932104 0.931508 0.93047 0.930919 0.935524 0.944545 0.957743 0.974339 0.993638
          1.0137 1.03228 1.04856 1.06261 0.767626 0.756389 0.751923 0.75622 0.770294 0.795514 0.833862 0.886721
          0.936537 0.978569 1.02378 1.07011 1.11353 1.15182 1.18477 1.21305 0.595464 0.574281 0.570653 0.589518
          0.633884 0.705406 0.804798 0.930532 1.0261 1.08675 1.14929 1.20776 1.2598 1.30463 1.34204 1.37421
          0.434628 0.409615 0.41331 0.455566 0.54236 0.675849 0.852474 1.07016 1.22407 1.28929 1.34633 1.39602
          1.43969 1.47835 1.51126 1.53537 0.380145 0.376226 0.384731 0.420803 0.488998 0.593174 0.728709 0.891378
          1.02371 1.11115 1.19851 1.28376 1.36541 1.44321 1.518 1.58848 0.571902 0.560131 0.565616 0.575783
          0.590175 0.608998 0.631461 0.656382 0.69962 0.770703 0.859514 0.961557 1.06925 1.1743 1.27224 1.36553
          0.774142 0.757631 0.74515 0.736099 0.729575 0.724904 0.72183 0.720669 0.734167 0.755315 0.798526 0.86635
          0.949551 1.0376 1.12007 1.18817 0.772388 0.765273 0.757574 0.750532 0.744704 0.74023 0.737039 0.734952
          0.736904 0.761755 0.810184 0.879933 0.963244 1.05051 1.13192 1.19844 1.90023 1.96365 1.92031 1.77686
          1.54738 1.25459 0.929592 0.613288 0.446305 0.401023 0.357882 0.317164 0.279257 0.244616 0.213328 0.183749
          1.87098 1.93445 1.89976 1.77152 1.5597 1.27874 0.951383 0.624879 0.457526 0.413529 0.371615 0.331811
          0.294234 0.259457 0.229207 0.207367 1.77993 1.81385 1.81227 1.75987 1.65814 1.50486 1.29992 1.06332
          0.893751 0.799194 0.706039 0.614972 0.527049 0.442776 0.361326 0.281617 1.44761 1.46427 1.46789 1.47256
          1.47566 1.47232 1.45593 1.42314 1.34874 1.2399 1.12776 1.01431 0.90243 0.797046 0.701618 0.613737
          1.24181 1.27358 1.29885 1.32108 1.34249 1.36287 1.37998 1.39002 1.37431 1.31056 1.22523 1.13337
          1.03968 0.950225 0.871249 0.806786 1.24552 1.27338 1.30055 1.32326 1.34024 1.34954 1.34883 1.3376
          1.30047 1.23191 1.15105 1.0663 0.983089 0.905616 0.83783 0.785455 1.19092 1.21183 1.2307 1.24444
          1.25 1.24525 1.22995 1.20629 1.16796 1.11446 1.05749 1.00129 0.948537 0.900887 0.860166 0.829955
          1.07743 1.08839 1.0967 1.10044 1.09732 1.08644 1.06936 1.04917 1.02758 1.00535 0.98546 0.968792
          0.95517 0.943885 0.934939 0.929613 0.920913 0.918305 0.916615 0.915432 0.913989 0.912869 0.914373 0.921114
          0.932661 0.948647 0.968311 0.990744 1.01371 1.03483 1.05344 1.06993 0.743431 0.725707 0.717535 0.720679
          0.736045 0.765092 0.809675 0.870567 0.927445 0.974999 1.02572 1.0771 1.12469 1.16612 1.20151 1.2321
          0.570507 0.538892 0.530048 0.54799 0.595305 0.673642 0.783349 0.921984 1.02712 1.09328 1.16083 1.22316
          1.27765 1.32342 1.36051 1.39217 0.425498 0.385874 0.38253 0.422634 0.510292 0.648108 0.835466 1.06881
          1.23319 1.30177 1.36082 1.41114 1.4539 1.48996 1.51863 1.53673 0.336345 0.325353 0.325466 0.356727
          0.421913 0.525433 0.670777 0.851395 0.997849 1.09534 1.19319 1.28908 1.38086 1.46701 1.54854 1.62648
          0.491669 0.477934 0.481416 0.48965 0.502682 0.521163 0.546462 0.57735 0.631201 0.717517 0.823923 0.945613
          1.07446 1.20041 1.3168 1.42937 0.725002 0.704379 0.689365 0.678792 0.671154 0.665487 0.661397 0.65929
          0.672457 0.699753 0.754312 0.837441 0.938799 1.04599 1.14663 1.22961 0.723384 0.714537 0.704917 0.696241
          0.689186 0.68384 0.680079 0.677647 0.679895 0.709681 0.768789 0.853734 0.955114 1.0613 1.16038 1.24125
          1.77074 1.8241 1.78412 1.65864 1.46067 1.2105 0.93396 0.664127 0.521081 0.482386 0.44575 0.411469
          0.379948 0.351612 0.326375 0.302046 1.75076 1.80407 1.7662 1.6475 1.45946 1.21888 0.944098 0.665882
          0.519994 0.482025 0.446179 0.412585 0.381448 0.353554 0.330991 0.318123 1.77112 1.80329 1.8008 1.74563
          1.64311 1.49827 1.31198 1.08763 0.920472 0.825668 0.730947 0.637442 0.546378 0.458717 0.374227 0.290018
          1.51984 1.54644 1.55387 1.55803 1.55602 1.54616 1.52305 1.47996 1.39198 1.26873 1.14199 1.01422
          0.888141 0.768869 0.661071 0.560778 1.28319 1.32211 1.35271 1.3795 1.40502 1.42829 1.44631 1.45544
          1.43229 1.35387 1.25328 1.14579 1.03686 0.932971 0.840668 0.76791 1.28303 1.31508 1.34574 1.37093
          1.38897 1.39741 1.39383 1.37814 1.33322 1.25453 1.16215 1.06545 0.970805 0.882796 0.805914 0.748836
          1.21539 1.23798 1.25784 1.27158 1.2757 1.26809 1.24915 1.22204 1.17965 1.11984 1.05611 0.993579
          0.93511 0.88255 0.838217 0.806439 1.0843 1.09434 1.10151 1.10375 1.09863 1.08567 1.06703 1.04581
          1.02292 0.999214 0.978186 0.960708 0.946525 0.934929 0.926114 0.921629 0.91369 0.907541 0.90335 0.900536
          0.898357 0.897665 0.900712 0.909571 0.923353 0.941676 0.963766 0.988515 1.01349 1.03618 1.05612 1.07412
          0.734422 0.710871 0.699628 0.701902 0.71828 0.75002 0.798532 0.86413 0.924943 0.975263 1.0285 1.08198
          1.13067 1.17207 1.20695 1.23727 0.578546 0.539026 0.527262 0.544888 0.593041 0.672891 0.784742 0.925554
          1.03199 1.0988 1.16682 1.22834 1.28015 1.3214 1.35287 1.37971 0.470091 0.419715 0.414725 0.453647
          0.537927 0.66885 0.846563 1.07242 1.23444 1.30218 1.35822 1.40337 1.43899 1.46597 1.48316 1.48767
          0.337711 0.319385 0.313401 0.340269 0.401619 0.499262 0.63675 0.818878 0.971985 1.07393 1.17704 1.27833
          1.37543 1.46619 1.54929 1.62449 0.420679 0.40592 0.406036 0.411279 0.423054 0.441092 0.467232 0.503004
          0.566404 0.666057 0.788661 0.928619 1.07721 1.22315 1.3568 1.48631 0.676587 0.651823 0.634593 0.62267
          0.61382 0.606935 0.601608 0.598321 0.610565 0.644132 0.710353 0.808808 0.928145 1.05428 1.17307 1.2709
          0.675311 0.664641 0.653077 0.642851 0.634678 0.628527 0.624189 0.621371 0.623672 0.658294 0.728069 0.828033
          0.947194 1.07198 1.18842 1.28337 1.5538 1.59043 1.5602 1.46841 1.32481 1.14491 0.947325 0.753279
          0.649784 0.622217 0.596244 0.572169 0.550434 0.531476 0.514972 0.498046 1.53992 1.57422 1.53942 1.44719
          1.30617 1.13083 0.937607 0.742555 0.633654 0.60514 0.57922 0.555652 0.534506 0.516636 0.50467 0.503421
          1.69996 1.72427 1.71924 1.6663 1.57228 1.44315 1.28688 1.10507 0.960846 0.869088 0.777243 0.68604
          0.596585 0.509711 0.425558 0.343679 1.58437 1.61785 1.62906 1.63188 1.62362 1.60389 1.57134 1.52074
          1.42503 1.29192 1.15319 1.01331 0.875166 0.74385 0.625296 0.51448 1.32334 1.36752 1.40154 1.43167
          1.46019 1.48538 1.50319 1.50922 1.47549 1.38597 1.2726 1.15117 1.02851 0.911419 0.806584 0.72702
          1.31683 1.35091 1.38333 1.40941 1.42693 1.4332 1.42593 1.40625 1.35712 1.27023 1.16789 1.06125
          0.957239 0.860818 0.777188 0.716593 1.23522 1.25771 1.27696 1.28948 1.2914 1.28094 1.25952 1.23103
          1.18585 1.12088 1.05209 0.984955 0.922482 0.866682 0.820212 0.787334 1.08802 1.0961 1.10135 1.10164
          1.09473 1.0806 1.06164 1.04014 1.01672 0.992481 0.971196 0.953699 0.939658 0.928293 0.919862 0.916149
          0.910124 0.900531 0.894154 0.890114 0.887747 0.887942 0.89251 0.903221 0.918721 0.938499 0.961987 0.988084
          1.01394 1.03688 1.05684 1.07512 0.742048 0.714738 0.702178 0.704493 0.721594 0.754407 0.803996 0.870062
          0.930737 0.980517 1.03327 1.08559 1.13174 1.1695 1.20063 1.22812 0.621571 0.5799 0.569093 0.586993
          0.633366 0.70891 0.813688 0.94479 1.04339 1.10576 1.16862 1.2231 1.26623 1.29763 1.31885 1.33718
          0.573217 0.526113 0.525614 0.562164 0.63652 0.749779 0.901002 1.09189 1.23156 1.29016 1.3349 1.36692
          1.38834 1.40074 1.40304 1.39155 0.385774 0.362711 0.355162 0.379057 0.434167 0.522917 0.645362 0.805796
          0.949088 1.05191 1.1549 1.25549 1.3513 1.44053 1.52211 1.58831 0.359903 0.344143 0.339433 0.341416
          0.352016 0.371071 0.398758 0.437263 0.507219 0.617574 0.754683 0.911506 1.07833 1.24303 1.39281 1.53599
          0.629001 0.600726 0.581925 0.568767 0.558603 0.550304 0.543576 0.539047 0.549914 0.589309 0.667122 0.78072
          0.91773 1.06245 1.19928 1.3121 0.628063 0.615422 0.60203 0.59043 0.581251 0.574344 0.569422 0.566162
          0.568383 0.607776 0.688148 0.80294 0.939575 1.08262 1.21611 1.32482 1.39652 1.42259 1.40105 1.33497
          1.23164 1.1025 0.961349 0.821997 0.748031 0.728154 0.709495 0.692335 0.677068 0.664026 0.652747 0.640603
          1.38412 1.40543 1.3801 1.3127 1.21003 1.08349 0.94542 0.805914 0.724081 0.704297 0.686078 0.669275
          0.654289 0.6423 0.636171 0.640434 1.62031 1.63719 1.63057 1.58353 1.50128 1.39065 1.25794 1.1122
          0.99006 0.899002 0.814525 0.730682 0.647464 0.565505 0.483692 0.407191 1.64126 1.67613 1.69022 1.69097
          1.67811 1.65161 1.61189 1.55928 1.46005 1.31437 1.16076 1.00673 0.855579 0.711743 0.582257 0.45889
          1.40798 1.45458 1.49143 1.52328 1.55201 1.57557 1.58943 1.58734 1.54051 1.43267 1.29499 1.14755
          1.00003 0.859953 0.735416 0.643828 1.36367 1.39727 1.42945 1.45397 1.46842 1.47042 1.45831 1.43635
          1.38247 1.28371 1.16869 1.04986 0.934952 0.829381 0.739183 0.673221 1.25283 1.27352 1.29064 1.30055
          1.29957 1.28647 1.26361 1.23391 1.18505 1.11577 1.04341 0.973253 0.908422 0.850949 0.803471 0.769626
          1.08875 1.0945 1.09763 1.096 1.08773 1.07316 1.0542 1.03285 1.00954 0.985515 0.964917 0.948412
          0.935396 0.924785 0.916988 0.913813 0.910587 0.89871 0.891097 0.886524 0.884335 0.885244 0.890815 0.902597
          0.918841 0.938816 0.962974 0.989707 1.01528 1.03725 1.0561 1.07349 0.758912 0.730585 0.718521 0.721336
          0.73854 0.770857 0.819213 0.882669 0.939614 0.987785 1.03898 1.08787 1.12953 1.16233 1.18859 1.21167
          0.66697 0.627692 0.619875 0.637756 0.68125 0.750784 0.845949 0.964163 1.05599 1.11416 1.16843 1.21369
          1.24764 1.2704 1.28385 1.29419 0.667357 0.632248 0.634658 0.667579 0.732046 0.829248 0.959316 1.11971
          1.22967 1.26977 1.30074 1.32121 1.33253 1.33611 1.33087 1.3119 0.447106 0.423712 0.416916 0.43802
          0.487049 0.565077 0.675077 0.814832 0.948278 1.05457 1.15027 1.24096 1.32621 1.40491 1.47908 1.53612
          0.293297 0.276432 0.266678 0.265534 0.273954 0.292009 0.319347 0.35586 0.431183 0.559382 0.718382 0.898661
          1.08938 1.27747 1.44685 1.60488 0.488176 0.457558 0.436302 0.420093 0.406503 0.394769 0.384955 0.377654
          0.380527 0.433962 0.546677 0.706293 0.896053 1.0956 1.28471 1.43766 0.480493 0.462842 0.445129 0.430003
          0.417848 0.408357 0.401209 0.396171 0.397598 0.451625 0.565303 0.726221 0.916743 1.11591 1.30199 1.45336
          1.34582 1.36841 1.34965 1.29199 1.20181 1.08919 0.966161 0.84468 0.780103 0.76266 0.746338 0.731418
          0.718212 0.706948 0.697093 0.686255 1.33281 1.35141 1.32999 1.27141 1.18198 1.07186 0.95224 0.83075
          0.759042 0.742027 0.726201 0.711394 0.698166 0.687754 0.682747 0.6864 1.56024 1.57273 1.56672 1.52639
          1.45485 1.35863 1.24378 1.11615 1.00325 0.914819 0.83698 0.763328 0.688943 0.613627 0.535887 0.46528
          1.67848 1.70637 1.72042 1.72044 1.70649 1.6792 1.63946 1.58883 1.48789 1.33155 1.16425 0.998672
          0.838396 0.686238 0.548315 0.413204 1.51163 1.55667 1.59195 1.62063 1.64412 1.66097 1.66799 1.66109
          1.60409 1.47427 1.30863 1.13249 0.959261 0.797204 0.655176 0.547203 1.40929 1.44115 1.46972 1.48978
          1.49931 1.4966 1.48104 1.45628 1.39558 1.28601 1.16029 1.03169 0.908596 0.796748 0.701626 0.630277
          1.26229 1.28077 1.2948 1.30126 1.29723 1.28205 1.25775 1.22661 1.1759 1.1048 1.03165 0.961515
          0.897223 0.840479 0.793548 0.759502 1.08634 1.09 1.0912 1.088 1.07889 1.06421 1.04563 1.02502
          1.00258 0.979764 0.960962 0.946526 0.935097 0.925472 0.918288 0.915304 0.914861 0.902247 0.894368 0.889819
          0.887886 0.88922 0.89526 0.907212 0.922984 0.942734 0.967136 0.993266 1.01721 1.0371 1.05389 1.06956
          0.778506 0.75169 0.741083 0.744351 0.761053 0.791817 0.837354 0.896556 0.95031 0.996676 1.04432 1.08814
          1.12443 1.15228 1.17406 1.19347 0.702944 0.668843 0.662896 0.680096 0.720635 0.784943 0.872294 0.980677
          1.06637 1.1178 1.16372 1.20119 1.22862 1.24624 1.25571 1.26283 0.717003 0.689661 0.691849 0.72194
          0.780546 0.868638 0.988053 1.13303 1.22202 1.25037 1.27278 1.28755 1.29512 1.29631 1.28992 1.27286
          0.501025 0.479736 0.473172 0.491394 0.534989 0.604594 0.703203 0.832 0.963182 1.07111 1.15946 1.23464
          1.30324 1.3667 1.42892 1.47798 0.238097 0.220707 0.208181 0.204067 0.20948 0.224276 0.24795 0.280102
          0.360138 0.508658 0.693104 0.896656 1.10827 1.31517 1.50044 1.66833 0.295533 0.262291 0.237828 0.21812
          0.20122 0.186476 0.173916 0.163884 0.162237 0.238279 0.402557 0.62841 0.890369 1.16189 1.41513 1.61656
          0.277947 0.254336 0.231842 0.212604 0.196824 0.184221 0.174518 0.167508 0.168426 0.242725 0.402713 0.627955
          0.892832 1.16853 1.42548 1.63251 1.29433 1.31348 1.29755 1.24846 1.17168 1.07582 0.97121 0.867782
          0.812798 0.797889 0.783951 0.771284 0.76013 0.750579 0.742093 0.732714 1.2816 1.29727 1.27953 1.22985
          1.15382 1.06034 0.959456 0.856908 0.795063 0.780663 0.767251 0.75458 0.743231 0.73445 0.730296 0.733106
          1.49224 1.50214 1.49675 1.46324 1.40273 1.32112 1.22419 1.11644 1.0208 0.94235 0.869485 0.803102
          0.737881 0.669932 0.597935 0.533381 1.67739 1.69694 1.7074 1.70729 1.69452 1.66936 1.63274 1.58597
          1.48924 1.33576 1.16756 1.00043 0.841233 0.690545 0.551006 0.411149 1.56461 1.60274 1.63159 1.6545
          1.67235 1.68386 1.68641 1.67654 1.61402 1.47525 1.30001 1.11416 0.9336 0.766978 0.620668 0.50158
          1.42213 1.45019 1.47373 1.48875 1.49398 1.4881 1.47049 1.44423 1.38177 1.27075 1.14493 1.01731
          0.896019 0.786306 0.69239 0.618862 1.25583 1.2715 1.28244 1.28601 1.27994 1.26376 1.23929 1.20868
          1.15957 1.09131 1.02201 0.956242 0.896122 0.842888 0.798443 0.765106 1.08037 1.08252 1.08243 1.07837
          1.06909 1.05498 1.03761 1.01861 0.998089 0.977671 0.961602 0.94949 0.939537 0.930756 0.924002 0.920868
          0.922196 0.910152 0.902846 0.898712 0.897148 0.898794 0.904911 0.916415 0.931552 0.950828 0.974007 0.99771
          1.01859 1.03549 1.04973 1.06332 0.80391 0.780563 0.771796 0.775368 0.791063 0.819449 0.860922 0.91476
          0.964333 1.00618 1.04765 1.08461 1.11453 1.13715 1.1549 1.17133 0.745418 0.718037 0.713469 0.729394
          0.766047 0.823775 0.902127 0.998668 1.07283 1.11514 1.15178 1.18101 1.20205 1.21522 1.22208 1.22798
          0.764476 0.744115 0.746204 0.773048 0.824819 0.902197 1.00781 1.13364 1.20538 1.22448 1.23868 1.24775
          1.25205 1.25187 1.24635 1.23306 0.562444 0.543643 0.537662 0.553051 0.590938 0.651595 0.737744 0.852035
          0.969513 1.06922 1.15311 1.21776 1.27054 1.31898 1.36888 1.41266 0.231679 0.212977 0.199801 0.193933
          0.196906 0.208843 0.229225 0.257785 0.338547 0.494754 0.691457 0.905025 1.11999 1.32658 1.51157 1.67698
          0.179841 0.146211 0.120731 0.09972 0.0815045 0.0655833 0.0520252 0.0411595 0.0407262 0.13506 0.333207 0.600629
          0.904354 1.2137 1.49822 1.72271 0.15558 0.128834 0.103892 0.0825717 0.0649833 0.0508467 0.0399048 0.0319513
          0.0336833 0.121804 0.31112 0.576046 0.885686 1.20618 1.5034 1.74172 1.24205 1.25778 1.24472 1.20435
          1.14119 1.06236 0.9764 0.891224 0.846035 0.833778 0.822328 0.811941 0.802819 0.794972 0.787913 0.780093
          1.23047 1.24323 1.22892 1.18814 1.12559 1.04883 0.96668 0.883316 0.831341 0.819403 0.808329 0.797946
          0.788693 0.781618 0.778305 0.780492 1.41694 1.4253 1.42051 1.39365 1.34442 1.27758 1.19866 1.11171
          1.03505 0.971735 0.909418 0.849186 0.791481 0.732107 0.667961 0.609916 1.63322 1.64872 1.65546 1.65427
          1.64334 1.62188 1.59038 1.54997 1.46394 1.32576 1.17169 1.01446 0.864125 0.722764 0.588731 0.451704
          1.5631 1.59418 1.61672 1.63408 1.64724 1.65488 1.65454 1.64319 1.58118 1.44704 1.27972 1.10196
          0.929279 0.770478 0.629104 0.506308 1.40209 1.42555 1.44426 1.45513 1.45724 1.44954 1.43156 1.4061
          1.34702 1.24345 1.12742 1.01036 0.899256 0.798449 0.710855 0.638537 1.23418 1.24707 1.25532 1.25684
          1.24982 1.234 1.2111 1.18295 1.13838 1.0771 1.01571 0.957763 0.904653 0.857312 0.817166 0.785547
          1.07116 1.07252 1.0718 1.06754 1.05878 1.04598 1.03057 1.01391 0.996189 0.979088 0.965971 0.955929
          0.947312 0.939526 0.933435 0.930151 0.932682 0.922444 0.916239 0.912735 0.911551 0.913303 0.919041 0.929618
          0.943616 0.961014 0.981111 1.00088 1.01787 1.03162 1.04348 1.05499 0.834778 0.816146 0.809198 0.812764
          0.826811 0.851804 0.888055 0.934928 0.977554 1.01249 1.04615 1.07544 1.0989 1.11682 1.13138 1.14532
          0.790417 0.769706 0.76632 0.780424 0.812163 0.861776 0.929085 1.01066 1.07152 1.1045 1.13212 1.15369
          1.16913 1.17901 1.18468 1.19013 0.809554 0.794923 0.797012 0.820155 0.864225 0.929642 1.01879 1.12255
          1.17861 1.19119 1.1994 1.20407 1.20608 1.2057 1.20196 1.19211 0.630324 0.614211 0.609234 0.621873
          0.653752 0.704894 0.777381 0.874155 0.973273 1.05639 1.12915 1.18711 1.22954 1.26482 1.30295 1.34192
          0.277632 0.256767 0.243469 0.237091 0.23841 0.24779 0.26493 0.28964 0.366156 0.51648 0.707157 0.915736
          1.12069 1.31072 1.47995 1.63317 0.15375 0.121469 0.0963695 0.0755711 0.0575347 0.0417777 0.0284119 0.0178028
          0.0201473 0.123565 0.332941 0.611847 0.924102 1.23621 1.51921 1.74403 0.126558 0.0994159 0.0743841 0.0529218
          0.0351668 0.0208809 0.00982758 0.00181074 0.00450874 0.0974519 0.295162 0.570272 0.890256 1.21969 1.52366 1.76735
          1.18908 1.20139 1.19123 1.15972 1.11039 1.04883 0.981714 0.915011 0.879828 0.870298 0.861414 0.853354
          0.846254 0.840104 0.834502 0.828259 1.17934 1.18919 1.17818 1.14629 1.09731 1.03727 0.973628 0.909266
          0.867435 0.857986 0.849255 0.841217 0.834227 0.829003 0.826652 0.828456 1.33464 1.34212 1.33805 1.31751
          1.27961 1.2277 1.16676 1.10076 1.0435 0.996018 0.948215 0.898716 0.848476 0.79763 0.74333 0.692851
          1.54676 1.56088 1.56604 1.56435 1.55517 1.53791 1.51261 1.47997 1.40943 1.29603 1.16913 1.03607
          0.904173 0.778637 0.657832 0.531878 1.50748 1.53229 1.54979 1.56258 1.57175 1.57644 1.57459 1.56357
          1.50818 1.39125 1.24773 1.09493 0.944661 0.804737 0.677547 0.560394 1.3509 1.36968 1.38407 1.39172
          1.39198 1.38402 1.36755 1.34497 1.29382 1.20545 1.10778 1.00959 0.916046 0.830308 0.754005 0.687257
          1.19864 1.20891 1.21499 1.21526 1.20838 1.19425 1.17439 1.15038 1.11291 1.06205 1.01172 0.964344
          0.920796 0.881693 0.847769 0.819321 1.05908 1.06016 1.05928 1.05535 1.04768 1.03679 1.0239 1.01019
          0.995889 0.982339 0.972032 0.963996 0.957019 0.950801 0.945878 0.942638 0.94575 0.937956 0.93305 0.930234