<?xml version="1.0"?>
<VTKFile type="PolyData" version="0.1" byte_order="LittleEndian">
  <PolyData>
    <Piece NumberOfLines="137" NumberOfPoints="90">
      <PointData Scalars="S_liq">
        <DataArray type="Float32" Name="S_liq" NumberOfComponents="1" format="ascii">
          1 0.0300241 0.0381683 0.0987144 0.0589599 0.036691 0.0514884 1 1 1 0.751372 0.066753
          0.103336 1 1 1 1 1 1 1 1 1 1 1
          1 1 1 1 1 0.265659 1 1 1 1 1 1
          1 1 1 1 1 1 1 1 1 1 1 1
          1 1 1 1 1 1 1 1 1 1 1 1
          1 1 1 1 1 1 1 1 1 1 1 1
          1 1 1 1 1 1 1 1 1 1 1 1
          1 1 1 1 1 1
        </DataArray>
        <DataArray type="Float32" Name="p_liq" NumberOfComponents="1" format="ascii">
          101596 101544 101652 101590 101930 101158 101508 101492 101431 101543 104128 101468
          101421 102179 102179 102179 101497 101183 101183 102179 102179 101183 101332 101281
          101205 101786 101786 101194 101909 101951 101641 101674 102179 102411 101819 102519
          101673 101528 101630 101415 101250 101090 101786 101255 100751 101480 101856 101713
          101754 101758 102005 101706 101728 101151 101815 101907 101737 100681 100871 101250
          101786 101349 101469 100313 101223 101166 100855 101479 101084 100671 100367 101612
          101700 101674 101689 101553 101739 101706 101706 101545 100881 101728 101479 100000
          100000 100812 100671 100671 100000 100855
        </DataArray>
        <DataArray type="Float32" Name="rho_liq" NumberOfComponents="1" format="ascii">
          1000 1000 1000 1000 1000 1000 1000 1000 1000 1000 1000 1000
          1000 1000 1000 1000 1000 1000 1000 1000 1000 1000 1000 1000
          1000 1000 1000 1000 1000 1000 1000 1000 1000 1000 1000 1000
          1000 1000 1000 1000 1000 1000 1000 1000 1000 1000 1000 1000
          1000 1000 1000 1000 1000 1000 1000 1000 1000 1000 1000 1000
          1000 1000 1000 1000 1000 1000 1000 1000 1000 1000 1000 1000
          1000 1000 1000 1000 1000 1000 1000 1000 1000 1000 1000 1000
          1000 1000 1000 1000 1000 1000
        </DataArray>
        <DataArray type="Float32" Name="mob_liq" NumberOfComponents="1" format="ascii">
          1000 1000 1000 1000 1000 1000 1000 1000 1000 1000 1000 1000
          1000 1000 1000 1000 1000 1000 1000 1000 1000 1000 1000 1000
          1000 1000 1000 1000 1000 1000 1000 1000 1000 1000 1000 1000
          1000 1000 1000 1000 1000 1000 1000 1000 1000 1000 1000 1000
          1000 1000 1000 1000 1000 1000 1000 1000 1000 1000 1000 1000
          1000 1000 1000 1000 1000 1000 1000 1000 1000 1000 1000 1000
          1000 1000 1000 1000 1000 1000 1000 1000 1000 1000 1000 1000
          1000 1000 1000 1000 1000 1000
        </DataArray>
        <DataArray type="Float32" Name="S_gas" NumberOfComponents="1" format="ascii">
          0 0.969976 0.961832 0.901286 0.94104 0.963309 0.948512 0 0 0 0.248628 0.933247
          0.896664 0 0 0 0 0 0 0 0 0 0 0
          0 0 0 0 0 0.734341 0 0 0 0 0 0
          0 0 0 0 0 0 0 0 0 0 0 0
          0 0 0 0 0 0 0 0 0 0 0 0
          0 0 0 0 0 0 0 0 0 0 0 0
          0 0 0 0 0 0 0 0 0 0 0 0
          0 0 0 0 0 0
        </DataArray>
        <DataArray type="Float32" Name="p_gas" NumberOfComponents="1" format="ascii">
          101596 105000 105000 105000 105000 105000 105000 101492 101431 101543 104926 105000
          105001 102179 102179 102179 101497 101183 101183 102179 102179 101183 101332 101281
          101205 101786 101786 101194 101909 103045 101641 101674 102179 102411 101819 102519
          101673 101528 101630 101415 101250 101090 101786 101255 100751 101480 101856 101713
          101754 101758 102005 101706 101728 101151 101815 101907 101737 100681 100871 101250
          101786 101349 101469 100313 101223 101166 100855 101479 101084 100671 100367 101612
          101700 101674 101689 101553 101739 101706 101706 101545 100881 101728 101479 100000
          100000 100812 100671 100671 100000 100855
        </DataArray>
        <DataArray type="Float32" Name="rho_gas" NumberOfComponents="1" format="ascii">
          1.24975 1.29163 1.29163 1.29163 1.29163 1.29163 1.29163 1.24848 1.24772 1.2491 1.29071 1.29163
          1.29163 1.25693 1.25693 1.25693 1.24853 1.24467 1.24467 1.25693 1.25693 1.24467 1.24651 1.24588
          1.24494 1.25209 1.25209 1.24481 1.2536 1.26757 1.25031 1.25071 1.25693 1.25978 1.25249 1.2611
          1.2507 1.24892 1.25017 1.24753 1.24549 1.24353 1.25209 1.24556 1.23936 1.24833 1.25295 1.25119
          1.2517 1.25174 1.25478 1.25111 1.25138 1.24428 1.25245 1.25357 1.25148 1.2385 1.24083 1.2455
          1.2521 1.24671 1.24819 1.23397 1.24517 1.24446 1.24063 1.24832 1.24345 1.23837 1.23463 1.24995
          1.25103 1.25072 1.2509 1.24922 1.25151 1.25111 1.25111 1.24912 1.24096 1.25138 1.24832 1.23012
          1.23012 1.24011 1.23837 1.23837 1.23012 1.24063
        </DataArray>
        <DataArray type="Float32" Name="mob_gas" NumberOfComponents="1" format="ascii">
          56559.2 56557.2 56557.2 56557.2 56557.2 56557.2 56557.2 56559.2 56559.3 56559.2 56557.2 56557.2
          56557.2 56558.8 56558.8 56558.8 56559.2 56559.4 56559.4 56558.8 56558.8 56559.4 56559.3 56559.4
          56559.4 56559.1 56559.1 56559.4 56559 56558.3 56559.2 56559.1 56558.8 56558.7 56559.1 56558.6
          56559.1 56559.2 56559.2 56559.3 56559.4 56559.5 56559.1 56559.4 56559.7 56559.2 56559 56559.1
          56559.1 56559.1 56558.9 56559.1 56559.1 56559.4 56559.1 56559 56559.1 56559.7 56559.6 56559.4
          56559.1 56559.3 56559.3 56559.9 56559.4 56559.4 56559.6 56559.2 56559.5 56559.7 56559.9 56559.2
          56559.1 56559.1 56559.1 56559.2 56559.1 56559.1 56559.1 56559.2 56559.6 56559.1 56559.2 56560.1
          56560.1 56559.6 56559.7 56559.7 56560.1 56559.6
        </DataArray>
        <DataArray type="Float32" Name="pc" NumberOfComponents="1" format="ascii">
          0 3455.9 3348.15 3409.59 3070.52 3842.44 3491.82 0 0 0 797.536 3531.85
          3579.6 -0 -0 -0 -0 -0 -0 -0 -0 -0 -0 -0
          -0 -0 -0 -0 0 1094.13 0 0 0 -0 0 0
          -0 -0 -0 -0 -0 -0 -0 -0 -0 -0 -0 -0
          -0 -0 -0 0 -0 -0 -0 -0 -0 -0 -0 -0
          -0 -0 -0 -0 -0 -0 -0 -0 -0 -0 -0 -0
          -0 -0 -0 -0 -0 -0 -0 -0 -0 -0 -0 -0
          -0 -0 -0 -0 -0 -0
        </DataArray>
        <DataArray type="Float32" Name="porosity" NumberOfComponents="1" format="ascii">
          1 1 1 1 1 1 1 1 1 1 1 1
          1 1 1 1 1 1 1 1 1 1 1 1
          1 1 1 1 1 1 1 1 1 1 1 1
          1 1 1 1 1 1 1 1 1 1 1 1
          1 1 1 1 1 1 1 1 1 1 1 1
          1 1 1 1 1 1 1 1 1 1 1 1
          1 1 1 1 1 1 1 1 1 1 1 1
          1 1 1 1 1 1
        </DataArray>
        <DataArray type="Float32" Name="poreInscribedRadius" NumberOfComponents="1" format="ascii">
          0.00010842 0.0002263 0.00018872 8.6711e-05 0.00014246 0.00017024 0.00014006 5.8137e-05 0.00017043 0.00014712 0.00018289 0.00011213
          8.001e-05 0.00026652 0.00010984 0.00018149 0.0001191 0.00010862 6.7563e-05 0.00013353 8.8091e-05 0.00011873 8.6177e-05 0.00014165
          9.7691e-05 0.00014071 8.5166e-05 0.00010965 8.1041e-05 0.00015832 6.1496e-05 0.00011323 0.00033347 6.7184e-05 0.00010274 0.00016438
          0.00011759 8.0701e-05 0.00015113 0.00013784 9.8161e-05 0.00013 8.1223e-05 0.00014997 0.00013153 0.00020701 0.00010946 8.5023e-05
          7.8721e-05 0.00017262 0.00012575 0.00010082 0.00015856 0.00012022 0.00019603 9.1747e-05 0.0001146 0.00025862 0.00012908 0.00025963
          0.00010958 6.7231e-05 0.00012907 0.00015315 9.4275e-05 0.00019972 7.1623e-05 0.00014025 0.00011092 0.00015744 5.0362e-05 0.00022549
          0.00010874 9.8868e-05 0.00010793 0.00015434 8.0185e-05 6.8354e-05 0.00014551 0.00014525 0.00017218 0.00012177 9.0671e-05 0.00015715
          0.00012027 0.00015784 0.00022979 0.00010367 5.3866e-05 0.00024136
        </DataArray>
        <DataArray type="Float32" Name="coordinationNumber" NumberOfComponents="1" format="ascii">
          6 1 4 1 3 1 5 2 6 3 4 1
          2 4 2 3 2 6 1 1 1 1 4 2
          3 2 1 2 3 7 2 4 3 4 6 2
          3 4 3 5 5 3 4 6 4 5 4 4
          4 4 5 7 3 3 2 3 2 5 2 4
          3 2 2 2 3 4 5 4 4 6 2 5
          4 3 2 2 2 1 1 4 2 1 1 3
          1 2 1 1 1 1
        </DataArray>
        <DataArray type="Float32" Name="poreLabel" NumberOfComponents="1" format="ascii">
          -1 2 -1 2 -1 2 2 -1 -1 -1 -1 2
          -1 -1 -1 -1 -1 -1 -1 -1 -1 -1 -1 -1
          -1 -1 -1 -1 -1 -1 -1 -1 -1 -1 -1 -1
          -1 -1 -1 -1 -1 -1 -1 -1 -1 -1 -1 -1
          -1 -1 -1 -1 -1 -1 -1 -1 -1 -1 -1 -1
          -1 -1 -1 -1 -1 -1 -1 -1 -1 -1 -1 -1
          -1 -1 -1 -1 -1 -1 -1 -1 -1 -1 -1 3
          3 -1 -1 -1 3 -1
        </DataArray>
      </PointData>
      <CellData Scalars="process rank" Vectors="velocity_liq (m/s)">
        <DataArray type="Float32" Name="velocity_liq (m/s)" NumberOfComponents="3" format="ascii">
          -0.821858 -0.821858 0.821858 -0.00515037 0 0.00515037 -0.0509976 0.0509976 0 -1.63418 0 0
          0.321117 -0.321117 -0 0.870266 0.870266 0.870266 -0.463496 0 -0.463496 -0.103708 0 0.103708
          -0.268237 0.268237 0.268237 -0.00470179 0.00470179 0.00470179 -0.108557 -0.108557 0.108557 -0 0 0
          -0 0 -0 0.155579 -0 -0 -0.0895929 0.0895929 0.0895929 -0 -0 0
          -0 0 -0 -0 0 -0 -0 0 0 -0.0857015 0.0857015 0
          0.0699956 0.0699956 -0.0699956 -0 0 -0 -0.0174882 0 0 0.0124056 -0.0124056 -0
          0.457977 -0 -0 -0.67942 -0.67942 0 0.28686 -0 -0 -0.795588 0 0.795588
          0.652447 -0 -0 -0.386665 -0.386665 0 0 -0 -0 1.57167 1.57167 -1.57167
          2.1239 2.1239 2.1239 1.79032 -0 1.79032 -0 -0 0.124881 -0.247508 -0.247508 0
          -0.128941 0 0.128941 -0 -0 0.0714598 -0.480138 0 0 -0 0.309611 -0
          -0 0.164189 -0.164189 0 0 -0 0.0530547 -0.0530547 -0 -0 0.300142 -0.300142
          0.401209 0.401209 -0 -0.221795 0.221795 0.221795 -0 0 0 -0.0124629 0 0
          -0 -0 0.316151 0.687123 0.687123 0.687123 -0.771699 0 0.771699 0 -0.104889 0
          0.309602 -0 0.309602 0 -0.242212 0 0.176561 -0 0.176561 -0 -0 0.188835
          -0 0.0929289 -0 -0.112047 -0.112047 0.112047 -0.0748328 0 0.0748328 -0.297665 -0.297665 -0.297665
          -0 0.430792 0.430792 -0 0.0181049 0.0181049 0 -1.29896 0 0.316003 -0.316003 0.316003
          0.496343 -0 0.496343 -0 0.225479 0.225479 -0.0514816 -0.0514816 0.0514816 1.7402 -0 1.7402
          0.870866 -0 0.870866 0 -0.659075 0.659075 0 -0.440699 0 0.828437 0.828437 -0
          -0.329657 -0.329657 0.329657 -0 0.591698 0.591698 0.279794 -0.279794 -0 0.306319 -0.306319 -0.306319
          -0 1.12501 -1.12501 0.636245 -0 0.636245 -0.636094 0 0.636094 -0.258704 0.258704 0.258704
          -0.5644 0 0 -0 -0 0.476697 0.064923 -0.064923 -0 -0 -0 0.350135
          -0 0.435925 0.435925 -0.196982 0.196982 0.196982 1.04527 -0 -1.04527 -0 0.035513 -0.035513
          -0 0.660072 -0 0.345888 0.345888 -0 -0.528892 0.528892 0 -0.229495 0.229495 0.229495
          0.691505 -0.691505 -0 0 0 -0.596366 0.379181 -0.379181 0.379181 0.07221 -0.07221 0.07221
          1.27138 -0 -1.27138 0 0 -0.46174 -0 0.0163048 -0 0.197697 0.197697 0.197697
          -0 0.171163 -0.171163 0 0 -0.120485 -0.0169394 -0.0169394 0 0.0841886 0.0841886 -0.0841886
          0 -0.484553 0 0.0142995 0.0142995 -0.0142995 0.201238 0.201238 0.201238 0.0430553 0.0430553 0.0430553
          0.441498 -0 -0 -0.0542384 -0.0542384 0 -0 0 0 -0 0 -0
          0.438355 0.438355 0.438355 -0 0.288775 0.288775 0.624999 0.624999 -0.624999 -0 0.746209 -0
          0.304883 -0 -0.304883 -0 -0 0 -0.242717 0.242717 0 -0.706493 0 0
          -0.329572 0.329572 0.329572 -0 0 0 -0.201334 0.201334 -0.201334 2.24855 2.24855 -0
          -0.267582 0.267582 0.267582 0.851981 0.851981 -0.851981 -0 -0 0.647178 -0.772944 0.772944 0
          -0 0.76973 0.76973 -0 -0 0.664086 1.05895 -0 -0 -0 0 0
          -0 0 0 0 -0.203146 0.203146 1.23227 -0 1.23227 -0 0 0
          0.768779 -0.768779 0.768779
        </DataArray>
        <DataArray type="Float32" Name="velocity_gas (m/s)" NumberOfComponents="3" format="ascii">
          0 0 -0 -0.0679118 0 0.0679118 -0.0367614 0.0367614 0 0 -0 -0
          0 -0 -0 0 0 0 0 -0 0 6.81456 -0 -6.81456
          0 -0 -0 0.00921376 -0.00921376 -0.00921376 0 0 -0 -0 0 0
          -0 0 -0 -0 0 0 -0 0 0 -0 -0 0
          -0 0 -0 -0 0 -0 -0 0 0 -0 0 0
          -0 -0 0 -0 0 -0 -0 0 0 -0 0 0
          0 -0 -0 0 0 -0 0 -0 -0 0 -0 -0
          -0 0 0 -0 -0 0 0 -0 -0 -0 -0 0
          -0 -0 -0 -0 0 -0 0 0 -0 -0 -0 0
          -0 0 0 0 0 -0 -0 0 0 0 -0 0
          0 -0 0 0 0 -0 -0 0 0 0 -0 0
          -0 -0 0 -0 0 0 -0 0 0 -0 0 0
          0 0 -0 -0 -0 -0 -0 0 0 0 -0 0
          -0 0 -0 0 -0 0 -0 0 -0 0 0 -0
          0 -0 0 -0 -0 0 -0 0 0 -0 -0 -0
          0 -0 -0 0 -0 -0 -0 0 -0 0 -0 0
          0 -0 0 -0 0 0 -0 -0 0 -0 0 -0
          -0 0 -0 0 -0 0 0 -0 0 -0 -0 0
          -0 -0 0 0 -0 -0 -0 0 0 -0 0 0
          0 -0 0 -0 0 -0 -0 0 0 -0 0 0
          -0 0 0 0 0 -0 -0 0 0 0 0 -0
          0 -0 -0 -0 0 0 -0 0 0 0 -0 0
          0 -0 0 -0 -0 0 -0 0 0 -0 0 0
          -0 0 0 0 0 -0 -0 0 -0 -0 0 -0
          -0 0 0 0 0 -0 0 -0 0 -0 -0 -0
          0 -0 0 0 0 -0 -0 -0 0 -0 -0 0
          0 -0 0 -0 -0 0 -0 -0 -0 -0 -0 -0
          -0 0 0 -0 -0 0 -0 0 0 -0 0 -0
          -0 -0 -0 0 -0 -0 -0 -0 0 0 -0 0
          -0 0 0 -0 -0 0 -0 0 0 -0 0 0
          -0 0 0 -0 0 0 -0 0 -0 -0 -0 0
          -0 0 0 -0 -0 0 0 0 -0 -0 0 0
          0 -0 -0 0 0 -0 -0 0 0 -0 0 0
          -0 0 0 0 -0 0 -0 0 -0 -0 0 0
          -0 0 -0
        </DataArray>
        <DataArray type="Float32" Name="process rank" NumberOfComponents="1" format="ascii">
          0 0 0 0 0 0 0 0 0 0 0 0
          0 0 0 0 0 0 0 0 0 0 0 0
          0 0 0 0 0 0 0 0 0 0 0 0
          0 0 0 0 0 0 0 0 0 0 0 0
          0 0 0 0 0 0 0 0 0 0 0 0
          0 0 0 0 0 0 0 0 0 0 0 0
          0 0 0 0 0 0 0 0 0 0 0 0
          0 0 0 0 0 0 0 0 0 0 0 0
          0 0 0 0 0 0 0 0 0 0 0 0
          0 0 0 0 0 0 0 0 0 0 0 0
          0 0 0 0 0 0 0 0 0 0 0 0
          0 0 0 0 0
        </DataArray>
        <DataArray type="Float32" Name="throatLabel" NumberOfComponents="1" format="ascii">
          2 2 2 2 2 2 2 2 2 -1 -1 -1
          -1 -1 -1 -1 -1 -1 -1 -1 -1 -1 -1 -1
          -1 -1 -1 -1 -1 -1 -1 -1 -1 -1 -1 -1
          -1 -1 -1 -1 -1 -1 -1 -1 -1 -1 -1 -1
          -1 -1 -1 -1 -1 -1 -1 -1 -1 -1 -1 -1
          -1 -1 -1 -1 -1 -1 -1 -1 -1 -1 -1 -1
          -1 -1 -1 -1 -1 -1 -1 -1 -1 -1 -1 -1
          -1 -1 -1 -1 -1 -1 -1 -1 -1 -1 -1 -1
          -1 -1 -1 -1 -1 -1 -1 -1 -1 -1 -1 -1
          -1 -1 -1 -1 -1 -1 -1 -1 -1 -1 -1 -1
          -1 -1 -1 3 -1 3 -1 -1 -1 -1 3 -1
          -1 -1 3 -1 3
        </DataArray>
        <DataArray type="Float32" Name="throatInscribedRadius" NumberOfComponents="1" format="ascii">
          3.3304e-05 3.384e-05 3.3615e-05 3.3259e-05 3.3423e-05 3.3717e-05 3.3301e-05 3.3963e-05 3.3418e-05 3.4247e-05 3.3272e-05 3.37e-05
          3.3125e-05 3.3391e-05 3.3434e-05 3.3768e-05 3.3951e-05 3.3734e-05 3.3508e-05 3.3908e-05 3.3903e-05 3.3674e-05 3.3826e-05 3.3772e-05
          3.3303e-05 3.389e-05 3.3413e-05 3.3431e-05 3.3693e-05 3.353e-05 3.3589e-05 3.3834e-05 3.3987e-05 3.3567e-05 3.3743e-05 3.3553e-05
          3.371e-05 3.3781e-05 3.3426e-05 3.3726e-05 3.3836e-05 3.3664e-05 3.422e-05 3.3429e-05 3.3386e-05 3.305e-05 3.3941e-05 3.3926e-05
          3.3606e-05 3.3937e-05 3.3695e-05 3.3731e-05 3.3671e-05 3.3781e-05 3.3667e-05 3.4584e-05 3.3243e-05 3.3015e-05 3.3252e-05 3.3267e-05
          3.3488e-05 3.3576e-05 3.356e-05 3.3816e-05 3.3764e-05 3.3887e-05 3.4237e-05 3.4047e-05 3.3204e-05 3.2859e-05 3.3938e-05 3.3021e-05
          3.3656e-05 3.3645e-05 3.4391e-05 3.361e-05 3.3463e-05 3.3712e-05 3.3716e-05 3.3657e-05 3.3429e-05 3.3224e-05 3.374e-05 3.3184e-05
          3.3288e-05 3.4084e-05 3.3492e-05 3.3586e-05 3.3937e-05 3.3532e-05 3.3981e-05 3.3517e-05 3.3975e-05 3.3845e-05 3.3562e-05 3.3343e-05
          3.3284e-05 3.3542e-05 3.3486e-05 3.3496e-05 3.3966e-05 3.3533e-05 3.402e-05 3.3455e-05 3.3962e-05 3.3458e-05 3.3693e-05 3.3961e-05
          3.3494e-05 3.3486e-05 3.4314e-05 3.3954e-05 3.3488e-05 3.3852e-05 3.3512e-05 3.3871e-05 3.4113e-05 3.3098e-05 3.3981e-05 3.4127e-05
          3.3649e-05 3.4226e-05 3.3685e-05 3.322e-05 3.2903e-05 3.3521e-05 3.3874e-05 3.374e-05 3.3772e-05 3.344e-05 3.3682e-05 3.3086e-05
          3.3378e-05 3.3359e-05 3.3808e-05 3.3628e-05 3.3247e-05
        </DataArray>
        <DataArray type="Float32" Name="throatLength" NumberOfComponents="1" format="ascii">
          6.6609e-05 3.384e-05 3.3615e-05 9.9777e-05 6.6846e-05 0.00010115 9.9902e-05 6.7925e-05 0.00010025 0.00010274 9.9816e-05 3.37e-05
          9.9376e-05 6.6781e-05 0.0001003 6.7537e-05 6.7903e-05 0.0001012 3.3508e-05 6.7817e-05 0.00010171 6.7347e-05 0.00010148 0.00010132
          6.6606e-05 3.389e-05 6.6826e-05 3.3431e-05 6.7385e-05 6.706e-05 0.00010077 0.0001015 0.00010196 0.0001007 6.7487e-05 0.00010066
          6.7421e-05 3.3781e-05 3.3426e-05 0.00010118 6.7672e-05 0.00010099 3.422e-05 6.6858e-05 6.6772e-05 3.305e-05 6.7881e-05 6.7852e-05
          3.3606e-05 6.7873e-05 3.3695e-05 3.3731e-05 3.3671e-05 3.3781e-05 3.3667e-05 3.4584e-05 6.6486e-05 3.3015e-05 6.6503e-05 9.9802e-05
          6.6975e-05 6.7153e-05 6.7119e-05 3.3816e-05 6.7529e-05 0.00010166 0.00010271 3.4047e-05 3.3204e-05 6.5718e-05 6.7876e-05 6.6043e-05
          3.3656e-05 0.00010094 3.4391e-05 3.361e-05 3.3463e-05 3.3712e-05 6.7432e-05 6.7313e-05 3.3429e-05 9.9673e-05 0.00010122 9.9553e-05
          3.3288e-05 0.00010225 0.00010048 0.00010076 0.00010181 0.0001006 6.7962e-05 3.3517e-05 6.7951e-05 3.3845e-05 3.3562e-05 0.00010003
          3.3284e-05 3.3542e-05 3.3486e-05 6.6992e-05 6.7931e-05 3.3533e-05 0.00010206 6.691e-05 0.00010189 6.6916e-05 6.7385e-05 3.3961e-05
          3.3494e-05 6.6972e-05 3.4314e-05 0.00010186 3.3488e-05 0.00010156 6.7024e-05 0.00010161 0.00010234 3.3098e-05 6.7962e-05 6.8254e-05
          0.00010095 0.00010268 3.3685e-05 3.322e-05 6.5807e-05 3.3521e-05 6.7748e-05 6.748e-05 3.3772e-05 3.344e-05 0.00010104 9.9259e-05
          6.6757e-05 0.00010008 3.3808e-05 0.00010088 9.974e-05
        </DataArray>
        <DataArray type="Float32" Name="pcEntry" NumberOfComponents="1" format="ascii">
          4106.16 4041.12 4068.17 4111.71 4091.54 4055.86 4106.53 4026.48 4092.15 3993.09 4110.11 4057.91
          4128.35 4095.46 4090.19 4049.74 4027.91 4053.82 4081.16 4033.01 4033.61 4061.04 4042.79 4049.26
          4106.28 4035.16 4092.76 4090.56 4058.75 4078.48 4071.32 4041.84 4023.64 4073.98 4052.74 4075.68
          4056.7 4048.18 4091.17 4054.78 4041.6 4062.25 3996.24 4090.8 4096.07 4137.71 4029.09 4030.87
          4069.26 4029.57 4058.51 4054.18 4061.4 4048.18 4061.88 3954.18 4113.69 4142.1 4112.58 4110.72
          4083.6 4072.89 4074.83 4043.99 4050.21 4035.51 3994.26 4016.55 4118.52 4161.77 4029.45 4141.35
          4063.21 4064.54 3976.37 4068.77 4086.65 4056.46 4055.98 4063.09 4090.8 4116.04 4053.1 4121.01
          4108.13 4012.19 4083.11 4071.68 4029.57 4078.24 4024.35 4080.06 4025.06 4040.52 4074.59 4101.35
          4108.62 4077.02 4083.84 4082.62 4026.13 4078.12 4019.74 4087.62 4026.6 4087.26 4058.75 4026.72
          4082.86 4083.84 3985.3 4027.55 4083.6 4039.69 4080.67 4037.42 4008.78 4131.71 4024.35 4007.13
          4064.06 3995.54 4059.71 4116.54 4156.2 4079.58 4037.06 4053.1 4049.26 4089.46 4060.08 4133.21
          4097.05 4099.39 4044.94 4066.59 4113.2
        </DataArray>
        <DataArray type="Float32" Name="transmissibilityW" NumberOfComponents="1" format="ascii">
          1.03853e-14 4.57353e-17 2.85449e-17 6.89564e-15 1.04972e-14 7.18452e-15 6.92186e-15 2.07136e-17 6.99529e-15 1.23998e-17 6.90373e-15 2.15208e-14
          6.81256e-15 1.04673e-14 7.0052e-15 1.08255e-14 1.10024e-14 7.19547e-15 2.1155e-14 1.09607e-14 7.30394e-15 1.07357e-14 7.25421e-15 7.21938e-15
          1.03846e-14 2.18868e-14 1.04878e-14 2.10095e-14 1.07538e-14 1.05984e-14 7.10273e-15 7.25965e-15 7.3585e-15 7.08906e-15 1.08015e-14 7.08005e-15
          1.07698e-14 2.16763e-14 2.10001e-14 7.19006e-15 1.08912e-14 7.15077e-15 2.25324e-14 1.05029e-14 1.04624e-14 2.02994e-14 1.09931e-14 1.09783e-14
          2.13412e-14 1.09892e-14 2.15112e-14 2.15802e-14 2.14653e-14 2.16763e-14 2.14576e-14 2.32591e-14 1.03285e-14 2.02349e-14 1.03371e-14 6.90054e-15
          1.05587e-14 1.06419e-14 1.0627e-14 2.17438e-14 1.08216e-14 7.29374e-15 7.52208e-15 2.21924e-14 2.05845e-14 9.97473e-15 1.099e-14 1.01228e-14
          2.14366e-14 7.13817e-15 2.28719e-14 2.13488e-14 2.10699e-14 2.15438e-14 1.07757e-14 1.07194e-14 2.10058e-14 6.87382e-15 7.19916e-15 6.84902e-15
          2.07411e-14 7.42176e-15 7.0413e-15 7.10089e-15 7.32608e-15 7.06656e-15 1.10318e-14 2.11721e-14 1.10258e-14 2.17998e-14 2.12575e-14 6.94795e-15
          2.07336e-14 2.12195e-14 2.11134e-14 1.05662e-14 1.10174e-14 2.12024e-14 7.37989e-15 1.05274e-14 7.34192e-15 1.05302e-14 1.07538e-14 2.20247e-14
          2.11285e-14 1.05567e-14 2.27186e-14 7.33716e-15 2.11172e-14 7.27081e-15 1.05813e-14 7.28356e-15 7.4405e-15 2.03879e-14 1.10318e-14 1.11746e-14
          7.14086e-15 7.51462e-15 2.1492e-14 2.06142e-14 1.00147e-14 2.11797e-14 1.09279e-14 1.07987e-14 2.1659e-14 2.10265e-14 7.16253e-15 6.78852e-15
          1.04547e-14 6.95781e-15 2.17283e-14 7.12799e-15 6.88824e-15
        </DataArray>
        <DataArray type="Float32" Name="transmissibilityN" NumberOfComponents="1" format="ascii">
          0 1.91723e-14 1.93294e-14 0 0 0 0 9.76415e-15 0 6.7309e-15 0 0
          0 0 0 0 0 0 0 0 0 0 0 0
          0 0 0 0 0 0 0 0 0 0 0 0
          0 0 0 0 0 0 0 0 0 0 0 0
          0 0 0 0 0 0 0 0 0 0 0 0
          0 0 0 0 0 0 0 0 0 0 0 0
          0 0 0 0 0 0 0 0 0 0 0 0
          0 0 0 0 0 0 0 0 0 0 0 0
          0 0 0 0 0 0 0 0 0 0 0 0
          0 0 0 0 0 0 0 0 0 0 0 0
          0 0 0 0 0 0 0 0 0 0 0 0
          0 0 0 0 0
        </DataArray>
        <DataArray type="Float32" Name="volumeFluxW" NumberOfComponents="1" format="ascii">
          5.37779e-10 2.82695e-12 2.20404e-11 6.04736e-10 1.68052e-10 5.578e-10 2.42564e-10 5.42743e-11 1.68052e-10 2.86764e-12 6.62094e-11 0
          0 6.93858e-10 6.93858e-10 0 0 0 0 5.57401e-10 5.57401e-10 0 8.00396e-11 8.00396e-11
          2.19175e-10 4.59833e-10 1.15459e-10 4.52857e-10 2.4591e-09 2.4591e-09 0 1.24649e-08 1.69973e-08 1.14112e-08 5.68752e-10 1.57626e-09
          8.28866e-10 3.26187e-10 2.14583e-09 1.40866e-09 1.06335e-09 0 3.51446e-10 1.89736e-09 2.52973e-09 1.67847e-09 0 5.73778e-11
          1.4282e-09 5.48279e-09 4.95626e-09 4.77361e-10 1.9856e-09 9.12907e-10 1.13208e-09 9.03425e-10 4.10782e-10 8.46146e-10 4.68061e-10 2.28232e-09
          2.73288e-09 1.15459e-10 4.89584e-09 2.06293e-09 2.64562e-09 1.20185e-09 4.18084e-10 1.14112e-08 5.43134e-09 4.02549e-09 2.03037e-09 5.10993e-09
          2.58707e-09 3.78892e-09 1.87199e-09 2.39735e-09 7.12624e-09 4.09042e-09 4.09042e-09 2.03037e-09 2.52286e-09 2.10478e-09 4.18084e-10 1.54224e-09
          2.73251e-09 1.58543e-09 6.63261e-09 2.2661e-10 3.04087e-09 2.20004e-09 3.45473e-09 1.78618e-09 4.51533e-09 2.73251e-09 2.95912e-09 5.56195e-10
          7.96747e-09 2.07795e-09 7.31312e-11 1.53676e-09 1.11705e-09 5.41922e-10 1.10902e-10 6.52824e-10 2.23557e-09 1.10902e-10 1.58274e-09 3.4404e-10
          1.98117e-09 3.4404e-10 0 0 3.40584e-09 1.87199e-09 4.86296e-09 3.42434e-09 2.007e-09 0 1.58543e-09 3.29128e-09
          2.58533e-09 0 1.58274e-09 1.40371e-08 2.007e-09 6.63261e-09 2.97041e-09 4.97752e-09 4.96623e-09 2.97041e-09 4.80543e-09 0
          0 1.27882e-09 7.96747e-09 0 5.88745e-09
        </DataArray>
        <DataArray type="Float32" Name="volumeFluxN" NumberOfComponents="1" format="ascii">
          0 4.02652e-10 2.19094e-10 0 0 0 0 4.08994e-08 0 6.92496e-11 0 0
          0 0 0 0 0 0 0 0 0 0 0 0
          0 0 0 0 0 0 0 0 0 0 0 0
          0 0 0 0 0 0 0 0 0 0 0 0
          0 0 0 0 0 0 0 0 0 0 0 0
          0 0 0 0 0 0 0 0 0 0 0 0
          0 0 0 0 0 0 0 0 0 0 0 0
          0 0 0 0 0 0 0 0 0 0 0 0
          0 0 0 0 0 0 0 0 0 0 0 0
          0 0 0 0 0 0 0 0 0 0 0 0
          0 0 0 0 0 0 0 0 0 0 0 0
          0 0 0 0 0
        </DataArray>
      </CellData>
      <Points>
        <DataArray type="Float32" Name="Coordinates" NumberOfComponents="3" format="ascii">
          2 2 3 1 1 4 2 1 4 1 1 5
          2 1 1 1 2 1 1 2 3 2 1 3
          2 3 4 2 2 4 2 2 2 1 2 4
          1 2 5 2 3 2 1 3 2 2 3 3
          1 3 4 2 4 4 1 3 5 1 4 1
          1 4 2 1 4 4 2 3 5 1 4 5
          2 5 4 2 4 2 1 5 1 1 5 4
          3 1 1 3 2 1 3 1 4 3 1 3
          2 2 1 3 3 1 3 3 3 3 2 3
          3 2 2 2 2 5 3 2 5 3 2 4
          2 4 3 3 4 5 3 3 2 3 4 3
          3 5 4 3 4 2 4 1 2 3 1 2
          4 2 1 4 1 1 4 2 4 4 2 2
          4 3 1 4 2 5 3 3 5 4 4 1
          4 2 3 4 3 5 3 3 4 4 3 3
          3 4 1 3 5 3 4 3 2 4 4 2
          3 5 2 3 4 4 4 5 4 4 3 4
          4 4 3 4 4 5 4 5 3 5 2 2
          4 1 4 4 1 3 5 2 3 5 2 5
          5 3 2 5 1 1 5 1 3 5 3 3
          5 2 4 5 4 1 5 3 4 5 4 5
          5 5 1 4 4 4 5 3 5 5 4 4
          5 5 4 5 4 3
        </DataArray>
      </Points>
      <Lines>
        <DataArray type="Int32" Name="connectivity" NumberOfComponents="1" format="ascii">
          0 1 2 3 4 5 0 6 7 6 8 6
          9 6 10 6 7 11 2 12 8 12 13 14
          15 14 8 16 0 16 17 18 13 19 15 20
          17 21 22 23 24 23 25 26 24 27 17 27
          28 4 29 4 30 2 31 2 29 32 33 32
          13 32 33 10 34 10 35 10 9 0 34 0
          36 0 37 9 38 37 22 37 8 37 15 13
          39 8 40 8 41 22 39 22 42 25 43 40
          17 40 44 40 45 40 24 17 41 17 29 28
          46 28 31 47 36 47 48 47 49 47 50 31
          39 31 38 30 33 29 46 29 51 29 42 29
          52 36 50 35 53 39 34 39 54 38 55 33
          55 42 43 42 56 34 51 34 45 34 57 58
          59 58 50 54 55 60 45 60 52 60 43 45
          61 45 62 43 63 43 64 43 44 65 66 65
          67 65 59 65 57 41 61 64 68 64 69 44
          70 44 46 49 48 49 71 49 48 46 72 73
          74 73 71 73 50 72 74 72 75 72 76 48
          71 51 76 51 77 51 78 51 79 51 67 56
          79 50 57 53 80 53 81 52 71 62 79 59
          71 59 82 67 75 67 83 57 80 57 84 63
          85 68 79 68 66 68 69 85 83 69 86 69
          87 69 66 69 88 70 89 66 83 66
        </DataArray>
        <DataArray type="Int32" Name="offsets" NumberOfComponents="1" format="ascii">
          2 4 6 8 10 12 14 16 18 20 22 24
          26 28 30 32 34 36 38 40 42 44 46 48
          50 52 54 56 58 60 62 64 66 68 70 72
          74 76 78 80 82 84 86 88 90 92 94 96
          98 100 102 104 106 108 110 112 114 116 118 120
          122 124 126 128 130 132 134 136 138 140 142 144
          146 148 150 152 154 156 158 160 162 164 166 168
          170 172 174 176 178 180 182 184 186 188 190 192
          194 196 198 200 202 204 206 208 210 212 214 216
          218 220 222 224 226 228 230 232 234 236 238 240
          242 244 246 248 250 252 254 256 258 260 262 264
          266 268 270 272 274
        </DataArray>
      </Lines>
    </Piece>
  </PolyData>
</VTKFile>
