<?xml version="1.0"?>
<VTKFile type="UnstructuredGrid" version="0.1" byte_order="LittleEndian">
  <UnstructuredGrid>
    <Piece NumberOfCells="226" NumberOfPoints="266">
      <CellData Scalars="wetting potential" Vectors="wetting-velocity">
        <DataArray type="Float32" Name="wetting potential" NumberOfComponents="1" format="ascii">
          100068 100204 100337 100457 100527 100445 100348 100249 100150 100051 100068 100205
          100341 100470 100564 100449 100348 100249 100150 100051 100068 100206 100346 100491
          100656 100578 100603 100927 100811 100615 100684 101392 101142 100566 100335 100605
          101088 100267 100135 100214 100426 100052 100067 100207 100349 100507 100794 100933
          101077 100975 100917 101401 101816 100886 100943 101371 100702 100589 100639 100510
          100262 100259 100427 100080 100064 100180 100318 100443 100266 100429 100678 101197
          100713 100821 100763 101188 101509 100855 100841 100856 100890 100904 100935 100909
          100894 100902 100809 100761 100875 100582 100501 100442 100530 100308 100087 100034
          100118 100129 100038 100330 100494 100397 100268 100829 101479 100373 100335 101932
          101434 100866 100669 100893 100872 100878 100888 100892 100851 100709 100639 100834
          100477 100396 100356 100425 100262 100083 100083 100275 100309 100340 100316 100293
          100470 101061 101676 100387 101351 101468 102670 102320 101498 101323 102316 102679
          101049 100505 100406 101682 100376 100323 100295 100334 100225 100075 100076 100224
          100276 100296 100282 100263 100325 102224 100295 100297 102841 103314 101282 100696
          103316 102847 100701 101284 102238 100329 100294 100284 100302 100273 100256 100282
          100197 100068 100069 100196 100261 100285 100291 100287 100280 100297 100316 100302
          100292 100311 100286 100281 100297 100280 100279 100272 100277 100255 100178 100063
          100066 100184 100252 100276 100285 100283 100275 100289 100296 100293 100288 100291
          100278 100277 100289 100275 100268 100266 100274 100244 100169 100060
        </DataArray>
        <DataArray type="Float32" Name="wetting pressure" NumberOfComponents="1" format="ascii">
          193263 193399 193532 193652 193722 193640 193543 193444 193345 193246 183453 183590
          183726 183854 183949 183834 183733 183634 183535 183436 173643 173781 173921 174066
          174231 176606 176630 172050 171933 176642 176712 172515 172265 176594 176362 171728
          172210 176295 176163 171337 171549 173627 163832 163972 164114 164272 164559 167151
          167295 162288 162230 167619 168033 162199 162255 167588 166920 161901 161952 166728
          166479 161572 161740 163845 154019 156588 156726 151946 151769 156836 157085 152700
          152216 157228 157171 152690 153011 157263 157248 152358 152392 157311 157342 152412
          152396 157309 157217 152263 152377 156989 156908 151945 152032 154263 154042 146631
          146715 141822 141730 146927 147092 142090 141960 147426 148076 142066 142027 148529
          148032 142558 142362 147490 147470 142570 142580 145037 147448 147307 142332 142527
          147075 146993 142049 142118 144407 144228 134418 134610 137097 137128 132198 132175
          137258 137849 133558 132270 138138 138255 134553 134202 138285 138111 134199 134561
          137837 137293 132289 133564 137163 137110 132177 132217 134560 134410 124601 124749
          127254 127273 122355 122336 127302 129202 122368 122370 129819 130291 123355 122768
          130293 129824 122773 123356 129215 127306 122366 122356 127280 127250 122329 122355
          124722 124593 114784 114911 114976 117453 117458 112550 112542 117465 117484 112564
          112554 117479 117453 112543 112560 117448 117446 112535 112540 114970 114893 114778
          104971 105089 105157 107634 107642 102736 102727 107647 107653 102746 102741 107649
          107636 102730 102741 107632 107626 102719 102726 105149 105074 104965
        </DataArray>
        <DataArray type="Float32" Name="nonwetting pressure" NumberOfComponents="1" format="ascii">
          193763 193899 194032 194152 194222 194140 194043 193944 193845 193746 183953 184090
          184226 184354 184449 184334 184233 184134 184035 183936 174143 174281 174421 174566
          174733 181606 181630 177050 176933 181642 181712 177515 177265 181594 181362 176728
          177210 181295 181163 176337 176549 174127 164332 164472 164614 164772 165081 167663
          167929 162789 162730 168535 168910 162812 162820 168458 167863 162417 162536 167295
          166981 162072 162240 164345 154519 161588 161726 156946 156769 161836 162085 157700
          157216 162228 162171 157690 158011 157806 157777 152883 152944 157811 157842 152912
          152897 157822 157797 152844 152891 157533 157410 152446 152571 154763 154542 147131
          147216 142322 142230 147477 147940 142591 142460 148491 149007 142669 142598 149449
          148973 143130 143008 148046 147972 143070 143083 145537 147962 147890 142918 143039
          147611 147495 142550 142651 144907 144728 134918 135110 137597 137659 132722 132675
          137845 142849 138558 132859 143138 143255 139553 139202 143285 143111 139199 139561
          142837 137882 132878 138564 137691 137611 132678 132740 135060 134910 125101 125249
          127754 127790 122856 122836 127892 130225 123166 122908 130826 131301 124268 123701
          131303 130831 123705 124270 130235 127896 122906 123174 127797 127751 122829 122856
          125222 125093 115284 115411 115476 117953 117969 113052 113042 118030 118111 113151
          113080 118107 118019 113070 113146 117960 117946 113035 113043 115470 115393 115278
          105471 105589 105657 108134 108144 103237 103227 108167 108243 103335 103256 108238
          108157 103247 103331 108134 108126 103219 103227 105649 105574 105465
        </DataArray>
        <DataArray type="Float32" Name="nonwetting potential" NumberOfComponents="1" format="ascii">
          57698.3 57834.4 57967.6 58087.3 58156.9 58075.2 57978.2 57879.4 57780.3 57680.9 62210.9 62347.8
          62483.5 62612.4 62707.3 62591.7 62491.3 62392.1 62293 62194 66723.2 66861.5 67001.2 67146
          67313.5 70605.8 70630.4 73211.1 73094.6 70641.9 70711.5 73676.1 73425.8 70593.5 70362 72888.7
          73371.3 70294.4 70162.4 72497.7 72709.9 66707.9 71234.8 71374.8 71517.5 71675.2 71983.9 70985.1
          71251.4 73272.4 73213.4 71857.2 72232 73295.5 73304 71780.8 71185.8 72901.2 73019.6 70617.7
          70303.4 72555.7 72723.4 71248 75744.7 79233 79370.7 81752.1 81575.1 79481.4 79730.5 82506.3
          82022.1 79873.3 79815.7 82496.5 82817.7 75450.8 75422.4 77689.5 77750.2 75456.5 75487.3 77718.1
          77702.9 75467.1 75441.8 77650.8 77697.2 75178.1 75055.3 77252.6 77377.5 75988.2 75767.9 79099
          79183.1 81450.9 81359 79444.6 79907.1 81720.2 81589.2 80458.5 80974.3 81797.8 81726.5 81416.6
          80940.9 82258.6 82136.5 80013.5 79939.3 82199 82212.1 81084.9 79929.7 79857.9 82046.5 82168.2
          79578.6 79462.3 81678.5 81779.5 80455.7 80276.3 84788.6 84980.7 83887.6 83949.2 86173.1 86127
          84135.7 89139 92009.6 86310.4 89428.5 89545.6 93004.1 92653.9 89575.6 89401.1 92650.2 93013
          89126.8 84171.9 86329.9 92015.8 83981.5 83901.2 86129.2 86191.2 84930.6 84781.3 89294.2 89442.9
          88367 88403.1 90630.5 90610.1 88504.5 90837.4 90940.2 90682.5 91439 91914.1 92042.3 91475.1
          91916.1 91444.3 91479.6 92044.3 90848.3 88509.2 90680.3 90947.7 88409.7 88363.4 90603.1 90630.6
          89415.1 89286.6 93800.4 93927.5 93992.4 92888.2 92904.6 95148.7 95139.2 92965 93046.5 95247.3
          95176.4 93042.2 92954.7 95166.9 95242.7 92895.8 92881.9 95131.7 95139.4 93986 93909.3 93793.9
          98309.6 98427.6 98495.7 97392 97401.6 99656 99646.5 97424.9 97500.6 99754.6 99675.7 97496.1
          97415.3 99665.9 99750.1 97392.2 97383.9 99638.1 99646.6 98487.6 98413.2 98303.8
        </DataArray>
        <DataArray type="Float32" Name="capillary pressure" NumberOfComponents="1" format="ascii">
          500 500 500 500 500 500 500 500 500 500 500 500
          500 500 500 500 500 500 500 500 500 500 500 500
          501.607 5000 5000 5000 5000 5000 5000 5000 5000 5000 5000 5000
          5000 5000 5000 5000 5000 500 500 500 500 500.025 521.477 511.857
          634.047 500.777 500.019 915.826 876.051 612.915 564.837 870.055 943.646 516.045 584.094 567.61
          501.73 500.029 500.041 500 500 5000 5000 5000 5000 5000 5000 5000
          5000 5000 5000 5000 5000 542.752 528.951 524.807 551.444 500.068 500.025 500.025
          500.056 512.852 579.89 581.412 513.356 543.668 501.88 501.546 538.962 500 500 500.052
          500.449 500.052 500.052 549.46 847.838 501.542 500.025 1064.76 930.234 603.013 570.416 919.462
          941.51 571.538 645.762 555.709 501.875 500.037 503.005 500.042 513.852 583.362 585.745 512.408
          536.19 501.306 500.968 532.768 500 500 500 500 500.754 531.427 523.186 500.334
          587.773 5000 5000 588.935 5000 5000 5000 5000 5000 5000 5000 5000
          5000 589.112 589.781 5000 528.174 500.582 500.316 523.088 500 500 500 500
          500.154 517.015 501.42 500.022 589.507 1022.89 798.47 538.841 1007.45 1009.82 913.271 932.79
          1009.76 1007.31 932.411 913.75 1020.23 590.308 539.853 817.223 517.143 500.15 500.02 501.706
          500 500 500 500 500 500.013 510.968 502.349 500.001 564.968 627.576 586.177
          525.336 628.13 566.203 526.893 586.15 512.583 500.026 500.001 502.959 500 500 500
          500 500 500 500.001 501.35 500.693 500.001 519.992 589.162 589.65 515.646 589.184
          521.276 516.598 589.66 501.696 500.001 500.001 500.86 500 500 500
        </DataArray>
        <DataArray type="Float32" Name="wetting-velocity" NumberOfComponents="3" format="ascii">
          -6.80367e-06 1.7638e-09 0 -6.73151e-06 -3.78449e-08 0 -6.32062e-06 -1.67601e-07 0 -4.73271e-06 -6.26354e-07 0
          3.00752e-07 -1.89038e-06 0 4.46624e-06 -1.9237e-07 0 4.8951e-06 -2.20576e-08 0 4.94749e-06 -4.13721e-09 0
          4.96221e-06 -3.22427e-09 0 5.01672e-06 -2.40285e-08 0 -6.82171e-06 1.60755e-08 0 -6.81619e-06 -9.0998e-08 0
          -6.61487e-06 -4.20555e-07 0 -5.59409e-06 -1.67775e-06 0 5.17742e-07 -6.41103e-06 0 5.4004e-06 -1.9519e-07 0
          4.98922e-06 -2.80747e-08 0 4.95691e-06 -8.15979e-09 0 4.95227e-06 -4.24351e-09 0 5.03034e-06 -8.93008e-08 0
          -6.84113e-06 6.51933e-08 0 -6.94983e-06 -8.85301e-08 0 -7.11399e-06 -4.41599e-07 0 -7.69537e-06 -1.8764e-06 0
          -4.07444e-06 -9.76109e-06 0 -4.14002e-11 -4.75128e-09 0 -1.80689e-10 -6.45643e-09 0 -1.65603e-09 -6.24344e-09 0
          -1.40962e-09 -4.77142e-09 0 -4.0557e-10 -1.06954e-08 0 2.42339e-10 -1.36969e-08 0 2.72164e-10 -1.55531e-08 0
          -2.32478e-09 -1.04616e-08 0 1.74734e-09 -1.01476e-08 0 1.49539e-09 -5.81675e-09 0 3.30708e-09 -4.64716e-09 0
          3.93699e-09 -1.08762e-08 0 9.97812e-10 -3.02361e-09 0 1.68526e-09 -1.39708e-09 0 2.4453e-09 -1.74159e-09 0
          1.9546e-09 -3.26817e-09 0 2.62289e-06 -1.44079e-06 0 -6.83338e-06 1.85339e-07 0 -7.06959e-06 -3.62259e-08 0
          -7.50782e-06 -1.92706e-07 0 -9.47162e-06 -8.30621e-07 0 -8.79784e-06 -7.49146e-06 0 -4.19002e-06 1.40247e-06 0
          -7.13306e-07 5.69703e-06 0 -2.12848e-06 9.73009e-06 0 -5.92693e-06 2.73097e-06 0 -5.52571e-08 3.97843e-07 0
          1.46753e-09 4.19522e-07 0 2.00333e-06 1.61872e-06 0 1.50058e-06 2.3142e-06 0 1.26303e-07 5.92291e-07 0
          8.37587e-08 3.10671e-06 0 7.31877e-06 1.02829e-05 0 1.89093e-06 2.37972e-06 0 4.58738e-06 4.11858e-06 0
          1.06584e-05 2.17921e-07 0 1.4347e-05 1.64136e-06 0 1.50638e-05 7.40621e-06 0 1.00195e-05 -1.73845e-06 0
          -3.20021e-06 -1.32964e-06 0 -2.06394e-09 -1.37152e-09 0 -1.2419e-09 -2.43453e-09 0 -2.23495e-09 -2.26951e-09 0
          -2.60376e-09 -2.13196e-09 0 -1.7991e-09 -6.03331e-09 0 -1.95966e-09 -1.0125e-08 0 -3.97807e-09 -1.0823e-08 0
          -3.77128e-09 -5.15157e-09 0 -4.2583e-10 -1.32598e-08 0 -6.35054e-10 -9.09664e-09 0 4.58258e-09 -9.1763e-09 0
          4.9133e-11 -1.53422e-08 0 3.30212e-07 -4.70303e-06 0 -1.90151e-06 -1.88615e-06 0 -7.17175e-07 -2.05071e-06 0
          7.07375e-07 -1.33038e-06 0 -3.77185e-06 2.31507e-06 0 -1.18511e-07 6.58058e-06 0 7.05777e-07 3.9893e-06 0
          -2.18091e-06 1.65226e-06 0 3.46834e-06 3.92397e-06 0 4.6168e-06 2.13253e-06 0 5.13872e-06 1.89484e-06 0
          3.99059e-06 3.81894e-06 0 4.79851e-06 3.97279e-06 0 7.75572e-06 1.28254e-05 0 7.69996e-06 1.01417e-05 0
          5.20846e-06 4.55755e-06 0 1.08243e-05 4.61186e-06 0 9.86887e-06 -1.51589e-07 0 -7.53931e-06 -1.13803e-06 0
          -9.54712e-06 -3.33985e-06 0 -1.14987e-05 -1.19706e-06 0 -8.33501e-06 -3.20504e-07 0 -5.39561e-06 3.51988e-06 0
          -1.71272e-08 9.67322e-06 0 -4.97248e-06 1.56454e-05 0 -1.32729e-05 6.76965e-06 0 -4.11575e-08 6.7986e-08 0
          -6.57256e-08 3.02398e-07 0 -1.0167e-06 1.52214e-06 0 1.14457e-06 1.31839e-06 0 3.00735e-09 2.56733e-07 0
          4.29578e-08 2.86541e-07 0 -3.0378e-06 2.8756e-07 0 -3.32797e-06 2.37311e-06 0 4.73057e-07 1.75901e-07 0
          -1.82323e-07 -1.71876e-06 0 -2.20601e-08 -5.24052e-07 0 9.60028e-09 2.54078e-07 0 9.79987e-07 1.04052e-06 0
          4.61138e-06 3.0398e-06 0 5.68493e-06 2.20657e-06 0 6.64949e-06 3.52784e-06 0 5.92682e-06 1.22936e-06 0
          5.10464e-06 4.86978e-06 0 6.41344e-06 8.36922e-06 0 5.84578e-06 7.14314e-06 0 4.59084e-06 5.10669e-06 0
          8.22304e-06 4.14123e-06 0 8.63437e-06 5.91097e-07 0 -8.93725e-06 3.66605e-07 0 -5.43136e-06 7.13227e-06 0
          -1.35021e-06 2.87849e-06 0 -2.4081e-06 2.56373e-06 0 -1.65609e-06 2.65441e-06 0 -1.81185e-06 3.23703e-06 0
          -1.38245e-06 3.48894e-06 0 -7.35622e-09 -1.00542e-08 0 -1.6099e-08 -1.71132e-08 0 -7.94994e-07 2.41178e-06 0
          -2.03259e-09 -1.89522e-08 0 -7.35903e-10 -2.38278e-08 0 -1.79538e-09 -2.48989e-08 0 -4.97264e-09 -2.01181e-08 0
          7.22498e-10 -2.31092e-08 0 2.24428e-09 -1.96084e-08 0 4.98585e-09 -2.05369e-08 0 1.76943e-09 -2.45498e-08 0
          6.80967e-09 -1.06211e-08 0 1.37016e-06 3.8925e-06 0 7.88441e-07 2.87094e-06 0 1.59251e-08 -1.74449e-08 0
          3.20715e-06 5.00401e-06 0 4.71088e-06 6.04065e-06 0 4.15447e-06 4.95932e-06 0 2.24893e-06 4.46476e-06 0
          6.5085e-06 3.28776e-06 0 7.50271e-06 7.41799e-07 0 -7.50077e-06 6.67853e-07 0 -5.18935e-06 3.92237e-06 0
          -2.20391e-06 2.90165e-06 0 -1.11275e-06 2.38341e-06 0 -1.36676e-06 1.94627e-06 0 -2.46117e-06 2.29244e-06 0
          -3.38818e-07 1.93756e-06 0 -2.77552e-08 7.68395e-08 0 1.35326e-09 4.14253e-07 0 -4.14303e-07 1.65091e-06 0
          -2.43385e-08 9.04138e-08 0 -1.03963e-08 8.15793e-08 0 -3.95187e-08 3.42019e-07 0 -5.75231e-08 3.88059e-07 0
          1.02399e-08 8.17622e-08 0 2.40907e-08 9.04301e-08 0 5.84431e-08 3.87188e-07 0 3.88414e-08 3.41183e-07 0
          2.80874e-08 7.81836e-08 0 3.06841e-07 2.37883e-06 0 2.42152e-07 2.0537e-06 0 -7.54264e-08 3.35944e-07 0
          1.48523e-06 3.67339e-06 0 3.47815e-06 3.82323e-06 0 3.47089e-06 2.80811e-06 0 1.60037e-06 2.79456e-06 0
          5.45914e-06 2.32531e-06 0 6.61959e-06 6.26912e-07 0 -6.64214e-06 4.89397e-07 0 -4.79916e-06 2.02362e-06 0
          -2.31144e-06 1.39748e-06 0 -9.14365e-07 1.27352e-06 0 -3.59303e-07 6.40743e-07 0 -5.1853e-07 5.44746e-07 0
          -1.05215e-06 8.80866e-07 0 -1.90677e-07 5.07884e-07 0 -5.35644e-08 4.27076e-07 0 -7.42816e-08 2.80267e-07 0
          -2.84166e-07 3.74814e-07 0 1.17955e-07 4.21418e-07 0 1.92359e-07 4.83475e-07 0 3.09845e-07 3.34049e-07 0
          2.25774e-07 2.74037e-07 0 1.52923e-07 5.03293e-07 0 6.8692e-07 1.57073e-06 0 9.15295e-07 1.05766e-06 0
          3.526e-07 4.65331e-07 0 2.57308e-06 1.72411e-06 0 4.80024e-06 1.35794e-06 0 6.02659e-06 4.0088e-07 0
          -6.24426e-06 1.72085e-07 0 -4.65273e-06 6.2368e-07 0 -2.47549e-06 4.6494e-07 0 -1.16761e-06 5.2599e-07 0
          -5.87294e-07 3.50017e-07 0 -6.30355e-07 1.19571e-07 0 -1.22072e-06 1.74545e-07 0 -2.53223e-07 2.32943e-07 0
          -3.62354e-08 1.4663e-07 0 -1.95109e-08 4.58754e-08 0 -2.50105e-07 7.87946e-08 0 1.79625e-07 1.44735e-07 0
          2.74066e-07 2.04213e-07 0 2.72407e-07 6.74885e-08 0 1.62327e-07 4.54346e-08 0 4.59033e-07 3.21462e-07 0
          1.07924e-06 6.17466e-07 0 1.15407e-06 2.0292e-07 0 5.20247e-07 1.12781e-07 0 2.62606e-06 5.47433e-07 0
          4.59453e-06 4.36802e-07 0 5.74018e-06 1.36021e-07 0
        </DataArray>
        <DataArray type="Float32" Name="nonwetting-velocity" NumberOfComponents="3" format="ascii">
          0 0 0 0 0 0 0 0 0 0 0 0
          0 -1.36278e-21 0 0 0 0 0 0 0 0 0 0
          0 0 0 0 0 0 0 0 0 0 0 0
          0 0 0 -1.42077e-23 -9.48403e-28 0 3.10112e-24 -6.00562e-10 0 1.73088e-23 0 0
          0 0 0 0 0 0 0 0 0 0 0 0
          0 0 0 0 0 0 -1.5151e-29 0 0 -1.09192e-11 -2.36242e-15 0
          -1.09192e-11 -1.31827e-06 0 0 0 0 0 0 0 0 0 0
          0 0 0 0 0 0 0 0 0 0 0 0
          0 0 0 0 0 0 0 0 0 0 0 0
          0 0 0 0 0 0 0 0 0 0 0 0
          0 0 0 0 -3.43746e-28 0 0 -1.53559e-28 0 0 0 0
          -4.11049e-17 0 0 -4.4153e-08 -2.36242e-15 0 -4.84931e-08 -6.68725e-06 0 -5.61629e-06 -1.05891e-15 0
          -2.33138e-05 -4.50798e-10 0 -5.62937e-08 -4.50801e-10 0 -8.70767e-13 -4.64131e-14 0 -3.88675e-05 -7.44005e-05 0
          3.33746e-06 -5.47643e-05 0 3.12334e-06 -9.16922e-05 0 -2.40756e-08 -7.48319e-05 0 5.8528e-05 -5.90688e-05 0
          4.87838e-05 -0.000106677 0 1.10383e-06 -0.000106678 0 4.17316e-06 -7.0036e-05 0 1.66854e-05 -1.82402e-14 0
          1.93089e-06 -3.44742e-15 0 4.57789e-16 -3.44742e-15 0 2.17899e-08 -1.82402e-14 0 1.07095e-11 -3.43746e-28 0
          -2.17824e-30 -6.51892e-12 0 0 0 0 0 0 0 0 0 0
          0 0 0 0 0 0 0 0 0 0 0 0
          0 0 0 0 0 0 0 0 0 0 4.16853e-37 0
          0 2.89159e-37 0 4.46084e-08 -1.90532e-05 0 4.46084e-08 -3.91706e-06 0 1.62226e-07 -1.50246e-06 0
          1.62226e-07 -2.3046e-05 0 -2.59418e-16 -7.08199e-14 0 -6.22465e-18 -4.2432e-15 0 1.32507e-18 -1.27852e-14 0
          -6.4078e-17 -3.61196e-14 0 8.33636e-10 -7.09243e-07 0 1.8005e-06 -6.36821e-05 0 2.00368e-06 -5.47142e-05 0
          1.71435e-09 -5.86063e-07 0 2.05106e-06 -1.61407e-05 0 2.51416e-07 -1.51879e-09 0 1.88654e-07 -8.09424e-10 0
          2.19061e-06 -9.37541e-06 0 1.81991e-11 -7.82266e-25 0 1.8939e-26 0 0 -2.40232e-13 -3.94119e-14 0
          -7.49198e-07 -1.30378e-11 0 -4.68754e-16 -1.96616e-14 0 -7.26648e-16 -1.96805e-14 0 -1.39116e-05 -3.39967e-15 0
          -4.56992e-05 -1.36592e-07 0 -1.31564e-08 -1.36592e-07 0 -1.50907e-11 -3.39967e-15 0 -6.55401e-05 -6.65048e-05 0
          -5.92317e-05 -4.18236e-05 0 -6.0457e-06 -4.97413e-05 0 -7.16683e-07 -6.6505e-05 0 2.19899e-06 -4.47033e-05 0
          5.44928e-05 -6.66012e-05 0 -5.45496e-07 -6.66012e-05 0 -5.98914e-06 -9.54456e-05 0 2.63507e-05 -1.23228e-05 0
          2.8524e-07 -6.97635e-10 0 1.11107e-11 -6.85436e-15 0 1.01498e-07 -6.07743e-09 0 -8.31694e-09 -1.06362e-14 0
          2.95735e-09 -5.39531e-07 0 2.19368e-06 -5.72205e-05 0 2.27572e-06 -5.97055e-05 0 -1.30438e-08 -2.31286e-07 0
          2.33457e-06 -7.48173e-06 0 1.43857e-07 -4.31757e-10 0 9.51652e-08 -1.53137e-10 0 2.36729e-06 -5.51965e-06 0
          3.90791e-12 -1.42376e-26 0 2.85808e-28 0 0 -8.05049e-31 0 0 -8.38545e-14 -3.74421e-29 0
          -5.17239e-08 -1.25678e-10 0 -1.73178e-06 -9.31565e-06 0 -1.35851e-06 -1.98529e-06 0 -1.64014e-08 -5.76937e-12 0
          -1.68006e-06 -8.24732e-05 0 0 0 0 0 0 0 -1.34211e-06 -6.43611e-05 0
          0 0 0 0 0 0 0 0 0 0 0 0
          0 0 0 0 0 0 0 0 0 0 0 0
          0 0 0 1.80751e-06 -6.27053e-05 0 1.3831e-06 -6.52752e-05 0 0 0 0
          1.85714e-06 -3.56752e-06 0 4.96283e-08 -3.2002e-11 0 2.17653e-08 -4.89442e-12 0 1.40486e-06 -1.92285e-06 0
          2.1139e-13 -5.02881e-30 0 8.39149e-32 0 0 -2.08833e-36 0 0 -1.69222e-15 -1.25344e-34 0
          -5.25756e-09 -5.2284e-13 0 -1.05034e-06 -5.87799e-07 0 -7.79558e-08 -4.61709e-10 0 -1.83221e-12 -1.51403e-15 0
          -6.01443e-05 -4.23167e-05 0 -9.88246e-05 -1.10953e-05 0 -3.29436e-05 -2.93112e-05 0 -5.3805e-06 -9.68651e-06 0
          -7.09026e-05 -4.52364e-06 0 -3.13053e-05 -1.58397e-05 0 -3.36488e-05 -7.23678e-05 0 -6.11715e-05 -8.17512e-05 0
          3.0828e-05 -1.58553e-05 0 7.02602e-05 -4.42484e-06 0 6.1702e-05 -8.03905e-05 0 3.32703e-05 -7.2199e-05 0
          9.85743e-05 -1.10626e-05 0 6.03143e-05 -4.33037e-05 0 5.75443e-06 -1.02889e-05 0 3.39882e-05 -4.2565e-05 0
          1.05094e-06 -5.95969e-07 0 6.87556e-09 -4.80673e-13 0 4.28129e-12 -1.08409e-15 0 7.96984e-08 -7.94464e-10 0
          2.49529e-15 -5.19608e-35 0 7.4447e-37 0 0 0 0 0 0 0 0
          -2.80893e-19 0 0 -6.5913e-10 -3.99613e-16 0 -3.20324e-07 -1.82179e-05 0 -1.25062e-08 -2.2907e-09 0
          -3.85538e-12 -2.60828e-19 0 -1.44419e-06 -7.98024e-05 0 -1.06176e-06 -0.000103515 0 -6.09161e-07 -7.9427e-05 0
          -6.53269e-07 -3.4905e-06 0 1.27124e-06 -0.000103563 0 1.53135e-06 -7.89905e-05 0 6.92726e-07 -4.11331e-06 0
          7.09729e-07 -7.96614e-05 0 3.23705e-07 -3.15063e-05 0 8.35752e-10 -3.57743e-15 0 6.23513e-12 -4.73871e-19 0
          1.46083e-08 -4.57932e-09 0 2.008e-18 0 0 0 0 0 0 0 0
          0 0 0 0 0 0 -3.15249e-22 0 0 -7.43192e-13 -1.84082e-19 0
          -5.35304e-09 -3.94333e-10 0 -2.22544e-09 -4.71868e-11 0 -9.9198e-14 -8.45923e-20 0 -7.65351e-07 -1.37616e-06 0
          -7.27136e-07 -6.60977e-05 0 -7.90289e-07 -6.79045e-05 0 -8.25638e-07 -4.60421e-07 0 8.38276e-07 -6.61118e-05 0
          8.11729e-07 -1.63317e-06 0 8.76892e-07 -5.44682e-07 0 9.0742e-07 -6.79165e-05 0 6.31732e-09 -7.78001e-10 0
          1.28511e-12 -2.70971e-19 0 1.68477e-13 -1.15851e-19 0 2.59588e-09 -9.02682e-11 0 4.59177e-22 0 0
          0 0 0 0 0 0
        </DataArray>
        <DataArray type="Float32" Name="wetting saturation" NumberOfComponents="1" format="ascii">
          1 1 1 1 1 1 1 1 1 1 1 1
          1 1 0.999999 1 1 1 1 1 1 1 1 1
          0.990391 1 1 1 1 1 1 1 1 1 1 1
          1 1 1 1 1 1 1 1 1 0.999847 0.881369 0.93198
          0.490123 0.995346 0.999887 0.162714 0.185897 0.54284 0.693584 0.189761 0.148621 0.909273 0.627242 0.683246
          0.98965 0.999827 0.999754 1 1 1 1 1 1 1 1 1
          1 1 1 1 1 0.781712 0.844674 0.864855 0.745362 0.999589 0.999853 0.999851
          0.999661 0.92667 0.641022 0.635997 0.923947 0.777864 0.988801 0.99078 0.798418 1 1 0.99969
          0.997295 0.99969 0.99969 0.753253 0.204668 0.990798 0.99985 0.10355 0.155272 0.570043 0.673479 0.160795
          0.14976 0.669504 0.464144 0.72837 0.988828 0.99978 0.982175 0.999747 0.921278 0.629641 0.621991 0.929095
          0.810871 0.9922 0.994215 0.826598 1 1 1 1 0.995489 0.832876 0.872855 0.998001
          0.615576 1 1 0.611937 1 1 1 1 1 1 1 1
          1 0.611386 0.609307 1 0.848356 0.996514 0.998109 0.873343 1 1 1 1
          0.999074 0.904481 0.991527 0.999868 0.610157 0.116789 0.245537 0.798965 0.122243 0.121383 0.164093 0.154006
          0.121404 0.122293 0.154193 0.163836 0.117707 0.607677 0.794479 0.229023 0.903811 0.999098 0.999882 0.98983
          1 1 1 1 1 0.999924 0.936974 0.98604 0.999994 0.693169 0.505722 0.620617
          0.862184 0.504386 0.688646 0.854565 0.620704 0.928146 0.999844 0.999992 0.982454 1 1 1
          1 1 1 0.999995 0.991945 0.995856 0.999995 0.889036 0.611232 0.609716 0.911709 0.611162
          0.882487 0.906677 0.609685 0.98989 0.999994 0.999994 0.994858 1 1 1
        </DataArray>
        <DataArray type="Float32" Name="nonwetting saturation" NumberOfComponents="1" format="ascii">
          5.80647e-14 3.14193e-14 2.62013e-14 2.08722e-14 4.79616e-14 2.9643e-14 -2.44249e-15 2.83107e-14 3.17524e-14 4.996e-14 -9.57012e-14 -2.09832e-13
          -2.01172e-13 -1.47882e-13 1.28351e-06 5.31797e-14 7.31637e-14 -2.81997e-14 -2.49356e-13 -4.4742e-13 3.63043e-14 3.55271e-15 -1.2701e-13 1.13913e-08
          0.00960934 8.10463e-15 8.10463e-15 8.10463e-15 8.10463e-15 1.80411e-13 1.80411e-13 1.80411e-13 1.80411e-13 0 0 0
          0 1.56541e-14 1.56541e-14 1.56541e-14 1.56541e-14 -1.03029e-13 -9.57012e-14 -6.9722e-14 1.54654e-13 0.000153288 0.118631 0.0680201
          0.509877 0.00465358 0.000112921 0.837286 0.814103 0.45716 0.306416 0.810239 0.851379 0.0907274 0.372758 0.316754
          0.0103497 0.000172567 0.00024594 8.15081e-09 6.29901e-09 8.88178e-15 8.88178e-15 8.88178e-15 8.88178e-15 0 0 0
          0 1.53565e-11 1.53565e-11 1.53565e-11 1.53565e-11 0.218288 0.155326 0.135145 0.254639 0.000410984 0.000147075 0.000149231
          0.000338692 0.0733299 0.358978 0.364002 0.0760534 0.222136 0.0111995 0.00922034 0.201582 1.05751e-07 -7.55618e-13 0.000309979
          0.00270536 0.000309979 0.000309979 0.246747 0.795332 0.00920236 0.000150317 0.89645 0.844728 0.429957 0.326521 0.839205
          0.85024 0.330496 0.535856 0.27163 0.0111724 0.000219589 0.017825 0.000253126 0.0787222 0.370359 0.378009 0.0709047
          0.189129 0.00779971 0.00578514 0.173402 2.79754e-08 -7.16316e-13 2.35367e-14 3.85669e-09 0.00451075 0.167124 0.127145 0.00199898
          0.384424 1.11022e-16 1.11022e-16 0.388063 0 0 0 0 0 0 0 0
          1.11022e-16 0.388614 0.390693 1.11022e-16 0.151644 0.00348588 0.00189142 0.126657 1.9759e-09 -7.14762e-13 -7.32747e-15 5.77228e-11
          0.00092636 0.0955185 0.00847339 0.000132097 0.389843 0.883211 0.754463 0.201035 0.877757 0.878617 0.835907 0.845994
          0.878596 0.877707 0.845807 0.836164 0.882293 0.392323 0.205521 0.770977 0.0961891 0.000901807 0.00011824 0.0101701
          4.29822e-11 -4.82281e-13 -1.672e-13 -1.45661e-13 1.44329e-15 7.55442e-05 0.0630257 0.0139604 6.25823e-06 0.306831 0.494278 0.379383
          0.137816 0.495614 0.311354 0.145435 0.379296 0.071854 0.000156476 7.85375e-06 0.0175459 6.28386e-14 -1.90958e-13 -3.8991e-13
          4.90719e-14 3.09752e-14 2.68674e-14 5.32553e-06 0.00805535 0.00414415 5.04389e-06 0.110964 0.388768 0.390284 0.0882913 0.388838
          0.117513 0.0933234 0.390315 0.0101098 6.17591e-06 5.60153e-06 0.00514178 2.93099e-14 2.76446e-14 5.58442e-14
        </DataArray>
      </CellData>
      <Points>
        <DataArray type="Float32" Name="Coordinates" NumberOfComponents="3" format="ascii">
          0 0 0 2 0 0 0 1 0 2 1 0
          4 0 0 4 1 0 6 0 0 6 1 0
          8 0 0 8 1 0 10 0 0 10 1 0
          12 0 0 12 1 0 14 0 0 14 1 0
          16 0 0 16 1 0 18 0 0 18 1 0
          20 0 0 20 1 0 0 2 0 2 2 0
          4 2 0 6 2 0 8 2 0 10 2 0
          12 2 0 14 2 0 16 2 0 18 2 0
          20 2 0 0 3 0 2 3 0 4 3 0
          6 3 0 8 3 0 10 3 0 11 2 0
          10 2.5 0 11 2.5 0 12 2.5 0 11 3 0
          12 3 0 13 2 0 13 2.5 0 14 2.5 0
          13 3 0 14 3 0 15 2 0 15 2.5 0
          16 2.5 0 15 3 0 16 3 0 17 2 0
          17 2.5 0 18 2.5 0 17 3 0 18 3 0
          20 3 0 0 4 0 2 4 0 4 4 0
          6 4 0 8 4 0 10 4 0 10 3.5 0
          11 3.5 0 12 3.5 0 11 4 0 12 4 0
          13 3.5 0 14 3.5 0 13 4 0 14 4 0
          15 3.5 0 16 3.5 0 15 4 0 16 4 0
          17 3.5 0 18 3.5 0 17 4 0 18 4 0
          20 4 0 0 5 0 2 5 0 3 4 0
          2 4.5 0 3 4.5 0 4 4.5 0 3 5 0
          4 5 0 5 4 0 5 4.5 0 6 4.5 0
          5 5 0 6 5 0 7 4 0 7 4.5 0
          8 4.5 0 7 5 0 8 5 0 9 4 0
          9 4.5 0 10 4.5 0 9 5 0 10 5 0
          11 4.5 0 12 4.5 0 11 5 0 12 5 0
          13 4.5 0 14 4.5 0 13 5 0 14 5 0
          15 4.5 0 16 4.5 0 15 5 0 16 5 0
          18 5 0 20 5 0 1 5 0 0 5.5 0
          1 5.5 0 2 5.5 0 1 6 0 2 6 0
          0 6 0 3 5.5 0 4 5.5 0 3 6 0
          4 6 0 5 5.5 0 6 5.5 0 5 6 0
          6 6 0 7 5.5 0 8 5.5 0 7 6 0
          8 6 0 9 5.5 0 10 5.5 0 9 6 0
          10 6 0 12 6 0 12 5.5 0 13 5.5 0
          14 5.5 0 13 6 0 14 6 0 15 5.5 0
          16 5.5 0 15 6 0 16 6 0 18 6 0
          20 6 0 0 7 0 2 7 0 4 7 0
          4 6.5 0 5 6.5 0 6 6.5 0 5 7 0
          6 7 0 7 6.5 0 8 6.5 0 7 7 0
          8 7 0 9 6.5 0 10 6.5 0 9 7 0
          10 7 0 11 6 0 11 6.5 0 12 6.5 0
          11 7 0 12 7 0 13 6.5 0 14 6.5 0
          13 7 0 14 7 0 15 6.5 0 16 6.5 0
          15 7 0 16 7 0 18 7 0 20 7 0
          0 8 0 2 8 0 4 8 0 4 7.5 0
          5 7.5 0 6 7.5 0 5 8 0 6 8 0
          7 7.5 0 8 7.5 0 7 8 0 8 8 0
          9 7.5 0 10 7.5 0 9 8 0 10 8 0
          11 7.5 0 12 7.5 0 11 8 0 12 8 0
          13 7.5 0 14 7.5 0 13 8 0 14 8 0
          15 7.5 0 16 7.5 0 15 8 0 16 8 0
          18 8 0 20 8 0 0 9 0 2 9 0
          4 9 0 6 9 0 6 8.5 0 7 8.5 0
          8 8.5 0 7 9 0 8 9 0 9 8.5 0
          10 8.5 0 9 9 0 10 9 0 11 8.5 0
          12 8.5 0 11 9 0 12 9 0 13 8.5 0
          14 8.5 0 13 9 0 14 9 0 16 9 0
          18 9 0 20 9 0 0 10 0 2 10 0
          4 10 0 6 10 0 6 9.5 0 7 9.5 0
          8 9.5 0 7 10 0 8 10 0 9 9.5 0
          10 9.5 0 9 10 0 10 10 0 11 9.5 0
          12 9.5 0 11 10 0 12 10 0 13 9.5 0
          14 9.5 0 13 10 0 14 10 0 16 10 0
          18 10 0 20 10 0
        </DataArray>
      </Points>
      <Cells>
        <DataArray type="Int32" Name="connectivity" NumberOfComponents="1" format="ascii">
          0 1 3 2 1 4 5 3 4 6 7 5
          6 8 9 7 8 10 11 9 10 12 13 11
          12 14 15 13 14 16 17 15 16 18 19 17
          18 20 21 19 2 3 23 22 3 5 24 23
          5 7 25 24 7 9 26 25 9 11 27 26
          11 13 28 27 13 15 29 28 15 17 30 29
          17 19 31 30 19 21 32 31 22 23 34 33
          23 24 35 34 24 25 36 35 25 26 37 36
          26 27 38 37 27 39 41 40 39 28 42 41
          41 42 44 43 40 41 43 38 28 45 46 42
          45 29 47 46 46 47 49 48 42 46 48 44
          29 50 51 47 50 30 52 51 51 52 54 53
          47 51 53 49 30 55 56 52 55 31 57 56
          56 57 59 58 52 56 58 54 31 32 60 59
          33 34 62 61 34 35 63 62 35 36 64 63
          36 37 65 64 37 38 66 65 38 43 68 67
          43 44 69 68 68 69 71 70 67 68 70 66
          44 48 72 69 48 49 73 72 72 73 75 74
          69 72 74 71 49 53 76 73 53 54 77 76
          76 77 79 78 73 76 78 75 54 58 80 77
          58 59 81 80 80 81 83 82 77 80 82 79
          59 60 84 83 61 62 86 85 62 87 89 88
          87 63 90 89 89 90 92 91 88 89 91 86
          63 93 94 90 93 64 95 94 94 95 97 96