<?xml version="1.0"?>
<VTKFile type="UnstructuredGrid" version="0.1" byte_order="LittleEndian">
  <UnstructuredGrid>
    <Piece NumberOfCells="1600" NumberOfPoints="1681">
      <PointData Scalars="p">
        <DataArray type="Float32" Name="p" NumberOfComponents="1" format="ascii">
          0.000130201 0.0245025 0.000132862 0.0245052 0.0476278 0.0476302 0.000132576 0.0245052 0.0476302 0.0695101 0.0695097 0.0901446
          0.0901414 0.10953 0.109524 0.0695084 0.0901384 0.109519 0.000125276 0.0245007 0.000115774 0.024494 0.047627 0.047622
          0.000105796 0.0244864 0.0476163 0.0695052 0.0901345 0.0695009 0.0901302 0.109514 0.10951 0.0694961 0.0901258 0.109505
          0.127664 0.127656 0.144546 0.144537 0.12765 0.14453 0.160177 0.160167 0.174556 0.174545 0.187682 0.187671
          0.160158 0.174536 0.187662 0.127644 0.127639 0.144523 0.144517 0.127634 0.144513 0.160151 0.174528 0.160145
          0.174522 0.187654 0.187648 0.16014 0.174517 0.187642 9.6608e-05 0.0244792 0.0476107 8.89393e-05 0.024473 0.0476058
          0.0694915 0.0901216 0.109501 0.0694874 0.090118 0.109498 8.32282e-05 0.0244682 7.97081e-05 0.0244652 0.0476019 0.0475995
          7.84731e-05 0.0244641 0.0475987 0.0694842 0.0901153 0.0694822 0.0901135 0.109495 0.109494 0.0694814 0.0901129 0.109493
          0.12763 0.144508 0.127627 0.144505 0.160136 0.174512 0.187638 0.160133 0.174509 0.187635 0.127624 0.127623
          0.144503 0.144501 0.127622 0.1445 0.16013 0.174507 0.160129 0.174505 0.187633 0.187631 0.160128 0.174504
          0.18763 0.199556 0.199545 0.210178 0.210168 0.199536 0.210159 0.219547 0.219538 0.227665 0.227657 0.234531
          0.234524 0.21953 0.227649 0.234518 0.199528 0.199522 0.210151 0.210145 0.199517 0.21014 0.219523 0.227643
          0.219517 0.227638 0.234513 0.234508 0.219513 0.227635 0.234505 0.240146 0.24014 0.244509 0.244505 0.240135
          0.244501 0.247621 0.247618 0.249483 0.249482 0.250094 0.250094 0.247616 0.249481 0.250095 0.240131 0.240127
          0.244498 0.244496 0.240125 0.244494 0.247615 0.249481 0.247613 0.249481 0.250096 0.250097 0.247613 0.249481
          0.250099 0.199513 0.210137 0.19951 0.210134 0.21951 0.227632 0.234503 0.219507 0.227629 0.234501 0.199508
          0.199506 0.210132 0.21013 0.199505 0.21013 0.219505 0.227628 0.219504 0.227627 0.2345 0.2345 0.219504
          0.227627 0.2345 0.240123 0.244493 0.240122 0.244493 0.247613 0.249482 0.2501 0.247613 0.249483 0.250102
          0.240122 0.240122 0.244493 0.244493 0.240122 0.244494 0.247613 0.249484 0.247614 0.249485 0.250104 0.250106
          0.247615 0.249487 0.250108 7.95178e-05 0.024465 0.0475994 8.27661e-05 0.0244677 0.0476018 0.0694821 0.0901134 0.109493
          0.0694841 0.0901151 0.109495 8.80898e-05 0.0244723 9.53226e-05 0.0244785 0.0476057 0.0476111 0.000104271 0.0244863 0.0476178
          0.0694875 0.090118 0.0694921 0.090122 0.109497 0.109501 0.0694979 0.090127 0.109505 0.127623 0.144501 0.127624
          0.144502 0.160128 0.174504 0.18763 0.160129 0.174505 0.187631 0.127626 0.127629 0.144503 0.144506 0.127633
          0.144509 0.16013 0.174506 0.160132 0.174508 0.187632 0.187634 0.160135 0.174511 0.187636 0.00011472 0.0244954
          0.0476256 0.000126441 0.0245057 0.0476345 0.0695047 0.0901329 0.10951 0.0695124 0.0901396 0.109516 0.000139196 0.0245169
          0.000152738 0.0245288 0.0476442 0.0476546 0.000166821 0.0245412 0.0476654 0.0695209 0.090147 0.0695299 0.0901548 0.109523
          0.109529 0.0695393 0.090163 0.109537 0.127637 0.144513 0.127642 0.144518 0.160139 0.174514 0.187639 0.160143
          0.174517 0.187642 0.127648 0.127654 0.144523 0.144528 0.12766 0.144533 0.160147 0.174521 0.160152 0.174525
          0.187645 0.187649 0.160156 0.174529 0.187652 0.199505 0.21013 0.199506 0.21013 0.219504 0.227627 0.2345
          0.219504 0.227628 0.234501 0.199507 0.199508 0.210131 0.210133 0.19951 0.210135 0.219505 0.227629 0.219507
          0.22763 0.234502 0.234503 0.219508 0.227632 0.234505 0.240123 0.244495 0.240124 0.244496 0.247617 0.249489
          0.25011 0.247618 0.24949 0.250112 0.240125 0.240126 0.244498 0.244499 0.240128 0.244501 0.24762 0.249492
          0.247622 0.249494 0.250115 0.250117 0.247624 0.249496 0.250119 0.199513 0.210137 0.199516 0.210139 0.219511
          0.227634 0.234507 0.219513 0.227636 0.234509 0.199519 0.199522 0.210142 0.210145 0.199525 0.210148 0.219515
          0.227639 0.219518 0.227641 0.234512 0.234514 0.219521 0.227644 0.234516 0.24013 0.244503 0.240132 0.244505
          0.247626 0.249499 0.250121 0.247628 0.249501 0.250123 0.240135 0.240137 0.244507 0.24451 0.240139 0.244512
          0.24763 0.249503 0.247632 0.249505 0.250126 0.250128 0.247635 0.249507 0.25013 0.249454 0.249457 0.247565
          0.247569 0.249459 0.247573 0.244426 0.244431 0.240037 0.240044 0.234399 0.234408 0.244437 0.240052 0.234417
          0.249462 0.249464 0.247577 0.247581 0.249467 0.247584 0.244442 0.240058 0.244447 0.240064 0.234425 0.234432
          0.244452 0.24007 0.234439 0.227511 0.227522 0.219375 0.219387 0.227532 0.219399 0.20999 0.210004 0.199357
          0.199372 0.187475 0.187491 0.210017 0.199386 0.187506 0.227542 0.22755 0.219409 0.219419 0.227558 0.219428
          0.210028 0.199398 0.210039 0.19941 0.187519 0.187531 0.210048 0.19942 0.187542 0.249469 0.247588 0.249472
          0.247591 0.244457 0.240076 0.234445 0.244461 0.240081 0.234451 0.249474 0.249477 0.247594 0.247598 0.249479
          0.247601 0.244465 0.240085 0.244468 0.240089 0.234456 0.234461 0.244472 0.240093 0.234465 0.227565 0.219436
          0.227571 0.219443 0.210057 0.199429 0.187552 0.210065 0.199437 0.187561 0.227577 0.227583 0.219449 0.219455
          0.227587 0.21946 0.210071 0.199445 0.210078 0.199451 0.187569 0.187575 0.210083 0.199457 0.187581 0.174345
          0.174361 0.159966 0.159983 0.174377 0.16 0.144339 0.144357 0.127463 0.127482 0.109337 0.109357 0.144374
          0.1275 0.109376 0.174392 0.174405 0.160015 0.160029 0.174416 0.160041 0.14439 0.127517 0.144405 0.127532
          0.109395 0.109412 0.144418 0.127546 0.109426 0.08996 0.089982 0.0693327 0.0693536 0.0900037 0.0693825 0.0474244
          0.0474783 0.0243162 0.0243151 -0.000529239 8.36267e-05 0.0475138 0.0244086 7.48836e-05 0.090025 0.0900436 0.0694081 0.0694287
          0.0900588 0.0694446 0.0475466 0.024445 0.047569 0.0244654 0.000109273 0.000121865 0.0475843 0.0244785 0.000129181 0.174427
          0.160052 0.174436 0.160062 0.144429 0.127558 0.109438 0.144439 0.127568 0.109448 0.174444 0.174451 0.16007
          0.160077 0.174457 0.160083 0.144447 0.127576 0.144454 0.127582 0.109456 0.109462 0.14446 0.127588 0.109467
          0.0900709 0.0694563 0.0900804 0.069465 0.0475949 0.0244864 0.000132506 0.047602 0.0244912 0.000133483 0.0900877 0.0900931
          0.0694712 0.0694756 0.0900972 0.0694786 0.0476067 0.0244937 0.0476096 0.0244946 0.000132904 0.000131287 0.0476111 0.0244945
          0.000128969 0.249482 0.247603 0.249484 0.247606 0.244475 0.240097 0.234469 0.244478 0.2401 0.234473 0.249487
          0.249489 0.247609 0.247612 0.249492 0.247614 0.244481 0.240104 0.244484 0.240107 0.234476 0.23448 0.244487
          0.24011 0.234482 0.227592 0.219465 0.227596 0.219469 0.210088 0.199462 0.187586 0.210092 0.199466 0.187591
          0.227599 0.227603 0.219472 0.219476 0.227606 0.219479 0.210096 0.19947 0.210099 0.199473 0.187595 0.187598
          0.210103 0.199476 0.187601 0.249494 0.247617 0.249496 0.247619 0.244489 0.240112 0.234485 0.244492 0.240115
          0.234488 0.249499 0.249501 0.247621 0.247624 0.249503 0.247626 0.244494 0.240117 0.244496 0.240119 0.23449
          0.234492 0.244499 0.240122 0.234495 0.227608 0.219482 0.227611 0.219484 0.210105 0.199479 0.187603 0.210108
          0.199481 0.187605 0.227613 0.227616 0.219487 0.219489 0.227618 0.219491 0.21011 0.199484 0.210112 0.199486
          0.187607 0.187609 0.210114 0.199487 0.187611 0.174462 0.160088 0.174466 0.160092 0.144464 0.127592 0.109471
          0.144468 0.127595 0.109473 0.17447 0.174473 0.160095 0.160098 0.174475 0.1601 0.144471 0.127598 0.144474
          0.1276 0.109475 0.109477 0.144476 0.127602 0.109478 0.0901001 0.0694804 0.090102 0.0694814 0.0476117 0.0244935
          0.000126176 0.0476115 0.024492 0.000123069 0.0901033 0.090104 0.0694818 0.0694816 0.0901042 0.0694811 0.0476108 0.0244901
          0.0476096 0.0244879 0.000119762 0.000116339 0.0476082 0.0244855 0.000112865 0.174478 0.160102 0.17448 0.160104 0.144477
          0.127603 0.109478 0.144479 0.127603 0.109479 0.174481 0.174483 0.160105 0.160107 0.174484 0.160108 0.14448
          0.127604 0.144481 0.127605 0.109479 0.109479 0.144481 0.127605 0.109479 0.0901041 0.0694803 0.0901038 0.0694793
          0.0476066 0.024483 0.000109389 0.0476048 0.0244804 0.000105953 0.0901034 0.0901028 0.0694782 0.069477 0.0901022 0.0694758
          0.047603 0.0244778 0.0476012 0.0244753 0.00010259 9.93302e-05 0.0475994 0.0244729 9.62028e-05 0.000181194 0.0245539 0.0476764
          0.00019561 0.0245666 0.0476875 0.0695489 0.0901714 0.109544 0.0695585 0.0901797 0.109551 0.000209825 0.0245791 0.000223604
          0.0245912 0.0476983 0.0477089 0.000236716 0.0246027 0.0477188 0.069568 0.090188 0.0695772 0.0901959 0.109558 0.109565
          0.0695858 0.0902034 0.109572 0.127666 0.144539 0.127673 0.144544 0.160161 0.174534 0.187656 0.160166 0.174538
          0.18766 0.127679 0.127685 0.14455 0.144555 0.12769 0.14456 0.160171 0.174542 0.160175 0.174546 0.187664
          0.187667 0.160179 0.17455 0.18767 0.000248947 0.0246134 0.0477281 0.000260095 0.0246231 0.0477364 0.0695938 0.0902103
          0.109577 0.0696009 0.0902164 0.109583 0.00026998 0.0246317 0.000278447 0.0246389 0.0477437 0.0477499 0.000285378 0.0246447
          0.0477547 0.0696071 0.0902216 0.0696123 0.0902258 0.109587 0.109591 0.0696162 0.090229 0.109593 0.127695 0.144564
          0.1277 0.144568 0.160183 0.174553 0.187673 0.160186 0.174556 0.187675 0.127704 0.127706 0.144571 0.144573
          0.127708 0.144574 0.160189 0.174558 0.160191 0.174559 0.187677 0.187679 0.160192 0.17456 0.187679 0.199529
          0.210151 0.199532 0.210154 0.219524 0.227646 0.234519 0.219526 0.227649 0.234521 0.199535 0.199538 0.210157
          0.21016 0.199541 0.210162 0.219529 0.227651 0.219532 0.227654 0.234524 0.234526 0.219534 0.227656 0.234528
          0.240142 0.244514 0.240144 0.244516 0.247637 0.24951 0.250132 0.247639 0.249512 0.250135 0.240146 0.240148
          0.244519 0.244521 0.24015 0.244523 0.247641 0.249514 0.247643 0.249516 0.250137 0.250139 0.247645 0.249518
          0.250141 0.199544 0.210165 0.199546 0.210167 0.219536 0.227658 0.23453 0.219538 0.22766 0.234531 0.199547
          0.199549 0.210168 0.210169 0.199549 0.21017 0.219539 0.227661 0.21954 0.227662 0.234533 0.234534 0.219541
          0.227663 0.234535 0.240152 0.244524 0.240154 0.244526 0.247647 0.24952 0.250143 0.247649 0.249522 0.250144
          0.240155 0.240156 0.244528 0.244529 0.240157 0.24453 0.24765 0.249523 0.247652 0.249525 0.250146 0.250148
          0.247653 0.249526 0.25015 0.000290706 0.0246491 0.0477582 0.000294439 0.024652 0.0477603 0.0696189 0.0902308 0.109594
          0.0696202 0.0902314 0.109594 0.000296691 0.0246535 0.000297822 0.0246538 0.0477611 0.0477607 0.000298308 0.0246537 0.0477591
          0.0696201 0.0902305 0.0696185 0.090228 0.109593 0.109589 0.0696154 0.0902236 0.109584 0.127709 0.144575 0.127708
          0.144574 0.160192 0.17456 0.187679 0.160191 0.174559 0.187678 0.127706 0.127703 0.144571 0.144568 0.127697
          0.144562 0.160188 0.174556 0.160185 0.174553 0.187676 0.187673 0.160179 0.174548 0.187668 0.000300462 0.0246534
          0.0477566 0.000303347 0.0246566 0.0477528 0.0696103 0.0902167 0.109576 0.0696022 0.0902065 0.109566 0.000334714 0.0246576
          0.000328195 0.0246915 0.0477462 0.0477261 0.000749212 0.0245561 0.0476843 0.0695885 0.0901912 0.0695651 0.0901697 0.109551
          0.109532 0.0695258 0.0901383 0.109506 0.127689 0.144555 0.127679 0.144545 0.160173 0.174542 0.187663 0.160164
          0.174535 0.187657 0.127665 0.127649 0.144533 0.144519 0.127628 0.144502 0.160154 0.174526 0.160142 0.174516
          0.187649 0.187641 0.160127 0.174504 0.187631 0.199549 0.210169 0.199548 0.210169 0.219541 0.227663 0.234535
          0.21954 0.227662 0.234535 0.199546 0.199543 0.210167 0.210165 0.19954 0.210162 0.219539 0.227662 0.219537
          0.22766 0.234535 0.234534 0.219535 0.227659 0.234533 0.240158 0.244531 0.240158 0.244531 0.247654 0.249528
          0.250151 0.247655 0.249529 0.250153 0.240158 0.240158 0.244532 0.244532 0.240157 0.244532 0.247656 0.24953
          0.247656 0.249531 0.250154 0.250155 0.247657 0.249532 0.250157 0.199535 0.210158 0.19953 0.210154 0.219532
          0.227656 0.234531 0.219529 0.227654 0.234529 0.199524 0.199517 0.210149 0.210143 0.199509 0.210137 0.219525
          0.227651 0.21952 0.227647 0.234527 0.234525 0.219516 0.227644 0.234523 0.240156 0.244532 0.240155 0.244531
          0.247657 0.249533 0.250158 0.247657 0.249533 0.25016 0.240154 0.240152 0.244531 0.24453 0.240151 0.244529
          0.247657 0.249534 0.247658 0.249535 0.250161 0.250163 0.247658 0.249536 0.250164 0.249505 0.247628 0.249507
          0.24763 0.244501 0.240124 0.234497 0.244503 0.240126 0.234499 0.249509 0.249512 0.247632 0.247634 0.249514
          0.247636 0.244505 0.240128 0.244507 0.24013 0.234501 0.234503 0.244509 0.240132 0.234505 0.22762 0.219493
          0.227622 0.219495 0.210116 0.199489 0.187612 0.210118 0.199491 0.187614 0.227624 0.227626 0.219497 0.219499
          0.227628 0.219501 0.21012 0.199493 0.210122 0.199494 0.187616 0.187617 0.210124 0.199496 0.187619 0.249516
          0.247638 0.249517 0.24764 0.244511 0.240134 0.234507 0.244514 0.240137 0.234509 0.249519 0.249521 0.247642
          0.247644 0.249523 0.247646 0.244516 0.240139 0.244518 0.240141 0.234512 0.234514 0.24452 0.240143 0.234517
          0.22763 0.219503 0.227632 0.219505 0.210126 0.199498 0.187621 0.210128 0.1995 0.187623 0.227635 0.227637
          0.219508 0.21951 0.22764 0.219513 0.21013 0.199503 0.210133 0.199505 0.187625 0.187627 0.210135 0.199508
          0.18763 0.174486 0.160109 0.174487 0.16011 0.144482 0.127605 0.109478 0.144483 0.127606 0.109478 0.174488
          0.17449 0.160111 0.160112 0.174491 0.160114 0.144484 0.127606 0.144485 0.127607 0.109479 0.109479 0.144486
          0.127608 0.109479 0.0901016 0.0694747 0.0901011 0.0694737 0.0475977 0.0244705 9.32349e-05 0.0475961 0.0244684 9.04543e-05
          0.0901008 0.0901006 0.0694728 0.0694722 0.0901006 0.0694718 0.0475947 0.0244664 0.0475935 0.0244647 8.78901e-05 8.55737e-05
          0.0475926 0.0244632 8.35392e-05 0.174493 0.160115 0.174495 0.160117 0.144487 0.127609 0.10948 0.144488 0.12761
          0.109481 0.174497 0.174499 0.160119 0.160121 0.174502 0.160124 0.14449 0.127611 0.144492 0.127613 0.109482
          0.109484 0.144495 0.127616 0.109486 0.0901009 0.0694716 0.0901015 0.0694718 0.047592 0.0244621 8.18246e-05 0.0475917
          0.0244613 8.04723e-05 0.0901025 0.0901038 0.0694724 0.0694734 0.0901057 0.069475 0.0475919 0.024461 0.0475925 0.0244612
          7.95302e-05 7.90521e-05 0.0475936 0.0244619 7.9099e-05 0.249525 0.247648 0.249527 0.247651 0.244522 0.240146 0.234519
          0.244524 0.240148 0.234522 0.249528 0.24953 0.247653 0.247655 0.249532 0.247657 0.244527 0.240151 0.244529
          0.240154 0.234525 0.234528 0.244532 0.240157 0.234531 0.227642 0.219516 0.227645 0.219519 0.210138 0.199511
          0.187633 0.210142 0.199514 0.187637 0.227649 0.227652 0.219522 0.219526 0.227656 0.21953 0.210145 0.199518
          0.210149 0.199522 0.187641 0.187645 0.210153 0.199527 0.18765 0.249534 0.247659 0.249536 0.247662 0.244535
          0.24016 0.234535 0.244538 0.240163 0.234539 0.249538 0.24954 0.247664 0.247667 0.249542 0.24767 0.244541
          0.240167 0.244544 0.240171 0.234543 0.234547 0.244548 0.240175 0.234552 0.22766 0.219534 0.227664 0.219539
          0.210158 0.199532 0.187655 0.210163 0.199537 0.18766 0.227668 0.227673 0.219544 0.219549 0.227679 0.219555
          0.210169 0.199543 0.210174 0.199549 0.187667 0.187674 0.210181 0.199556 0.187681 0.174505 0.160127 0.174509
          0.16013 0.144498 0.127618 0.109489 0.144501 0.127622 0.109492 0.174513 0.174517 0.160134 0.160139 0.174522
          0.160144 0.144505 0.127626 0.14451 0.12763 0.109496 0.1095 0.144515 0.127635 0.109505 0.0901081 0.069477
          0.0901111 0.0694798 0.0475954 0.0244632 7.97402e-05 0.0475977 0.0244652 8.10541e-05 0.0901147 0.0901191 0.0694832 0.0694874
          0.0901242 0.0694924 0.0476008 0.0244679 0.0476048 0.0244716 8.31299e-05 8.607e-05 0.0476096 0.0244762 8.99912e-05 0.174527
          0.160149 0.174533 0.160156 0.144521 0.127641 0.109511 0.144527 0.127648 0.109518 0.17454 0.174547 0.160163
          0.16017 0.174556 0.160179 0.144535 0.127656 0.144542 0.127664 0.109526 0.109534 0.144552 0.127674 0.109545
          0.0901302 0.0694983 0.0901371 0.0695052 0.0476154 0.0244819 9.50378e-05 0.0476222 0.0244888 0.000101351 0.090145 0.0901535
          0.0695132 0.0695217 0.0901654 0.0695341 0.0476302 0.0244971 0.047638 0.0245051 0.000109292 0.000118187 0.0476512 0.0245181
          0.00012931
        </DataArray>
        <DataArray type="Float32" Name="rho" NumberOfComponents="1" format="ascii">
          1 1 1 1 1 1 1 1 1 1 1 1
          1 1 1 1 1 1 1 1 1 1 1 1
          1 1 1 1 1 1 1 1 1 1 1 1
          1 1 1 1 1 1 1 1 1 1 1 1
          1 1 1 1 1 1 1 1 1 1 1 1
          1 1 1 1 1 1 1 1 1 1 1 1
          1 1 1 1 1 1 1 1 1 1 1 1
          1 1 1 1 1 1 1 1 1 1 1 1
          1 1 1 1 1 1 1 1 1 1 1 1
          1 1 1 1 1 1 1 1 1 1 1 1
          1 1 1 1 1 1 1 1 1 1 1 1
          1 1 1 1 1 1 1 1 1 1 1 1
          1 1 1 1 1 1 1 1 1 1 1 1
          1 1 1 1 1 1 1 1 1 1 1 1
          1 1 1 1 1 1 1 1 1 1 1 1
          1 1 1 1 1 1 1 1 1 1 1 1
          1 1 1 1 1 1 1 1 1 1 1 1
          1 1 1 1 1 1 1 1 1 1 1 1
          1 1 1 1 1 1 1 1 1 1 1 1
          1 1 1 1 1 1 1 1 1 1 1 1
          1 1 1 1 1 1 1 1 1 1 1 1
          1 1 1 1 1 1 1 1 1 1 1 1
          1 1 1 1 1 1 1 1 1 1 1 1
          1 1 1 1 1 1 1 1 1 1 1 1
          1 1 1 1 1 1 1 1 1 1 1 1
          1 1 1 1 1 1 1 1 1 1 1 1
          1 1 1 1 1 1 1 1 1 1 1 1
          1 1 1 1 1 1 1 1 1 1 1 1
          1 1 1 1 1 1 1 1 1 1 1 1
          1 1 1 1 1 1 1 1 1 1 1 1
          1 1 1 1 1 1 1 1 1 1 1 1
          1 1 1 1 1 1 1 1 1 1 1 1
          1 1 1 1 1 1 1 1 1 1 1 1
          1 1 1 1 1 1 1 1 1 1 1 1
          1 1 1 1 1 1 1 1 1 1 1 1
          1 1 1 1 1 1 1 1 1 1 1 1
          1 1 1 1 1 1 1 1 1 1 1 1
          1 1 1 1 1 1 1 1 1 1 1 1
          1 1 1 1 1 1 1 1 1 1 1 1
          1 1 1 1 1 1 1 1 1 1 1 1
          1 1 1 1 1 1 1 1 1 1 1 1
          1 1 1 1 1 1 1 1 1 1 1 1
          1 1 1 1 1 1 1 1 1 1 1 1
          1 1 1 1 1 1 1 1 1 1 1 1
          1 1 1 1 1 1 1 1 1 1 1 1
          1 1 1 1 1 1 1 1 1 1 1 1
          1 1 1 1 1 1 1 1 1 1 1 1
          1 1 1 1 1 1 1 1 1 1 1 1
          1 1 1 1 1 1 1 1 1 1 1 1
          1 1 1 1 1 1 1 1 1 1 1 1
          1 1 1 1 1 1 1 1 1 1 1 1
          1 1 1 1 1 1 1 1 1 1 1 1
          1 1 1 1 1 1 1 1 1 1 1 1
          1 1 1 1 1 1 1 1 1 1 1 1
          1 1 1 1 1 1 1 1 1 1 1 1
          1 1 1 1 1 1 1 1 1 1 1 1
          1 1 1 1 1 1 1 1 1 1 1 1
          1 1 1 1 1 1 1 1 1 1 1 1
          1 1 1 1 1 1 1 1 1 1 1 1
          1 1 1 1 1 1 1 1 1 1 1 1
          1 1 1 1 1 1 1 1 1 1 1 1
          1 1 1 1 1 1 1 1 1 1 1 1
          1 1 1 1 1 1 1 1 1 1 1 1
          1 1 1 1 1 1 1 1 1 1 1 1
          1 1 1 1 1 1 1 1 1 1 1 1
          1 1 1 1 1 1 1 1 1 1 1 1
          1 1 1 1 1 1 1 1 1 1 1 1
          1 1 1 1 1 1 1 1 1 1 1 1
          1 1 1 1 1 1 1 1 1 1 1 1
          1 1 1 1 1 1 1 1 1 1 1 1
          1 1 1 1 1 1 1 1 1 1 1 1
          1 1 1 1 1 1 1 1 1 1 1 1
          1 1 1 1 1 1 1 1 1 1 1 1
          1 1 1 1 1 1 1 1 1 1 1 1
          1 1 1 1 1 1 1 1 1 1 1 1
          1 1 1 1 1 1 1 1 1 1 1 1
          1 1 1 1 1 1 1 1 1 1 1 1
          1 1 1 1 1 1 1 1 1 1 1 1
          1 1 1 1 1 1 1 1 1 1 1 1
          1 1 1 1 1 1 1 1 1 1 1 1
          1 1 1 1 1 1 1 1 1 1 1 1
          1 1 1 1 1 1 1 1 1 1 1 1
          1 1 1 1 1 1 1 1 1 1 1 1
          1 1 1 1 1 1 1 1 1 1 1 1
          1 1 1 1 1 1 1 1 1 1 1 1
          1 1 1 1 1 1 1 1 1 1 1 1
          1 1 1 1 1 1 1 1 1 1 1 1
          1 1 1 1 1 1 1 1 1 1 1 1
          1 1 1 1 1 1 1 1 1 1 1 1
          1 1 1 1 1 1 1 1 1 1 1 1
          1 1 1 1 1 1 1 1 1 1 1 1
          1 1 1 1 1 1 1 1 1 1 1 1
          1 1 1 1 1 1 1 1 1 1 1 1
          1 1 1 1 1 1 1 1 1 1 1 1
          1 1 1 1 1 1 1 1 1 1 1 1
          1 1 1 1 1 1 1 1 1 1 1 1
          1 1 1 1 1 1 1 1 1 1 1 1
          1 1 1 1 1 1 1 1 1 1 1 1
          1 1 1 1 1 1 1 1 1 1 1 1
          1 1 1 1 1 1 1 1 1 1 1 1
          1 1 1 1 1 1 1 1 1 1 1 1
          1 1 1 1 1 1 1 1 1 1 1 1
          1 1 1 1 1 1 1 1 1 1 1 1
          1 1 1 1 1 1 1 1 1 1 1 1
          1 1 1 1 1 1 1 1 1 1 1 1
          1 1 1 1 1 1 1 1 1 1 1 1
          1 1 1 1 1 1 1 1 1 1 1 1
          1 1 1 1 1 1 1 1 1 1 1 1
          1 1 1 1 1 1 1 1 1 1 1 1
          1 1 1 1 1 1 1 1 1 1 1 1
          1 1 1 1 1 1 1 1 1 1 1 1
          1 1 1 1 1 1 1 1 1 1 1 1
          1 1 1 1 1 1 1 1 1 1 1 1
          1 1 1 1 1 1 1 1 1 1 1 1
          1 1 1 1 1 1 1 1 1 1 1 1
          1 1 1 1 1 1 1 1 1 1 1 1
          1 1 1 1 1 1 1 1 1 1 1 1
          1 1 1 1 1 1 1 1 1 1 1 1
          1 1 1 1 1 1 1 1 1 1 1 1
          1 1 1 1 1 1 1 1 1 1 1 1
          1 1 1 1 1 1 1 1 1 1 1 1
          1 1 1 1 1 1 1 1 1 1 1 1
          1 1 1 1 1 1 1 1 1 1 1 1
          1 1 1 1 1 1 1 1 1 1 1 1
          1 1 1 1 1 1 1 1 1 1 1 1
          1 1 1 1 1 1 1 1 1 1 1 1
          1 1 1 1 1 1 1 1 1 1 1 1
          1 1 1 1 1 1 1 1 1 1 1 1
          1 1 1 1 1 1 1 1 1 1 1 1
          1 1 1 1 1 1 1 1 1 1 1 1
          1 1 1 1 1 1 1 1 1 1 1 1
          1 1 1 1 1 1 1 1 1 1 1 1
          1 1 1 1 1 1 1 1 1 1 1 1
          1 1 1 1 1 1 1 1 1 1 1 1
          1 1 1 1 1 1 1 1 1 1 1 1
          1 1 1 1 1 1 1 1 1 1 1 1
          1 1 1 1 1 1 1 1 1 1 1 1
          1 1 1 1 1 1 1 1 1 1 1 1
          1 1 1 1 1 1 1 1 1 1 1 1
          1 1 1 1 1 1 1 1 1 1 1 1
          1
        </DataArray>
        <DataArray type="Float32" Name="pressureExact" NumberOfComponents="1" format="ascii">
          0 0.024375 0 0.024375 0.0475 0.0475 0 0.024375 0.0475 0.069375 0.069375 0.09
          0.09 0.109375 0.109375 0.069375 0.09 0.109375 0 0.024375 0 0.024375 0.0475 0.0475
          0 0.024375 0.0475 0.069375 0.09 0.069375 0.09 0.109375 0.109375 0.069375 0.09 0.109375
          0.1275 0.1275 0.144375 0.144375 0.1275 0.144375 0.16 0.16 0.174375 0.174375 0.1875 0.1875
          0.16 0.174375 0.1875 0.1275 0.1275 0.144375 0.144375 0.1275 0.144375 0.16 0.174375 0.16
          0.174375 0.1875 0.1875 0.16 0.174375 0.1875 0 0.024375 0.0475 0 0.024375 0.0475
          0.069375 0.09 0.109375 0.069375 0.09 0.109375 0 0.024375 0 0.024375 0.0475 0.0475
          0 0.024375 0.0475 0.069375 0.09 0.069375 0.09 0.109375 0.109375 0.069375 0.09 0.109375
          0.1275 0.144375 0.1275 0.144375 0.16 0.174375 0.1875 0.16 0.174375 0.1875 0.1275 0.1275
          0.144375 0.144375 0.1275 0.144375 0.16 0.174375 0.16 0.174375 0.1875 0.1875 0.16 0.174375
          0.1875 0.199375 0.199375 0.21 0.21 0.199375 0.21 0.219375 0.219375 0.2275 0.2275 0.234375
          0.234375 0.219375 0.2275 0.234375 0.199375 0.199375 0.21 0.21 0.199375 0.21 0.219375 0.2275
          0.219375 0.2275 0.234375 0.234375 0.219375 0.2275 0.234375 0.24 0.24 0.244375 0.244375 0.24
          0.244375 0.2475 0.2475 0.249375 0.249375 0.25 0.25 0.2475 0.249375 0.25 0.24 0.24
          0.244375 0.244375 0.24 0.244375 0.2475 0.249375 0.2475 0.249375 0.25 0.25 0.2475 0.249375
          0.25 0.199375 0.21 0.199375 0.21 0.219375 0.2275 0.234375 0.219375 0.2275 0.234375 0.199375
          0.199375 0.21 0.21 0.199375 0.21 0.219375 0.2275 0.219375 0.2275 0.234375 0.234375 0.219375
          0.2275 0.234375 0.24 0.244375 0.24 0.244375 0.2475 0.249375 0.25 0.2475 0.249375 0.25
          0.24 0.24 0.244375 0.244375 0.24 0.244375 0.2475 0.249375 0.2475 0.249375 0.25 0.25
          0.2475 0.249375 0.25 0 0.024375 0.0475 0 0.024375 0.0475 0.069375 0.09 0.109375
          0.069375 0.09 0.109375 0 0.024375 0 0.024375 0.0475 0.0475 0 0.024375 0.0475
          0.069375 0.09 0.069375 0.09 0.109375 0.109375 0.069375 0.09 0.109375 0.1275 0.144375 0.1275
          0.144375 0.16 0.174375 0.1875 0.16 0.174375 0.1875 0.1275 0.1275 0.144375 0.144375 0.1275
          0.144375 0.16 0.174375 0.16 0.174375 0.1875 0.1875 0.16 0.174375 0.1875 0 0.024375
          0.0475 0 0.024375 0.0475 0.069375 0.09 0.109375 0.069375 0.09 0.109375 0 0.024375
          0 0.024375 0.0475 0.0475 0 0.024375 0.0475 0.069375 0.09 0.069375 0.09 0.109375
          0.109375 0.069375 0.09 0.109375 0.1275 0.144375 0.1275 0.144375 0.16 0.174375 0.1875 0.16
          0.174375 0.1875 0.1275 0.1275 0.144375 0.144375 0.1275 0.144375 0.16 0.174375 0.16 0.174375
          0.1875 0.1875 0.16 0.174375 0.1875 0.199375 0.21 0.199375 0.21 0.219375 0.2275 0.234375
          0.219375 0.2275 0.234375 0.199375 0.199375 0.21 0.21 0.199375 0.21 0.219375 0.2275 0.219375
          0.2275 0.234375 0.234375 0.219375 0.2275 0.234375 0.24 0.244375 0.24 0.244375 0.2475 0.249375
          0.25 0.2475 0.249375 0.25 0.24 0.24 0.244375 0.244375 0.24 0.244375 0.2475 0.249375
          0.2475 0.249375 0.25 0.25 0.2475 0.249375 0.25 0.199375 0.21 0.199375 0.21 0.219375
          0.2275 0.234375 0.219375 0.2275 0.234375 0.199375 0.199375 0.21 0.21 0.199375 0.21 0.219375
          0.2275 0.219375 0.2275 0.234375 0.234375 0.219375 0.2275 0.234375 0.24 0.244375 0.24 0.244375
          0.2475 0.249375 0.25 0.2475 0.249375 0.25 0.24 0.24 0.244375 0.244375 0.24 0.244375
          0.2475 0.249375 0.2475 0.249375 0.25 0.25 0.2475 0.249375 0.25 0.249375 0.249375 0.2475
          0.2475 0.249375 0.2475 0.244375 0.244375 0.24 0.24 0.234375 0.234375 0.244375 0.24 0.234375
          0.249375 0.249375 0.2475 0.2475 0.249375 0.2475 0.244375 0.24 0.244375 0.24 0.234375 0.234375
          0.244375 0.24 0.234375 0.2275 0.2275 0.219375 0.219375 0.2275 0.219375 0.21 0.21 0.199375
          0.199375 0.1875 0.1875 0.21 0.199375 0.1875 0.2275 0.2275 0.219375 0.219375 0.2275 0.219375
          0.21 0.199375 0.21 0.199375 0.1875 0.1875 0.21 0.199375 0.1875 0.249375 0.2475 0.249375
          0.2475 0.244375 0.24 0.234375 0.244375 0.24 0.234375 0.249375 0.249375 0.2475 0.2475 0.249375
          0.2475 0.244375 0.24 0.244375 0.24 0.234375 0.234375 0.244375 0.24 0.234375 0.2275 0.219375
          0.2275 0.219375 0.21 0.199375 0.1875 0.21 0.199375 0.1875 0.2275 0.2275 0.219375 0.219375
          0.2275 0.219375 0.21 0.199375 0.21 0.199375 0.1875 0.1875 0.21 0.199375 0.1875 0.174375
          0.174375 0.16 0.16 0.174375 0.16 0.144375 0.144375 0.1275 0.1275 0.109375 0.109375 0.144375
          0.1275 0.109375 0.174375 0.174375 0.16 0.16 0.174375 0.16 0.144375 0.1275 0.144375 0.1275
          0.109375 0.109375 0.144375 0.1275 0.109375 0.09 0.09 0.069375 0.069375 0.09 0.069375 0.0475
          0.0475 0.024375 0.024375 0 0 0.0475 0.024375 0 0.09 0.09 0.069375 0.069375
          0.09 0.069375 0.0475 0.024375 0.0475 0.024375 0 0 0.0475 0.024375 0 0.174375
          0.16 0.174375 0.16 0.144375 0.1275 0.109375 0.144375 0.1275 0.109375 0.174375 0.174375 0.16
          0.16 0.174375 0.16 0.144375 0.1275 0.144375 0.1275 0.109375 0.109375 0.144375 0.1275 0.109375
          0.09 0.069375 0.09 0.069375 0.0475 0.024375 0 0.0475 0.024375 0 0.09 0.09
          0.069375 0.069375 0.09 0.069375 0.0475 0.024375 0.0475 0.024375 0 0 0.0475 0.024375
          0 0.249375 0.2475 0.249375 0.2475 0.244375 0.24 0.234375 0.244375 0.24 0.234375 0.249375
          0.249375 0.2475 0.2475 0.249375 0.2475 0.244375 0.24 0.244375 0.24 0.234375 0.234375 0.244375
          0.24 0.234375 0.2275 0.219375 0.2275 0.219375 0.21 0.199375 0.1875 0.21 0.199375 0.1875
          0.2275 0.2275 0.219375 0.219375 0.2275 0.219375 0.21 0.199375 0.21 0.199375 0.1875 0.1875
          0.21 0.199375 0.1875 0.249375 0.2475 0.249375 0.2475 0.244375 0.24 0.234375 0.244375 0.24
          0.234375 0.249375 0.249375 0.2475 0.2475 0.249375 0.2475 0.244375 0.24 0.244375 0.24 0.234375
          0.234375 0.244375 0.24 0.234375 0.2275 0.219375 0.2275 0.219375 0.21 0.199375 0.1875 0.21
          0.199375 0.1875 0.2275 0.2275 0.219375 0.219375 0.2275 0.219375 0.21 0.199375 0.21 0.199375
          0.1875 0.1875 0.21 0.199375 0.1875 0.174375 0.16 0.174375 0.16 0.144375 0.1275 0.109375
          0.144375 0.1275 0.109375 0.174375 0.174375 0.16 0.16 0.174375 0.16 0.144375 0.1275 0.144375
          0.1275 0.109375 0.109375 0.144375 0.1275 0.109375 0.09 0.069375 0.09 0.069375 0.0475 0.024375
          0 0.0475 0.024375 0 0.09 0.09 0.069375 0.069375 0.09 0.069375 0.0475 0.024375
          0.0475 0.024375 0 0 0.0475 0.024375 0 0.174375 0.16 0.174375 0.16 0.144375
          0.1275 0.109375 0.144375 0.1275 0.109375 0.174375 0.174375 0.16 0.16 0.174375 0.16 0.144375
          0.1275 0.144375 0.1275 0.109375 0.109375 0.144375 0.1275 0.109375 0.09 0.069375 0.09 0.069375
          0.0475 0.024375 0 0.0475 0.024375 0 0.09 0.09 0.069375 0.069375 0.09 0.069375
          0.0475 0.024375 0.0475 0.024375 0 0 0.0475 0.024375 0 0 0.024375 0.0475
          0 0.024375 0.0475 0.069375 0.09 0.109375 0.069375 0.09 0.109375 0 0.024375 0
          0.024375 0.0475 0.0475 0 0.024375 0.0475 0.069375 0.09 0.069375 0.09 0.109375 0.109375
          0.069375 0.09 0.109375 0.1275 0.144375 0.1275 0.144375 0.16 0.174375 0.1875 0.16 0.174375
          0.1875 0.1275 0.1275 0.144375 0.144375 0.1275 0.144375 0.16 0.174375 0.16 0.174375 0.1875
          0.1875 0.16 0.174375 0.1875 0 0.024375 0.0475 0 0.024375 0.0475 0.069375 0.09
          0.109375 0.069375 0.09 0.109375 0 0.024375 0 0.024375 0.0475 0.0475 0 0.024375
          0.0475 0.069375 0.09 0.069375 0.09 0.109375 0.109375 0.069375 0.09 0.109375 0.1275 0.144375
          0.1275 0.144375 0.16 0.174375 0.1875 0.16 0.174375 0.1875 0.1275 0.1275 0.144375 0.144375