<?xml version="1.0"?>
<VTKFile type="UnstructuredGrid" version="0.1" byte_order="LittleEndian">
  <UnstructuredGrid>
    <Piece NumberOfCells="1000" NumberOfPoints="1331">
      <CellData Scalars="wetting pressure">
        <DataArray type="Float32" Name="wetting pressure" NumberOfComponents="1" format="ascii">
          265530 270705 272245 271266 268260 263396 256619 247679 236055 220664 265535 270720
          272274 271316 268338 263509 256757 247817 236162 220704 265541 270741 272318 271391
          268456 263702 257007 248082 236376 220787 265546 270757 272351 271449 268529 263902
          257284 248429 236698 220914 265545 270755 272352 271458 268532 263854 257302 248722
          237096 221051 265535 270726 272302 271385 268457 263840 257223 248374 236660 220900
          265520 270678 272216 271258 268306 263546 256858 247956 236292 220757 265502 270622
          272117 271108 268094 263248 256505 247606 236020 220654 265487 270575 272034 270981
          267917 263021 256251 247366 235844 220589 265478 270549 271986 270910 267820 262901
          256120 247246 235758 220558 261982 264516 264928 263436 260235 255388 248836 240416
          229909 217132 261987 264535 264966 263502 260341 255543 249025 240600 230047 217183
          261996 264564 265024 263607 260512 255830 249404 240975 230345 217299 262002 264586
          265073 263694 260590 256134 249964 241525 230868 217517 262001 264587 265085 263750
          260824 256275 250077 241887 231705 217967 261991 264553 265022 263629 260517 256068
          249912 241476 230832 217504 261973 264497 264918 263470 260360 255671 249251 240844
          230257 217268 261952 264432 264799 263282 260082 255267 248757 240374 229896 217130
          261935 264378 264700 263129 259863 254981 248435 240075 229679 217050 261925 264347
          264645 263044 259746 254835 248277 239931 229577 217013 260233 260432 259475 257251
          253748 248933 242731 235058 225897 215410 260241 260458 259530 257350 253913 249168
          243010 235318 226084 215478 260253 260499 259618 257520 254227 249649 243623 235891
          226507 215637 260262 260534 259698 257683 254481 250183 244576 236907 227302 215950
          260263 260540 259727 257800 254963 250631 244839 237409 228535 216613 260250 260499
          259643 257615 254413 250119 244513 236870 227267 215936 260228 260426 259503 257374
          254071 249487 243463 235754 226412 215603 260202 260344 259346 257107 253628 248862
          242713 235066 225915 215418 260181 260276 259219 256901 253323 248465 242270 234666
          225632 215316 260169 260238 259149 256792 253168 248272 242062 234480 225503 215270
          259121 257477 255237 252244 248408 243630 237819 230928 223025 214328 259132 257513
          255312 252385 248648 243962 238198 231265 223257 214412 259148 257569 255437 252637
          249144 244688 239065 232018 223783 214602 259161 257619 255554 252891 249641 245569
          240451 233372 224751 214961 259163 257630 255597 253045 250203 246086 240742 233993
          226142 215643 259148 257580 255494 252819 249574 245505 240390 233336 224713 214946
          259120 257488 255309 252477 248980 244515 238894 231867 223676 214564 259088 257384
          255104 252110 248326 243615 237859 230977 223064 214343 259062 257298 254940 251838
          247911 243082 237279 230470 222717 214220 259047 257250 254851 251696 247709 242831
          237014 230238 222559 214164 258264 255083 251677 247941 243769 239028 233610 227476
          220712 213501 258277 255128 251773 248121 244074 239442 234066 227869 220977 213594
          258298 255200 251932 248444 244714 240349 235104 228736 221561 213799 258315 255264
          252082 248769 245372 241437 236705 230236 222592 214158 258318 255279 252136 248944
          245949 241963 237019 230935 224049 214746 258300 255221 252016 248691 245299 241367
          236638 230192 222548 214141 258267 255110 251790 248271 244548 240163 234914 228563
          221439 213755 258228 254982 251536 247810 243713 239047 233679 227539 220754 213516
          258195 254875 251332 247468 243191 238388 232980 226943 220356 213376 258177 254816
          251222 247291 242938 238080 232660 226669 220171 213311 257481 252869 248350 243894
          239394 234692 229660 224262 218582 212748 257497 252924 248466 244109 239754 235170
          230176 224696 218868 212847 257522 253011 248658 244490 240492 236196 231317 225627
          219478 213055 257543 253088 248835 244867 241237 237387 233010 227164 220500 213388
          257547 253107 248897 245055 241819 237917 233350 227946 221988 213834 257527 253040
          248762 244782 241150 237309 232933 227110 220448 213368 257487 252910 248502 244313
          240379 236003 231104 225431 219340 213005 257441 252757 248198 243760 239358 234725
          229733 224318 218614 212758 257401 252629 247952 243347 238727 233951 228931 223647
          218173 212605 257379 252558 247818 243133 238421 233585 228557 223331 217964 212532
          256634 250506 244846 239674 234864 230210 225561 220894 216320 211937 256653 250572
          244985 239930 235286 230762 226145 221377 216630 212043 256683 250677 245212 240374
          236120 231904 227386 222372 217258 212251 256708 250767 245417 240800 236931 233169
          229138 223920 218214 212546 256713 250790 245488 241002 237527 233712 229517 224832
          219534 212826 256690 250714 245336 240703 236817 233082 229051 223855 218153 212522
          256644 250563 245038 240182 236021 231697 227148 222150 217102 212195 256589 250383
          244681 239537 234842 230258 225641 220946 216340 211941 256542 250231 244389 239044
          234092 229352 224718 220186 215851 211774 256516 250146 244228 238786 233724 228914
          224278 219820 215613 211692 255540 247608 240715 234837 229756 225172 220896 216950
          213556 210891 255563 247689 240886 235155 230284 225860 221610 217528 213916 211011
          255599 247814 241159 235691 231277 227208 223045 218663 214605 211236 255629 247922
          241404 236189 232196 228589 224889 220264 215517 211517 255636 247951 241487 236419
          232840 229167 225317 221222 216350 211716 255609 247863 241313 236077 232052 228498
          224795 220190 215450 211492 255556 247688 240963 235460 231068 226985 222784 218418
          214432 211174 255492 247478 240545 234711 229779 225295 221044 217043 213590 210896
          255437 247298 240195 234116 228866 224180 219922 216136 213020 210704 255406 247197
          240002 233799 228409 223634 219379 215693 212738 210608 253812 243592 235398 228885
          223623 219139 215186 211878 209705 209220 253840 243690 235612 229305 224373 220125
          216189 212652 210163 209368 253882 243840 235949 229990 225656 221938 218113 214162
          211042 209647 253918 243969 236246 230607 226809 223549 220131 216036 212152 209986
          253926 244005 236351 230896 227626 224229 220667 217024 212991 210201 253896 243906
          236150 230494 226705 223456 220039 215958 212084 209959 253836 243704 235737 229736
          225428 221714 217845 213911 210860 209581 253763 243461 235243 228828 223850 219525
          215580 212125 209807 209243 253700 243251 234823 228079 222622 218010 214075 210954
          209100 209010 253664 243133 234591 227684 222024 217290 213368 210395 208754 208894
          250278 237453 228187 221261 215962 211593 207830 204899 203706 205731 250309 237565
          228444 221818 217179 213249 209449 205992 204298 205915 250356 237736 228845 222709
          219184 216053 212776 208469 205524 206277 250396 237883 229197 223495 220890 218074
          214784 211250 207341 206759 250406 237926 229324 223854 221957 219007 215598 212069
          208834 207135 250374 237818 229098 223382 220794 217982 214698 211178 207287 206734
          250308 237595 228627 222450 218944 215809 212529 208261 205347 206210 250229 237327
          228063 221348 216803 212704 208866 205453 203927 205783 250160 237094 227578 220405
          214901 210368 206619 203896 203053 205505 250120 236963 227313 219927 214115 209416
          205700 203207 202644 205372
        </DataArray>
        <DataArray type="Float32" Name="nonwetting pressure" NumberOfComponents="1" format="ascii">
          265530 270705 272245 271266 268260 263396 256619 247679 236055 220664 265535 270720
          272274 271316 268338 263509 256757 247817 236162 220704 265541 270741 272318 271391
          268456 263702 257007 248082 236376 220787 265546 270757 272351 271449 268542 263902
          257284 248429 236698 220914 265545 270755 272352 271458 268936 263996 257364 248751
          237096 221051 265535 270726 272302 271385 268473 263840 257223 248374 236660 220900
          265520 270678 272216 271258 268306 263546 256858 247956 236292 220757 265502 270622
          272117 271108 268094 263248 256505 247606 236020 220654 265487 270575 272034 270981
          267917 263021 256251 247366 235844 220589 265478 270549 271986 270910 267820 262901
          256120 247246 235758 220558 261982 264516 264928 263436 260235 255388 248836 240416
          229909 217132 261987 264535 264966 263502 260341 255543 249025 240600 230047 217183
          261996 264564 265024 263607 260512 255830 249404 240975 230345 217299 262002 264586
          265073 263694 260660 256176 249964 241525 230868 217517 262001 264587 265085 263750
          261509 256617 250262 241996 231761 217967 261991 264553 265022 263629 260593 256114
          249912 241476 230832 217504 261973 264497 264918 263470 260360 255671 249251 240844
          230257 217268 261952 264432 264799 263282 260082 255267 248757 240374 229896 217130
          261935 264378 264700 263129 259863 254981 248435 240075 229679 217050 261925 264347
          264645 263044 259746 254835 248277 239931 229577 217013 260233 260432 259475 257251
          253748 248933 242731 235058 225897 215410 260241 260458 259530 257350 253913 249168
          243010 235318 226084 215478 260253 260499 259618 257520 254227 249649 243623 235891
          226507 215637 260262 260534 259698 257683 254626 250297 244634 236907 227302 215950
          260263 260540 259727 257800 255766 251085 245117 237587 228630 216613 260250 260499
          259643 257615 254566 250239 244576 236870 227267 215936 260228 260426 259503 257374
          254071 249487 243463 235754 226412 215603 260202 260344 259346 257107 253628 248862
          242713 235066 225915 215418 260181 260276 259219 256901 253323 248465 242270 234666
          225632 215316 260169 260238 259149 256792 253168 248272 242062 234480 225503 215270
          259121 257477 255237 252244 248408 243630 237819 230928 223025 214328 259132 257513
          255312 252385 248648 243962 238198 231265 223257 214412 259148 257569 255437 252637
          249144 244688 239065 232018 223783 214602 259161 257619 255554 252891 249828 245726
          240540 233372 224751 214961 259163 257630 255597 253045 251036 246571 241049 234192
          226244 215643 259148 257580 255494 252819 249768 245668 240484 233336 224713 214946
          259120 257488 255309 252477 248980 244515 238894 231867 223676 214564 259088 257384
          255104 252110 248326 243615 237859 230977 223064 214343 259062 257298 254940 251838
          247911 243082 237279 230470 222717 214220 259047 257250 254851 251696 247709 242831
          237014 230238 222559 214164 258264 255083 251677 247941 243769 239028 233610 227476
          220712 213501 258277 255128 251773 248121 244074 239442 234066 227869 220977 213594
          258298 255200 251932 248444 244714 240349 235104 228736 221561 213799 258315 255264
          252082 248769 245570 241607 236802 230236 222592 214158 258318 255279 252136 248944
          246782 242452 237327 231130 224135 214746 258300 255221 252016 248691 245504 241544
          236741 230192 222548 214141 258267 255110 251790 248271 244548 240163 234914 228563
          221439 213755 258228 254982 251536 247810 243713 239047 233679 227539 220754 213516
          258195 254875 251332 247468 243191 238388 232980 226943 220356 213376 258177 254816
          251222 247291 242938 238080 232660 226669 220171 213311 257481 252869 248350 243894
          239394 234692 229660 224262 218582 212748 257497 252924 248466 244109 239754 235170
          230176 224696 218868 212847 257522 253011 248658 244490 240492 236196 231317 225627
          219478 213055 257543 253088 248835 244867 241431 237559 233106 227164 220500 213388
          257547 253107 248897 245055 242645 238403 233652 228126 222044 213834 257527 253040
          248762 244782 241352 237488 233035 227110 220448 213368 257487 252910 248502 244313
          240379 236003 231104 225431 219340 213005 257441 252757 248198 243760 239358 234725
          229733 224318 218614 212758 257401 252629 247952 243347 238727 233951 228931 223647
          218173 212605 257379 252558 247818 243133 238421 233585 228557 223331 217964 212532
          256634 250506 244846 239674 234864 230210 225561 220894 216320 211937 256653 250572
          244985 239930 235286 230762 226145 221377 216630 212043 256683 250677 245212 240374
          236120 231904 227386 222372 217258 212251 256708 250767 245417 240800 237120 233340
          229231 223920 218214 212546 256713 250790 245488 241002 238347 234195 229810 224989
          219542 212826 256690 250714 245336 240703 237016 233261 229150 223855 218153 212522
          256644 250563 245038 240182 236024 231697 227148 222150 217102 212195 256589 250383
          244681 239537 234842 230258 225641 220946 216340 211941 256542 250231 244389 239044
          234092 229352 224718 220186 215851 211774 256516 250146 244228 238786 233724 228914
          224278 219820 215613 211692 255540 247608 240715 234837 229756 225172 220896 216950
          213556 210891 255563 247689 240886 235155 230284 225860 221610 217528 213916 211011
          255599 247814 241159 235691 231277 227208 223045 218663 214605 211236 255629 247922
          241404 236189 232385 228761 224978 220264 215517 211517 255636 247951 241487 236419
          233663 229651 225604 221363 216350 211716 255609 247863 241313 236077 232254 228677
          224891 220190 215450 211492 255556 247688 240963 235460 231082 226985 222784 218418
          214432 211174 255492 247478 240545 234711 229779 225295 221044 217043 213590 210896
          255437 247298 240195 234116 228866 224180 219922 216136 213020 210704 255406 247197
          240002 233799 228409 223634 219379 215693 212738 210608 253812 243592 235398 228885
          223623 219139 215186 211878 209705 209220 253840 243690 235612 229305 224373 220125
          216189 212652 210163 209368 253882 243840 235949 229990 225678 221938 218113 214162
          211042 209647 253918 243969 236246 230607 227025 223735 220226 216036 212152 209986
          253926 244005 236351 230896 228490 224732 220961 217160 212991 210201 253896 243906
          236150 230494 226931 223650 220141 215958 212084 209959 253836 243704 235737 229736
          225457 221714 217845 213911 210860 209581 253763 243461 235243 228828 223850 219525
          215580 212125 209807 209243 253700 243251 234823 228079 222622 218010 214075 210954
          209100 209010 253664 243133 234591 227684 222024 217290 213368 210395 208754 208894
          250278 237453 228187 221261 215962 211593 207830 204899 203706 205731 250309 237565
          228444 221818 217179 213249 209449 205992 204298 205915 250356 237736 228845 222709
          219398 216287 212908 208469 205524 206277 250396 237883 229197 223495 221518 218632
          215168 211422 207341 206759 250406 237926 229324 223854 223361 219972 216266 212471
          208953 207135 250374 237818 229098 223382 221435 218551 215091 211356 207287 206734
          250308 237595 228627 222450 219175 216058 212676 208261 205347 206210 250229 237327
          228063 221348 216804 212704 208866 205453 203927 205783 250160 237094 227578 220405
          214901 210368 206619 203896 203053 205505 250120 236963 227313 219927 214115 209416
          205700 203207 202644 205372
        </DataArray>
        <DataArray type="Float32" Name="wetting saturation" NumberOfComponents="1" format="ascii">
          1 1 1 1 1 1 1 1 1 1 1 1
          1 1 1 1 1 1 1 1 1 1 1 1
          1 1 1 1 1 1 1 1 1 1 0.99867 1
          1 1 1 1 1 1 1 1 0.959571 0.985779 0.993856 0.997119
          1 1 1 1 1 1 0.998433 1 1 1 1 1
          1 1 1 1 1 1 1 1 1 1 1 1
          1 1 1 1 1 1 1 1 1 1 1 1
          1 1 1 1 1 1 1 1 1 1 1 1
          1 1 1 1 1 1 1 1 1 1 1 1
          1 1 1 1 1 1 1 1 1 1 1 1
          1 1 1 1 1 1 1 1 1 1 1 1
          1 1 0.993058 0.9958 1 1 1 1 1 1 1 1
          0.931512 0.965802 0.9815 0.989111 0.994468 1 1 1 1 1 0.992472 0.995407
          1 1 1 1 1 1 1 1 1 1 1 1
          1 1 1 1 1 1 1 1 1 1 1 1
          1 1 1 1 1 1 1 1 1 1 1 1
          1 1 1 1 1 1 1 1 1 1 1 1
          1 1 1 1 1 1 1 1 1 1 1 1
          1 1 1 1 1 1 1 1 1 1 1 1
          1 1 1 1 1 1 0.985511 0.988585 0.994193 1 1 1
          1 1 1 1 0.919723 0.954638 0.972168 0.982124 0.990489 1 1 1
          1 1 0.984773 0.98796 0.99375 1 1 1 1 1 1 1
          1 1 1 1 1 1 1 1 1 1 1 1
          1 1 1 1 1 1 1 1 1 1 1 1
          1 1 1 1 1 1 1 1 1 1 1 1
          1 1 1 1 1 1 1 1 1 1 1 1
          1 1 1 1 1 1 1 1 1 1 1 1
          1 1 1 1 1 1 1 1 1 1 0.981264 0.984304
          0.991173 1 1 1 1 1 1 1 0.916735 0.95151 0.969317 0.98006
          0.9898 1 1 1 1 1 0.980531 0.983666 0.990599 1 1 1
          1 1 1 1 1 1 1 1 1 1 1 1
          1 1 1 1 1 1 1 1 1 1 1 1
          1 1 1 1 1 1 1 1 1 1 1 1
          1 1 1 1 1 1 1 1 1 1 1 1
          1 1 1 1 1 1 1 1 1 1 1 1
          1 1 1 1 1 1 1 1 1 1 1 1
          1 1 0.980232 0.982924 0.990286 1 1 1 1 1 1 1
          0.916655 0.951154 0.96921 0.980478 0.991427 1 1 1 1 1 0.97949 0.98228
          0.989702 1 1 1 1 1 1 1 1 1 1 1
          1 1 1 1 1 1 1 1 1 1 1 1
          1 1 1 1 1 1 1 1 1 1 1 1
          1 1 1 1 1 1 1 1 1 1 1 1
          1 1 1 1 1 1 1 1 1 1 1 1
          1 1 1 1 1 1 1 1 1 1 1 1
          1 1 1 1 1 1 0.980543 0.982761 0.990387 1 1 1
          1 1 1 1 0.917323 0.951384 0.969865 0.981981 0.994432 1 1 1
          1 1 0.979722 0.982078 0.989762 1 1 1 1 1 1 1
          0.999955 1 1 1 1 1 1 1 1 1 1 1
          1 1 1 1 1 1 1 1 1 1 1 1
          1 1 1 1 1 1 1 1 1 1 1 1
          1 1 1 1 1 1 1 1 1 1 1 1
          1 1 1 1 1 1 1 1 1 1 1 1
          1 1 1 1 1 1 1 1 1 1 0.981073 0.982887
          0.990793 1 1 1 1 1 1 1 0.917954 0.951632 0.970645 0.984298
          0.999182 1 1 1 1 1 0.980116 0.982158 0.990121 1 1 1
          1 1 1 1 0.999674 1 1 1 1 1 1 1
          1 1 1 1 1 1 1 1 1 1 1 1
          1 1 1 1 1 1 1 1 1 1 1 1
          1 1 1 1 1 1 1 1 1 1 1 1
          1 1 1 1 1 1 1 1 1 1 1 1
          1 1 1 1 1 1 1 1 1 1 1 1
          1 1 0.981107 0.982829 0.991098 1 1 1 1 1 1 1
          0.917747 0.951645 0.971308 0.985857 1 1 1 1 1 1 0.979856 0.982064
          0.9904 1 1 1 1 1 1 1 0.998662 1 1 1
          1 1 1 1 1 1 1 1 1 1 1 1
          1 1 1 1 1 1 1 1 1 1 1 1
          1 1 1 1 1 1 1 1 1 1 1 1
          1 1 1 1 1 1 1 1 1 1 1 1
          1 1 1 1 1 1 1 1 0.997858 1 1 1
          1 1 1 1 1 1 0.978405 0.981418 0.990494 1 1 1
          1 1 1 1 0.913679 0.949745 0.97065 0.986423 1 1 1 1
          1 1 0.977386 0.980623 0.989818 1 1 1 1 1 1 1
          0.997108 1 1 1 1 1 1 1 1 1 1 1
          1 1 1 1 1 1 1 1 1 1 1 1
          1 1 1 1 1 1 1 1 1 1 1 1
          1 1 1 1 1 1 1 1 1 1 1 1
          1 1 1 1 1 1 1 1 1 1 1 1
          0.978607 0.976554 0.986737 1 1 1 1 1 1 1 0.937182 0.944173
          0.961592 0.982783 1 1 1 1 1 1 0.859639 0.903518 0.933241 0.959761
          0.988149 1 1 1 1 1 0.935828 0.943078 0.960698 0.982188 1 1
          1 1 1 1 0.976841 0.975051 0.985343 1 1 1 1 1
          1 1 0.999897 1 1 1 1 1 1 1 1 1
          1 1 1 1 1 1 1 1 1 1 1 1
          1 1 1 1
        </DataArray>
        <DataArray type="Float32" Name="C^w from cellData" NumberOfComponents="1" format="ascii">
          199.956 199.956 199.957 199.956 199.956 199.956 199.955 199.954 199.953 199.952 199.956 199.956
          199.957 199.956 199.956 199.956 199.955 199.954 199.953 199.952 199.956 199.956 199.957 199.956
          199.937 199.956 199.955 199.954 199.953 199.952 199.956 199.956 199.957 199.939 199.394 199.639
          199.913 199.95 199.953 199.952 199.956 199.956 199.957 199.838 191.917 196.939 198.453 198.929
          199.804 199.952 199.956 199.956 199.957 199.937 199.334 199.616 199.901 199.95 199.953 199.952
          199.956 199.956 199.957 199.956 199.925 199.956 199.955 199.954 199.953 199.952 199.956 199.956
          199.957 199.956 199.956 199.956 199.955 199.954 199.953 199.952 199.956 199.956 199.957 199.956
          199.956 199.956 199.955 199.954 199.953 199.952 199.956 199.956 199.957 199.956 199.956 199.956
          199.955 199.954 199.953 199.952 199.956 199.956 199.956 199.956 199.955 199.955 199.954 199.954
          199.953 199.952 199.956 199.956 199.956 199.956 199.955 199.955 199.954 199.954 199.953 199.952
          199.956 199.956 199.956 199.956 199.781 199.912 199.954 199.954 199.953 199.952 199.956 199.956
          199.956 199.934 198.356 198.656 199.448 199.87 199.941 199.952 199.956 199.956 199.956 199.772
          186.609 193.217 196.012 197.444 198.33 199.782 199.956 199.956 199.956 199.934 198.232 198.557
          199.421 199.862 199.941 199.952 199.956 199.956 199.956 199.956 199.752 199.895 199.954 199.954
          199.953 199.952 199.956 199.956 199.956 199.956 199.955 199.955 199.954 199.954 199.953 199.952
          199.956 199.956 199.956 199.956 199.955 199.955 199.954 199.954 199.953 199.952 199.956 199.956
          199.956 199.956 199.955 199.955 199.954 199.954 199.953 199.952 199.956 199.955 199.955 199.955
          199.955 199.954 199.954 199.953 199.952 199.951 199.956 199.955 199.955 199.955 199.955 199.954
          199.954 199.953 199.952 199.951 199.956 199.955 199.955 199.955 199.664 199.749 199.916 199.953
          199.952 199.951 199.956 199.955 199.955 199.934 196.796 197.379 198.266 199.476 199.897 199.951
          199.956 199.955 199.955 199.771 184.246 191.075 194.294 196.045 197.228 199.43 199.956 199.955
          199.955 199.934 196.63 197.25 198.149 199.424 199.895 199.951 199.956 199.955 199.955 199.955
          199.641 199.711 199.904 199.953 199.952 199.951 199.956 199.955 199.955 199.955 199.955 199.954
          199.954 199.953 199.952 199.951 199.956 199.955 199.955 199.955 199.955 199.954 199.954 199.953
          199.952 199.951 199.956 199.955 199.955 199.955 199.955 199.954 199.954 199.953 199.952 199.951
          199.955 199.955 199.955 199.955 199.954 199.954 199.953 199.953 199.952 199.951 199.955 199.955
          199.955 199.955 199.954 199.954 199.953 199.953 199.952 199.951 199.955 199.955 199.955 199.955
          199.591 199.624 199.857 199.953 199.952 199.951 199.955 199.955 199.955 199.933 195.882 196.477
          197.551 199.301 199.893 199.951 199.955 199.955 199.955 199.784 183.62 190.44 193.739 195.553
          197.143 199.533 199.955 199.955 199.955 199.933 195.712 196.335 197.402 199.256 199.891 199.951
          199.955 199.955 199.955 199.955 199.565 199.59 199.834 199.953 199.952 199.951 199.955 199.955
          199.955 199.955 199.954 199.954 199.953 199.953 199.952 199.951 199.955 199.955 199.955 199.955
          199.954 199.954 199.953 199.953 199.952 199.951 199.955 199.955 199.955 199.955 199.954 199.954
          199.953 199.953 199.952 199.951 199.955 199.955 199.955 199.954 199.954 199.953 199.953 199.952
          199.952 199.951 199.955 199.955 199.955 199.954 199.954 199.953 199.953 199.952 199.952 199.951
          199.955 199.955 199.955 199.954 199.557 199.573 199.832 199.952 199.952 199.951 199.955 199.955
          199.955 199.93 195.642 196.168 197.356 199.302 199.918 199.951 199.955 199.955 199.955 199.826
          183.584 190.351 193.699 195.598 197.634 199.744 199.955 199.955 199.955 199.929 195.469 196.02
          197.206 199.257 199.917 199.951 199.955 199.955 199.955 199.954 199.529 199.538 199.804 199.952
          199.952 199.951 199.955 199.955 199.955 199.954 199.954 199.953 199.953 199.952 199.952 199.951
          199.955 199.955 199.955 199.954 199.954 199.953 199.953 199.952 199.952 199.951 199.955 199.955
          199.955 199.954 199.954 199.953 199.953 199.952 199.952 199.951 199.955 199.955 199.954 199.954
          199.953 199.953 199.953 199.952 199.952 199.951 199.955 199.955 199.954 199.954 199.953 199.953
          199.953 199.952 199.952 199.951 199.955 199.955 199.954 199.954 199.547 199.556 199.833 199.952
          199.952 199.951 199.955 199.955 199.954 199.926 195.695 196.12 197.41 199.372 199.943 199.951
          199.955 199.955 199.954 199.9 183.721 190.39 193.808 195.808 198.318 199.903 199.955 199.955
          199.954 199.926 195.516 195.961 197.249 199.323 199.942 199.951 199.955 199.955 199.954 199.954
          199.498 199.519 199.803 199.952 199.952 199.951 199.955 199.955 199.954 199.954 199.953 199.953
          199.953 199.952 199.952 199.951 199.955 199.955 199.954 199.954 199.953 199.953 199.952 199.952
          199.951 199.951 199.955 199.955 199.954 199.954 199.953 199.953 199.952 199.952 199.951 199.951
          199.955 199.955 199.954 199.953 199.953 199.953 199.952 199.952 199.951 199.951 199.955 199.955
          199.954 199.953 199.953 199.953 199.952 199.952 199.951 199.951 199.955 199.955 199.954 199.954
          199.542 199.545 199.842 199.952 199.951 199.951 199.955 199.955 199.954 199.923 195.798 196.137
          197.538 199.46 199.951 199.951 199.955 199.955 199.954 199.897 183.878 190.45 193.945 196.021
          199.057 199.951 199.955 199.955 199.954 199.923 195.617 195.967 197.365 199.407 199.951 199.951
          199.955 199.955 199.954 199.952 199.46 199.506 199.81 199.952 199.951 199.951 199.955 199.955
          199.954 199.953 199.953 199.953 199.952 199.952 199.951 199.951 199.955 199.955 199.954 199.953
          199.953 199.952 199.952 199.952 199.951 199.951 199.955 199.955 199.954 199.953 199.953 199.952
          199.952 199.952 199.951 199.951 199.955 199.954 199.954 199.953 199.953 199.952 199.952 199.951
          199.951 199.951 199.955 199.954 199.954 199.953 199.953 199.952 199.952 199.951 199.951 199.951
          199.955 199.954 199.954 199.953 199.522 199.523 199.842 199.951 199.951 199.951 199.955 199.954
          199.954 199.92 195.795 196.112 197.635 199.532 199.951 199.951 199.955 199.954 199.954 199.898
          183.874 190.487 194.07 196.366 199.341 199.951 199.955 199.954 199.954 199.92 195.64 195.933
          197.457 199.481 199.951 199.951 199.955 199.954 199.954 199.952 199.335 199.475 199.809 199.951
          199.951 199.951 199.955 199.954 199.954 199.953 199.95 199.952 199.952 199.951 199.951 199.951
          199.955 199.954 199.954 199.953 199.952 199.952 199.952 199.951 199.951 199.951 199.955 199.954
          199.954 199.953 199.952 199.952 199.952 199.951 199.951 199.951 199.955 199.954 199.953 199.952
          199.952 199.952 199.951 199.951 199.951 199.951 199.955 199.954 199.953 199.952 199.941 199.952
          199.951 199.951 199.951 199.951 199.955 199.954 199.953 199.948 199.189 199.428 199.799 199.951
          199.951 199.951 199.955 199.954 199.953 199.921 195.409 195.791 197.502 199.515 199.951 199.951
          199.955 199.954 199.953 199.907 183.085 190.166 193.954 196.549 199.454 199.951 199.955 199.954
          199.953 199.921 195.247 195.604 197.333 199.471 199.951 199.951 199.955 199.954 199.953 199.945
          199.023 199.357 199.76 199.951 199.951 199.951 199.955 199.954 199.953 199.952 199.919 199.952
          199.951 199.951 199.951 199.951 199.955 199.954 199.953 199.952 199.952 199.951 199.951 199.951
          199.951 199.951 199.955 199.954 199.953 199.952 199.952 199.951 199.951 199.951 199.951 199.951
          199.955 199.953 199.952 199.952 199.951 199.951 199.95 199.95 199.95 199.95 199.955 199.953
          199.953 199.952 199.401 199.327 199.781 199.95 199.95 199.95 199.955 199.953 199.953 199.93
          195.14 194.638 196.659 199.468 199.95 199.95 199.955 199.954 199.953 199.928 187.327 188.698
          192.045 195.759 199.545 199.95 199.955 199.954 199.953 199.852 172.226 180.978 186.638 191.665
          197.121 199.9 199.955 199.953 199.953 199.929 187.074 188.492 191.874 195.608 199.514 199.95
          199.955 199.953 199.953 199.93 194.75 194.271 196.293 199.372 199.95 199.95 199.955 199.953
          199.952 199.952 199.29 199.232 199.71 199.95 199.95 199.95 199.955 199.953 199.952 199.952
          199.951 199.951 199.95 199.95 199.95 199.95 199.955 199.953 199.952 199.952 199.951 199.951
          199.95 199.95 199.95 199.95
        </DataArray>
        <DataArray type="Float32" Name="C^n from cellData" NumberOfComponents="1" format="ascii">
          0 0 0 2.09543e-15 1.0478e-10 7.11625e-12 2.7108e-13 5.91976e-15 2.24685e-17 0 0 0
          2.86714e-16 5.44572e-12 2.57906e-07 1.72293e-08 8.15484e-10 2.16638e-11 3.47181e-13 3.99998e-15 3.58683e-18 6.38406e-15 5.84429e-13 5.20422e-09
          0.000240651 1.56878e-05 9.84167e-07 3.75906e-08 6.90688e-10 8.99186e-12 1.97714e-13 9.8136e-12 7.34822e-10 2.71038e-06 0.0106878 0.00578477
          0.00061219 6.74291e-05 1.00618e-06 1.22699e-08 5.53491e-10 2.27754e-08 1.32751e-06 0.00121518 0.0360501 0.0186994 0.0132205 0.0108149
          0.00175512 1.47393e-05 3.78083e-13 2.01459e-11 1.5439e-09 3.76914e-06 0.0108374 0.00676466 0.000753381 7.91174e-05 1.13895e-06 1.39204e-08
          4.69643e-17 1.57494e-14 1.53291e-12 8.68897e-09 0.000373519 2.30343e-05 1.4218e-06 5.18157e-08 9.20848e-10 1.18272e-11 0 3.19024e-19
          1.0388e-15 1.23041e-11 5.62787e-07 3.39169e-08 1.51968e-09 3.82509e-11 5.88417e-13 6.89879e-15 0 0 0 8.85838e-15
          4.00899e-10 2.39022e-11 8.45344e-13 1.72898e-14 6.58433e-17 0 0 0 0 0 1.0997e-13 6.47486e-15