<?xml version="1.0"?>
<VTKFile type="UnstructuredGrid" version="0.1" byte_order="LittleEndian">
  <UnstructuredGrid>
    <Piece NumberOfCells="4602" NumberOfPoints="4760">
      <CellData Scalars="p">
        <DataArray type="Float32" Name="p" NumberOfComponents="1" format="ascii">
          1.00098 1.00293 1.00489 1.00684 1.0088 1.01076 1.01271 1.00098 1.00293 1.00489 1.00684 1.0088
          1.01076 1.01271 1.01467 1.01662 1.01858 1.02053 1.02249 1.02445 1.0264 1.02836 1.01467 1.01662
          1.01858 1.02053 1.02249 1.02445 1.0264 1.02836 1.00098 1.00293 1.00489 1.00684 1.00098 1.00293
          1.00489 1.00684 1.0088 1.01076 1.01271 1.0088 1.01076 1.01271 1.00098 1.00293 1.00489 1.00684
          1.0088 1.01076 1.01271 1.01467 1.01662 1.01858 1.02053 1.01467 1.01662 1.01858 1.02053 1.02249
          1.02445 1.0264 1.02836 1.02249 1.02445 1.0264 1.02836 1.01467 1.01662 1.01858 1.02053 1.02249
          1.02445 1.0264 1.02836 1.03031 1.03227 1.03422 1.03618 1.03814 1.04009 1.04205 1.03031 1.03227
          1.03422 1.03618 1.03814 1.04009 1.04205 1.044 1.04596 1.04791 1.04987 1.05183 1.05378 1.05574
          1.05769 1.044 1.04596 1.04791 1.04987 1.05183 1.05378 1.05574 1.05769 1.03031 1.03227 1.03422
          1.03031 1.03227 1.03422 1.03618 1.03814 1.04009 1.04205 1.03618 1.03814 1.04009 1.04205 1.03031
          1.03227 1.03422 1.03618 1.03814 1.04009 1.04205 1.044 1.04596 1.04791 1.04987 1.044 1.04596
          1.04791 1.04987 1.05183 1.05378 1.05574 1.05769 1.05183 1.05378 1.05574 1.05769 1.044 1.04596
          1.04791 1.04987 1.05183 1.05378 1.05574 1.05769 1.00098 1.00293 1.00489 1.00684 1.0088 1.01076
          1.01271 1.00098 1.00293 1.00489 1.00684 1.0088 1.01076 1.01271 1.01467 1.01662 1.01858 1.02053
          1.02249 1.02445 1.0264 1.02836 1.01467 1.01662 1.01858 1.02053 1.02249 1.02445 1.0264 1.02836
          1.00098 1.00293 1.00489 1.00684 1.00098 1.00293 1.00489 1.00684 1.0088 1.01076 1.01271 1.0088
          1.01076 1.01271 1.00098 1.00293 1.00489 1.00684 1.0088 1.01076 1.01271 1.01467 1.01662 1.01858
          1.02053 1.01467 1.01662 1.01858 1.02053 1.02249 1.02445 1.0264 1.02836 1.02249 1.02445 1.0264
          1.02836 1.01467 1.01662 1.01858 1.02053 1.02249 1.02445 1.0264 1.02836 1.03031 1.03227 1.03422
          1.03618 1.03814 1.04009 1.04205 1.03031 1.03227 1.03422 1.03618 1.03814 1.04009 1.04205 1.044
          1.04596 1.04791 1.04987 1.05183 1.05378 1.05574 1.05769 1.044 1.04596 1.04791 1.04987 1.05183
          1.05378 1.05574 1.05769 1.03031 1.03227 1.03422 1.03031 1.03227 1.03422 1.03618 1.03814 1.04009
          1.04205 1.03618 1.03814 1.04009 1.04205 1.03031 1.03227 1.03422 1.03618 1.03814 1.04009 1.04205
          1.044 1.04596 1.04791 1.04987 1.044 1.04596 1.04791 1.04987 1.05183 1.05378 1.05574 1.05769
          1.05183 1.05378 1.05574 1.05769 1.044 1.04596 1.04791 1.04987 1.05183 1.05378 1.05574 1.05769
          1.05965 1.0616 1.06356 1.06552 1.06747 1.06943 1.07138 1.05965 1.0616 1.06356 1.06552 1.06747
          1.06943 1.07138 1.07334 1.07529 1.07725 1.0792 1.08116 1.08312 1.08507 1.07334 1.07529 1.07725
          1.0792 1.08116 1.08312 1.08507 1.05965 1.0616 1.06356 1.05965 1.0616 1.06356 1.06552 1.06747
          1.06943 1.07138 1.06552 1.06747 1.06943 1.07138 1.05965 1.0616 1.06356 1.06552 1.06747 1.06943
          1.07138 1.07334 1.07529 1.07725 1.0792 1.07334 1.07529 1.07725 1.0792 1.08116 1.08312 1.08507
          1.08116 1.08312 1.08507 1.07334 1.07529 1.07725 1.0792 1.08116 1.08312 1.08507 1.08703 1.08898
          1.09094 1.09289 1.09485 1.09681 1.09876 1.10072 1.08703 1.08898 1.09094 1.09289 1.09485 1.09681
          1.09876 1.10072 1.10267 1.10463 1.10658 1.10854 1.1105 1.11245 1.11441 1.10267 1.10463 1.10658
          1.10854 1.1105 1.11245 1.11441 1.08703 1.08898 1.09094 1.09289 1.08703 1.08898 1.09094 1.09289
          1.09485 1.09681 1.09876 1.10072 1.09485 1.09681 1.09876 1.10072 1.08703 1.08898 1.09094 1.09289
          1.09485 1.09681 1.09876 1.10072 1.10267 1.10463 1.10658 1.10267 1.10463 1.10658 1.10854 1.1105
          1.11245 1.11441 1.10854 1.1105 1.11245 1.11441 1.10267 1.10463 1.10658 1.10854 1.1105 1.11245
          1.11441 1.05965 1.0616 1.06356 1.06552 1.06747 1.06943 1.07138 1.05965 1.0616 1.06356 1.06552
          1.06747 1.06943 1.07138 1.07334 1.07529 1.07725 1.0792 1.08116 1.08312 1.08507 1.07334 1.07529
          1.07725 1.0792 1.08116 1.08312 1.08507 1.05965 1.0616 1.06356 1.05965 1.0616 1.06356 1.06552
          1.06747 1.06943 1.07138 1.06552 1.06747 1.06943 1.07138 1.05965 1.0616 1.06356 1.06552 1.06747
          1.06943 1.07138 1.07334 1.07529 1.07725 1.0792 1.07334 1.07529 1.07725 1.0792 1.08116 1.08312
          1.08507 1.08116 1.08312 1.08507 1.07334 1.07529 1.07725 1.0792 1.08116 1.08312 1.08507 1.08703
          1.08898 1.09094 1.09289 1.09485 1.09681 1.09876 1.10072 1.08703 1.08898 1.09094 1.09289 1.09485
          1.09681 1.09876 1.10072 1.10267 1.10463 1.10658 1.10854 1.1105 1.11245 1.11441 1.10267 1.10463
          1.10658 1.10854 1.1105 1.11245 1.11441 1.08703 1.08898 1.09094 1.09289 1.08703 1.08898 1.09094
          1.09289 1.09485 1.09681 1.09876 1.10072 1.09485 1.09681 1.09876 1.10072 1.08703 1.08898 1.09094
          1.09289 1.09485 1.09681 1.09876 1.10072 1.10267 1.10463 1.10658 1.10267 1.10463 1.10658 1.10854
          1.1105 1.11245 1.11441 1.10854 1.1105 1.11245 1.11441 1.10267 1.10463 1.10658 1.10854 1.1105
          1.11245 1.11441 1.00098 1.00293 1.00489 1.00684 1.0088 1.01076 1.01271 1.00098 1.00293 1.00489
          1.00684 1.0088 1.01076 1.01271 1.01467 1.01662 1.01858 1.02053 1.02249 1.02445 1.0264 1.02836
          1.01467 1.01662 1.01858 1.02053 1.02249 1.02445 1.0264 1.02836 1.00098 1.00293 1.00489 1.00684
          1.0088 1.01076 1.01271 1.00098 1.00293 1.00489 1.00684 1.00098 1.00293 1.00489 1.00684 1.0088
          1.01076 1.01271 1.0088 1.01076 1.01271 1.01467 1.01662 1.01858 1.02053 1.02249 1.02445 1.0264
          1.02836 1.01467 1.01662 1.01858 1.02053 1.01467 1.01662 1.01858 1.02053 1.02249 1.02445 1.0264
          1.02836 1.02249 1.02445 1.0264 1.02836 1.03031 1.03227 1.03422 1.03618 1.03814 1.04009 1.04205
          1.03031 1.03227 1.03422 1.03618 1.03814 1.04009 1.04205 1.044 1.04596 1.04791 1.04987 1.05183
          1.05378 1.05574 1.05769 1.044 1.04596 1.04791 1.04987 1.05183 1.05378 1.05574 1.05769 1.03031
          1.03227 1.03422 1.03618 1.03814 1.04009 1.04205 1.03031 1.03227 1.03422 1.03031 1.03227 1.03422
          1.03618 1.03814 1.04009 1.04205 1.03618 1.03814 1.04009 1.04205 1.044 1.04596 1.04791 1.04987
          1.05183 1.05378 1.05574 1.05769 1.044 1.04596 1.04791 1.04987 1.044 1.04596 1.04791 1.04987
          1.05183 1.05378 1.05574 1.05769 1.05183 1.05378 1.05574 1.05769 1.00098 1.00293 1.00489 1.00684
          1.0088 1.01076 1.01271 1.00098 1.00293 1.00489 1.00684 1.0088 1.01076 1.01271 1.01467 1.01662
          1.01858 1.02053 1.02249 1.02445 1.0264 1.02836 1.01467 1.01662 1.01858 1.02053 1.02249 1.02445
          1.0264 1.02836 1.00098 1.00293 1.00489 1.00684 1.0088 1.01076 1.01271 1.00098 1.00293 1.00489
          1.00684 1.0088 1.01076 1.01271 1.01467 1.01662 1.01858 1.02053 1.02249 1.02445 1.0264 1.02836
          1.01467 1.01662 1.01858 1.02053 1.02249 1.02445 1.0264 1.02836 1.03031 1.03227 1.03422 1.03618
          1.03814 1.04009 1.04205 1.03031 1.03227 1.03422 1.03618 1.03814 1.04009 1.04205 1.044 1.04596
          1.04791 1.04987 1.05183 1.05378 1.05574 1.05769 1.044 1.04596 1.04791 1.04987 1.05183 1.05378
          1.05574 1.05769 1.03031 1.03227 1.03422 1.03618 1.03814 1.04009 1.04205 1.03031 1.03227 1.03422
          1.03618 1.03814 1.04009 1.04205 1.044 1.04596 1.04791 1.04987 1.05183 1.05378 1.05574 1.05769
          1.044 1.04596 1.04791 1.04987 1.05183 1.05378 1.05574 1.05769 1.05965 1.0616 1.06356 1.06552
          1.06747 1.06943 1.07138 1.05965 1.0616 1.06356 1.06552 1.06747 1.06943 1.07138 1.07334 1.07529
          1.07725 1.0792 1.08116 1.08312 1.08507 1.07334 1.07529 1.07725 1.0792 1.08116 1.08312 1.08507
          1.05965 1.0616 1.06356 1.06552 1.06747 1.06943 1.07138 1.05965 1.0616 1.06356 1.05965 1.0616
          1.06356 1.06552 1.06747 1.06943 1.07138 1.06552 1.06747 1.06943 1.07138 1.07334 1.07529 1.07725
          1.0792 1.08116 1.08312 1.08507 1.07334 1.07529 1.07725 1.0792 1.07334 1.07529 1.07725 1.0792
          1.08116 1.08312 1.08507 1.08116 1.08312 1.08507 1.08703 1.08898 1.09094 1.09289 1.09485 1.09681
          1.09876 1.10072 1.08703 1.08898 1.09094 1.09289 1.09485 1.09681 1.09876 1.10072 1.10267 1.10463
          1.10658 1.10854 1.1105 1.11245 1.11441 1.10267 1.10463 1.10658 1.10854 1.1105 1.11245 1.11441
          1.08703 1.08898 1.09094 1.09289 1.09485 1.09681 1.09876 1.10072 1.08703 1.08898 1.09094 1.09289
          1.08703 1.08898 1.09094 1.09289 1.09485 1.09681 1.09876 1.10072 1.09485 1.09681 1.09876 1.10072
          1.10267 1.10463 1.10658 1.10854 1.1105 1.11245 1.11441 1.10267 1.10463 1.10658 1.10267 1.10463
          1.10658 1.10854 1.1105 1.11245 1.11441 1.10854 1.1105 1.11245 1.11441 1.05965 1.0616 1.06356
          1.06552 1.06747 1.06943 1.07138 1.05965 1.0616 1.06356 1.06552 1.06747 1.06943 1.07138 1.07334
          1.07529 1.07725 1.0792 1.08116 1.08312 1.08507 1.07334 1.07529 1.07725 1.0792 1.08116 1.08312
          1.08507 1.05965 1.0616 1.06356 1.06552 1.06747 1.06943 1.07138 1.05965 1.0616 1.06356 1.06552
          1.06747 1.06943 1.07138 1.07138 1.07334 1.07529 1.07725 1.0792 1.08116 1.08312 1.08507 1.07334
          1.07529 1.07725 1.0792 1.07334 1.07529 1.07725 1.0792 1.08116 1.08312 1.08507 1.08116 1.08312
          1.08507 1.08703 1.08898 1.09094 1.09289 1.09485 1.09681 1.09876 1.10072 1.08703 1.08898 1.09094
          1.09289 1.09485 1.09681 1.09876 1.10072 1.10267 1.10463 1.10658 1.10854 1.1105 1.11245 1.11441
          1.10267 1.10463 1.10658 1.10854 1.1105 1.11245 1.11441 1.08703 1.08898 1.09094 1.09289 1.09485
          1.09681 1.09876 1.10072 1.08703 1.08898 1.09094 1.09289 1.08703 1.08898 1.09094 1.09289 1.09485
          1.09681 1.09876 1.10072 1.09485 1.09681 1.09876 1.10072 1.10267 1.10463 1.10658 1.10854 1.1105
          1.11245 1.11441 1.10267 1.10463 1.10658 1.10267 1.10463 1.10658 1.10854 1.1105 1.11245 1.11441
          1.10854 1.1105 1.11245 1.11441 1.88559 1.88755 1.8895 1.89146 1.89342 1.89537 1.89733 1.88559
          1.88755 1.8895 1.89146 1.89342 1.89537 1.89733 1.89928 1.90124 1.90319 1.90515 1.90711 1.90906
          1.91102 1.91297 1.89928 1.90124 1.90319 1.90515 1.90711 1.90906 1.91102 1.91297 1.88559 1.88755
          1.8895 1.89146 1.88559 1.88755 1.8895 1.89146 1.89342 1.89537 1.89733 1.89342 1.89537 1.89733
          1.88559 1.88755 1.8895 1.89146 1.89342 1.89537 1.89733 1.89928 1.90124 1.90319 1.90515 1.89928
          1.90124 1.90319 1.90515 1.90711 1.90906 1.91102 1.91297 1.90711 1.90906 1.91102 1.91297 1.89928
          1.90124 1.90319 1.90515 1.90711 1.90906 1.91102 1.91297 1.91493 1.91688 1.91884 1.9208 1.92275
          1.92471 1.92666 1.91493 1.91688 1.91884 1.9208 1.92275 1.92471 1.92666 1.92862 1.93057 1.93253
          1.93448 1.93644 1.9384 1.94035 1.94231 1.92862 1.93057 1.93253 1.93448 1.93644 1.9384 1.94035
          1.94231 1.91493 1.91688 1.91884 1.91493 1.91688 1.91884 1.9208 1.92275 1.92471 1.92666 1.9208
          1.92275 1.92471 1.92666 1.91493 1.91688 1.91884 1.9208 1.92275 1.92471 1.92666 1.92862 1.93057
          1.93253 1.93448 1.92862 1.93057 1.93253 1.93448 1.93644 1.9384 1.94035 1.94231 1.93644 1.9384
          1.94035 1.94231 1.92862 1.93057 1.93253 1.93448 1.93644 1.9384 1.94035 1.94231 1.88559 1.88755
          1.8895 1.89146 1.89342 1.89537 1.89733 1.88559 1.88755 1.8895 1.89146 1.89342 1.89537 1.89733
          1.89928 1.90124 1.90319 1.90515 1.90711 1.90906 1.91102 1.91297 1.89928 1.90124 1.90319 1.90515
          1.90711 1.90906 1.91102 1.91297 1.88559 1.88755 1.8895 1.89146 1.88559 1.88755 1.8895 1.89146
          1.89342 1.89537 1.89733 1.89342 1.89537 1.89733 1.88559 1.88755 1.8895 1.89146 1.89342 1.89537
          1.89733 1.89928 1.90124 1.90319 1.90515 1.89928 1.90124 1.90319 1.90515 1.90711 1.90906 1.91102
          1.91297 1.90711 1.90906 1.91102 1.91297 1.89928 1.90124 1.90319 1.90515 1.90711 1.90906 1.91102
          1.91297 1.91493 1.91688 1.91884 1.9208 1.92275 1.92471 1.92666 1.91493 1.91688 1.91884 1.9208
          1.92275 1.92471 1.92666 1.92862 1.93057 1.93253 1.93448 1.93644 1.9384 1.94035 1.94231 1.92862
          1.93057 1.93253 1.93448 1.93644 1.9384 1.94035 1.94231 1.91493 1.91688 1.91884 1.91493 1.91688
          1.91884 1.9208 1.92275 1.92471 1.92666 1.9208 1.92275 1.92471 1.92666 1.91493 1.91688 1.91884
          1.9208 1.92275 1.92471 1.92666 1.92862 1.93057 1.93253 1.93448 1.92862 1.93057 1.93253 1.93448
          1.93644 1.9384 1.94035 1.94231 1.93644 1.9384 1.94035 1.94231 1.92862 1.93057 1.93253 1.93448
          1.93644 1.9384 1.94035 1.94231 1.94426 1.94622 1.94817 1.95013 1.95209 1.95404 1.956 1.94426
          1.94622 1.94817 1.95013 1.95209 1.95404 1.956 1.95795 1.95991 1.96186 1.96382 1.96578 1.96773
          1.96969 1.95795 1.95991 1.96186 1.96382 1.96578 1.96773 1.96969 1.94426 1.94622 1.94817 1.94426
          1.94622 1.94817 1.95013 1.95209 1.95404 1.956 1.95013 1.95209 1.95404 1.956 1.94426 1.94622
          1.94817 1.95013 1.95209 1.95404 1.956 1.95795 1.95991 1.96186 1.96382 1.95795 1.95991 1.96186
          1.96382 1.96578 1.96773 1.96969 1.96578 1.96773 1.96969 1.95795 1.95991 1.96186 1.96382 1.96578
          1.96773 1.96969 1.97164 1.9736 1.97555 1.97751 1.97947 1.98142 1.98338 1.98533 1.97164 1.9736
          1.97555 1.97751 1.97947 1.98142 1.98338 1.98533 1.98729 1.98924 1.9912 1.99316 1.99511 1.99707
          1.99902 1.98729 1.98924 1.9912 1.99316 1.99511 1.99707 1.99902 1.97164 1.9736 1.97555 1.97751
          1.97164 1.9736 1.97555 1.97751 1.97947 1.98142 1.98338 1.98533 1.97947 1.98142 1.98338 1.98533
          1.97164 1.9736 1.97555 1.97751 1.97947 1.98142 1.98338 1.98533 1.98729 1.98924 1.9912 1.98729
          1.98924 1.9912 1.99316 1.99511 1.99707 1.99902 1.99316 1.99511 1.99707 1.99902 1.98729 1.98924
          1.9912 1.99316 1.99511 1.99707 1.99902 1.94426 1.94622 1.94817 1.95013 1.95209 1.95404 1.956
          1.94426 1.94622 1.94817 1.95013 1.95209 1.95404 1.956 1.95795 1.95991 1.96186 1.96382 1.96578
          1.96773 1.96969 1.95795 1.95991 1.96186 1.96382 1.96578 1.96773 1.96969 1.94426 1.94622 1.94817
          1.94426 1.94622 1.94817 1.95013 1.95209 1.95404 1.956 1.95013 1.95209 1.95404 1.956 1.94426
          1.94622 1.94817 1.95013 1.95209 1.95404 1.956 1.95795 1.95991 1.96186 1.96382 1.95795 1.95991
          1.96186 1.96382 1.96578 1.96773 1.96969 1.96578 1.96773 1.96969 1.95795 1.95991 1.96186 1.96382
          1.96578 1.96773 1.96969 1.97164 1.9736 1.97555 1.97751 1.97947 1.98142 1.98338 1.98533 1.97164
          1.9736 1.97555 1.97751 1.97947 1.98142 1.98338 1.98533 1.98729 1.98924 1.9912 1.99316 1.99511
          1.99707 1.99902 1.98729 1.98924 1.9912 1.99316 1.99511 1.99707 1.99902 1.97164 1.9736 1.97555
          1.97751 1.97164 1.9736 1.97555 1.97751 1.97947 1.98142 1.98338 1.98533 1.97947 1.98142 1.98338
          1.98533 1.97164 1.9736 1.97555 1.97751 1.97947 1.98142 1.98338 1.98533 1.98729 1.98924 1.9912
          1.98729 1.98924 1.9912 1.99316 1.99511 1.99707 1.99902 1.99316 1.99511 1.99707 1.99902 1.98729
          1.98924 1.9912 1.99316 1.99511 1.99707 1.99902 1.88559 1.88755 1.8895 1.89146 1.89342 1.89537
          1.89733 1.88559 1.88755 1.8895 1.89146 1.89342 1.89537 1.89733 1.89928 1.90124 1.90319 1.90515
          1.90711 1.90906 1.91102 1.91297 1.89928 1.90124 1.90319 1.90515 1.90711 1.90906 1.91102 1.91297
          1.88559 1.88755 1.8895 1.89146 1.89342 1.89537 1.89733 1.88559 1.88755 1.8895 1.89146 1.88559
          1.88755 1.8895 1.89146 1.89342 1.89537 1.89733 1.89342 1.89537 1.89733 1.89928 1.90124 1.90319
          1.90515 1.90711 1.90906 1.91102 1.91297 1.89928 1.90124 1.90319 1.90515 1.89928 1.90124 1.90319
          1.90515 1.90711 1.90906 1.91102 1.91297 1.90711 1.90906 1.91102 1.91297 1.91493 1.91688 1.91884
          1.9208 1.92275 1.92471 1.92666 1.91493 1.91688 1.91884 1.9208 1.92275 1.92471 1.92666 1.92862
          1.93057 1.93253 1.93448 1.93644 1.9384 1.94035 1.94231 1.92862 1.93057 1.93253 1.93448 1.93644
          1.9384 1.94035 1.94231 1.91493 1.91688 1.91884 1.9208 1.92275 1.92471 1.92666 1.91493 1.91688
          1.91884 1.91493 1.91688 1.91884 1.9208 1.92275 1.92471 1.92666 1.9208 1.92275 1.92471 1.92666
          1.92862 1.93057 1.93253 1.93448 1.93644 1.9384 1.94035 1.94231 1.92862 1.93057 1.93253 1.93448
          1.92862 1.93057 1.93253 1.93448 1.93644 1.9384 1.94035 1.94231 1.93644 1.9384 1.94035 1.94231
          1.88559 1.88755 1.8895 1.89146 1.89342 1.89537 1.89733 1.88559 1.88755 1.8895 1.89146 1.89342
          1.89537 1.89733 1.89928 1.90124 1.90319 1.90515 1.90711 1.90906 1.91102 1.91297 1.89928 1.90124
          1.90319 1.90515 1.90711 1.90906 1.91102 1.91297 1.88559 1.88755 1.8895 1.89146 1.89342 1.89537
          1.89733 1.88559 1.88755 1.8895 1.89146 1.88559 1.88755 1.8895 1.89146 1.89342 1.89537 1.89733
          1.89342 1.89537 1.89733 1.89928 1.90124 1.90319 1.90515 1.90711 1.90906 1.91102 1.91297 1.89928
          1.90124 1.90319 1.90515 1.89928 1.90124 1.90319 1.90515 1.90711 1.90906 1.91102 1.91297 1.90711
          1.90906 1.91102 1.91297 1.91493 1.91688 1.91884 1.9208 1.92275 1.92471 1.92666 1.91493 1.91688
          1.91884 1.9208 1.92275 1.92471 1.92666 1.92862 1.93057 1.93253 1.93448 1.93644 1.9384 1.94035
          1.94231 1.92862 1.93057 1.93253 1.93448 1.93644 1.9384 1.94035 1.94231 1.91493 1.91688 1.91884
          1.9208 1.92275 1.92471 1.92666 1.91493 1.91688 1.91884 1.91493 1.91688 1.91884 1.9208 1.92275
          1.92471 1.92666 1.9208 1.92275 1.92471 1.92666 1.92862 1.93057 1.93253 1.93448 1.93644 1.9384
          1.94035 1.94231 1.92862 1.93057 1.93253 1.93448 1.92862 1.93057 1.93253 1.93448 1.93644 1.9384
          1.94035 1.94231 1.93644 1.9384 1.94035 1.94231 1.94426 1.94622 1.94817 1.95013 1.95209 1.95404
          1.956 1.94426 1.94622 1.94817 1.95013 1.95209 1.95404 1.956 1.95795 1.95991 1.96186 1.96382
          1.96578 1.96773 1.96969 1.95795 1.95991 1.96186 1.96382 1.96578 1.96773 1.96969 1.94426 1.94622
          1.94817 1.95013 1.95209 1.95404 1.956 1.94426 1.94622 1.94817 1.94426 1.94622 1.94817 1.95013
          1.95209 1.95404 1.956 1.95013 1.95209 1.95404 1.956 1.95795 1.95991 1.96186 1.96382 1.96578
          1.96773 1.96969 1.95795 1.95991 1.96186 1.96382 1.95795 1.95991 1.96186 1.96382 1.96578 1.96773
          1.96969 1.96578 1.96773 1.96969 1.97164 1.9736 1.97555 1.97751 1.97947 1.98142 1.98338 1.98533
          1.97164 1.9736 1.97555 1.97751 1.97947 1.98142 1.98338 1.98533 1.98729 1.98924 1.9912 1.99316
          1.99511 1.99707 1.99902 1.98729 1.98924 1.9912 1.99316 1.99511 1.99707 1.99902 1.97164 1.9736
          1.97555 1.97751 1.97947 1.98142 1.98338 1.98533 1.97164 1.9736 1.97555 1.97751 1.97164 1.9736
          1.97555 1.97751 1.97947 1.98142 1.98338 1.98533 1.97947 1.98142 1.98338 1.98533 1.98729 1.98924
          1.9912 1.99316 1.99511 1.99707 1.99902 1.98729 1.98924 1.9912 1.98729 1.98924 1.9912 1.99316
          1.99511 1.99707 1.99902 1.99316 1.99511 1.99707 1.99902 1.94426 1.94622 1.94817 1.95013 1.95209
          1.95404 1.956 1.94426 1.94622 1.94817 1.95013 1.95209 1.95404 1.956 1.95795 1.95991 1.96186
          1.96382 1.96578 1.96773 1.96969 1.95795 1.95991 1.96186 1.96382 1.96578 1.96773 1.96969 1.94426
          1.94622 1.94817 1.95013 1.95209 1.95404 1.956 1.94426 1.94622 1.94817 1.94426 1.94622 1.94817
          1.95013 1.95209 1.95404 1.956 1.95013 1.95209 1.95404 1.956 1.95795 1.95991 1.96186 1.96382
          1.96578 1.96773 1.96969 1.95795 1.95991 1.96186 1.96382 1.95795 1.95991 1.96186 1.96382 1.96578
          1.96773 1.96969 1.96578 1.96773 1.96969 1.97164 1.9736 1.97555 1.97751 1.97947 1.98142 1.98338
          1.98533 1.97164 1.9736 1.97555 1.97751 1.97947 1.98142 1.98338 1.98533 1.98729 1.98924 1.9912
          1.99316 1.99511 1.99707 1.99902 1.98729 1.98924 1.9912 1.99316 1.99511 1.99707 1.99902 1.97164
          1.9736 1.97555 1.97751 1.97947 1.98142 1.98338 1.98533 1.97164 1.9736 1.97555 1.97751 1.97164
          1.9736 1.97555 1.97751 1.97947 1.98142 1.98338 1.98533 1.97947 1.98142 1.98338 1.98533 1.98729
          1.98924 1.9912 1.99316 1.99511 1.99707 1.99902 1.98729 1.98924 1.9912 1.98729 1.98924 1.9912
          1.99316 1.99511 1.99707 1.99902 1.99316 1.99511 1.99707 1.99902 1.00098 1.00293 1.00489 1.00684
          1.00098 1.00293 1.00489 1.00684 1.0088 1.01076 1.01271 1.0088 1.01076 1.01271 1.00098 1.00293
          1.00489 1.00684 1.0088 1.01076 1.01271 1.01467 1.01662 1.01858 1.02053 1.01467 1.01662 1.01858
          1.02053 1.02249 1.02445 1.0264 1.02836 1.02249 1.02445 1.0264 1.02836 1.01467 1.01662 1.01858
          1.02053 1.02249 1.02445 1.0264 1.02836 1.00098 1.00293 1.00489 1.00684 1.0088 1.01076 1.01271
          1.00098 1.00293 1.00489 1.00684 1.0088 1.01076 1.01271 1.01467 1.01662 1.01858 1.02053 1.02249
          1.02445 1.0264 1.02836 1.01467 1.01662 1.01858 1.02053 1.02249 1.02445 1.0264 1.02836 1.03031
          1.03227 1.03422 1.03031 1.03227 1.03422 1.03618 1.03814 1.04009 1.04205 1.03618 1.03814 1.04009
          1.04205 1.03031 1.03227 1.03422 1.03618 1.03814 1.04009 1.04205 1.044 1.04596 1.04791 1.04987
          1.044 1.04596 1.04791 1.04987 1.05183 1.05378 1.05574 1.05769 1.05183 1.05378 1.05574 1.05769
          1.044 1.04596 1.04791 1.04987 1.05183 1.05378 1.05574 1.05769 1.03031 1.03227 1.03422 1.03618
          1.03814 1.04009 1.04205 1.03031 1.03227 1.03422 1.03618 1.03814 1.04009 1.04205 1.044 1.04596
          1.04791 1.04987 1.05183 1.05378 1.05574 1.05769 1.044 1.04596 1.04791 1.04987 1.05183 1.05378
          1.05574 1.00098 1.00293 1.00489 1.00684 1.00098 1.00293 1.00489 1.00684 1.0088 1.01076 1.01271
          1.0088 1.01076 1.01271 1.00098 1.00293 1.00489 1.00684 1.0088 1.01076 1.01271 1.01467 1.01662
          1.01858 1.02053 1.01467 1.01662 1.01858 1.02053 1.02249 1.02445 1.0264 1.02836 1.02249 1.02445
          1.0264 1.02836 1.01467 1.01662 1.01858 1.02053 1.02249 1.02445 1.0264 1.02836 1.00098 1.00293
          1.00489 1.00684 1.0088 1.01076 1.01271 1.00098 1.00293 1.00489 1.00684 1.0088 1.01076 1.01271
          1.01467 1.01662 1.01858 1.02053 1.02249 1.02445 1.0264 1.02836 1.01467 1.01662 1.01858 1.02053
          1.02249 1.02445 1.0264 1.02836 1.03031 1.03227 1.03422 1.03031 1.03227 1.03422 1.03618 1.03814
          1.04009 1.04205 1.03618 1.03814 1.04009 1.04205 1.03031 1.03227 1.03422 1.03618 1.03814 1.04009
          1.04205 1.044 1.04596 1.04791 1.04987 1.044 1.04596 1.04791 1.04987 1.05183 1.05378 1.05574
          1.05183 1.05378 1.05574 1.044 1.04596 1.04791 1.04987 1.05183 1.05378 1.05574 1.03031 1.03227
          1.03422 1.03618 1.03814 1.04009 1.04205 1.03031 1.03227 1.03422 1.03618 1.03814 1.04009 1.04205
          1.044 1.04596 1.04791 1.04987 1.05183 1.05378 1.05574 1.044 1.04596 1.04791 1.04987 1.05183
          1.05378 1.05574 1.05965 1.0616 1.06356 1.05965 1.0616 1.06356 1.06552 1.06747 1.06943 1.06552
          1.06747 1.06943 1.07138 1.05965 1.0616 1.06356 1.06552 1.06747 1.06943 1.07138 1.07334 1.07529
          1.07725 1.0792 1.08116 1.08312 1.08507 1.07334 1.07529 1.07725 1.0792 1.08116 1.08312 1.08507
          1.05965 1.0616 1.06356 1.06552 1.06747 1.06943 1.07138 1.05769 1.05965 1.0616 1.06356 1.06552
          1.06747 1.06943 1.07138 1.07334 1.07529 1.07725 1.0792 1.08116 1.08312 1.08507 1.07334 1.07529
          1.07725 1.0792 1.08116 1.08312 1.08507 1.08703 1.08898 1.09094 1.09289 1.09485 1.09681 1.09876
          1.10072 1.08703 1.08898 1.09094 1.09289 1.09485 1.09681 1.09876 1.10072 1.10267 1.10463 1.10658
          1.10854 1.1105 1.11245 1.11441 1.10267 1.10463 1.10658 1.10854 1.1105 1.11245 1.11441 1.08703
          1.08898 1.09094 1.09289 1.09485 1.09681 1.09876 1.10072 1.08703 1.08898 1.09094 1.09289 1.09485
          1.09681 1.09876 1.10072 1.10267 1.10463 1.10658 1.10854 1.1105 1.11245 1.11441 1.10267 1.10463
          1.10658 1.10854 1.1105 1.11245 1.11441 1.05769 1.05965 1.0616 1.06356 1.05769 1.05965 1.0616
          1.06356 1.06552 1.06747 1.06943 1.07138 1.06552 1.06747 1.06943 1.07138 1.05769 1.05965 1.0616
          1.06356 1.06552 1.06747 1.06943 1.07138 1.07334 1.07529 1.07725 1.0792 1.07334 1.07529 1.07725
          1.0792 1.08116 1.08312 1.08507 1.08116 1.08312 1.08507 1.07334 1.07529 1.07725 1.0792 1.08116
          1.08312 1.08507 1.05769 1.05965 1.0616 1.06356 1.06552 1.06747 1.06943 1.07138 1.05769 1.05965
          1.0616 1.06356 1.06552 1.06747 1.06943 1.07138 1.07334 1.07529 1.07725 1.0792 1.08116 1.08312
          1.08507 1.07334 1.07529 1.07725 1.0792 1.08116 1.08312 1.08507 1.08703 1.08898 1.09094 1.09289
          1.08703 1.08898 1.09094 1.09289 1.09485 1.09681 1.09876 1.10072 1.09485 1.09681 1.09876 1.10072
          1.08703 1.08898 1.09094 1.09289 1.09485 1.09681 1.09876 1.10072 1.10267 1.10463 1.10658 1.10267
          1.10463 1.10658 1.10854 1.1105 1.11245 1.11441 1.10854 1.1105 1.11245 1.11441 1.10267 1.10463
          1.10658 1.10854 1.1105 1.11245 1.11441 1.08703 1.08898 1.09094 1.09289 1.09485 1.09681 1.09876
          1.10072 1.08703 1.08898 1.09094 1.09289 1.09485 1.09681 1.09876 1.10072 1.10267 1.10463 1.10658
          1.10854 1.1105 1.11245 1.11441 1.10267 1.10463 1.10658 1.10854 1.1105 1.11245 1.11441 1.00098
          1.00293 1.00489 1.00684 1.0088 1.01076 1.01271 1.00098 1.00293 1.00489 1.00684 1.00098 1.00293
          1.00489 1.00684 1.0088 1.01076 1.01271 1.0088 1.01076 1.01271 1.01467 1.01662 1.01858 1.02053
          1.02249 1.02445 1.0264 1.02836 1.01467 1.01662 1.01858 1.02053 1.01467 1.01662 1.01858 1.02053
          1.02249 1.02445 1.0264 1.02836 1.02249 1.02445 1.0264 1.02836 1.00098 1.00293 1.00489 1.00684
          1.0088 1.01076 1.01271 1.00098 1.00293 1.00489 1.00684 1.0088 1.01076 1.01271 1.01467 1.01662
          1.01858 1.02053 1.02249 1.02445 1.0264 1.02836 1.01467 1.01662 1.01858 1.02053 1.02249 1.02445
          1.0264 1.02836 1.03031 1.03227 1.03422 1.03618 1.03814 1.04009 1.04205 1.03031 1.03227 1.03422
          1.03031 1.03227 1.03422 1.03618 1.03814 1.04009 1.04205 1.03618 1.03814 1.04009 1.04205 1.044
          1.04596 1.04791 1.04987 1.05183 1.05378 1.05574 1.044 1.04596 1.04791 1.04987 1.044 1.04596
          1.04791 1.04987 1.05183 1.05378 1.05574 1.05183 1.05378 1.05574 1.03031 1.03227 1.03422 1.03618
          1.03814 1.04009 1.04205 1.03031 1.03227 1.03422 1.03618 1.03814 1.04009 1.04205 1.044 1.04596
          1.04791 1.04987 1.05183 1.05378 1.05574 1.044 1.04596 1.04791 1.04987 1.05183 1.05378 1.05574
          1.00098 1.00293 1.00489 1.00684 1.0088 1.01076 1.01271 1.00098 1.00293 1.00489 1.00684 1.00098
          1.00293 1.00489 1.00684 1.0088 1.01076 1.01271 1.0088 1.01076 1.01271 1.01467 1.01662 1.01858
          1.02053 1.02249 1.02445 1.0264 1.02836 1.01467 1.01662 1.01858 1.02053 1.01467 1.01662 1.01858
          1.02053 1.02249 1.02445 1.0264 1.02836 1.02249 1.02445 1.0264 1.02836 1.00098 1.00293 1.00489
          1.00684 1.0088 1.01076 1.01271 1.00098 1.00293 1.00489 1.00684 1.0088 1.01076 1.01271 1.01467
          1.01662 1.01858 1.02053 1.02249 1.02445 1.0264 1.02836 1.01467 1.01662 1.01858 1.02053 1.02249
          1.02445 1.0264 1.02836 1.03031 1.03227 1.03422 1.03618 1.03814 1.04009 1.04205 1.03031 1.03227
          1.03422 1.03031 1.03227 1.03422 1.03618 1.03814 1.04009 1.04205 1.03618 1.03814 1.04009 1.04205
          1.044 1.04596 1.04791 1.04987 1.05183 1.05378 1.05574 1.044 1.04596 1.04791 1.04987 1.044
          1.04596 1.04791 1.04987 1.05183 1.05378 1.05574 1.05183 1.05378 1.05574 1.03031 1.03227 1.03422
          1.03618 1.03814 1.04009 1.04205 1.03031 1.03227 1.03422 1.03618 1.03814 1.04009 1.04205 1.044
          1.04596 1.04791 1.04987 1.05183 1.05378 1.05574 1.044 1.04596 1.04791 1.04987 1.05183 1.05378
          1.05574 1.05769 1.05965 1.0616 1.06356 1.06552 1.06747 1.06943 1.07138 1.05769 1.05965 1.0616
          1.06356 1.05769 1.05965 1.0616 1.06356 1.06552 1.06747 1.06943 1.07138 1.06552 1.06747 1.06943
          1.07138 1.07334 1.07529 1.07725 1.0792 1.08116 1.08312 1.08507 1.07334 1.07529 1.07725 1.0792
          1.07334 1.07529 1.07725 1.0792 1.08116 1.08312 1.08507 1.08116 1.08312 1.08507 1.05769 1.05965
          1.0616 1.06356 1.06552 1.06747 1.06943 1.07138 1.05769 1.05965 1.0616 1.06356 1.06552 1.06747
          1.06943 1.07138 1.07334 1.07529 1.07725 1.0792 1.08116 1.08312 1.08507 1.07334 1.07529 1.07725
          1.0792 1.08116 1.08312 1.08507 1.08703 1.08898 1.09094 1.09289 1.09485 1.09681 1.09876 1.10072
          1.08703 1.08898 1.09094 1.09289 1.08703 1.08898 1.09094 1.09289 1.09485 1.09681 1.09876 1.10072
          1.09485 1.09681 1.09876 1.10072 1.10267 1.10463 1.10658 1.10854 1.1105 1.11245 1.11441 1.10267
          1.10463 1.10658 1.10267 1.10463 1.10658 1.10854 1.1105 1.11245 1.11441 1.10854 1.1105 1.11245
          1.11441 1.08703 1.08898 1.09094 1.09289 1.09485 1.09681 1.09876 1.10072 1.08703 1.08898 1.09094
          1.09289 1.09485 1.09681 1.09876 1.10072 1.10267 1.10463 1.10658 1.10854 1.1105 1.11245 1.11441
          1.10267 1.10463 1.10658 1.10854 1.1105 1.11245 1.11441 1.05769 1.05965 1.0616 1.06356 1.06552
          1.06747 1.06943 1.07138 1.05769 1.05965 1.0616 1.06356 1.05769 1.05965 1.0616 1.06356 1.06552
          1.06747 1.06943 1.07138 1.06552 1.06747 1.06943 1.07138 1.07334 1.07529 1.07725 1.0792 1.08116
          1.08312 1.08507 1.07334 1.07529 1.07725 1.0792 1.07334 1.07529 1.07725 1.0792 1.08116 1.08312
          1.08507 1.08116 1.08312 1.08507 1.05769 1.05965 1.0616 1.06356 1.06552 1.06747 1.06943 1.07138
          1.05769 1.05965 1.0616 1.06356 1.06552 1.06747 1.06943 1.07138 1.07334 1.07529 1.07725 1.0792
          1.08116 1.08312 1.08507 1.07334 1.07529 1.07725 1.0792 1.08116 1.08312 1.08507 1.08703 1.08898