<?xml version="1.0"?>
<VTKFile type="UnstructuredGrid" version="0.1" byte_order="LittleEndian">
  <UnstructuredGrid>
    <Piece NumberOfCells="2700" NumberOfPoints="3010">
      <PointData Scalars="p" Vectors="velocity_liq (m/s)">
        <DataArray type="Float32" Name="p" NumberOfComponents="1" format="ascii">
          0 0 333.333 333.333 0 333.333 0 333.333 0 333.333 0 333.333
          0 333.333 0 333.333 0 333.333 0 333.333 666.667 666.667 666.667 666.667
          666.667 666.667 666.667 666.667 666.667 666.667 1000 1000 1000 1000 1000 1000
          1000 1000 1000 1000 1333.33 1333.33 1333.33 1333.33 1333.33 1333.33 1333.33 1333.33
          1333.33 1333.33 1666.67 1666.67 1666.67 1666.67 1666.67 1666.67 1666.67 1666.67 1666.67 1666.67
          2000 2000 2000 2000 2000 2000 2000 2000 2000 2000 2333.33 2333.33
          2333.33 2333.33 2333.33 2333.33 2333.33 2333.33 2333.33 2333.33 2666.67 2666.67 2666.67 2666.67
          2666.67 2666.67 2666.67 2666.67 2666.67 2666.67 3000 3000 3000 3000 3000 3000
          3000 3000 3000 3000 3333.33 3333.33 3333.33 3333.33 3333.33 3333.33 3333.33 3333.33
          3333.33 3333.33 3666.67 3666.67 3666.67 3666.67 3666.67 3666.67 3666.67 3666.67 3666.67 3666.67
          4000 4000 4000 4000 4000 4000 4000 4000 4000 4000 4333.33 4333.33
          4333.33 4333.33 4333.33 4333.33 4333.33 4333.33 4333.33 4333.33 4666.67 4666.67 4666.67 4666.67
          4666.67 4666.67 4666.67 4666.67 4666.67 4666.67 5000 5000 5000 5000 5000 5000
          5000 5000 5000 5000 5333.33 5333.33 5333.33 5333.33 5333.33 5333.33 5333.33 5333.33
          5333.33 5333.33 5666.67 5666.67 5666.67 5666.67 5666.67 5666.67 5666.67 5666.67 5666.67 5666.67
          6000 6000 6000 6000 6000 6000 6000 6000 6000 6000 6333.33 6333.33
          6333.33 6333.33 6333.33 6333.33 6333.33 6333.33 6333.33 6333.33 6666.67 6666.67 6666.67 6666.67
          6666.67 6666.67 6666.67 6666.67 6666.67 6666.67 7000 7000 7000 7000 7000 7000
          7000 7000 7000 7000 7333.33 7333.33 7333.33 7333.33 7333.33 7333.33 7333.33 7333.33
          7333.33 7333.33 7666.67 7666.67 7666.67 7666.67 7666.67 7666.67 7666.67 7666.67 7666.67 7666.67
          8000 8000 8000 8000 8000 8000 8000 8000 8000 8000 8333.33 8333.33
          8333.33 8333.33 8333.33 8333.33 8333.33 8333.33 8333.33 8333.33 8666.67 8666.67 8666.67 8666.67
          8666.67 8666.67 8666.67 8666.67 8666.67 8666.67 9000 9000 9000 9000 9000 9000
          9000 9000 9000 9000 9333.33 9333.33 9333.33 9333.33 9333.33 9333.33 9333.33 9333.33
          9333.33 9333.33 9666.67 9666.67 9666.67 9666.67 9666.67 9666.67 9666.67 9666.67 9666.67 9666.67
          10000 10000 10000 10000 10000 10000 10000 10000 10000 10000 10333.3 10333.3
          10333.3 10333.3 10333.3 10333.3 10333.3 10333.3 10333.3 10333.3 10666.7 10666.7 10666.7 10666.7
          10666.7 10666.7 10666.7 10666.7 10666.7 10666.7 11000 11000 11000 11000 11000 11000
          11000 11000 11000 11000 11333.3 11333.3 11333.3 11333.3 11333.3 11333.3 11333.3 11333.3
          11333.3 11333.3 11666.7 11666.7 11666.7 11666.7 11666.7 11666.7 11666.7 11666.7 11666.7 11666.7
          12000 12000 12000 12000 12000 12000 12000 12000 12000 12000 12333.3 12333.3
          12333.3 12333.3 12333.3 12333.3 12333.3 12333.3 12333.3 12333.3 12666.7 12666.7 12666.7 12666.7
          12666.7 12666.7 12666.7 12666.7 12666.7 12666.7 13000 13000 13000 13000 13000 13000
          13000 13000 13000 13000 13333.3 13333.3 13333.3 13333.3 13333.3 13333.3 13333.3 13333.3
          13333.3 13333.3 13666.7 13666.7 13666.7 13666.7 13666.7 13666.7 13666.7 13666.7 13666.7 13666.7
          14000 14000 14000 14000 14000 14000 14000 14000 14000 14000 14333.3 14333.3
          14333.3 14333.3 14333.3 14333.3 14333.3 14333.3 14333.3 14333.3 14666.7 14666.7 14666.7 14666.7
          14666.7 14666.7 14666.7 14666.7 14666.7 14666.7 15000 15000 15000 15000 15000 15000
          15000 15000 15000 15000 15333.3 15333.3 15333.3 15333.3 15333.3 15333.3 15333.3 15333.3
          15333.3 15333.3 15666.7 15666.7 15666.7 15666.7 15666.7 15666.7 15666.7 15666.7 15666.7 15666.7
          16000 16000 16000 16000 16000 16000 16000 16000 16000 16000 16333.3 16333.3
          16333.3 16333.3 16333.3 16333.3 16333.3 16333.3 16333.3 16333.3 16666.7 16666.7 16666.7 16666.7
          16666.7 16666.7 16666.7 16666.7 16666.7 16666.7 17000 17000 17000 17000 17000 17000
          17000 17000 17000 17000 17333.3 17333.3 17333.3 17333.3 17333.3 17333.3 17333.3 17333.3
          17333.3 17333.3 17666.7 17666.7 17666.7 17666.7 17666.7 17666.7 17666.7 17666.7 17666.7 17666.7
          18000 18000 18000 18000 18000 18000 18000 18000 18000 18000 18333.3 18333.3
          18333.3 18333.3 18333.3 18333.3 18333.3 18333.3 18333.3 18333.3 18666.7 18666.7 18666.7 18666.7
          18666.7 18666.7 18666.7 18666.7 18666.7 18666.7 19000 19000 19000 19000 19000 19000
          19000 19000 19000 19000 19333.3 19333.3 19333.3 19333.3 19333.3 19333.3 19333.3 19333.3
          19333.3 19333.3 19666.7 19666.7 19666.7 19666.7 19666.7 19666.7 19666.7 19666.7 19666.7 19666.7
          20000 20000 20000 20000 20000 20000 20000 20000 20000 20000 20333.3 20333.3
          20333.3 20333.3 20333.3 20333.3 20333.3 20333.3 20333.3 20333.3 20666.7 20666.7 20666.7 20666.7
          20666.7 20666.7 20666.7 20666.7 20666.7 20666.7 21000 21000 21000 21000 21000 21000
          21000 21000 21000 21000 21333.3 21333.3 21333.3 21333.3 21333.3 21333.3 21333.3 21333.3
          21333.3 21333.3 21666.7 21666.7 21666.7 21666.7 21666.7 21666.7 21666.7 21666.7 21666.7 21666.7
          22000 22000 22000 22000 22000 22000 22000 22000 22000 22000 22333.3 22333.3
          22333.3 22333.3 22333.3 22333.3 22333.3 22333.3 22333.3 22333.3 22666.7 22666.7 22666.7 22666.7
          22666.7 22666.7 22666.7 22666.7 22666.7 22666.7 23000 23000 23000 23000 23000 23000
          23000 23000 23000 23000 23333.3 23333.3 23333.3 23333.3 23333.3 23333.3 23333.3 23333.3
          23333.3 23333.3 23666.7 23666.7 23666.7 23666.7 23666.7 23666.7 23666.7 23666.7 23666.7 23666.7
          24000 24000 24000 24000 24000 24000 24000 24000 24000 24000 24333.3 24333.3
          24333.3 24333.3 24333.3 24333.3 24333.3 24333.3 24333.3 24333.3 24666.7 24666.7 24666.7 24666.7
          24666.7 24666.7 24666.7 24666.7 24666.7 24666.7 25000 25000 25000 25000 25000 25000
          25000 25000 25000 25000 25333.3 25333.3 25333.3 25333.3 25333.3 25333.3 25333.3 25333.3
          25333.3 25333.3 25666.7 25666.7 25666.7 25666.7 25666.7 25666.7 25666.7 25666.7 25666.7 25666.7
          26000 26000 26000 26000 26000 26000 26000 26000 26000 26000 26333.3 26333.3
          26333.3 26333.3 26333.3 26333.3 26333.3 26333.3 26333.3 26333.3 26666.7 26666.7 26666.7 26666.7
          26666.7 26666.7 26666.7 26666.7 26666.7 26666.7 27000 27000 27000 27000 27000 27000
          27000 27000 27000 27000 27333.3 27333.3 27333.3 27333.3 27333.3 27333.3 27333.3 27333.3
          27333.3 27333.3 27666.7 27666.7 27666.7 27666.7 27666.7 27666.7 27666.7 27666.7 27666.7 27666.7
          28000 28000 28000 28000 28000 28000 28000 28000 28000 28000 28333.3 28333.3
          28333.3 28333.3 28333.3 28333.3 28333.3 28333.3 28333.3 28333.3 28666.7 28666.7 28666.7 28666.7
          28666.7 28666.7 28666.7 28666.7 28666.7 28666.7 29000 29000 29000 29000 29000 29000
          29000 29000 29000 29000 29333.3 29333.3 29333.3 29333.3 29333.3 29333.3 29333.3 29333.3
          29333.3 29333.3 29666.7 29666.7 29666.7 29666.7 29666.7 29666.7 29666.7 29666.7 29666.7 29666.7
          30000 30000 30000 30000 30000 30000 30000 30000 30000 30000 30333.3 30333.3
          30333.3 30333.3 30333.3 30333.3 30333.3 30333.3 30333.3 30333.3 30666.7 30666.7 30666.7 30666.7
          30666.7 30666.7 30666.7 30666.7 30666.7 30666.7 31000 31000 31000 31000 31000 31000
          31000 31000 31000 31000 31333.3 31333.3 31333.3 31333.3 31333.3 31333.3 31333.3 31333.3
          31333.3 31333.3 31666.7 31666.7 31666.7 31666.7 31666.7 31666.7 31666.7 31666.7 31666.7 31666.7
          32000 32000 32000 32000 32000 32000 32000 32000 32000 32000 32333.3 32333.3
          32333.3 32333.3 32333.3 32333.3 32333.3 32333.3 32333.3 32333.3 32666.7 32666.7 32666.7 32666.7
          32666.7 32666.7 32666.7 32666.7 32666.7 32666.7 33000 33000 33000 33000 33000 33000
          33000 33000 33000 33000 33333.3 33333.3 33333.3 33333.3 33333.3 33333.3 33333.3 33333.3
          33333.3 33333.3 33666.7 33666.7 33666.7 33666.7 33666.7 33666.7 33666.7 33666.7 33666.7 33666.7
          34000 34000 34000 34000 34000 34000 34000 34000 34000 34000 34333.3 34333.3
          34333.3 34333.3 34333.3 34333.3 34333.3 34333.3 34333.3 34333.3 34666.7 34666.7 34666.7 34666.7
          34666.7 34666.7 34666.7 34666.7 34666.7 34666.7 35000 35000 35000 35000 35000 35000
          35000 35000 35000 35000 35333.3 35333.3 35333.3 35333.3 35333.3 35333.3 35333.3 35333.3
          35333.3 35333.3 35666.7 35666.7 35666.7 35666.7 35666.7 35666.7 35666.7 35666.7 35666.7 35666.7
          36000 36000 36000 36000 36000 36000 36000 36000 36000 36000 36333.3 36333.3
          36333.3 36333.3 36333.3 36333.3 36333.3 36333.3 36333.3 36333.3 36666.7 36666.7 36666.7 36666.7
          36666.7 36666.7 36666.7 36666.7 36666.7 36666.7 37000 37000 37000 37000 37000 37000
          37000 37000 37000 37000 37333.3 37333.3 37333.3 37333.3 37333.3 37333.3 37333.3 37333.3
          37333.3 37333.3 37666.7 37666.7 37666.7 37666.7 37666.7 37666.7 37666.7 37666.7 37666.7 37666.7
          38000 38000 38000 38000 38000 38000 38000 38000 38000 38000 38333.3 38333.3
          38333.3 38333.3 38333.3 38333.3 38333.3 38333.3 38333.3 38333.3 38666.7 38666.7 38666.7 38666.7
          38666.7 38666.7 38666.7 38666.7 38666.7 38666.7 39000 39000 39000 39000 39000 39000
          39000 39000 39000 39000 39333.3 39333.3 39333.3 39333.3 39333.3 39333.3 39333.3 39333.3
          39333.3 39333.3 39666.7 39666.7 39666.7 39666.7 39666.7 39666.7 39666.7 39666.7 39666.7 39666.7
[...]
      <CellData Scalars="process rank">
        <DataArray type="Float32" Name="process rank" NumberOfComponents="1" format="ascii">
          0 0 0 0 0 0 0 0 0 0 0 0
          0 0 0 0 0 0 0 0 0 0 0 0
          0 0 0 0 0 0 0 0 0 0 0 0
          0 0 0 0 0 0 0 0 0 0 0 0
          0 0 0 0 0 0 0 0 0 0 0 0
          0 0 0 0 0 0 0 0 0 0 0 0
          0 0 0 0 0 0 0 0 0 0 0 0
          0 0 0 0 0 0 0 0 0 0 0 0
          0 0 0 0 0 0 0 0 0 0 0 0
          0 0 0 0 0 0 0 0 0 0 0 0
          0 0 0 0 0 0 0 0 0 0 0 0
          0 0 0 0 0 0 0 0 0 0 0 0
          0 0 0 0 0 0 0 0 0 0 0 0
          0 0 0 0 0 0 0 0 0 0 0 0
          0 0 0 0 0 0 0 0 0 0 0 0
          0 0 0 0 0 0 0 0 0 0 0 0
          0 0 0 0 0 0 0 0 0 0 0 0
          0 0 0 0 0 0 0 0 0 0 0 0
          0 0 0 0 0 0 0 0 0 0 0 0
          0 0 0 0 0 0 0 0 0 0 0 0
          0 0 0 0 0 0 0 0 0 0 0 0
          0 0 0 0 0 0 0 0 0 0 0 0
          0 0 0 0 0 0 0 0 0 0 0 0
          0 0 0 0 0 0 0 0 0 0 0 0
          0 0 0 0 0 0 0 0 0 0 0 0
          0 0 0 0 0 0 0 0 0 0 0 0
          0 0 0 0 0 0 0 0 0 0 0 0
          0 0 0 0 0 0 0 0 0 0 0 0
          0 0 0 0 0 0 0 0 0 0 0 0
          0 0 0 0 0 0 0 0 0 0 0 0
          0 0 0 0 0 0 0 0 0 0 0 0
          0 0 0 0 0 0 0 0 0 0 0 0
          0 0 0 0 0 0 0 0 0 0 0 0
          0 0 0 0 0 0 0 0 0 0 0 0
          0 0 0 0 0 0 0 0 0 0 0 0
          0 0 0 0 0 0 0 0 0 0 0 0
          0 0 0 0 0 0 0 0 0 0 0 0
          0 0 0 0 0 0 0 0 0 0 0 0
          0 0 0 0 0 0 0 0 0 0 0 0
          0 0 0 0 0 0 0 0 0 0 0 0
          0 0 0 0 0 0 0 0 0 0 0 0
          0 0 0 0 0 0 0 0 0 0 0 0
          0 0 0 0 0 0 0 0 0 0 0 0
          0 0 0 0 0 0 0 0 0 0 0 0
          0 0 0 0 0 0 0 0 0 0 0 0
          0 0 0 0 0 0 0 0 0 0 0 0
          0 0 0 0 0 0 0 0 0 0 0 0
          0 0 0 0 0 0 0 0 0 0 0 0
          0 0 0 0 0 0 0 0 0 0 0 0
          0 0 0 0 0 0 0 0 0 0 0 0
          0 0 0 0 0 0 0 0 0 0 0 0
          0 0 0 0 0 0 0 0 0 0 0 0
          0 0 0 0 0 0 0 0 0 0 0 0
          0 0 0 0 0 0 0 0 0 0 0 0
          0 0 0 0 0 0 0 0 0 0 0 0
          0 0 0 0 0 0 0 0 0 0 0 0
          0 0 0 0 0 0 0 0 0 0 0 0
          0 0 0 0 0 0 0 0 0 0 0 0
          0 0 0 0 0 0 0 0 0 0 0 0
          0 0 0 0 0 0 0 0 0 0 0 0
          0 0 0 0 0 0 0 0 0 0 0 0
          0 0 0 0 0 0 0 0 0 0 0 0
          0 0 0 0 0 0 0 0 0 0 0 0
          0 0 0 0 0 0 0 0 0 0 0 0
          0 0 0 0 0 0 0 0 0 0 0 0
          0 0 0 0 0 0 0 0 0 0 0 0
          0 0 0 0 0 0 0 0 0 0 0 0
          0 0 0 0 0 0 0 0 0 0 0 0
          0 0 0 0 0 0 0 0 0 0 0 0
          0 0 0 0 0 0 0 0 0 0 0 0
          0 0 0 0 0 0 0 0 0 0 0 0
          0 0 0 0 0 0 0 0 0 0 0 0
          0 0 0 0 0 0 0 0 0 0 0 0
          0 0 0 0 0 0 0 0 0 0 0 0
          0 0 0 0 0 0 0 0 0 0 0 0
          0 0 0 0 0 0 0 0 0 0 0 0
          0 0 0 0 0 0 0 0 0 0 0 0
          0 0 0 0 0 0 0 0 0 0 0 0
          0 0 0 0 0 0 0 0 0 0 0 0
          0 0 0 0 0 0 0 0 0 0 0 0
          0 0 0 0 0 0 0 0 0 0 0 0
          0 0 0 0 0 0 0 0 0 0 0 0
          0 0 0 0 0 0 0 0 0 0 0 0
          0 0 0 0 0 0 0 0 0 0 0 0
          0 0 0 0 0 0 0 0 0 0 0 0
          0 0 0 0 0 0 0 0 0 0 0 0
          0 0 0 0 0 0 0 0 0 0 0 0
          0 0 0 0 0 0 0 0 0 0 0 0
          0 0 0 0 0 0 0 0 0 0 0 0
          0 0 0 0 0 0 0 0 0 0 0 0
          0 0 0 0 0 0 0 0 0 0 0 0
          0 0 0 0 0 0 0 0 0 0 0 0
          0 0 0 0 0 0 0 0 0 0 0 0
          0 0 0 0 0 0 0 0 0 0 0 0
          0 0 0 0 0 0 0 0 0 0 0 0
          0 0 0 0 0 0 0 0 0 0 0 0
          0 0 0 0 0 0 0 0 0 0 0 0
          0 0 0 0 0 0 0 0 0 0 0 0
          0 0 0 0 0 0 0 0 0 0 0 0
          0 0 0 0 0 0 0 0 0 0 0 0
          0 0 0 0 0 0 0 0 0 0 0 0
          0 0 0 0 0 0 0 0 0 0 0 0
          0 0 0 0 0 0 0 0 0 0 0 0
          0 0 0 0 0 0 0 0 0 0 0 0
          0 0 0 0 0 0 0 0 0 0 0 0
          0 0 0 0 0 0 0 0 0 0 0 0
          0 0 0 0 0 0 0 0 0 0 0 0
          0 0 0 0 0 0 0 0 0 0 0 0
          0 0 0 0 0 0 0 0 0 0 0 0
          0 0 0 0 0 0 0 0 0 0 0 0
          0 0 0 0 0 0 0 0 0 0 0 0
          0 0 0 0 0 0 0 0 0 0 0 0
          0 0 0 0 0 0 0 0 0 0 0 0
          0 0 0 0 0 0 0 0 0 0 0 0
          0 0 0 0 0 0 0 0 0 0 0 0
          0 0 0 0 0 0 0 0 0 0 0 0
          0 0 0 0 0 0 0 0 0 0 0 0
          0 0 0 0 0 0 0 0 0 0 0 0
          0 0 0 0 0 0 0 0 0 0 0 0
          0 0 0 0 0 0 0 0 0 0 0 0
          0 0 0 0 0 0 0 0 0 0 0 0
          0 0 0 0 0 0 0 0 0 0 0 0
          0 0 0 0 0 0 0 0 0 0 0 0
          0 0 0 0 0 0 0 0 0 0 0 0
          0 0 0 0 0 0 0 0 0 0 0 0
          0 0 0 0 0 0 0 0 0 0 0 0
          0 0 0 0 0 0 0 0 0 0 0 0
          0 0 0 0 0 0 0 0 0 0 0 0
          0 0 0 0 0 0 0 0 0 0 0 0
          0 0 0 0 0 0 0 0 0 0 0 0
          0 0 0 0 0 0 0 0 0 0 0 0
          0 0 0 0 0 0 0 0 0 0 0 0
          0 0 0 0 0 0 0 0 0 0 0 0
          0 0 0 0 0 0 0 0 0 0 0 0
          0 0 0 0 0 0 0 0 0 0 0 0
          0 0 0 0 0 0 0 0 0 0 0 0
          0 0 0 0 0 0 0 0 0 0 0 0
          0 0 0 0 0 0 0 0 0 0 0 0
          0 0 0 0 0 0 0 0 0 0 0 0
          0 0 0 0 0 0 0 0 0 0 0 0
          0 0 0 0 0 0 0 0 0 0 0 0
          0 0 0 0 0 0 0 0 0 0 0 0
          0 0 0 0 0 0 0 0 0 0 0 0
          0 0 0 0 0 0 0 0 0 0 0 0
          0 0 0 0 0 0 0 0 0 0 0 0
          0 0 0 0 0 0 0 0 0 0 0 0
          0 0 0 0 0 0 0 0 0 0 0 0
          0 0 0 0 0 0 0 0 0 0 0 0
          0 0 0 0 0 0 0 0 0 0 0 0
          0 0 0 0 0 0 0 0 0 0 0 0
          0 0 0 0 0 0 0 0 0 0 0 0
          0 0 0 0 0 0 0 0 0 0 0 0
          0 0 0 0 0 0 0 0 0 0 0 0
          0 0 0 0 0 0 0 0 0 0 0 0
          0 0 0 0 0 0 0 0 0 0 0 0
          0 0 0 0 0 0 0 0 0 0 0 0
          0 0 0 0 0 0 0 0 0 0 0 0
          0 0 0 0 0 0 0 0 0 0 0 0
          0 0 0 0 0 0 0 0 0 0 0 0
          0 0 0 0 0 0 0 0 0 0 0 0
          0 0 0 0 0 0 0 0 0 0 0 0
          0 0 0 0 0 0 0 0 0 0 0 0
          0 0 0 0 0 0 0 0 0 0 0 0
          0 0 0 0 0 0 0 0 0 0 0 0
          0 0 0 0 0 0 0 0 0 0 0 0
          0 0 0 0 0 0 0 0 0 0 0 0
          0 0 0 0 0 0 0 0 0 0 0 0
          0 0 0 0 0 0 0 0 0 0 0 0
          0 0 0 0 0 0 0 0 0 0 0 0
          0 0 0 0 0 0 0 0 0 0 0 0
          0 0 0 0 0 0 0 0 0 0 0 0
          0 0 0 0 0 0 0 0 0 0 0 0
          0 0 0 0 0 0 0 0 0 0 0 0
          0 0 0 0 0 0 0 0 0 0 0 0
          0 0 0 0 0 0 0 0 0 0 0 0
          0 0 0 0 0 0 0 0 0 0 0 0
          0 0 0 0 0 0 0 0 0 0 0 0
          0 0 0 0 0 0 0 0 0 0 0 0
          0 0 0 0 0 0 0 0 0 0 0 0
          0 0 0 0 0 0 0 0 0 0 0 0
          0 0 0 0 0 0 0 0 0 0 0 0
          0 0 0 0 0 0 0 0 0 0 0 0
          0 0 0 0 0 0 0 0 0 0 0 0
          0 0 0 0 0 0 0 0 0 0 0 0
          0 0 0 0 0 0 0 0 0 0 0 0
          0 0 0 0 0 0 0 0 0 0 0 0
          0 0 0 0 0 0 0 0 0 0 0 0
          0 0 0 0 0 0 0 0 0 0 0 0
          0 0 0 0 0 0 0 0 0 0 0 0
          0 0 0 0 0 0 0 0 0 0 0 0
          0 0 0 0 0 0 0 0 0 0 0 0
          0 0 0 0 0 0 0 0 0 0 0 0
          0 0 0 0 0 0 0 0 0 0 0 0
          0 0 0 0 0 0 0 0 0 0 0 0
          0 0 0 0 0 0 0 0 0 0 0 0
          0 0 0 0 0 0 0 0 0 0 0 0
          0 0 0 0 0 0 0 0 0 0 0 0
          0 0 0 0 0 0 0 0 0 0 0 0
          0 0 0 0 0 0 0 0 0 0 0 0
          0 0 0 0 0 0 0 0 0 0 0 0
          0 0 0 0 0 0 0 0 0 0 0 0
          0 0 0 0 0 0 0 0 0 0 0 0
          0 0 0 0 0 0 0 0 0 0 0 0
          0 0 0 0 0 0 0 0 0 0 0 0
          0 0 0 0 0 0 0 0 0 0 0 0
          0 0 0 0 0 0 0 0 0 0 0 0
          0 0 0 0 0 0 0 0 0 0 0 0
          0 0 0 0 0 0 0 0 0 0 0 0
          0 0 0 0 0 0 0 0 0 0 0 0
          0 0 0 0 0 0 0 0 0 0 0 0
          0 0 0 0 0 0 0 0 0 0 0 0
          0 0 0 0 0 0 0 0 0 0 0 0
          0 0 0 0 0 0 0 0 0 0 0 0
          0 0 0 0 0 0 0 0 0 0 0 0
          0 0 0 0 0 0 0 0 0 0 0 0
          0 0 0 0 0 0 0 0 0 0 0 0
          0 0 0 0 0 0 0 0 0 0 0 0
          0 0 0 0 0 0 0 0 0 0 0 0
          0 0 0 0 0 0 0 0 0 0 0 0
          0 0 0 0 0 0 0 0 0 0 0 0
          0 0 0 0 0 0 0 0 0 0 0 0
          0 0 0 0 0 0 0 0 0 0 0 0
          0 0 0 0 0 0 0 0 0 0 0 0
          0 0 0 0 0 0 0 0 0 0 0 0
          0 0 0 0 0 0 0 0 0 0 0 0
        </DataArray>
      </CellData>
      <Points>
        <DataArray type="Float32" Name="Coordinates" NumberOfComponents="3" format="ascii">
          0 0 0 0.333333 0 0 0 0.1 0 0.333333 0.1 0
          0.666667 0 0 0.666667 0.1 0 1 0 0 1 0.1 0
          1.33333 0 0 1.33333 0.1 0 1.66667 0 0 1.66667 0.1 0
          2 0 0 2 0.1 0 2.33333 0 0 2.33333 0.1 0
          2.66667 0 0 2.66667 0.1 0 3 0 0 3 0.1 0
          0 0.2 0 0.333333 0.2 0 0.666667 0.2 0 1 0.2 0
          1.33333 0.2 0 1.66667 0.2 0 2 0.2 0 2.33333 0.2 0
          2.66667 0.2 0 3 0.2 0 0 0.3 0 0.333333 0.3 0
          0.666667 0.3 0 1 0.3 0 1.33333 0.3 0 1.66667 0.3 0
          2 0.3 0 2.33333 0.3 0 2.66667 0.3 0 3 0.3 0
          0 0.4 0 0.333333 0.4 0 0.666667 0.4 0 1 0.4 0
          1.33333 0.4 0 1.66667 0.4 0 2 0.4 0 2.33333 0.4 0
          2.66667 0.4 0 3 0.4 0 0 0.5 0 0.333333 0.5 0
          0.666667 0.5 0 1 0.5 0 1.33333 0.5 0 1.66667 0.5 0
          2 0.5 0 2.33333 0.5 0 2.66667 0.5 0 3 0.5 0
          0 0.6 0 0.333333 0.6 0 0.666667 0.6 0 1 0.6 0
          1.33333 0.6 0 1.66667 0.6 0 2 0.6 0 2.33333 0.6 0
          2.66667 0.6 0 3 0.6 0 0 0.7 0 0.333333 0.7 0
          0.666667 0.7 0 1 0.7 0 1.33333 0.7 0 1.66667 0.7 0
          2 0.7 0 2.33333 0.7 0 2.66667 0.7 0 3 0.7 0
          0 0.8 0 0.333333 0.8 0 0.666667 0.8 0 1 0.8 0
          1.33333 0.8 0 1.66667 0.8 0 2 0.8 0 2.33333 0.8 0
          2.66667 0.8 0 3 0.8 0 0 0.9 0 0.333333 0.9 0
          0.666667 0.9 0 1 0.9 0 1.33333 0.9 0 1.66667 0.9 0
          2 0.9 0 2.33333 0.9 0 2.66667 0.9 0 3 0.9 0
          0 1 0 0.333333 1 0 0.666667 1 0 1 1 0
          1.33333 1 0 1.66667 1 0 2 1 0 2.33333 1 0
          2.66667 1 0 3 1 0 0 1.1 0 0.333333 1.1 0
          0.666667 1.1 0 1 1.1 0 1.33333 1.1 0 1.66667 1.1 0
          2 1.1 0 2.33333 1.1 0 2.66667 1.1 0 3 1.1 0
          0 1.2 0 0.333333 1.2 0 0.666667 1.2 0 1 1.2 0
          1.33333 1.2 0 1.66667 1.2 0 2 1.2 0 2.33333 1.2 0
          2.66667 1.2 0 3 1.2 0 0 1.3 0 0.333333 1.3 0
          0.666667 1.3 0 1 1.3 0 1.33333 1.3 0 1.66667 1.3 0
          2 1.3 0 2.33333 1.3 0 2.66667 1.3 0 3 1.3 0
          0 1.4 0 0.333333 1.4 0 0.666667 1.4 0 1 1.4 0
          1.33333 1.4 0 1.66667 1.4 0 2 1.4 0 2.33333 1.4 0
          2.66667 1.4 0 3 1.4 0 0 1.5 0 0.333333 1.5 0
          0.666667 1.5 0 1 1.5 0 1.33333 1.5 0 1.66667 1.5 0
          2 1.5 0 2.33333 1.5 0 2.66667 1.5 0 3 1.5 0
          0 1.6 0 0.333333 1.6 0 0.666667 1.6 0 1 1.6 0
          1.33333 1.6 0 1.66667 1.6 0 2 1.6 0 2.33333 1.6 0
          2.66667 1.6 0 3 1.6 0 0 1.7 0 0.333333 1.7 0
          0.666667 1.7 0 1 1.7 0 1.33333 1.7 0 1.66667 1.7 0
          2 1.7 0 2.33333 1.7 0 2.66667 1.7 0 3 1.7 0
          0 1.8 0 0.333333 1.8 0 0.666667 1.8 0 1 1.8 0
          1.33333 1.8 0 1.66667 1.8 0 2 1.8 0 2.33333 1.8 0
          2.66667 1.8 0 3 1.8 0 0 1.9 0 0.333333 1.9 0
          0.666667 1.9 0 1 1.9 0 1.33333 1.9 0 1.66667 1.9 0
          2 1.9 0 2.33333 1.9 0 2.66667 1.9 0 3 1.9 0
          0 2 0 0.333333 2 0 0.666667 2 0 1 2 0
          1.33333 2 0 1.66667 2 0 2 2 0 2.33333 2 0
          2.66667 2 0 3 2 0 0 2.1 0 0.333333 2.1 0
          0.666667 2.1 0 1 2.1 0 1.33333 2.1 0 1.66667 2.1 0
          2 2.1 0 2.33333 2.1 0 2.66667 2.1 0 3 2.1 0
          0 2.2 0 0.333333 2.2 0 0.666667 2.2 0 1 2.2 0
          1.33333 2.2 0 1.66667 2.2 0 2 2.2 0 2.33333 2.2 0
          2.66667 2.2 0 3 2.2 0 0 2.3 0 0.333333 2.3 0
          0.666667 2.3 0 1 2.3 0 1.33333 2.3 0 1.66667 2.3 0
          2 2.3 0 2.33333 2.3 0 2.66667 2.3 0 3 2.3 0
          0 2.4 0 0.333333 2.4 0 0.666667 2.4 0 1 2.4 0
          1.33333 2.4 0 1.66667 2.4 0 2 2.4 0 2.33333 2.4 0
          2.66667 2.4 0 3 2.4 0 0 2.5 0 0.333333 2.5 0
          0.666667 2.5 0 1 2.5 0 1.33333 2.5 0 1.66667 2.5 0
          2 2.5 0 2.33333 2.5 0 2.66667 2.5 0 3 2.5 0
          0 2.6 0 0.333333 2.6 0 0.666667 2.6 0 1 2.6 0
          1.33333 2.6 0 1.66667 2.6 0 2 2.6 0 2.33333 2.6 0
          2.66667 2.6 0 3 2.6 0 0 2.7 0 0.333333 2.7 0
          0.666667 2.7 0 1 2.7 0 1.33333 2.7 0 1.66667 2.7 0
          2 2.7 0 2.33333 2.7 0 2.66667 2.7 0 3 2.7 0
          0 2.8 0 0.333333 2.8 0 0.666667 2.8 0 1 2.8 0
          1.33333 2.8 0 1.66667 2.8 0 2 2.8 0 2.33333 2.8 0
          2.66667 2.8 0 3 2.8 0 0 2.9 0 0.333333 2.9 0
          0.666667 2.9 0 1 2.9 0 1.33333 2.9 0 1.66667 2.9 0
          2 2.9 0 2.33333 2.9 0 2.66667 2.9 0 3 2.9 0
          0 3 0 0.333333 3 0 0.666667 3 0 1 3 0
          1.33333 3 0 1.66667 3 0 2 3 0 2.33333 3 0
          2.66667 3 0 3 3 0 0 3.1 0 0.333333 3.1 0
          0.666667 3.1 0 1 3.1 0 1.33333 3.1 0 1.66667 3.1 0
          2 3.1 0 2.33333 3.1 0 2.66667 3.1 0 3 3.1 0
          0 3.2 0 0.333333 3.2 0 0.666667 3.2 0 1 3.2 0
          1.33333 3.2 0 1.66667 3.2 0 2 3.2 0 2.33333 3.2 0
          2.66667 3.2 0 3 3.2 0 0 3.3 0 0.333333 3.3 0
          0.666667 3.3 0 1 3.3 0 1.33333 3.3 0 1.66667 3.3 0
          2 3.3 0 2.33333 3.3 0 2.66667 3.3 0 3 3.3 0
          0 3.4 0 0.333333 3.4 0 0.666667 3.4 0 1 3.4 0
          1.33333 3.4 0 1.66667 3.4 0 2 3.4 0 2.33333 3.4 0
          2.66667 3.4 0 3 3.4 0 0 3.5 0 0.333333 3.5 0
          0.666667 3.5 0 1 3.5 0 1.33333 3.5 0 1.66667 3.5 0
          2 3.5 0 2.33333 3.5 0 2.66667 3.5 0 3 3.5 0
          0 3.6 0 0.333333 3.6 0 0.666667 3.6 0 1 3.6 0
          1.33333 3.6 0 1.66667 3.6 0 2 3.6 0 2.33333 3.6 0
          2.66667 3.6 0 3 3.6 0 0 3.7 0 0.333333 3.7 0
          0.666667 3.7 0 1 3.7 0 1.33333 3.7 0 1.66667 3.7 0
          2 3.7 0 2.33333 3.7 0 2.66667 3.7 0 3 3.7 0
          0 3.8 0 0.333333 3.8 0 0.666667 3.8 0 1 3.8 0
          1.33333 3.8 0 1.66667 3.8 0 2 3.8 0 2.33333 3.8 0
          2.66667 3.8 0 3 3.8 0 0 3.9 0 0.333333 3.9 0
          0.666667 3.9 0 1 3.9 0 1.33333 3.9 0 1.66667 3.9 0
          2 3.9 0 2.33333 3.9 0 2.66667 3.9 0 3 3.9 0
          0 4 0 0.333333 4 0 0.666667 4 0 1 4 0
          1.33333 4 0 1.66667 4 0 2 4 0 2.33333 4 0
          2.66667 4 0 3 4 0 0 4.1 0 0.333333 4.1 0
          0.666667 4.1 0 1 4.1 0 1.33333 4.1 0 1.66667 4.1 0
          2 4.1 0 2.33333 4.1 0 2.66667 4.1 0 3 4.1 0
          0 4.2 0 0.333333 4.2 0 0.666667 4.2 0 1 4.2 0
          1.33333 4.2 0 1.66667 4.2 0 2 4.2 0 2.33333 4.2 0
          2.66667 4.2 0 3 4.2 0 0 4.3 0 0.333333 4.3 0
          0.666667 4.3 0 1 4.3 0 1.33333 4.3 0 1.66667 4.3 0
          2 4.3 0 2.33333 4.3 0 2.66667 4.3 0 3 4.3 0
          0 4.4 0 0.333333 4.4 0 0.666667 4.4 0 1 4.4 0
          1.33333 4.4 0 1.66667 4.4 0 2 4.4 0 2.33333 4.4 0
          2.66667 4.4 0 3 4.4 0 0 4.5 0 0.333333 4.5 0
          0.666667 4.5 0 1 4.5 0 1.33333 4.5 0 1.66667 4.5 0
          2 4.5 0 2.33333 4.5 0 2.66667 4.5 0 3 4.5 0
          0 4.6 0 0.333333 4.6 0 0.666667 4.6 0 1 4.6 0
          1.33333 4.6 0 1.66667 4.6 0 2 4.6 0 2.33333 4.6 0
          2.66667 4.6 0 3 4.6 0 0 4.7 0 0.333333 4.7 0
          0.666667 4.7 0 1 4.7 0 1.33333 4.7 0 1.66667 4.7 0
          2 4.7 0 2.33333 4.7 0 2.66667 4.7 0 3 4.7 0
          0 4.8 0 0.333333 4.8 0 0.666667 4.8 0 1 4.8 0
          1.33333 4.8 0 1.66667 4.8 0 2 4.8 0 2.33333 4.8 0
          2.66667 4.8 0 3 4.8 0 0 4.9 0 0.333333 4.9 0
          0.666667 4.9 0 1 4.9 0 1.33333 4.9 0 1.66667 4.9 0
          2 4.9 0 2.33333 4.9 0 2.66667 4.9 0 3 4.9 0
          0 5 0 0.333333 5 0 0.666667 5 0 1 5 0
          1.33333 5 0 1.66667 5 0 2 5 0 2.33333 5 0
          2.66667 5 0 3 5 0 0 5.1 0 0.333333 5.1 0
          0.666667 5.1 0 1 5.1 0 1.33333 5.1 0 1.66667 5.1 0
          2 5.1 0 2.33333 5.1 0 2.66667 5.1 0 3 5.1 0
          0 5.2 0 0.333333 5.2 0 0.666667 5.2 0 1 5.2 0
          1.33333 5.2 0 1.66667 5.2 0 2 5.2 0 2.33333 5.2 0
          2.66667 5.2 0 3 5.2 0 0 5.3 0 0.333333 5.3 0
          0.666667 5.3 0 1 5.3 0 1.33333 5.3 0 1.66667 5.3 0
          2 5.3 0 2.33333 5.3 0 2.66667 5.3 0 3 5.3 0
          0 5.4 0 0.333333 5.4 0 0.666667 5.4 0 1 5.4 0
          1.33333 5.4 0 1.66667 5.4 0 2 5.4 0 2.33333 5.4 0
          2.66667 5.4 0 3 5.4 0 0 5.5 0 0.333333 5.5 0
          0.666667 5.5 0 1 5.5 0 1.33333 5.5 0 1.66667 5.5 0
          2 5.5 0 2.33333 5.5 0 2.66667 5.5 0 3 5.5 0
          0 5.6 0 0.333333 5.6 0 0.666667 5.6 0 1 5.6 0
          1.33333 5.6 0 1.66667 5.6 0 2 5.6 0 2.33333 5.6 0
          2.66667 5.6 0 3 5.6 0 0 5.7 0 0.333333 5.7 0
          0.666667 5.7 0 1 5.7 0 1.33333 5.7 0 1.66667 5.7 0
          2 5.7 0 2.33333 5.7 0 2.66667 5.7 0 3 5.7 0
          0 5.8 0 0.333333 5.8 0 0.666667 5.8 0 1 5.8 0
          1.33333 5.8 0 1.66667 5.8 0 2 5.8 0 2.33333 5.8 0
          2.66667 5.8 0 3 5.8 0 0 5.9 0 0.333333 5.9 0
          0.666667 5.9 0 1 5.9 0 1.33333 5.9 0 1.66667 5.9 0
          2 5.9 0 2.33333 5.9 0 2.66667 5.9 0 3 5.9 0
          0 6 0 0.333333 6 0 0.666667 6 0 1 6 0
          1.33333 6 0 1.66667 6 0 2 6 0 2.33333 6 0
          2.66667 6 0 3 6 0 0 6.1 0 0.333333 6.1 0
          0.666667 6.1 0 1 6.1 0 1.33333 6.1 0 1.66667 6.1 0
          2 6.1 0 2.33333 6.1 0 2.66667 6.1 0 3 6.1 0
          0 6.2 0 0.333333 6.2 0 0.666667 6.2 0 1 6.2 0
          1.33333 6.2 0 1.66667 6.2 0 2 6.2 0 2.33333 6.2 0
          2.66667 6.2 0 3 6.2 0 0 6.3 0 0.333333 6.3 0
          0.666667 6.3 0 1 6.3 0 1.33333 6.3 0 1.66667 6.3 0
          2 6.3 0 2.33333 6.3 0 2.66667 6.3 0 3 6.3 0
          0 6.4 0 0.333333 6.4 0 0.666667 6.4 0 1 6.4 0
          1.33333 6.4 0 1.66667 6.4 0 2 6.4 0 2.33333 6.4 0
          2.66667 6.4 0 3 6.4 0 0 6.5 0 0.333333 6.5 0
          0.666667 6.5 0 1 6.5 0 1.33333 6.5 0 1.66667 6.5 0
          2 6.5 0 2.33333 6.5 0 2.66667 6.5 0 3 6.5 0
          0 6.6 0 0.333333 6.6 0 0.666667 6.6 0 1 6.6 0
          1.33333 6.6 0 1.66667 6.6 0 2 6.6 0 2.33333 6.6 0
          2.66667 6.6 0 3 6.6 0 0 6.7 0 0.333333 6.7 0
          0.666667 6.7 0 1 6.7 0 1.33333 6.7 0 1.66667 6.7 0
          2 6.7 0 2.33333 6.7 0 2.66667 6.7 0 3 6.7 0
          0 6.8 0 0.333333 6.8 0 0.666667 6.8 0 1 6.8 0
          1.33333 6.8 0 1.66667 6.8 0 2 6.8 0 2.33333 6.8 0
          2.66667 6.8 0 3 6.8 0 0 6.9 0 0.333333 6.9 0
          0.666667 6.9 0 1 6.9 0 1.33333 6.9 0 1.66667 6.9 0
          2 6.9 0 2.33333 6.9 0 2.66667 6.9 0 3 6.9 0
          0 7 0 0.333333 7 0 0.666667 7 0 1 7 0
          1.33333 7 0 1.66667 7 0 2 7 0 2.33333 7 0
          2.66667 7 0 3 7 0 0 7.1 0 0.333333 7.1 0
          0.666667 7.1 0 1 7.1 0 1.33333 7.1 0 1.66667 7.1 0
          2 7.1 0 2.33333 7.1 0 2.66667 7.1 0 3 7.1 0
          0 7.2 0 0.333333 7.2 0 0.666667 7.2 0 1 7.2 0
          1.33333 7.2 0 1.66667 7.2 0 2 7.2 0 2.33333 7.2 0
          2.66667 7.2 0 3 7.2 0 0 7.3 0 0.333333 7.3 0
          0.666667 7.3 0 1 7.3 0 1.33333 7.3 0 1.66667 7.3 0
          2 7.3 0 2.33333 7.3 0 2.66667 7.3 0 3 7.3 0
          0 7.4 0 0.333333 7.4 0 0.666667 7.4 0 1 7.4 0
          1.33333 7.4 0 1.66667 7.4 0 2 7.4 0 2.33333 7.4 0
          2.66667 7.4 0 3 7.4 0 0 7.5 0 0.333333 7.5 0
          0.666667 7.5 0 1 7.5 0 1.33333 7.5 0 1.66667 7.5 0
          2 7.5 0 2.33333 7.5 0 2.66667 7.5 0 3 7.5 0
          0 7.6 0 0.333333 7.6 0 0.666667 7.6 0 1 7.6 0
          1.33333 7.6 0 1.66667 7.6 0 2 7.6 0 2.33333 7.6 0
          2.66667 7.6 0 3 7.6 0 0 7.7 0 0.333333 7.7 0
          0.666667 7.7 0 1 7.7 0 1.33333 7.7 0 1.66667 7.7 0
          2 7.7 0 2.33333 7.7 0 2.66667 7.7 0 3 7.7 0
          0 7.8 0 0.333333 7.8 0 0.666667 7.8 0 1 7.8 0
          1.33333 7.8 0 1.66667 7.8 0 2 7.8 0 2.33333 7.8 0
          2.66667 7.8 0 3 7.8 0 0 7.9 0 0.333333 7.9 0
          0.666667 7.9 0 1 7.9 0 1.33333 7.9 0 1.66667 7.9 0
          2 7.9 0 2.33333 7.9 0 2.66667 7.9 0 3 7.9 0
          0 8 0 0.333333 8 0 0.666667 8 0 1 8 0
          1.33333 8 0 1.66667 8 0 2 8 0 2.33333 8 0
          2.66667 8 0 3 8 0 0 8.1 0 0.333333 8.1 0
          0.666667 8.1 0 1 8.1 0 1.33333 8.1 0 1.66667 8.1 0
          2 8.1 0 2.33333 8.1 0 2.66667 8.1 0 3 8.1 0
          0 8.2 0 0.333333 8.2 0 0.666667 8.2 0 1 8.2 0
          1.33333 8.2 0 1.66667 8.2 0 2 8.2 0 2.33333 8.2 0
          2.66667 8.2 0 3 8.2 0 0 8.3 0 0.333333 8.3 0
          0.666667 8.3 0 1 8.3 0 1.33333 8.3 0 1.66667 8.3 0
          2 8.3 0 2.33333 8.3 0 2.66667 8.3 0 3 8.3 0
          0 8.4 0 0.333333 8.4 0 0.666667 8.4 0 1 8.4 0
          1.33333 8.4 0 1.66667 8.4 0 2 8.4 0 2.33333 8.4 0
          2.66667 8.4 0 3 8.4 0 0 8.5 0 0.333333 8.5 0
          0.666667 8.5 0 1 8.5 0 1.33333 8.5 0 1.66667 8.5 0