<?xml version="1.0"?>
<VTKFile type="UnstructuredGrid" version="0.1" byte_order="LittleEndian">
  <UnstructuredGrid>
    <Piece NumberOfCells="1670" NumberOfPoints="911">
      <PointData Scalars="S_aq">
        <DataArray type="Float32" Name="S_aq" NumberOfComponents="1" format="ascii">
          0.980217 0.986861 0.992337 0.0633499 0.0695727 0.0705926 0.0620301 0.0706681 0.270651 0.139564 1 1
          1 0.0654348 0.859214 0.769467 0.917355 1 0.998059 0.994851 0.925587 0.920736 0.965326 0.996963
          0.997717 0.999316 0.95596 0.904943 0.985936 0.994251 0.98745 0.883886 0.861893 0.999187 0.999938 0.31293
          0.960982 1 0.999742 1 0.998713 0.997195 0.995679 0.862709 0.934057 0.923585 0.999928 0.992635
          0.9632 1 1 0.133476 0.66122 0.999419 0.971236 0.664226 0.782469 0.679647 1 1
          1 0.999999 1 0.999916 0.0627459 0.0628602 0.077191 0.767663 1 0.0727478 1 0.817789
          0.965261 0.981108 0.992736 0.972052 0.945515 0.994755 1 1 1 0.0617446 0.0616614 0.0701121
          0.978783 0.999895 0.997808 0.0884896 0.198317 0.322088 0.696777 0.827674 0.728786 1 1 1
          0.0629556 0.0635444 0.0868846 1 1 0.99897 0.987138 1 0.999827 0.0695875 0.727361 0.0774566
          0.102009 1 0.999377 0.0999089 0.991325 0.996012 0.998395 1 0.0808681 0.368394 0.495692 0.934796
          0.614088 1 0.999995 0.0613549 0.999615 0.195964 0.999615 1 0.0679611 0.724326 0.0813658 0.845076
          1 0.0862987 0.997529 0.734083 0.663572 0.872863 1 0.999531 0.0670539 0.602223 0.159274 0.614349
          1 1 1 1 1 1 1 1 1 1 1 0.954489
          0.994387 1 0.0735485 0.0885006 0.218157 1 1 1 0.999998 1 1 1
          1 0.999934 1 1 1 1 0.743021 0.140243 0.195569 0.828879 1 1
          0.769853 0.871602 0.922247 0.762137 1 1 1 1 1 1 0.999884 1
          1 1 1 1 1 1 0.479135 0.574679 0.867358 1 1 1
          1 1 1 0.677782 1 1 1 1 1 1 1 1
          1 1 1 0.0712216 0.236452 1 1 0.914488 0.997795 0.963202 0.990361 0.999999
          1 1 1 1 0.802619 1 0.907585 1 1 1 0.971281 1
          1 0.957721 0.969337 0.999494 0.996611 1 1 1 1 1 1 1
          1 1 1 1 1 1 0.999164 1 1 1 0.551846 0.998504
          1 1 1 1 1 1 1 0.854278 1 1 0.999605 1
          0.830285 0.999997 1 1 1 1 1 1 0.983271 1 1 0.359637
          0.840922 0.991641 1 1 1 1 1 0.969634 1 1 1 1
          1 0.273374 1 1 1 1 1 1 1 0.842546 0.999678 0.916614
          1 0.999951 1 1 0.978473 1 1 1 1 1 1 1
          1 1 1 0.374831 1 1 1 1 1 0.637103 1 1
          0.106045 1 1 1 1 1 1 1 1 1 1 1
          0.849386 1 1 1 1 1 0.807828 1 1 1 1 1
          1 1 1 0.997908 0.998792 1 0.999949 1 1 1 1 1
          1 1 1 1 1 0.610039 0.887104 0.51787 1 1 1 1
          1 1 1 1 1 1 1 1 1 1 1 1
          1 0.999998 1 1 1 1 1 1 1 0.999832 1 1
          1 0.946824 0.916247 0.986767 0.764893 0.875915 1 0.994268 1 0.964352 1 1
          1 1 0.999643 1 1 1 1 1 1 0.999527 1 1
          0.773837 0.353209 0.998756 1 0.846381 0.999963 0.99529 1 1 0.998369 0.969623 0.12961
          0.736707 0.0988836 0.834153 0.773922 1 1 1 1 0.991876 1 1 1
          0.956848 0.88429 1 1 1 1 1 1 1 1 1 1
          1 0.244928 1 0.990375 1 1 1 0.916052 0.960029 1 1 1
          1 1 1 1 1 1 1 0.994899 1 1 1 0.83506
          1 1 1 0.872537 1 1 0.0831183 0.074383 1 1 1 1
          1 1 0.981721 1 1 1 1 1 1 1 1 1
          1 1 1 1 1 1 1 0.0707864 0.191942 0.968541 0.639835 0.993751
          1 1 1 1 1 1 0.35492 1 1 1 1 1
          1 0.653794 1 1 1 1 1 1 1 0.147052 0.155364 0.306934
          0.733318 0.869391 0.951853 0.995716 1 1 0.586693 1 1 0.813042 1 0.776353
          1 0.846383 1 1 1 1 1 1 1 1 1 1
          1 1 1 1 1 1 1 0.885671 0.882266 0.936706 1 1
          1 1 1 1 0.928161 0.583669 0.967424 0.975326 1 1 1 1
          0.858201 0.96633 1 1 1 1 1 1 1 1 1 1
          1 1 0.996242 1 1 1 1 1 1 1 1 1
          1 1 1 1 1 1 1 1 1 0.989495 1 0.998897
          1 1 1 0.355361 0.324119 0.978046 1 1 1 1 1 1
          1 1 1 1 1 1 1 1 1 1 1 1
          1 1 1 1 1 1 1 1 1 1 1 1
          1 1 1 1 0.492261 1 1 1 1 0.99858 1 1
          1 1 1 1 1 1 1 1 0.895092 1 1 0.99622
          0.998452 0.926275 1 1 1 0.93942 1 1 1 1 0.986098 1
          1 1 0.213881 0.194524 0.942903 1 1 1 1 1 1 0.998998
          1 1 1 1 1 0.94561 0.951486 1 1 1 1 1
          1 0.940794 0.613089 1 1 1 1 1 1 1 1 1
          1 1 1 0.990682 1 1 1 1 1 1 1 0.994139
          1 1 1 1 0.875941 1 1 1 1 1 1 1
          1 0.179747 0.801724 0.349275 1 1 1 0.753276 0.694179 1 1 1
          1 0.910267 0.891348 0.47683 1 1 0.882803 0.13291 1 1 1 1
          0.999866 1 1 1 0.284909 0.0706596 1 1 1 0.106936 0.834333 1
          1 1 1 1 1 1 1 1 1 1 1 1
          1 1 1 1 1 1 0.991205 1 1 1 1 1
          1 1 1 1 1 1 1 1 1 1 0.0783693 0.0752369
          0.667324 1 1 1 0.204942 1 1 1 1 1 1 1
          1 1 1 1 1 1 0.9814 1 0.999998 1 1 1
          0.073289 0.0715193 0.377711 1 1 1 0.0908346 0.0842828 0.702693 1 1 1
          1 1 1 0.399619 1 1 1 1 1 1 0.986822 1
          1 0.990909 1 1 1 0.0798378 1 1 1 0.980436 1 0.198628
          1 0.526875 1 1 1 1 1 0.268273 1 1 1
        </DataArray>
        <DataArray type="Float32" Name="p_aq" NumberOfComponents="1" format="ascii">
          96538.6 97104.1 95925.4 101279 99916.2 99950.9 101229 100590 99538.9 99561.7 90794.2 90780.2
          91757.8 100664 90753.3 91734.2 91733.1 91772.2 90753.4 96307.7 96359.8 97054.7 96009.8 95076.9
          95694 94621.4 97570.9 98049.1 94180.4 93721.3 93251.2 95723 96890.9 95617.7 92865.1 98445.5
          97025.9 92242.1 93254.2 92710.7 97012.7 96663.2 97866.9 94299.5 94616.1 93422.8 93628.9 97672.3
          93625.2 94278 93498.9 99079.5 98515.4 92243.5 92783 95655.9 95326.9 94675.6 90757.1 90755.3
          91831.6 95638.5 94675.2 95260.1 101009 100929 99573.9 94262.4 94247.6 99983.2 91462.7 96263.7
          94928.3 95079.3 97141.6 94142.6 95557.2 95034.5 90770.6 90764.2 91723.4 101182 101126 99863.1
          98543.6 97570.6 97964.8 98670 98000.3 97617.7 93695.3 93314.6 92714.9 93711.1 92744.1 93313.8
          100839 100748 99593.6 90754.2 90753.6 91729.2 95584.4 91574.8 96311.2 99990.1 96342.8 99257.5
          98639.1 92353.6 96172.6 98887.2 94694 94281.5 94259 92440.9 98979.2 97881 98865.3 92425.7
          96636.3 90759.8 96602.6 101055 94944.3 98780.6 92547.9 91555.7 100147 98756.6 98890.5 92517.8
          92539.9 99787.8 91538 97035 97980.7 94991.4 91412.8 97092.3 100249 97126.4 98444.2 97798
          96766.4 95889.9 96389.9 96466.5 93167.4 93215.9 93962 93922.2 95861.7 95462.9 96386.9 98938.8
          98475.5 97818.3 100488 100483 99706.5 95660.3 94364.6 96367.9 97954.2 97561.7 97452 96855.9
          95877.7 98210.1 95001.2 91477.9 92182.3 92426.8 99302.3 100378 100276 99163.9 93399.4 94492.9
          97727.2 95722.7 96526.7 96576.4 94817.4 95274.4 94937.8 95224.8 96261.5 96036.6 96670.4 93067.1
          92429.1 95503 94922.8 96057.5 95891.1 95280.7 99616.1 99191.6 98441.7 95126.5 93912.1 95095
          96076 95380.8 93455.9 99437.9 96113.1 92961.5 93289.3 93634 95589 95379.1 93872.4 91020.3
          90943.2 92016 96637.9 100536 99627.4 94071.9 93293.6 98970.9 98330.2 96998.8 96015.2 96459.2
          94671 94264.9 95694.4 96544.6 95055 94443.7 94158.2 95981.9 96748.1 94997.6 95015.8 95290.7
          95071.9 98624.5 98247.5 97331.1 98011.8 97248.7 92607.5 95566 91273.1 92949.6 92960.8 94688.7
          94819.9 92352.3 95711.8 94735.2 92152 93133 94028 97057 98038 96405.8 99539.9 95131
          91595.2 95883.4 95785.7 93989.4 94646.1 93516 93722.8 98020.5 97244.1 93055.4 97233.3 94336.8
          98910.8 98233.3 95683.7 96279.9 95417.1 90886.4 90845.7 91783.5 97897.1 94409.4 96458.3 99911
          99026.4 97372.9 95106.1 95405.5 95013.1 95314.4 95507.9 98780.4 91776.8 94751.9 93723.6 93784.1
          93111.6 100129 97344.9 91808.7 91751.5 92471.3 94598.7 93579.9 94114 97568.2 98056.7 98890.3
          95235.6 96770.7 97921.4 94327.9 93516 96876.7 94882.6 91171 99019 92755.8 96948 97070.9
          94355.5 92496 95120.9 99768 94520.4 92385.8 95425.7 95245.3 94234.4 98590.4 94601.6 94144.4
          100445 95239.8 90816.1 91538.2 91124.9 94440.9 97846.5 95222.7 92658.7 92132.1 95383.7 95993.1
          93655.2 96892.8 91775.6 91289.8 97133.6 96332.4 94274.2 95319.1 95619 95449.8 95010.5 95327.8
          95484 95423.2 95284.9 98514.9 98341.5 97425.9 97927.4 95504.1 94997.9 96077.1 97079.7 94643.1
          95373.8 94975.4 94325.3 94476.2 94897.4 99255.3 98286.3 99681.3 94007.6 93166.2 93751.7 91617.7
          90818.1 94165.6 93294.6 90893.1 91743.9 91647.7 92705.3 94988.1 94873.5 92286.7 91785.8 94670.4
          95075.3 97879.8 95727.5 96512.9 96039.2 93862.2 95196.8 95615.9 95881.5 96001 95467.5 95504.2
          94794.4 97037.2 96604.9 95958.1 97729.2 95934.1 95427.6 98805.6 92235.5 95065.4 96902.7 96126.5
          95723.3 95906.3 98169.1 95422.8 95243 94786.3 96437 94696.5 95508.5 96587.2 95758 97505.7
          99208.8 99662 98471.8 95095 98033.1 95373.4 94909.5 96208.8 96531.4 97287 97259.7 100369
          99367 100433 98884.2 96568.8 95788.2 95962.9 94715.1 94114 96538.6 97762.3 96997.9 97581.1
          98895.8 99131.9 93401.2 93534.4 95019.9 94541.9 92388.5 92759.2 94360.7 92830.5 92512.3 91961.8
          96517.8 99861.6 94370.2 98035.4 94149.2 93066 96984.6 94689.3 93475.8 96404.9 94116.4 94622.4
          95731.3 94096.6 93376.1 93272.4 98038 97057 93133 93999.8 92152 96076 94046.4 97596.6
          91577.5 94204.8 96800.1 93715.6 94851.9 93352.6 100464 100491 95087.9 92293.4 93444.2 97051.3
          97607.5 97135.3 98347 97402.4 91994.7 90850.1 96457.8 96569.4 93215.9 94248.7 99019 91171
          94313 96799.2 96456.3 93571.1 91489.8 94075.4 92333 100530 99728.7 98640.4 99509 98217.4
          96169.7 92674.2 92151.2 93742.8 91283.8 91136.9 99954.2 93500.2 94175.1 96568.9 91767.5 92687.2
          96995.7 98619.7 91029.2 90950.9 93757.9 97146.2 97733.8 95414.5 92469.1 99910.2 100256 100153
          99234.6 99028.6 98826.1 98256.1 92957.5 92756.3 99543.7 91421.4 96364.8 94178.2 95604.7 95088.5
          93024.4 95343.2 94241.7 95064.9 94625.3 94491.5 97865 97851.3 97064.1 97142.4 95270.5 95681.2
          94767 92269.2 92720.6 93371.3 90763.6 90800.1 91520.2 94916.4 96406.2 94126 93246.6 93577.4
          93655.7 94259 95282.7 92939.9 95700.4 99658.6 98860.7 98568.2 91918.4 90930.1 91037.2 92026.2
          97525.6 96251.2 93346.7 95074.9 94381.6 94327.9 95989.4 95500.3 95786.5 95448.5 94602.7 94867.5
          94269.6 97930 98641.5 95376.2 95948.1 95052.7 95193.9 95823.4 91678.6 92069.9 92678.1 95951.3
          97066.3 95095 94114 94988.6 97477.5 97716.9 98445.2 91778.3 94199.6 98003.6 97664.5 97261.9
          95152.6 95273.7 97038.3 100171 100258 99097.2 94443.3 90723.5 90738.9 91602.7 97082.8 97862.5
          92222.7 92851.4 93935 94760.2 94395 96272.3 96653.5 95011.1 94589.4 95630.3 96724.4 96419.6
          95064.6 94311.1 91700.9 96129.4 95611 92671.2 93635.7 95248.1 95414.4 92518.7 92844.9 93693
          93083.3 93811.6 98571.1 95434.4 99891.8 98145.1 98155 96361.4 96179.9 98785.3 94733 95598.8
          98038 97057 96375.8 93133 92152 93967.1 91684.6 95466.9 99559 94887 95045.4 96828.9
          96075.2 97369.6 97228.2 93068.7 93901.2 97885 93745.6 96485.2 92255.1 92902 94868.6 95555
          94906.7 95759.3 100309 100372 99374.2 93150.1 96677.4 94710.9 91393.7 92141.8 93604.2 95530.7
          95227.1 95648.6 95268.1 95037.8 92394.7 99421.8 99405.6 95709.6 97413.8 97329.5 98019.9 91186.2
          93817.2 99295.1 99355.5 98695 96150.7 97510.6 96076 93468.1 93105.9 92324.8 95793.6 94147.7
          93186.8 96799.8 96885.7 93490.9 96298.9 99019 91171 98392.9 94235.6 94124.2 96629.2 98593.2
          96038.8 91490.8 96590.6 94596.2 98643.1 95063.1 95716.5 96945.7 92600.6 96542.7 96171.5 90852.9
          95676.3 100421 99644.9 100031 96418.5 93333.9 95363.4 98364.5 98933.6 95675 96514.8 95180.5
          96842.4 93534.9 99319.6 99920.7 94039.6 96298.4 94150 100428 95268 92548.2 93120 93661.5
          98664.5 98080.9 97548.2 91691.5 99533.6 100576 90714.5 90772.3 91749.8 100463 99447.8 92905.3
          98304.9 94116.1 94630.7 97101.5 96576.9 96246.9 95532 96615.2 94958.4 95677.5 94587.3 95606.4
          95596.5 94939.3 96267.7 96996.6 96636.3 97844.3 98993.6 97952.5 98516 92213.9 93254.5 92688.5
          97639.3 97600 93603.8 94264.2 93479.3 96933.8 97721 90721.2 90715 91797.2 100521 100537
          99420.2 95948.5 95249.6 91416.4 99808.1 94241 96952.8 95640.5 95566.1 96909.4 96195.5 94297.4
          95011.2 93735.6 94183.3 97021.7 97472.8 92192.5 99022.5 93235.6 97954.7 90711.3 90710.7 91667.2
          100550 100562 99537.9 90754.8 90740.9 91702.7 100468 100489 99508.3 93305.2 97889.6 95603.4
          94877.4 91543.2 96302.7 99677.4 94085.4 93319.4 98502.2 94850.2 96156 92342.8 98867 92377.7
          92707 98839.3 92426.9 98771.5 90729.8 100499 96276 94924.4 92471.4 98745.7 91494.3 99740
          91541.3 99669.4 92533.3 98660.8 94621 94095.2 91386.1 99835.1 97085.3 94008.8 93604.6
        </DataArray>
        <DataArray type="Float32" Name="rho_aq" NumberOfComponents="1" format="ascii">
          1000 1000 1000 1000 1000 1000 1000 1000 1000 1000 1000 1000
          1000 1000 1000 1000 1000 1000 1000 1000 1000 1000 1000 1000
          1000 1000 1000 1000 1000 1000 1000 1000 1000 1000 1000 1000
          1000 1000 1000 1000 1000 1000 1000 1000 1000 1000 1000 1000
          1000 1000 1000 1000 1000 1000 1000 1000 1000 1000 1000 1000
          1000 1000 1000 1000 1000 1000 1000 1000 1000 1000 1000 1000
          1000 1000 1000 1000 1000 1000 1000 1000 1000 1000 1000 1000
          1000 1000 1000 1000 1000 1000 1000 1000 1000 1000 1000 1000
          1000 1000 1000 1000 1000 1000 1000 1000 1000 1000 1000 1000
          1000 1000 1000 1000 1000 1000 1000 1000 1000 1000 1000 1000
          1000 1000 1000 1000 1000 1000 1000 1000 1000 1000 1000 1000
          1000 1000 1000 1000 1000 1000 1000 1000 1000 1000 1000 1000
          1000 1000 1000 1000 1000 1000 1000 1000 1000 1000 1000 1000
          1000 1000 1000 1000 1000 1000 1000 1000 1000 1000 1000 1000
          1000 1000 1000 1000 1000 1000 1000 1000 1000 1000 1000 1000
          1000 1000 1000 1000 1000 1000 1000 1000 1000 1000 1000 1000
          1000 1000 1000 1000 1000 1000 1000 1000 1000 1000 1000 1000
          1000 1000 1000 1000 1000 1000 1000 1000 1000 1000 1000 1000
          1000 1000 1000 1000 1000 1000 1000 1000 1000 1000 1000 1000
          1000 1000 1000 1000 1000 1000 1000 1000 1000 1000 1000 1000
          1000 1000 1000 1000 1000 1000 1000 1000 1000 1000 1000 1000
          1000 1000 1000 1000 1000 1000 1000 1000 1000 1000 1000 1000
          1000 1000 1000 1000 1000 1000 1000 1000 1000 1000 1000 1000
          1000 1000 1000 1000 1000 1000 1000 1000 1000 1000 1000 1000
          1000 1000 1000 1000 1000 1000 1000 1000 1000 1000 1000 1000
          1000 1000 1000 1000 1000 1000 1000 1000 1000 1000 1000 1000
          1000 1000 1000 1000 1000 1000 1000 1000 1000 1000 1000 1000
          1000 1000 1000 1000 1000 1000 1000 1000 1000 1000 1000 1000
          1000 1000 1000 1000 1000 1000 1000 1000 1000 1000 1000 1000
          1000 1000 1000 1000 1000 1000 1000 1000 1000 1000 1000 1000
          1000 1000 1000 1000 1000 1000 1000 1000 1000 1000 1000 1000
          1000 1000 1000 1000 1000 1000 1000 1000 1000 1000 1000 1000
          1000 1000 1000 1000 1000 1000 1000 1000 1000 1000 1000 1000
          1000 1000 1000 1000 1000 1000 1000 1000 1000 1000 1000 1000
          1000 1000 1000 1000 1000 1000 1000 1000 1000 1000 1000 1000
          1000 1000 1000 1000 1000 1000 1000 1000 1000 1000 1000 1000
          1000 1000 1000 1000 1000 1000 1000 1000 1000 1000 1000 1000
          1000 1000 1000 1000 1000 1000 1000 1000 1000 1000 1000 1000
          1000 1000 1000 1000 1000 1000 1000 1000 1000 1000 1000 1000
          1000 1000 1000 1000 1000 1000 1000 1000 1000 1000 1000 1000
          1000 1000 1000 1000 1000 1000 1000 1000 1000 1000 1000 1000
          1000 1000 1000 1000 1000 1000 1000 1000 1000 1000 1000 1000
          1000 1000 1000 1000 1000 1000 1000 1000 1000 1000 1000 1000
          1000 1000 1000 1000 1000 1000 1000 1000 1000 1000 1000 1000
          1000 1000 1000 1000 1000 1000 1000 1000 1000 1000 1000 1000
          1000 1000 1000 1000 1000 1000 1000 1000 1000 1000 1000 1000
          1000 1000 1000 1000 1000 1000 1000 1000 1000 1000 1000 1000
          1000 1000 1000 1000 1000 1000 1000 1000 1000 1000 1000 1000
          1000 1000 1000 1000 1000 1000 1000 1000 1000 1000 1000 1000
          1000 1000 1000 1000 1000 1000 1000 1000 1000 1000 1000 1000
          1000 1000 1000 1000 1000 1000 1000 1000 1000 1000 1000 1000
          1000 1000 1000 1000 1000 1000 1000 1000 1000 1000 1000 1000
          1000 1000 1000 1000 1000 1000 1000 1000 1000 1000 1000 1000
          1000 1000 1000 1000 1000 1000 1000 1000 1000 1000 1000 1000
          1000 1000 1000 1000 1000 1000 1000 1000 1000 1000 1000 1000
          1000 1000 1000 1000 1000 1000 1000 1000 1000 1000 1000 1000
          1000 1000 1000 1000 1000 1000 1000 1000 1000 1000 1000 1000
          1000 1000 1000 1000 1000 1000 1000 1000 1000 1000 1000 1000
          1000 1000 1000 1000 1000 1000 1000 1000 1000 1000 1000 1000
          1000 1000 1000 1000 1000 1000 1000 1000 1000 1000 1000 1000
          1000 1000 1000 1000 1000 1000 1000 1000 1000 1000 1000 1000
          1000 1000 1000 1000 1000 1000 1000 1000 1000 1000 1000 1000
          1000 1000 1000 1000 1000 1000 1000 1000 1000 1000 1000 1000
          1000 1000 1000 1000 1000 1000 1000 1000 1000 1000 1000 1000
          1000 1000 1000 1000 1000 1000 1000 1000 1000 1000 1000 1000
          1000 1000 1000 1000 1000 1000 1000 1000 1000 1000 1000 1000
          1000 1000 1000 1000 1000 1000 1000 1000 1000 1000 1000 1000
          1000 1000 1000 1000 1000 1000 1000 1000 1000 1000 1000 1000
          1000 1000 1000 1000 1000 1000 1000 1000 1000 1000 1000 1000
          1000 1000 1000 1000 1000 1000 1000 1000 1000 1000 1000 1000
          1000 1000 1000 1000 1000 1000 1000 1000 1000 1000 1000 1000
          1000 1000 1000 1000 1000 1000 1000 1000 1000 1000 1000 1000
          1000 1000 1000 1000 1000 1000 1000 1000 1000 1000 1000 1000
          1000 1000 1000 1000 1000 1000 1000 1000 1000 1000 1000 1000
          1000 1000 1000 1000 1000 1000 1000 1000 1000 1000 1000 1000
          1000 1000 1000 1000 1000 1000 1000 1000 1000 1000 1000
        </DataArray>
        <DataArray type="Float32" Name="mob_aq" NumberOfComponents="1" format="ascii">
          965.964 984.311 994.474 0.00144807 0.00463774 0.00541286 0.00105506 0.00547342 7.58195 0.477025 1000 1000
          1000 0.00225163 499.739 329.131 658.882 1000 999.633 997.466 696.608 673.712 905.988 999.107
          999.493 999.954 859.034 614.781 982.132 996.853 985.631 558.859 505.857 999.935 1000 13.0437
          884.847 1000 999.993 1000 999.838 999.237 998.206 507.735 740.052 686.948 1000 994.886
          895.799 1000 1000 0.384755 189.81 999.967 932.422 192.92 350.227 209.488 1000 1000
          1000 1000 1000 999.999 0.00125785 0.00129246 0.0126113 326.287 1000 0.00732753 1000 413.32
          905.677 968.775 995.021 935.826 802.507 997.372 1000 1000 1000 0.000980737 0.000959756 0.00503759
          961.23 999.999 999.532 0.0363247 2.23334 14.5061 229.143 432.631 269.668 1000 1000 1000
          0.00132185 0.0015132 0.0319062 1000 1000 999.896 984.938 1000 999.997 0.00464839 267.753 0.01299
          0.0908786 1000 999.962 0.0801506 992.964 998.469 999.748 1000 0.0185535 23.6627 68.2583 743.992
          145.787 1000 1000 0.000885081 999.985 2.12642 999.985 1000 0.00357079 263.709 0.0194792 468.572
          1000 0.0303879 999.407 276.883 192.24 531.655 1000 999.978 0.00304992 136.021 0.876135 146.008
          1000 1000 1000 1000 1000 1000 1000 1000 1000 1000 1000 851.259
          996.997 1000 0.00814096 0.0363564 3.28368 1000 1000 1000 1000 1000 1000 1000
          1000 1000 1000 1000 1000 1000 289.404 0.488161 2.10882 435.039 1000 1000
          329.741 528.627 680.653 317.704 1000 1000 1000 1000 1000 1000 999.999 1000
          1000 1000 1000 1000 1000 1000 60.5183 115.205 518.556 1000 1000 1000
          1000 1000 1000 207.429 1000 1000 1000 1000 1000 1000 1000 1000
          1000 1000 1000 0.00593173 4.5113 1000 1000 647.152 999.527 895.811 991.364 1000
          1000 1000 1000 1000 385.136 1000 622.608 1000 1000 1000 932.611 1000
          1000 868.228 924.257 999.975 998.89 1000 1000 1000 1000 1000 1000 1000
          1000 1000 1000 1000 1000 1000 999.931 1000 1000 1000 99.7956 999.781
          1000 1000 1000 1000 1000 1000 1000 488.646 1000 1000 999.985 1000
          437.863 1000 1000 1000 1000 1000 1000 1000 975.16 1000 1000 21.6902
          459.759 993.453 1000 1000 1000 1000 1000 925.555 1000 1000 1000 1000
          1000 7.87473 1000 1000 1000 1000 1000 1000 1000 463.185 999.99 655.773
          1000 1000 1000 1000 960.175 1000 1000 1000 1000 1000 1000 1000
          1000 1000 1000 25.1894 1000 1000 1000 1000 1000 166.202 1000 1000
          0.114126 1000 1000 1000 1000 1000 1000 1000 1000 1000 1000 1000
          477.878 1000 1000 1000 1000 1000 394.621 1000 1000 1000 1000 1000
          1000 1000 1000 999.574 999.857 1000 1000 1000 1000 1000 1000 1000
          1000 1000 1000 1000 1000 142.398 567.057 79.6974 1000 1000 1000 1000
          1000 1000 1000 1000 1000 1000 1000 1000 1000 1000 1000 1000
          1000 1000 1000 1000 1000 1000 1000 1000 1000 999.997 1000 1000
          1000 809.701 654.252 984.096 321.961 539.057 1000 996.871 1000 901.361 1000 1000
          1000 1000 999.987 1000 1000 1000 1000 1000 1000 999.978 1000 1000
          336.101 20.3169 999.849 1000 471.371 1000 997.874 1000 1000 999.74 925.509 0.332896
          280.513 0.075238 445.715 336.237 1000 1000 1000 1000 993.807 1000 1000 1000
          863.691 559.88 1000 1000 1000 1000 1000 1000 1000 1000 1000 1000
          1000 5.17317 1000 991.389 1000 1000 1000 653.451 880.053 1000 1000 1000
          1000 1000 1000 1000 1000 1000 1000 997.512 1000 1000 1000 447.574
          1000 1000 1000 530.871 1000 1000 0.0229855 0.00905096 1000 1000 1000 1000
          1000 1000 970.647 1000 1000 1000 1000 1000 1000 1000 1000 1000
          1000 1000 1000 1000 1000 1000 1000 0.00556929 1.95176 920.737 168.76 996.292
          1000 1000 1000 1000 1000 1000 20.6763 1000 1000 1000 1000 1000
          1000 182.288 1000 1000 1000 1000 1000 1000 1000 0.60965 0.783756 12.1432
          275.831 523.359 837.127 998.236 1000 1000 123.974 1000 1000 404.315 1000 340.169
          1000 471.377 1000 1000 1000 1000 1000 1000 1000 1000 1000 1000
          1000 1000 1000 1000 1000 1000 1000 563.391 554.775 754.265 1000 1000
          1000 1000 1000 1000 709.411 121.722 915.708 948.807 1000 1000 1000 1000
          497.443 910.681 1000 1000 1000 1000 1000 1000 1000 1000 1000 1000
          1000 1000 998.639 1000 1000 1000 1000 1000 1000 1000 1000 1000
          1000 1000 1000 1000 1000 1000 1000 1000 1000 989.799 1000 999.881
          1000 1000 1000 20.7697 14.845 958.699 1000 1000 1000 1000 1000 1000
          1000 1000 1000 1000 1000 1000 1000 1000 1000 1000 1000 1000
          1000 1000 1000 1000 1000 1000 1000 1000 1000 1000 1000 1000
          1000 1000 1000 1000 66.6 1000 1000 1000 1000 999.803 1000 1000
          1000 1000 1000 1000 1000 1000 1000 1000 587.933 1000 1000 998.622
          999.766 699.991 1000 1000 1000 769.023 1000 1000 1000 1000 982.524 1000
          1000 1000 3.03381 2.06271 788.129 1000 1000 1000 1000 1000 1000 999.902
          1000 1000 1000 1000 1000 803.028 835.141 1000 1000 1000 1000 1000
          1000 776.541 144.946 1000 1000 1000 1000 1000 1000 1000 1000 1000
          1000 1000 1000 991.913 1000 1000 1000 1000 1000 1000 1000 996.731
          1000 1000 1000 1000 539.119 1000 1000 1000 1000 1000 1000 1000
          1000 1.48204 383.525 19.5067 1000 1000 1000 304.322 226.075 1000 1000 1000
          1000 631.477 578.053 59.4925 1000 1000 556.126 0.376843 1000 1000 1000 1000
          999.998 1000 1000 1000 9.20077 0.00546659 1000 1000 1000 0.119744 446.083 1000
          1000 1000 1000 1000 1000 1000 1000 1000 1000 1000 1000 1000
          1000 1000 1000 1000 1000 1000 992.772 1000 1000 1000 1000 1000
          1000 1000 1000 1000 1000 1000 1000 1000 1000 1000 0.0143494 0.0100505
          196.166 1000 1000 1000 2.55382 1000 1000 1000 1000 1000 1000 1000
          1000 1000 1000 1000 1000 1000 969.672 1000 1000 1000 1000 1000
          0.00787103 0.0061886 25.8943 1000 1000 1000 0.0434933 0.0255357 236.25 1000 1000 1000
          1000 1000 1000 31.7101 1000 1000 1000 1000 1000 1000 984.222 1000
          1000 992.292 1000 1000 1000 0.016732 1000 1000 1000 966.665 1000 2.24773
          1000 84.7109 1000 1000 1000 1000 1000 7.33247 1000 1000 1000
        </DataArray>
        <DataArray type="Float32" Name="S_napl" NumberOfComponents="1" format="ascii">
          0.0197831 0.0131392 0.00766283 0.93665 0.930427 0.929407 0.93797 0.929332 0.729349 0.860436 0 0
          0 0.934565 0.140786 0.230533 0.0826453 0 0.0019411 0.00514877 0.0744127 0.0792639 0.0346737 0.00303707
          0.00228341 0.000684209 0.0440404 0.0950575 0.0140642 0.00574852 0.0125502 0.116114 0.138107 0.000813017 6.16503e-05 0.68707
          0.0390185 0 0.000257739 0 0.00128709 0.00280494 0.0043211 0.137291 0.0659427 0.0764149 7.15586e-05 0.00736473
          0.0368001 4.26983e-13 4.56792e-08 0.866524 0.33878 0.000581013 0.0287643 0.335774 0.217531 0.320353 0 0
          0 8.90926e-07 -1.15221e-33 8.44114e-05 0.937254 0.93714 0.922809 0.232337 7.87035e-25 0.927252 0 0.182211
          0.0347395 0.0188915 0.00726449 0.0279485 0.0544846 0.00524495 0 0 0 0.938255 0.938339 0.929888
          0.0212173 0.000105186 0.0021923 0.91151 0.801683 0.677912 0.303223 0.172326 0.271214 -0 0 0
          0.937044 0.936456 0.913115 0 0 0.00103017 0.0128622 0 0.000172917 0.930412 0.272639 0.922543
          0.897991 0 0.000623246 0.900091 0.00867467 0.0039883 0.00160475 0 0.919132 0.631606 0.504308 0.0652044
          0.385912 0 4.82591e-06 0.938645 0.000385269 0.804036 0.000385492 0 0.932039 0.275674 0.918634 0.154924
          0 0.913701 0.00247063 0.265917 0.336428 0.127137 0 0.000468573 0.932946 0.397777 0.840726 0.385651
          0 -0 -0 0 0 0 0 0 9.42747e-40 -1.81713e-32 4.70869e-38 0.0455106
          0.00561345 1.04323e-10 0.926451 0.911499 0.781843 0 0 0 2.26993e-06 0 0 0
          -4.17238e-31 6.61589e-05 0 0 0 0 0.256979 0.859757 0.804431 0.171121 0 0
          0.230147 0.128398 0.0777529 0.237863 0 0 0 0 -0 -0 0.00011562 0
          0 0 0 0 0 0 0.520865 0.425321 0.132642 0 0 0
          0 0 0 0.322218 0 0 0 0 0 0 0 0
          0 0 -0 0.928778 0.763548 0 0 0.0855121 0.00220504 0.0367977 0.00963928 1.11568e-06
          0 0 5.36082e-11 0 0.197381 -0 0.092415 -0 -0 0 0.0287194 0
          0 0.0422794 0.0306632 0.000506399 0.00338942 0 0 0 0 0 0 0
          0 0 0 0 0 0 0.000836166 0 0 0 0.448154 0.0014961
          0 -0 0 0 0 0 0 0.145722 7.14662e-44 0 0.000395052 0
          0.169715 2.92277e-06 0 1.36529e-10 9.77794e-12 0 0 0 0.0167285 0 -2.10449e-30 0.640363
          0.159078 0.00835909 0 0 0 0 0 0.0303662 0 -1.78487e-29 0 0
          0 0.726626 -8.83309e-36 0 0 0 0 0 0 0.157454 0.000321647 0.0833861
          0 4.94641e-05 0 0 0.0215269 0 1.35698e-40 0 0 0 1.38095e-16 4.2091e-09
          0 0 1.2876e-22 0.625169 0 0 0 0 -0 0.362897 0 3.72182e-36
          0.893955 0 0 0 0 0 1.26347e-19 1.0016e-19 0 0 0 5.26579e-21
          0.150614 0 0 0 -1.81117e-29 0 0.192172 0 0 0 0 0
          0 0 0 0.00209158 0.00120764 1.30023e-07 5.0613e-05 0 6.39427e-41 7.24072e-11 4.95923e-09 0
          0 0 0 0 0 0.389961 0.112896 0.48213 0 0 0 0
          0 0 0 0 0 0 0 0 0 0 0 0
          0 2.26075e-06 0 0 0 0 0 0 0 0.000167949 0 0
          0 0.0531759 0.0837531 0.0132327 0.235107 0.124085 0 0.00573213 0 0.0356477 1.78146e-16 0
          0 0 0.000356782 0 0 3.10618e-07 1.11611e-19 0 0 0.000473514 -0 9.90434e-12
          0.226163 0.646791 0.00124365 0 0.153619 3.7069e-05 0.00470995 0 0 0.00163123 0.0303769 0.87039
          0.263293 0.901116 0.165847 0.226078 0 0 0 0 0.00812398 2.74397e-12 2.38063e-13 3.70886e-21
          0.0431518 0.11571 0 0 0 0 0 0 0 0 0 0
          -3.29899e-30 0.755072 0 0.00962513 0 0 0 0.0839478 0.0399709 0 0 0
          0 0 0 0 0 0 0 0.00510074 0 0 0 0.16494
          0 3.1825e-11 0 0.127463 0 0 0.916882 0.925617 0 0 0 1.09663e-24
          2.2634e-22 -2.05429e-33 0.0182788 4.27656e-39 0 0 3.42888e-38 0 0 0 0 0
          0 0 0 0 0 0 0 0.929214 0.808058 0.0314593 0.360165 0.00624925
          0 0 0 0 0 0 0.64508 0 -0 0 0 0
          -8.59751e-30 0.346206 0 0 0 5.67255e-37 -8.87195e-32 0 0 0.852948 0.844636 0.693066
          0.266682 0.130609 0.0481469 0.00428402 0 0 0.413307 0 0 0.186958 0 0.223647
          0 0.153617 0 0 0 0 -0 -0 0 0 0 0
          0 0 0 0 0 0 0 0.114329 0.117734 0.0632941 0 0
          0 0 0 0 0.0718386 0.416331 0.0325759 0.0246744 0 0 0 0
          0.141799 0.0336701 0 0 0 0 0 0 0 0 0 0
          0 -0 0.00375765 0 0 0 0 0 0 0 0 0
          0 0 0 0 -0 -0 -0 0 0 0.0105054 -0 0.00110255
          0 0 -0 0.644639 0.675881 0.0219544 0 0 0 0 0 -0
          0 0 0 0 0 0 0 0 0 0 0 0
          0 0 0 0 0 0 0 0 0 0 0 0
          0 0 -0 0 0.507739 -0 -0 0 0 0.00141957 0 0
          0 0 0 0 0 0 0 0 0.104908 0 0 0.00378041
          0.00154825 0.0737245 -0 0 0 0.0605796 0 -0 0 0 0.0139016 0
          0 0 0.786119 0.805476 0.0570972 0 0 0 0 0 0 0.00100205
          0 0 0 0 0 0.0543899 0.0485144 0 -0 -0 -0 0
          0 0.0592064 0.386911 -0 -0 -0 0 0 0 0 0 0
          0 0 0 0.00931845 0 0 0 -0 0 0 0 0.00586081
          0 0 0 0 0.124059 0 0 -0 0 0 0 0
          0 0.820253 0.198276 0.650725 0 0 0 0.246724 0.305821 0 -0 0
          0 0.0897328 0.108652 0.52317 0 0 0.117197 0.86709 0 0 0 0
          0.000134293 -1.30804e-31 9.80909e-45 0 0.715091 0.92934 0 0 0 0.893064 0.165667 0
          0 0 0 -8.2107e-37 -0 -0 -0 -0 -0 -0 -0 -0
          0 0 -0 9.17021e-17 -1.06504e-30 1.46046e-11 0.00879528 -0 -0 0 0 0