<?xml version="1.0"?>
<VTKFile type="UnstructuredGrid" version="0.1" byte_order="LittleEndian">
  <UnstructuredGrid>
    <Piece NumberOfCells="10000" NumberOfPoints="10201">
      <PointData Scalars="p">
        <DataArray type="Float32" Name="p" NumberOfComponents="1" format="ascii">
          100000 200000 242099 232990 200000 240062 200000 241586 200000 242045 200000 242157
          200000 242097 200000 241920 200000 241644 200000 241277 200000 240823 200000 240281
          200000 239654 200000 238940 200000 238143 200000 237266 200000 236311 200000 235285
          200000 234193 200000 233045 200000 231849 200000 230614 200000 229352 200000 228073
          200000 226788 200000 225508 200000 224242 200000 223000 200000 221790 200000 220619
          200000 219492 200000 218414 200000 217389 200000 216420 200000 215507 200000 214653
          200000 213856 200000 213118 200000 212437 200000 211812 200000 211243 200000 210728
          200000 210265 200000 209854 200000 209493 200000 209180 200000 208916 200000 208698
          200000 208526 200000 208399 200000 208317 200000 208280 200000 208286 200000 208337
          200000 208432 200000 208572 200000 208757 200000 208988 200000 209265 200000 209590
          200000 209963 200000 210385 200000 210858 200000 211382 200000 211958 200000 212586
          200000 213268 200000 214003 200000 214790 200000 215630 200000 216519 200000 217457
          200000 218440 200000 219464 200000 220524 200000 221616 200000 222733 200000 223868
          200000 225013 200000 226162 200000 227306 200000 228438 200000 229552 200000 230639
          200000 231696 200000 232716 200000 233696 200000 234633 200000 235524 200000 236368
          200000 237163 200000 237912 200000 238614 200000 239275 200000 239903 200000 240520
          200000 241183 200000 242068 200000 243895 200000 251149 300000 242099 284259 282286
          282723 283863 284363 284467 284305 283935 283378 282643 281733 280649 279393 277964
          276368 274608 272694 270635 268444 266138 263736 261256 258720 256151 253571 251001
          248460 245968 243541 241192 238934 236775 234723 232782 230956 229247 227655 226178
          224817 223569 222432 221403 220479 219658 218937 218313 217785 217350 217007 216754
          216590 216515 216528 216630 216820 217099 217468 217929 218483 219132 219877 220720
          221665 222712 223863 225120 226483 227953 229529 231209 232990 234869 236838 238891
          241018 243207 245448 247725 250023 252328 254624 256896 259129 261310 263428 265473
          267436 269312 271095 272783 274375 275870 277271 278584 279823 281014 282217 283567
          285313 286111 284259 326539 326223 326346 326760 327041 327024 326716 326134 325288
          324182 322817 321191 319304 317157 314756 312107 309222 306116 302811 299329 295700
          291953 288122 284241 280344 276463 272629 268871 265213 261675 258276 255029 251945
          249030 246289 243724 241336 239124 237085 235216 233513 231972 230590 229362 228283
          227350 226561 225910 225397 225019 224775 224663 224683 224834 225118 225536 226088
          226777 227606 228576 229692 230955 232369 233937 235662 237546 239591 241796 244162
          246686 249364 252189 255152 258243 261447 264748 268126 271560 275027 278504 281967
          285392 288758 292045 295234 298312 301265 304084 306763 309296 311683 313922 316017
          317972 319798 321513 323140 324692 326011 326675 326539 368999 369349 369656 369925
          370034 369873 369398 368595 367458 365981 364161 361993 359475 356606 353392 349842
          345971 341799 337354 332669 327782 322735 317575 312347 307100 301877 296722 291673
          286762 282019 277465 273120 268996 265102 261444 258024 254842 251896 249182 246696
          244432 242384 240547 238915 237483 236245 235197 234334 233653 233152 232827 232678
          232705 232906 233283 233838 234571 235487 236587 237877 239359 241038 242919 245006
          247303 249812 252538 255479 258638 262009 265589 269370 273339 277482 281780 286210
          290747 295361 300021 304694 309347 313948 318468 322877 327153 331275 335227 338997
          342575 345957 349138 352120 354903 357490 359888 362099 364121 365916 367386 368409
          368999 411697 412445 412965 413269 413314 413042 412409 411390 409966 408124 405854
          403147 399997 396402 392367 387901 383022 377757 372140 366212 360024 353631 347094
          340473 333830 327223 320709 314335 308144 302171 296445 290988 285816 280938 276361
          272086 268112 264435 261051 257953 255134 252585 250300 248270 246489 244950 243648
          242575 241730 241107 240704 240519 240552 240803 241271 241960 242872 244011 245380
          246984 248829 250920 253264 255865 258730 261862 265267 268946 272899 277123 281614
          286361 291351 296565 301979 307566 313291 319116 325001 330903 336780 342587 348288
          353844 359227 364410 369374 374102 378586 382818 386795 390517 393984 397199 400162
          402869 405308 407448 409242 410653 411697 454691 455747 456474 456872 456917 456575
          455809 454590 452892 450697 447986 444745 440965 436640 431773 426374 420463 414070
          407237 400017 392472 384673 376696 368620 360521 352476 344553 336811 329304 322075
          315155 308571 302340 296473 290975 285846 281084 276682 272635 268932 265564 262523
          259796 257376 255253 253420 251868 250591 249584 248842 248363 248143 248182 248481
          249039 249861 250948 252305 253937 255851 258053 260550 263350 266460 269888 273640
          277722 282137 286887 291970 297380 303108 309137 315446 322006 328782 335733 342811
          349965 357140 364281 371335 378252 384987 391502 397766 403756 409453 414848 419934
          424707 429168 433319 437159 440689 443902 446789 449328 451497 453283 454691 498037
          499373 500304 500823 500910 500534 499664 498268 496318 493785 490647 486884 482478
          477422 471714 465362 458387 450825 442724 434149 425176 415894 406398 396787 387159
          377606 368212 359052 350186 341665 333527 325799 318500 311638 305218 299238 293694
          288575 283873 279575 275670 272145 268987 266185 263729 261608 259813 258337 257173
          256316 255762 255508 255554 255899 256545 257495 258753 260323 262213 264430 266981
          269877 273126 276738 280722 285088 289843 294993 300542 306488 312829 319552 326642
          334074 341814 349822 358046 366429 374907 383410 391871 400222 408400 416351 424030
          431398 438431 445109 451421 457362 462932 468131 472963 477429 481529 485261 488615
          491579 494143 496295 498037 541789 543399 544543 545205 545363 544987 544045 542503
          540325 537480 533936 529666 524645 518859 512301 504975 496903 488122 478689 468680
          458191 447329 436214 424971 413719 402573 391635 380994 370720 360871 351487 342597
          334219 326360 319020 312196 305877 300052 294707 289826 285396 281399 277822 274649
          271869 269470 267440 265771 264455 263486 262860 262574 262626 263017 263748 264822
          266245 268023 270163 272674 275566 278850 282538 286642 291174 296146 301568 307450
          313797 320612 327892 335628 343803 352391 361354 370643 380200 389952 399822 409724
          419572 429282 438777 447991 456869 465369 473463 481131 488365 495163 501527 507462
          512972 518064 522738 526995 530829 534234 537200 539721 541789 585998 587891 589262
          590090 590349 590007 589027 587372 585001 581875 577953 573199 567580 561072 553659
          545340 536133 526076 515234 503697 491580 479018 466160 453160 440170 427328 414759
          402564 390826 379607 368950 358882 349417 340560 332306 324646 317566 311048 305075
          299628 294687 290234 286251 282722 279630 276962 274706 272852 271391 270315 269620
          269302 269360 269794 270607 271801 273384 275361 277742 280537 283759 287420 291535
          296119 301187 306753 312834 319440 326583 334268 342497 351263 360549 370330 380563
          391195 402155 413357 424705 436092 447412 458560 469439 479971 490090 499750 508922
          517589 525747 533399 540552 547216 553400 559115 564364 569151 573473 577327 580705
          583599 585998 630712 632903 634521 635543 635935 635663 634685 632958 630434 627065
          622802 617598 611408 604193 595928 586600 576219 564822 552481 539299 525417 511004
          496246 481338 466467 451806 437501 423672 410409 397778 385821 374561 364006 354156
          344998 336516 328691 321500 314918 308923 303491 298600 294228 290356 286966 284043
          281572 279541 277941 276763 276003 275655 275719 276194 277084 278393 280127 282295
          284907 287975 291513 295537 300064 305112 310700 316847 323572 330893 338825 347380
          356564 366374 376798 387811 399370 411415 423864 436614 449547 462530 475428 488108
          500454 512367 523773 534623 544888 554558 563636 572134 580065 587448 594299 600630
          606452 611770 616585 620896 624694 627970 630712 675976 678485 680378 681623 682185
          682023 681091 679339 676711 673149 668594 662985 656261 648369 639265 628919 617328
          604523 590576 575609 559792 543336 526481 509473 492550 475921 459761 444207 429355
          415271 401991 389530 377890 367057 357012 347730 339183 331341 324175 317656 311755
          306447 301705 297509 293837 290672 287997 285800 284069 282795 281973 281597 281666
          282180 283144 284560 286437 288785 291615 294942 298781 303151 308071 313564 319653
          326362 333714 341734 350443 359861 370000 380867 392455 404742 417687 431226 445266
          459685 474337 489054 503664 517998 531908 545276 558018 570084 581452 592122 602108
          611434 620127 628213 635715 642653 649042 654890 660202 664975 669203 672876 675976
          721831 724683 726879 728384 729157 729152 728318 726595 723921 720227 715441 709486
          702285 693762 683849 672491 659663 645377 629704 612780 594812 576071 556865 537517
          518328 499556 481407 464031 447527 431954 417336 403678 390964 379169 368263 358208
          348969 340507 332786 325770 319427 313726 308638 304138 300202 296811 293946 291594
          289740 288377 287496 287094 287168 287719 288750 290267 292278 294794 297829 301397
          305519 310214 315507 321422 327987 335232 343188 351884 361352 371618 382708 394636
          407406 421008 435404 450530 466282 482519 499059 515688 532180 548318 563913 578820
          592948 606250 618718 630370 641240 651368 660795 669559 677694 685224 692171 698547
          704356 709599 714268 718352 721831 768312 771536 774071 775876 776906 777111 776430
          774801 772149 768396 763456 757235 749634 740550 729883 717544 703468 687636 670101
          651010 630616 609271 587388 565392 543674 522553 502266 482972 464761 447675 431720
          416878 403116 390393 378660 367872 357978 348933 340692 333213 326459 320393 314984
          310203 306023 302424 299384 296888 294923 293476 292542 292115 292194 292778 293871
          295480 297614 300285 303508 307301 311684 316681 322320 328629 335642 343393 351920
          361263 371460 382551 394573 407557 421522 436471 452382 469195 486804 505043 523687
          542460 561060 579194 596618 613156 628712 643255 656803 669403 681115 692002 702125
          711534 720274 728378 735870 742767 749075 754794 759917 764430 768312 815448 819078
          821990 824140 825480 825952 825491 824026 821476 817751 812750 806362 798464 788922
          777596 764346 749047 731624 712083 690569 667389 643013 618012 592970 568400 544696
          522118 500817 480860 462259 444986 428996 414230 400624 388115 376640 366139 356555
          347835 339932 332802 326404 320703 315666 311266 307477 304279 301653 299586 298065
          297082 296633 296714 297328 298477 300169 302414 305225 308618 312614 317235 322508
          328463 335134 342559 350779 359838 369786 380673 392552 405475 419493 434647 450964
          468445 487050 506679 527148 548180 569408 590417 610799 630228 648492 665502 681263
          695840 709324 721813 733400 744165 754177 763488 772141 780163 787574 794381 800584
          806175 811138 815448 863265 867336 870668 873214 874919 875723 875554 874335 871977
          868379 863429 856997 848936 839079 827238 813205 796773 777761 756083 731836 705387
          677384 648657 620042 592228 565683 540671 517304 495597 475509 456968 439889 424182
          409759 396537 384436 373384 363313 354163 345880 338414 331720 325758 320494 315898
          311941 308602 305861 303703 302115 301089 300620 300704 301343 302541 304306 306649
          309583 313128 317303 322135 327653 333891 340886 348682 357325 366869 377371 388894
          401507 415281 430289 446602 464282 483369 503862 525688 548666 572461 596580 620421
          643391 665035 685106 703554 720461 735970 750237 763410 775615 786956 797516 807359
          816531 825066 832982 840289 846985 853060 858495 863265 911778 916331 920130 923126
          925259 926464 926665 925780 923713 920356 915585 909255 901199 891216 879067 864470
          847100 826612 802724 775384 744990 712478 679144 646254 614734 585100 557556 532117
          508708 487209 467487 449409 432851 417696 403839 391185 379648 369151 359627 351013
          343254 336303 330117 324657 319890 315789 312328 309487 307251 305605 304541 304053
          304139 304800 306039 307866 310292 313333 317006 321336 326351 332080 338563 345839
          353958 362972 372942 383935 396027 409302 423853 439779 457187 476184 496870 519311
          543508 569322 596386 624029 651334 677368 701468 723375 743162 761059 777337 792240
          805970 818689 830523 841568 851896 861556 870583 878997 886806 894005 900582 906516
          911778 960999 966077 970395 973899 976525 978205 978861 978404 976735 973742 969292
          963233 955379 945506 933333 918501 900553 878914 852934 822147 786816 748378 709082
          670982 635276 602385 572312 544892 519906 497132 476363 457413 440119 424337 409941
          396819 384874 374020 364181 355291 347289 340124 333750 328126 323219 318996 315434
          312511 310208 308514 307418 306914 307001 307678 308951 310828 313323 316450 320230
          324687 329851 335756 342442 349952 358340 367665 377994 389403 401980 415824 431050
          447787 466180 486392 508599 532974 559653 588645 619654 651807 683600 713398 740180
          763803 784661 803269 820069 835404 849531 862641 874874 886334 897095 907210 916711
          925616 933929 941644 948746 955208 960999 1.01093e+06 1.01658e+06 1.02147e+06 1.02555e+06 1.02874e+06 1.03097e+06
          1.03217e+06 1.03224e+06 1.03108e+06 1.02858e+06 1.0246e+06 1.01899e+06 1.01157e+06 1.00208e+06 990231 975616 957668 935572
          908129 873818 832019 785046 737542 693114 652914 616817 584407 555234 528898 505056
          483425 463767 445880 429597 414771 401278 389011 377876 367790 358682 350489 343155
          336634 330882 325863 321545 317903 314913 312559 310826 309704 309186 309272 309961
          311259 313175 315721 318915 322776 327332 332613 338654 345496 353190 361788 371356
          381967 393705 406668 420969 436742 454143 473357 494605 518152 544308 573417 605803
          641570 679879 718065 752715 782179 807002 828386 847259 864244 879761 894098 907460
          919990 931792 942937 953474 963432 972822 981648 989896 997546 1.00457e+06 1.01093e+06 1.06157e+06
          1.06784e+06 1.07337e+06 1.07808e+06 1.0819e+06 1.08477e+06 1.08659e+06 1.08729e+06 1.08676e+06 1.08488e+06 1.08154e+06 1.07657e+06 1.06979e+06
          1.06099e+06 1.04986e+06 1.036e+06 1.01884e+06 997446 970227 933939 883367 821666 762081 710826 666398
          627563 593278 562757 535408 510781 488524 468355 450045 433403 418272 404516 392020
          380684 370422 361159 352830 345377 338750 332905 327806 323420 319720 316682 314289
          312527 311385 310857 310940 311637 312951 314892 317473 320712 324630 329254 334615
          340750 347703 355523 364269 374008 384817 396787 410022 424648 440813 458694 478510
          500533 525109 552688 583869 619438 660317 707646 756803 797941 828837 853536 874544
          893088 909857 925277 939628 953100 965827 977900 989383 1.00031e+06 1.01072e+06 1.02059e+06 1.02994e+06
          1.03874e+06 1.04697e+06 1.05459e+06 1.06157e+06 1.1129e+06 1.11986e+06 1.12608e+06 1.13149e+06 1.13602e+06 1.1396e+06 1.14215e+06 1.14357e+06
          1.14378e+06 1.14265e+06 1.14009e+06 1.13593e+06 1.13004e+06 1.1222e+06 1.11217e+06 1.09963e+06 1.08409e+06 1.06482e+06 1.04055e+06 1.00839e+06
          954966 847969 778545 721683 674363 633827 598435 567140 539220 514154 491548 471095
          452548 435706 420403 406498 393871 382421 372058 362706 354297 346773 340084 334185
          329038 324610 320874 317807 315390 313609 312453 311917 311997 312695 314016 315970
          318569 321832 325780 330440 335845 342031 349044 356934 365760 375592 386510 398607
          411992 426797 443177 461323 481474 503932 529098 557518 589986 627736 672827 727427
          810434 853436 881033 903508 923053 940634 956786 971841 986021 999476 1.01231e+06 1.02459e+06
          1.03638e+06 1.04768e+06 1.05852e+06 1.06889e+06 1.07878e+06 1.08816e+06 1.097e+06 1.10527e+06 1.1129e+06 1.16492e+06 1.17261e+06 1.17959e+06
          1.18577e+06 1.19109e+06 1.19547e+06 1.19883e+06 1.20108e+06 1.20212e+06 1.20187e+06 1.20021e+06 1.19703e+06 1.19221e+06 1.18558e+06 1.17698e+06
          1.16619e+06 1.15294e+06 1.13693e+06 1.11783e+06 1.09575e+06 1.07884e+06 971105 863710 795311 741407 696233 657205
          622870 592306 564879 540127 517700 497323 478778 461882 446487 432466 419709 408125
          397633 388163 379655 372055 365318 359404 354280 349915 346286 343375 341165 339645
          338810 338655 339183 340397 342308 344930 348279 352380 357260 362952 369497 376940
          385336 394749 405251 416929 429884 444236 460131 477742 497289 519048 543380 570782
          601968 638057 681032 735305 819686 903354 917896 937632 956200 973439 989565 1.00479e+06
          1.01927e+06 1.03313e+06 1.04646e+06 1.05934e+06 1.07179e+06 1.08384e+06 1.09551e+06 1.10679e+06 1.11767e+06 1.12812e+06 1.13811e+06 1.14761e+06
          1.15656e+06 1.16492e+06 1.21758e+06 1.22608e+06 1.23389e+06 1.24092e+06 1.24711e+06 1.25236e+06 1.25662e+06 1.25978e+06 1.26176e+06 1.26248e+06
          1.26185e+06 1.25978e+06 1.25617e+06 1.25093e+06 1.24396e+06 1.23518e+06 1.22456e+06 1.21217e+06 1.19848e+06 1.18509e+06 1.17477e+06 1.11086e+06
          1.00661e+06 928110 865886 813883 769031 729572 694394 662746 634091 608028 584248 562508
          542610 524390 507714 492464 478542 465863 454352 443947 434590 426234 418836 412359
          406774 402054 398178 395129 392897 391472 390851 391036 392030 393843 396489 399988
          404364 409645 415868 423075 431317 440653 451151 462893 475975 490510 506634 524511
          544344 566389 590972 618529 649665 685263 726713 776419 839111 922204 973344 982683
          995728 1.01025e+06 1.02493e+06 1.03939e+06 1.05352e+06 1.0673e+06 1.08076e+06 1.09391e+06 1.10678e+06 1.11937e+06 1.13169e+06 1.14373e+06
          1.15546e+06 1.16687e+06 1.17792e+06 1.18856e+06 1.19876e+06 1.20845e+06 1.21758e+06 1.27088e+06 1.28026e+06 1.28896e+06 1.29692e+06 1.30404e+06
          1.31026e+06 1.31549e+06 1.31965e+06 1.32266e+06 1.32445e+06 1.32494e+06 1.32406e+06 1.32177e+06 1.318e+06 1.31275e+06 1.30605e+06 1.29801e+06
          1.28894e+06 1.27951e+06 1.27094e+06 1.26499e+06 1.21431e+06 1.12358e+06 1.04612e+06 980751 924659 875610 832073 793002
          757653 725485 696088 669145 644405 621665 600756 581539 563893 547718 532925 519439
          507192 496127 486193 477346 469549 462769 456978 452154 448280 445342 443331 442244
          442080 442844 444545 447198 450822 455443 461089 467801 475621 484603 494809 506313
          519200 533573 549554 567286 586947 608753 632976 659961 690163 724198 762924 807584
          859982 922406 995961 1.03745e+06 1.04347e+06 1.05288e+06 1.06429e+06 1.0767e+06 1.08956e+06 1.10259e+06 1.11566e+06 1.12869e+06
          1.14164e+06 1.1545e+06 1.16723e+06 1.17982e+06 1.19224e+06 1.20445e+06 1.21643e+06 1.22811e+06 1.23946e+06 1.25041e+06 1.26091e+06 1.27088e+06
          1.32477e+06 1.3351e+06 1.34478e+06 1.35374e+06 1.36189e+06 1.36915e+06 1.37544e+06 1.38068e+06 1.38479e+06 1.38772e+06 1.38939e+06 1.38977e+06
          1.38883e+06 1.38657e+06 1.38302e+06 1.37829e+06 1.37256e+06 1.36621e+06 1.35983e+06 1.35426e+06 1.3505e+06 1.30685e+06 1.22557e+06 1.15197e+06
          1.08658e+06 1.02857e+06 976789 930183 887934 849412 814129 781709 751850 724312 698895 675436
          653796 633856 615515 598684 583288 569257 556534 545066 534809 525723 517775 510936
          505182 500495 496860 494268 492714 492197 492722 494297 496937 500662 505496 511472
          518627 527007 536667 547671 560094 574026 589571 606853 626021 647252 670764 696826
          725770 758023 794130 834794 880906 933476 993284 1.0601e+06 1.09653e+06 1.10092e+06 1.10816e+06 1.11744e+06
          1.12809e+06 1.1396e+06 1.15165e+06 1.16406e+06 1.17669e+06 1.18947e+06 1.20233e+06 1.21523e+06 1.22812e+06 1.24095e+06 1.25369e+06 1.26627e+06
          1.27865e+06 1.29075e+06 1.30252e+06 1.31389e+06 1.32477e+06 1.37922e+06 1.39058e+06 1.40132e+06 1.41137e+06 1.42063e+06 1.42901e+06 1.43644e+06
          1.44283e+06 1.44811e+06 1.45223e+06 1.45514e+06 1.45681e+06 1.45723e+06 1.45644e+06 1.45451e+06 1.45156e+06 1.44781e+06 1.44359e+06 1.43938e+06
          1.43574e+06 1.43324e+06 1.39394e+06 1.31921e+06 1.24927e+06 1.18498e+06 1.12632e+06 1.07285e+06 1.02398e+06 979176 937956 899931
          864783 832246 802104 774175 748303 724357 702223 681804 663012 645772 630017 615687
          602731 591102 580761 571674 563809 557144 551658 547336 544168 542148 541274 541550
          542986 545594 549394 554411 560676 568229 577116 587390 599117 612372 627244 643837
          662274 682700 705288 730243 757814 788301 822068 859552 901264 947752 999491 1.05664e+06
          1.11872e+06 1.15199e+06 1.1555e+06 1.16142e+06 1.1693e+06 1.17866e+06 1.18911e+06 1.20038e+06 1.21224e+06 1.22456e+06 1.23722e+06 1.25013e+06
          1.26324e+06 1.27647e+06 1.28977e+06 1.30308e+06 1.31632e+06 1.32945e+06 1.34238e+06 1.35503e+06 1.36734e+06 1.37922e+06 1.43419e+06 1.44667e+06
          1.45856e+06 1.46979e+06 1.48025e+06 1.48984e+06 1.49848e+06 1.50609e+06 1.5126e+06 1.51796e+06 1.52213e+06 1.5251e+06 1.52686e+06 1.52748e+06
          1.52703e+06 1.52565e+06 1.52355e+06 1.52101e+06 1.51837e+06 1.51602e+06 1.51432e+06 1.47792e+06 1.40773e+06 1.3407e+06 1.27764e+06 1.21887e+06
          1.16432e+06 1.11375e+06 1.06685e+06 1.02332e+06 982872 945255 910257 877692 847402 819247 793108 768880
          746468 725791 706774 689353 673468 659069 646109 634548 624350 615485 607928 601659
          596660 592922 590436 589202 589221 590503 593059 596910 602078 608596 616501 625839
          636663 649038 663036 678745 696265 715713 737227 760967 787119 815902 847571 882416
          920762 962948 1.00928e+06 1.05993e+06 1.11483e+06 1.17351e+06 1.20464e+06 1.20763e+06 1.21274e+06 1.21969e+06 1.22815e+06 1.23784e+06
          1.24852e+06 1.25999e+06 1.27209e+06 1.28471e+06 1.29775e+06 1.31112e+06 1.32476e+06 1.33858e+06 1.35252e+06 1.3665e+06 1.38044e+06 1.39427e+06
          1.4079e+06 1.42123e+06 1.43419e+06 1.48964e+06 1.50333e+06 1.51648e+06 1.52898e+06 1.54073e+06 1.55161e+06 1.56155e+06 1.57045e+06 1.57825e+06
          1.58489e+06 1.59034e+06 1.59459e+06 1.59765e+06 1.59959e+06 1.60049e+06 1.60048e+06 1.59975e+06 1.59853e+06 1.59707e+06 1.59564e+06 1.59447e+06
          1.56003e+06 1.49296e+06 1.42801e+06 1.36593e+06 1.30714e+06 1.25179e+06 1.19984e+06 1.15117e+06 1.10561e+06 1.06299e+06 1.02312e+06 985840
          951011 918497 888180 859953 833722 809400 786910 766182 747153 729766 713970 699718
          686972 675694 665854 657427 650389 644726 640424 637475 635877 635632 636746 639233
          643109 648398 655130 663342 673078 684389 697337 711993 728439 746769 767092 789535
          814241 841372 871115 903673 939268 978128 1.02046e+06 1.06641e+06 1.11602e+06 1.16912e+06 1.22531e+06 1.25494e+06
          1.25762e+06 1.26222e+06 1.26857e+06 1.27643e+06 1.28561e+06 1.29588e+06 1.3071e+06 1.31911e+06 1.33178e+06 1.34503e+06 1.35875e+06 1.37286e+06
          1.38727e+06 1.40192e+06 1.41671e+06 1.43155e+06 1.44636e+06 1.46105e+06 1.47551e+06 1.48964e+06 1.54552e+06 1.56054e+06 1.57505e+06 1.58893e+06
          1.60206e+06 1.61434e+06 1.62566e+06 1.63592e+06 1.64506e+06 1.65301e+06 1.65975e+06 1.66527e+06 1.66958e+06 1.67275e+06 1.67487e+06 1.67605e+06
          1.67646e+06 1.67629e+06 1.67573e+06 1.67497e+06 1.67419e+06 1.64102e+06 1.57597e+06 1.51236e+06 1.45087e+06 1.39194e+06 1.33583e+06 1.28264e+06
          1.23238e+06 1.18498e+06 1.14035e+06 1.09839e+06 1.05898e+06 1.02202e+06 987398 955024 924805 896657 870502 846270
          823893 803313 784474 767326 751824 737928 725601 714812 705535 697748 691431 686573
          683164 681201 680684 681619 684018 687896 693276 700186 708662 718743 730481 743932
          759164 776251 795283 816357 839586 865094 893021 923516 956739 992853 1.03201e+06 1.07432e+06
          1.11985e+06 1.16856e+06 1.22026e+06 1.27461e+06 1.30318e+06 1.30567e+06 1.30995e+06 1.31592e+06 1.32341e+06 1.33227e+06 1.34232e+06 1.35343e+06
          1.36546e+06 1.3783e+06 1.39184e+06 1.40598e+06 1.42065e+06 1.43574e+06 1.45117e+06 1.46685e+06 1.48269e+06 1.49858e+06 1.51442e+06 1.53011e+06
          1.54552e+06 1.60179e+06 1.61826e+06 1.63425e+06 1.64963e+06 1.66426e+06 1.67803e+06 1.69082e+06 1.70252e+06 1.71305e+06 1.72236e+06 1.73039e+06
          1.73716e+06 1.74267e+06 1.74698e+06 1.75019e+06 1.7524e+06 1.75376e+06 1.75443e+06 1.75457e+06 1.75432e+06 1.75382e+06 1.7214e+06 1.65748e+06
          1.59454e+06 1.53319e+06 1.47389e+06 1.41693e+06 1.36251e+06 1.31072e+06 1.26157e+06 1.21505e+06 1.17111e+06 1.12967e+06 1.09068e+06 1.05406e+06
          1.01972e+06 987587 957600 929684 903774 879810 857733 837492 819038 802326 787316 773971
          762260 752156 743636 736680 731274 727409 725080 724285 725030 727325 731183 736626
          743680 752376 762755 774862 788750 804480 822123 841758 863471 887360 913533 942103
          973190 1.00691e+06 1.04339e+06 1.08271e+06 1.12494e+06 1.17008e+06 1.21806e+06 1.26869e+06 1.32172e+06 1.34953e+06 1.35189e+06 1.356e+06
          1.36175e+06 1.36904e+06 1.37773e+06 1.38771e+06 1.39884e+06 1.41101e+06 1.42411e+06 1.43804e+06 1.4527e+06 1.46801e+06 1.48387e+06 1.50018e+06
          1.51685e+06 1.53378e+06 1.55085e+06 1.56796e+06 1.58498e+06 1.60179e+06 1.65841e+06 1.67645e+06 1.69406e+06 1.71107e+06 1.72733e+06 1.74271e+06
          1.75707e+06 1.77029e+06 1.78229e+06 1.79297e+06 1.80232e+06 1.8103e+06 1.81696e+06 1.82233e+06 1.82651e+06 1.82961e+06 1.83176e+06 1.8331e+06
          1.83378e+06 1.83392e+06 1.83362e+06 1.80152e+06 1.73798e+06 1.6751e+06 1.61343e+06 1.55345e+06 1.49547e+06 1.43973e+06 1.38639e+06 1.33553e+06
          1.28717e+06 1.24131e+06 1.19793e+06 1.15699e+06 1.11843e+06 1.08219e+06 1.04823e+06 1.01647e+06 986860 959334 933838 910319
          888725 869009 851127 835038 820708 808103 797195 787960 780379 774436 770120 767424
          766348 766894 769069 772887 778367 785531 794411 805041 817463 831727 847887 866007
          886156 908410 932854 959576 988668 1.02022e+06 1.05433e+06 1.09107e+06 1.1305e+06 1.17263e+06 1.21745e+06 1.26487e+06
          1.31472e+06 1.36679e+06 1.39407e+06 1.39637e+06 1.40038e+06 1.40604e+06 1.41325e+06 1.42192e+06 1.43194e+06 1.44321e+06 1.45562e+06 1.46909e+06
          1.4835e+06 1.49878e+06 1.51482e+06 1.53154e+06 1.54882e+06 1.56658e+06 1.58471e+06 1.60308e+06 1.62158e+06 1.64007e+06 1.65841e+06 1.71531e+06
          1.73509e+06 1.75446e+06 1.77325e+06 1.79129e+06 1.80841e+06 1.82446e+06 1.83931e+06 1.85283e+06 1.86494e+06 1.8756e+06 1.88479e+06 1.89253e+06
          1.89888e+06 1.90392e+06 1.90777e+06 1.91056e+06 1.91244e+06 1.91353e+06 1.91395e+06 1.9138e+06 1.88163e+06 1.8178e+06 1.7544e+06 1.69197e+06
          1.63097e+06 1.57174e+06 1.51455e+06 1.45959e+06 1.40697e+06 1.35677e+06 1.30903e+06 1.26374e+06 1.2209e+06 1.18047e+06 1.14241e+06 1.10667e+06
          1.0732e+06 1.04195e+06 1.01286e+06 985892 960980 938081 917147 898135 881005 865720 852249 840561
          830632 822441 815971 811211 808152 806790 807128 809172 812931 818424 825670 834696
          845535 858225 872809 889336 907863 928449 951162 976070 1.00325e+06 1.03277e+06 1.0647e+06 1.09912e+06
          1.13606e+06 1.17556e+06 1.21762e+06 1.2622e+06 1.30921e+06 1.35852e+06 1.40994e+06 1.43686e+06 1.43914e+06 1.44313e+06 1.44877e+06 1.456e+06
          1.46475e+06 1.47492e+06 1.48643e+06 1.49919e+06 1.51312e+06 1.52811e+06 1.54409e+06 1.56096e+06 1.57863e+06 1.597e+06 1.61596e+06 1.63539e+06
          1.65519e+06 1.6752e+06 1.6953e+06 1.71531e+06 1.77246e+06 1.79414e+06 1.81545e+06 1.83619e+06 1.85617e+06 1.87519e+06 1.89307e+06 1.90965e+06
          1.92478e+06 1.93838e+06 1.95037e+06 1.96074e+06 1.96951e+06 1.97673e+06 1.98252e+06 1.98699e+06 1.99028e+06 1.99255e+06 1.99393e+06 1.99454e+06
          1.99448e+06 1.96191e+06 1.89716e+06 1.8327e+06 1.76906e+06 1.7067e+06 1.64595e+06 1.58712e+06 1.53042e+06 1.47598e+06 1.42392e+06 1.37429e+06
          1.32711e+06 1.2824e+06 1.24014e+06 1.2003e+06 1.16283e+06 1.12771e+06 1.09487e+06 1.06428e+06 1.03589e+06 1.00963e+06 985472 963363
          943261 925126 908921 894612 882169 871567 862783 855799 850602 847182 845534 845659
          847559 851244 856728 864029 873170 884181 897094 911948 928788 947660 968618 991718
          1.01702e+06 1.04458e+06 1.07445e+06 1.1067e+06 1.14137e+06 1.17848e+06 1.21805e+06 1.26008e+06 1.3045e+06 1.35125e+06 1.40021e+06 1.45121e+06
          1.47791e+06 1.48019e+06 1.48421e+06 1.48991e+06 1.49724e+06 1.50615e+06 1.51657e+06 1.52841e+06 1.54161e+06 1.55608e+06 1.57174e+06 1.58851e+06