<?xml version="1.0"?>
<VTKFile type="UnstructuredGrid" version="0.1" byte_order="LittleEndian">
  <UnstructuredGrid>
    <Piece NumberOfCells="64" NumberOfPoints="81">
      <CellData Scalars="S_liq">
        <DataArray type="Float32" Name="S_liq" NumberOfComponents="1" format="ascii">
          0.626217 0.626217 0.626217 0.626217 0.626217 0.626217 0.626217 0.626218 0.128822 0.128822 0.128822 0.128822
          0.128822 0.128822 0.128822 0.128822 0.0467188 0.0467194 0.04672 0.0467205 0.0467209 0.0467212 0.0467215 0.0467217
          0.0262702 0.0262747 0.0262788 0.026282 0.0262848 0.0262871 0.0262891 0.0262907 0.0176272 0.0176424 0.017655 0.017665
          0.0176732 0.0176803 0.0176866 0.0176916 0.011373 0.0114257 0.0114656 0.0114968 0.0115226 0.0115448 0.0115644 0.0115811
          0 0 0 0 0 0 0 0 0 0 0 0
          0 0 0 0
        </DataArray>
        <DataArray type="Float32" Name="p_liq" NumberOfComponents="1" format="ascii">
          98507.4 98507.4 98507.4 98507.4 98507.4 98507.4 98507.4 98507.4 97800.5 97800.5 97800.5 97800.5
          97800.5 97800.5 97800.5 97800.5 97328.3 97328.3 97328.3 97328.3 97328.3 97328.3 97328.3 97328.3
          96998.7 96998.8 96998.9 96999 96999.1 96999.1 96999.2 96999.2 96718.6 96719.3 96719.8 96720.3
          96720.6 96720.9 96721.2 96721.4 96370.8 96373.9 96376.3 96378.1 96379.6 96381 96382.1 96383.1
          95697.6 95697.6 95697.6 95697.6 95697.6 95697.6 95697.6 95697.6 95697.5 95697.5 95697.5 95697.5
          95697.5 95697.5 95697.5 95697.5
        </DataArray>
        <DataArray type="Float32" Name="rho_liq" NumberOfComponents="1" format="ascii">
          997.051 997.051 997.051 997.051 997.051 997.051 997.051 997.051 997.051 997.051 997.051 997.051
          997.051 997.051 997.051 997.051 997.051 997.051 997.051 997.051 997.051 997.051 997.051 997.051
          997.051 997.051 997.051 997.051 997.051 997.051 997.051 997.051 997.05 997.05 997.05 997.05
          997.05 997.05 997.05 997.05 997.05 997.05 997.05 997.05 997.05 997.05 997.05 997.05
          715.245 733.809 747.531 758.303 767.299 775.098 782.039 788.154 236.875 261.05 277.695 290.751
          301.669 311.139 319.58 327.344
        </DataArray>
        <DataArray type="Float32" Name="mob_liq" NumberOfComponents="1" format="ascii">
          247.649 247.649 247.649 247.65 247.65 247.65 247.65 247.65 2.30837 2.30837 2.30837 2.30838
          2.30838 2.30839 2.30839 2.30839 0.104187 0.104192 0.104196 0.104199 0.104202 0.104204 0.104206 0.104208
          0.0153596 0.0153687 0.0153771 0.0153839 0.0153895 0.0153943 0.0153985 0.0154017 0.0034924 0.00350437 0.0035143 0.00352216
          0.00352868 0.0035343 0.00353924 0.00354326 0.000501011 0.000512847 0.000521957 0.000529132 0.00053512 0.000540307 0.000544911 0.000548867
          0 0 0 0 0 0 0 0 0 0 0 0
          0 0 0 0
        </DataArray>
        <DataArray type="Float32" Name="S_gas" NumberOfComponents="1" format="ascii">
          0.373783 0.373783 0.373783 0.373783 0.373783 0.373783 0.373783 0.373782 0.871179 0.871178 0.871178 0.871178
          0.871178 0.871178 0.871178 0.871178 0.953281 0.953281 0.95328 0.95328 0.953279 0.953279 0.953278 0.953278
          0.97373 0.973725 0.973721 0.973718 0.973715 0.973713 0.973711 0.973709 0.982373 0.982358 0.982345 0.982335
          0.982327 0.98232 0.982313 0.982308 0.988627 0.988574 0.988534 0.988503 0.988477 0.988455 0.988436 0.988419
          1 1 1 1 1 1 1 1 1 1 1 1
          1 1 1 1
        </DataArray>
        <DataArray type="Float32" Name="p_gas" NumberOfComponents="1" format="ascii">
          100002 100002 100002 100002 100002 100002 100002 100002 100002 100002 100002 100002
          100002 100002 100002 100002 100001 100001 100001 100001 100001 100001 100001 100001
          100001 100001 100001 100001 100001 100001 100001 100001 100000 100000 100000 100000
          100000 100000 100000 100000 100000 100000 100000 100000 100000 100000 100000 100000
          100000 100000 100000 100000 100000 100000 100000 100000 100000 100000 100000 100000
          100000 100000 100000 100000
        </DataArray>
        <DataArray type="Float32" Name="rho_gas" NumberOfComponents="1" format="ascii">
          1.15428 1.15428 1.15428 1.15428 1.15428 1.15428 1.15428 1.15428 1.15427 1.15427 1.15427 1.15427
          1.15427 1.15427 1.15427 1.15427 1.15427 1.15427 1.15427 1.15427 1.15427 1.15427 1.15427 1.15427
          1.15426 1.15426 1.15426 1.15426 1.15426 1.15426 1.15426 1.15426 1.15426 1.15426 1.15426 1.15426
          1.15426 1.15426 1.15426 1.15426 1.15426 1.15426 1.15426 1.15426 1.15426 1.15426 1.15426 1.15426
          1.1582 1.15794 1.15775 1.1576 1.15747 1.15736 1.15726 1.15718 1.16491 1.16457 1.16433 1.16415
          1.164 1.16386 1.16374 1.16364
        </DataArray>
        <DataArray type="Float32" Name="mob_gas" NumberOfComponents="1" format="ascii">
          7496.04 7496.04 7496.03 7496.03 7496.02 7496.01 7496.01 7496.01 43983.8 43983.8 43983.8 43983.8
          43983.8 43983.8 43983.8 43983.7 52701.9 52701.8 52701.8 52701.7 52701.7 52701.6 52701.6 52701.6
          54406.6 54406.4 54406.1 54405.9 54405.7 54405.6 54405.5 54405.4 54851.7 54851.1 54850.6 54850.2
          54849.9 54849.6 54849.4 54849.2 55043.6 55042.5 55041.7 55041 55040.4 55040 55039.5 55039.2
          54878.5 54893.8 54905.2 54914.1 54921.5 54928 54933.7 54938.8 54486 54505.7 54519.3 54529.9
          54538.9 54546.6 54553.5 54559.8
        </DataArray>
        <DataArray type="Float32" Name="pc" NumberOfComponents="1" format="ascii">
          1494.96 1494.96 1494.96 1494.96 1494.96 1494.96 1494.96 1494.96 2200.97 2200.97 2200.97 2200.97
          2200.97 2200.97 2200.97 2200.97 2672.65 2672.65 2672.64 2672.63 2672.63 2672.62 2672.62 2672.62
          3001.89 3001.78 3001.68 3001.6 3001.54 3001.48 3001.43 3001.4 3281.75 3281.08 3280.52 3280.08
          3279.71 3279.4 3279.13 3278.9 3629.4 3626.29 3623.92 3622.08 3620.55 3619.24 3618.08 3617.09
          4302.49 4302.49 4302.49 4302.49 4302.49 4302.49 4302.49 4302.49 4302.49 4302.49 4302.49 4302.49
          4302.49 4302.49 4302.49 4302.49
        </DataArray>
        <DataArray type="Float32" Name="porosity" NumberOfComponents="1" format="ascii">
          0.41 0.41 0.41 0.41 0.41 0.41 0.41 0.41 0.41 0.41 0.41 0.41
          0.41 0.41 0.41 0.41 0.41 0.41 0.41 0.41 0.41 0.41 0.41 0.41
          0.41 0.41 0.41 0.41 0.41 0.41 0.41 0.41 0.41 0.41 0.41 0.41
          0.41 0.41 0.41 0.41 0.41 0.41 0.41 0.41 0.41 0.41 0.41 0.41
          0.41 0.41 0.41 0.41 0.41 0.41 0.41 0.41 0.41 0.41 0.41 0.41
          0.41 0.41 0.41 0.41
        </DataArray>
        <DataArray type="Float32" Name="x^H2O_liq" NumberOfComponents="1" format="ascii">
          0.999987 0.999987 0.999987 0.999987 0.999987 0.999987 0.999987 0.999987 0.999987 0.999987 0.999987 0.999987
          0.999987 0.999987 0.999987 0.999987 0.999987 0.999987 0.999987 0.999987 0.999987 0.999987 0.999987 0.999987
          0.999987 0.999987 0.999987 0.999987 0.999987 0.999987 0.999987 0.999987 0.999987 0.999987 0.999987 0.999987
          0.999987 0.999987 0.999987 0.999987 0.999987 0.999987 0.999987 0.999987 0.999987 0.999987 0.999987 0.999987
          0.717345 0.735965 0.749727 0.760531 0.769554 0.777376 0.784338 0.790471 0.237556 0.261803 0.278497 0.291591
          0.302542 0.31204 0.320506 0.328294
        </DataArray>
        <DataArray type="Float32" Name="X^H2O_liq" NumberOfComponents="1" format="ascii">
          0.999978 0.999978 0.999978 0.999978 0.999978 0.999978 0.999978 0.999978 0.999978 0.999978 0.999978 0.999978
          0.999978 0.999978 0.999978 0.999978 0.999978 0.999978 0.999978 0.999978 0.999978 0.999978 0.999978 0.999978
          0.999978 0.999978 0.999978 0.999978 0.999978 0.999978 0.999978 0.999978 0.999978 0.999978 0.999978 0.999978
          0.999978 0.999978 0.999978 0.999978 0.999978 0.999978 0.999978 0.999978 0.999978 0.999978 0.999978 0.999978
          0.717337 0.735957 0.749719 0.760523 0.769546 0.777368 0.78433 0.790463 0.237548 0.261794 0.278488 0.291583
          0.302534 0.312031 0.320498 0.328285
        </DataArray>
        <DataArray type="Float32" Name="x^Air_liq" NumberOfComponents="1" format="ascii">
          1.34035e-05 1.34035e-05 1.34035e-05 1.34035e-05 1.34035e-05 1.34035e-05 1.34035e-05 1.34035e-05 1.34034e-05 1.34034e-05 1.34034e-05 1.34034e-05
          1.34034e-05 1.34034e-05 1.34034e-05 1.34034e-05 1.34033e-05 1.34033e-05 1.34033e-05 1.34033e-05 1.34033e-05 1.34033e-05 1.34033e-05 1.34033e-05
          1.34033e-05 1.34033e-05 1.34033e-05 1.34033e-05 1.34033e-05 1.34033e-05 1.34033e-05 1.34033e-05 1.34032e-05 1.34032e-05 1.34032e-05 1.34032e-05
          1.34032e-05 1.34032e-05 1.34032e-05 1.34032e-05 1.34032e-05 1.34032e-05 1.34032e-05 1.34032e-05 1.34032e-05 1.34032e-05 1.34032e-05 1.34032e-05
          1.35274e-05 1.35192e-05 1.35132e-05 1.35084e-05 1.35044e-05 1.3501e-05 1.3498e-05 1.34953e-05 1.37382e-05 1.37275e-05 1.37202e-05 1.37144e-05
          1.37096e-05 1.37055e-05 1.37017e-05 1.36983e-05
        </DataArray>
        <DataArray type="Float32" Name="X^Air_liq" NumberOfComponents="1" format="ascii">
          2.15464e-05 2.15464e-05 2.15464e-05 2.15464e-05 2.15464e-05 2.15464e-05 2.15464e-05 2.15464e-05 2.15462e-05 2.15462e-05 2.15462e-05 2.15462e-05
          2.15462e-05 2.15462e-05 2.15462e-05 2.15462e-05 2.15461e-05 2.15461e-05 2.15461e-05 2.15461e-05 2.15461e-05 2.15461e-05 2.15461e-05 2.15461e-05
          2.1546e-05 2.1546e-05 2.1546e-05 2.1546e-05 2.1546e-05 2.1546e-05 2.1546e-05 2.1546e-05 2.1546e-05 2.1546e-05 2.1546e-05 2.1546e-05
          2.1546e-05 2.1546e-05 2.1546e-05 2.1546e-05 2.15459e-05 2.15459e-05 2.15459e-05 2.15459e-05 2.15459e-05 2.15459e-05 2.15459e-05 2.15459e-05
          2.17455e-05 2.17323e-05 2.17226e-05 2.1715e-05 2.17086e-05 2.17031e-05 2.16982e-05 2.16938e-05 2.20838e-05 2.20667e-05 2.2055e-05 2.20458e-05
          2.20381e-05 2.20314e-05 2.20254e-05 2.20199e-05
        </DataArray>
        <DataArray type="Float32" Name="rhoMolar_liq" NumberOfComponents="1" format="ascii">
          55344.6 55344.6 55344.6 55344.6 55344.6 55344.6 55344.6 55344.6 55344.6 55344.6 55344.6 55344.6
          55344.6 55344.6 55344.6 55344.6 55344.6 55344.6 55344.6 55344.6 55344.6 55344.6 55344.6 55344.6
          55344.6 55344.6 55344.6 55344.6 55344.6 55344.6 55344.6 55344.6 55344.6 55344.6 55344.6 55344.6
          55344.6 55344.6 55344.6 55344.6 55344.6 55344.6 55344.6 55344.6 55344.6 55344.6 55344.6 55344.6
          55344.5 55344.5 55344.5 55344.5 55344.5 55344.5 55344.5 55344.5 55344.5 55344.5 55344.5 55344.5
          55344.5 55344.5 55344.5 55344.5
        </DataArray>
        <DataArray type="Float32" Name="x^H2O_gas" NumberOfComponents="1" format="ascii">
          0.0317389 0.0317389 0.0317389 0.0317389 0.0317389 0.0317389 0.0317389 0.0317389 0.0317391 0.0317391 0.0317391 0.0317391
          0.0317391 0.0317391 0.0317391 0.0317391 0.0317393 0.0317393 0.0317393 0.0317393 0.0317393 0.0317393 0.0317393 0.0317393
          0.0317394 0.0317394 0.0317394 0.0317394 0.0317394 0.0317394 0.0317394 0.0317394 0.0317395 0.0317395 0.0317395 0.0317395
          0.0317395 0.0317395 0.0317395 0.0317395 0.0317396 0.0317396 0.0317396 0.0317396 0.0317396 0.0317396 0.0317396 0.0317396
          0.0227686 0.0233595 0.0237964 0.0241393 0.0244257 0.0246739 0.0248949 0.0250896 0.00754003 0.00830963 0.0088395 0.00925512
          0.00960271 0.00990416 0.0101729 0.0104201
        </DataArray>
        <DataArray type="Float32" Name="X^H2O_gas" NumberOfComponents="1" format="ascii">
          0.0199835 0.0199835 0.0199835 0.0199835 0.0199835 0.0199835 0.0199835 0.0199835 0.0199837 0.0199837 0.0199837 0.0199837
          0.0199837 0.0199837 0.0199837 0.0199837 0.0199838 0.0199838 0.0199838 0.0199838 0.0199838 0.0199838 0.0199838 0.0199838
          0.0199839 0.0199839 0.0199839 0.0199839 0.0199839 0.0199839 0.0199839 0.0199839 0.0199839 0.0199839 0.0199839 0.0199839
          0.0199839 0.0199839 0.0199839 0.0199839 0.019984 0.019984 0.019984 0.019984 0.019984 0.019984 0.019984 0.019984
          0.0142866 0.0146607 0.0149374 0.0151546 0.0153361 0.0154934 0.0156335 0.0157569 0.00470384 0.00518547 0.00551723 0.00577755
          0.00599533 0.00618424 0.00635269 0.00650764
        </DataArray>
        <DataArray type="Float32" Name="x^Air_gas" NumberOfComponents="1" format="ascii">
          0.968261 0.968261 0.968261 0.968261 0.968261 0.968261 0.968261 0.968261 0.968261 0.968261 0.968261 0.968261
          0.968261 0.968261 0.968261 0.968261 0.968261 0.968261 0.968261 0.968261 0.968261 0.968261 0.968261 0.968261
          0.968261 0.968261 0.968261 0.968261 0.968261 0.968261 0.968261 0.968261 0.96826 0.96826 0.96826 0.96826
          0.96826 0.96826 0.96826 0.96826 0.96826 0.96826 0.96826 0.96826 0.96826 0.96826 0.96826 0.96826
          0.977231 0.97664 0.976204 0.975861 0.975574 0.975326 0.975105 0.97491 0.99246 0.99169 0.991161 0.990745
          0.990397 0.990096 0.989827 0.98958
        </DataArray>
        <DataArray type="Float32" Name="X^Air_gas" NumberOfComponents="1" format="ascii">
          0.980016 0.980016 0.980016 0.980016 0.980016 0.980016 0.980016 0.980016 0.980016 0.980016 0.980016 0.980016
          0.980016 0.980016 0.980016 0.980016 0.980016 0.980016 0.980016 0.980016 0.980016 0.980016 0.980016 0.980016
          0.980016 0.980016 0.980016 0.980016 0.980016 0.980016 0.980016 0.980016 0.980016 0.980016 0.980016 0.980016
          0.980016 0.980016 0.980016 0.980016 0.980016 0.980016 0.980016 0.980016 0.980016 0.980016 0.980016 0.980016
          0.985713 0.985339 0.985063 0.984845 0.984664 0.984507 0.984367 0.984243 0.995296 0.994815 0.994483 0.994222
          0.994005 0.993816 0.993647 0.993492
        </DataArray>
        <DataArray type="Float32" Name="rhoMolar_gas" NumberOfComponents="1" format="ascii">
          40.3425 40.3425 40.3425 40.3425 40.3425 40.3425 40.3425 40.3425 40.3422 40.3422 40.3422 40.3422
          40.3422 40.3422 40.3422 40.3422 40.342 40.342 40.342 40.342 40.342 40.342 40.342 40.342
          40.3418 40.3418 40.3418 40.3418 40.3418 40.3418 40.3418 40.3418 40.3417 40.3417 40.3417 40.3417
          40.3417 40.3417 40.3417 40.3417 40.3417 40.3417 40.3417 40.3417 40.3417 40.3417 40.3417 40.3417
          40.3406 40.3406 40.3407 40.3407 40.3408 40.3408 40.3408 40.3408 40.3396 40.3396 40.3397 40.3397
          40.3397 40.3397 40.3397 40.3397
        </DataArray>
        <DataArray type="Float32" Name="phase presence" NumberOfComponents="1" format="ascii">
          3 3 3 3 3 3 3 3 3 3 3 3
          3 3 3 3 3 3 3 3 3 3 3 3
          3 3 3 3 3 3 3 3 3 3 3 3
          3 3 3 3 3 3 3 3 3 3 3 3
          2 2 2 2 2 2 2 2 2 2 2 2
          2 2 2 2
        </DataArray>
        <DataArray type="Float32" Name="process rank" NumberOfComponents="1" format="ascii">
          0 0 0 0 0 0 0 0 0 0 0 0
          0 0 0 0 0 0 0 0 0 0 0 0
          0 0 0 0 0 0 0 0 0 0 0 0
          0 0 0 0 0 0 0 0 0 0 0 0
          0 0 0 0 0 0 0 0 0 0 0 0
          0 0 0 0
        </DataArray>
      </CellData>
      <Points>
        <DataArray type="Float32" Name="Coordinates" NumberOfComponents="3" format="ascii">
          0 0 0 0.03125 0 0 0 0.0867169 0 0.03125 0.0867169 0
          0.0625 0 0 0.0625 0.0867169 0 0.09375 0 0 0.09375 0.0867169 0
          0.125 0 0 0.125 0.0867169 0 0.15625 0 0 0.15625 0.0867169 0
          0.1875 0 0 0.1875 0.0867169 0 0.21875 0 0 0.21875 0.0867169 0
          0.25 0 0 0.25 0.0867169 0 0 0.144528 0 0.03125 0.144528 0
          0.0625 0.144528 0 0.09375 0.144528 0 0.125 0.144528 0 0.15625 0.144528 0
          0.1875 0.144528 0 0.21875 0.144528 0 0.25 0.144528 0 0 0.183069 0
          0.03125 0.183069 0 0.0625 0.183069 0 0.09375 0.183069 0 0.125 0.183069 0
          0.15625 0.183069 0 0.1875 0.183069 0 0.21875 0.183069 0 0.25 0.183069 0
          0 0.208763 0 0.03125 0.208763 0 0.0625 0.208763 0 0.09375 0.208763 0
          0.125 0.208763 0 0.15625 0.208763 0 0.1875 0.208763 0 0.21875 0.208763 0
          0.25 0.208763 0 0 0.225892 0 0.03125 0.225892 0 0.0625 0.225892 0
          0.09375 0.225892 0 0.125 0.225892 0 0.15625 0.225892 0 0.1875 0.225892 0
          0.21875 0.225892 0 0.25 0.225892 0 0 0.237312 0 0.03125 0.237312 0
          0.0625 0.237312 0 0.09375 0.237312 0 0.125 0.237312 0 0.15625 0.237312 0
          0.1875 0.237312 0 0.21875 0.237312 0 0.25 0.237312 0 0 0.244925 0
          0.03125 0.244925 0 0.0625 0.244925 0 0.09375 0.244925 0 0.125 0.244925 0
          0.15625 0.244925 0 0.1875 0.244925 0 0.21875 0.244925 0 0.25 0.244925 0
          0 0.25 0 0.03125 0.25 0 0.0625 0.25 0 0.09375 0.25 0
          0.125 0.25 0 0.15625 0.25 0 0.1875 0.25 0 0.21875 0.25 0
          0.25 0.25 0
        </DataArray>
      </Points>
      <Cells>
        <DataArray type="Int32" Name="connectivity" NumberOfComponents="1" format="ascii">
          0 1 3 2 1 4 5 3 4 6 7 5
          6 8 9 7 8 10 11 9 10 12 13 11
          12 14 15 13 14 16 17 15 2 3 19 18
          3 5 20 19 5 7 21 20 7 9 22 21
          9 11 23 22 11 13 24 23 13 15 25 24
          15 17 26 25 18 19 28 27 19 20 29 28
          20 21 30 29 21 22 31 30 22 23 32 31
          23 24 33 32 24 25 34 33 25 26 35 34
          27 28 37 36 28 29 38 37 29 30 39 38
          30 31 40 39 31 32 41 40 32 33 42 41
          33 34 43 42 34 35 44 43 36 37 46 45
          37 38 47 46 38 39 48 47 39 40 49 48
          40 41 50 49 41 42 51 50 42 43 52 51
          43 44 53 52 45 46 55 54 46 47 56 55
          47 48 57 56 48 49 58 57 49 50 59 58
          50 51 60 59 51 52 61 60 52 53 62 61
          54 55 64 63 55 56 65 64 56 57 66 65
          57 58 67 66 58 59 68 67 59 60 69 68
          60 61 70 69 61 62 71 70 63 64 73 72
          64 65 74 73 65 66 75 74 66 67 76 75
          67 68 77 76 68 69 78 77 69 70 79 78
          70 71 80 79
        </DataArray>
        <DataArray type="Int32" Name="offsets" NumberOfComponents="1" format="ascii">
          4 8 12 16 20 24 28 32 36 40 44 48
          52 56 60 64 68 72 76 80 84 88 92 96
          100 104 108 112 116 120 124 128 132 136 140 144
          148 152 156 160 164 168 172 176 180 184 188 192
          196 200 204 208 212 216 220 224 228 232 236 240
          244 248 252 256
        </DataArray>
        <DataArray type="UInt8" Name="types" NumberOfComponents="1" format="ascii">
          9 9 9 9 9 9 9 9 9 9 9 9
          9 9 9 9 9 9 9 9 9 9 9 9
          9 9 9 9 9 9 9 9 9 9 9 9
          9 9 9 9 9 9 9 9 9 9 9 9
          9 9 9 9 9 9 9 9 9 9 9 9
          9 9 9 9
        </DataArray>
      </Cells>
    </Piece>
  </UnstructuredGrid>
</VTKFile>
