<?xml version="1.0"?>
<VTKFile type="UnstructuredGrid" version="0.1" byte_order="LittleEndian">
  <UnstructuredGrid>
    <Piece NumberOfCells="2500" NumberOfPoints="2601">
      <CellData Scalars="p">
        <DataArray type="Float32" Name="p" NumberOfComponents="1" format="ascii">
          109902 109902 109902 109901 109902 109901 109902 109902 109902 109901 109902 109902
          109901 109901 109902 109902 109902 109902 109902 109902 109902 109902 109902 109902
          109902 109902 109902 109902 109902 109902 109902 109902 109902 109902 109902 109901
          109901 109902 109901 109901 109902 109902 109902 109901 109901 109902 109901 109901
          109902 109902 109705 109705 109704 109704 109704 109704 109704 109704 109704 109704
          109704 109704 109703 109704 109705 109705 109705 109705 109705 109705 109705 109704
          109704 109705 109705 109705 109705 109705 109705 109706 109706 109706 109705 109705
          109704 109703 109703 109704 109705 109705 109704 109703 109703 109703 109703 109704
          109704 109704 109705 109706 109508 109506 109507 109507 109507 109506 109507 109507
          109507 109507 109507 109507 109507 109507 109508 109509 109509 109509 109509 109509
          109508 109507 109507 109507 109508 109509 109509 109509 109509 109509 109509 109509
          109509 109507 109506 109506 109506 109507 109508 109505 109505 109505 109505 109506
          109507 109507 109507 109507 109507 109508 109306 109305 109306 109307 109308 109308
          109309 109310 109310 109311 109310 109310 109310 109310 109311 109312 109312 109313
          109313 109312 109311 109311 109311 109311 109311 109311 109312 109312 109312 109311
          109312 109312 109312 109311 109310 109310 109310 109309 109307 109304 109306 109307
          109308 109309 109309 109309 109309 109309 109309 109309 109108 109108 109108 109107
          109108 109110 109112 109113 109114 109113 109113 109112 109113 109114 109115 109116
          109116 109116 109116 109115 109115 109115 109115 109114 109114 109114 109114 109114
          109115 109115 109115 109115 109115 109114 109113 109113 109113 109110 109108 109107
          109108 109110 109111 109112 109111 109111 109111 109110 109110 109109 108909 108912
          108910 108910 108910 108910 108913 108915 108913 108915 108914 108915 108916 108916
          108917 108917 108918 108918 108918 108919 108918 108918 108918 108917 108917 108917
          108917 108917 108917 108918 108918 108918 108917 108917 108916 108915 108912 108911
          108911 108910 108911 108912 108913 108909 108914 108914 108914 108914 108912 108911
          108709 108711 108710 108712 108712 108712 108712 108713 108710 108715 108718 108718
          108719 108719 108719 108718 108719 108720 108720 108721 108721 108721 108721 108721
          108720 108720 108720 108720 108720 108720 108720 108720 108720 108720 108719 108716
          108714 108713 108713 108713 108714 108715 108708 108700 108708 108714 108712 108715
          108712 108711 108512 108512 108512 108513 108513 108514 108514 108514 108514 108517
          108520 108520 108521 108522 108522 108522 108522 108523 108523 108524 108524 108524
          108524 108524 108524 108523 108524 108524 108523 108523 108522 108522 108522 108522
          108520 108517 108517 108516 108515 108515 108515 108511 108504 108504 108504 108507
          108504 108511 108514 108514 108315 108314 108315 108315 108315 108316 108317 108318
          108318 108319 108324 108324 108324 108325 108325 108325 108326 108326 108326 108327
          108327 108328 108328 108327 108327 108326 108326 108326 108325 108325 108324 108324
          108323 108323 108321 108321 108320 108319 108317 108317 108316 108310 108306 108307
          108307 108306 108307 108311 108317 108317 108116 108115 108116 108118 108118 108118
          108119 108120 108121 108118 108122 108127 108127 108127 108129 108129 108129 108129
          108130 108131 108131 108131 108131 108131 108129 108126 108127 108127 108127 108128
          108127 108127 108126 108126 108125 108124 108121 108119 108119 108119 108115 108109
          108108 108106 108106 108106 108105 108106 108109 108114 107917 107916 107917 107919
          107921 107919 107919 107920 107920 107919 107918 107926 107930 107927 107925 107926
          107929 107932 107929 107934 107935 107934 107932 107931 107929 107929 107928 107930
          107931 107929 107930 107927 107930 107929 107926 107924 107921 107920 107921 107920
          107917 107913 107910 107905 107903 107902 107901 107900 107900 107904 107718 107718
          107718 107718 107721 107721 107721 107720 107720 107721 107721 107726 107728 107722
          107719 107722 107726 107725 107720 107729 107738 107735 107731 107732 107732 107730
          107725 107726 107727 107726 107726 107721 107726 107730 107726 107725 107723 107723
          107721 107720 107720 107713 107708 107706 107705 107704 107703 107702 107703 107702
          107519 107518 107519 107518 107520 107524 107522 107522 107522 107523 107524 107523
          107523 107521 107520 107523 107528 107524 107523 107524 107532 107533 107533 107526
          107524 107527 107524 107523 107523 107526 107525 107524 107524 107528 107526 107525
          107521 107523 107518 107514 107514 107508 107509 107509 107508 107507 107506 107504
          107505 107505 107320 107320 107320 107320 107318 107320 107322 107326 107326 107325
          107323 107321 107321 107322 107322 107322 107325 107325 107326 107326 107332 107333
          107322 107311 107311 107319 107321 107323 107326 107322 107320 107324 107327 107328
          107329 107325 107321 107321 107316 107312 107311 107311 107312 107311 107311 107311
          107308 107308 107307 107307 107122 107123 107123 107120 107120 107119 107119 107121
          107122 107123 107124 107124 107124 107124 107123 107124 107121 107122 107124 107121
          107121 107119 107110 107110 107112 107116 107117 107119 107121 107117 107113 107122
          107130 107123 107122 107120 107120 107121 107118 107114 107114 107115 107115 107114
          107113 107111 107108 107109 107108 107109 106919 106920 106920 106917 106918 106918
          106917 106917 106918 106921 106925 106926 106924 106923 106921 106920 106915 106916
          106916 106914 106911 106910 106910 106911 106911 106914 106919 106919 106918 106918
          106917 106921 106924 106916 106916 106916 106918 106921 106918 106917 106916 106916
          106916 106916 106914 106911 106911 106912 106912 106912 106718 106718 106718 106718
          106717 106717 106717 106718 106719 106719 106718 106718 106718 106717 106717 106717
          106717 106715 106712 106713 106713 106712 106712 106712 106711 106711 106712 106715
          106720 106720 106720 106720 106721 106720 106719 106719 106719 106718 106714 106715
          106715 106717 106717 106717 106715 106714 106714 106715 106715 106714 106521 106521
          106520 106519 106518 106520 106519 106516 106516 106515 106512 106511 106514 106514
          106514 106515 106517 106514 106514 106514 106516 106516 106515 106515 106515 106511
          106507 106508 106515 106523 106523 106522 106521 106521 106520 106521 106520 106517
          106515 106515 106515 106516 106517 106517 106515 106516 106517 106516 106517 106516
          106316 106316 106318 106319 106316 106319 106317 106315 106314 106314 106314 106314
          106315 106316 106317 106312 106310 106309 106316 106314 106313 106312 106311 106319
          106312 106309 106309 106309 106310 106319 106324 106323 106322 106322 106321 106320
          106318 106316 106316 106317 106317 106316 106316 106318 106317 106318 106318 106319
          106318 106317 106109 106107 106109 106114 106112 106116 106114 106115 106117 106117
          106117 106117 106117 106118 106113 106104 106104 106102 106109 106116 106109 106104
          106101 106106 106104 106106 106108 106108 106110 106114 106119 106120 106119 106120
          106119 106117 106118 106118 106119 106116 106116 106118 106116 106115 106113 106116
          106120 106118 106120 106120 105899 105902 105901 105906 105910 105913 105914 105913
          105917 105920 105920 105918 105917 105917 105912 105907 105905 105903 105901 105907
          105905 105904 105903 105900 105902 105903 105905 105907 105908 105910 105915 105916
          105919 105919 105919 105919 105920 105921 105918 105914 105913 105916 105917 105914
          105911 105911 105914 105911 105917 105923 105687 105698 105703 105702 105707 105712
          105715 105715 105716 105718 105718 105717 105717 105715 105712 105708 105707 105705
          105704 105704 105703 105702 105703 105702 105703 105705 105706 105707 105709 105707
          105711 105713 105720 105722 105720 105720 105723 105720 105717 105715 105714 105714
          105716 105715 105714 105713 105713 105714 105714 105717 105489 105497 105505 105505
          105506 105510 105517 105518 105517 105515 105518 105521 105521 105515 105511 105510
          105510 105504 105505 105504 105499 105499 105502 105502 105504 105506 105508 105508
          105510 105510 105509 105510 105515 105519 105519 105518 105520 105518 105518 105515
          105515 105514 105514 105513 105512 105511 105513 105516 105514 105514 105291 105298
          105309 105309 105309 105307 105312 105320 105318 105314 105316 105318 105317 105314
          105314 105314 105306 105302 105303 105302 105296 105299 105303 105306 105307 105308
          105310 105311 105311 105312 105312 105312 105314 105318 105321 105320 105320 105321
          105317 105314 105314 105313 105311 105311 105311 105312 105312 105315 105316 105316
          105095 105095 105104 105111 105109 105107 105106 105110 105111 105114 105113 105117
          105117 105117 105117 105103 105095 105106 105106 105100 105099 105099 105105 105109
          105109 105109 105111 105115 105114 105114 105114 105115 105115 105117 105119 105121
          105119 105118 105116 105116 105115 105115 105115 105114 105114 105115 105113 105115
          105117 105118 104896 104896 104898 104903 104905 104907 104903 104902 104902 104907
          104909 104905 104903 104902 104898 104886 104887 104894 104897 104895 104901 104902
          104904 104912 104911 104911 104910 104911 104917 104911 104914 104916 104917 104918
          104917 104920 104919 104917 104916 104916 104916 104917 104916 104914 104915 104914
          104911 104912 104914 104914 104697 104697 104698 104697 104699 104699 104694 104699
          104703 104705 104699 104688 104688 104688 104688 104687 104689 104689 104690 104691
          104695 104699 104699 104706 104710 104715 104708 104703 104704 104698 104702 104707
          104712 104718 104719 104718 104716 104718 104715 104717 104717 104717 104717 104716
          104716 104714 104713 104712 104711 104710 104500 104500 104500 104498 104497 104496
          104497 104498 104504 104505 104494 104492 104492 104491 104491 104491 104492 104492
          104491 104491 104492 104497 104500 104501 104499 104505 104503 104502 104497 104497
          104497 104498 104502 104510 104522 104511 104511 104514 104514 104516 104517 104515
          104516 104519 104519 104515 104516 104514 104512 104512 104303 104303 104301 104300
          104299 104299 104297 104295 104300 104296 104289 104290 104292 104291 104294 104294
          104292 104294 104293 104293 104287 104292 104303 104299 104292 104298 104304 104299
          104299 104300 104299 104299 104300 104297 104303 104296 104302 104306 104315 104315
          104314 104312 104314 104319 104316 104312 104315 104315 104314 104315 104105 104106
          104103 104101 104100 104098 104096 104097 104094 104089 104089 104089 104088 104088
          104096 104098 104086 104090 104086 104085 104080 104080 104092 104094 104093 104095
          104096 104090 104096 104101 104103 104102 104101 104099 104098 104098 104098 104098
          104106 104112 104115 104115 104115 104116 104114 104115 104116 104116 104117 104117
          103908 103906 103903 103902 103901 103898 103897 103895 103892 103892 103891 103891
          103887 103885 103887 103885 103875 103881 103880 103881 103881 103882 103890 103895
          103896 103895 103894 103894 103895 103900 103904 103902 103903 103901 103902 103900
          103899 103901 103904 103907 103914 103917 103917 103917 103917 103918 103918 103918
          103919 103919 103707 103707 103701 103702 103699 103697 103695 103694 103694 103693
          103693 103690 103686 103685 103681 103679 103678 103679 103682 103683 103683 103684
          103688 103692 103694 103693 103695 103697 103698 103701 103703 103699 103701 103701
          103704 103701 103699 103701 103704 103707 103713 103717 103720 103720 103721 103721
          103718 103713 103719 103713 103503 103500 103494 103497 103495 103496 103496 103496
          103496 103495 103493 103490 103486 103484 103482 103481 103481 103481 103482 103486
          103487 103487 103486 103490 103488 103485 103488 103494 103494 103496 103501 103502
          103502 103502 103503 103502 103502 103502 103503 103504 103507 103509 103510 103512
          103517 103513 103509 103505 103508 103503 103298 103297 103297 103298 103298 103298
          103294 103293 103294 103298 103297 103292 103286 103286 103284 103280 103283 103283
          103279 103281 103284 103283 103282 103285 103282 103283 103283 103289 103290 103293
          103299 103305 103305 103300 103305 103305 103305 103305 103305 103305 103304 103303
          103300 103301 103305 103303 103303 103304 103305 103306 103095 103097 103100 103097
          103094 103090 103087 103088 103089 103095 103098 103093 103090 103086 103078 103070
          103076 103078 103077 103077 103078 103077 103080 103083 103084 103086 103086 103090
          103092 103093 103097 103105 103096 103085 103095 103101 103106 103107 103108 103107
          103105 103103 103104 103104 103105 103106 103106 103103 103102 103107 102896 102896
          102896 102893 102889 102885 102886 102887 102889 102889 102890 102889 102890 102889
          102877 102872 102871 102874 102879 102879 102878 102878 102879 102882 102886 102886
          102887 102890 102892 102894 102894 102895 102889 102886 102889 102893 102896 102898
          102900 102905 102906 102905 102906 102907 102908 102909 102903 102897 102896 102900
          102698 102697 102696 102695 102691 102687 102686 102686 102688 102685 102685 102688
          102691 102681 102671 102672 102670 102671 102675 102677 102681 102679 102677 102679
          102682 102684 102686 102691 102691 102692 102691 102691 102689 102687 102689 102690
          102689 102690 102690 102701 102708 102708 102709 102709 102709 102704 102698 102699
          102699 102699 102501 102499 102497 102496 102494 102491 102488 102489 102487 102484
          102486 102487 102483 102474 102474 102474 102473 102473 102473 102472 102477 102475
          102471 102474 102476 102476 102477 102488 102494 102494 102494 102493 102489 102489
          102488 102490 102492 102490 102491 102500 102511 102511 102511 102512 102506 102500
          102500 102500 102502 102502 102299 102299 102299 102298 102297 102294 102291 102291
          102287 102285 102285 102283 102278 102278 102278 102276 102275 102275 102274 102272
          102273 102272 102272 102270 102271 102267 102267 102272 102281 102285 102295 102293
          102289 102292 102283 102287 102288 102289 102292 102299 102312 102314 102311 102307
          102303 102303 102303 102302 102303 102304 102096 102102 102102 102101 102101 102097
          102094 102092 102089 102089 102087 102084 102082 102081 102080 102076 102076 102076
          102074 102073 102071 102069 102071 102071 102070 102070 102069 102070 102070 102069
          102078 102081 102080 102081 102076 102081 102085 102086 102091 102095 102101 102104
          102104 102102 102105 102105 102105 102105 102105 102106 101893 101896 101898 101904
          101904 101897 101895 101893 101892 101892 101889 101885 101884 101883 101879 101875
          101875 101875 101874 101873 101872 101872 101872 101872 101871 101871 101871 101872
          101872 101872 101872 101872 101873 101876 101880 101880 101884 101887 101892 101895
          101895 101897 101899 101899 101903 101906 101907 101908 101908 101907 101695 101693
          101690 101699 101697 101693 101694 101694 101694 101696 101691 101686 101684 101682
          101677 101677 101676 101675 101676 101676 101675 101675 101675 101675 101674 101674
          101674 101675 101675 101675 101675 101675 101675 101677 101681 101683 101685 101686
          101691 101698 101696 101700 101699 101699 101702 101705 101706 101710 101709 101707
          101498 101495 101493 101496 101494 101495 101495 101495 101496 101498 101491 101486
          101484 101483 101480 101479 101479 101479 101478 101478 101478 101479 101479 101478
          101478 101478 101478 101478 101478 101478 101478 101477 101476 101481 101486 101486
          101487 101488 101488 101494 101493 101497 101497 101498 101500 101502 101502 101504
          101506 101504 101299 101297 101297 101296 101297 101298 101298 101297 101294 101294
          101288 101287 101287 101287 101283 101281 101281 101281 101281 101281 101281 101281
          101282 101282 101282 101281 101281 101281 101280 101280 101280 101280 101280 101283
          101289 101287 101289 101289 101292 101295 101296 101298 101298 101298 101298 101298
          101301 101298 101300 101302 101099 101099 101099 101098 101096 101096 101100 101095
          101090 101090 101088 101089 101090 101087 101084 101084 101084 101084 101084 101084
          101084 101084 101084 101085 101084 101083 101083 101083 101083 101083 101084 101083
          101082 101082 101086 101086 101088 101090 101094 101098 101099 101098 101102 101101
          101100 101098 101097 101094 101094 101098 100900 100900 100901 100899 100892 100889
          100894 100892 100892 100892 100892 100891 100890 100888 100887 100887 100886 100887
          100888 100888 100887 100886 100887 100887 100887 100887 100887 100887 100887 100887
          100887 100886 100885 100886 100887 100889 100891 100892 100894 100895 100895 100893
          100898 100902 100898 100895 100893 100894 100894 100895 100699 100702 100698 100695
          100691 100691 100693 100695 100695 100695 100695 100693 100691 100691 100690 100689
          100689 100689 100690 100690 100689 100689 100690 100690 100690 100690 100690 100690
          100690 100689 100689 100689 100689 100689 100689 100691 100693 100695 100693 100693
          100693 100693 100695 100698 100695 100696 100697 100697 100698 100697 100494 100497
          100495 100495 100495 100495 100494 100497 100497 100497 100496 100494 100494 100493
          100493 100492 100491 100491 100492 100492 100492 100493 100492 100493 100493 100493
          100494 100494 100492 100491 100491 100492 100492 100492 100493 100494 100495 100496
          100496 100496 100496 100496 100497 100498 100499 100498 100498 100497 100498 100499
          100298 100297 100297 100297 100298 100298 100297 100298 100299 100299 100297 100297
          100297 100296 100296 100295 100295 100295 100295 100294 100295 100295 100295 100295
          100296 100296 100296 100296 100294 100295 100295 100295 100295 100295 100296 100297
          100298 100298 100299 100298 100299 100298 100299 100300 100301 100299 100297 100296
          100297 100300 100100 100099 100099 100098 100099 100099 100098 100099 100099 100100
          100098 100099 100099 100099 100099 100099 100098 100098 100098 100098 100098 100098
          100098 100098 100098 100098 100098 100098 100098 100098 100098 100098 100098 100098
          100099 100098 100100 100099 100100 100098 100100 100099 100099 100101 100101 100100
          100099 100099 100099 100100
        </DataArray>
        <DataArray type="Float32" Name="permeability" NumberOfComponents="1" format="ascii">
          4.0124e-10 8.20869e-10 4.77882e-10 3.49061e-11 6.07454e-10 2.3371e-11 7.99052e-10 2.33217e-11 8.28578e-10 8.61112e-10 2.39303e-11 4.9998e-10
          5.90532e-12 2.3895e-10 6.8082e-11 3.55989e-11 5.37863e-11 1.09295e-10 6.4022e-11 2.34961e-09 4.28503e-10 5.49257e-11 7.21735e-11 1.31754e-09
          2.17029e-11 6.77962e-10 2.17325e-10 6.2739e-11 1.09221e-12 1.58624e-09 5.91938e-09 2.08449e-09 8.76589e-13 7.75367e-09 1.44871e-10 2.60931e-11
          2.83969e-11 3.54594e-11 2.42381e-10 4.35046e-11 9.24019e-11 1.60346e-10 4.32168e-10 6.15793e-11 1.44401e-10 1.71143e-09 4.31361e-10 2.0147e-10
          1.07448e-08 2.39392e-10 2.92197e-10 6.64006e-10 2.87473e-10 8.25882e-09 2.17225e-10 9.58835e-11 1.97628e-11 1.26714e-11 6.03831e-11 2.03544e-09
          3.14764e-12 2.31683e-11 5.1637e-10 1.14481e-10 5.95152e-12 5.47776e-11 1.59129e-11 1.98697e-11 3.02723e-13 1.84669e-09 1.61056e-11 2.6385e-11
          1.05711e-11 6.73834e-11 2.27488e-11 5.53723e-10 1.56853e-10 5.26596e-11 5.3615e-11 6.79644e-10 8.56671e-10 1.21447e-09 5.50603e-10 8.87202e-12
          3.19383e-11 2.04746e-11 2.79887e-10 4.69907e-13 5.47895e-10 3.27144e-10 1.63766e-11 3.7484e-11 4.23193e-12 1.28713e-09 1.05704e-08 9.80108e-11
          8.95908e-10 1.52606e-09 5.40703e-12 4.42653e-10 5.57911e-11 9.34906e-12 9.10257e-10 7.13549e-10 1.09398e-10 7.1142e-11 5.62633e-09 1.68002e-09
          2.12786e-09 1.47865e-09 1.13869e-10 1.23207e-12 2.84484e-10 6.36285e-10 1.41497e-11 2.64907e-09 6.37453e-11 1.65828e-09 1.49894e-09 1.57764e-09
          2.33336e-12 1.01689e-09 7.39859e-09 9.03745e-10 1.4551e-11 2.37728e-10 9.0801e-09 4.4415e-11 3.64751e-10 1.93234e-12 1.6016e-09 5.46855e-10
          8.84111e-11 2.36704e-11 3.20836e-09 3.5287e-09 3.36932e-10 1.88112e-10 2.39641e-10 7.3979e-13 1.4165e-10 6.9597e-11 1.18688e-10 1.69405e-09
          8.42611e-11 6.256e-11 4.97828e-11 9.03505e-10 7.99167e-11 1.69363e-11 1.226e-11 2.37978e-08 1.59695e-10 2.6529e-12 2.56661e-12 2.02566e-09
          6.50374e-11 3.53875e-09 8.18449e-09 5.97151e-10 1.07881e-09 7.8237e-12 4.49192e-10 6.97882e-12 5.09327e-13 3.27301e-11 2.19488e-10 6.11494e-10
          6.29663e-10 1.9705e-11 1.23521e-10 4.22914e-09 3.7045e-10 1.03306e-11 1.08112e-09 1.22054e-12 2.99247e-11 1.22897e-11 4.19601e-11 1.16509e-10
          8.14945e-11 3.09069e-12 5.65083e-10 3.21382e-11 4.04992e-09 1.62952e-09 4.85118e-10 3.60016e-11 2.70387e-12 1.3981e-10 7.88416e-12 2.98929e-09
          2.17063e-10 9.47639e-10 3.93151e-13 3.76887e-12 3.57245e-11 2.62288e-10 2.48066e-13 1.03887e-12 2.36365e-10 6.29318e-10 3.55081e-09 2.90925e-10
          1.73156e-11 1.54093e-10 7.70899e-11 1.79314e-10 4.64389e-09 8.63001e-11 2.30206e-11 6.82619e-10 4.19043e-10 1.53776e-11 6.44943e-10 4.77518e-10
          1.23323e-09 4.51456e-12 1.91238e-10 1.35637e-10 3.99801e-11 1.60214e-09 1.19542e-10 2.67748e-11 2.72961e-11 2.34442e-11 3.53488e-09 6.81941e-11
          4.59465e-11 3.51484e-10 1.63547e-09 4.1131e-10 3.13942e-11 9.98518e-11 1.09505e-11 2.52911e-10 1.28282e-10 3.23649e-11 2.83343e-10 5.3476e-10
          4.74096e-10 2.69709e-10 1.75151e-10 1.41148e-09 5.04127e-11 9.1925e-11 2.65697e-11 5.50578e-10 7.75792e-10 9.15822e-10 6.96158e-11 9.72258e-10
          2.9882e-11 5.78713e-08 3.26087e-09 2.12598e-10 1.30173e-11 1.64239e-10 8.87599e-12 1.4792e-09 9.57302e-10 1.01185e-10 7.94442e-10 1.14821e-11
          6.24913e-12 2.53388e-12 1.40298e-11 5.00341e-12 1.43971e-11 4.41439e-10 2.12867e-10 9.37417e-10 6.01382e-11 9.33834e-12 1.50954e-10 1.24336e-11
          1.46478e-11 2.50588e-10 5.30163e-12 5.8498e-11 4.34062e-11 5.06959e-11 1.54247e-11 6.93803e-12 1.34586e-10 5.22077e-12 3.3322e-11 1.07412e-10
          1.41683e-10 4.35232e-10 5.37868e-11 6.21668e-10 5.5457e-12 1.82526e-12 4.69943e-11 1.76047e-10 6.95778e-11 6.38472e-10 1.09742e-10 9.41829e-11
          1.25748e-09 2.45364e-12 7.51026e-11 3.0403e-11 1.25764e-10 8.01249e-09 1.40058e-11 3.22414e-11 1.02335e-08 4.25574e-11 2.69705e-10 4.17293e-11
          4.51112e-11 3.59316e-10 1.52053e-11 2.10402e-11 5.27479e-11 4.88184e-12 1.78877e-10 5.04037e-13 2.47339e-11 3.92477e-10 2.48149e-11 1.26547e-09
          5.59471e-11 1.71155e-11 3.97515e-11 2.26696e-10 9.47943e-11 6.00592e-11 2.79268e-11 8.56328e-11 9.31512e-08 5.26006e-11 3.10184e-10 4.54688e-12
          6.21408e-10 1.00001e-10 2.57665e-12 1.0001e-09 8.41534e-11 1.37851e-09 8.99488e-13 1.90637e-09 2.39373e-12 1.70177e-11 3.28483e-13 4.51514e-12
          7.00261e-11 4.59132e-10 1.68489e-09 6.02551e-12 3.17346e-10 4.27316e-12 1.74981e-10 1.997e-10 3.00407e-10 4.86898e-10 3.69164e-08 2.8124e-11
          1.00072e-10 7.93044e-09 4.971e-11 1.18329e-11 9.88978e-10 2.13601e-10 1.20485e-10 2.02896e-12 4.29785e-11 1.09632e-10 7.78604e-10 2.66477e-10
          6.94244e-10 1.84006e-11 1.06511e-09 9.8753e-11 1.49796e-10 1.68465e-11 3.23745e-10 2.74532e-09 4.79397e-12 4.81175e-11 1.8167e-12 4.96085e-11
          1.59101e-12 4.38817e-11 1.3907e-10 2.02543e-10 5.88525e-11 5.51951e-10 1.66696e-10 6.71661e-12 3.62859e-09 5.33884e-10 1.42904e-11 3.77829e-12
          1.48509e-11 5.78399e-13 7.96923e-11 1.93887e-09 1.09157e-09 7.59468e-12 1.33558e-10 1.44064e-11 8.71204e-10 1.07429e-09 3.08298e-10 6.1296e-09
          1.42568e-08 2.17535e-12 2.0978e-08 1.23023e-10 7.62271e-11 7.43582e-10 1.34146e-09 3.59812e-10 4.95649e-10 7.4614e-10 2.85498e-10 1.26692e-10
          9.40714e-11 1.37022e-10 3.33383e-11 4.80826e-09 3.1829e-10 1.76096e-11 5.74966e-12 8.6469e-12 1.72996e-13 4.33821e-11 3.18931e-10 2.83658e-11
          7.12856e-10 5.68262e-12 1.25369e-09 6.96957e-10 1.20587e-11 2.9228e-10 1.18893e-10 4.01538e-10 9.99229e-11 1.08901e-11 3.28833e-11 1.5769e-10
          1.87533e-11 2.73355e-09 2.77416e-10 3.1276e-11 4.57026e-09 6.0624e-10 8.22919e-11 1.99184e-10 8.12677e-11 7.26092e-10 5.01602e-09 3.78224e-11
          4.71964e-11 9.07074e-11 3.47537e-10 2.64076e-11 2.9863e-12 4.41618e-10 2.9132e-10 2.01654e-12 6.27407e-11 1.34471e-09 4.24708e-08 4.4358e-10
          3.47813e-12 9.79733e-12 1.9901e-09 1.44684e-10 1.30235e-09 7.0888e-10 6.16705e-12 5.35301e-11 3.34954e-12 2.38609e-11 9.24113e-10 4.31049e-11
          3.47477e-10 1.02312e-10 6.96429e-09 8.73414e-10 7.38461e-12 1.5598e-10 1.61308e-12 1.21748e-11 6.06431e-10 1.69913e-10 4.87175e-11 2.11205e-09
          7.94506e-10 2.66303e-11 1.70388e-12 3.05188e-11 2.03358e-12 9.97513e-12 1.42541e-11 1.41959e-11 2.6057e-09 1.78223e-10 8.57725e-11 4.52816e-11
          5.38572e-10 1.03231e-10 3.81837e-11 2.3137e-11 3.62584e-11 8.10242e-11 2.82933e-09 1.0268e-11 1.55198e-10 1.37273e-11 4.76124e-12 8.06282e-13
          5.0534e-12 8.36021e-12 2.09209e-13 2.4927e-11 4.63078e-10 6.59279e-11 1.22988e-12 6.66163e-14 1.20287e-10 9.17169e-09 9.45364e-12 3.80345e-12
          7.13854e-11 3.23056e-12 1.18907e-11 1.73232e-12 4.74994e-10 3.19423e-11 9.26308e-13 3.36252e-12 1.58733e-11 3.73002e-09 4.36705e-11 1.43479e-10
          1.61233e-10 8.91531e-11 2.08181e-10 2.52794e-10 3.60039e-12 5.12348e-11 8.35949e-11 1.85747e-10 1.51182e-09 5.77697e-12 9.64579e-11 2.09963e-10
          2.18518e-10 1.18749e-10 8.74679e-11 4.64524e-10 8.47523e-10 1.76748e-10 9.8615e-11 3.29852e-10 2.68063e-10 1.08458e-12 2.56198e-12 6.08568e-12
          1.16909e-10 6.95607e-12 3.31864e-11 6.41384e-15 1.65134e-10 9.17031e-13 1.28984e-09 3.90416e-12 1.0466e-11 6.16981e-12 2.16517e-10 9.33344e-12
          9.26696e-12 5.01639e-13 9.28077e-13 1.33966e-11 1.48357e-12 2.06432e-10 1.10634e-12 9.42633e-10 2.19983e-12 1.59902e-11 6.80664e-13 4.27171e-10
          1.3305e-12 1.1881e-12 1.61866e-10 1.92182e-12 6.31944e-12 6.19089e-09 1.69598e-10 3.11806e-10 6.38335e-11 1.34898e-10 1.88056e-10 8.54363e-11
          5.83295e-11 2.377e-10 2.79545e-11 2.84239e-10 1.33269e-11 1.57314e-09 7.52247e-13 5.21343e-10 2.10677e-09 6.14449e-11 6.92742e-11 2.08321e-13
          1.07486e-13 1.01839e-10 5.98372e-11 2.84005e-14 8.37304e-12 1.32535e-12 4.85988e-11 1.64879e-08 1.78687e-12 1.84947e-11 2.79403e-10 2.53147e-13
          3.34803e-14 1.02255e-11 1.47641e-09 1.15924e-10 8.14452e-11 4.33064e-12 1.72774e-12 4.77405e-10 2.80357e-10 9.56275e-12 1.10577e-10 2.68925e-12
          3.84285e-12 2.73497e-11 3.15697e-12 1.89851e-12 2.41949e-12 1.15446e-10 1.25882e-09 4.87029e-09 4.42322e-11 2.39579e-08 7.63369e-11 3.49848e-09
          3.78669e-11 3.81203e-09 1.55897e-10 1.72994e-09 4.88674e-11 6.53835e-10 4.79612e-10 3.07518e-11 2.26551e-11 2.8243e-09 1.70646e-09 2.25874e-11
          1.31608e-11 1.07107e-09 4.05881e-12 2.24247e-12 1.67682e-09 2.57585e-10 1.25864e-12 5.60078e-12 4.33685e-11 3.57708e-12 5.11822e-11 2.11992e-11
          2.36017e-13 1.63636e-12 2.20902e-12 4.01e-13 8.53085e-12 7.37491e-13 1.29553e-10 4.16353e-13 7.04274e-13 9.20936e-13 8.89928e-10 4.34898e-12
          4.18041e-11 5.99361e-13 4.76303e-09 3.93932e-11 9.06999e-12 5.42062e-11 3.70357e-11 1.67214e-08 5.88668e-10 1.41803e-11 7.72958e-11 3.41309e-09
          2.91181e-11 7.95165e-10 5.55019e-11 7.37761e-11 7.16687e-11 8.40022e-10 3.37147e-08 2.86728e-11 2.82359e-10 1.6509e-09 1.04888e-11 2.38444e-11
          1.32692e-11 2.03806e-11 5.99213e-11 3.7065e-11 2.6893e-11 5.10364e-10 1.04779e-13 1.04586e-10 6.30962e-13 1.23957e-12 5.28251e-12 6.66487e-12
          3.44374e-13 4.13028e-13 1.71858e-11 2.72093e-11 2.16237e-12 9.64265e-13 5.41663e-11 6.83966e-13 5.31518e-12 3.3272e-12 2.01967e-10 3.73641e-12
          4.13506e-11 2.32694e-12 1.49233e-12 5.7372e-13 6.01601e-12 2.76733e-11 6.93927e-12 8.59383e-11 2.55926e-10 5.49774e-10 2.88566e-09 2.06271e-10
          7.47541e-11 1.83739e-11 8.80609e-10 1.29103e-10 4.78421e-09 6.61114e-11 7.63312e-11 1.23281e-12 2.34405e-11 1.74435e-10 5.16314e-11 9.31049e-11
          1.06391e-10 1.77491e-09 1.9681e-10 1.04092e-11 1.64639e-11 3.71251e-11 1.61776e-12 7.48047e-13 1.73438e-11 1.77558e-11 7.52419e-11 1.76377e-12
          2.64141e-12 4.17738e-12 1.05407e-11 3.30825e-12 4.38932e-12 2.48506e-12 6.62317e-13 1.78845e-13 6.14498e-11 5.09951e-11 2.9336e-11 3.8265e-13