<?xml version="1.0"?>
<VTKFile type="UnstructuredGrid" version="0.1" byte_order="LittleEndian">
  <UnstructuredGrid>
    <Piece NumberOfCells="28948" NumberOfPoints="14815">
      <PointData Scalars="p">
        <DataArray type="Float32" Name="p" NumberOfComponents="1" format="ascii">
          0.398844 0.392475 0.394482 0.402853 0.397914 0.40262 0.400318 0.402223 0.40056 0.401022 0.399878 0.389097
          0.399191 0.398829 0.396389 0.396124 0.393307 0.393653 0.38989 0.390722 0.386274 0.390662 0.397088 0.397989
          0.398375 0.384895 0.393394 0.397772 0.395812 0.39377 0.391212 0.38801 0.386336 0.383412 0.385607 0.377763
          0.378233 0.373919 0.375695 0.369773 0.369825 0.366517 0.369385 0.360251 0.359665 0.346753 0.358128 0.341587
          0.359002 0.352306 0.385522 0.380261 0.376936 0.372427 0.382953 0.369139 0.362151 0.34949 0.35926 0.365639
          0.354687 0.347061 0.38667 0.39458 0.39647 0.39602 0.380762 0.390104 0.396085 0.393743 0.389449 0.391531
          0.39435 0.386951 0.394412 0.383242 0.391915 0.393959 0.394653 0.392617 0.388908 0.393061 0.390431 0.38632
          0.385126 0.379679 0.374222 0.368783 0.371278 0.382181 0.376547 0.361598 0.357319 0.350084 0.364822 0.353353
          0.346359 0.349707 0.384425 0.379037 0.373503 0.3678 0.370283 0.381524 0.375948 0.361005 0.353693 0.364121
          0.357376 0.345991 0.350184 0.345857 0.345873 0.33644 0.327856 0.321169 0.329073 0.333863 0.32426 0.323792
          0.345061 0.321937 0.324539 0.317988 0.320785 0.311793 0.311666 0.309357 0.310973 0.308369 0.342342 0.333641
          0.327036 0.339238 0.331278 0.324779 0.321241 0.314756 0.312871 0.309673 0.322935 0.31833 0.306556 0.303388
          0.304652 0.300805 0.302446 0.298109 0.299726 0.296814 0.295757 0.298931 0.296069 0.291237 0.290893 0.289713
          0.29039 0.287835 0.290695 0.29091 0.278503 0.292584 0.306142 0.303747 0.301222 0.299006 0.29712 0.291485
          0.293249 0.288265 0.290334 0.296025 0.291696 0.287239 0.342622 0.33466 0.324976 0.327837 0.338622 0.331127
          0.320651 0.314585 0.311866 0.322678 0.317652 0.309805 0.307319 0.342374 0.334621 0.324812 0.33843 0.327633
          0.330691 0.31997 0.314823 0.312245 0.307875 0.322178 0.317151 0.309964 0.30487 0.302718 0.297375 0.300511
          0.298634 0.294066 0.288573 0.295959 0.292393 0.290492 0.287117 0.305951 0.304046 0.302196 0.29759 0.299001
          0.306009 0.300557 0.295964 0.297614 0.294313 0.288868 0.291136 0.292732 0.287091 0.377943 0.387531 0.392511
          0.38112 0.390231 0.392475 0.393172 0.39141 0.388201 0.392027 0.389552 0.38577 0.386077 0.376228 0.391193
          0.380106 0.388991 0.391603 0.392071 0.390697 0.387531 0.39128 0.388968 0.385184 0.383763 0.378507 0.372852
          0.380963 0.375584 0.369817 0.366992 0.360677 0.353912 0.347396 0.363714 0.357178 0.350326 0.343612 0.383129
          0.378148 0.380496 0.372686 0.375487 0.382893 0.378026 0.369809 0.366791 0.372722 0.360394 0.363564 0.356867
          0.353576 0.346644 0.366745 0.360155 0.349828 0.3532 0.346067 0.375742 0.384784 0.390308 0.388386 0.391216
          0.390256 0.391518 0.387033 0.391049 0.38505 0.388215 0.389435 0.38331 0.385729 0.39012 0.367627 0.391431
          0.390401 0.386822 0.391338 0.39149 0.388524 0.389911 0.387119 0.385189 0.380601 0.375565 0.369833 0.382971
          0.378227 0.372872 0.363519 0.356561 0.342734 0.349486 0.366761 0.360142 0.352624 0.345841 0.342559 0.380862
          0.37576 0.369888 0.383343 0.37868 0.372947 0.363565 0.356387 0.349017 0.366793 0.360379 0.352145 0.345577
          0.342303 0.342972 0.333613 0.324474 0.327157 0.340403 0.336755 0.329896 0.323998 0.319432 0.31442 0.312155
          0.30804 0.32152 0.316612 0.30987 0.311856 0.339571 0.332897 0.326584 0.335793 0.329376 0.323375 0.320987
          0.318739 0.313915 0.307757 0.305991 0.309506 0.315998 0.311402 0.30241 0.304291 0.299147 0.3024 0.300756
          0.296015 0.2977 0.294378 0.285415 0.289656 0.28835 0.291244 0.292811 0.286946 0.28554 0.304083 0.299267
          0.296235 0.305683 0.300792 0.302252 0.297791 0.294467 0.288281 0.289789 0.291312 0.293023 0.286945 0.288397
          0.285589 0.339048 0.332105 0.326015 0.335078 0.338891 0.330781 0.328591 0.322656 0.320293 0.318111 0.313368
          0.307338 0.308979 0.315327 0.317328 0.310857 0.306839 0.305263 0.332744 0.335605 0.325123 0.327585 0.321755
          0.338852 0.329774 0.332379 0.32423 0.319359 0.318457 0.312661 0.314524 0.308353 0.304733 0.316302 0.312119
          0.310046 0.30612 0.303752 0.300563 0.299206 0.296228 0.294827 0.301904 0.297622 0.298918 0.294704 0.289877
          0.293906 0.291342 0.292698 0.287061 0.285598 0.288488 0.303312 0.300203 0.296075 0.301463 0.302669 0.297359
          0.298577 0.294721 0.293763 0.289881 0.285818 0.287194 0.291202 0.292344 0.2885 0.281259 0.278473 0.279715
          0.279253 0.275074 0.27977 0.269162 0.279855 0.280244 0.276454 0.275035 0.274491 0.274209 0.276585 0.27091
          0.270363 0.270087 0.271362 0.281818 0.284426 0.280889 0.276443 0.27912 0.277528 0.278381 0.276085 0.275284
          0.272392 0.271733 0.274182 0.269992 0.268408 0.269028 0.266759 0.267792 0.264738 0.26494 0.263633 0.264684
          0.263147 0.262256 0.260621 0.261447 0.258894 0.259526 0.257427 0.25801 0.256183 0.25717 0.255399 0.268225
          0.266446 0.265024 0.264115 0.262245 0.265493 0.260551 0.258869 0.257577 0.25617 0.283067 0.279986 0.285023
          0.281677 0.277804 0.275392 0.27652 0.272581 0.271115 0.274174 0.270071 0.283537 0.279108 0.280637 0.282224
          0.278136 0.275509 0.276781 0.271541 0.272985 0.274385 0.270411 0.26707 0.268623 0.264447 0.262915 0.265909
          0.261509 0.259183 0.257986 0.256834 0.260502 0.267427 0.268964 0.263358 0.264788 0.266235 0.261931 0.259409
          0.258114 0.260838 0.256942 0.25545 0.254781 0.254246 0.253767 0.245476 0.248464 0.240476 0.254508 0.255134
          0.246427 0.247058 0.246941 0.250296 0.244661 0.244889 0.243591 0.244505 0.242365 0.243354 0.241802 0.254701
          0.253612 0.249636 0.252019 0.24885 0.246136 0.244995 0.24397 0.2423 0.247728 0.240814 0.239145 0.239878
          0.237607 0.238453 0.235976 0.236833 0.23438 0.234984 0.232962 0.233747 0.231386 0.232164 0.22976 0.230655
          0.227656 0.228013 0.22699 0.240717 0.239155 0.237571 0.236007 0.234417 0.232803 0.231305 0.227712 0.229499
          0.255213 0.254043 0.250758 0.252643 0.245367 0.246706 0.242874 0.248131 0.241433 0.244299 0.254114 0.249654
          0.251273 0.252853 0.248614 0.245748 0.241928 0.247148 0.243302 0.244714 0.239891 0.238419 0.236892 0.235198
          0.232045 0.23345 0.228005 0.226664 0.230825 0.229266 0.240737 0.239339 0.237696 0.236396 0.235338 0.233913
          0.232428 0.228273 0.226848 0.22978 0.231281 0.28397 0.279562 0.282658 0.281041 0.278468 0.275734 0.271849
          0.273267 0.277064 0.274639 0.27073 0.284247 0.279905 0.283121 0.281411 0.278801 0.276006 0.272155 0.277386
          0.274927 0.273558 0.271068 0.267781 0.263694 0.269278 0.265122 0.262267 0.259737 0.258327 0.261168 0.257202
          0.266562 0.268104 0.269633 0.264025 0.262596 0.265433 0.258633 0.255764 0.260061 0.261493 0.256078 0.257519
          0.284468 0.280249 0.281711 0.284371 0.277701 0.279108 0.276306 0.272467 0.273846 0.27522 0.271386 0.283122
          0.280518 0.284486 0.281875 0.277997 0.279384 0.276597 0.270003 0.272762 0.274131 0.275498 0.270314 0.266837
          0.268532 0.264354 0.265932 0.262926 0.258951 0.260377 0.256388 0.267556 0.268946 0.263244 0.26464 0.266854
          0.261825 0.257842 0.259277 0.2607 0.256707 0.254327 0.250125 0.253159 0.251655 0.249018 0.246125 0.242202
          0.24755 0.243621 0.254628 0.25051 0.252001 0.246468 0.245039 0.242509 0.247919 0.241071 0.243942 0.240813
          0.238167 0.236707 0.239631 0.235612 0.234203 0.232772 0.228662 0.230141 0.227204 0.231624 0.227548 0.237027
          0.238481 0.239938 0.235909 0.233084 0.229013 0.234493 0.231945 0.23048 0.253477 0.254946 0.249391 0.250866
          0.252326 0.245376 0.24682 0.248274 0.242831 0.241386 0.244275 0.2538 0.249735 0.25524 0.252622 0.25117
          0.245715 0.241729 0.247159 0.248602 0.24317 0.237351 0.238811 0.234819 0.233377 0.227877 0.229335 0.230793
          0.240277 0.236257 0.237714 0.239165 0.23515 0.232238 0.233703 0.228198 0.23111 0.229653 0.37592 0.38316
          0.388722 0.387151 0.385019 0.390761 0.391099 0.389001 0.391802 0.39205 0.390578 0.38774 0.385639 0.381709
          0.386185 0.390003 0.392023 0.389102 0.380973 0.391931 0.391912 0.389623 0.392746 0.393112 0.388517 0.386396
          0.391521 0.38148 0.376164 0.369934 0.384014 0.379488 0.372839 0.370238 0.366998 0.363729 0.357495 0.354471
          0.348623 0.341896 0.351488 0.345118 0.360737 0.364036 0.354218 0.348366 0.341437 0.382357 0.375101 0.37782
          0.373303 0.385033 0.380691 0.376072 0.370846 0.35762 0.367482 0.361014 0.351127 0.344768 0.354373 0.364555
          0.357807 0.347908 0.340976 0.351099 0.344395 0.387655 0.391621 0.393201 0.385656 0.391171 0.393505 0.393212
          0.390091 0.389159 0.387422 0.394041 0.394524 0.391676 0.393228 0.390865 0.384452 0.390232 0.393608 0.394795
          0.389478 0.393535 0.395435 0.39571 0.394788 0.388935 0.392933 0.396263 0.390798 0.39484 0.392626 0.383514
          0.381859 0.378891 0.374397 0.377293 0.386259 0.384884 0.371638 0.380287 0.377228 0.374234 0.367875 0.361352
          0.364815 0.358175 0.354545 0.347622 0.340598 0.368541 0.361788 0.351077 0.343855 0.354675 0.347262 0.339829
          0.387685 0.383734 0.372007 0.375327 0.390028 0.386592 0.380183 0.382882 0.378596 0.373061 0.365584 0.358527
          0.369395 0.362491 0.350969 0.343241 0.366496 0.3588 0.35479 0.346991 0.339005 0.350941 0.342503 0.3352
          0.328849 0.326572 0.321007 0.323164 0.338106 0.331347 0.334079 0.325338 0.318889 0.31991 0.313675 0.307425
          0.304028 0.310107 0.308605 0.315108 0.311296 0.316568 0.305323 0.306258 0.327757 0.33769 0.330154 0.321976
          0.324228 0.317595 0.334327 0.331837 0.326447 0.337288 0.329015 0.318996 0.320832 0.316298 0.315055 0.312431
          0.309205 0.313796 0.310158 0.308367 0.303382 0.304351 0.311245 0.308106 0.306231 0.305191 0.307394 0.302542
          0.303655 0.299764 0.300868 0.295856 0.297031 0.302011 0.299234 0.29819 0.294489 0.295549 0.289789 0.293465
          0.290987 0.285889 0.287284 0.292135 0.288506 0.28578 0.30019 0.297697 0.296701 0.294218 0.301665 0.29871
          0.299938 0.295283 0.29318 0.289678 0.290777 0.28732 0.291881 0.292922 0.289594 0.288481 0.286156 0.33099
          0.333634 0.325286 0.327532 0.322953 0.317797 0.319595 0.313614 0.336676 0.329804 0.332664 0.323777 0.321524
          0.31496 0.316457 0.318041 0.312131 0.31249 0.309085 0.309968 0.306241 0.304621 0.305281 0.302009 0.300805
          0.311039 0.306913 0.307632 0.30369 0.30292 0.304223 0.300735 0.301402 0.325899 0.335616 0.328406 0.32181
          0.319985 0.313358 0.31478 0.310474 0.331337 0.32358 0.334214 0.31608 0.311276 0.317618 0.312458 0.30846
          0.304931 0.309424 0.305506 0.305939 0.302024 0.302548 0.303044 0.300031 0.300447 0.306855 0.303527 0.307942
          0.303963 0.300988 0.301381 0.299193 0.297417 0.298303 0.296237 0.2939 0.29889 0.299544 0.297012 0.296342
          0.294709 0.295398 0.292679 0.290637 0.291682 0.28732 0.284882 0.288433 0.28947 0.285083 0.286164 0.297723
          0.298184 0.293537 0.295912 0.294234 0.298748 0.296481 0.297027 0.29746 0.295379 0.29485 0.292401 0.293139
          0.290461 0.29147 0.287328 0.288371 0.285099 0.289344 0.290206 0.286221 0.287327 0.393205 0.388227 0.395944
          0.396791 0.396507 0.393438 0.397724 0.397625 0.396576 0.394721 0.392234 0.398156 0.394478 0.396771 0.393473
          0.396285 0.398551 0.399061 0.399783 0.398282 0.400212 0.399897 0.398529 0.396742 0.394559 0.401431 0.400347
          0.398877 0.39662 0.39868 0.397656 0.38942 0.385706 0.388122 0.381819 0.376749 0.384972 0.380322 0.375023
          0.391662 0.390599 0.387878 0.383791 0.378668 0.371039 0.362834 0.367823 0.358553 0.354943 0.346844 0.337911
          0.351427 0.34313 0.339328 0.360974 0.371656 0.374476 0.365455 0.356047 0.335067 0.348702 0.344838 0.340909
          0.336445 0.393579 0.390116 0.387039 0.38238 0.377173 0.386094 0.380521 0.395951 0.393068 0.389541 0.384716
          0.378538 0.369103 0.3636 0.374925 0.371501 0.367858 0.358886 0.352007 0.347317 0.342573 0.355406 0.33807
          0.333182 0.366992 0.362558 0.375181 0.371115 0.358955 0.355008 0.350259 0.345092 0.339728 0.334793 0.329891
          0.399706 0.401417 0.397464 0.402721 0.402887 0.403839 0.400671 0.402129 0.400802 0.399445 0.403165 0.401464
          0.402911 0.400301 0.402887 0.404024 0.404237 0.403347 0.4059 0.405505 0.406029 0.404448 0.403048 0.402212
          0.404821 0.40597 0.404026 0.405278 0.402969 0.404878 0.395755 0.392695 0.398122 0.395729 0.389229 0.381935
          0.392486 0.387765 0.385081 0.38215 0.398424 0.395523 0.391105 0.393315 0.388604 0.38582 0.382637 0.366439
          0.36155 0.378771 0.375271 0.371277 0.356647 0.352636 0.349223 0.345704 0.34155 0.336702 0.331532 0.352341
          0.347891 0.343361 0.36513 0.360392 0.369798 0.379182 0.374832 0.355774 0.338389 0.333302 0.328077 0.350928
          0.345741 0.34052 0.335015 0.329434 0.400849 0.395196 0.398888 0.397996 0.396538 0.394721 0.39258 0.389822
          0.386652 0.401474 0.403732 0.402199 0.40117 0.399969 0.398484 0.39656 0.394116 0.391059 0.387566 0.368707
          0.372295 0.364211 0.359148 0.383253 0.37962 0.376058 0.372214 0.36791 0.362934 0.354075 0.348691 0.343049
          0.337309 0.357673 0.331372 0.324477 0.383982 0.380253 0.376347 0.371931 0.367033 0.361515 0.351986 0.346078
          0.339877 0.333568 0.327372 0.355657 0.349276 0.322243 0.34257 0.335908 0.329397 0.326643 0.329848 0.319479
          0.322389 0.319525 0.316474 0.313998 0.308246 0.313753 0.311067 0.309068 0.33089 0.326653 0.322928 0.318938
          0.332016 0.327441 0.315741 0.308856 0.306524 0.305122 0.312815 0.30984 0.307664 0.304229 0.305903 0.301954
          0.304278 0.301715 0.302157 0.299286 0.299975 0.300116 0.298104 0.297825 0.303584 0.302207 0.302086 0.300358
          0.300162 0.300257 0.298447 0.298196 0.298649 0.298676 0.297081 0.323169 0.319015 0.315307 0.328166 0.323096
          0.311843 0.305357 0.303745 0.308974 0.30625 0.304057 0.302172 0.318736 0.314909 0.310731 0.32502 0.318471
          0.314472 0.307486 0.300617 0.302172 0.304389 0.302175 0.299976 0.29847 0.300129 0.301001 0.298565 0.298314
          0.298475 0.297295 0.2968 0.297326 0.297277 0.296218 0.299483 0.298198 0.297486 0.296772 0.297522 0.296676
          0.296118 0.297098 0.296081 0.296269 0.295965 0.295716 0.295183 0.295236 0.29586 0.296294 0.293782 0.29433
          0.292097 0.296663 0.294786 0.29567 0.29515 0.292736 0.293319 0.291768 0.291306 0.288285 0.289227 0.28516
          0.286229 0.290371 0.29111 0.288134 0.28728 0.295802 0.294132 0.294932 0.293807 0.292408 0.292876 0.294875
          0.295148 0.294342 0.294358 0.293487 0.293259 0.291504 0.290838 0.292075 0.290187 0.289502 0.288584 0.285096
          0.28626 0.287123 0.284073 0.28929 0.289924 0.287806 0.285438 0.320997 0.326543 0.310613 0.321766 0.317625
          0.313985 0.307037 0.305722 0.309778 0.303201 0.30018 0.298271 0.299972 0.296247 0.295104 0.296064 0.322917
          0.317772 0.313263 0.306225 0.30352 0.323583 0.308726 0.304794 0.301383 0.298689 0.302064 0.296506 0.299323
          0.294222 0.292574 0.29682 0.292962 0.291489 0.296418 0.295187 0.294818 0.294749 0.294343 0.294746 0.295755
          0.294628 0.295091 0.294813 0.294162 0.29419 0.294376 0.294168 0.29344 0.292835 0.292746 0.292774 0.292773
          0.291078 0.290519 0.290706 0.29284 0.293828 0.292911 0.293181 0.29269 0.293455 0.293042 0.318168 0.312898
          0.308144 0.303486 0.29946 0.296252 0.31819 0.312322 0.307098 0.302683 0.295504 0.293347 0.291753 0.29017
          0.289286 0.288497 0.293301 0.290655 0.288786 0.287066 0.288145 0.286027 0.285396 0.318465 0.313787 0.306646
          0.297985 0.293827 0.301814 0.290707 0.309666 0.314278 0.31007 0.305717 0.301213 0.297214 0.29198 0.288022
          0.285477 0.287425 0.285146 0.283653 0.285093 0.283444 0.282019 0.280312 0.282928 0.281634 0.279631 0.27964
          0.281072 0.290704 0.290788 0.290941 0.287938 0.288204 0.28847 0.2911 0.288656 0.289042 0.291508 0.291747
          0.292487 0.292482 0.292849 0.291926 0.285209 0.285432 0.285799 0.289372 0.286316 0.2821 0.282777 0.286734
          0.287215 0.287939 0.289267 0.289971 0.290464 0.290978 0.288439 0.289026 0.289492 0.290984 0.291359 0.29195
          0.294427 0.294397 0.293881 0.293642 0.292446 0.290582 0.292701 0.291281 0.293719 0.293682 0.292879 0.29301
          0.293074 0.293057 0.291691 0.292016 0.292185 0.290585 0.290999 0.288437 0.289091 0.286187 0.283875 0.284604
          0.286958 0.289689 0.287598 0.288288 0.285346 0.286087 0.292301 0.292421 0.292408 0.292368 0.291344 0.289843
          0.291444 0.290303 0.291908 0.291792 0.291926 0.291857 0.291416 0.29154 0.290673 0.290843 0.291091 0.289663
          0.288958 0.287488 0.286795 0.284479 0.285221 0.289182 0.288124 0.288589 0.286001 0.286721 0.284409 0.283667
          0.283245 0.28459 0.280745 0.282064 0.28334 0.278273 0.279628 0.276878 0.271681 0.273043 0.274423 0.275797
          0.270599 0.284416 0.280942 0.28218 0.283471 0.27855 0.277188 0.279848 0.271964 0.273352 0.27475 0.276151
          0.270875 0.267934 0.269238 0.26582 0.263532 0.266789 0.265036 0.262149 0.258134 0.259558 0.261014 0.256936
          0.268168 0.26953 0.267106 0.265559 0.263895 0.262409 0.255529 0.258358 0.259809 0.282084 0.281063 0.284072
          0.283048 0.278621 0.277502 0.279965 0.274902 0.272395 0.2738 0.276182 0.273538 0.271095 0.269817 0.283979
          0.281864 0.280972 0.277277 0.278081 0.282883 0.283995 0.279866 0.278876 0.280854 0.274981 0.272217 0.276204
          0.277561 0.273912 0.272775 0.271567 0.270083 0.268486 0.26487 0.267422 0.266055 0.2638 0.262551 0.261174
          0.257183 0.255778 0.258529 0.259995 0.256049 0.268765 0.265039 0.267719 0.266396 0.264004 0.262666 0.26137
          0.257446 0.260226 0.258842 0.256352 0.254047 0.250045 0.251479 0.246052 0.24461 0.242067 0.247491 0.243508
          0.252907 0.254323 0.248926 0.25036 0.251791 0.244945 0.246386 0.247822 0.242402 0.243834 0.240621 0.236601
          0.239513 0.238057 0.235481 0.232569 0.228516 0.227062 0.23403 0.229977 0.240959 0.236941 0.238393 0.231438
          0.232899 0.228845 0.234357 0.227385 0.230307 0.253218 0.249257 0.254641 0.250687 0.252115 0.24528 0.246717
          0.248154 0.242721 0.241285 0.253538 0.249585 0.25495 0.251014 0.245589 0.244126 0.247065 0.243053 0.241637
          0.239841 0.235806 0.237219 0.238696 0.23468 0.231768 0.227713 0.233227 0.229175 0.230636 0.240189 0.236116
          0.237384 0.23902 0.235015 0.232092 0.228042 0.233543 0.229504 0.281858 0.279656 0.278469 0.282954 0.280852
          0.277555 0.275156 0.276351 0.272895 0.270342 0.274144 0.27168 0.281956 0.28293 0.278715 0.279857 0.280968
          0.277729 0.275366 0.276551 0.273147 0.274371 0.2706 0.271933 0.26904 0.265346 0.266675 0.267995 0.264305
          0.261582 0.257757 0.262943 0.260506 0.259127 0.26931 0.26564 0.266959 0.26827 0.26325 0.264609 0.261838
          0.25666 0.258053 0.259414 0.28195 0.282866 0.278878 0.279989 0.283759 0.280984 0.281882 0.277899 0.279024
          0.275569 0.276743 0.27338 0.274592 0.270841 0.272228 0.282762 0.280051 0.280984 0.281905 0.278075 0.276944
          0.279154 0.27577 0.273565 0.274806 0.275981 0.271129 0.2698 0.272498 0.269566 0.265938 0.267241 0.268529
          0.263546 0.264886 0.260783 0.262123 0.256958 0.255575 0.259685 0.258325 0.266246 0.267519 0.268792 0.263746
          0.261059 0.257231 0.255882 0.262373 0.259955 0.258592 0.256155 0.252441 0.253856 0.249911 0.255264 0.248484
          0.251342 0.245951 0.244502 0.242013 0.247386 0.243456 0.252762 0.254167 0.248836 0.250247 0.251658 0.246003
          0.244785 0.242305 0.247997 0.243719 0.245097 0.240571 0.236241 0.237867 0.239413 0.235103 0.230965 0.232406
          0.228369 0.233843 0.226908 0.229835 0.240859 0.238254 0.236706 0.239694 0.241133 0.235723 0.231273 0.232717
          0.234288 0.228692 0.230142 0.227238 0.253068 0.24917 0.254473 0.250561 0.251976 0.246543 0.242577 0.248046
          0.244006 0.25337 0.249489 0.254769 0.250884 0.245401 0.246813 0.242884 0.241452 0.244304 0.238576 0.237126
          0.240015 0.235967 0.231584 0.227557 0.233037 0.229012 0.2389 0.237437 0.234528 0.240336 0.236258 0.231865
          0.23046 0.233244 0.227884 0.229342 0.226306 0.225014 0.226033 0.223989 0.223448 0.223271 0.225591 0.219946
          0.219608 0.218921 0.219702 0.217553 0.218509 0.215839 0.21663 0.214339 0.21489 0.214016 0.224934 0.224178
          0.221391 0.223032 0.220495 0.21897 0.217281 0.215729 0.214446 0.212524 0.212901 0.210702 0.211272 0.209149
          0.208822 0.204528 0.208832 0.199066 0.209526 0.20938 0.20592 0.203585 0.20422 0.201767 0.202375 0.200305
          0.20118 0.198725 0.199492 0.21083 0.209328 0.20562 0.208055 0.206341 0.204736 0.203255 0.201811 0.200294
          0.198714 0.224184 0.225461 0.221503 0.223048 0.219749 0.218174 0.215757 0.216927 0.214578 0.213 0.224397
          0.225775 0.221897 0.220399 0.223271 0.218984 0.21765 0.21603 0.213374 0.211509 0.210218 0.208844 0.207275
          0.210386 0.206432 0.203743 0.202383 0.20107 0.199404 0.205051 0.211867 0.207764 0.209202 0.202462 0.203895
          0.199765 0.2053 0.201247 0.197168 0.197946 0.195615 0.196399 0.194071 0.194814 0.192553 0.19333 0.191841
          0.191003 0.18927 0.189779 0.187565 0.188002 0.186157 0.187285 0.184403 0.185424 0.197164 0.195605 0.194068
          0.192563 0.190943 0.189068 0.187638 0.186227 0.184744 0.183667 0.182615 0.182871 0.185502 0.178946 0.177794
          0.178457 0.179603 0.178147 0.177122 0.176298 0.175196 0.176527 0.177811 0.168746 0.171182 0.163776 0.169707
          0.173393 0.183869 0.180884 0.179739 0.178633 0.183025 0.17697 0.176114 0.169981 0.172199 0.174737 0.197935
          0.196378 0.19483 0.193348 0.192156 0.189643 0.188357 0.187061 0.185473 0.191133 0.198532 0.197268 0.192536
          0.193988 0.195704 0.188532 0.190025 0.185957 0.191506 0.18742 0.184527 0.184164 0.181556 0.180063 0.183121
          0.178936 0.177495 0.176138 0.171498 0.170384 0.174858 0.173171 0.170588 0.180412 0.181902 0.183384 0.177796
          0.179262 0.176349 0.172044 0.173597 0.224671 0.220517 0.226099 0.222061 0.223521 0.219167 0.214908 0.216419
          0.217918 0.213734 0.224973 0.220883 0.226425 0.222364 0.219399 0.215248 0.21675 0.218243 0.214088 0.210684
          0.212211 0.206698 0.208108 0.209576 0.202719 0.204172 0.205598 0.200089 0.19841 0.211074 0.207022 0.21258
          0.208475 0.203028 0.201563 0.204477 0.200411 0.198936 0.225291 0.22383 0.226745 0.221209 0.219731 0.222682
          0.215589 0.217084 0.218574 0.22415 0.225605 0.221529 0.220054 0.214437 0.212938 0.215933 0.217421 0.213296
          0.209952 0.211441 0.207377 0.205923 0.208838 0.201881 0.203344 0.204804 0.199263 0.200735 0.210317 0.206262
          0.211803 0.207726 0.209197 0.202204 0.20367 0.19959 0.196979 0.192986 0.194489 0.195945 0.191862 0.188895
          0.184838 0.190379 0.186297 0.187765 0.197442 0.193342 0.196307 0.194827 0.189242 0.185163 0.190722 0.186632
          0.180743 0.182224 0.178114 0.175143 0.176637 0.170934 0.172438 0.173958 0.183696 0.179592 0.181071 0.182547
          0.178439 0.175466 0.171302 0.169811 0.176956 0.172802 0.197787 0.192202 0.193681 0.19516 0.189584 0.188106
          0.191062 0.185493 0.186967 0.196639 0.198116 0.192538 0.194016 0.195493 0.188443 0.189919 0.191395 0.185824
          0.184348 0.18402 0.179919 0.181397 0.182873 0.174303 0.175797 0.171658 0.177285 0.170167 0.173151 0.178767
          0.180248 0.181726 0.177616 0.174643 0.170518 0.176132 0.172006 0.173494 0.170224 0.167563 0.168056 0.16528
          0.164448 0.164814 0.166897 0.162067 0.161443 0.162667 0.162069 0.16241 0.164395 0.155796 0.157766 0.150652
          0.15668 0.159546 0.168695 0.166971 0.165992 0.164619 0.162884 0.162398 0.156581 0.158865 0.161277 0.156598
          0.155886 0.153107 0.153025 0.152284 0.151039 0.153155 0.154061 0.145676 0.143175 0.148076 0.14752 0.147105
          0.150319 0.1439 0.143579 0.14269 0.143293 0.142524 0.153088 0.154973 0.152384 0.148083 0.15122 0.148234
          0.145752 0.144445 0.142921 0.147318 0.167638 0.166129 0.16362 0.169111 0.165024 0.162322 0.157848 0.16117
          0.159573 0.156866 0.167978 0.166498 0.16945 0.163948 0.165389 0.162553 0.158355 0.159896 0.153878 0.152439
          0.149632 0.155374 0.151289 0.148276 0.145681 0.144098 0.147287 0.143091 0.141597 0.152758 0.154228 0.150104
          0.155716 0.14865 0.151613 0.144598 0.146099 0.147551 0.141377 0.139506 0.140004 0.138008 0.138764 0.136497
          0.137269 0.134956 0.135726 0.133413 0.134158 0.131937 0.132678 0.130381 0.131179 0.128718 0.129693 0.126988
          0.127219 0.141131 0.13954 0.138033 0.136497 0.134953 0.13341 0.131744 0.130223 0.128859 0.127051 0.125805
          0.12675 0.124091 0.124905 0.122305 0.122985 0.120577 0.12105 0.119957 0.119361 0.118176 0.119495 0.116309
          0.116731 0.114995 0.116067 0.113311 0.114016 0.125517 0.120771 0.123994 0.122307 0.119563 0.117856 0.116451
          0.114909 0.113322 0.140238 0.138767 0.137419 0.135733 0.134184 0.132663 0.130355 0.131458 0.129204 0.127709
          0.138886 0.140431 0.13633 0.141932 0.134761 0.137751 0.133428 0.132201 0.130635 0.128063 0.129557 0.124789
          0.126139 0.121753 0.123497 0.120521 0.118175 0.116995 0.115665 0.113974 0.119564 0.125074 0.12657 0.120978
          0.122399 0.123938 0.116998 0.118443 0.114388 0.119888 0.115851 0.166855 0.168331 0.164278 0.162834 0.161391
          0.157212 0.158714 0.16021 0.167206 0.165737 0.168683 0.164612 0.16315 0.161687 0.157558 0.156066 0.160533
          0.159049 0.153096 0.154578 0.150472 0.151956 0.148999 0.143442 0.144933 0.146406 0.142277 0.153439 0.14934
          0.154923 0.150817 0.147872 0.14377 0.14673 0.145254 0.142614 0.166079 0.167553 0.169033 0.163479 0.164948
          0.162008 0.15641 0.157897 0.159382 0.166421 0.167899 0.163812 0.160862 0.162338 0.15675 0.158234 0.159715
          0.153781 0.152299 0.155265 0.149679 0.151158 0.148203 0.144101 0.145583 0.147061 0.152639 0.154122 0.155605
          0.150018 0.148539 0.142951 0.141464 0.144435 0.145916 0.139255 0.140775 0.135196 0.136658 0.138142 0.133721
          0.131049 0.132538 0.128415 0.139627 0.13551 0.141122 0.136998 0.134024 0.131394 0.129905 0.132881 0.128764
          0.125432 0.126924 0.121342 0.122816 0.1243 0.117312 0.118769 0.120228 0.114707 0.116175 0.113236 0.125787
          0.121696 0.127275 0.124654 0.123172 0.117639 0.113562 0.119104 0.115034 0.138485 0.139974 0.135854 0.134368
          0.137341 0.130252 0.131739 0.133225 0.138829 0.140316 0.141803 0.136197 0.137684 0.134711 0.129111 0.127625
          0.130597 0.132083 0.127972 0.126139 0.122045 0.120572 0.123523 0.117972 0.116504 0.119442 0.113892 0.115365
          0.125004 0.126487 0.120915 0.122391 0.12387 0.116837 0.118309 0.119782 0.114224 0.224464 0.222997 0.220379
          0.225926 0.221851 0.218903 0.214786 0.217756 0.216274 0.213645 0.223319 0.224785 0.226249 0.220707 0.222178
          0.219233 0.215131 0.216611 0.210677 0.206602 0.21216 0.208075 0.205136 0.202532 0.201062 0.204002 0.19992
          0.211028 0.20955 0.212508 0.206942 0.205471 0.208415 0.198447 0.201393 0.202864 0.204335 0.223646 0.225112
          0.221036 0.218089 0.219564 0.213988 0.215468 0.216946 0.226578 0.223975 0.222507 0.225441 0.221367 0.218421
          0.214253 0.212794 0.219895 0.217319 0.215878 0.20989 0.21136 0.20728 0.205807 0.200252 0.198778 0.201725
          0.203198 0.199111 0.210229 0.208755 0.206144 0.211642 0.207618 0.204671 0.200585 0.203532 0.202059 0.199445
          0.196971 0.192872 0.195827 0.194349 0.188776 0.187301 0.190252 0.186155 0.184679 0.197303 0.193206 0.191729
          0.194683 0.187632 0.189109 0.190586 0.185011 0.186488 0.183202 0.179098 0.182057 0.180578 0.17795 0.174982
          0.170864 0.176467 0.172349 0.183534 0.179431 0.180911 0.175319 0.173835 0.176803 0.171206 0.17269 0.19616
          0.197636 0.192063 0.193541 0.195017 0.187965 0.189442 0.185345 0.196494 0.192398 0.197969 0.193875 0.190919
          0.188298 0.186822 0.189774 0.185679 0.18239 0.183867 0.178285 0.179765 0.181245 0.174174 0.175656 0.177138
          0.171547 0.170065 0.182723 0.178619 0.184201 0.181579 0.1801 0.174511 0.173029 0.175993 0.171886 0.170405
          0.222837 0.224304 0.22577 0.218762 0.22023 0.215071 0.213786 0.21282 0.216376 0.221699 0.223168 0.224633
          0.220562 0.217713 0.219092 0.214123 0.212616 0.21558 0.210514 0.209093 0.211702 0.20648 0.207953 0.205006
          0.200919 0.202393 0.20942 0.210917 0.206815 0.203867 0.205341 0.199778 0.201253 0.202728 0.226098 0.222036
          0.223499 0.224962 0.220936 0.218026 0.216723 0.219425 0.214448 0.215903 0.213036 0.226425 0.222401 0.223855
          0.225296 0.221404 0.217067 0.218371 0.213373 0.219837 0.214753 0.211894 0.209675 0.208271 0.210911 0.207147
          0.204202 0.200112 0.198637 0.205675 0.203061 0.201588 0.212183 0.208617 0.20998 0.211272 0.207479 0.204536
          0.19897 0.200448 0.206008 0.20192 0.196827 0.195351 0.198302 0.192731 0.191253 0.19421 0.187157 0.188632
          0.190108 0.195685 0.197161 0.193064 0.194541 0.191585 0.186014 0.184536 0.187489 0.188966 0.18487 0.183057
          0.178955 0.177474 0.180435 0.173368 0.174849 0.17633 0.170744 0.172224 0.181914 0.183392 0.177811 0.179291
          0.18077 0.173705 0.175185 0.171082 0.196019 0.191918 0.197492 0.193396 0.190442 0.186347 0.1893 0.187824
          0.185204 0.196347 0.194872 0.19782 0.192252 0.193727 0.190776 0.186683 0.18816 0.182249 0.178149 0.183727