<?xml version="1.0"?>
<VTKFile type="UnstructuredGrid" version="0.1" byte_order="LittleEndian">
  <UnstructuredGrid>
    <Piece NumberOfCells="200" NumberOfPoints="121">
      <PointData Scalars="p">
        <DataArray type="Float32" Name="p" NumberOfComponents="1" format="ascii">
          200000 200000 191970 191600 200000 193177 200000 195140 200000 196288 200000 196542
          200000 195936 200000 194473 200000 192873 200000 191944 200000 191654 183102 182462
          185597 191096 193468 193946 192729 189084 185074 183251 182727 172380 172044 173286
          178581 182689 183622 182485 178907 175089 173258 172751 161088 160954 161422 163292
          165514 166211 165710 164006 162345 161942 161760 149594 149596 149637 149644 149862
          150000 150138 150356 150363 150406 150404 138058 138240 137655 135994 134290 133789
          134486 136708 138578 138912 139046 126742 127249 124911 121093 117515 116378 117311
          121419 126714 127620 127956 116749 117273 114926 110916 107271 106054 106532 108904
          114403 116898 117538 108056 108346 107127 105527 104064 103458 103712 104860 106823
          108030 108400 100000 100000 100000 100000 100000 100000 100000 100000 100000 100000
          100000
        </DataArray>
      </PointData>
      <CellData Scalars="p">
        <DataArray type="Float32" Name="p" NumberOfComponents="1" format="ascii">
          197323 194523 197726 195049 198380 196106 198763 197143 198848 197610 198645 197493
          198158 196803 197624 195782 197315 194939 197218 194533 188891 185722 190248 186890
          193138 189956 194965 193235 195592 194567 195069 194406 193165 192583 190807 189544
          189356 187066 188775 185974 179315 175629 180662 176256 186057 178711 189904 185467
          191127 187736 190495 187774 187677 185788 183083 181551 180528 177807 179576 176420
          168504 164695 169029 164963 171102 165843 175595 169129 177508 171471 177273 171848
          175133 170734 171794 168226 170097 166459 169256 165653 157212 153381 157382 153440
          157901 153567 159556 154266 160575 155125 160687 155450 160024 155402 158766 154909
          158231 154371 158035 154251 145749 141965 145629 141769 145091 141234 144598 139976
          144550 139313 144875 139425 145734 140444 146433 142099 146560 142618 146619 142788
          134347 130744 133541 129903 131774 128206 129266 124867 128152 122727 128529 122492
          130871 124405 134157 128898 135037 130971 135305 131496 123580 120424 122193 119472
          118449 116917 114212 112323 112226 109505 112264 108873 114533 110096 121289 113943
          123744 119338 124371 120685 114026 111225 112934 110644 110456 109193 107417 106835
          105594 104931 105433 104408 106765 105035 110044 106862 113110 109752 114278 111109
          105467 102782 105061 102685 104218 102376 103197 101842 102507 101355 102390 101152
          102857 101237 103894 101620 104951 102274 105477 102677
        </DataArray>
        <DataArray type="Float32" Name="process rank" NumberOfComponents="1" format="ascii">
          0 0 0 0 0 0 0 0 0 0 0 0
          0 0 0 0 0 0 0 0 0 0 0 0
          0 0 0 0 0 0 0 0 0 0 0 0
          0 0 0 0 0 0 0 0 0 0 0 0
          0 0 0 0 0 0 0 0 0 0 0 0
          0 0 0 0 0 0 0 0 0 0 0 0
          0 0 0 0 0 0 0 0 0 0 0 0
          0 0 0 0 0 0 0 0 0 0 0 0
          0 0 0 0 0 0 0 0 0 0 0 0
          0 0 0 0 0 0 0 0 0 0 0 0
          0 0 0 0 0 0 0 0 0 0 0 0
          0 0 0 0 0 0 0 0 0 0 0 0
          0 0 0 0 0 0 0 0 0 0 0 0
          0 0 0 0 0 0 0 0 0 0 0 0
          0 0 0 0 0 0 0 0 0 0 0 0
          0 0 0 0 0 0 0 0 0 0 0 0
          0 0 0 0 0 0 0 0
        </DataArray>
      </CellData>
      <Points>
        <DataArray type="Float32" Name="Coordinates" NumberOfComponents="3" format="ascii">
          0 0 0 0.1 0 0 0.1 0.1 0 0 0.1 0
          0.2 0 0 0.2 0.1 0 0.3 0 0 0.3 0.1 0
          0.4 0 0 0.4 0.1 0 0.5 0 0 0.5 0.1 0
          0.6 0 0 0.6 0.1 0 0.7 0 0 0.7 0.1 0
          0.8 0 0 0.8 0.1 0 0.9 0 0 0.9 0.1 0
          1 0 0 1 0.1 0 0.1 0.2 0 0 0.2 0
          0.2 0.2 0 0.3 0.2 0 0.4 0.2 0 0.5 0.2 0
          0.6 0.2 0 0.7 0.2 0 0.8 0.2 0 0.9 0.2 0
          1 0.2 0 0.1 0.3 0 0 0.3 0 0.2 0.3 0
          0.3 0.3 0 0.4 0.3 0 0.5 0.3 0 0.6 0.3 0
          0.7 0.3 0 0.8 0.3 0 0.9 0.3 0 1 0.3 0
          0.1 0.4 0 0 0.4 0 0.2 0.4 0 0.3 0.4 0
          0.4 0.4 0 0.5 0.4 0 0.6 0.4 0 0.7 0.4 0
          0.8 0.4 0 0.9 0.4 0 1 0.4 0 0.1 0.5 0
          0 0.5 0 0.2 0.5 0 0.3 0.5 0 0.4 0.5 0
          0.5 0.5 0 0.6 0.5 0 0.7 0.5 0 0.8 0.5 0
          0.9 0.5 0 1 0.5 0 0.1 0.6 0 0 0.6 0
          0.2 0.6 0 0.3 0.6 0 0.4 0.6 0 0.5 0.6 0
          0.6 0.6 0 0.7 0.6 0 0.8 0.6 0 0.9 0.6 0
          1 0.6 0 0.1 0.7 0 0 0.7 0 0.2 0.7 0
          0.3 0.7 0 0.4 0.7 0 0.5 0.7 0 0.6 0.7 0
          0.7 0.7 0 0.8 0.7 0 0.9 0.7 0 1 0.7 0
          0.1 0.8 0 0 0.8 0 0.2 0.8 0 0.3 0.8 0
          0.4 0.8 0 0.5 0.8 0 0.6 0.8 0 0.7 0.8 0
          0.8 0.8 0 0.9 0.8 0 1 0.8 0 0.1 0.9 0
          0 0.9 0 0.2 0.9 0 0.3 0.9 0 0.4 0.9 0
          0.5 0.9 0 0.6 0.9 0 0.7 0.9 0 0.8 0.9 0
          0.9 0.9 0 1 0.9 0 0.1 1 0 0 1 0
          0.2 1 0 0.3 1 0 0.4 1 0 0.5 1 0
          0.6 1 0 0.7 1 0 0.8 1 0 0.9 1 0
          1 1 0
        </DataArray>
      </Points>
      <Cells>
        <DataArray type="Int32" Name="connectivity" NumberOfComponents="1" format="ascii">
          0 1 2 3 0 2 1 4 5 2 1 5
          4 6 7 5 4 7 6 8 9 7 6 9
          8 10 11 9 8 11 10 12 13 11 10 13
          12 14 15 13 12 15 14 16 17 15 14 17
          16 18 19 17 16 19 18 20 21 19 18 21
          3 2 22 23 3 22 2 5 24 22 2 24
          5 7 25 24 5 25 7 9 26 25 7 26
          9 11 27 26 9 27 11 13 28 27 11 28
          13 15 29 28 13 29 15 17 30 29 15 30
          17 19 31 30 17 31 19 21 32 31 19 32
          23 22 33 34 23 33 22 24 35 33 22 35
          24 25 36 35 24 36 25 26 37 36 25 37
          26 27 38 37 26 38 27 28 39 38 27 39
          28 29 40 39 28 40 29 30 41 40 29 41
          30 31 42 41 30 42 31 32 43 42 31 43
          34 33 44 45 34 44 33 35 46 44 33 46
          35 36 47 46 35 47 36 37 48 47 36 48
          37 38 49 48 37 49 38 39 50 49 38 50
          39 40 51 50 39 51 40 41 52 51 40 52
          41 42 53 52 41 53 42 43 54 53 42 54
          45 44 55 56 45 55 44 46 57 55 44 57
          46 47 58 57 46 58 47 48 59 58 47 59
          48 49 60 59 48 60 49 50 61 60 49 61
          50 51 62 61 50 62 51 52 63 62 51 63
          52 53 64 63 52 64 53 54 65 64 53 65
          56 55 66 67 56 66 55 57 68 66 55 68
          57 58 69 68 57 69 58 59 70 69 58 70
          59 60 71 70 59 71 60 61 72 71 60 72
          61 62 73 72 61 73 62 63 74 73 62 74
          63 64 75 74 63 75 64 65 76 75 64 76
          67 66 77 78 67 77 66 68 79 77 66 79
          68 69 80 79 68 80 69 70 81 80 69 81
          70 71 82 81 70 82 71 72 83 82 71 83
          72 73 84 83 72 84 73 74 85 84 73 85
          74 75 86 85 74 86 75 76 87 86 75 87
          78 77 88 89 78 88 77 79 90 88 77 90
          79 80 91 90 79 91 80 81 92 91 80 92
          81 82 93 92 81 93 82 83 94 93 82 94
          83 84 95 94 83 95 84 85 96 95 84 96
          85 86 97 96 85 97 86 87 98 97 86 98
          89 88 99 100 89 99 88 90 101 99 88 101
          90 91 102 101 90 102 91 92 103 102 91 103
          92 93 104 103 92 104 93 94 105 104 93 105
          94 95 106 105 94 106 95 96 107 106 95 107
          96 97 108 107 96 108 97 98 109 108 97 109
          100 99 110 111 100 110 99 101 112 110 99 112
          101 102 113 112 101 113 102 103 114 113 102 114
          103 104 115 114 103 115 104 105 116 115 104 116
          105 106 117 116 105 117 106 107 118 117 106 118
          107 108 119 118 107 119 108 109 120 119 108 120
        </DataArray>
        <DataArray type="Int32" Name="offsets" NumberOfComponents="1" format="ascii">
          3 6 9 12 15 18 21 24 27 30 33 36
          39 42 45 48 51 54 57 60 63 66 69 72
          75 78 81 84 87 90 93 96 99 102 105 108
          111 114 117 120 123 126 129 132 135 138 141 144
          147 150 153 156 159 162 165 168 171 174 177 180
          183 186 189 192 195 198 201 204 207 210 213 216
          219 222 225 228 231 234 237 240 243 246 249 252
          255 258 261 264 267 270 273 276 279 282 285 288
          291 294 297 300 303 306 309 312 315 318 321 324
          327 330 333 336 339 342 345 348 351 354 357 360
          363 366 369 372 375 378 381 384 387 390 393 396
          399 402 405 408 411 414 417 420 423 426 429 432
          435 438 441 444 447 450 453 456 459 462 465 468
          471 474 477 480 483 486 489 492 495 498 501 504
          507 510 513 516 519 522 525 528 531 534 537 540
          543 546 549 552 555 558 561 564 567 570 573 576
          579 582 585 588 591 594 597 600
        </DataArray>
        <DataArray type="UInt8" Name="types" NumberOfComponents="1" format="ascii">
          5 5 5 5 5 5 5 5 5 5 5 5
          5 5 5 5 5 5 5 5 5 5 5 5
          5 5 5 5 5 5 5 5 5 5 5 5
          5 5 5 5 5 5 5 5 5 5 5 5
          5 5 5 5 5 5 5 5 5 5 5 5
          5 5 5 5 5 5 5 5 5 5 5 5
          5 5 5 5 5 5 5 5 5 5 5 5
          5 5 5 5 5 5 5 5 5 5 5 5
          5 5 5 5 5 5 5 5 5 5 5 5
          5 5 5 5 5 5 5 5 5 5 5 5
          5 5 5 5 5 5 5 5 5 5 5 5
          5 5 5 5 5 5 5 5 5 5 5 5
          5 5 5 5 5 5 5 5 5 5 5 5
          5 5 5 5 5 5 5 5 5 5 5 5
          5 5 5 5 5 5 5 5 5 5 5 5
          5 5 5 5 5 5 5 5 5 5 5 5
          5 5 5 5 5 5 5 5
        </DataArray>
      </Cells>
    </Piece>
  </UnstructuredGrid>
</VTKFile>
