<?xml version="1.0"?>
<VTKFile type="PolyData" version="0.1" byte_order="LittleEndian">
  <PolyData>
    <Piece NumberOfLines="100" NumberOfPoints="101">
      <PointData Scalars="S_wetting">
        <DataArray type="Float32" Name="S_wetting" NumberOfComponents="1" format="ascii">
          0.95434 0.949158 0.946744 0.944729 0.942583 0.939995 0.935927 0.928396 0.885906 0.564349 0.451639 0.450014
          0.45 0.45 0.45 0.45 0.45 0.45 0.45 0.45 0.45 0.45 0.45 0.45
          0.45 0.45 0.45 0.45 0.45 0.45 0.45 0.45 0.45 0.45 0.45 0.45
          0.45 0.45 0.45 0.45 0.45 0.45 0.45 0.45 0.45 0.45 0.45 0.45
          0.45 0.45 0.45 0.45 0.45 0.45 0.45 0.45 0.45 0.45 0.45 0.45
          0.45 0.45 0.45 0.45 0.45 0.45 0.45 0.45 0.45 0.45 0.45 0.45
          0.45 0.45 0.45 0.45 0.45 0.45 0.45 0.45 0.45 0.45 0.45 0.45
          0.45 0.45 0.45 0.45 0.45 0.45 0.45 0.45 0.45 0.45 0.45 0.45
          0.45 0.45 0.45 0.45 0.449915
        </DataArray>
        <DataArray type="Float32" Name="p_wetting" NumberOfComponents="1" format="ascii">
          2.62638e+08 2.47757e+08 2.33482e+08 2.21036e+08 2.10042e+08 1.95646e+08 1.81451e+08 1.7178e+08 1.57102e+08 1.46791e+08 1.45144e+08 1.43543e+08
          1.41948e+08 1.40353e+08 1.38758e+08 1.37163e+08 1.35568e+08 1.33973e+08 1.32378e+08 1.30783e+08 1.29188e+08 1.27593e+08 1.25998e+08 1.24403e+08
          1.22808e+08 1.21213e+08 1.19618e+08 1.18023e+08 1.16428e+08 1.14833e+08 1.13238e+08 1.11643e+08 1.10048e+08 1.08453e+08 1.06858e+08 1.05263e+08
          1.03668e+08 1.02073e+08 1.00478e+08 9.88825e+07 9.72875e+07 9.56925e+07 9.40975e+07 9.25025e+07 9.09075e+07 8.93125e+07 8.77174e+07 8.61224e+07
          8.45274e+07 8.29324e+07 8.13374e+07 7.97424e+07 7.81474e+07 7.65524e+07 7.49574e+07 7.33624e+07 7.17673e+07 7.01723e+07 6.85773e+07 6.69823e+07
          6.53873e+07 6.37923e+07 6.21973e+07 6.06023e+07 5.90073e+07 5.74123e+07 5.58172e+07 5.42222e+07 5.26272e+07 5.10322e+07 4.94372e+07 4.78422e+07
          4.62472e+07 4.46522e+07 4.30572e+07 4.14622e+07 3.98671e+07 3.82721e+07 3.66771e+07 3.50821e+07 3.34871e+07 3.18921e+07 3.02971e+07 2.87021e+07
          2.71071e+07 2.55121e+07 2.3917e+07 2.2322e+07 2.0727e+07 1.9132e+07 1.7537e+07 1.5942e+07 1.4347e+07 1.2752e+07 1.1157e+07 9.56196e+06
          7.96695e+06 6.37194e+06 4.77693e+06 3.18192e+06 1.58691e+06
        </DataArray>
        <DataArray type="Float32" Name="rho_wetting" NumberOfComponents="1" format="ascii">
          1000 1000 1000 1000 1000 1000 1000 1000 1000 1000 1000 1000
          1000 1000 1000 1000 1000 1000 1000 1000 1000 1000 1000 1000
          1000 1000 1000 1000 1000 1000 1000 1000 1000 1000 1000 1000
          1000 1000 1000 1000 1000 1000 1000 1000 1000 1000 1000 1000
          1000 1000 1000 1000 1000 1000 1000 1000 1000 1000 1000 1000
          1000 1000 1000 1000 1000 1000 1000 1000 1000 1000 1000 1000
          1000 1000 1000 1000 1000 1000 1000 1000 1000 1000 1000 1000
          1000 1000 1000 1000 1000 1000 1000 1000 1000 1000 1000 1000
          1000 1000 1000 1000 1000
        </DataArray>
        <DataArray type="Float32" Name="mob_wetting" NumberOfComponents="1" format="ascii">
          5.83745 6.07089 6.97877 7.89133 5.95398 6.009 8.87048 5.51204 5.96646 1.3248 0.566812 0.561489
          0.561443 0.561443 0.561443 0.561443 0.561443 0.561443 0.561443 0.561443 0.561443 0.561443 0.561443 0.561443
          0.561443 0.561443 0.561443 0.561443 0.561443 0.561443 0.561443 0.561443 0.561443 0.561443 0.561443 0.561443
          0.561443 0.561443 0.561443 0.561443 0.561443 0.561443 0.561443 0.561443 0.561443 0.561443 0.561443 0.561443
          0.561443 0.561443 0.561443 0.561443 0.561443 0.561443 0.561443 0.561443 0.561443 0.561443 0.561443 0.561443
          0.561443 0.561443 0.561443 0.561443 0.561443 0.561443 0.561443 0.561443 0.561443 0.561443 0.561443 0.561443
          0.561443 0.561443 0.561443 0.561443 0.561443 0.561443 0.561443 0.561443 0.561443 0.561443 0.561443 0.561443
          0.561443 0.561443 0.561443 0.561443 0.561443 0.561443 0.561443 0.561443 0.561443 0.561443 0.561443 0.561443
          0.561443 0.561443 0.561443 0.561443 0.561221
        </DataArray>
        <DataArray type="Float32" Name="S_nonwetting" NumberOfComponents="1" format="ascii">
          0.0456603 0.0508424 0.0532556 0.0552708 0.0574168 0.0600048 0.0640731 0.0716045 0.114094 0.435651 0.548361 0.549986
          0.55 0.55 0.55 0.55 0.55 0.55 0.55 0.55 0.55 0.55 0.55 0.55
          0.55 0.55 0.55 0.55 0.55 0.55 0.55 0.55 0.55 0.55 0.55 0.55
          0.55 0.55 0.55 0.55 0.55 0.55 0.55 0.55 0.55 0.55 0.55 0.55
          0.55 0.55 0.55 0.55 0.55 0.55 0.55 0.55 0.55 0.55 0.55 0.55
          0.55 0.55 0.55 0.55 0.55 0.55 0.55 0.55 0.55 0.55 0.55 0.55
          0.55 0.55 0.55 0.55 0.55 0.55 0.55 0.55 0.55 0.55 0.55 0.55
          0.55 0.55 0.55 0.55 0.55 0.55 0.55 0.55 0.55 0.55 0.55 0.55
          0.55 0.55 0.55 0.55 0.550085
        </DataArray>
        <DataArray type="Float32" Name="p_nonwetting" NumberOfComponents="1" format="ascii">
          2.62638e+08 2.47757e+08 2.33482e+08 2.21036e+08 2.10042e+08 1.95646e+08 1.81451e+08 1.7178e+08 1.57102e+08 1.46791e+08 1.45144e+08 1.43543e+08
          1.41948e+08 1.40353e+08 1.38758e+08 1.37163e+08 1.35568e+08 1.33973e+08 1.32378e+08 1.30783e+08 1.29188e+08 1.27593e+08 1.25998e+08 1.24403e+08
          1.22808e+08 1.21213e+08 1.19618e+08 1.18023e+08 1.16428e+08 1.14833e+08 1.13238e+08 1.11643e+08 1.10048e+08 1.08453e+08 1.06858e+08 1.05263e+08
          1.03668e+08 1.02073e+08 1.00478e+08 9.88825e+07 9.72875e+07 9.56925e+07 9.40975e+07 9.25025e+07 9.09075e+07 8.93125e+07 8.77174e+07 8.61224e+07
          8.45274e+07 8.29324e+07 8.13374e+07 7.97424e+07 7.81474e+07 7.65524e+07 7.49574e+07 7.33624e+07 7.17673e+07 7.01723e+07 6.85773e+07 6.69823e+07
          6.53873e+07 6.37923e+07 6.21973e+07 6.06023e+07 5.90073e+07 5.74123e+07 5.58172e+07 5.42222e+07 5.26272e+07 5.10322e+07 4.94372e+07 4.78422e+07
          4.62472e+07 4.46522e+07 4.30572e+07 4.14622e+07 3.98671e+07 3.82721e+07 3.66771e+07 3.50821e+07 3.34871e+07 3.18921e+07 3.02971e+07 2.87021e+07
          2.71071e+07 2.55121e+07 2.3917e+07 2.2322e+07 2.0727e+07 1.9132e+07 1.7537e+07 1.5942e+07 1.4347e+07 1.2752e+07 1.1157e+07 9.56196e+06
          7.96695e+06 6.37194e+06 4.77693e+06 3.18192e+06 1.58691e+06
        </DataArray>
        <DataArray type="Float32" Name="rho_nonwetting" NumberOfComponents="1" format="ascii">
          773 773 773 773 773 773 773 773 773 773 773 773
          773 773 773 773 773 773 773 773 773 773 773 773
          773 773 773 773 773 773 773 773 773 773 773 773
          773 773 773 773 773 773 773 773 773 773 773 773
          773 773 773 773 773 773 773 773 773 773 773 773
          773 773 773 773 773 773 773 773 773 773 773 773
          773 773 773 773 773 773 773 773 773 773 773 773
          773 773 773 773 773 773 773 773 773 773 773 773
          773 773 773 773 773
        </DataArray>
        <DataArray type="Float32" Name="mob_nonwetting" NumberOfComponents="1" format="ascii">
          0.00394019 0.0185427 0.00636988 0.0168396 0.08454 0.114618 0.121321 0.410099 2.46602 51.6417 53.9537 54.1601
          54.1619 54.1619 54.1619 54.1619 54.1619 54.1619 54.1619 54.1619 54.1619 54.1619 54.1619 54.1619
          54.1619 54.1619 54.1619 54.1619 54.1619 54.1619 54.1619 54.1619 54.1619 54.1619 54.1619 54.1619
          54.1619 54.1619 54.1619 54.1619 54.1619 54.1619 54.1619 54.1619 54.1619 54.1619 54.1619 54.1619
          54.1619 54.1619 54.1619 54.1619 54.1619 54.1619 54.1619 54.1619 54.1619 54.1619 54.1619 54.1619
          54.1619 54.1619 54.1619 54.1619 54.1619 54.1619 54.1619 54.1619 54.1619 54.1619 54.1619 54.1619
          54.1619 54.1619 54.1619 54.1619 54.1619 54.1619 54.1619 54.1619 54.1619 54.1619 54.1619 54.1619
          54.1619 54.1619 54.1619 54.1619 54.1619 54.1619 54.1619 54.1619 54.1619 54.1619 54.1619 54.1619
          54.1619 54.1619 54.1619 54.1619 54.1793
        </DataArray>
        <DataArray type="Float32" Name="pc" NumberOfComponents="1" format="ascii">
          0 0 0 0 0 0 0 0 0 0 0 0
          0 0 0 0 0 0 0 0 0 0 0 0
          0 0 0 0 0 0 0 0 0 0 0 0
          0 0 0 0 0 0 0 0 0 0 0 0
          0 0 0 0 0 0 0 0 0 0 0 0
          0 0 0 0 0 0 0 0 0 0 0 0
          0 0 0 0 0 0 0 0 0 0 0 0
          0 0 0 0 0 0 0 0 0 0 0 0
          0 0 0 0 0
        </DataArray>
        <DataArray type="Float32" Name="porosity" NumberOfComponents="1" format="ascii">
          0.18 0.18 0.18 0.18 0.18 0.18 0.18 0.18 0.18 0.18 0.18 0.18
          0.18 0.18 0.18 0.18 0.18 0.18 0.18 0.18 0.18 0.18 0.18 0.18
          0.18 0.18 0.18 0.18 0.18 0.18 0.18 0.18 0.18 0.18 0.18 0.18
          0.18 0.18 0.18 0.18 0.18 0.18 0.18 0.18 0.18 0.18 0.18 0.18
          0.18 0.18 0.18 0.18 0.18 0.18 0.18 0.18 0.18 0.18 0.18 0.18
          0.18 0.18 0.18 0.18 0.18 0.18 0.18 0.18 0.18 0.18 0.18 0.18
          0.18 0.18 0.18 0.18 0.18 0.18 0.18 0.18 0.18 0.18 0.18 0.18
          0.18 0.18 0.18 0.18 0.18 0.18 0.18 0.18 0.18 0.18 0.18 0.18
          0.18 0.18 0.18 0.18 0.18
        </DataArray>
        <DataArray type="Float32" Name="x^water_wetting" NumberOfComponents="1" format="ascii">
          9.56299e-05 0.0184591 0.0870476 0.223698 0.411451 0.608326 0.774221 0.889627 0.956937 0.992794 0.999965 1
          1 1 1 1 1 1 1 1 1 1 1 1
          1 1 1 1 1 1 1 1 1 1 1 1
          1 1 1 1 1 1 1 1 1 1 1 1
          1 1 1 1 1 1 1 1 1 1 1 1
          1 1 1 1 1 1 1 1 1 1 1 1
          1 1 1 1 1 1 1 1 1 1 1 1
          1 1 1 1 1 1 1 1 1 1 1 1
          1 1 1 1 1
        </DataArray>
        <DataArray type="Float32" Name="x^oil_wetting" NumberOfComponents="1" format="ascii">
          0 0 0 0 0 0 0 0 0 0 0 0
          0 0 0 0 0 0 0 0 0 0 0 0
          0 0 0 0 0 0 0 0 0 0 0 0
          0 0 0 0 0 0 0 0 0 0 0 0
          0 0 0 0 0 0 0 0 0 0 0 0
          0 0 0 0 0 0 0 0 0 0 0 0
          0 0 0 0 0 0 0 0 0 0 0 0
          0 0 0 0 0 0 0 0 0 0 0 0
          0 0 0 0 0
        </DataArray>
        <DataArray type="Float32" Name="x^surfactant_wetting" NumberOfComponents="1" format="ascii">
          0.999904 0.981541 0.912952 0.776302 0.588549 0.391674 0.225779 0.110373 0.0430629 0.00720622 3.53439e-05 6.85913e-08
          1.31061e-10 2.53372e-13 4.92038e-16 9.54876e-19 1.8501e-21 3.58138e-24 6.932e-27 1.34217e-29 2.5997e-32 5.0369e-35 9.76059e-38 0
          0 0 0 0 0 0 0 0 0 0 0 0
          0 0 0 0 0 0 0 0 0 0 0 0
          0 0 0 0 0 0 0 0 0 0 0 0
          0 0 0 0 0 0 0 0 0 0 0 0
          0 0 0 0 0 0 0 0 0 0 0 0
          0 0 0 0 0 0 0 0 0 0 0 0
          0 0 0 0 0
        </DataArray>
        <DataArray type="Float32" Name="rhoMolar_wetting" NumberOfComponents="1" format="ascii">
          55555.6 55555.6 55555.6 55555.6 55555.6 55555.6 55555.6 55555.6 55555.6 55555.6 55555.6 55555.6
          55555.6 55555.6 55555.6 55555.6 55555.6 55555.6 55555.6 55555.6 55555.6 55555.6 55555.6 55555.6
          55555.6 55555.6 55555.6 55555.6 55555.6 55555.6 55555.6 55555.6 55555.6 55555.6 55555.6 55555.6
          55555.6 55555.6 55555.6 55555.6 55555.6 55555.6 55555.6 55555.6 55555.6 55555.6 55555.6 55555.6
          55555.6 55555.6 55555.6 55555.6 55555.6 55555.6 55555.6 55555.6 55555.6 55555.6 55555.6 55555.6
          55555.6 55555.6 55555.6 55555.6 55555.6 55555.6 55555.6 55555.6 55555.6 55555.6 55555.6 55555.6
          55555.6 55555.6 55555.6 55555.6 55555.6 55555.6 55555.6 55555.6 55555.6 55555.6 55555.6 55555.6
          55555.6 55555.6 55555.6 55555.6 55555.6 55555.6 55555.6 55555.6 55555.6 55555.6 55555.6 55555.6
          55555.6 55555.6 55555.6 55555.6 55555.6
        </DataArray>
        <DataArray type="Float32" Name="x^water_nonwetting" NumberOfComponents="1" format="ascii">
          -0 -0 -0 -0 -0 -0 -0 -0 -0 -0 -0 -0
          -0 -0 -0 -0 -0 -0 -0 -0 -0 -0 -0 -0
          -0 -0 -0 -0 -0 -0 -0 -0 -0 -0 -0 -0
          -0 -0 -0 -0 -0 -0 -0 -0 -0 -0 -0 -0
          -0 -0 -0 -0 -0 -0 -0 -0 -0 -0 -0 -0
          -0 -0 -0 -0 -0 -0 -0 -0 -0 -0 -0 -0
          -0 -0 -0 -0 -0 -0 -0 -0 -0 -0 -0 -0
          -0 -0 -0 -0 -0 -0 -0 -0 -0 -0 -0 -0
          -0 -0 -0 -0 -0
        </DataArray>
        <DataArray type="Float32" Name="x^oil_nonwetting" NumberOfComponents="1" format="ascii">
          1 1 1 1 1 1 1 1 1 1 1 1
          1 1 1 1 1 1 1 1 1 1 1 1
          1 1 1 1 1 1 1 1 1 1 1 1
          1 1 1 1 1 1 1 1 1 1 1 1
          1 1 1 1 1 1 1 1 1 1 1 1
          1 1 1 1 1 1 1 1 1 1 1 1
          1 1 1 1 1 1 1 1 1 1 1 1
          1 1 1 1 1 1 1 1 1 1 1 1
          1 1 1 1 1
        </DataArray>
        <DataArray type="Float32" Name="x^surfactant_nonwetting" NumberOfComponents="1" format="ascii">
          -0 -0 -0 -0 -0 -0 -0 -0 -0 -0 -0 -0
          -0 -0 -0 -0 -0 -0 -0 -0 -0 -0 -0 -0
          -0 -0 -0 -0 -0 -0 -0 -0 -0 -0 -0 -0
          -0 -0 -0 -0 -0 -0 -0 -0 -0 -0 -0 -0
          -0 -0 -0 -0 -0 -0 -0 -0 -0 -0 -0 -0
          -0 -0 -0 -0 -0 -0 -0 -0 -0 -0 -0 -0
          -0 -0 -0 -0 -0 -0 -0 -0 -0 -0 -0 -0
          -0 -0 -0 -0 -0 -0 -0 -0 -0 -0 -0 -0
          -0 -0 -0 -0 -0
        </DataArray>
        <DataArray type="Float32" Name="rhoMolar_nonwetting" NumberOfComponents="1" format="ascii">
          2208.57 2208.57 2208.57 2208.57 2208.57 2208.57 2208.57 2208.57 2208.57 2208.57 2208.57 2208.57
          2208.57 2208.57 2208.57 2208.57 2208.57 2208.57 2208.57 2208.57 2208.57 2208.57 2208.57 2208.57
          2208.57 2208.57 2208.57 2208.57 2208.57 2208.57 2208.57 2208.57 2208.57 2208.57 2208.57 2208.57
          2208.57 2208.57 2208.57 2208.57 2208.57 2208.57 2208.57 2208.57 2208.57 2208.57 2208.57 2208.57
          2208.57 2208.57 2208.57 2208.57 2208.57 2208.57 2208.57 2208.57 2208.57 2208.57 2208.57 2208.57
          2208.57 2208.57 2208.57 2208.57 2208.57 2208.57 2208.57 2208.57 2208.57 2208.57 2208.57 2208.57
          2208.57 2208.57 2208.57 2208.57 2208.57 2208.57 2208.57 2208.57 2208.57 2208.57 2208.57 2208.57
          2208.57 2208.57 2208.57 2208.57 2208.57 2208.57 2208.57 2208.57 2208.57 2208.57 2208.57 2208.57
          2208.57 2208.57 2208.57 2208.57 2208.57
        </DataArray>
        <DataArray type="Float32" Name="phase presence" NumberOfComponents="1" format="ascii">
          3 3 3 3 3 3 3 3 3 3 3 3
          3 3 3 3 3 3 3 3 3 3 3 3
          3 3 3 3 3 3 3 3 3 3 3 3
          3 3 3 3 3 3 3 3 3 3 3 3
          3 3 3 3 3 3 3 3 3 3 3 3
          3 3 3 3 3 3 3 3 3 3 3 3
          3 3 3 3 3 3 3 3 3 3 3 3
          3 3 3 3 3 3 3 3 3 3 3 3
          3 3 3 3 3
        </DataArray>
      </PointData>
      <CellData Scalars="process rank">
        <DataArray type="Float32" Name="process rank" NumberOfComponents="1" format="ascii">
          0 0 0 0 0 0 0 0 0 0 0 0
          0 0 0 0 0 0 0 0 0 0 0 0
          0 0 0 0 0 0 0 0 0 0 0 0
          0 0 0 0 0 0 0 0 0 0 0 0
          0 0 0 0 0 0 0 0 0 0 0 0
          0 0 0 0 0 0 0 0 0 0 0 0
          0 0 0 0 0 0 0 0 0 0 0 0
          0 0 0 0 0 0 0 0 0 0 0 0
          0 0 0 0
        </DataArray>
      </CellData>
      <Points>
        <DataArray type="Float32" Name="Coordinates" NumberOfComponents="3" format="ascii">
          0 0 0 1 0 0 2 0 0 3 0 0
          4 0 0 5 0 0 6 0 0 7 0 0
          8 0 0 9 0 0 10 0 0 11 0 0
          12 0 0 13 0 0 14 0 0 15 0 0
          16 0 0 17 0 0 18 0 0 19 0 0
          20 0 0 21 0 0 22 0 0 23 0 0
          24 0 0 25 0 0 26 0 0 27 0 0
          28 0 0 29 0 0 30 0 0 31 0 0
          32 0 0 33 0 0 34 0 0 35 0 0
          36 0 0 37 0 0 38 0 0 39 0 0
          40 0 0 41 0 0 42 0 0 43 0 0
          44 0 0 45 0 0 46 0 0 47 0 0
          48 0 0 49 0 0 50 0 0 51 0 0
          52 0 0 53 0 0 54 0 0 55 0 0
          56 0 0 57 0 0 58 0 0 59 0 0
          60 0 0 61 0 0 62 0 0 63 0 0
          64 0 0 65 0 0 66 0 0 67 0 0
          68 0 0 69 0 0 70 0 0 71 0 0
          72 0 0 73 0 0 74 0 0 75 0 0
          76 0 0 77 0 0 78 0 0 79 0 0
          80 0 0 81 0 0 82 0 0 83 0 0
          84 0 0 85 0 0 86 0 0 87 0 0
          88 0 0 89 0 0 90 0 0 91 0 0
          92 0 0 93 0 0 94 0 0 95 0 0
          96 0 0 97 0 0 98 0 0 99 0 0
          100 0 0
        </DataArray>
      </Points>
      <Lines>
        <DataArray type="Int32" Name="connectivity" NumberOfComponents="1" format="ascii">
          0 1 1 2 2 3 3 4 4 5 5 6
          6 7 7 8 8 9 9 10 10 11 11 12
          12 13 13 14 14 15 15 16 16 17 17 18
          18 19 19 20 20 21 21 22 22 23 23 24
          24 25 25 26 26 27 27 28 28 29 29 30
          30 31 31 32 32 33 33 34 34 35 35 36
          36 37 37 38 38 39 39 40 40 41 41 42
          42 43 43 44 44 45 45 46 46 47 47 48
          48 49 49 50 50 51 51 52 52 53 53 54
          54 55 55 56 56 57 57 58 58 59 59 60
          60 61 61 62 62 63 63 64 64 65 65 66
          66 67 67 68 68 69 69 70 70 71 71 72
          72 73 73 74 74 75 75 76 76 77 77 78
          78 79 79 80 80 81 81 82 82 83 83 84
          84 85 85 86 86 87 87 88 88 89 89 90
          90 91 91 92 92 93 93 94 94 95 95 96
          96 97 97 98 98 99 99 100
        </DataArray>
        <DataArray type="Int32" Name="offsets" NumberOfComponents="1" format="ascii">
          2 4 6 8 10 12 14 16 18 20 22 24
          26 28 30 32 34 36 38 40 42 44 46 48
          50 52 54 56 58 60 62 64 66 68 70 72
          74 76 78 80 82 84 86 88 90 92 94 96
          98 100 102 104 106 108 110 112 114 116 118 120
          122 124 126 128 130 132 134 136 138 140 142 144
          146 148 150 152 154 156 158 160 162 164 166 168
          170 172 174 176 178 180 182 184 186 188 190 192
          194 196 198 200
        </DataArray>
      </Lines>
    </Piece>
  </PolyData>
</VTKFile>
