<?xml version="1.0"?>
<VTKFile type="PolyData" version="0.1" byte_order="LittleEndian">
  <PolyData>
    <Piece NumberOfLines="20" NumberOfPoints="21">
      <PointData Scalars="p">
        <DataArray type="Float32" Name="p" NumberOfComponents="1" format="ascii">
          1.05818 1.06083 1.06878 1.08209 1.1008 1.12028 1.13597 1.148 1.15652 1.16159 1.16328 1.16159
          1.15652 1.148 1.13597 1.12028 1.1008 1.08209 1.06878 1.06083 1.05818
        </DataArray>
      </PointData>
      <CellData Scalars="process rank">
        <DataArray type="Float32" Name="process rank" NumberOfComponents="1" format="ascii">
          0 0 0 0 0 0 0 0 0 0 0 0
          0 0 0 0 0 0 0 0
        </DataArray>
      </CellData>
      <Points>
        <DataArray type="Float32" Name="Coordinates" NumberOfComponents="3" format="ascii">
          0 1.5 0 0.05 1.5 0 0.1 1.5 0 0.15 1.5 0
          0.2 1.5 0 0.25 1.5 0 0.3 1.5 0 0.35 1.5 0
          0.4 1.5 0 0.45 1.5 0 0.5 1.5 0 0.55 1.5 0
          0.6 1.5 0 0.65 1.5 0 0.7 1.5 0 0.75 1.5 0
          0.8 1.5 0 0.85 1.5 0 0.9 1.5 0 0.95 1.5 0
          1 1.5 0
        </DataArray>
      </Points>
      <Lines>
        <DataArray type="Int32" Name="connectivity" NumberOfComponents="1" format="ascii">
          0 1 1 2 2 3 3 4 4 5 5 6
          6 7 7 8 8 9 9 10 10 11 11 12
          12 13 13 14 14 15 15 16 16 17 17 18
          18 19 19 20
        </DataArray>
        <DataArray type="Int32" Name="offsets" NumberOfComponents="1" format="ascii">
          2 4 6 8 10 12 14 16 18 20 22 24
          26 28 30 32 34 36 38 40
        </DataArray>
      </Lines>
    </Piece>
  </PolyData>
</VTKFile>
