<?xml version="1.0"?>
<VTKFile type="UnstructuredGrid" version="0.1" byte_order="LittleEndian">
  <UnstructuredGrid>
    <Piece NumberOfCells="4412" NumberOfPoints="1445">
      <PointData Scalars="p">
        <DataArray type="Float32" Name="p" NumberOfComponents="1" format="ascii">
          -0.0518399 -0.0416931 -0.0421088 -0.0355624 -0.0402228 -0.0473003 -0.0441726 -0.0548259 -0.0455187 -0.033646 0.000160418 -0.00980621
          -0.0138627 -0.0111946 -0.010441 -0.0506647 -0.063555 -0.066426 -0.0650896 -0.0545319 -0.0408594 -0.0657368 0.000163826 -0.0596344
          -0.0290261 -0.0315647 -0.0223304 -0.0419677 -0.0211165 -0.0306244 -0.0192384 -0.0200876 -0.0192665 -0.0305751 -0.0198696 -0.0241323
          -0.0291239 -0.0285398 -0.000207068 -0.0224727 -0.0166611 -0.0164225 -0.0623941 -0.0674589 -0.00751055 -0.00746204 -0.0159163 -0.000556742
          -0.0410909 -0.0344231 -0.0165396 1.75627e-05 -0.0348295 -0.0640526 -0.0637171 -0.0484578 -0.0503932 -0.0288683 -0.0319079 -0.0547121
          -0.0646936 -0.020987 -0.0228809 -0.0516333 -0.0533916 -0.0123794 -6.00397e-05 0.000116936 -0.0100442 -0.041144 -0.0439469 -0.0104442
          -0.0293846 -0.0515635 -0.0468676 -0.0523144 -0.0097742 -0.040481 -0.0399598 -0.0363315 -0.0662922 -0.0596252 -0.0347392 -0.0676015
          -0.0609857 -0.0518206 -0.0355296 -0.0213885 -0.0627112 -0.0624737 -0.012847 -0.0419195 -0.0420185 -0.000243261 -0.00782969 -0.00742072
          -0.0244223 -0.0254935 0.00207883 -0.0630455 -0.0484021 9.21921e-05 -0.0379621 -0.0372274 -0.0676998 0.00200035 -0.0300775 -0.065718
          -0.0592868 -0.0594228 -0.0111545 -0.00970076 -0.00946491 -0.0110789 -0.0469633 0.00105176 5.7988e-05 0.00175291 -0.0461994 -0.020707
          -0.0123839 -0.0107743 -0.0126101 -0.0121773 0.0010839 -0.064139 -0.0640511 -1.15505e-05 0.00147787 0.00144698 0.00177737 -0.0668996
          -0.0669304 0.00188701 -0.0330112 -0.0631057 -0.0628521 0.00259891 0.00211766 0.00118622 0.00176982 0.00192606 -0.0684625 -0.0689183
          -0.0686799 -0.0687222 -0.065757 -0.044808 -0.21728 -0.217945 -0.216193 -0.231243 -0.243658 -0.244467 -0.242427 -0.257761
          -0.0877679 -0.075577 -0.0780736 -0.204752 -0.270038 -0.270974 -0.268648 -0.28425 -0.296407 -0.297461 -0.294856 -0.310744
          -0.322787 -0.323959 -0.32107 -0.337213 -0.0789953 -0.0746235 -0.0819285 -0.0856334 -0.0746465 -0.189981 -0.19084 -0.180289
          -0.165406 -0.165511 -0.176003 -0.151346 -0.387236 -0.393969 -0.377067 -0.393649 -0.164824 -0.191454 -0.0756995 -0.0749714
          -0.396667 -0.413718 -0.399917 -0.348753 -0.347371 -0.361492 -0.414408 -0.414041 -0.41411 -0.397564 -0.112046 -0.124976
          -0.111766 -0.102566 -0.112098 -0.413658 -0.413332 -0.0847855 -0.216298 -0.165382 -0.242517 -0.350401 -0.268726 -0.0741189
          -0.190929 -0.294933 -0.321143 -0.383686 -0.111611 -0.111586 -0.0968049 -0.124575 -0.124903 -0.0744968 -0.205405 -0.217557
          -0.218624 -0.204699 -0.137746 -0.138054 -0.1377 -0.15148 -0.40423 -0.393465 -0.0986499 -0.0823309 -0.271906 -0.258671
          -0.271628 -0.285325 -0.29825 -0.298502 -0.151022 -0.0930386 -0.405215 -0.348852 -0.324853 -0.325109 -0.311934 -0.405397
          -0.118594 -0.1634 -0.164645 -0.198486 -0.165409 -0.112016 -0.191778 -0.192494 -0.190068 -0.131113 -0.118491 -0.157714
          -0.224831 -0.19202 -0.178675 -0.178689 -0.351559 -0.338601 -0.351465 -0.104948 -0.251379 -0.277834 -0.245129 -0.245803
          -0.257697 -0.304323 -0.198324 -0.157804 -0.284235 -0.177465 -0.177137 -0.164386 -0.330796 -0.347313 -0.145044 -0.22494
          -0.217277 -0.138397 -0.137892 -0.21094 -0.211135 -0.405424 -0.184556 -0.310731 -0.413837 -0.243661 -0.251464 -0.232091
          -0.218535 -0.231263 -0.171799 -0.270039 -0.277966 -0.337185 -0.237545 -0.366 -0.098547 -0.296406 -0.304451 -0.264145
          -0.0929795 -0.403903 -0.357212 -0.0845773 -0.322775 -0.330934 -0.124659 -0.0752651 -0.290637 -0.104913 -0.3866 -0.387488
          -0.375486 -0.393147 -0.317132 -0.178247 -0.178824 -0.0744341 -0.124583 -0.378517 -0.378576 -0.385709 -0.237572 -0.152193
          -0.15191 -0.415226 -0.233174 -0.343677 -0.414255 -0.171826 -0.177472 -0.413215 -0.41413 -0.205287 -0.386611 -0.184608
          -0.0984181 -0.098661 -0.111553 -0.264029 -0.0843103 -0.373112 -0.375344 -0.334355 -0.112197 -0.125977 -0.125186 -0.0986033
          -0.308141 -0.177441 -0.290515 -0.203731 -0.203225 -0.203819 -0.28194 -0.192078 -0.357116 -0.23009 -0.229471 -0.219127
          -0.163853 -0.317007 -0.361978 -0.343507 -0.255737 -0.256443 -0.25569 -0.151964 -0.230148 -0.365128 -0.282785 -0.2819
          -0.229517 -0.256488 -0.309116 -0.308105 -0.0745988 -0.370061 -0.203224 -0.282843 -0.335481 -0.334331 -0.309173 -0.15089
          -0.335574 -0.111452 -0.258489 -0.15237 -0.285189 -0.390922 -0.0856108 -0.365174 -0.0852115 -0.365116 -0.365095 -0.351724
          -0.311807 -0.338459 -0.124657 -0.124555 -0.360494 -0.205232 -0.205364 -0.258582 -0.271889 -0.258554 -0.151059 -0.150747
          -0.137736 -0.285215 -0.29849 -0.285201 -0.131329 -0.311805 -0.311831 -0.325093 -0.378321 -0.370022 -0.0986802 -0.338428
          -0.338418 -0.137694 -0.144849 -0.0995099 -0.125056 -0.393158 -0.384262 -0.271874 -0.403697 -0.393312 -0.298481 -0.325092
          -0.41441 -0.414249 -0.400233 -0.085571 -0.392276 -0.35177 -0.0917041 -0.0843069 -0.373463 -0.15534 -0.170252 -0.146983
          -0.138259 -0.138752 -0.138899 -0.245408 -0.245277 -0.118808 -0.105854 -0.361737 -0.360519 -0.120042 -0.130499 -0.0749238
          -0.0734888 -0.14478 -0.183499 -0.200654 -0.185753 -0.210139 -0.129268 -0.133463 -0.198679 -0.17396 -0.253637 -0.17174
          -0.263325 -0.265214 -0.280477 -0.289896 -0.412617 -0.395315 -0.278714 -0.378036 -0.157005 -0.146198 -0.231735 -0.307112
          -0.29163 -0.316506 -0.251632 -0.305378 -0.333745 -0.318239 -0.343091 -0.33195 -0.102997 -0.344861 -0.211693 -0.144217
          -0.118827 -0.104226 -0.0989059 -0.130924 -0.103798 -0.360086 -0.370621 -0.157094 -0.0925326 -0.225984 -0.413566 -0.230064
          -0.380331 -0.172328 -0.237547 -0.399508 -0.183553 -0.198463 -0.371541 -0.414197 -0.0773112 -0.19726 -0.208706 -0.224777
          -0.181683 -0.224262 -0.225986 -0.234641 -0.251022 -0.207965 -0.414146 -0.0938766 -0.250554 -0.23412 -0.093764 -0.239066
          -0.260847 -0.277234 -0.276771 -0.414107 -0.260342 -0.302978 -0.414275 -0.287041 -0.303443 -0.384268 -0.286539 -0.354286
          -0.328962 -0.414393 -0.0746137 -0.313284 -0.355557 -0.329571 -0.340133 -0.312757 -0.339128 -0.396941 -0.392616 -0.414269
          -0.365726 -0.414148 -0.074333 -0.0770276 -0.367027 -0.379253 -0.0776853 -0.39558 -0.0773486 -0.412007 -0.412003 -0.385377
          -0.414604 -0.413613 -0.413853 -0.120296 -0.158936 -0.413812 -0.358691 -0.414936 -0.414994 -0.426359 -0.426241 -0.430553
          -0.429584 -0.443252 -0.432289 -0.428226 -0.428127 -0.422435 -0.421095 -0.414506 -0.422953 -0.44371 -0.421174 -0.42193
          -0.443273 -0.432882 -0.435656 -0.435715 -0.443261 -0.428295 -0.443345 -0.43084 -0.436437 -0.443427 -0.431349 -0.422381
          -0.443672 -0.442628 -0.443573 -0.443501 -0.436733 -0.443091 -0.443389 -0.413814 -0.43457 -0.44322 -0.435249 -0.443453
          -0.442883 -0.424589 -0.413977 -0.443212 -0.443688 -0.443354 -0.415592 -0.442121 -0.443375 -0.430448 -0.425645 -0.423325
          -0.433118 -0.443507 -0.443338 -0.442319 -0.415624 -0.422483 -0.433815 -0.442681 -0.443422 -0.443173 -0.443084 -0.443546
          -0.442627 -0.44385 -0.530363 -0.515959 -0.532077 -0.542296 -0.532066 -0.536701 -0.547088 -0.542708 -0.541758 -0.463318
          -0.452913 -0.457376 -0.458306 -0.535493 -0.469624 -0.531158 -0.468041 -0.482019 -0.45778 -0.460131 -0.539827 -0.556798
          -0.518706 -0.524811 -0.508454 -0.519201 -0.556815 -0.469067 -0.531293 -0.52458 -0.530408 -0.518257 -0.513266 -0.500165
          -0.493296 -0.494001 -0.487025 -0.530591 -0.523099 -0.469042 -0.499966 -0.469206 -0.53149 -0.466091 -0.533888 -0.467961
          -0.512698 -0.475331 -0.464397 -0.493846 -0.506139 -0.506025 -0.506951 -0.520224 -0.500243 -0.480028 -0.480375 -0.493965
          -0.519784 -0.519688 -0.5561 -0.556634 -0.547649 -0.443953 -0.452428 -0.469322 -0.481776 -0.469745 -0.481812 -0.520152
          -0.493783 -0.506293 -0.49394 -0.556352 -0.556429 -0.556587 -0.506474 -0.481487 -0.506093 -0.475536 -0.536745 -0.463342
          -0.481893 -0.545684 -0.454354 -0.481774 -0.493529 -0.557429 -0.506998 -0.555395 -0.444649 -0.479853 -0.49289 -0.479925
          -0.493124 -0.486721 -0.547062 -0.452992 -0.55671 -0.500086 -0.556781 -0.548862 -0.451216 -0.47665 -0.556676 -0.476327
          -0.444206 -0.555861 -0.517934 -0.487905 -0.499673 -0.501231 -0.510978 -0.487321 -0.476475 -0.507339 -0.548788 -0.451241
          -0.517925 -0.513709 -0.486536 -0.523485 -0.486653 -0.513764 -0.5009 -0.512316 -0.514649 -0.485017 -0.540529 -0.459525
          -0.540471 -0.459528 -0.460752 -0.539223 -0.556939 -0.457836 -0.542245 -0.556714 -0.498852 -0.525491 -0.474584 -0.473667
          -0.526148 -0.541091 -0.45891 -0.534275 -0.465253 -0.556465 -0.556437 -0.535709 -0.463668 -0.556649 -0.556644 -0.541199
          -0.458982 -0.55646 -0.55678 -0.557391 -0.556788 -0.553555 -0.446389 -0.556783 -0.525136 -0.554562 -0.4455 -0.556215
          -0.556467 -0.5569 -0.557512 -0.568415 -0.572251 -0.571842 -0.578082 -0.578179 -0.585119 -0.577816 -0.585933 -0.564374
          -0.579036 -0.565059 -0.56372 -0.570948 -0.569373 -0.58652 -0.574433 -0.586109 -0.575838 -0.585942 -0.575153 -0.564599
          -0.5569 -0.571747 -0.569198 -0.585795 -0.568774 -0.577621 -0.56599 -0.585895 -0.585858 -0.585648 -0.574781 -0.585766
          -0.56386 -0.565256 -0.556265 -0.586062 -0.55742 -0.585685 -0.585302 -0.586277 -0.557646 -0.558147 -0.585831 -0.568989
          -0.574458 -0.585972 -0.567535 -0.58585 -0.567002 -0.585914 -0.586352 -0.577722 -0.585805 -0.585153 -0.584383 -0.577536
          -0.585728 -0.586188 -0.586273 -0.585563 -0.586253 -0.585091 -0.585637 -0.586443 -0.783306 -0.782688 -0.782038 -0.795225
          -0.756337 -0.757567 -0.755536 -0.74225 -0.768737 -0.70363 -0.702558 -0.705164 -0.689277 -0.677246 -0.67606 -0.678956
          -0.66281 -0.715783 -0.834559 -0.823972 -0.834593 -0.848617 -0.809126 -0.819684 -0.810548 -0.606477 -0.622938 -0.612769
          -0.606401 -0.835157 -0.594456 -0.602467 -0.925384 -0.925406 -0.914567 -0.921934 -0.808511 -0.932451 -0.923984 -0.603289
          -0.600063 -0.651253 -0.652658 -0.638534 -0.809102 -0.586455 -0.887942 -0.87499 -0.888206 -0.897489 -0.887852 -0.783774
          -0.915329 -0.912266 -0.917596 -0.834587 -0.757484 -0.649623 -0.70508 -0.678875 -0.615977 -0.888367 -0.888378 -0.903177
          -0.9207 -0.875398 -0.875071 -0.924664 -0.926398 -0.936293 -0.862225 -0.86191 -0.862274 -0.848488 -0.78133 -0.781343
          -0.794659 -0.795299 -0.754759 -0.768015 -0.754737 -0.768753 -0.606512 -0.901395 -0.907019 -0.728118 -0.72838 -0.741285
          -0.729033 -0.594649 -0.729582 -0.733354 -0.925584 -0.933604 -0.924073 -0.701518 -0.701774 -0.714703 -0.848946 -0.596118
          -0.935365 -0.801691 -0.651182 -0.688083 -0.674909 -0.675166 -0.881378 -0.83533 -0.836574 -0.887947 -0.809735 -0.834601
          -0.80745 -0.808036 -0.842186 -0.868839 -0.881479 -0.775126 -0.924905 -0.661442 -0.648374 -0.648568 -0.821313 -0.821295
          -0.807937 -0.895042 -0.748668 -0.916216 -0.722041 -0.730037 -0.742268 -0.801484 -0.925381 -0.695527 -0.935343 -0.788864
          -0.842174 -0.906934 -0.715804 -0.822539 -0.822869 -0.835594 -0.669047 -0.652702 -0.854961 -0.775019 -0.782697 -0.932704
          -0.933596 -0.634133 -0.861622 -0.862071 -0.815423 -0.689291 -0.748526 -0.756323 -0.828164 -0.634911 -0.762382 -0.821141
          -0.821644 -0.729939 -0.722258 -0.66284 -0.703606 -0.695751 -0.735817 -0.918013 -0.596146 -0.901372 -0.642875 -0.788983
          -0.677235 -0.669271 -0.875316 -0.621588 -0.621481 -0.614299 -0.709316 -0.895043 -0.613402 -0.612545 -0.624555 -0.924681
          -0.68282 -0.709575 -0.606947 -0.594588 -0.875388 -0.762493 -0.768028 -0.925422 -0.794752 -0.84787 -0.847895 -0.656326
          -0.828158 -0.822491 -0.615987 -0.914766 -0.613431 -0.683076 -0.901581 -0.901253 -0.888414 -0.8154 -0.887771 -0.735995
          -0.626907 -0.624697 -0.656522 -0.934387 -0.665657 -0.873997 -0.874773 -0.901356 -0.691873 -0.796063 -0.822523 -0.798329
          -0.807868 -0.642913 -0.77048 -0.769906 -0.836115 -0.638048 -0.717264 -0.717726 -0.744222 -0.848053 -0.718191 -0.76984
          -0.935832 -0.629975 -0.743529 -0.744751 -0.743567 -0.6909 -0.691924 -0.717113 -0.690845 -0.629966 -0.664539 -0.6657
          -0.849082 -0.586842 -0.915437 -0.770456 -0.900628 -0.914842 -0.664456 -0.888515 -0.741421 -0.609065 -0.714836 -0.606313
          -0.634969 -0.688213 -0.648262 -0.634892 -0.634874 -0.661574 -0.915571 -0.875317 -0.875417 -0.639532 -0.781344 -0.794645
          -0.794656 -0.75474 -0.768029 -0.768035 -0.901274 -0.848913 -0.849221 -0.862232 -0.72815 -0.741405 -0.741422 -0.70154
          -0.714811 -0.714834 -0.868647 -0.688191 -0.688217 -0.674924 -0.621617 -0.661598 -0.661597 -0.796214 -0.862279 -0.85514
          -0.874927 -0.648276 -0.781328 -0.606872 -0.754714 -0.794872 -0.728144 -0.596339 -0.701542 -0.674929 -0.59975 -0.607695
          -0.86165 -0.626572 -0.844643 -0.82977 -0.861128 -0.861185 -0.881161 -0.894099 -0.638278 -0.639504 -0.879973 -0.840963
          -0.925741 -0.926057 -0.869477 -0.621973 -0.855195 -0.816478 -0.799297 -0.86649 -0.789998 -0.870695 -0.788421 -0.80133
          -0.77272 -0.825985 -0.77404 -0.763327 -0.746126 -0.762054 -0.828252 -0.747521 -0.934168 -0.736713 -0.719534 -0.735125
          -0.936449 -0.605021 -0.710135 -0.721224 -0.85377 -0.843043 -0.692909 -0.586405 -0.708431 -0.683513 -0.69463 -0.666279
          -0.656926 -0.681798 -0.896852 -0.668038 -0.913981 -0.655203 -0.90103 -0.738969 -0.855763 -0.881156 -0.895727 -0.869121
          -0.896225 -0.641376 -0.629401 -0.639946 -0.847406 -0.842862 -0.907319 -0.801964 -0.619706 -0.827594 -0.791481 -0.628486
          -0.600687 -0.923099 -0.922583 -0.775399 -0.818338 -0.816289 -0.775652 -0.722924 -0.765327 -0.906534 -0.749617 -0.791264
          -0.765821 -0.906044 -0.748953 -0.697029 -0.712974 -0.615658 -0.696591 -0.925289 -0.645734 -0.671045 -0.713454 -0.802894
          -0.686755 -0.932477 -0.644476 -0.659895 -0.670451 -0.687251 -0.723319 -0.660885 -0.603037 -0.607469 -0.63428 -0.739725
          -0.925686 -0.633004 -0.93593 -0.935863 -0.620771 -0.934345 -0.937582 -0.922184 -0.604281 -0.922506 -0.937311 -0.931463
          -0.588559 -0.93126 -0.933232 -0.587389 -0.614743 -0.933014 -0.879662 -0.852931 -0.814075 -0.937212 -0.908266 -0.931222
          -0.937201 -0.931441 -0.948213 -0.958216 -0.957901 -0.964748 -0.959802 -0.955642 -0.966192 -0.945431 -0.950013 -0.954571
          -0.970944 -0.977597 -0.958812 -0.965414 -0.968403 -0.969349 -0.949158 -1.0001 -0.986114 -0.990068 -0.988723 -0.959121
          -1.00012 -0.99001 -0.978659 -0.969063 -0.980115 -0.98103 -0.980707 -0.979764 -0.975664 -0.951737 -0.970968 -0.971395
          -0.999836 -0.958913 -0.945392 -0.977574 -0.948329 -0.983467 -0.992527 -0.992463 -0.984093 -0.999429 -0.983413 -0.940362
          -0.949238 -0.983512 -1.00002 -0.978947 -0.945351 -0.977098 -0.968182 -0.987569 -0.946599 -0.937289 -0.98993 -1.00012
          -0.999949 -0.989528 -0.958828 -0.970647 -0.948298 -0.956109 -0.990223 -0.953061 -0.947665 -0.971071 -0.960092 -0.959542
          -0.965124 -0.963896 -0.939025 -0.948069 -0.965268 -0.964308 -0.987172 -0.978774 -0.992127 -0.999754 -0.992582 -0.940379
          -0.97444 -0.975596 -1.00208 -0.936924 -0.958141 -0.958035 -0.951729 -1.00013 -0.963034 -1.00195 -0.961928 -0.969975
          -0.940645 -0.940932 -0.990285 -0.988823 -0.990527 -0.988926 -1.00103 -1.00007 -0.953035 -1.00174 -0.953963 -0.979197
          -0.987621 -0.989096 -0.98791 -0.987438 -1.00107 -1.00002 -1.00132 -1.00147 -1.00176 -1.0019 -0.966918 -1.00255
          -1.00215 -1.00125 -1.00179 -1.00194 -0.954769
        </DataArray>
        <DataArray type="Float32" Name="rho" NumberOfComponents="1" format="ascii">
          1000 1000 1000 1000 1000 1000 1000 1000 1000 1000 1000 1000
          1000 1000 1000 1000 1000 1000 1000 1000 1000 1000 1000 1000
          1000 1000 1000 1000 1000 1000 1000 1000 1000 1000 1000 1000
          1000 1000 1000 1000 1000 1000 1000 1000 1000 1000 1000 1000
          1000 1000 1000 1000 1000 1000 1000 1000 1000 1000 1000 1000
          1000 1000 1000 1000 1000 1000 1000 1000 1000 1000 1000 1000
          1000 1000 1000 1000 1000 1000 1000 1000 1000 1000 1000 1000
          1000 1000 1000 1000 1000 1000 1000 1000 1000 1000 1000 1000
          1000 1000 1000 1000 1000 1000 1000 1000 1000 1000 1000 1000
          1000 1000 1000 1000 1000 1000 1000 1000 1000 1000 1000 1000
          1000 1000 1000 1000 1000 1000 1000 1000 1000 1000 1000 1000
          1000 1000 1000 1000 1000 1000 1000 1000 1000 1000 1000 1000
          1000 1000 1000 1000 1000 1000 1000 1000 1000 1000 1000 1000
          1000 1000 1000 1000 1000 1000 1000 1000 1000 1000 1000 1000
          1000 1000 1000 1000 1000 1000 1000 1000 1000 1000 1000 1000
          1000 1000 1000 1000 1000 1000 1000 1000 1000 1000 1000 1000
          1000 1000 1000 1000 1000 1000 1000 1000 1000 1000 1000 1000
          1000 1000 1000 1000 1000 1000 1000 1000 1000 1000 1000 1000
          1000 1000 1000 1000 1000 1000 1000 1000 1000 1000 1000 1000
          1000 1000 1000 1000 1000 1000 1000 1000 1000 1000 1000 1000
          1000 1000 1000 1000 1000 1000 1000 1000 1000 1000 1000 1000
          1000 1000 1000 1000 1000 1000 1000 1000 1000 1000 1000 1000
          1000 1000 1000 1000 1000 1000 1000 1000 1000 1000 1000 1000
          1000 1000 1000 1000 1000 1000 1000 1000 1000 1000 1000 1000
          1000 1000 1000 1000 1000 1000 1000 1000 1000 1000 1000 1000
          1000 1000 1000 1000 1000 1000 1000 1000 1000 1000 1000 1000
          1000 1000 1000 1000 1000 1000 1000 1000 1000 1000 1000 1000
          1000 1000 1000 1000 1000 1000 1000 1000 1000 1000 1000 1000
          1000 1000 1000 1000 1000 1000 1000 1000 1000 1000 1000 1000
          1000 1000 1000 1000 1000 1000 1000 1000 1000 1000 1000 1000
          1000 1000 1000 1000 1000 1000 1000 1000 1000 1000 1000 1000
          1000 1000 1000 1000 1000 1000 1000 1000 1000 1000 1000 1000
          1000 1000 1000 1000 1000 1000 1000 1000 1000 1000 1000 1000
          1000 1000 1000 1000 1000 1000 1000 1000 1000 1000 1000 1000
          1000 1000 1000 1000 1000 1000 1000 1000 1000 1000 1000 1000
          1000 1000 1000 1000 1000 1000 1000 1000 1000 1000 1000 1000
          1000 1000 1000 1000 1000 1000 1000 1000 1000 1000 1000 1000
          1000 1000 1000 1000 1000 1000 1000 1000 1000 1000 1000 1000
          1000 1000 1000 1000 1000 1000 1000 1000 1000 1000 1000 1000
          1000 1000 1000 1000 1000 1000 1000 1000 1000 1000 1000 1000
          1000 1000 1000 1000 1000 1000 1000 1000 1000 1000 1000 1000
          1000 1000 1000 1000 1000 1000 1000 1000 1000 1000 1000 1000
          1000 1000 1000 1000 1000 1000 1000 1000 1000 1000 1000 1000
          1000 1000 1000 1000 1000 1000 1000 1000 1000 1000 1000 1000
          1000 1000 1000 1000 1000 1000 1000 1000 1000 1000 1000 1000
          1000 1000 1000 1000 1000 1000 1000 1000 1000 1000 1000 1000
          1000 1000 1000 1000 1000 1000 1000 1000 1000 1000 1000 1000
          1000 1000 1000 1000 1000 1000 1000 1000 1000 1000 1000 1000
          1000 1000 1000 1000 1000 1000 1000 1000 1000 1000 1000 1000
          1000 1000 1000 1000 1000 1000 1000 1000 1000 1000 1000 1000
          1000 1000 1000 1000 1000 1000 1000 1000 1000 1000 1000 1000
          1000 1000 1000 1000 1000 1000 1000 1000 1000 1000 1000 1000
          1000 1000 1000 1000 1000 1000 1000 1000 1000 1000 1000 1000
          1000 1000 1000 1000 1000 1000 1000 1000 1000 1000 1000 1000
          1000 1000 1000 1000 1000 1000 1000 1000 1000 1000 1000 1000
          1000 1000 1000 1000 1000 1000 1000 1000 1000 1000 1000 1000
          1000 1000 1000 1000 1000 1000 1000 1000 1000 1000 1000 1000
          1000 1000 1000 1000 1000 1000 1000 1000 1000 1000 1000 1000
          1000 1000 1000 1000 1000 1000 1000 1000 1000 1000 1000 1000
          1000 1000 1000 1000 1000 1000 1000 1000 1000 1000 1000 1000
          1000 1000 1000 1000 1000 1000 1000 1000 1000 1000 1000 1000
          1000 1000 1000 1000 1000 1000 1000 1000 1000 1000 1000 1000
          1000 1000 1000 1000 1000 1000 1000 1000 1000 1000 1000 1000
          1000 1000 1000 1000 1000 1000 1000 1000 1000 1000 1000 1000
          1000 1000 1000 1000 1000 1000 1000 1000 1000 1000 1000 1000
          1000 1000 1000 1000 1000 1000 1000 1000 1000 1000 1000 1000
          1000 1000 1000 1000 1000 1000 1000 1000 1000 1000 1000 1000
          1000 1000 1000 1000 1000 1000 1000 1000 1000 1000 1000 1000
          1000 1000 1000 1000 1000 1000 1000 1000 1000 1000 1000 1000
          1000 1000 1000 1000 1000 1000 1000 1000 1000 1000 1000 1000
          1000 1000 1000 1000 1000 1000 1000 1000 1000 1000 1000 1000
          1000 1000 1000 1000 1000 1000 1000 1000 1000 1000 1000 1000
          1000 1000 1000 1000 1000 1000 1000 1000 1000 1000 1000 1000
          1000 1000 1000 1000 1000 1000 1000 1000 1000 1000 1000 1000
          1000 1000 1000 1000 1000 1000 1000 1000 1000 1000 1000 1000
          1000 1000 1000 1000 1000 1000 1000 1000 1000 1000 1000 1000
          1000 1000 1000 1000 1000 1000 1000 1000 1000 1000 1000 1000
          1000 1000 1000 1000 1000 1000 1000 1000 1000 1000 1000 1000
          1000 1000 1000 1000 1000 1000 1000 1000 1000 1000 1000 1000
          1000 1000 1000 1000 1000 1000 1000 1000 1000 1000 1000 1000
          1000 1000 1000 1000 1000 1000 1000 1000 1000 1000 1000 1000
          1000 1000 1000 1000 1000 1000 1000 1000 1000 1000 1000 1000
          1000 1000 1000 1000 1000 1000 1000 1000 1000 1000 1000 1000
          1000 1000 1000 1000 1000 1000 1000 1000 1000 1000 1000 1000
          1000 1000 1000 1000 1000 1000 1000 1000 1000 1000 1000 1000
          1000 1000 1000 1000 1000 1000 1000 1000 1000 1000 1000 1000
          1000 1000 1000 1000 1000 1000 1000 1000 1000 1000 1000 1000
          1000 1000 1000 1000 1000 1000 1000 1000 1000 1000 1000 1000
          1000 1000 1000 1000 1000 1000 1000 1000 1000 1000 1000 1000
          1000 1000 1000 1000 1000 1000 1000 1000 1000 1000 1000 1000
          1000 1000 1000 1000 1000 1000 1000 1000 1000 1000 1000 1000
          1000 1000 1000 1000 1000 1000 1000 1000 1000 1000 1000 1000
          1000 1000 1000 1000 1000 1000 1000 1000 1000 1000 1000 1000
          1000 1000 1000 1000 1000 1000 1000 1000 1000 1000 1000 1000
          1000 1000 1000 1000 1000 1000 1000 1000 1000 1000 1000 1000
          1000 1000 1000 1000 1000 1000 1000 1000 1000 1000 1000 1000
          1000 1000 1000 1000 1000 1000 1000 1000 1000 1000 1000 1000
          1000 1000 1000 1000 1000 1000 1000 1000 1000 1000 1000 1000
          1000 1000 1000 1000 1000 1000 1000 1000 1000 1000 1000 1000
          1000 1000 1000 1000 1000 1000 1000 1000 1000 1000 1000 1000
          1000 1000 1000 1000 1000 1000 1000 1000 1000 1000 1000 1000
          1000 1000 1000 1000 1000 1000 1000 1000 1000 1000 1000 1000
          1000 1000 1000 1000 1000 1000 1000 1000 1000 1000 1000 1000
          1000 1000 1000 1000 1000 1000 1000 1000 1000 1000 1000 1000
          1000 1000 1000 1000 1000 1000 1000 1000 1000 1000 1000 1000
          1000 1000 1000 1000 1000 1000 1000 1000 1000 1000 1000 1000
          1000 1000 1000 1000 1000 1000 1000 1000 1000 1000 1000 1000
          1000 1000 1000 1000 1000 1000 1000 1000 1000 1000 1000 1000
          1000 1000 1000 1000 1000 1000 1000 1000 1000 1000 1000 1000
          1000 1000 1000 1000 1000 1000 1000 1000 1000 1000 1000 1000
          1000 1000 1000 1000 1000 1000 1000 1000 1000 1000 1000 1000
          1000 1000 1000 1000 1000 1000 1000 1000 1000 1000 1000 1000
          1000 1000 1000 1000 1000 1000 1000 1000 1000 1000 1000 1000
          1000 1000 1000 1000 1000 1000 1000 1000 1000 1000 1000 1000
          1000 1000 1000 1000 1000 1000 1000 1000 1000 1000 1000 1000
          1000 1000 1000 1000 1000 1000 1000 1000 1000 1000 1000 1000
          1000 1000 1000 1000 1000 1000 1000 1000 1000 1000 1000 1000
          1000 1000 1000 1000 1000 1000 1000 1000 1000 1000 1000 1000
          1000 1000 1000 1000 1000 1000 1000 1000 1000 1000 1000 1000
          1000 1000 1000 1000 1000 1000 1000 1000 1000 1000 1000 1000
          1000 1000 1000 1000 1000
        </DataArray>
      </PointData>
      <CellData Scalars="process rank" Vectors="velocity_liq (m/s)">
        <DataArray type="Float32" Name="velocity_liq (m/s)" NumberOfComponents="3" format="ascii">
          0.000906118 -0.000240886 -2.00658e-06 0.00160637 -0.000390022 4.20448e-06 0.00202559 -0.000497443 2.10523e-07 0.00211159 -0.000537992 -1.28622e-06
          0.0017639 -0.000450638 -4.15146e-07 0.00211422 -0.000651928 -3.59734e-06 0.00153247 -0.000478649 -6.74728e-06 0.00163225 -0.000406657 1.39625e-06
          0.00146961 -0.000330943 -9.20311e-07 0.00183142 -0.000330455 7.52623e-07 0.0015144 -0.000385642 4.00707e-07 0.00093225 -0.00024371 7.4926e-07
          0.00223375 -0.000361203 1.37469e-06 0.00165597 -0.000428647 6.60371e-07 0.00181316 -0.000571931 -9.21377e-06 0.0019742 -0.000401997 -9.02887e-07
          0.0014324 -0.000454348 -1.65925e-05 0.00142001 -0.000392716 -1.53175e-06 0.00203831 -0.000552623 -3.74913e-06 0.00226834 -0.000421699 2.17223e-06
          0.00183126 -0.000530496 -2.18867e-06 0.00120027 -0.000338282 -3.02305e-06 0.0012014 -0.000337351 3.33195e-06 0.000917205 -0.000259701 -2.72236e-06
          0.00091976 -0.000260681 2.55014e-06 0.00227746 -0.000611246 -1.37737e-06 0.00151851 -0.000409038 5.55248e-07 0.00195651 -0.000610519 -7.25856e-06
          0.00118761 -0.000328953 -9.73621e-07 0.00199448 -0.000457127 -5.25312e-06 0.00152582 -0.000437043 -2.57901e-06 0.000972275 -0.000263411 4.2755e-06
          0.00139901 -0.000269726 1.42599e-06 0.00072646 -0.000197954 -4.2748e-06 0.00145149 -0.000287513 -6.33399e-07 0.000878813 -0.00026187 -1.23095e-05
          0.00208904 -0.000591714 -2.81871e-06 0.00173137 -0.000554952 -1.91196e-05 0.000710511 -0.000183481 1.3089e-06 0.00182661 -0.000471092 -3.25222e-07
          0.00159047 -0.000442578 3.34308e-06 0.0013085 -0.000368725 -4.07286e-06 0.000772821 -0.000206181 -2.52989e-06 0.00123307 -0.000363613 -1.70915e-07
          0.00150213 -0.000399595 -4.51291e-06 0.0010176 -0.000273847 3.19628e-06 0.00133785 -0.000395922 -5.75337e-06 0.00175592 -0.000480499 6.27751e-07
          0.00218596 -0.000572646 -5.98545e-07 0.00118483 -0.00032367 -4.7127e-06 0.00204046 -0.000426346 -1.36215e-06 0.00102794 -0.000251933 2.23787e-06
          0.00160821 -0.000436463 8.09528e-07 0.00218389 -0.000587717 -3.12353e-07 0.00149455 -0.000418749 -9.58409e-07 0.00106609 -0.000280353 -2.2435e-07
          0.00208459 -0.000568964 -3.87472e-07 0.00181589 -0.000399598 4.34372e-06 0.00155842 -0.000428803 -4.72053e-07 0.00146466 -0.000410096 2.52832e-06
          0.000972915 -0.000266308 3.27444e-06 0.00155532 -0.000353186 -4.37516e-06 0.00154416 -0.000387905 2.60355e-06 0.00179098 -0.000328307 3.20063e-06
          0.00178889 -0.000335782 -9.2079e-07 0.00155256 -0.000335367 -9.01801e-07 0.00164192 -0.000420193 1.10726e-06 0.00133416 -0.000404542 -8.65942e-06
          0.00147213 -0.000407799 1.42197e-06 0.00142686 -0.000294502 -2.37225e-07 0.00127491 -0.000350558 -8.58539e-07 0.00211179 -0.000349347 -2.30524e-06
          0.00211838 -0.000353705 -4.99834e-06 0.00140061 -0.000298102 4.3516e-07 0.00105901 -0.000238875 7.02898e-06 0.001076 -0.000253979 -2.83137e-06
          0.00152023 -0.00043144 -6.19091e-06 0.00228552 -0.00070194 5.04074e-08 0.00102885 -0.000190305 1.87807e-06 0.000951636 -0.000265414 -1.67676e-06
          0.00158806 -0.000473581 1.0499e-06 0.000730319 -0.000198371 -3.52571e-07 0.00166349 -0.000521584 9.93646e-06 0.00073521 -0.000189122 -1.68479e-06
          0.00149793 -0.000425975 2.78915e-06 0.0020999 -0.000588678 1.83914e-06 0.001814 -0.000558575 1.00202e-06 0.00101534 -0.000272229 9.41085e-07
          0.00156353 -0.000436336 -2.29677e-06 0.00225902 -0.0006681 4.0044e-08 0.000791694 -0.000192597 5.44459e-06 0.00200505 -0.000405511 2.42404e-06
          0.00139848 -0.000397223 -5.31621e-06 0.00103 -0.000261574 6.80541e-06 0.000709565 -0.00019682 -3.5277e-07 0.000780628 -0.000220284 2.6769e-06
          0.00135034 -0.000417599 5.84803e-06 0.00137595 -0.000391024 3.02604e-06 0.00122856 -0.00031222 -4.25305e-06 0.00220044 -0.00068763 7.82299e-07
          0.000993913 -0.000249591 7.73968e-06 0.000742182 -0.000205096 -2.07366e-06 0.00109118 -0.000283372 -6.73911e-08 0.00172319 -0.000472816 -1.15174e-06
          0.00109703 -0.000267572 4.92249e-06 0.00148355 -0.00044001 -1.20772e-06 0.00161974 -0.000410582 1.87626e-06 0.00204399 -0.000591715 1.20342e-06
          0.00169686 -0.000385123 4.27201e-06 0.0023047 -0.000424906 8.47837e-08 0.000727757 -0.000200352 5.00669e-07 0.00152405 -0.000422404 8.18379e-07
          0.00109447 -0.000286385 -1.51975e-06 0.00145587 -0.000396709 1.85149e-06 0.00114893 -0.000326392 4.4155e-07 0.00129036 -0.000348863 6.68162e-07
          0.00102538 -0.000240425 1.9416e-06 0.00161858 -0.000283957 7.74067e-07 0.000829574 -0.000214298 7.04979e-07 0.000710887 -0.000190441 -2.28779e-06
          0.00159365 -0.000377268 -8.62749e-07 0.00211148 -0.00066782 4.76536e-06 0.00133403 -0.000345932 3.32364e-06 0.001716 -0.000290897 3.92134e-06
          0.000649555 -0.000164216 -1.19887e-06 0.000764631 -0.000212311 6.23617e-08 0.000692021 -0.000184495 4.83173e-07 0.00129087 -0.000343833 2.38356e-06
          0.00234149 -0.000381768 -4.64043e-06 0.00233896 -0.000377413 -2.39607e-06 0.00231356 -0.000598646 -2.31212e-06 0.000686277 -0.000164026 -4.78333e-06