<?xml version="1.0"?>
<VTKFile type="UnstructuredGrid" version="0.1" byte_order="LittleEndian">
  <UnstructuredGrid>
    <Piece NumberOfCells="64" NumberOfPoints="81">
      <CellData Scalars="S_liq">
        <DataArray type="Float32" Name="S_liq" NumberOfComponents="1" format="ascii">
          0.757361 0.757361 0.757361 0.757361 0.757361 0.757361 0.757361 0.757361 0.177386 0.177386 0.177385 0.177384
          0.177383 0.177382 0.177382 0.177381 0.0609528 0.0609536 0.0609542 0.0609545 0.0609545 0.0609545 0.0609545 0.0609544
          0.033059 0.0330683 0.0330767 0.0330832 0.0330883 0.0330922 0.033095 0.0330958 0.0221613 0.0221934 0.0222197 0.0222399
          0.0222557 0.0222683 0.0222773 0.0222798 0.0158511 0.0159237 0.0159772 0.0160178 0.0160499 0.0160758 0.0160949 0.0160995
          0.0095224 0.0097745 0.00993778 0.0100596 0.0101557 0.0102333 0.0102915 0.0103037 0 0 0 0
          0 0 0 0
        </DataArray>
        <DataArray type="Float32" Name="p_liq" NumberOfComponents="1" format="ascii">
          98643.2 98643.2 98643.2 98643.2 98643.2 98643.2 98643.2 98643.2 97934.8 97934.8 97934.7 97934.7
          97934.7 97934.7 97934.7 97934.7 97461.9 97461.9 97461.9 97461.9 97461.9 97461.9 97461.9 97461.9
          97138.2 97138.4 97138.5 97138.6 97138.7 97138.8 97138.9 97138.9 96886.1 96887.1 96887.9 96888.5
          96889 96889.4 96889.7 96889.8 96632.5 96636.4 96639.2 96641.3 96642.9 96644.3 96645.3 96645.5
          96261.2 96276.1 96285.7 96292.9 96298.6 96303.2 96306.7 96307.4 95697.5 95697.5 95697.5 95697.5
          95697.5 95697.5 95697.5 95697.5
        </DataArray>
        <DataArray type="Float32" Name="rho_liq" NumberOfComponents="1" format="ascii">
          999.417 999.418 999.42 999.422 999.424 999.426 999.428 999.428 999.39 999.392 999.396 999.401
          999.405 999.41 999.413 999.414 999.349 999.354 999.363 999.373 999.382 999.39 999.395 999.398
          999.306 999.317 999.332 999.348 999.362 999.373 999.381 999.385 999.267 999.285 999.307 999.329
          999.347 999.362 999.372 999.376 999.233 999.26 999.289 999.315 999.337 999.354 999.366 999.37
          999.197 999.242 999.276 999.306 999.33 999.349 999.362 999.366 261.397 312.937 348.833 377.401
          401.492 422.214 438.919 442.081
        </DataArray>
        <DataArray type="Float32" Name="mob_liq" NumberOfComponents="1" format="ascii">
          325.893 325.823 325.698 325.538 325.371 325.22 325.107 325.047 4.3815 4.37916 4.37509 4.37017
          4.36522 4.36094 4.35783 4.3562 0.178671 0.178451 0.178091 0.177684 0.177298 0.176978 0.176753 0.176638
          0.025369 0.0253281 0.0252571 0.0251786 0.0251066 0.0250487 0.0250092 0.024989 0.0063356 0.0063417 0.0063349 0.00632334
          0.00631192 0.00630306 0.00629759 0.00629363 0.00173721 0.00175904 0.00177116 0.00177866 0.00178412 0.00178873 0.00179259 0.00179273
          0.000145528 0.000168458 0.0001838 0.000195588 0.000205135 0.000213056 0.000219184 0.00022039 0 0 0 0
          0 0 0 0
        </DataArray>
        <DataArray type="Float32" Name="S_gas" NumberOfComponents="1" format="ascii">
          0.242639 0.242639 0.242639 0.242639 0.242639 0.242639 0.242639 0.242639 0.822614 0.822614 0.822615 0.822616
          0.822617 0.822618 0.822618 0.822619 0.939047 0.939046 0.939046 0.939046 0.939045 0.939045 0.939045 0.939046
          0.966941 0.966932 0.966923 0.966917 0.966912 0.966908 0.966905 0.966904 0.977839 0.977807 0.97778 0.97776
          0.977744 0.977732 0.977723 0.97772 0.984149 0.984076 0.984023 0.983982 0.98395 0.983924 0.983905 0.983901
          0.990478 0.990225 0.990062 0.98994 0.989844 0.989767 0.989709 0.989696 1 1 1 1
          1 1 1 1
        </DataArray>
        <DataArray type="Float32" Name="p_gas" NumberOfComponents="1" format="ascii">
          100002 100002 100002 100002 100002 100002 100002 100002 100002 100002 100002 100002
          100002 100002 100002 100002 100001 100001 100001 100001 100001 100001 100001 100001
          100001 100001 100001 100001 100001 100001 100001 100001 100000 100000 100000 100000
          100000 100000 100000 100000 100000 100000 100000 100000 100000 100000 100000 100000
          100000 100000 100000 100000 100000 100000 100000 100000 100000 100000 100000 100000
          100000 100000 100000 100000
        </DataArray>
        <DataArray type="Float32" Name="rho_gas" NumberOfComponents="1" format="ascii">
          1.21216 1.2122 1.21226 1.21235 1.21243 1.21251 1.21257 1.2126 1.21108 1.21117 1.21132 1.21151
          1.2117 1.21186 1.21198 1.21204 1.20949 1.2097 1.21004 1.21042 1.21078 1.21108 1.21129 1.2114
          1.2078 1.20821 1.20881 1.20943 1.20999 1.21044 1.21075 1.2109 1.20626 1.20697 1.20785 1.20869
          1.20941 1.20999 1.21037 1.21055 1.20498 1.20601 1.20715 1.20816 1.20902 1.20969 1.21014 1.21032
          1.20393 1.20533 1.20666 1.2078 1.20875 1.20949 1.20999 1.21016 1.20866 1.20989 1.21103 1.212
          1.21278 1.21339 1.21379 1.21392
        </DataArray>
        <DataArray type="Float32" Name="mob_gas" NumberOfComponents="1" format="ascii">
          2934.68 2934.73 2934.82 2934.95 2935.07 2935.19 2935.28 2935.32 40455.5 40457.3 40460.4 40464.2
          40468 40471.3 40473.7 40475 52446.2 52451.6 52460.3 52470.1 52479.4 52487.2 52492.7 52495.5
          55243.3 55253.9 55269.5 55285.9 55300.7 55312.6 55320.8 55324.8 55930.9 55948.6 55971.4 55993.6
          56012.7 56027.9 56038.1 56042.8 56177.4 56203.5 56233 56259.7 56282.2 56299.8 56311.6 56316.5
          56313.1 56345.9 56380.3 56410 56434.5 56453.8 56466.7 56471.3 55971.3 56049.3 56113.1 56165
          56207.4 56241.4 56265.7 56272.1
        </DataArray>
        <DataArray type="Float32" Name="pc" NumberOfComponents="1" format="ascii">
          1359.18 1359.18 1359.18 1359.18 1359.18 1359.18 1359.18 1359.18 2066.82 2066.82 2066.82 2066.83
          2066.83 2066.83 2066.83 2066.83 2539.07 2539.07 2539.06 2539.06 2539.06 2539.06 2539.06 2539.06
          2862.4 2862.23 2862.09 2861.97 2861.88 2861.81 2861.77 2861.75 3114.26 3113.26 3112.45 3111.82
          3111.33 3110.95 3110.67 3110.59 3367.65 3363.83 3361.02 3358.91 3357.25 3355.91 3354.92 3354.69
          3738.93 3724.01 3714.34 3707.13 3701.44 3696.85 3693.41 3692.69 4302.49 4302.49 4302.49 4302.49
          4302.49 4302.49 4302.49 4302.49
        </DataArray>
        <DataArray type="Float32" Name="porosity" NumberOfComponents="1" format="ascii">
          0.41 0.41 0.41 0.41 0.41 0.41 0.41 0.41 0.41 0.41 0.41 0.41
          0.41 0.41 0.41 0.41 0.41 0.41 0.41 0.41 0.41 0.41 0.41 0.41
          0.41 0.41 0.41 0.41 0.41 0.41 0.41 0.41 0.41 0.41 0.41 0.41
          0.41 0.41 0.41 0.41 0.41 0.41 0.41 0.41 0.41 0.41 0.41 0.41
          0.41 0.41 0.41 0.41 0.41 0.41 0.41 0.41 0.41 0.41 0.41 0.41
          0.41 0.41 0.41 0.41
        </DataArray>
        <DataArray type="Float32" Name="x^H2O_liq" NumberOfComponents="1" format="ascii">
          0.999983 0.999983 0.999983 0.999983 0.999983 0.999983 0.999983 0.999983 0.999983 0.999983 0.999983 0.999983
          0.999983 0.999983 0.999983 0.999983 0.999983 0.999983 0.999983 0.999983 0.999983 0.999983 0.999983 0.999983
          0.999983 0.999983 0.999983 0.999983 0.999983 0.999983 0.999983 0.999983 0.999983 0.999983 0.999983 0.999983
          0.999983 0.999983 0.999983 0.999983 0.999983 0.999983 0.999983 0.999983 0.999983 0.999983 0.999983 0.999983
          0.999983 0.999983 0.999983 0.999983 0.999983 0.999983 0.999983 0.999983 0.261591 0.313155 0.349065 0.377643
          0.40174 0.422467 0.439177 0.44234
        </DataArray>
        <DataArray type="Float32" Name="X^H2O_liq" NumberOfComponents="1" format="ascii">
          0.999972 0.999972 0.999972 0.999972 0.999972 0.999972 0.999972 0.999972 0.999973 0.999973 0.999973 0.999973
          0.999973 0.999973 0.999972 0.999972 0.999973 0.999973 0.999973 0.999973 0.999973 0.999973 0.999973 0.999973
          0.999973 0.999973 0.999973 0.999973 0.999973 0.999973 0.999973 0.999973 0.999973 0.999973 0.999973 0.999973
          0.999973 0.999973 0.999973 0.999973 0.999973 0.999973 0.999973 0.999973 0.999973 0.999973 0.999973 0.999973
          0.999973 0.999973 0.999973 0.999973 0.999973 0.999973 0.999973 0.999973 0.261581 0.313145 0.349055 0.377633
          0.40173 0.422457 0.439167 0.442329
        </DataArray>
        <DataArray type="Float32" Name="x^Air_liq" NumberOfComponents="1" format="ascii">
          1.7134e-05 1.71369e-05 1.71422e-05 1.71489e-05 1.7156e-05 1.71624e-05 1.71672e-05 1.71698e-05 1.70467e-05 1.70539e-05 1.70663e-05 1.70814e-05
          1.70966e-05 1.71098e-05 1.71194e-05 1.71245e-05 1.69188e-05 1.69356e-05 1.69628e-05 1.69935e-05 1.70228e-05 1.70472e-05 1.70644e-05 1.70731e-05
          1.67847e-05 1.68176e-05 1.68652e-05 1.69146e-05 1.69593e-05 1.69954e-05 1.70203e-05 1.70324e-05 1.66646e-05 1.67194e-05 1.67887e-05 1.68554e-05
          1.69133e-05 1.69592e-05 1.69905e-05 1.70045e-05 1.65651e-05 1.66453e-05 1.67339e-05 1.6814e-05 1.68817e-05 1.69353e-05 1.69716e-05 1.69861e-05
          1.64853e-05 1.65919e-05 1.66957e-05 1.67856e-05 1.68603e-05 1.69195e-05 1.69597e-05 1.69738e-05 1.66247e-05 1.67389e-05 1.6843e-05 1.69307e-05
          1.7003e-05 1.70599e-05 1.70985e-05 1.71104e-05
        </DataArray>
        <DataArray type="Float32" Name="X^Air_liq" NumberOfComponents="1" format="ascii">
          2.75432e-05 2.75479e-05 2.75564e-05 2.75672e-05 2.75786e-05 2.75889e-05 2.75966e-05 2.76007e-05 2.74029e-05 2.74144e-05 2.74344e-05 2.74586e-05
          2.74831e-05 2.75043e-05 2.75198e-05 2.75279e-05 2.71973e-05 2.72243e-05 2.7268e-05 2.73174e-05 2.73644e-05 2.74036e-05 2.74313e-05 2.74454e-05
          2.69817e-05 2.70346e-05 2.7111e-05 2.71906e-05 2.72624e-05 2.73204e-05 2.73604e-05 2.73799e-05 2.67886e-05 2.68768e-05 2.69882e-05 2.70953e-05
          2.71883e-05 2.72623e-05 2.73125e-05 2.7335e-05 2.66286e-05 2.67576e-05 2.69e-05 2.70288e-05 2.71377e-05 2.72237e-05 2.72821e-05 2.73054e-05
          2.65003e-05 2.66717e-05 2.68387e-05 2.69831e-05 2.71033e-05 2.71983e-05 2.72631e-05 2.72857e-05 2.67237e-05 2.69075e-05 2.70749e-05 2.72159e-05
          2.73321e-05 2.74236e-05 2.74857e-05 2.7505e-05
        </DataArray>
        <DataArray type="Float32" Name="rhoMolar_liq" NumberOfComponents="1" format="ascii">
          55475.8 55475.9 55476 55476.1 55476.2 55476.3 55476.4 55476.4 55474.3 55474.4 55474.6 55474.9
          55475.2 55475.4 55475.6 55475.6 55472 55472.3 55472.8 55473.4 55473.9 55474.3 55474.6 55474.7
          55469.6 55470.2 55471.1 55472 55472.8 55473.4 55473.8 55474 55467.5 55468.5 55469.7 55470.9
          55471.9 55472.7 55473.3 55473.5 55465.6 55467.1 55468.7 55470.2 55471.4 55472.3 55473 55473.2
          55463.6 55466.1 55468 55469.6 55471 55472 55472.7 55473 55462 55465.3 55467.5 55469.3
          55470.7 55471.8 55472.6 55472.8
        </DataArray>
        <DataArray type="Float32" Name="x^H2O_gas" NumberOfComponents="1" format="ascii">
          0.0146854 0.0146782 0.0146651 0.0146484 0.0146309 0.0146151 0.0146033 0.014597 0.0149025 0.0148846 0.0148535 0.0148159
          0.014778 0.0147452 0.0147213 0.0147088 0.0152248 0.015182 0.0151133 0.0150358 0.0149623 0.0149012 0.0148582 0.0148363
          0.0155681 0.0154832 0.0153613 0.0152353 0.015122 0.0150309 0.0149684 0.0149381 0.0158802 0.015737 0.0155576 0.0153863
          0.0152387 0.0151221 0.0150433 0.015008 0.0161435 0.0159307 0.0156994 0.0154924 0.0153189 0.0151828 0.015091 0.0150543
          0.0164008 0.0160713 0.0157987 0.0155656 0.0153735 0.0152229 0.0151208 0.0150853 0.00434604 0.00506871 0.00554015 0.00589827
          0.00619182 0.00644287 0.00664904 0.00668237
        </DataArray>
        <DataArray type="Float32" Name="X^H2O_gas" NumberOfComponents="1" format="ascii">
          0.00918638 0.00918182 0.00917358 0.00916309 0.00915205 0.00914213 0.00913469 0.00913072 0.0093229 0.00931165 0.00929212 0.00926843
          0.00924462 0.00922397 0.00920893 0.00920106 0.00952571 0.00949881 0.00945554 0.00940681 0.00936055 0.00932212 0.00929503 0.00928127
          0.00974175 0.00968834 0.00961164 0.0095323 0.00946103 0.00940371 0.00936436 0.00934531 0.00993824 0.00984811 0.00973514 0.00962734
          0.00953447 0.00946112 0.00941151 0.00938932 0.010104 0.00997008 0.00982446 0.00969417 0.00958495 0.00949927 0.00944149 0.00941845
          0.0102661 0.0100586 0.00988693 0.00974023 0.00961931 0.00952451 0.00946026 0.00943794 0.00270799 0.00315915 0.0034536 0.00367734
          0.00386079 0.00401771 0.00414659 0.00416744
        </DataArray>
        <DataArray type="Float32" Name="x^Air_gas" NumberOfComponents="1" format="ascii">
          0.985315 0.985322 0.985335 0.985352 0.985369 0.985385 0.985397 0.985403 0.985098 0.985115 0.985146 0.985184
          0.985222 0.985255 0.985279 0.985291 0.984775 0.984818 0.984887 0.984964 0.985038 0.985099 0.985142 0.985164
          0.984432 0.984517 0.984639 0.984765 0.984878 0.984969 0.985032 0.985062 0.98412 0.984263 0.984442 0.984614
          0.984761 0.984878 0.984957 0.984992 0.983857 0.984069 0.984301 0.984508 0.984681 0.984817 0.984909 0.984946
          0.983599 0.983929 0.984201 0.984434 0.984626 0.984777 0.984879 0.984915 0.995654 0.994931 0.99446 0.994102
          0.993808 0.993557 0.993351 0.993318
        </DataArray>
        <DataArray type="Float32" Name="X^Air_gas" NumberOfComponents="1" format="ascii">
          0.990814 0.990818 0.990826 0.990837 0.990848 0.990858 0.990865 0.990869 0.990677 0.990688 0.990708 0.990732
          0.990755 0.990776 0.990791 0.990799 0.990474 0.990501 0.990544 0.990593 0.990639 0.990678 0.990705 0.990719
          0.990258 0.990312 0.990388 0.990468 0.990539 0.990596 0.990636 0.990655 0.990062 0.990152 0.990265 0.990373
          0.990466 0.990539 0.990588 0.990611 0.989896 0.99003 0.990176 0.990306 0.990415 0.990501 0.990559 0.990582
          0.989734 0.989941 0.990113 0.99026 0.990381 0.990475 0.99054 0.990562 0.997292 0.996841 0.996546 0.996323
          0.996139 0.995982 0.995853 0.995833
        </DataArray>
        <DataArray type="Float32" Name="rhoMolar_gas" NumberOfComponents="1" format="ascii">
          42.0903 42.0914 42.0935 42.0961 42.0988 42.1013 42.1031 42.1041 42.0563 42.059 42.0639 42.0697
          42.0756 42.0807 42.0844 42.0864 42.0061 42.0127 42.0233 42.0353 42.0467 42.0562 42.0629 42.0663
          41.9528 41.9659 41.9848 42.0043 42.0218 42.0359 42.0457 42.0504 41.9045 41.9266 41.9543 41.9808
          42.0036 42.0217 42.0339 42.0394 41.8641 41.8967 41.9323 41.9643 41.9912 42.0122 42.0265 42.0321
          41.8317 41.875 41.917 41.953 41.9827 42.006 42.0218 42.0273 41.8043 41.8581 41.9052 41.9442
          41.9761 42.0012 42.0183 42.0234
        </DataArray>
        <DataArray type="Float32" Name="phase presence" NumberOfComponents="1" format="ascii">
          3 3 3 3 3 3 3 3 3 3 3 3
          3 3 3 3 3 3 3 3 3 3 3 3
          3 3 3 3 3 3 3 3 3 3 3 3
          3 3 3 3 3 3 3 3 3 3 3 3
          3 3 3 3 3 3 3 3 2 2 2 2
          2 2 2 2
        </DataArray>
        <DataArray type="Float32" Name="T" NumberOfComponents="1" format="ascii">
          285.759 285.751 285.738 285.72 285.701 285.685 285.672 285.666 285.988 285.969 285.937 285.897
          285.857 285.822 285.797 285.784 286.329 286.283 286.211 286.129 286.051 285.987 285.941 285.918
          286.691 286.601 286.473 286.34 286.22 286.124 286.058 286.026 287.021 286.869 286.68 286.499
          286.343 286.22 286.137 286.1 287.297 287.074 286.83 286.611 286.428 286.284 286.187 286.148
          287.52 287.223 286.935 286.688 286.486 286.326 286.219 286.181 287.703 287.334 287.011 286.744
          286.526 286.355 286.238 286.204
        </DataArray>
        <DataArray type="Float32" Name="process rank" NumberOfComponents="1" format="ascii">
          0 0 0 0 0 0 0 0 0 0 0 0
          0 0 0 0 0 0 0 0 0 0 0 0
          0 0 0 0 0 0 0 0 0 0 0 0
          0 0 0 0 0 0 0 0 0 0 0 0
          0 0 0 0 0 0 0 0 0 0 0 0
          0 0 0 0
        </DataArray>
      </CellData>
      <Points>
        <DataArray type="Float32" Name="Coordinates" NumberOfComponents="3" format="ascii">
          0 0 0 0.03125 0 0 0 0.0867169 0 0.03125 0.0867169 0
          0.0625 0 0 0.0625 0.0867169 0 0.09375 0 0 0.09375 0.0867169 0
          0.125 0 0 0.125 0.0867169 0 0.15625 0 0 0.15625 0.0867169 0
          0.1875 0 0 0.1875 0.0867169 0 0.21875 0 0 0.21875 0.0867169 0
          0.25 0 0 0.25 0.0867169 0 0 0.144528 0 0.03125 0.144528 0
          0.0625 0.144528 0 0.09375 0.144528 0 0.125 0.144528 0 0.15625 0.144528 0
          0.1875 0.144528 0 0.21875 0.144528 0 0.25 0.144528 0 0 0.183069 0
          0.03125 0.183069 0 0.0625 0.183069 0 0.09375 0.183069 0 0.125 0.183069 0
          0.15625 0.183069 0 0.1875 0.183069 0 0.21875 0.183069 0 0.25 0.183069 0
          0 0.208763 0 0.03125 0.208763 0 0.0625 0.208763 0 0.09375 0.208763 0
          0.125 0.208763 0 0.15625 0.208763 0 0.1875 0.208763 0 0.21875 0.208763 0
          0.25 0.208763 0 0 0.225892 0 0.03125 0.225892 0 0.0625 0.225892 0
          0.09375 0.225892 0 0.125 0.225892 0 0.15625 0.225892 0 0.1875 0.225892 0
          0.21875 0.225892 0 0.25 0.225892 0 0 0.237312 0 0.03125 0.237312 0
          0.0625 0.237312 0 0.09375 0.237312 0 0.125 0.237312 0 0.15625 0.237312 0
          0.1875 0.237312 0 0.21875 0.237312 0 0.25 0.237312 0 0 0.244925 0
          0.03125 0.244925 0 0.0625 0.244925 0 0.09375 0.244925 0 0.125 0.244925 0
          0.15625 0.244925 0 0.1875 0.244925 0 0.21875 0.244925 0 0.25 0.244925 0
          0 0.25 0 0.03125 0.25 0 0.0625 0.25 0 0.09375 0.25 0
          0.125 0.25 0 0.15625 0.25 0 0.1875 0.25 0 0.21875 0.25 0
          0.25 0.25 0
        </DataArray>
      </Points>
      <Cells>
        <DataArray type="Int32" Name="connectivity" NumberOfComponents="1" format="ascii">
          0 1 3 2 1 4 5 3 4 6 7 5
          6 8 9 7 8 10 11 9 10 12 13 11
          12 14 15 13 14 16 17 15 2 3 19 18
          3 5 20 19 5 7 21 20 7 9 22 21
          9 11 23 22 11 13 24 23 13 15 25 24
          15 17 26 25 18 19 28 27 19 20 29 28
          20 21 30 29 21 22 31 30 22 23 32 31
          23 24 33 32 24 25 34 33 25 26 35 34
          27 28 37 36 28 29 38 37 29 30 39 38
          30 31 40 39 31 32 41 40 32 33 42 41
          33 34 43 42 34 35 44 43 36 37 46 45
          37 38 47 46 38 39 48 47 39 40 49 48
          40 41 50 49 41 42 51 50 42 43 52 51
          43 44 53 52 45 46 55 54 46 47 56 55
          47 48 57 56 48 49 58 57 49 50 59 58
          50 51 60 59 51 52 61 60 52 53 62 61
          54 55 64 63 55 56 65 64 56 57 66 65
          57 58 67 66 58 59 68 67 59 60 69 68
          60 61 70 69 61 62 71 70 63 64 73 72
          64 65 74 73 65 66 75 74 66 67 76 75
          67 68 77 76 68 69 78 77 69 70 79 78
          70 71 80 79
        </DataArray>
        <DataArray type="Int32" Name="offsets" NumberOfComponents="1" format="ascii">
          4 8 12 16 20 24 28 32 36 40 44 48
          52 56 60 64 68 72 76 80 84 88 92 96
          100 104 108 112 116 120 124 128 132 136 140 144
          148 152 156 160 164 168 172 176 180 184 188 192
          196 200 204 208 212 216 220 224 228 232 236 240
          244 248 252 256
        </DataArray>
        <DataArray type="UInt8" Name="types" NumberOfComponents="1" format="ascii">
          9 9 9 9 9 9 9 9 9 9 9 9
          9 9 9 9 9 9 9 9 9 9 9 9
          9 9 9 9 9 9 9 9 9 9 9 9
          9 9 9 9 9 9 9 9 9 9 9 9
          9 9 9 9 9 9 9 9 9 9 9 9
          9 9 9 9
        </DataArray>
      </Cells>
    </Piece>
  </UnstructuredGrid>
</VTKFile>
