<?xml version="1.0"?>
<VTKFile type="UnstructuredGrid" version="0.1" byte_order="LittleEndian">
  <UnstructuredGrid>
    <Piece NumberOfCells="262" NumberOfPoints="152">
      <CellData Scalars="p">
        <DataArray type="Float32" Name="p" NumberOfComponents="1" format="ascii">
          100000 100000 100000 100000 100000 100000 100000 100000 100000 100000 100000 100000
          100000 100000 100000 100000 100000 100000 100000 100000 100000 100000 100000 100000
          100000 100000 100000 100000 100000 100000 100000 100000 100000 100000 100000 100000
          100000 100000 100000 100000 100000 100000 100000 100000 100000 100000 100000 100000
          100000 100000 100000 100000 100000 100000 100000 100000 100000 100000 100000 100000
          100000 100000 100000 100000 100000 100000 100000 100000 100000 100000 100000 100000
          100000 100000 100000 100000 100000 100000 100000 100000 100000 100000 100000 100000
          100000 100000 100000 100000 100000 100000 100000 100000 100000 100000 100000 100000
          100000 100000 100000 100000 100000 100000 100000 100000 100000 100000 100000 100000
          100000 100000 100000 100000 100000 100000 100000 100000 100000 100000 100000 100000
          100000 100000 100000 100000 100000 100000 100000 100000 100000 100000 100000 100000
          100000 100000 100000 100000 100000 100000 100000 100000 100000 100000 100000 100000
          100000 100000 100000 100000 100000 100000 100000 100000 100000 100000 100000 100000
          100000 100000 100000 100000 100000 100000 100000 100000 100000 100000 100000 100000
          100000 100000 100000 100000 100000 100000 100000 100000 100000 100000 100000 100000
          100000 100000 100000 100000 100000 100000 100000 100000 100000 100000 100000 100000
          100000 100000 100000 100000 100000 100000 100000 100000 100000 100000 100000 100000
          100000 100000 100000 100000 100000 100000 100000 100000 100000 100000 100000 100000
          100000 100000 100000 100000 100000 100000 100000 100000 100000 100000 100000 100000
          100000 100000 100000 100000 100000 100000 100000 100000 100000 100000 100000 100000
          100000 100000 100000 100000 100000 100000 100000 100000 100000 100000 100000 100000
          100000 100000 100000 100000 100000 100000 100000 100000 100000 100000
        </DataArray>
        <DataArray type="Float32" Name="rho" NumberOfComponents="1" format="ascii">
          999.689 999.689 999.689 999.689 999.689 999.689 999.689 999.689 999.689 999.689 999.689 999.689
          999.689 999.689 999.689 999.689 999.689 999.689 999.689 999.689 999.689 999.689 999.689 999.689
          999.689 999.689 999.689 999.689 999.689 999.689 999.689 999.689 999.689 999.689 999.689 999.689
          999.689 999.689 999.689 999.689 999.689 999.689 999.689 999.689 999.689 999.689 999.689 999.689
          999.689 999.689 999.689 999.689 999.689 999.689 999.689 999.689 999.689 999.689 999.689 999.689
          999.689 999.689 999.689 999.689 999.689 999.689 999.689 999.689 999.689 999.689 999.689 999.689
          999.689 999.689 999.689 999.689 999.689 999.689 999.689 999.689 999.689 999.689 999.689 999.689
          999.689 999.689 999.689 999.689 999.689 999.689 999.689 999.689 999.689 999.689 999.689 999.689
          999.689 999.689 999.689 999.689 999.689 999.689 999.689 999.689 999.689 999.689 999.689 999.689
          999.689 999.689 999.689 999.689 999.689 999.689 999.689 999.689 999.689 999.689 999.689 999.689
          999.689 999.689 999.689 999.689 999.689 999.689 999.689 999.689 999.689 999.689 999.689 999.689
          999.689 999.689 999.689 999.689 999.689 999.689 999.689 999.689 999.689 999.689 999.689 999.689
          999.689 999.689 999.689 999.689 999.689 999.689 999.689 999.689 999.689 999.689 999.689 999.689
          999.689 999.689 999.689 999.689 999.689 999.689 999.689 999.689 999.689 999.689 999.689 999.689
          999.689 999.689 999.689 999.689 999.689 999.689 999.689 999.689 999.689 999.689 999.689 999.689
          999.689 999.689 999.689 999.689 999.689 999.689 999.689 999.689 999.689 999.689 999.689 999.689
          999.689 999.689 999.689 999.689 999.689 999.689 999.689 999.689 999.689 999.689 999.689 999.689
          999.689 999.689 999.689 999.689 999.689 999.689 999.689 999.689 999.689 999.689 999.689 999.689
          999.689 999.689 999.689 999.689 999.689 999.689 999.689 999.689 999.689 999.689 999.689 999.689
          999.689 999.689 999.689 999.689 999.689 999.689 999.689 999.689 999.689 999.689 999.689 999.689
          999.689 999.689 999.689 999.689 999.689 999.689 999.689 999.689 999.689 999.689 999.689 999.689
          999.689 999.689 999.689 999.689 999.689 999.689 999.689 999.689 999.689 999.689
        </DataArray>
        <DataArray type="Float32" Name="mu" NumberOfComponents="1" format="ascii">
          0.00130753 0.00130753 0.00130753 0.00130753 0.00130753 0.00130753 0.00130753 0.00130753 0.00130753 0.00130753 0.00130753 0.00130753
          0.00130753 0.00130753 0.00130753 0.00130753 0.00130753 0.00130753 0.00130753 0.00130753 0.00130753 0.00130753 0.00130753 0.00130753
          0.00130753 0.00130753 0.00130753 0.00130753 0.00130753 0.00130753 0.00130753 0.00130753 0.00130753 0.00130753 0.00130753 0.00130753
          0.00130753 0.00130753 0.00130753 0.00130753 0.00130753 0.00130753 0.00130753 0.00130753 0.00130753 0.00130753 0.00130753 0.00130753
          0.00130753 0.00130753 0.00130753 0.00130753 0.00130753 0.00130753 0.00130753 0.00130753 0.00130753 0.00130753 0.00130753 0.00130753
          0.00130753 0.00130753 0.00130753 0.00130753 0.00130753 0.00130753 0.00130753 0.00130753 0.00130753 0.00130753 0.00130753 0.00130753
          0.00130753 0.00130753 0.00130753 0.00130753 0.00130753 0.00130753 0.00130753 0.00130753 0.00130753 0.00130753 0.00130753 0.00130753
          0.00130753 0.00130753 0.00130753 0.00130753 0.00130753 0.00130753 0.00130753 0.00130753 0.00130753 0.00130753 0.00130753 0.00130753
          0.00130753 0.00130753 0.00130753 0.00130753 0.00130753 0.00130753 0.00130753 0.00130753 0.00130753 0.00130753 0.00130753 0.00130753
          0.00130753 0.00130753 0.00130753 0.00130753 0.00130753 0.00130753 0.00130753 0.00130753 0.00130753 0.00130753 0.00130753 0.00130753
          0.00130753 0.00130753 0.00130753 0.00130753 0.00130753 0.00130753 0.00130753 0.00130753 0.00130753 0.00130753 0.00130753 0.00130753
          0.00130753 0.00130753 0.00130753 0.00130753 0.00130753 0.00130753 0.00130753 0.00130753 0.00130753 0.00130753 0.00130753 0.00130753
          0.00130753 0.00130753 0.00130753 0.00130753 0.00130753 0.00130753 0.00130753 0.00130753 0.00130753 0.00130753 0.00130753 0.00130753
          0.00130753 0.00130753 0.00130753 0.00130753 0.00130753 0.00130753 0.00130753 0.00130753 0.00130753 0.00130753 0.00130753 0.00130753
          0.00130753 0.00130753 0.00130753 0.00130753 0.00130753 0.00130753 0.00130753 0.00130753 0.00130753 0.00130753 0.00130753 0.00130753
          0.00130753 0.00130753 0.00130753 0.00130753 0.00130753 0.00130753 0.00130753 0.00130753 0.00130753 0.00130753 0.00130753 0.00130753
          0.00130753 0.00130753 0.00130753 0.00130753 0.00130753 0.00130753 0.00130753 0.00130753 0.00130753 0.00130753 0.00130753 0.00130753
          0.00130753 0.00130753 0.00130753 0.00130753 0.00130753 0.00130753 0.00130753 0.00130753 0.00130753 0.00130753 0.00130753 0.00130753
          0.00130753 0.00130753 0.00130753 0.00130753 0.00130753 0.00130753 0.00130753 0.00130753 0.00130753 0.00130753 0.00130753 0.00130753
          0.00130753 0.00130753 0.00130753 0.00130753 0.00130753 0.00130753 0.00130753 0.00130753 0.00130753 0.00130753 0.00130753 0.00130753
          0.00130753 0.00130753 0.00130753 0.00130753 0.00130753 0.00130753 0.00130753 0.00130753 0.00130753 0.00130753 0.00130753 0.00130753
          0.00130753 0.00130753 0.00130753 0.00130753 0.00130753 0.00130753 0.00130753 0.00130753 0.00130753 0.00130753
        </DataArray>
        <DataArray type="Float32" Name="delp" NumberOfComponents="1" format="ascii">
          -2.32831e-10 -3.34694e-10 -2.91038e-10 -1.74623e-10 -2.18279e-10 -1.16415e-10 1.30967e-10 4.36557e-11 -4.36557e-11 0 0 4.36557e-11
          8.73115e-11 7.27596e-11 1.01863e-10 -1.30967e-10 1.30967e-10 -1.01863e-10 -8.73115e-11 -4.22006e-10 -1.16415e-10 -1.30967e-10 -1.45519e-10 -1.01863e-10
          -2.76486e-10 -1.01863e-10 -2.18279e-10 -1.30967e-10 -5.82077e-11 -2.91038e-11 -5.82077e-11 -2.76486e-10 -1.45519e-10 -2.47383e-10 -1.16415e-10 -3.20142e-10
          1.16415e-10 -5.82077e-11 -2.03727e-10 -3.34694e-10 -4.36557e-10 -2.32831e-10 -1.74623e-10 8.73115e-11 -1.16415e-10 -3.0559e-10 -3.34694e-10 -4.51109e-10
          -2.18279e-10 -2.03727e-10 -2.32831e-10 -2.18279e-10 -7.27596e-11 -4.36557e-11 -4.22006e-10 -2.76486e-10 -4.07454e-10 -1.45519e-11 -1.45519e-11 4.36557e-11
          -2.18279e-10 -4.07454e-10 8.73115e-11 -2.03727e-10 -1.89175e-10 -1.30967e-10 -2.47383e-10 -1.89175e-10 -4.65661e-10 7.27596e-11 1.16415e-10 1.16415e-10
          1.45519e-11 4.36557e-11 5.82077e-11 -5.82077e-11 -1.45519e-11 2.91038e-11 1.45519e-11 -7.27596e-11 -1.74623e-10 0 2.91038e-11 -1.45519e-11
          -5.82077e-11 -2.91038e-10 -2.61934e-10 -4.07454e-10 -1.74623e-10 7.27596e-11 -1.60071e-10 4.36557e-11 -1.45519e-10 1.01863e-10 -1.89175e-10 -8.73115e-11
          1.16415e-10 1.30967e-10 1.45519e-11 1.45519e-11 -4.22006e-10 -5.82077e-11 -2.91038e-11 1.45519e-11 2.91038e-11 0 8.73115e-11 -1.01863e-10
          -1.01863e-10 -5.82077e-11 0 0 -3.49246e-10 -2.03727e-10 -1.89175e-10 -2.61934e-10 -1.01863e-10 0 -2.61934e-10 -7.27596e-11
          -3.20142e-10 -1.45519e-11 0 -2.32831e-10 -3.92902e-10 -3.20142e-10 -1.45519e-11 -2.61934e-10 -2.03727e-10 -2.91038e-11 -4.22006e-10 -3.92902e-10
          -5.82077e-11 -1.89175e-10 1.45519e-11 -2.03727e-10 -2.32831e-10 -3.63798e-10 1.45519e-11 -2.91038e-11 -4.65661e-10 -5.82077e-11 1.45519e-11 -2.91038e-11
          7.27596e-11 -1.74623e-10 -5.09317e-10 -2.18279e-10 -2.32831e-10 -2.18279e-10 -2.18279e-10 -5.09317e-10 1.16415e-10 -2.18279e-10 -2.61934e-10 -1.01863e-10
          -1.45519e-10 -1.45519e-11 -8.73115e-11 -4.51109e-10 -3.34694e-10 -1.16415e-10 -1.01863e-10 -3.0559e-10 -1.60071e-10 -5.82077e-11 -2.91038e-10 -7.27596e-11
          -7.27596e-11 -4.36557e-11 -5.82077e-11 -4.36557e-11 -3.49246e-10 -1.16415e-10 -1.74623e-10 -1.89175e-10 -2.91038e-11 -2.91038e-11 -7.27596e-11 -1.01863e-10
          -1.60071e-10 -3.0559e-10 -1.30967e-10 -2.03727e-10 -2.32831e-10 -8.73115e-11 0 -2.91038e-11 -2.91038e-10 1.01863e-10 5.82077e-11 -2.47383e-10
          -2.91038e-10 1.45519e-11 8.73115e-11 -2.18279e-10 -1.89175e-10 1.45519e-11 -8.73115e-11 -4.51109e-10 -1.45519e-11 1.45519e-11 -4.36557e-11 -2.32831e-10
          -4.80213e-10 -4.07454e-10 -7.27596e-11 -2.91038e-11 -1.01863e-10 1.45519e-11 -1.74623e-10 -1.89175e-10 -2.91038e-10 1.16415e-10 8.73115e-11 -7.27596e-11
          -4.36557e-11 -3.63798e-10 5.82077e-11 -1.01863e-10 -5.82077e-11 -2.91038e-11 -1.45519e-10 -1.45519e-11 -1.45519e-11 0 0 -1.45519e-10
          -5.82077e-11 -1.60071e-10 -7.27596e-11 0 -4.36557e-11 -1.89175e-10 1.45519e-10 -1.45519e-11 -4.80213e-10 -2.03727e-10 -2.03727e-10 -2.91038e-10
          -1.45519e-11 -2.91038e-11 -1.60071e-10 -2.91038e-10 -4.36557e-10 -7.27596e-11 -1.45519e-10 -1.30967e-10 -2.47383e-10 -1.89175e-10 -1.45519e-11 -2.32831e-10
          -1.16415e-10 -1.30967e-10 -1.60071e-10 1.16415e-10 1.01863e-10 -2.03727e-10 -1.60071e-10 -4.36557e-10 -3.49246e-10 -2.03727e-10
        </DataArray>
        <DataArray type="Float32" Name="x^H2O_liq" NumberOfComponents="1" format="ascii">
          0.99953 0.999333 0.999268 0.99976 0.999702 0.999264 0.999764 0.999932 0.999077 0.999972 0.999031 0.999277
          0.99975 0.999254 0.999772 0.999316 0.999716 0.999847 0.99918 0.999383 0.999782 0.999735 0.999297 0.99925
          0.999656 0.999761 0.999271 0.999073 0.999036 0.999968 0.999935 0.999634 0.999325 0.999677 0.999316 0.999713
          0.999798 0.999225 0.999764 0.999263 0.999318 0.999515 0.999543 0.999679 0.999353 0.999712 0.999638 0.999397
          0.999573 0.999486 0.999548 0.999511 0.999499 0.99954 0.999319 0.999755 0.999272 0.999965 0.999036 0.999764
          0.999267 0.999587 0.99972 0.999316 0.999502 0.99955 0.99961 0.999438 0.999474 0.999874 0.999141 0.999796
          0.999227 0.999698 0.999673 0.999359 0.999333 0.999063 0.999943 0.999077 0.999145 0.999872 0.999932 0.999762
          0.99971 0.999329 0.999271 0.999511 0.999198 0.999825 0.999409 0.999633 0.999386 0.999653 0.99947 0.999579
          0.999837 0.999182 0.999031 0.999973 0.999557 0.999936 0.99907 0.999937 0.999033 0.999971 0.99907 0.999871
          0.99915 0.999039 0.999966 0.999591 0.999577 0.999709 0.999291 0.999604 0.99907 0.999938 0.99948 0.99964
          0.999408 0.99997 0.999034 0.999438 0.99952 0.999523 0.999554 0.999566 0.999139 0.999878 0.999631 0.999554
          0.999834 0.999187 0.999636 0.99941 0.99939 0.999661 0.99994 0.999067 0.999459 0.999446 0.999974 0.999032
          0.999661 0.999381 0.999404 0.999542 0.999543 0.999515 0.999512 0.999443 0.999734 0.999299 0.999159 0.999859
          0.99984 0.999942 0.999068 0.999372 0.999482 0.999181 0.999848 0.999212 0.999811 0.999883 0.99956 0.999486
          0.999123 0.999889 0.999467 0.999571 0.999563 0.999799 0.99924 0.999223 0.999942 0.999883 0.999065 0.99913
          0.999571 0.999487 0.999161 0.99975 0.999695 0.999133 0.99906 0.999947 0.999339 0.999855 0.999162 0.99953
          0.99939 0.999122 0.999891 0.999512 0.999547 0.999657 0.999377 0.999476 0.999031 0.999973 0.999832 0.999191
          0.99937 0.999664 0.999413 0.999524 0.999525 0.999622 0.999782 0.999762 0.999605 0.999859 0.99987 0.999146
          0.999158 0.999434 0.999636 0.999401 0.999483 0.999562 0.999454 0.999592 0.999479 0.999521 0.9996 0.999131
          0.999886 0.999455 0.999596 0.99952 0.999438 0.999337 0.999699 0.999563 0.999474 0.999488 0.999572 0.999609
          0.999026 0.999977 0.999847 0.999171 0.999434 0.999421 0.999393 0.999381 0.999659 0.999652 0.999615 0.999133
          0.999881 0.999198 0.999249 0.999778 0.999824 0.999484 0.999572 0.999512 0.999223 0.9998
        </DataArray>
        <DataArray type="Float32" Name="x^N2_liq" NumberOfComponents="1" format="ascii">
          0.000469989 0.000666867 0.000732375 0.000239941 0.000298179 0.000736412 0.00023581 6.84731e-05 0.000922702 2.79328e-05 0.000968487 0.000722762
          0.00024974 0.000746185 0.00022835 0.000683711 0.00028375 0.000153342 0.000820237 0.000616793 0.000218009 0.000265379 0.000702696 0.00075043
          0.000344241 0.000239065 0.000729441 0.000926735 0.000964038 3.20511e-05 6.5401e-05 0.000365902 0.000674711 0.000323077 0.000684345 0.000286969
          0.000201854 0.000774485 0.000235927 0.000737359 0.000682208 0.000484902 0.000457232 0.000320558 0.000646541 0.000288009 0.000361537 0.000603125
          0.000426798 0.000514241 0.000451569 0.000489005 0.000500642 0.000459788 0.000681446 0.000244886 0.000728216 3.4592e-05 0.000964316 0.000235672
          0.000733327 0.000413399 0.000280115 0.000684151 0.000497646 0.000449619 0.000389877 0.000561942 0.000526496 0.000126307 0.000858834 0.000204038
          0.000772512 0.000301651 0.00032688 0.000641141 0.000666954 0.000936506 5.65658e-05 0.000922738 0.00085497 0.00012798 6.8224e-05 0.000238507
          0.000289774 0.000670841 0.000729315 0.000488888 0.000802047 0.000175023 0.000590716 0.000366629 0.000613789 0.000346839 0.000529946 0.000420491
          0.000163174 0.000818012 0.000969239 2.73344e-05 0.000442897 6.42941e-05 0.000930247 6.26963e-05 0.000967031 2.9409e-05 0.000929838 0.000128937
          0.000849698 0.000961294 3.41961e-05 0.000409316 0.000422678 0.000291039 0.000709012 0.0003963 0.000930129 6.1649e-05 0.000519612 0.000360099
          0.000591899 2.95183e-05 0.000966105 0.000561531 0.000479814 0.000476884 0.000445893 0.000434472 0.000861203 0.000122348 0.000368847 0.000445605
          0.000166301 0.000812529 0.000363519 0.000589839 0.000609883 0.000338982 6.0395e-05 0.00093267 0.000541178 0.000553653 2.63171e-05 0.000967998
          0.000338898 0.000618634 0.0005961 0.000458449 0.000457407 0.000484641 0.000488283 0.000557479 0.000266403 0.000700589 0.000841057 0.000141151
          0.000159745 5.82479e-05 0.000932266 0.00062781 0.000517956 0.00081936 0.000151588 0.000787626 0.00018951 0.000116585 0.000439571 0.000514224
          0.000876701 0.000110784 0.000532703 0.000429174 0.000437104 0.000201428 0.000760041 0.000776855 5.84368e-05 0.000116516 0.000934621 0.000870356
          0.000429239 0.000513389 0.000839397 0.000250337 0.00030535 0.000866765 0.000939918 5.34688e-05 0.000661162 0.000145095 0.000837736 0.000469819
          0.000609532 0.000877885 0.000108889 0.000487726 0.00045273 0.000343339 0.000622774 0.000523642 0.000969295 2.7067e-05 0.000167918 0.000809245
          0.000629594 0.000336153 0.000586859 0.000476381 0.000474494 0.000377975 0.000218479 0.00023778 0.000394583 0.000141008 0.000129767 0.000853915
          0.00084177 0.000565869 0.000363997 0.000599083 0.000516894 0.00043842 0.000546305 0.000408457 0.00052109 0.000479475 0.00040048 0.000868726
          0.000114179 0.000544756 0.000404112 0.000479906 0.000561698 0.000662773 0.000301383 0.000437072 0.000526244 0.000511855 0.000428291 0.000390775
          0.000974296 2.34451e-05 0.000153317 0.000828669 0.000565823 0.000578871 0.000607486 0.000619148 0.00034119 0.000348248 0.000384601 0.000866783
          0.00011896 0.000801558 0.00075098 0.000221566 0.000176103 0.000515784 0.00042806 0.000487816 0.00077706 0.000200094
        </DataArray>
        <DataArray type="Float32" Name="X^H2O_liq" NumberOfComponents="1" format="ascii">
          0.999269 0.998963 0.998862 0.999627 0.999536 0.998855 0.999633 0.999894 0.998566 0.999957 0.998495 0.998877
          0.999612 0.99884 0.999645 0.998937 0.999559 0.999762 0.998725 0.999041 0.999661 0.999587 0.998908 0.998834
          0.999465 0.999628 0.998866 0.99856 0.998502 0.99995 0.999898 0.999431 0.998951 0.999498 0.998936 0.999554
          0.999686 0.998796 0.999633 0.998854 0.99894 0.999246 0.999289 0.999502 0.998995 0.999552 0.999438 0.999062
          0.999336 0.999201 0.999298 0.99924 0.999222 0.999285 0.998941 0.999619 0.998868 0.999946 0.998501 0.999634
          0.99886 0.999357 0.999564 0.998937 0.999226 0.999301 0.999394 0.999126 0.999182 0.999804 0.998665 0.999683
          0.998799 0.999531 0.999492 0.999003 0.998963 0.998545 0.999912 0.998566 0.998671 0.999801 0.999894 0.999629
          0.999549 0.998957 0.998866 0.99924 0.998753 0.999728 0.999082 0.99943 0.999046 0.999461 0.999176 0.999346
          0.999746 0.998729 0.998494 0.999958 0.999311 0.9999 0.998554 0.999902 0.998497 0.999954 0.998555 0.999799
          0.998679 0.998506 0.999947 0.999364 0.999343 0.999547 0.998898 0.999384 0.998554 0.999904 0.999192 0.99944
          0.99908 0.999954 0.998498 0.999127 0.999254 0.999259 0.999307 0.999325 0.998661 0.99981 0.999427 0.999307
          0.999741 0.998737 0.999435 0.999083 0.999052 0.999473 0.999906 0.99855 0.999159 0.999139 0.999959 0.998496
          0.999473 0.999038 0.999073 0.999287 0.999289 0.999247 0.999241 0.999133 0.999586 0.998911 0.998693 0.999781
          0.999752 0.999909 0.998551 0.999024 0.999195 0.998726 0.999764 0.998776 0.999705 0.999819 0.999317 0.999201
          0.998637 0.999828 0.999172 0.999333 0.99932 0.999687 0.998819 0.998793 0.999909 0.999819 0.998547 0.998647
          0.999333 0.999202 0.998695 0.999611 0.999525 0.998653 0.998539 0.999917 0.998972 0.999774 0.998698 0.99927
          0.999053 0.998636 0.999831 0.999242 0.999296 0.999466 0.999032 0.999186 0.998494 0.999958 0.999739 0.998742
          0.999021 0.999477 0.999088 0.999259 0.999262 0.999412 0.99966 0.99963 0.999387 0.999781 0.999798 0.998673
          0.998692 0.99912 0.999434 0.999069 0.999196 0.999318 0.999151 0.999365 0.99919 0.999255 0.999377 0.99865
          0.999822 0.999153 0.999372 0.999254 0.999127 0.99897 0.999531 0.999321 0.999182 0.999204 0.999334 0.999393
          0.998486 0.999964 0.999762 0.998712 0.99912 0.9991 0.999056 0.999038 0.99947 0.999459 0.999402 0.998653
          0.999815 0.998754 0.998833 0.999655 0.999726 0.999198 0.999335 0.999242 0.998792 0.999689
        </DataArray>
        <DataArray type="Float32" Name="X^N2_liq" NumberOfComponents="1" format="ascii">
          0.000730637 0.00103659 0.00113837 0.000373056 0.000463589 0.00114464 0.000366633 0.000106471 0.00143406 4.34345e-05 0.00150518 0.00112344
          0.000388289 0.00115983 0.000355037 0.00106276 0.000441159 0.000238424 0.00127488 0.000958778 0.00033896 0.000412601 0.00109226 0.00116642
          0.000535189 0.000371694 0.00113381 0.00144032 0.00149827 4.98382e-05 0.000101694 0.000568858 0.00104878 0.000502292 0.00106375 0.000446162
          0.000313845 0.0012038 0.000366817 0.00114612 0.00106042 0.000753815 0.00071081 0.000498375 0.001005 0.00044778 0.000562074 0.000937538
          0.000663508 0.000799411 0.000702008 0.000760191 0.000778277 0.000714783 0.00105924 0.000380743 0.00113191 5.37892e-05 0.0014987 0.000366419
          0.00113985 0.000642683 0.000435508 0.00106344 0.00077362 0.000698978 0.000606124 0.000873541 0.000818456 0.000196391 0.00133484 0.00031724
          0.00120073 0.000468986 0.000508203 0.000996612 0.00103672 0.0014555 8.79564e-05 0.00143411 0.00132884 0.000198993 0.000106084 0.000370827
          0.000450523 0.00104276 0.00113362 0.000760009 0.00124662 0.000272132 0.000918255 0.000569988 0.00095411 0.000539227 0.000823817 0.000653707
          0.000253711 0.00127142 0.00150635 4.2504e-05 0.00068853 9.9973e-05 0.00144578 9.74887e-05 0.00150292 4.57299e-05 0.00144514 0.000200481
          0.00132065 0.001494 5.31736e-05 0.000636338 0.000657106 0.000452489 0.00110207 0.000616106 0.00144559 9.58603e-05 0.000807758 0.000559838
          0.000920094 4.58999e-05 0.00150148 0.000872902 0.000745906 0.000741354 0.000693187 0.000675436 0.00133852 0.000190237 0.000573436 0.00069274
          0.000258572 0.0012629 0.000565154 0.000916893 0.000948041 0.000527013 9.39104e-05 0.00144954 0.000841272 0.000860659 4.09222e-05 0.00150442
          0.000526884 0.000961639 0.000926622 0.000712702 0.000711083 0.000753409 0.000759069 0.000866605 0.000414193 0.00108898 0.00130722 0.00021947
          0.00024838 9.05719e-05 0.00144891 0.000975898 0.000805185 0.00127352 0.000235697 0.00122421 0.000294654 0.000181276 0.00068336 0.000799384
          0.0013626 0.000172257 0.000828102 0.000667202 0.000679527 0.000313184 0.00118136 0.00120748 9.08656e-05 0.000181169 0.00145257 0.00135274
          0.000667302 0.000798087 0.00130464 0.000389218 0.000474736 0.00134716 0.0014608 8.31409e-05 0.00102772 0.000225603 0.00130206 0.000730373
          0.000947495 0.00136444 0.000169311 0.000758204 0.000703813 0.000533787 0.000968072 0.00081402 0.00150643 4.20883e-05 0.000261087 0.0012578
          0.00097867 0.000522616 0.000912262 0.000740571 0.000737639 0.000587623 0.000339692 0.000369696 0.000613438 0.000219248 0.000201772 0.0013272
          0.00130833 0.000879644 0.000565897 0.000931258 0.000803533 0.000681572 0.000849241 0.000635002 0.000810054 0.000745379 0.000622603 0.00135021
          0.000177536 0.000846834 0.000628248 0.00074605 0.000873161 0.00103023 0.000468568 0.000679478 0.000818065 0.000795703 0.000665829 0.000607519
          0.0015142 3.64564e-05 0.000238387 0.00128798 0.000879572 0.000899849 0.000944316 0.000962437 0.000530447 0.000541417 0.000597923 0.00134719
          0.000184969 0.00124586 0.00116728 0.000344491 0.000273812 0.000801808 0.000665471 0.000758343 0.0012078 0.00031111
        </DataArray>
        <DataArray type="Float32" Name="process rank" NumberOfComponents="1" format="ascii">
          0 0 0 0 0 0 0 0 0 0 0 0
          0 0 0 0 0 0 0 0 0 0 0 0
          0 0 0 0 0 0 0 0 0 0 0 0
          0 0 0 0 0 0 0 0 0 0 0 0
          0 0 0 0 0 0 0 0 0 0 0 0
          0 0 0 0 0 0 0 0 0 0 0 0
          0 0 0 0 0 0 0 0 0 0 0 0
          0 0 0 0 0 0 0 0 0 0 0 0
          0 0 0 0 0 0 0 0 0 0 0 0
          0 0 0 0 0 0 0 0 0 0 0 0
          0 0 0 0 0 0 0 0 0 0 0 0
          0 0 0 0 0 0 0 0 0 0 0 0
          0 0 0 0 0 0 0 0 0 0 0 0
          0 0 0 0 0 0 0 0 0 0 0 0
          0 0 0 0 0 0 0 0 0 0 0 0
          0 0 0 0 0 0 0 0 0 0 0 0
          0 0 0 0 0 0 0 0 0 0 0 0
          0 0 0 0 0 0 0 0 0 0 0 0
          0 0 0 0 0 0 0 0 0 0 0 0
          0 0 0 0 0 0 0 0 0 0 0 0
          0 0 0 0 0 0 0 0 0 0 0 0
          0 0 0 0 0 0 0 0 0 0
        </DataArray>
      </CellData>
      <Points>
        <DataArray type="Float32" Name="Coordinates" NumberOfComponents="3" format="ascii">
          0.5 0.318198 0.318198 0.5 0.388909 0.388909 0.41489 0.353553 0.353553 0.851541 0.21008 0.21008
          0.762921 0.24355 0.24355 0.765756 0.171579 0.171579 0.842445 0.117364 0.117364 0.840319 0.49562 0.49562
          0.83816 0.591432 0.591432 0.766276 0.534981 0.534981 0.741604 0.470053 0.470053 0.247724 0.175192 0.175192
          0.133223 0.186216 0.186216 0.21306 0.125326 0.125326 0.133413 0.520543 0.520543 0.247724 0.531914 0.531914
          0.21306 0.581781 0.581781 0.280022 0.627723 0.627723 0.3 0.707107 0.707107 0.189684 0.651462 0.651462
          0.3 0 0 0.280022 0.0793835 0.0793835 0.189684 0.0556452 0.0556452 0.2 0.707107 0.707107
          0.2 0 0 0 0.212132 0.212132 0.0789207 0.134524 0.134524 0 0.494975 0.494975
          0.0789207 0.572582 0.572582 0 0.141421 0.141421 0 0.565685 0.565685 0.220522 0.229988 0.229988
          0.220522 0.477119 0.477119 0.55177 0.605829 0.605829 0.666606 0.585501 0.585501 0.635714 0.652413 0.652413
          0.673602 0.134549 0.134549 0.552036 0.0986127 0.0986127 0.635171 0.0553873 0.0553873 0.810741 0.283824 0.283824
          0.596528 0.540637 0.540637 0.5 0.53033 0.53033 0.5 0.176777 0.176777 0.586166 0.161289 0.161289
          0.810449 0.424264 0.424264 0.457054 0.582278 0.582278 0.457054 0.124829 0.124829 1 0 0
          1 0.0707107 0.0707107 0.905041 0.0671459 0.0671459 0.9 0 0 1 0.707107 0.707107
          0.9 0.707107 0.707107 0.905041 0.639961 0.639961 1 0.636396 0.636396 0.638121 0.482528 0.482528
          0.681023 0.424913 0.424913 0.629004 0.216182 0.216182 0.702355 0.205098 0.205098 0.689411 0.526988 0.526988
          1 0.494975 0.494975 0.926383 0.536017 0.536017 0.931146 0.472652 0.472652 0.137815 0.598509 0.598509
          0.137815 0.108598 0.108598 0.929003 0.170823 0.170823 1 0.212132 0.212132 0.932247 0.235187 0.235187
          0.420919 0.28659 0.28659 0.420919 0.420516 0.420516 0.155689 0.44147 0.44147 0.153556 0.261748 0.261748
          0.88901 0.42163 0.42163 0.888391 0.282581 0.282581 0.5 0.459619 0.459619 0.587775 0.422632 0.422632
          0.564485 0.487149 0.487149 0.586344 0.282961 0.282961 0.5 0.247487 0.247487 0.555247 0.213383 0.213383
          0.118815 0.354159 0.354159 0 0.353553 0.353553 0.0768113 0.306716 0.306716 0.0760434 0.401172 0.401172
          1 0.565685 0.565685 1 0.141421 0.141421 0.8 0.707107 0.707107 0.7 0.707107 0.707107
          0.745909 0.639104 0.639104 0.7 0 0 0.8 0 0 0.735386 0.0618858 0.0618858
          0.388411 0.523725 0.523725 0.374695 0.597419 0.597419 0.301224 0.564494 0.564494 0.374695 0.109688 0.109688
          0.388411 0.183382 0.183382 0.301219 0.142608 0.142608 1 0.424264 0.424264 0.925954 0.369644 0.369644
          0.307335 0.496978 0.496978 0.3073 0.210087 0.210087 0.329528 0.319561 0.319561 0.336733 0.386842 0.386842
          0.844207 0.350238 0.350238 0.939543 0.32106 0.32106 0.0844034 0.645527 0.645527 0 0.636396 0.636396
          0 0.0707107 0.0707107 0.0844034 0.0615797 0.0615797 0.073029 0.456485 0.456485 0.072718 0.249931 0.249931
          0.1 0 0 0.1 0.707107 0.707107 0.358506 0.0500397 0.0500397 0.358501 0.657013 0.657013
          0.346836 0.260363 0.260363 0.255514 0.278695 0.278695 0.256322 0.427466 0.427466 0.346836 0.446744 0.446744
          1 0.353553 0.353553 0 0.707107 0.707107 0 0 0 0.4 0 0
          0.5 0 0 0.454826 0.0601345 0.0601345 0.5 0.707107 0.707107 0.4 0.707107 0.707107
          0.454788 0.646592 0.646592 0.183947 0.385754 0.385754 0.663489 0.353209 0.353209 0.682073 0.269585 0.269585
          0.430654 0.47588 0.47588 0.430654 0.231227 0.231227 0.6 0.707107 0.707107 0.6 0 0
          0.748538 0.389912 0.389912 0.748325 0.31651 0.31651 0.828246 0.65322 0.65322 0.824849 0.0581971 0.0581971
          0.182055 0.319846 0.319846 1 0.282843 0.282843 0.567522 0.353182 0.353182 0.935298 0.113493 0.113493
          0.933917 0.593898 0.593898 0.743946 0.585061 0.585061 0.766672 0.117116 0.117116 0.549187 0.040108 0.040108
          0.548896 0.66553 0.66553 0 0.282843 0.282843 0 0.424264 0.424264 0.251903 0.353212 0.353212
        </DataArray>
      </Points>
      <Cells>
        <DataArray type="Int32" Name="connectivity" NumberOfComponents="1" format="ascii">
          0 1 2 3 4 5 6 3 5 7 8 9
          10 7 9 11 12 13 14 15 16 17 18 19
          20 21 22 18 23 19 24 20 22 12 25 26
          27 14 28 25 29 26 30 27 28 12 11 31
          15 14 32 33 34 35 36 37 38 4 3 39
          34 33 40 33 41 40 42 37 43 37 36 43
          7 10 44 41 33 45 37 42 46 47 48 49
          50 47 49 51 52 53 54 51 53 10 55 56
          57 36 58 55 10 59 36 57 43 60 61 62
          63 14 16 12 64 13 8 7 61 3 6 65
          65 66 67 0 2 68 2 1 69 14 70 32
          71 12 31 61 7 62 72 7 44 3 73 39
          74 75 76 77 78 79 74 1 75 0 78 77
          80 81 82 81 80 83 3 65 67 60 84 61
          85 66 65 86 87 88 89 90 91 92 93 94
          95 96 97 98 72 99 100 92 94 96 101 97
          68 2 102 2 69 103 75 55 76 57 77 79
          104 73 105 106 107 28 108 109 26 14 63 28
          64 12 26 14 27 110 70 14 110 12 71 111
          25 12 111 109 112 22 113 106 19 21 20 114
          95 21 114 17 93 115 18 17 115 93 92 45
          92 41 45 42 96 46 96 95 46 99 104 105
          21 95 97 93 17 94 116 117 101 118 119 100
          117 31 101 32 118 100 116 68 102 69 119 103
          107 30 28 29 108 26 112 24 22 23 113 19