<?xml version="1.0"?>
<VTKFile type="UnstructuredGrid" version="0.1" byte_order="LittleEndian">
  <UnstructuredGrid>
    <Piece NumberOfCells="4000" NumberOfPoints="4851">
      <CellData Scalars="p">
        <DataArray type="Float32" Name="p" NumberOfComponents="1" format="ascii">
          199359 199321 199233 199071 198622 196946 195352 194089 192999 191972 190856 189423
          187300 183935 178847 173500 168760 165032 162490 161207 199398 199371 199300 199148
          198266 196818 195575 194529 193641 192846 191989 190832 188854 185448 180225 174501
          169455 165517 162848 161505 199453 199440 199403 198995 197969 196972 196083 195347
          194768 194301 193710 192667 190765 187494 182430 176290 170766 166459 163554 162097
          199500 199514 199365 198718 198014 197364 196802 196371 196033 195677 195172 194335
          192879 190086 184913 178653 172617 167838 164606 162988 199510 199502 199127 198647
          198233 197872 197555 197251 196945 196609 196200 195698 195127 193731 187548 181212
          174970 169681 166033 164202 199459 199238 198876 198652 198481 198296 198069 197792
          197477 197146 196838 196623 196186 193299 188099 183324 178190 172189 167929 165794
          199080 198697 198584 198588 198576 198497 198324 198057 197733 197430 197241 196938
          194869 191505 188355 185702 183506 175845 170452 167850 198054 197951 198067 198289
          198447 198483 198377 198140 197845 197611 197304 195554 192760 190475 188759 188322
          186736 180941 173733 170445 196658 196803 197169 197673 198080 198283 198282 198128
          197931 197640 196053 193481 191411 189932 189563 189865 188555 185216 177768 173604
          195178 195455 196005 196754 197473 197907 198078 198083 197908 196517 194152 192172
          190620 189858 190575 190385 189469 187583 182949 177301 193829 194166 194831 195758
          196770 197508 197914 197976 196821 194703 192904 191393 190362 190588 190868 190520
          189881 188812 186414 181053 192560 192899 193599 194658 195961 197116 197683 196752
          194859 193313 191997 190979 190702 191177 190864 190441 189800 188753 186825 183350
          191319 191585 192181 193242 194889 196538 196011 194282 193022 192004 191197 190825
          191490 191239 190566 189712 188386 186155 182194 178268 190112 190232 190535 191181
          192628 193672 192365 191561 190959 190504 190338 191009 191314 190479 189123 187060
          183393 178725 175602 173714 188990 188938 188862 188812 188840 188701 188320 188327
          188384 188571 189306 190431 189712 187817 184482 179771 176135 173288 171307 170219
          188007 187799 187387 186772 185956 184970 184172 184456 185088 186051 187927 187630
          185072 180673 176852 173824 171428 169567 168258 167555 187196 186864 186188 185138
          183678 181821 179919 179662 180748 182966 183602 180515 176926 174099 171722 169763
          168173 166923 166030 165543 186570 186149 185284 183920 181971 179361 176316 174987
          175589 176791 174961 173146 171285 169639 168200 166964 165919 165073 164448 164089
          186141 185663 184677 183106 180806 177499 172543 170205 169939 170109 169651 168805
          167798 166838 165957 165168 164473 163888 163433 163149 185920 185416 184372 182702
          180238 176645 171179 168136 167177 166816 166474 166081 165639 165224 164777 164301
          163794 163334 162962 162707 199356 199321 199245 198698 197343 195919 194484 193134
          191895 190746 189583 188301 186809 184266 177097 170988 166095 162419 159965 158737
          199417 199412 199224 198399 197300 196060 194823 193690 192740 192034 191538 191450
          190526 187452 179717 172213 166760 162819 160231 158945 199485 199463 199016 198279
          197387 196429 195512 194781 194376 194621 194819 194270 192589 189440 183679 174427
          168020 163587 160748 159355 199534 199334 198852 198288 197661 197044 196544 196449
          196612 196604 196372 195777 194757 191124 186376 177999 169868 164693 161500 159957
          199402 199088 198763 198422 198107 197932 197910 197787 197587 197337 196954 196488
          194939 191537 187680 181761 172130 166076 162465 160748 199034 198850 198720 198681
          198741 198713 198553 198280 197936 197502 197062 195789 193427 190970 187893 183475
          175066 167675 163625 161736 198631 198545 198754 198977 199034 198978 198785 198429
          197925 197413 196269 194073 192081 189975 187352 183228 175241 168928 164910 162939
          198168 198233 198502 198881 199011 198993 198812 198380 197792 196636 194539 192648
          190778 188827 186134 180907 174943 170219 166429 164429 196432 196771 197366 198299
          198772 198879 198693 198244 197174 195205 193359 191501 189614 187467 183920 178429
          174725 171456 168212 166256 194544 194934 195711 196922 198067 198353 198276 197569
          195947 194267 192524 190675 188555 185679 180527 176960 174625 172524 170227 168390
          193177 193619 194512 195788 197361 198020 197642 196361 195017 193525 191921 190074
          187464 182791 178250 176062 174670 173416 171964 170466 191988 192408 193332 194766
          196608 197189 196277 195245 194090 192830 191363 189416 185887 179931 176943 175830
          175009 174061 172858 171671 190852 191129 191810 193338 194887 194744 194604 193887
          192996 191973 190612 188373 183668 179471 177235 176076 174953 173611 172063 170831
          189789 189857 190043 190407 190779 190975 192088 192041 191532 190726 189300 186044
          181912 179057 176992 175286 173495 171629 170081 169111 188854 188733 188510 188179
          187685 187141 187877 189247 189310 188631 186607 182442 179594 177220 175003 172842
          170919 169253 167969 167218 188066 187801 187271 186450 185276 183770 182643 185351
          186203 185310 181625 178430 176050 173777 171711 169888 168323 167020 166027 165438
          187423 187055 186309 185133 183405 180816 176329 177381 180262 178967 175806 173748
          171823 170094 168552 167215 166074 165127 164387 163909 186921 186486 185599 184200
          182153 179109 173904 172135 174068 171213 169516 168482 167585 166725 165886 165099
          164349 163689 163143 162727 186559 186086 185121 183607 181447 178498 174641 171867
          170505 168856 167539 166532 165651 164856 164153 163568 163102 162696 162317 161928
          186364 185874 184873 183310 181117 178238 174839 172176 170442 169018 167777 166574
          165445 164468 163661 163077 162660 162333 162042 161619 199312 199238 198581 197524
          196224 194687 192957 191135 189331 187527 185439 182588 178995 174753 169596 164662
          160486 157275 155110 154022 199434 199156 198437 197517 196347 194942 193362 191732
          190220 188864 187310 184638 180541 175830 170434 165176 160776 157428 155186 154063
          199372 198945 198370 197601 196620 195439 194116 192806 191751 191053 190232 188828
          182800 176975 171555 165992 161273 157697 155319 154134 199088 198790 198348 197764
          197020 196117 195100 194119 193399 192872 192605 190235 183277 177348 172236 166865
          161855 158021 155481 154220 198807 198631 198349 197963 197469 196854 196104 195262
          194469 193930 192044 186560 181170 176542 172161 167420 162346 158315 155634 154305
          198600 198479 198305 198084 197835 197485 196888 195941 195020 192980 187817 182852
          178693 175003 171334 167246 162553 158481 155746 154388 197633 197828 198018 198154
          198163 197967 197356 196239 194004 188844 183735 179531 176050 172977 169852 166237
          162027 158368 155805 154500 195474 195724 196339 197066 197638 197854 197480 195585
          190359 184880 180263 176457 173308 170625 167849 164540 161089 158122 155919 154758
          193771 194118 194845 195771 196453 196705 195912 192499 187516 182692 178484 174658
          171184 168310 165499 162574 160034 157917 156278 155373 192486 192990 194029 195224
          196090 195644 192837 189431 185719 181629 177795 173872 169539 165888 162854 160720
          159184 158046 157221 156701 191554 192206 193563 195178 195434 193069 190182 187453
          184521 181144 177715 173956 169074 163718 160439 159320 158786 158713 158905 158899
          190676 191235 192803 194470 192823 190426 187958 185700 183376 180682 177709 174240
          169169 160056 157594 160014 161036 161477 161505 161331 189837 190030 190496 190958
          189853 187918 185446 183524 181792 179823 177452 174507 170482 164563 163057 164005
          164049 163782 163296 162846 189162 189064 188910 188522 187414 185413 182514 180784
          179538 178227 176510 174185 171392 168624 167026 166233 165460 164652 163859 163261
          188680 188391 187867 187018 185540 182855 177208 175698 175347 175005 174122 172523
          170648 168889 167469 166340 165334 164396 163536 162867 188308 187921 187181 186038
          184271 181326 175489 173368 172448 171522 170264 169005 167927 166934 165984 165112
          164266 163456 162695 162008 188008 187564 186706 185391 183512 180826 177096 174578
          172925 171035 169139 167682 166428 165305 164291 163490 162855 162298 161713 160989
          187735 187263 186354 184964 183042 180521 177467 175117 173513 171495 169625 167944
          166331 164788 163446 162513 161889 161429 160984 160112 187455 186985 186062 184650
          182737 180364 177664 175218 173181 171218 169426 167820 166209 164478 162772 161472
          160629 160153 159826 159173 187270 186797 185862 184442 182550 180236 177662 175244
          173122 171190 169421 167799 166143 164288 162416 160959 159928 159234 158750 158362
          198944 198494 197792 196741 195285 193357 190941 188176 185377 182666 179565 174828
          169781 164984 160441 156351 152913 150256 148454 147544 198895 198497 197845 196881
          195530 193718 191431 188843 186455 184668 183189 176709 170401 165172 160491 156323
          152829 150131 148301 147379 198806 198500 197953 197136 195969 194383 192345 190063
          188381 188256 187112 179016 170805 165082 160342 156147 152602 149851 147982 147040
          198741 198478 198035 197431 196550 195280 193564 191644 190788 189760 183854 175965
          169401 164137 159683 155664 152149 149374 147474 146514 198373 198326 198166 197792
          197148 196151 194784 193391 191672 185914 178575 172188 166791 162305 158382 154734
          151378 148647 146752 145790 196555 196783 197022 197176 197145 196880 196264 194111
          188293 180583 173755 168052 163487 159761 156451 153270 150217 147631 145803 144870
          194279 194349 194499 194722 195158 195767 195410 191137 183285 175652 168836 163472
          159532 156573 153933 151252 148598 146302 144644 143798 191678 191722 192066 192685
          193720 194180 191097 185397 178042 169001 162073 157249 154147 152506 150936 148816
          146656 144772 143397 142714 189915 190127 190951 192458 193520 191217 186873 182130
          175977 167456 161308 155680 151067 149226 147720 145939 144360 143112 142285 141963
          189087 189670 191557 193257 191459 187694 184021 180064 175148 167689 162256 156349
          147613 144741 143416 142838 142419 142239 142581 142838 188831 189986 192667 191608
          188506 185317 181803 178508 174638 168808 163908 159281 150548 143730 139926 138390
          138040 140318 144724 146956 188427 188854 190193 188889 186626 183564 179761 176919
          173929 169588 165224 161593 156954 150916 146827 145029 146782 150255 151728 152155
          188263 188129 188060 187190 185290 181927 176087 173744 172009 169451 166261 163251
          160886 158838 156961 156099 156138 156536 156394 155873 188388 187898 187294 186308
          184558 181334 175091 172437 170668 168903 166927 165151 163420 162296 161307 160463
          159878 159415 158713 157745 188783 188100 187175 186024 184333 181593 177545 174450
          171997 169795 167558 165996 164610 163496 162495 161730 161113 160483 159613 158197
          189045 188416 187389 186081 184310 181795 178536 175875 173634 171402 168959 167169
          165573 163832 162295 161327 160687 160156 159470 157752 189242 188634 187621 186190
          184425 182166 179477 176872 174488 172195 169963 168187 166544 164185 161512 159826
          158780 158207 157732 156521 189295 188688 187769 186380 184606 182534 180199 177620
          175042 172698 170512 168682 166746 164041 160809 158689 157252 156289 155594 154980
          188937 188454 187620 186312 184559 182700 180598 178046 175312 172924 170719 168956
          166869 163874 160258 157832 156160 155044 154324 153868 188626 188149 187294 185989
          184350 182442 180238 177890 175412 173066 170829 169044 167047 163840 159968 157374
          155575 154369 153626 153234 198485 198139 197464 196370 194703 192224 188705 184230
          179596 175290 170580 164617 159205 154529 150496 147065 144253 142099 140640 139903
          198548 198233 197651 196675 195125 192765 189306 184777 180428 177510 173626 164995
          158916 154090 150055 146649 143858 141715 140260 139524 198680 198473 198000 197152
          195754 193667 190480 185818 181828 179081 170998 163746 157744 152989 149074 145770
          143045 140936 139494 138765 197877 197914 197806 197426 196660 195179 192350 187244
          182635 174594 167279 160757 155381 151048 147452 144373 141784 139746 138335 137618
          196234 196143 195962 195780 195423 194668 192976 188150 179046 170432 162902 156826
          152071 148304 145161 142421 140047 138126 136769 136080 194219 194090 193844 193440
          192781 191747 190019 184015 175630 166180 158093 152170 147988 144874 142281 139963
          137862 136086 134788 134134 191325 191041 190730 190298 189775 189190 185516 179917
          172596 163873 154553 147750 143719 141047 138822 136880 135117 133552 132352 131790
          186506 185640 185304 184830 184476 182337 179248 173932 168744 161885 150090 140760
          137790 136669 135224 133846 132346 130828 129582 129082 184263 183400 183302 183447
          181346 179229 176316 172085 167653 162706 154434 142171 136788 134725 132072 129337
          127619 126416 125303 125512 183886 183107 183436 182490 180381 177807 174658 171396
          168056 164355 158791 151424 144671 140133 136354 133204 129642 127252 125189 124311
          184533 183908 183515 182287 180037 177100 172807 170515 168129 165766 162194 157651
          152782 148754 145627 143198 140883 138396 136295 136809 185138 184284 184070 183212
          180826 177896 173304 170851 168482 166613 164233 161591 158802 155869 153192 150977
          149468 148515 147243 145960 186450 185353 184736 183753 182065 179011 175686 173346
          170497 168005 165567 163291 161354 159693 158326 157267 156439 155449 153752 150972
          187956 186232 185263 184357 183211 180641 177269 175034 172605 169788 167236 164604
          162275 160526 159320 158522 157992 157380 156200 152934 190161 188012 186318 185341
          184447 182464 179497 177112 174462 171178 168354 165496 162846 160549 158636 157138
          156097 155482 154754 152636 190863 189683 188010 186766 185298 183160 180728 178394
          176031 172882 169404 166199 163189 160395 157930 155937 154414 153278 152307 151291
          191655 190594 189317 187388 186009 184181 182070 179211 176377 173710 170323 166704
          163345 160085 157065 154598 152714 151359 150399 149713 191220 190323 189360 187831
          186600 184468 182667 179992 176648 174090 170876 166951 163266 159632 156194 153361
          151196 149677 148723 148215 190478 189849 189036 187745 186359 184617 182685 180252
          177171 174471 171286 167076 163133 159216 155479 152385 150031 148426 147517 147102
          190240 189616 188923 187550 186245 184705 182478 180497 177653 174992 171677 167169
          163062 158979 155072 151835 149378 147726 146865 146502 198471 198149 197500 196415
          194734 191871 187021 179678 172005 165078 158794 152952 147931 143755 140301 137461
          135184 133458 132291 131703 198257 198158 197822 197094 195663 192965 187959 179658
          171280 164214 157887 151834 146849 142806 139484 136739 134527 132841 131695 131117
          197047 196984 196809 196371 195509 193716 189830 179922 169535 161801 154993 149239
          144600 140892 137850 135301 133223 131619 130512 129953 196002 195799 195318 194432
          192970 190794 186957 177961 166559 157387 150491 145230 141210 138064 135455 133188
          131301 129808 128744 128214 194820 194538 193929 192889 191199 188473 183882 175977
          164915 153399 145633 140537 137015 134399 132234 130325 128708 127381 126391 125927
          193457 193137 192469 191351 189573 186762 182232 174871 164032 146612 137062 133202
          131108 129790 128588 127294 125874 124566 123479 122997 191819 191454 190765 189651
          187923 185224 180821 174341 165375 152525 137782 131711 128375 125680 123492 122148
          121368 120525 119589 119474 190006 189561 188867 187774 186066 183332 179331 173791
          166833 158093 147836 139547 134027 129894 125931 123146 121118 119098 116959 116014
          189061 188609 187956 186902 185017 182337 178647 173938 168352 161865 154469 147231
          141944 138075 134689 131660 128426 125083 121753 119674 189095 188647 188008 186822
          184900 182182 178395 174272 169739 164862 159633 154361 149942 146424 143430 140652
          137391 134392 131496 129222 189919 189431 188659 187406 185519 182919 179471 175555
          171252 167084 163248 159735 156965 154727 152902 151291 149489 147026 143149 138248
          191114 190573 189795 188641 186884 184460 181266 177771 173749 169480 165402 161718
          158736 156548 155045 154069 153346 152249 149711 144228 193225 192424 191363 190129
          188637 186499 183759 180528 176338 171528 167129 163243 159923 157173 154958 153229
          151952 151084 149662 146491 194316 193942 193389 192628 191368 189323 186563 183241
          178835 173333 168535 164323 160638 157487 154860 152720 151012 149599 148155 146549
          194377 193976 193682 193363 192578 191431 190022 187588 182371 174895 169536 164965
          160888 157280 154159 151548 149447 147803 146466 145392 194141 193465 192760 192038
          190950 190199 189247 187511 183124 175632 170110 165237 160762 156687 153081 150025
          147562 145693 144376 143607 193487 192973 192224 191171 189973 188652 186906 184262
          180407 175434 170308 165215 160356 155830 151762 148300 145537 143526 142275 141708
          193262 192818 192103 191094 189897 188346 186390 183664 179995 175526 170412 165031
          159793 154860 150392 146583 143581 141507 140421 140056 193250 192875 192231 191299
          190133 188627 186674 184039 180469 175938 170556 164833 159259 153996 149210 145120
          141933 139863 139073 138884 193462 193113 192522 191633 190530 189109 187203 184713
          181207 176444 170717 164721 158932 153472 148494 144215 140903 138751 138306 138267
          196684 196792 196697 196248 195158 192913 187767 175671 164380 155210 147735 141754
          137027 133335 130426 128104 126279 124904 123970 123499 195951 195727 195171 194248
          192972 190796 186271 174071 161678 152182 144827 139311 135136 131901 129285 127115
          125389 124072 123160 122706 195251 194906 194140 192811 190657 187009 180452 168388
          155021 146202 139851 135203 131786 129184 127048 125146 123627 122447 121582 121171
          194659 194233 193306 191715 189153 185021 178036 165446 144920 135956 131704 128830
          126928 125550 124214 122581 121248 120161 119237 118834 194129 193668 192678 191006
          188363 184241 177743 167367 150685 136518 129990 125917 123215 121265 119571 118036
          117291 116717 116066 116057 193627 193163 192182 190550 188019 184193 178493 170260
          159250 147459 138010 131359 126643 123303 120597 118159 116324 114615 112751 112033
          193158 192703 191766 190239 187914 184469 179495 172684 164044 154277 145034 138198
          133165 129279 126080 123190 120495 117907 115103 113579 192846 192398 191514 190107
          187994 184905 180563 174775 167607 159481 151344 144419 138957 134600 130952 127914
          125325 122994 120921 119732 193037 192584 191730 190416 188478 185713 181891 176869
          170669 163650 156553 150105 144760 140409 136773 133724 131139 128790 126621 125146
          193771 193319 192497 191267 189509 187019 183569 179071 173474 167127 160845 155085
          150145 146023 142586 139792 137937 136172 133851 131393 195487 194838 193797 192496
          190952 188808 185815 181757 176356 170073 164201 158975 154497 150724 147577 144998
          143030 141802 140004 136788 196506 196124 195434 194615 193378 191445 188608 184673
          179259 172587 166625 161437 156985 153226 150100 147540 145465 143699 141786 139739
          196372 196064 195670 195276 194686 193705 192111 189275 183295 174787 168392 163008
          158337 154297 150852 147967 145600 143662 141939 140502 196636 195941 195261 194917
          194485 193652 192531 190542 185156 176161 169551 163904 158888 154448 150578 147280
          144548 142353 140649 139549 196091 195480 195014 194572 193885 192525 190966 188531
          183810 176590 170156 164237 158788 153852 149478 145709 142583 140133 138394 137455
          195550 195167 194646 193991 193073 191808 190048 187314 182888 176768 170392 164109
          158149 152661 147749 143501 140002 137336 135605 134900 195422 195113 194590 193852
          192862 191523 189617 186771 182581 176945 170384 163616 157091 151033 145592 140896
          137074 134277 132697 132429 195668 195402 194917 194213 193258 191940 190064 187293
          183208 177467 170301 162910 155800 149199 143267 138147 134033 131207 130200 130578
          196259 196035 195623 195017 194185 193024 191345 188820 184859 178591 170331 162221
          154572 147499 141127 135571 131128 128465 128780 129507 197561 197359 197039 196572
          195930 195024 193668 191568 187875 180194 170431 161773 153780 146392 139704 133669
          129005 125375 127914 129007 194120 193684 192696 190999 188359 184482 179105 168771
          157665 147423 138886 132411 127463 123933 121415 119518 118061 116962 116190 115800
          193944 193431 192319 190465 187625 183321 176677 166102 153730 141416 132124 127293
          124232 122037 120098 118328 116970 115911 115111 114744 193827 193257 192040 190011
          186869 182035 174365 161205 144093 133416 127000 122785 120056 118176 116815 115326
          114468 113816 113141 113001 193881 193283 192014 189910 186677 181817 174555 163983
          150980 140187 132089 126176 122048 119074 116764 114601 113276 112066 110209 109512
          194118 193528 192286 190243 187141 182577 176034 167094 156187 146028 138139 132117
          127562 124029 121033 118132 115776 113773 111652 110399 194472 193926 192785 190923
          188120 184042 178317 170721 161584 152246 144081 137482 132288 128181 124797 121883
          119472 117444 115743 114818 194964 194460 193434 191792 189365 185855 180939 174402
          166393 157734 149643 142831 137305 132831 129140 126026 123400 121196 119430 118462
          195598 195146 194250 192856 190819 187856 183644 177914 170661 162504 154676 147841
          142140 137437 133534 130287 127591 125378 123685 122750 196872 196329 195363 194056
          192372 189962 186465 181474 174666 166642 159052 152361 146680 141926 137957 134660
          131949 129732 128016 127013 197621 197348 196788 195950 194622 192602 189490 184836
          178257 170118 162703 156230 150681 145976 142021 138748 136122 133982 132223 131055
          197556 197399 197034 196502 195783 194704 192966 189698 182804 173098 165600 159278
          153844 149182 145221 141916 139238 137124 135389 134119 197722 197398 196708 196115
          195443 194609 193554 191153 184967 175076 167667 161396 155922 151150 147037 143560
          140695 138401 136616 135469 197837 197433 196472 195763 195123 194077 192738 189875
          184000 176034 169022 162711 157017 151934 147470 143633 140435 137892 136026 134951
          197160 196796 196192 195558 194765 193559 191760 188694 183535 176742 169929 163379
          157260 151679 146693 142341 138672 135760 133704 132612 196902 196600 196130 195519
          194650 193322 191367 188327 183667 177447 170546 163491 156731 150480 144835 139858
          135627 132256 129904 128771 196913 196675 196259 195661 194796 193518 191613 188703
          184337 178303 170915 163048 155455 148415 142044 136431 131682 127929 125420 124960
          197252 197056 196690 196144 195350 194183 192425 189719 185556 179365 170897 161969
          153457 145598 138524 132352 127183 123145 120423 121762 197954 197789 197483 197028
          196360 195362 193832 191402 187409 180692 170368 160322 150916 142283 134583 127867
          122259 117555 116134 120472 198505 198408 198210 197916 197472 196795 195713 193939
          190719 183607 169764 158515 148301 138979 130650 123228 116323 112958 116975 120373
          198200 198104 197900 197567 197057 196269 195003 192893 189020 181000 168570 157090
          146443 136490 127668 118009 112370 113739 118426 120673 192514 191831 190392 188060
          184639 179878 173495 165107 155749 146357 137378 128683 120735 115911 113490 112105
          110988 110148 109500 109144 192648 191947 190474 188095 184602 179698 173041 164420
          154690 144943 135425 126250 120164 116279 113724 111725 110287 108977 107777 107279
          193025 192308 190811 188396 184843 179825 172946 163936 153690 144315 136196 129330
          124126 120238 117043 114245 112113 110318 108576 107680 193751 193039 191561 189190
          185720 180839 174229 165803 156273 147190 139271 132693 127485 123399 120095 117339
          115170 113394 111891 111051 194843 194172 192790 190591 187398 182901 176812 169084
          160227 151401 143539 136926 131547 127206 123646 120666 118250 116309 114793 113957
          195953 195407 194283 192474 189797 185921 180537 173510 165145 156343 148296 141437
          135778 131154 127354 124211 121658 119637 118156 117366 197332 196799 195801 194265
          192179 189149 184784 178681 170606 161426 153083 145981 140084 135225 131219 127918
          125235 123128 121620 120826 198061 197808 197303 196400 194936 192592 188917 183355
          175540 166002 157484 150259 144223 139207 135047 131620 128843 126679 125150 124346
          198050 197928 197608 197102 196316 195073 193053 189231 181205 169988 161276 154058
          147996 142904 138647 135127 132276 130058 128489 127657 198154 197888 197392 196855
          196241 195373 193984 191095 183990 172751 164271 157216 151205 146079 141741 138129
          135202 132925 131302 130420 198411 198061 197319 196861 196269 195215 193608 190269
          183218 174238 166457 159648 153677 148477 144005 140234 137156 134767 133073 132146
          198027 197689 197051 196470 195662 194380 192652 189204 182833 175278 168046 161365
          155302 149890 145144 141076 137714 135100 133286 132329 197717 197415 196838 196141
          195204 193796 191682 188201 182837 176185 169255 162460 156070 150229 145002 140435
          136595 133601 131584 130563 197596 197338 196854 196185 195235 193813 191662 188355
          183537 177357 170350 163046 155999 149456 143506 138194 133612 129977 127558 126320
          197767 197559 197167 196585 195724 194426 192464 189490 185124 179136 171561 163156
          155043 147513 140603 134319 128732 124075 120577 118266 198136 197982 197682 197221
          196525 195471 193859 191372 187530 181633 172788 162551 153024 144297 136297 129027
          122670 117294 112834 113347 198819 198714 198509 198192 197708 196966 195788 193899
          190714 184924 172932 160559 149652 139711 130705 122874 116188 111215 111196 114360
          198773 198696 198522 198238 197793 197088 195960 194133 190985 184887 170117 156984
          144937 133892 124347 116099 110657 110380 113122 115287 198456 198342 198095 197677
          197005 195928 194185 191332 186565 178551 166067 152593 139456 127632 117273 110984
          110240 112104 114324 115923 198268 198139 197858 197376 196593 195334 193296 189969
          184517 175796 163358 148877 135118 120935 112491 110861 111572 112988 115018 116321
          191766 190982 189354 186768 183070 178092 171724 164034 155537 146859 138479 130740
          124084 118856 114686 111736 109325 107505 105737 104843 192071 191282 189647 187054
          183345 178338 171912 164156 155583 146881 138543 130974 124800 120030 116361 113557
          111362 109614 108185 107263 192794 192002 190369 187791 184112 179132 172708 164925
          156330 147778 139832 132838 127080 122503 118859 115942 113639 111814 110408 109624
          194163 193368 191753 189240 185714 180928 174709 167138 158725 150287 142497 135710
          130068 125492 121792 118798 116416 114550 113181 112445 196590 195762 194159 191735
          188571 184215 178370 171047 162713 154129 146222 139370 133643 128944 125104 121976
          119472 117531 116149 115420 197869 197543 196815 195528 193370 189832 184505 177224
          168543 159038 150609 143469 137534 132647 128638 125368 122749 120735 119332 118604
          197965 197855 197543 196921 195881 194194 191524 186817 177370 164598 155186 147663
          141501 136429 132256 128848 126119 124031 122592 121852 198057 197874 197499 196893
          196141 195110 193465 190150 181972 168828 159221 151570 145286 140081 135774 132243
          129414 127255 125775 125017 198331 198126 197809 197203 196398 195479 193819 189990
          181879 171331 162413 154949 148673 143395 138979 135335 132405 130169 128638 127853
          198434 198135 197717 197092 196382 195502 193923 190114 182035 173063 164880 157708