<?xml version="1.0"?>
<VTKFile type="PolyData" version="0.1" byte_order="LittleEndian">
  <PolyData>
    <Piece NumberOfLines="137" NumberOfPoints="90">
      <PointData Scalars="p">
        <DataArray type="Float32" Name="p" NumberOfComponents="1" format="ascii">
          100001 100001 100001 100001 100001 100001 100001 100001 100001 100001 100001 100001
          100001 100001 100001 100001 100001 100000 100000 100001 100001 100000 100001 100001
          100001 100001 100001 100001 100001 100001 100001 100001 100001 100001 100001 100001
          100001 100001 100001 100001 100001 100000 100001 100000 100000 100001 100001 100001
          100001 100001 100001 100001 100001 100001 100001 100001 100001 100000 100000 100000
          100001 100001 100001 100000 100000 100000 100000 100001 100000 100000 100000 100001
          100001 100001 100001 100001 100001 100001 100001 100001 100000 100001 100001 100000
          100000 100000 100000 100000 100000 100000
        </DataArray>
        <DataArray type="Float32" Name="rho" NumberOfComponents="1" format="ascii">
          997.18 997.044 997.166 997.044 997.187 997.044 997.044 997.044 997.296 997.192 997.229 997.044
          997.227 997.599 997.607 997.624 997.247 997.519 997.52 997.608 997.629 997.52 997.407 997.445
          997.502 997.4 997.401 997.511 997.277 997.302 997.209 997.263 997.42 997.34 997.373 997.313
          997.253 997.256 997.255 997.377 997.505 997.554 997.397 997.557 997.77 997.463 997.303 997.288
          997.315 997.324 997.343 997.391 997.318 997.508 997.299 997.38 997.402 997.794 997.711 997.567
          997.383 997.519 997.472 998.002 997.576 997.608 997.763 997.492 997.645 997.849 997.978 997.418
          997.416 997.417 997.417 997.466 997.34 997.392 997.395 997.462 997.667 997.318 997.493 998.191
          998.191 997.775 997.868 997.85 998.191 997.79
        </DataArray>
        <DataArray type="Float32" Name="mu" NumberOfComponents="1" format="ascii">
          0.000901463 0.000890317 0.0009002 0.000890317 0.00090208 0.000890317 0.000890317 0.000890317 0.000912169 0.000902603 0.00090601 0.000890317
          0.000905819 0.000940221 0.000940994 0.000942591 0.000907647 0.000932878 0.000932891 0.000941116 0.000942998 0.000932914 0.000922486 0.000925972
          0.000931277 0.000921861 0.000921912 0.000932115 0.000910475 0.00091274 0.000904164 0.000909128 0.000923648 0.000916273 0.000919304 0.000913807
          0.000908182 0.000908471 0.000908372 0.000919683 0.000931508 0.000936094 0.000921583 0.000936331 0.000956034 0.000927665 0.00091283 0.000911445
          0.000913958 0.00091476 0.000916588 0.000921032 0.000914201 0.000931816 0.000912515 0.00091995 0.000921981 0.000958339 0.000950627 0.000937284
          0.000920251 0.000932794 0.000928503 0.000979266 0.000938159 0.000941045 0.000955467 0.000930317 0.000944518 0.00096337 0.000976268 0.000923493
          0.00092333 0.000923406 0.000923409 0.000927968 0.000916249 0.000921042 0.000921348 0.000927603 0.00094656 0.000914257 0.000930388 0.00100299
          0.00100299 0.00095657 0.000965116 0.000963431 0.00100299 0.000957884
        </DataArray>
        <DataArray type="Float32" Name="x^H2O_liq" NumberOfComponents="1" format="ascii">
          0.9999 0.9999 0.9999 0.9999 0.9999 0.9999 0.9999 0.9999 0.999901 0.999901 0.999902 0.9999
          0.9999 1 1 1 0.999901 0.999931 0.999941 1 1 0.999958 0.999904 0.999922
          0.999933 0.999973 0.999983 0.999958 0.999902 0.999905 0.999902 0.999901 0.999992 0.99992 0.999903 0.999917
          0.999904 0.999903 0.999915 0.999902 0.999909 0.999916 0.999917 0.999924 0.999926 0.999915 0.999905 0.999904
          0.999906 0.999912 0.999925 0.999911 0.999935 0.999903 0.999955 0.999922 0.999908 0.999933 0.999959 0.999957
          0.99993 0.999916 0.999947 0.999933 0.999919 0.999959 0.999937 0.999943 0.999922 0.999945 0.999931 0.999936
          0.999944 0.999955 0.99997 0.999959 0.999907 0.999912 0.999979 0.99992 0.999919 0.999962 0.999971 1
          1 0.999935 0.999998 0.999975 1 0.999997
        </DataArray>
        <DataArray type="Float32" Name="x^N2_liq" NumberOfComponents="1" format="ascii">
          9.97778e-05 0.0001 9.97432e-05 0.0001 9.96457e-05 0.0001 0.0001 9.99996e-05 9.89176e-05 9.94965e-05 9.83748e-05 0.0001
          9.9577e-05 2.00479e-07 8.49669e-08 1.40256e-08 9.90809e-05 6.86564e-05 5.92132e-05 3.75612e-08 4.0594e-09 4.21161e-05 9.58673e-05 7.77635e-05
          6.73608e-05 2.68154e-05 1.67535e-05 4.24506e-05 9.82618e-05 9.50292e-05 9.75689e-05 9.86649e-05 8.42958e-06 7.97109e-05 9.70508e-05 8.30198e-05
          9.63947e-05 9.73182e-05 8.54796e-05 9.82595e-05 9.11151e-05 8.35358e-05 8.29115e-05 7.59642e-05 7.39469e-05 8.4597e-05 9.52359e-05 9.60744e-05
          9.38459e-05 8.77315e-05 7.48676e-05 8.91305e-05 6.50898e-05 9.67286e-05 4.46002e-05 7.81371e-05 9.24004e-05 6.69008e-05 4.14367e-05 4.30634e-05
          7.00969e-05 8.36802e-05 5.34808e-05 6.73929e-05 8.09632e-05 4.05048e-05 6.3025e-05 5.73161e-05 7.80085e-05 5.5057e-05 6.92437e-05 6.42777e-05
          5.57029e-05 4.5354e-05 2.95573e-05 4.10548e-05 9.2757e-05 8.75629e-05 2.06623e-05 7.98951e-05 8.13191e-05 3.78887e-05 2.93263e-05 0
          0 6.49978e-05 2.14092e-06 2.45505e-05 0 2.5964e-06
        </DataArray>
        <DataArray type="Float32" Name="X^H2O_liq" NumberOfComponents="1" format="ascii">
          0.999845 0.999844 0.999845 0.999844 0.999845 0.999844 0.999844 0.999844 0.999846 0.999845 0.999847 0.999844
          0.999845 1 1 1 0.999846 0.999893 0.999908 1 1 0.999934 0.999851 0.999879
          0.999895 0.999958 0.999974 0.999934 0.999847 0.999852 0.999848 0.999847 0.999987 0.999876 0.999849 0.999871
          0.99985 0.999849 0.999867 0.999847 0.999858 0.99987 0.999871 0.999882 0.999885 0.999868 0.999852 0.999851
          0.999854 0.999864 0.999884 0.999861 0.999899 0.99985 0.999931 0.999879 0.999856 0.999896 0.999936 0.999933
          0.999891 0.99987 0.999917 0.999895 0.999874 0.999937 0.999902 0.999911 0.999879 0.999914 0.999892 0.9999
          0.999913 0.999929 0.999954 0.999936 0.999856 0.999864 0.999968 0.999876 0.999874 0.999941 0.999954 1
          1 0.999899 0.999997 0.999962 1 0.999996
        </DataArray>
        <DataArray type="Float32" Name="X^N2_liq" NumberOfComponents="1" format="ascii">
          0.000155145 0.00015549 0.000155091 0.00015549 0.000154939 0.00015549 0.00015549 0.00015549 0.000153807 0.000154707 0.000152963 0.00015549
          0.000154833 3.11743e-07 1.32123e-07 2.18097e-08 0.000154061 0.000106756 9.20728e-05 5.84072e-08 6.31231e-09 6.54886e-05 0.000149065 0.000120916
          0.000104741 4.16971e-05 2.60513e-05 6.60086e-05 0.000152788 0.000147762 0.00015171 0.000153414 1.31078e-05 0.000123944 0.000150905 0.000129089
          0.000149885 0.000151321 0.000132913 0.000152784 0.000141676 0.000129891 0.00012892 0.000118119 0.000114982 0.000131541 0.000148083 0.000149387
          0.000145922 0.000136415 0.000116413 0.00013859 0.00010121 0.000150404 6.93511e-05 0.000121497 0.000143674 0.000104026 6.44321e-05 6.69614e-05
          0.000108996 0.000130116 8.31596e-05 0.000104791 0.000125891 6.29831e-05 9.79997e-05 8.9123e-05 0.000121297 8.56104e-05 0.000107669 9.99475e-05
          8.66148e-05 7.05232e-05 4.59604e-05 6.38383e-05 0.000144229 0.000136153 3.21292e-05 0.000124231 0.000126445 5.89152e-05 4.56014e-05 0
          0 0.000101067 3.3291e-06 3.81752e-05 0 4.03737e-06
        </DataArray>
        <DataArray type="Float32" Name="poreInscribedRadius" NumberOfComponents="1" format="ascii">
          0.00010842 0.0002263 0.00018872 8.6711e-05 0.00014246 0.00017024 0.00014006 5.8137e-05 0.00017043 0.00014712 0.00018289 0.00011213
          8.001e-05 0.00026652 0.00010984 0.00018149 0.0001191 0.00010862 6.7563e-05 0.00013353 8.8091e-05 0.00011873 8.6177e-05 0.00014165
          9.7691e-05 0.00014071 8.5166e-05 0.00010965 8.1041e-05 0.00015832 6.1496e-05 0.00011323 0.00033347 6.7184e-05 0.00010274 0.00016438
          0.00011759 8.0701e-05 0.00015113 0.00013784 9.8161e-05 0.00013 8.1223e-05 0.00014997 0.00013153 0.00020701 0.00010946 8.5023e-05
          7.8721e-05 0.00017262 0.00012575 0.00010082 0.00015856 0.00012022 0.00019603 9.1747e-05 0.0001146 0.00025862 0.00012908 0.00025963
          0.00010958 6.7231e-05 0.00012907 0.00015315 9.4275e-05 0.00019972 7.1623e-05 0.00014025 0.00011092 0.00015744 5.0362e-05 0.00022549
          0.00010874 9.8868e-05 0.00010793 0.00015434 8.0185e-05 6.8354e-05 0.00014551 0.00014525 0.00017218 0.00012177 9.0671e-05 0.00015715
          0.00012027 0.00015784 0.00022979 0.00010367 5.3866e-05 0.00024136
        </DataArray>
        <DataArray type="Float32" Name="T" NumberOfComponents="1" format="ascii">
          297.61 298.15 297.668 298.15 297.582 298.15 298.15 298.15 297.121 297.558 297.402 298.15
          297.411 295.839 295.804 295.731 297.327 296.175 296.174 295.798 295.712 296.173 296.649 296.49
          296.248 296.678 296.676 296.21 297.198 297.095 297.486 297.26 296.596 296.933 296.795 297.046
          297.303 297.29 297.294 296.777 296.237 296.028 296.691 296.017 295.117 296.413 297.091 297.154
          297.039 297.002 296.919 296.716 297.028 296.223 297.105 296.765 296.672 295.012 295.364 295.973
          296.752 296.179 296.375 294.095 295.933 295.802 295.143 296.292 295.643 294.782 294.214 296.603
          296.611 296.607 296.607 296.399 296.934 296.715 296.701 296.416 295.55 297.025 296.288 293.15
          293.15 295.092 294.702 294.779 293.15 295.032
        </DataArray>
        <DataArray type="Float32" Name="coordinationNumber" NumberOfComponents="1" format="ascii">
          6 1 4 1 3 1 5 2 6 3 4 1
          2 4 2 3 2 6 1 1 1 1 4 2
          3 2 1 2 3 7 2 4 3 4 6 2
          3 4 3 5 5 3 4 6 4 5 4 4
          4 4 5 7 3 3 2 3 2 5 2 4
          3 2 2 2 3 4 5 4 4 6 2 5
          4 3 2 2 2 1 1 4 2 1 1 3
          1 2 1 1 1 1
        </DataArray>
        <DataArray type="Float32" Name="poreLabel" NumberOfComponents="1" format="ascii">
          -1 2 -1 2 -1 2 2 -1 -1 -1 -1 2
          -1 -1 -1 -1 -1 -1 -1 -1 -1 -1 -1 -1
          -1 -1 -1 -1 -1 -1 -1 -1 -1 -1 -1 -1
          -1 -1 -1 -1 -1 -1 -1 -1 -1 -1 -1 -1
          -1 -1 -1 -1 -1 -1 -1 -1 -1 -1 -1 -1
          -1 -1 -1 -1 -1 -1 -1 -1 -1 -1 -1 -1
          -1 -1 -1 -1 -1 -1 -1 -1 -1 -1 -1 3
          3 -1 -1 -1 3 -1
        </DataArray>
      </PointData>
      <CellData Scalars="process rank" Vectors="velocity_liq (m/s)">
        <DataArray type="Float32" Name="velocity_liq (m/s)" NumberOfComponents="3" format="ascii">
          0.000280644 0.000280644 -0.000280644 0.000622893 -0 -0.000622893 0.000617275 -0.000617275 -0 0.000323627 -0 -0
          -0 0 0 0.000339865 0.000339865 0.000339865 0.000254263 -0 0.000254263 0.00043312 -0 -0.00043312
          -0 0 0 -8.18831e-05 8.18831e-05 8.18831e-05 8.67473e-05 8.67473e-05 -8.67473e-05 3.56272e-08 -0 -0
          -1.75654e-08 0 -1.75654e-08 0.00015285 -0 -0 -8.80264e-05 8.80264e-05 8.80264e-05 8.44342e-11 8.44342e-11 -8.44342e-11
          1.19264e-08 -1.19264e-08 1.19264e-08 3.64107e-09 -3.64107e-09 3.64107e-09 8.03322e-10 -0 -0 -6.92667e-05 6.92667e-05 0
          5.65719e-05 5.65719e-05 -5.65719e-05 5.95674e-10 -5.95674e-10 5.95674e-10 -1.41279e-05 0 0 1.00223e-05 -1.00223e-05 -0
          0.000257355 -0 -0 0.000431485 0.000431485 -0 0.000147036 -0 -0 0.000429051 -0 -0.000429051
          -2.18407e-05 0 0 1.58961e-05 1.58961e-05 -0 0 -1.82362e-07 -1.82362e-07 6.9512e-05 6.9512e-05 -6.9512e-05
          0.000180219 0.000180219 0.000180219 0.000130548 -0 0.000130548 -0 -0 5.33533e-05 0.000272721 0.000272721 -0
          0.00014413 -0 -0.00014413 -0 -0 0.000402618 -2.4175e-05 0 0 -0 0.000295817 -0
          -0 9.26173e-05 -9.26173e-05 0 0 -3.70894e-08 0.000320006 -0.000320006 -0 -0 0.00039597 -0.00039597
          0.000261719 0.000261719 -0 -9.97717e-05 9.97717e-05 9.97717e-05 3.90129e-09 -3.90129e-09 -0 9.44196e-05 -0 -0
          -0 -0 7.2553e-05 0.000359468 0.000359468 0.000359468 -0.000175662 0 0.000175662 0 -8.4775e-05 0
          0.000121346 -0 0.000121346 -0 8.53573e-05 -0 0.000117282 -0 0.000117282 0 0 -9.61684e-05
          0 -9.42814e-05 0 7.02682e-05 7.02682e-05 -7.02682e-05 5.53475e-05 -0 -5.53475e-05 8.70692e-05 8.70692e-05 8.70692e-05
          -0 0.000249792 0.000249792 -0 0.000102959 0.000102959 -0 4.45243e-05 -0 4.67357e-05 -4.67357e-05 4.67357e-05
          0.00024611 -0 0.00024611 -0 0.000144023 0.000144023 6.27605e-05 6.27605e-05 -6.27605e-05 0.000126886 -0 0.000126886
          0.000492884 -0 0.000492884 0 -2.04532e-05 2.04532e-05 -0 0.000119061 -0 0.000138279 0.000138279 -0
          -6.72398e-05 -6.72398e-05 6.72398e-05 -0 0.000228498 0.000228498 0.000105602 -0.000105602 -0 2.33252e-05 -2.33252e-05 -2.33252e-05
          -0 0.000341714 -0.000341714 0.000244481 -0 0.000244481 -0.000244458 0 0.000244458 6.98934e-05 -6.98934e-05 -6.98934e-05
          -7.2756e-05 0 0 -0 -0 0.000189085 -7.91471e-05 7.91471e-05 0 -0 -0 0.000143376
          -0 0.000197738 0.000197738 -8.60796e-05 8.60796e-05 8.60796e-05 0.000480342 -0 -0.000480342 -0 2.7256e-05 -2.7256e-05
          -0 0.000264164 -0 0.000154455 0.000154455 -0 -0.000203175 0.000203175 0 -0.000112088 0.000112088 0.000112088
          0.000371868 -0.000371868 -0 0 0 -0.0002705 0.000181096 -0.000181096 0.000181096 4.54754e-05 -4.54754e-05 4.54754e-05
          0.00059585 -0 -0.00059585 0 0 -0.000175838 0 -3.41072e-05 0 0.000166015 0.000166015 0.000166015
          -0 5.07081e-05 -5.07081e-05 -0 -0 3.86945e-06 5.43653e-07 5.43653e-07 -0 -2.7029e-06 -2.7029e-06 2.7029e-06
          0 -0.000129992 0 -4.59679e-07 -4.59679e-07 4.59679e-07 7.89163e-05 7.89163e-05 7.89163e-05 8.86765e-05 8.86765e-05 8.86765e-05
          0.000140289 -0 -0 -0.000111707 -0.000111707 0 -2.28806e-10 2.28806e-10 2.28806e-10 -2.38118e-09 2.38118e-09 -2.38118e-09
          0.000237923 0.000237923 0.000237923 -0 0.00010899 0.00010899 0.000186144 0.000186144 -0.000186144 -0 0.000423316 -0
          0.000171808 -0 -0.000171808 -1.26583e-09 -1.26583e-09 0 -0.00010607 0.00010607 0 -0.000265837 0 0
          -0.000153757 0.000153757 0.000153757 -7.86737e-10 0 0 -7.89525e-05 7.89525e-05 -7.89525e-05 0.00113284 0.00113284 -0
          -0.000150767 0.000150767 0.000150767 0.000391347 0.000391347 -0.000391347 -0 -0 0.000279352 -0.000319611 0.000319611 0
          -0 0.000339253 0.000339253 -0 -0 0.000286619 0.000477954 -0 -0 -1.90135e-08 1.90135e-08 0
          -6.52549e-10 0 6.52549e-10 0 -8.52465e-05 8.52465e-05 0.000577403 -0 0.000577403 -2.12414e-08 2.12414e-08 2.12414e-08
          0.000343995 -0.000343995 0.000343995
        </DataArray>
        <DataArray type="Float32" Name="process rank" NumberOfComponents="1" format="ascii">
          0 0 0 0 0 0 0 0 0 0 0 0
          0 0 0 0 0 0 0 0 0 0 0 0
          0 0 0 0 0 0 0 0 0 0 0 0
          0 0 0 0 0 0 0 0 0 0 0 0
          0 0 0 0 0 0 0 0 0 0 0 0
          0 0 0 0 0 0 0 0 0 0 0 0
          0 0 0 0 0 0 0 0 0 0 0 0
          0 0 0 0 0 0 0 0 0 0 0 0
          0 0 0 0 0 0 0 0 0 0 0 0
          0 0 0 0 0 0 0 0 0 0 0 0
          0 0 0 0 0 0 0 0 0 0 0 0
          0 0 0 0 0
        </DataArray>
        <DataArray type="Float32" Name="throatLabel" NumberOfComponents="1" format="ascii">
          2 2 2 2 2 2 2 2 2 -1 -1 -1
          -1 -1 -1 -1 -1 -1 -1 -1 -1 -1 -1 -1
          -1 -1 -1 -1 -1 -1 -1 -1 -1 -1 -1 -1
          -1 -1 -1 -1 -1 -1 -1 -1 -1 -1 -1 -1
          -1 -1 -1 -1 -1 -1 -1 -1 -1 -1 -1 -1
          -1 -1 -1 -1 -1 -1 -1 -1 -1 -1 -1 -1
          -1 -1 -1 -1 -1 -1 -1 -1 -1 -1 -1 -1
          -1 -1 -1 -1 -1 -1 -1 -1 -1 -1 -1 -1
          -1 -1 -1 -1 -1 -1 -1 -1 -1 -1 -1 -1
          -1 -1 -1 -1 -1 -1 -1 -1 -1 -1 -1 -1
          -1 -1 -1 3 -1 3 -1 -1 -1 -1 3 -1
          -1 -1 3 -1 3
        </DataArray>
        <DataArray type="Float32" Name="throatInscribedRadius" NumberOfComponents="1" format="ascii">
          3.3304e-05 3.384e-05 3.3615e-05 3.3259e-05 3.3423e-05 3.3717e-05 3.3301e-05 3.3963e-05 3.3418e-05 3.4247e-05 3.3272e-05 3.37e-05
          3.3125e-05 3.3391e-05 3.3434e-05 3.3768e-05 3.3951e-05 3.3734e-05 3.3508e-05 3.3908e-05 3.3903e-05 3.3674e-05 3.3826e-05 3.3772e-05
          3.3303e-05 3.389e-05 3.3413e-05 3.3431e-05 3.3693e-05 3.353e-05 3.3589e-05 3.3834e-05 3.3987e-05 3.3567e-05 3.3743e-05 3.3553e-05
          3.371e-05 3.3781e-05 3.3426e-05 3.3726e-05 3.3836e-05 3.3664e-05 3.422e-05 3.3429e-05 3.3386e-05 3.305e-05 3.3941e-05 3.3926e-05
          3.3606e-05 3.3937e-05 3.3695e-05 3.3731e-05 3.3671e-05 3.3781e-05 3.3667e-05 3.4584e-05 3.3243e-05 3.3015e-05 3.3252e-05 3.3267e-05
          3.3488e-05 3.3576e-05 3.356e-05 3.3816e-05 3.3764e-05 3.3887e-05 3.4237e-05 3.4047e-05 3.3204e-05 3.2859e-05 3.3938e-05 3.3021e-05
          3.3656e-05 3.3645e-05 3.4391e-05 3.361e-05 3.3463e-05 3.3712e-05 3.3716e-05 3.3657e-05 3.3429e-05 3.3224e-05 3.374e-05 3.3184e-05
          3.3288e-05 3.4084e-05 3.3492e-05 3.3586e-05 3.3937e-05 3.3532e-05 3.3981e-05 3.3517e-05 3.3975e-05 3.3845e-05 3.3562e-05 3.3343e-05
          3.3284e-05 3.3542e-05 3.3486e-05 3.3496e-05 3.3966e-05 3.3533e-05 3.402e-05 3.3455e-05 3.3962e-05 3.3458e-05 3.3693e-05 3.3961e-05
          3.3494e-05 3.3486e-05 3.4314e-05 3.3954e-05 3.3488e-05 3.3852e-05 3.3512e-05 3.3871e-05 3.4113e-05 3.3098e-05 3.3981e-05 3.4127e-05
          3.3649e-05 3.4226e-05 3.3685e-05 3.322e-05 3.2903e-05 3.3521e-05 3.3874e-05 3.374e-05 3.3772e-05 3.344e-05 3.3682e-05 3.3086e-05
          3.3378e-05 3.3359e-05 3.3808e-05 3.3628e-05 3.3247e-05
        </DataArray>
        <DataArray type="Float32" Name="throatLength" NumberOfComponents="1" format="ascii">
          6.6609e-05 3.384e-05 3.3615e-05 9.9777e-05 6.6846e-05 0.00010115 9.9902e-05 6.7925e-05 0.00010025 0.00010274 9.9816e-05 3.37e-05
          9.9376e-05 6.6781e-05 0.0001003 6.7537e-05 6.7903e-05 0.0001012 3.3508e-05 6.7817e-05 0.00010171 6.7347e-05 0.00010148 0.00010132
          6.6606e-05 3.389e-05 6.6826e-05 3.3431e-05 6.7385e-05 6.706e-05 0.00010077 0.0001015 0.00010196 0.0001007 6.7487e-05 0.00010066
          6.7421e-05 3.3781e-05 3.3426e-05 0.00010118 6.7672e-05 0.00010099 3.422e-05 6.6858e-05 6.6772e-05 3.305e-05 6.7881e-05 6.7852e-05
          3.3606e-05 6.7873e-05 3.3695e-05 3.3731e-05 3.3671e-05 3.3781e-05 3.3667e-05 3.4584e-05 6.6486e-05 3.3015e-05 6.6503e-05 9.9802e-05
          6.6975e-05 6.7153e-05 6.7119e-05 3.3816e-05 6.7529e-05 0.00010166 0.00010271 3.4047e-05 3.3204e-05 6.5718e-05 6.7876e-05 6.6043e-05
          3.3656e-05 0.00010094 3.4391e-05 3.361e-05 3.3463e-05 3.3712e-05 6.7432e-05 6.7313e-05 3.3429e-05 9.9673e-05 0.00010122 9.9553e-05
          3.3288e-05 0.00010225 0.00010048 0.00010076 0.00010181 0.0001006 6.7962e-05 3.3517e-05 6.7951e-05 3.3845e-05 3.3562e-05 0.00010003
          3.3284e-05 3.3542e-05 3.3486e-05 6.6992e-05 6.7931e-05 3.3533e-05 0.00010206 6.691e-05 0.00010189 6.6916e-05 6.7385e-05 3.3961e-05
          3.3494e-05 6.6972e-05 3.4314e-05 0.00010186 3.3488e-05 0.00010156 6.7024e-05 0.00010161 0.00010234 3.3098e-05 6.7962e-05 6.8254e-05
          0.00010095 0.00010268 3.3685e-05 3.322e-05 6.5807e-05 3.3521e-05 6.7748e-05 6.748e-05 3.3772e-05 3.344e-05 0.00010104 9.9259e-05
          6.6757e-05 0.00010008 3.3808e-05 0.00010088 9.974e-05
        </DataArray>
        <DataArray type="Float32" Name="transmissibility" NumberOfComponents="1" format="ascii">
          1.1758e-14 2.46701e-14 2.41813e-14 7.80704e-15 1.18847e-14 8.13411e-15 7.83673e-15 1.24702e-14 7.91986e-15 8.52375e-15 7.8162e-15 2.43652e-14
          7.71298e-15 1.18507e-14 7.93108e-15 1.22563e-14 1.24567e-14 8.1465e-15 2.39511e-14 1.24094e-14 8.2693e-15 1.21546e-14 8.21301e-15 8.17357e-15
          1.17571e-14 2.47796e-14 1.1874e-14 2.37864e-14 1.21752e-14 1.19992e-14 8.0415e-15 8.21916e-15 8.33109e-15 8.02603e-15 1.22291e-14 8.01583e-15
          1.21933e-14 2.45413e-14 2.37757e-14 8.14038e-15 1.23307e-14 8.09589e-15 2.55106e-14 1.18911e-14 1.18452e-14 2.29824e-14 1.2446e-14 1.24293e-14
          2.41619e-14 1.24416e-14 2.43543e-14 2.44325e-14 2.43023e-14 2.45413e-14 2.42937e-14 2.63333e-14 1.16937e-14 2.29094e-14 1.17033e-14 7.8126e-15
          1.19543e-14 1.20484e-14 1.20316e-14 2.46177e-14 1.2252e-14 8.25776e-15 8.51629e-15 2.51256e-14 2.33051e-14 1.12931e-14 1.24425e-14 1.14608e-14
          2.42699e-14 8.08163e-15 2.58949e-14 2.41705e-14 2.38547e-14 2.43912e-14 1.22e-14 1.21362e-14 2.37821e-14 7.78234e-15 8.15068e-15 7.75427e-15
          2.34824e-14 8.4027e-15 7.97195e-15 8.03943e-15 8.29437e-15 8.00055e-15 1.24899e-14 2.39704e-14 1.24831e-14 2.46811e-14 2.40671e-14 7.86626e-15
          2.3474e-14 2.40241e-14 2.3904e-14 1.19627e-14 1.24735e-14 2.40048e-14 8.35529e-15 1.19188e-14 8.31231e-15 1.1922e-14 1.21752e-14 2.49357e-14
          2.39211e-14 1.1952e-14 2.57214e-14 8.30692e-15 2.39082e-14 8.2318e-15 1.19798e-14 8.24624e-15 8.42392e-15 2.30826e-14 1.24899e-14 1.26516e-14
          8.08467e-15 8.50783e-15 2.43327e-14 2.33388e-14 1.13384e-14 2.3979e-14 1.23723e-14 1.2226e-14 2.45217e-14 2.38056e-14 8.1092e-15 7.68577e-15
          1.18365e-14 7.87744e-15 2.46002e-14 8.07011e-15 7.79867e-15
        </DataArray>
        <DataArray type="Float32" Name="volumeFlux" NumberOfComponents="1" format="ascii">
          2.1566e-12 4.03505e-12 3.94566e-12 1.43193e-12 0 2.67686e-12 1.59504e-12 2.82615e-12 0 6.65365e-13 6.65326e-13 1.61846e-16
          1.0903e-16 6.81686e-13 6.81727e-13 6.67037e-19 9.52438e-17 2.87068e-17 3.60783e-18 4.50509e-13 4.50503e-13 4.67971e-18 6.46605e-14 6.46633e-14
          1.14172e-12 2.80339e-12 6.56621e-13 2.71258e-12 9.91756e-14 1.01096e-13 1.16387e-15 5.51299e-13 1.44227e-12 8.32088e-13 2.4299e-13 1.73682e-12
          9.265e-13 1.8378e-12 1.08043e-13 1.3459e-12 5.99826e-13 1.68129e-16 2.11979e-12 2.50314e-12 1.65021e-12 7.55041e-13 2.54234e-17 4.34698e-13
          3.27755e-13 2.86832e-12 1.1282e-12 3.85821e-13 7.78238e-13 3.89624e-13 7.51995e-13 4.6009e-13 4.1676e-13 5.30642e-13 3.46185e-13 6.67594e-13
          1.58464e-12 6.56594e-13 2.00586e-13 3.70266e-13 1.58713e-12 9.35564e-13 5.09681e-13 8.32042e-13 3.07397e-12 1.24924e-13 5.48533e-13 8.52927e-13
          5.27682e-13 1.46318e-12 7.0654e-13 1.8255e-13 2.16455e-12 1.57177e-12 1.57199e-12 5.48539e-13 3.25219e-13 8.34876e-13 5.09683e-13 6.31528e-13
          1.23948e-12 6.92822e-13 3.04795e-12 1.73922e-13 1.21697e-12 9.82416e-13 1.32714e-12 8.72388e-13 2.42819e-12 1.23942e-12 1.41327e-12 3.50273e-13
          3.73407e-12 7.91318e-13 1.52979e-13 1.29048e-12 3.30934e-13 1.74042e-14 3.5593e-15 2.09591e-14 5.9974e-13 3.56513e-15 6.20678e-13 7.08582e-13
          6.29531e-13 7.08568e-13 1.86651e-18 1.90193e-17 1.84857e-12 7.06529e-13 1.44834e-12 1.94259e-12 1.13099e-12 7.84432e-18 6.92848e-13 1.23843e-12
          1.20615e-12 3.68639e-18 6.20669e-13 7.07202e-12 1.13083e-12 3.04661e-12 1.28217e-12 2.0582e-12 2.18883e-12 1.28203e-12 2.16891e-12 1.1774e-16
          4.11253e-18 5.36634e-13 3.7333e-12 1.6642e-16 2.63438e-12
        </DataArray>
      </CellData>
      <Points>
        <DataArray type="Float32" Name="Coordinates" NumberOfComponents="3" format="ascii">
          2 2 3 1 1 4 2 1 4 1 1 5
          2 1 1 1 2 1 1 2 3 2 1 3
          2 3 4 2 2 4 2 2 2 1 2 4
          1 2 5 2 3 2 1 3 2 2 3 3
          1 3 4 2 4 4 1 3 5 1 4 1
          1 4 2 1 4 4 2 3 5 1 4 5
          2 5 4 2 4 2 1 5 1 1 5 4
          3 1 1 3 2 1 3 1 4 3 1 3
          2 2 1 3 3 1 3 3 3 3 2 3
          3 2 2 2 2 5 3 2 5 3 2 4
          2 4 3 3 4 5 3 3 2 3 4 3
          3 5 4 3 4 2 4 1 2 3 1 2
          4 2 1 4 1 1 4 2 4 4 2 2
          4 3 1 4 2 5 3 3 5 4 4 1
          4 2 3 4 3 5 3 3 4 4 3 3
          3 4 1 3 5 3 4 3 2 4 4 2
          3 5 2 3 4 4 4 5 4 4 3 4
          4 4 3 4 4 5 4 5 3 5 2 2
          4 1 4 4 1 3 5 2 3 5 2 5
          5 3 2 5 1 1 5 1 3 5 3 3
          5 2 4 5 4 1 5 3 4 5 4 5
          5 5 1 4 4 4 5 3 5 5 4 4
          5 5 4 5 4 3
        </DataArray>
      </Points>
      <Lines>
        <DataArray type="Int32" Name="connectivity" NumberOfComponents="1" format="ascii">
          0 1 2 3 4 5 0 6 7 6 8 6
          9 6 10 6 7 11 2 12 8 12 13 14
          15 14 8 16 0 16 17 18 13 19 15 20
          17 21 22 23 24 23 25 26 24 27 17 27
          28 4 29 4 30 2 31 2 29 32 33 32
          13 32 33 10 34 10 35 10 9 0 34 0
          36 0 37 9 38 37 22 37 8 37 15 13
          39 8 40 8 41 22 39 22 42 25 43 40
          17 40 44 40 45 40 24 17 41 17 29 28
          46 28 31 47 36 47 48 47 49 47 50 31
          39 31 38 30 33 29 46 29 51 29 42 29
          52 36 50 35 53 39 34 39 54 38 55 33
          55 42 43 42 56 34 51 34 45 34 57 58
          59 58 50 54 55 60 45 60 52 60 43 45
          61 45 62 43 63 43 64 43 44 65 66 65
          67 65 59 65 57 41 61 64 68 64 69 44
          70 44 46 49 48 49 71 49 48 46 72 73
          74 73 71 73 50 72 74 72 75 72 76 48
          71 51 76 51 77 51 78 51 79 51 67 56
          79 50 57 53 80 53 81 52 71 62 79 59
          71 59 82 67 75 67 83 57 80 57 84 63
          85 68 79 68 66 68 69 85 83 69 86 69
          87 69 66 69 88 70 89 66 83 66
        </DataArray>
        <DataArray type="Int32" Name="offsets" NumberOfComponents="1" format="ascii">
          2 4 6 8 10 12 14 16 18 20 22 24
          26 28 30 32 34 36 38 40 42 44 46 48
          50 52 54 56 58 60 62 64 66 68 70 72
          74 76 78 80 82 84 86 88 90 92 94 96
          98 100 102 104 106 108 110 112 114 116 118 120
          122 124 126 128 130 132 134 136 138 140 142 144
          146 148 150 152 154 156 158 160 162 164 166 168
          170 172 174 176 178 180 182 184 186 188 190 192
          194 196 198 200 202 204 206 208 210 212 214 216
          218 220 222 224 226 228 230 232 234 236 238 240
          242 244 246 248 250 252 254 256 258 260 262 264
          266 268 270 272 274
        </DataArray>
      </Lines>
    </Piece>
  </PolyData>
</VTKFile>
