<?xml version="1.0"?>
<VTKFile type="UnstructuredGrid" version="0.1" byte_order="LittleEndian">
  <UnstructuredGrid>
    <Piece NumberOfCells="10" NumberOfPoints="18">
      <PointData Scalars="S_liq" Vectors="velocity_liq (m/s)">
        <DataArray type="Float32" Name="S_liq" NumberOfComponents="1" format="ascii">
          0.313882 0.313882 0.301317 0.301317 0.313882 0.301317 0.276887 0.276887 0.276887 0.259504 0.259504 0.259504
          0.172067 0.172067 0.172067 0.00853071 0.00853071 0.00853071
        </DataArray>
        <DataArray type="Float32" Name="p_liq" NumberOfComponents="1" format="ascii">
          92010.4 92010.4 91865 91865 92010.4 91865 91431.5 91431.5 91431.5 90704.5 90704.5 90704.5
          81863.9 81863.9 81863.9 65268.9 65268.9 65268.9
        </DataArray>
        <DataArray type="Float32" Name="rho_liq" NumberOfComponents="1" format="ascii">
          1012.5 1012.5 1012.81 1012.81 1012.5 1012.81 1016.44 1016.44 1016.44 1026.53 1026.53 1026.53
          1086.52 1086.52 1086.52 1416.72 1416.72 1416.72
        </DataArray>
        <DataArray type="Float32" Name="mob_liq" NumberOfComponents="1" format="ascii">
          1.22589 1.22589 0.684141 0.684141 1.22589 0.684141 0.121625 0.121625 0.121625 0.00750674 0.00750674 0.00750674
          0 0 0 0 0 0
        </DataArray>
        <DataArray type="Float32" Name="S_gas" NumberOfComponents="1" format="ascii">
          0.686118 0.686118 0.698683 0.698683 0.686118 0.698683 0.723113 0.723113 0.723113 0.740496 0.740496 0.740496
          0.827933 0.827933 0.827933 0.991469 0.991469 0.991469
        </DataArray>
        <DataArray type="Float32" Name="p_gas" NumberOfComponents="1" format="ascii">
          100003 100003 100003 100003 100003 100003 100003 100003 100003 100003 100003 100003
          100003 100003 100003 100001 100001 100001
        </DataArray>
        <DataArray type="Float32" Name="rho_gas" NumberOfComponents="1" format="ascii">
          1.19414 1.19414 1.19413 1.19413 1.19414 1.19413 1.19413 1.19413 1.19413 1.19417 1.19417 1.19417
          1.1944 1.1944 1.1944 1.19595 1.19595 1.19595
        </DataArray>
        <DataArray type="Float32" Name="mob_gas" NumberOfComponents="1" format="ascii">
          46201.6 46201.6 48577.2 48577.2 46201.6 48577.2 53133.5 53133.5 53133.5 55202.8 55202.8 55202.8
          55549.1 55549.1 55549.1 55549 55549 55549
        </DataArray>
        <DataArray type="Float32" Name="pc" NumberOfComponents="1" format="ascii">
          7992.9 7992.9 8138.26 8138.26 7992.9 8138.26 8571.64 8571.64 8571.64 9298.65 9298.65 9298.65
          18139 18139 18139 34732 34732 34732
        </DataArray>
        <DataArray type="Float32" Name="porosity" NumberOfComponents="1" format="ascii">
          0.4 0.4 0.4 0.4 0.4 0.4 0.4 0.4 0.4 0.4 0.4 0.4
          0.4 0.4 0.4 0.389598 0.389598 0.389598
        </DataArray>
        <DataArray type="Float32" Name="x^H2O_liq" NumberOfComponents="1" format="ascii">
          0.9937 0.9937 0.993556 0.993556 0.9937 0.993556 0.991875 0.991875 0.991875 0.987193 0.987193 0.987193
          0.958833 0.958833 0.958833 0.773543 0.773543 0.773543
        </DataArray>
        <DataArray type="Float32" Name="x^Air_liq" NumberOfComponents="1" format="ascii">
          1.57654e-05 1.57654e-05 1.57652e-05 1.57652e-05 1.57654e-05 1.57652e-05 1.5765e-05 1.5765e-05 1.5765e-05 1.57661e-05 1.57661e-05 1.57661e-05
          1.57743e-05 1.57743e-05 1.57743e-05 1.58297e-05 1.58297e-05 1.58297e-05
        </DataArray>
        <DataArray type="Float32" Name="x^NaCl_liq" NumberOfComponents="1" format="ascii">
          0.00628469 0.00628469 0.00642822 0.00642822 0.00628469 0.00642822 0.00810913 0.00810913 0.00810913 0.0127913 0.0127913 0.0127913
          0.041151 0.041151 0.041151 0.226441 0.226441 0.226441
        </DataArray>
        <DataArray type="Float32" Name="rhoMolar_liq" NumberOfComponents="1" format="ascii">
          55420.3 55420.3 55419.7 55419.7 55420.3 55419.7 55412.4 55412.4 55412.4 55390.7 55390.7 55390.7
          55212.2 55212.2 55212.2 52143 52143 52143
        </DataArray>
        <DataArray type="Float32" Name="x^H2O_gas" NumberOfComponents="1" format="ascii">
          0.0186467 0.0186467 0.018645 0.018645 0.0186467 0.018645 0.0186162 0.0186162 0.0186162 0.0185293 0.0185293 0.0185293
          0.0179979 0.0179979 0.0179979 0.0145207 0.0145207 0.0145207
        </DataArray>
        <DataArray type="Float32" Name="x^Air_gas" NumberOfComponents="1" format="ascii">
          0.981353 0.981353 0.981355 0.981355 0.981353 0.981355 0.981384 0.981384 0.981384 0.981471 0.981471 0.981471
          0.982002 0.982002 0.982002 0.985479 0.985479 0.985479
        </DataArray>
        <DataArray type="Float32" Name="x^NaCl_gas" NumberOfComponents="1" format="ascii">
          -0 -0 -0 -0 -0 -0 -0 -0 -0 -0 -0 -0
          -0 -0 -0 -0 -0 -0
        </DataArray>
        <DataArray type="Float32" Name="rhoMolar_gas" NumberOfComponents="1" format="ascii">
          41.5269 41.5269 41.5268 41.5268 41.5269 41.5268 41.5264 41.5264 41.5264 41.5263 41.5263 41.5263
          41.526 41.526 41.526 41.5248 41.5248 41.5248
        </DataArray>
        <DataArray type="Float32" Name="phase presence" NumberOfComponents="1" format="ascii">
          3 3 3 3 3 3 3 3 3 3 3 3
          3 3 3 3 3 3
        </DataArray>
        <DataArray type="Float32" Name="precipitateVolumeFraction^NaCl" NumberOfComponents="1" format="ascii">
          0 0 0 0 0 0 0 0 0 0 0 0
          0 0 0 0.0104019 0.0104019 0.0104019
        </DataArray>
        <DataArray type="Float32" Name="T" NumberOfComponents="1" format="ascii">
          289.641 289.641 289.641 289.641 289.641 289.641 289.644 289.644 289.644 289.644 289.644 289.644
          289.645 289.645 289.645 289.646 289.646 289.646
        </DataArray>
        <DataArray type="Float32" Name="velocity_liq (m/s)" NumberOfComponents="3" format="ascii">
          -2.03722e-21 1.15943e-09 0 -1.94357e-21 1.15943e-09 0 -1.58642e-21 2.2163e-09 0 -1.77781e-21 2.2163e-09 0
          -1.84991e-21 1.15943e-09 0 -1.96921e-21 2.2163e-09 0 -5.16538e-22 3.8109e-09 0 -9.59361e-22 3.8109e-09 0
          -1.40218e-21 3.8109e-09 0 -1.18562e-22 4.18345e-09 0 -8.61551e-22 4.18345e-09 0 -1.60454e-21 4.18345e-09 0
          0 2.00914e-09 0 0 2.00914e-09 0 0 2.00914e-09 0 0 0 0
          0 0 0 0 0 0
        </DataArray>
        <DataArray type="Float32" Name="velocity_gas (m/s)" NumberOfComponents="3" format="ascii">
          -3.36161e-18 -7.74541e-10 0 1.78165e-18 -7.74541e-10 0 -3.18101e-19 8.24193e-10 0 2.26205e-18 8.24193e-10 0
          6.92491e-18 -7.74541e-10 0 4.8422e-18 8.24193e-10 0 5.21906e-18 3.36456e-08 0 5.79896e-20 3.36456e-08 0
          -5.10309e-18 3.36456e-08 0 8.12206e-19 3.4229e-07 0 1.69561e-19 3.4229e-07 0 -4.73083e-19 3.4229e-07 0
          7.78802e-18 4.1312e-06 0 3.48877e-18 4.1312e-06 0 -8.10478e-19 4.1312e-06 0 4.22603e-18 7.6427e-06 0
          -9.34541e-19 7.6427e-06 0 -6.09512e-18 7.6427e-06 0
        </DataArray>
        <DataArray type="Float32" Name="Permeability" NumberOfComponents="1" format="ascii">
          1e-13 1e-13 1e-13 1e-13 1e-13 1e-13 1e-13 1e-13 1e-13 1e-13 1e-13 1e-13
          9.72178e-14 9.72178e-14 9.72178e-14 9.1858e-14 9.1858e-14 9.1858e-14
        </DataArray>
      </PointData>
      <CellData Scalars="process rank">
        <DataArray type="Float32" Name="process rank" NumberOfComponents="1" format="ascii">
          0 0 0 0 0 0 0 0 0 0
        </DataArray>
      </CellData>
      <Points>
        <DataArray type="Float32" Name="Coordinates" NumberOfComponents="3" format="ascii">
          0 0 0 0.01 0 0 0 0.0075 0 0.01 0.0075 0
          0.02 0 0 0.02 0.0075 0 0 0.015 0 0.01 0.015 0
          0.02 0.015 0 0 0.016978 0 0.01 0.016978 0 0.02 0.016978 0
          0 0.0186264 0 0.01 0.0186264 0 0.02 0.0186264 0 0 0.02 0
          0.01 0.02 0 0.02 0.02 0
        </DataArray>
      </Points>
      <Cells>
        <DataArray type="Int32" Name="connectivity" NumberOfComponents="1" format="ascii">
          0 1 3 2 1 4 5 3 2 3 7 6
          3 5 8 7 6 7 10 9 7 8 11 10
          9 10 13 12 10 11 14 13 12 13 16 15
          13 14 17 16
        </DataArray>
        <DataArray type="Int32" Name="offsets" NumberOfComponents="1" format="ascii">
          4 8 12 16 20 24 28 32 36 40
        </DataArray>
        <DataArray type="UInt8" Name="types" NumberOfComponents="1" format="ascii">
          9 9 9 9 9 9 9 9 9 9
        </DataArray>
      </Cells>
    </Piece>
  </UnstructuredGrid>
</VTKFile>
