<?xml version="1.0"?>
<VTKFile type="UnstructuredGrid" version="0.1" byte_order="LittleEndian">
  <UnstructuredGrid>
    <Piece NumberOfCells="200" NumberOfPoints="231">
      <CellData Scalars="S_liq">
        <DataArray type="Float32" Name="S_liq" NumberOfComponents="1" format="ascii">
          0.199906 0.199907 0.199907 0.199907 0.199907 0.199907 0.199907 0.199907 0.199907 0.199907 0.199907 0.199907
          0.199907 0.199907 0.199907 0.199907 0.199907 0.199907 0.199905 0.19384 0.199906 0.199907 0.199907 0.199907
          0.199907 0.199907 0.199907 0.199907 0.199907 0.199907 0.199907 0.199907 0.199907 0.199907 0.199907 0.199907
          0.199907 0.199907 0.199905 0.19384 0.199906 0.199907 0.199907 0.199907 0.199907 0.199907 0.199907 0.199907
          0.199907 0.199907 0.199907 0.199907 0.199907 0.199907 0.199907 0.199907 0.199907 0.199907 0.199905 0.19384
          0.199906 0.199907 0.199907 0.199907 0.199907 0.199907 0.199907 0.199907 0.199907 0.199907 0.199907 0.199907
          0.199907 0.199907 0.199907 0.199907 0.199907 0.199907 0.199905 0.19384 0.199906 0.199907 0.199907 0.199907
          0.199907 0.199907 0.199907 0.199907 0.199907 0.199907 0.199907 0.199907 0.199907 0.199907 0.199907 0.199907
          0.199907 0.199907 0.199905 0.19384 0.199906 0.199907 0.199907 0.199907 0.199907 0.199907 0.199907 0.199907
          0.199907 0.199907 0.199907 0.199907 0.199907 0.199907 0.199907 0.199907 0.199907 0.199907 0.199905 0.19384
          0.199906 0.199907 0.199907 0.199907 0.199907 0.199907 0.199907 0.199907 0.199907 0.199907 0.199907 0.199907
          0.199907 0.199907 0.199907 0.199907 0.199907 0.199907 0.199905 0.19384 0.199906 0.199907 0.199907 0.199907
          0.199907 0.199907 0.199907 0.199907 0.199907 0.199907 0.199907 0.199907 0.199907 0.199907 0.199907 0.199907
          0.199907 0.199907 0.199905 0.19384 0.199906 0.199907 0.199907 0.199907 0.199907 0.199907 0.199907 0.199907
          0.199907 0.199907 0.199907 0.199907 0.199907 0.199907 0.199907 0.199907 0.199907 0.199907 0.199905 0.19384
          0.199906 0.199907 0.199907 0.199907 0.199907 0.199907 0.199907 0.199907 0.199907 0.199907 0.199907 0.199907
          0.199907 0.199907 0.199907 0.199907 0.199907 0.199907 0.199905 0.19384
        </DataArray>
        <DataArray type="Float32" Name="p_liq" NumberOfComponents="1" format="ascii">
          99329.3 99342.7 99346.3 99349.7 99352.8 99355.8 99358.5 99361 99363.3 99365.4 99367.3 99369
          99370.5 99371.7 99372.8 99373.6 99374.2 99374.5 99357 56037.8 99329.3 99342.7 99346.3 99349.7
          99352.8 99355.8 99358.5 99361 99363.3 99365.4 99367.3 99369 99370.5 99371.7 99372.8 99373.6
          99374.2 99374.5 99357 56037.8 99329.3 99342.7 99346.3 99349.7 99352.8 99355.8 99358.5 99361
          99363.3 99365.4 99367.3 99369 99370.5 99371.7 99372.8 99373.6 99374.2 99374.5 99357 56037.8
          99329.3 99342.7 99346.3 99349.7 99352.8 99355.8 99358.5 99361 99363.3 99365.4 99367.3 99369
          99370.5 99371.7 99372.8 99373.6 99374.2 99374.5 99357 56037.8 99329.3 99342.7 99346.3 99349.7
          99352.8 99355.8 99358.5 99361 99363.3 99365.4 99367.3 99369 99370.5 99371.7 99372.8 99373.6
          99374.2 99374.5 99357 56037.8 99329.3 99342.7 99346.3 99349.7 99352.8 99355.8 99358.5 99361
          99363.3 99365.4 99367.3 99369 99370.5 99371.7 99372.8 99373.6 99374.2 99374.5 99357 56037.8
          99329.3 99342.7 99346.3 99349.7 99352.8 99355.8 99358.5 99361 99363.3 99365.4 99367.3 99369
          99370.5 99371.7 99372.8 99373.6 99374.2 99374.5 99357 56037.8 99329.3 99342.7 99346.3 99349.7
          99352.8 99355.8 99358.5 99361 99363.3 99365.4 99367.3 99369 99370.5 99371.7 99372.8 99373.6
          99374.2 99374.5 99357 56037.8 99329.3 99342.7 99346.3 99349.7 99352.8 99355.8 99358.5 99361
          99363.3 99365.4 99367.3 99369 99370.5 99371.7 99372.8 99373.6 99374.2 99374.5 99357 56037.8
          99329.3 99342.7 99346.3 99349.7 99352.8 99355.8 99358.5 99361 99363.3 99365.4 99367.3 99369
          99370.5 99371.7 99372.8 99373.6 99374.2 99374.5 99357 56037.8
        </DataArray>
        <DataArray type="Float32" Name="rho_liq" NumberOfComponents="1" format="ascii">
          997.048 997.048 997.048 997.048 997.048 997.048 997.048 997.048 997.048 997.048 997.048 997.048
          997.048 997.048 997.048 997.048 997.048 997.048 997.057 997.68 997.048 997.048 997.048 997.048
          997.048 997.048 997.048 997.048 997.048 997.048 997.048 997.048 997.048 997.048 997.048 997.048
          997.048 997.048 997.057 997.68 997.048 997.048 997.048 997.048 997.048 997.048 997.048 997.048
          997.048 997.048 997.048 997.048 997.048 997.048 997.048 997.048 997.048 997.048 997.057 997.68
          997.048 997.048 997.048 997.048 997.048 997.048 997.048 997.048 997.048 997.048 997.048 997.048
          997.048 997.048 997.048 997.048 997.048 997.048 997.057 997.68 997.048 997.048 997.048 997.048
          997.048 997.048 997.048 997.048 997.048 997.048 997.048 997.048 997.048 997.048 997.048 997.048
          997.048 997.048 997.057 997.68 997.048 997.048 997.048 997.048 997.048 997.048 997.048 997.048
          997.048 997.048 997.048 997.048 997.048 997.048 997.048 997.048 997.048 997.048 997.057 997.68
          997.048 997.048 997.048 997.048 997.048 997.048 997.048 997.048 997.048 997.048 997.048 997.048
          997.048 997.048 997.048 997.048 997.048 997.048 997.057 997.68 997.048 997.048 997.048 997.048
          997.048 997.048 997.048 997.048 997.048 997.048 997.048 997.048 997.048 997.048 997.048 997.048
          997.048 997.048 997.057 997.68 997.048 997.048 997.048 997.048 997.048 997.048 997.048 997.048
          997.048 997.048 997.048 997.048 997.048 997.048 997.048 997.048 997.048 997.048 997.057 997.68
          997.048 997.048 997.048 997.048 997.048 997.048 997.048 997.048 997.048 997.048 997.048 997.048
          997.048 997.048 997.048 997.048 997.048 997.048 997.057 997.68
        </DataArray>
        <DataArray type="Float32" Name="mob_liq" NumberOfComponents="1" format="ascii">
          0 0 0 0 0 0 0 0 0 0 0 0
          0 0 0 0 0 0 0 0 0 0 0 0
          0 0 0 0 0 0 0 0 0 0 0 0
          0 0 0 0 0 0 0 0 0 0 0 0
          0 0 0 0 0 0 0 0 0 0 0 0
          0 0 0 0 0 0 0 0 0 0 0 0
          0 0 0 0 0 0 0 0 0 0 0 0
          0 0 0 0 0 0 0 0 0 0 0 0
          0 0 0 0 0 0 0 0 0 0 0 0
          0 0 0 0 0 0 0 0 0 0 0 0
          0 0 0 0 0 0 0 0 0 0 0 0
          0 0 0 0 0 0 0 0 0 0 0 0
          0 0 0 0 0 0 0 0 0 0 0 0
          0 0 0 0 0 0 0 0 0 0 0 0
          0 0 0 0 0 0 0 0 0 0 0 0
          0 0 0 0 0 0 0 0 0 0 0 0
          0 0 0 0 0 0 0 0
        </DataArray>
        <DataArray type="Float32" Name="S_gas" NumberOfComponents="1" format="ascii">
          0.800094 0.800093 0.800093 0.800093 0.800093 0.800093 0.800093 0.800093 0.800093 0.800093 0.800093 0.800093
          0.800093 0.800093 0.800093 0.800093 0.800093 0.800093 0.800095 0.80616 0.800094 0.800093 0.800093 0.800093
          0.800093 0.800093 0.800093 0.800093 0.800093 0.800093 0.800093 0.800093 0.800093 0.800093 0.800093 0.800093
          0.800093 0.800093 0.800095 0.80616 0.800094 0.800093 0.800093 0.800093 0.800093 0.800093 0.800093 0.800093
          0.800093 0.800093 0.800093 0.800093 0.800093 0.800093 0.800093 0.800093 0.800093 0.800093 0.800095 0.80616
          0.800094 0.800093 0.800093 0.800093 0.800093 0.800093 0.800093 0.800093 0.800093 0.800093 0.800093 0.800093
          0.800093 0.800093 0.800093 0.800093 0.800093 0.800093 0.800095 0.80616 0.800094 0.800093 0.800093 0.800093
          0.800093 0.800093 0.800093 0.800093 0.800093 0.800093 0.800093 0.800093 0.800093 0.800093 0.800093 0.800093
          0.800093 0.800093 0.800095 0.80616 0.800094 0.800093 0.800093 0.800093 0.800093 0.800093 0.800093 0.800093
          0.800093 0.800093 0.800093 0.800093 0.800093 0.800093 0.800093 0.800093 0.800093 0.800093 0.800095 0.80616
          0.800094 0.800093 0.800093 0.800093 0.800093 0.800093 0.800093 0.800093 0.800093 0.800093 0.800093 0.800093
          0.800093 0.800093 0.800093 0.800093 0.800093 0.800093 0.800095 0.80616 0.800094 0.800093 0.800093 0.800093
          0.800093 0.800093 0.800093 0.800093 0.800093 0.800093 0.800093 0.800093 0.800093 0.800093 0.800093 0.800093
          0.800093 0.800093 0.800095 0.80616 0.800094 0.800093 0.800093 0.800093 0.800093 0.800093 0.800093 0.800093
          0.800093 0.800093 0.800093 0.800093 0.800093 0.800093 0.800093 0.800093 0.800093 0.800093 0.800095 0.80616
          0.800094 0.800093 0.800093 0.800093 0.800093 0.800093 0.800093 0.800093 0.800093 0.800093 0.800093 0.800093
          0.800093 0.800093 0.800093 0.800093 0.800093 0.800093 0.800095 0.80616
        </DataArray>
        <DataArray type="Float32" Name="p_gas" NumberOfComponents="1" format="ascii">
          250002 250006 250009 250013 250016 250019 250021 250024 250026 250028 250030 250032
          250033 250035 250036 250037 250037 250038 250038 250038 250002 250006 250009 250013
          250016 250019 250021 250024 250026 250028 250030 250032 250033 250035 250036 250037
          250037 250038 250038 250038 250002 250006 250009 250013 250016 250019 250021 250024
          250026 250028 250030 250032 250033 250035 250036 250037 250037 250038 250038 250038
          250002 250006 250009 250013 250016 250019 250021 250024 250026 250028 250030 250032
          250033 250035 250036 250037 250037 250038 250038 250038 250002 250006 250009 250013
          250016 250019 250021 250024 250026 250028 250030 250032 250033 250035 250036 250037
          250037 250038 250038 250038 250002 250006 250009 250013 250016 250019 250021 250024
          250026 250028 250030 250032 250033 250035 250036 250037 250037 250038 250038 250038
          250002 250006 250009 250013 250016 250019 250021 250024 250026 250028 250030 250032
          250033 250035 250036 250037 250037 250038 250038 250038 250002 250006 250009 250013
          250016 250019 250021 250024 250026 250028 250030 250032 250033 250035 250036 250037
          250037 250038 250038 250038 250002 250006 250009 250013 250016 250019 250021 250024
          250026 250028 250030 250032 250033 250035 250036 250037 250037 250038 250038 250038
          250002 250006 250009 250013 250016 250019 250021 250024 250026 250028 250030 250032
          250033 250035 250036 250037 250037 250038 250038 250038
        </DataArray>
        <DataArray type="Float32" Name="rho_gas" NumberOfComponents="1" format="ascii">
          2.90662 2.90667 2.90671 2.90675 2.90679 2.90682 2.90685 2.90688 2.90691 2.90693 2.90696 2.90698
          2.90699 2.90701 2.90702 2.90703 2.90704 2.90705 2.90744 2.9365 2.90662 2.90667 2.90671 2.90675
          2.90679 2.90682 2.90685 2.90688 2.90691 2.90693 2.90696 2.90698 2.90699 2.90701 2.90702 2.90703
          2.90704 2.90705 2.90744 2.9365 2.90662 2.90667 2.90671 2.90675 2.90679 2.90682 2.90685 2.90688
          2.90691 2.90693 2.90696 2.90698 2.90699 2.90701 2.90702 2.90703 2.90704 2.90705 2.90744 2.9365
          2.90662 2.90667 2.90671 2.90675 2.90679 2.90682 2.90685 2.90688 2.90691 2.90693 2.90696 2.90698
          2.90699 2.90701 2.90702 2.90703 2.90704 2.90705 2.90744 2.9365 2.90662 2.90667 2.90671 2.90675
          2.90679 2.90682 2.90685 2.90688 2.90691 2.90693 2.90696 2.90698 2.90699 2.90701 2.90702 2.90703
          2.90704 2.90705 2.90744 2.9365 2.90662 2.90667 2.90671 2.90675 2.90679 2.90682 2.90685 2.90688
          2.90691 2.90693 2.90696 2.90698 2.90699 2.90701 2.90702 2.90703 2.90704 2.90705 2.90744 2.9365
          2.90662 2.90667 2.90671 2.90675 2.90679 2.90682 2.90685 2.90688 2.90691 2.90693 2.90696 2.90698
          2.90699 2.90701 2.90702 2.90703 2.90704 2.90705 2.90744 2.9365 2.90662 2.90667 2.90671 2.90675
          2.90679 2.90682 2.90685 2.90688 2.90691 2.90693 2.90696 2.90698 2.90699 2.90701 2.90702 2.90703
          2.90704 2.90705 2.90744 2.9365 2.90662 2.90667 2.90671 2.90675 2.90679 2.90682 2.90685 2.90688
          2.90691 2.90693 2.90696 2.90698 2.90699 2.90701 2.90702 2.90703 2.90704 2.90705 2.90744 2.9365
          2.90662 2.90667 2.90671 2.90675 2.90679 2.90682 2.90685 2.90688 2.90691 2.90693 2.90696 2.90698
          2.90699 2.90701 2.90702 2.90703 2.90704 2.90705 2.90744 2.9365
        </DataArray>
        <DataArray type="Float32" Name="mob_gas" NumberOfComponents="1" format="ascii">
          54216.5 54216.6 54216.6 54216.5 54216.5 54216.5 54216.5 54216.5 54216.5 54216.5 54216.5 54216.5
          54216.5 54216.5 54216.5 54216.5 54216.5 54216.6 54221.9 54602.4 54216.5 54216.6 54216.6 54216.5
          54216.5 54216.5 54216.5 54216.5 54216.5 54216.5 54216.5 54216.5 54216.5 54216.5 54216.5 54216.5
          54216.5 54216.6 54221.9 54602.4 54216.5 54216.6 54216.6 54216.5 54216.5 54216.5 54216.5 54216.5
          54216.5 54216.5 54216.5 54216.5 54216.5 54216.5 54216.5 54216.5 54216.5 54216.6 54221.9 54602.4
          54216.5 54216.6 54216.6 54216.5 54216.5 54216.5 54216.5 54216.5 54216.5 54216.5 54216.5 54216.5
          54216.5 54216.5 54216.5 54216.5 54216.5 54216.6 54221.9 54602.4 54216.5 54216.6 54216.6 54216.5
          54216.5 54216.5 54216.5 54216.5 54216.5 54216.5 54216.5 54216.5 54216.5 54216.5 54216.5 54216.5
          54216.5 54216.6 54221.9 54602.4 54216.5 54216.6 54216.6 54216.5 54216.5 54216.5 54216.5 54216.5
          54216.5 54216.5 54216.5 54216.5 54216.5 54216.5 54216.5 54216.5 54216.5 54216.6 54221.9 54602.4
          54216.5 54216.6 54216.6 54216.5 54216.5 54216.5 54216.5 54216.5 54216.5 54216.5 54216.5 54216.5
          54216.5 54216.5 54216.5 54216.5 54216.5 54216.6 54221.9 54602.4 54216.5 54216.6 54216.6 54216.5
          54216.5 54216.5 54216.5 54216.5 54216.5 54216.5 54216.5 54216.5 54216.5 54216.5 54216.5 54216.5
          54216.5 54216.6 54221.9 54602.4 54216.5 54216.6 54216.6 54216.5 54216.5 54216.5 54216.5 54216.5
          54216.5 54216.5 54216.5 54216.5 54216.5 54216.5 54216.5 54216.5 54216.5 54216.6 54221.9 54602.4
          54216.5 54216.6 54216.6 54216.5 54216.5 54216.5 54216.5 54216.5 54216.5 54216.5 54216.5 54216.5
          54216.5 54216.5 54216.5 54216.5 54216.5 54216.6 54221.9 54602.4
        </DataArray>
        <DataArray type="Float32" Name="pc" NumberOfComponents="1" format="ascii">
          150673 150663 150663 150663 150663 150663 150663 150663 150663 150663 150663 150663
          150663 150663 150663 150663 150663 150663 150681 194000 150673 150663 150663 150663
          150663 150663 150663 150663 150663 150663 150663 150663 150663 150663 150663 150663
          150663 150663 150681 194000 150673 150663 150663 150663 150663 150663 150663 150663
          150663 150663 150663 150663 150663 150663 150663 150663 150663 150663 150681 194000
          150673 150663 150663 150663 150663 150663 150663 150663 150663 150663 150663 150663
          150663 150663 150663 150663 150663 150663 150681 194000 150673 150663 150663 150663
          150663 150663 150663 150663 150663 150663 150663 150663 150663 150663 150663 150663
          150663 150663 150681 194000 150673 150663 150663 150663 150663 150663 150663 150663
          150663 150663 150663 150663 150663 150663 150663 150663 150663 150663 150681 194000
          150673 150663 150663 150663 150663 150663 150663 150663 150663 150663 150663 150663
          150663 150663 150663 150663 150663 150663 150681 194000 150673 150663 150663 150663
          150663 150663 150663 150663 150663 150663 150663 150663 150663 150663 150663 150663
          150663 150663 150681 194000 150673 150663 150663 150663 150663 150663 150663 150663
          150663 150663 150663 150663 150663 150663 150663 150663 150663 150663 150681 194000
          150673 150663 150663 150663 150663 150663 150663 150663 150663 150663 150663 150663
          150663 150663 150663 150663 150663 150663 150681 194000
        </DataArray>
        <DataArray type="Float32" Name="porosity" NumberOfComponents="1" format="ascii">
          0.4 0.4 0.4 0.4 0.4 0.4 0.4 0.4 0.4 0.4 0.4 0.4
          0.4 0.4 0.4 0.4 0.4 0.4 0.4 0.4 0.4 0.4 0.4 0.4
          0.4 0.4 0.4 0.4 0.4 0.4 0.4 0.4 0.4 0.4 0.4 0.4
          0.4 0.4 0.4 0.4 0.4 0.4 0.4 0.4 0.4 0.4 0.4 0.4
          0.4 0.4 0.4 0.4 0.4 0.4 0.4 0.4 0.4 0.4 0.4 0.4
          0.4 0.4 0.4 0.4 0.4 0.4 0.4 0.4 0.4 0.4 0.4 0.4
          0.4 0.4 0.4 0.4 0.4 0.4 0.4 0.4 0.4 0.4 0.4 0.4
          0.4 0.4 0.4 0.4 0.4 0.4 0.4 0.4 0.4 0.4 0.4 0.4
          0.4 0.4 0.4 0.4 0.4 0.4 0.4 0.4 0.4 0.4 0.4 0.4
          0.4 0.4 0.4 0.4 0.4 0.4 0.4 0.4 0.4 0.4 0.4 0.4
          0.4 0.4 0.4 0.4 0.4 0.4 0.4 0.4 0.4 0.4 0.4 0.4
          0.4 0.4 0.4 0.4 0.4 0.4 0.4 0.4 0.4 0.4 0.4 0.4
          0.4 0.4 0.4 0.4 0.4 0.4 0.4 0.4 0.4 0.4 0.4 0.4
          0.4 0.4 0.4 0.4 0.4 0.4 0.4 0.4 0.4 0.4 0.4 0.4
          0.4 0.4 0.4 0.4 0.4 0.4 0.4 0.4 0.4 0.4 0.4 0.4
          0.4 0.4 0.4 0.4 0.4 0.4 0.4 0.4 0.4 0.4 0.4 0.4
          0.4 0.4 0.4 0.4 0.4 0.4 0.4 0.4
        </DataArray>
        <DataArray type="Float32" Name="x^H2O_liq" NumberOfComponents="1" format="ascii">
          0.999939 0.999939 0.999939 0.999939 0.999939 0.999939 0.999939 0.999939 0.999939 0.999939 0.999939 0.999939
          0.999939 0.999939 0.999939 0.999939 0.999939 0.999939 0.999939 0.999935 0.999939 0.999939 0.999939 0.999939
          0.999939 0.999939 0.999939 0.999939 0.999939 0.999939 0.999939 0.999939 0.999939 0.999939 0.999939 0.999939
          0.999939 0.999939 0.999939 0.999935 0.999939 0.999939 0.999939 0.999939 0.999939 0.999939 0.999939 0.999939
          0.999939 0.999939 0.999939 0.999939 0.999939 0.999939 0.999939 0.999939 0.999939 0.999939 0.999939 0.999935
          0.999939 0.999939 0.999939 0.999939 0.999939 0.999939 0.999939 0.999939 0.999939 0.999939 0.999939 0.999939
          0.999939 0.999939 0.999939 0.999939 0.999939 0.999939 0.999939 0.999935 0.999939 0.999939 0.999939 0.999939
          0.999939 0.999939 0.999939 0.999939 0.999939 0.999939 0.999939 0.999939 0.999939 0.999939 0.999939 0.999939
          0.999939 0.999939 0.999939 0.999935 0.999939 0.999939 0.999939 0.999939 0.999939 0.999939 0.999939 0.999939
          0.999939 0.999939 0.999939 0.999939 0.999939 0.999939 0.999939 0.999939 0.999939 0.999939 0.999939 0.999935
          0.999939 0.999939 0.999939 0.999939 0.999939 0.999939 0.999939 0.999939 0.999939 0.999939 0.999939 0.999939
          0.999939 0.999939 0.999939 0.999939 0.999939 0.999939 0.999939 0.999935 0.999939 0.999939 0.999939 0.999939
          0.999939 0.999939 0.999939 0.999939 0.999939 0.999939 0.999939 0.999939 0.999939 0.999939 0.999939 0.999939
          0.999939 0.999939 0.999939 0.999935 0.999939 0.999939 0.999939 0.999939 0.999939 0.999939 0.999939 0.999939
          0.999939 0.999939 0.999939 0.999939 0.999939 0.999939 0.999939 0.999939 0.999939 0.999939 0.999939 0.999935
          0.999939 0.999939 0.999939 0.999939 0.999939 0.999939 0.999939 0.999939 0.999939 0.999939 0.999939 0.999939
          0.999939 0.999939 0.999939 0.999939 0.999939 0.999939 0.999939 0.999935
        </DataArray>
        <DataArray type="Float32" Name="X^H2O_liq" NumberOfComponents="1" format="ascii">
          0.999901 0.999901 0.999901 0.999901 0.999901 0.999901 0.999901 0.999901 0.999901 0.999901 0.999901 0.999901
          0.999901 0.999901 0.999901 0.999901 0.999901 0.999901 0.999901 0.999896 0.999901 0.999901 0.999901 0.999901
          0.999901 0.999901 0.999901 0.999901 0.999901 0.999901 0.999901 0.999901 0.999901 0.999901 0.999901 0.999901
          0.999901 0.999901 0.999901 0.999896 0.999901 0.999901 0.999901 0.999901 0.999901 0.999901 0.999901 0.999901
          0.999901 0.999901 0.999901 0.999901 0.999901 0.999901 0.999901 0.999901 0.999901 0.999901 0.999901 0.999896
          0.999901 0.999901 0.999901 0.999901 0.999901 0.999901 0.999901 0.999901 0.999901 0.999901 0.999901 0.999901
          0.999901 0.999901 0.999901 0.999901 0.999901 0.999901 0.999901 0.999896 0.999901 0.999901 0.999901 0.999901
          0.999901 0.999901 0.999901 0.999901 0.999901 0.999901 0.999901 0.999901 0.999901 0.999901 0.999901 0.999901
          0.999901 0.999901 0.999901 0.999896 0.999901 0.999901 0.999901 0.999901 0.999901 0.999901 0.999901 0.999901
          0.999901 0.999901 0.999901 0.999901 0.999901 0.999901 0.999901 0.999901 0.999901 0.999901 0.999901 0.999896
          0.999901 0.999901 0.999901 0.999901 0.999901 0.999901 0.999901 0.999901 0.999901 0.999901 0.999901 0.999901
          0.999901 0.999901 0.999901 0.999901 0.999901 0.999901 0.999901 0.999896 0.999901 0.999901 0.999901 0.999901
          0.999901 0.999901 0.999901 0.999901 0.999901 0.999901 0.999901 0.999901 0.999901 0.999901 0.999901 0.999901
          0.999901 0.999901 0.999901 0.999896 0.999901 0.999901 0.999901 0.999901 0.999901 0.999901 0.999901 0.999901
          0.999901 0.999901 0.999901 0.999901 0.999901 0.999901 0.999901 0.999901 0.999901 0.999901 0.999901 0.999896
          0.999901 0.999901 0.999901 0.999901 0.999901 0.999901 0.999901 0.999901 0.999901 0.999901 0.999901 0.999901
          0.999901 0.999901 0.999901 0.999901 0.999901 0.999901 0.999901 0.999896
        </DataArray>
        <DataArray type="Float32" Name="x^Air_liq" NumberOfComponents="1" format="ascii">
          6.13943e-05 6.13949e-05 6.1396e-05 6.13971e-05 6.13982e-05 6.13991e-05 6.14e-05 6.14009e-05 6.14016e-05 6.14023e-05 6.1403e-05 6.14035e-05
          6.1404e-05 6.14045e-05 6.14048e-05 6.14051e-05 6.14054e-05 6.14057e-05 6.14234e-05 6.48158e-05 6.13943e-05 6.13949e-05 6.1396e-05 6.13971e-05
          6.13982e-05 6.13991e-05 6.14e-05 6.14009e-05 6.14016e-05 6.14023e-05 6.1403e-05 6.14035e-05 6.1404e-05 6.14045e-05 6.14048e-05 6.14051e-05
          6.14054e-05 6.14057e-05 6.14234e-05 6.48158e-05 6.13943e-05 6.13949e-05 6.1396e-05 6.13971e-05 6.13982e-05 6.13991e-05 6.14e-05 6.14009e-05
          6.14016e-05 6.14023e-05 6.1403e-05 6.14035e-05 6.1404e-05 6.14045e-05 6.14048e-05 6.14051e-05 6.14054e-05 6.14057e-05 6.14234e-05 6.48158e-05
          6.13943e-05 6.13949e-05 6.1396e-05 6.13971e-05 6.13982e-05 6.13991e-05 6.14e-05 6.14009e-05 6.14016e-05 6.14023e-05 6.1403e-05 6.14035e-05
          6.1404e-05 6.14045e-05 6.14048e-05 6.14051e-05 6.14054e-05 6.14057e-05 6.14234e-05 6.48158e-05 6.13943e-05 6.13949e-05 6.1396e-05 6.13971e-05
          6.13982e-05 6.13991e-05 6.14e-05 6.14009e-05 6.14016e-05 6.14023e-05 6.1403e-05 6.14035e-05 6.1404e-05 6.14045e-05 6.14048e-05 6.14051e-05
          6.14054e-05 6.14057e-05 6.14234e-05 6.48158e-05 6.13943e-05 6.13949e-05 6.1396e-05 6.13971e-05 6.13982e-05 6.13991e-05 6.14e-05 6.14009e-05
          6.14016e-05 6.14023e-05 6.1403e-05 6.14035e-05 6.1404e-05 6.14045e-05 6.14048e-05 6.14051e-05 6.14054e-05 6.14057e-05 6.14234e-05 6.48158e-05
          6.13943e-05 6.13949e-05 6.1396e-05 6.13971e-05 6.13982e-05 6.13991e-05 6.14e-05 6.14009e-05 6.14016e-05 6.14023e-05 6.1403e-05 6.14035e-05
          6.1404e-05 6.14045e-05 6.14048e-05 6.14051e-05 6.14054e-05 6.14057e-05 6.14234e-05 6.48158e-05 6.13943e-05 6.13949e-05 6.1396e-05 6.13971e-05
          6.13982e-05 6.13991e-05 6.14e-05 6.14009e-05 6.14016e-05 6.14023e-05 6.1403e-05 6.14035e-05 6.1404e-05 6.14045e-05 6.14048e-05 6.14051e-05
          6.14054e-05 6.14057e-05 6.14234e-05 6.48158e-05 6.13943e-05 6.13949e-05 6.1396e-05 6.13971e-05 6.13982e-05 6.13991e-05 6.14e-05 6.14009e-05
          6.14016e-05 6.14023e-05 6.1403e-05 6.14035e-05 6.1404e-05 6.14045e-05 6.14048e-05 6.14051e-05 6.14054e-05 6.14057e-05 6.14234e-05 6.48158e-05
          6.13943e-05 6.13949e-05 6.1396e-05 6.13971e-05 6.13982e-05 6.13991e-05 6.14e-05 6.14009e-05 6.14016e-05 6.14023e-05 6.1403e-05 6.14035e-05
          6.1404e-05 6.14045e-05 6.14048e-05 6.14051e-05 6.14054e-05 6.14057e-05 6.14234e-05 6.48158e-05
        </DataArray>
        <DataArray type="Float32" Name="X^Air_liq" NumberOfComponents="1" format="ascii">
          9.86896e-05 9.86906e-05 9.86925e-05 9.86942e-05 9.86959e-05 9.86975e-05 9.86989e-05 9.87002e-05 9.87015e-05 9.87026e-05 9.87036e-05 9.87045e-05
          9.87053e-05 9.8706e-05 9.87066e-05 9.87071e-05 9.87075e-05 9.8708e-05 9.87364e-05 0.000104189 9.86896e-05 9.86906e-05 9.86925e-05 9.86942e-05
          9.86959e-05 9.86975e-05 9.86989e-05 9.87002e-05 9.87015e-05 9.87026e-05 9.87036e-05 9.87045e-05 9.87053e-05 9.8706e-05 9.87066e-05 9.87071e-05
          9.87075e-05 9.8708e-05 9.87364e-05 0.000104189 9.86896e-05 9.86906e-05 9.86925e-05 9.86942e-05 9.86959e-05 9.86975e-05 9.86989e-05 9.87002e-05
          9.87015e-05 9.87026e-05 9.87036e-05 9.87045e-05 9.87053e-05 9.8706e-05 9.87066e-05 9.87071e-05 9.87075e-05 9.8708e-05 9.87364e-05 0.000104189
          9.86896e-05 9.86906e-05 9.86925e-05 9.86942e-05 9.86959e-05 9.86975e-05 9.86989e-05 9.87002e-05 9.87015e-05 9.87026e-05 9.87036e-05 9.87045e-05
          9.87053e-05 9.8706e-05 9.87066e-05 9.87071e-05 9.87075e-05 9.8708e-05 9.87364e-05 0.000104189 9.86896e-05 9.86906e-05 9.86925e-05 9.86942e-05
          9.86959e-05 9.86975e-05 9.86989e-05 9.87002e-05 9.87015e-05 9.87026e-05 9.87036e-05 9.87045e-05 9.87053e-05 9.8706e-05 9.87066e-05 9.87071e-05
          9.87075e-05 9.8708e-05 9.87364e-05 0.000104189 9.86896e-05 9.86906e-05 9.86925e-05 9.86942e-05 9.86959e-05 9.86975e-05 9.86989e-05 9.87002e-05
          9.87015e-05 9.87026e-05 9.87036e-05 9.87045e-05 9.87053e-05 9.8706e-05 9.87066e-05 9.87071e-05 9.87075e-05 9.8708e-05 9.87364e-05 0.000104189
          9.86896e-05 9.86906e-05 9.86925e-05 9.86942e-05 9.86959e-05 9.86975e-05 9.86989e-05 9.87002e-05 9.87015e-05 9.87026e-05 9.87036e-05 9.87045e-05
          9.87053e-05 9.8706e-05 9.87066e-05 9.87071e-05 9.87075e-05 9.8708e-05 9.87364e-05 0.000104189 9.86896e-05 9.86906e-05 9.86925e-05 9.86942e-05
          9.86959e-05 9.86975e-05 9.86989e-05 9.87002e-05 9.87015e-05 9.87026e-05 9.87036e-05 9.87045e-05 9.87053e-05 9.8706e-05 9.87066e-05 9.87071e-05
          9.87075e-05 9.8708e-05 9.87364e-05 0.000104189 9.86896e-05 9.86906e-05 9.86925e-05 9.86942e-05 9.86959e-05 9.86975e-05 9.86989e-05 9.87002e-05
          9.87015e-05 9.87026e-05 9.87036e-05 9.87045e-05 9.87053e-05 9.8706e-05 9.87066e-05 9.87071e-05 9.87075e-05 9.8708e-05 9.87364e-05 0.000104189
          9.86896e-05 9.86906e-05 9.86925e-05 9.86942e-05 9.86959e-05 9.86975e-05 9.86989e-05 9.87002e-05 9.87015e-05 9.87026e-05 9.87036e-05 9.87045e-05
          9.87053e-05 9.8706e-05 9.87066e-05 9.87071e-05 9.87075e-05 9.8708e-05 9.87364e-05 0.000104189
        </DataArray>
        <DataArray type="Float32" Name="rhoMolar_liq" NumberOfComponents="1" format="ascii">
          55344.9 55344.9 55344.9 55344.9 55344.9 55344.9 55344.9 55344.9 55344.9 55344.9 55344.9 55344.9
          55344.9 55344.9 55344.9 55344.9 55344.9 55344.9 55345.4 55379.9 55344.9 55344.9 55344.9 55344.9
          55344.9 55344.9 55344.9 55344.9 55344.9 55344.9 55344.9 55344.9 55344.9 55344.9 55344.9 55344.9
          55344.9 55344.9 55345.4 55379.9 55344.9 55344.9 55344.9 55344.9 55344.9 55344.9 55344.9 55344.9
          55344.9 55344.9 55344.9 55344.9 55344.9 55344.9 55344.9 55344.9 55344.9 55344.9 55345.4 55379.9
          55344.9 55344.9 55344.9 55344.9 55344.9 55344.9 55344.9 55344.9 55344.9 55344.9 55344.9 55344.9
          55344.9 55344.9 55344.9 55344.9 55344.9 55344.9 55345.4 55379.9 55344.9 55344.9 55344.9 55344.9
          55344.9 55344.9 55344.9 55344.9 55344.9 55344.9 55344.9 55344.9 55344.9 55344.9 55344.9 55344.9
          55344.9 55344.9 55345.4 55379.9 55344.9 55344.9 55344.9 55344.9 55344.9 55344.9 55344.9 55344.9
          55344.9 55344.9 55344.9 55344.9 55344.9 55344.9 55344.9 55344.9 55344.9 55344.9 55345.4 55379.9
          55344.9 55344.9 55344.9 55344.9 55344.9 55344.9 55344.9 55344.9 55344.9 55344.9 55344.9 55344.9
          55344.9 55344.9 55344.9 55344.9 55344.9 55344.9 55345.4 55379.9 55344.9 55344.9 55344.9 55344.9
          55344.9 55344.9 55344.9 55344.9 55344.9 55344.9 55344.9 55344.9 55344.9 55344.9 55344.9 55344.9
          55344.9 55344.9 55345.4 55379.9 55344.9 55344.9 55344.9 55344.9 55344.9 55344.9 55344.9 55344.9
          55344.9 55344.9 55344.9 55344.9 55344.9 55344.9 55344.9 55344.9 55344.9 55344.9 55345.4 55379.9
          55344.9 55344.9 55344.9 55344.9 55344.9 55344.9 55344.9 55344.9 55344.9 55344.9 55344.9 55344.9
          55344.9 55344.9 55344.9 55344.9 55344.9 55344.9 55345.4 55379.9
        </DataArray>
        <DataArray type="Float32" Name="x^H2O_gas" NumberOfComponents="1" format="ascii">
          0.0126772 0.0126771 0.0126769 0.0126768 0.0126766 0.0126765 0.0126763 0.0126762 0.0126761 0.012676 0.0126759 0.0126758
          0.0126757 0.0126757 0.0126756 0.0126756 0.0126755 0.0126752 0.0126476 0.00989343 0.0126772 0.0126771 0.0126769 0.0126768
          0.0126766 0.0126765 0.0126763 0.0126762 0.0126761 0.012676 0.0126759 0.0126758 0.0126757 0.0126757 0.0126756 0.0126756
          0.0126755 0.0126752 0.0126476 0.00989343 0.0126772 0.0126771 0.0126769 0.0126768 0.0126766 0.0126765 0.0126763 0.0126762
          0.0126761 0.012676 0.0126759 0.0126758 0.0126757 0.0126757 0.0126756 0.0126756 0.0126755 0.0126752 0.0126476 0.00989343
          0.0126772 0.0126771 0.0126769 0.0126768 0.0126766 0.0126765 0.0126763 0.0126762 0.0126761 0.012676 0.0126759 0.0126758
          0.0126757 0.0126757 0.0126756 0.0126756 0.0126755 0.0126752 0.0126476 0.00989343 0.0126772 0.0126771 0.0126769 0.0126768
          0.0126766 0.0126765 0.0126763 0.0126762 0.0126761 0.012676 0.0126759 0.0126758 0.0126757 0.0126757 0.0126756 0.0126756
          0.0126755 0.0126752 0.0126476 0.00989343 0.0126772 0.0126771 0.0126769 0.0126768 0.0126766 0.0126765 0.0126763 0.0126762
          0.0126761 0.012676 0.0126759 0.0126758 0.0126757 0.0126757 0.0126756 0.0126756 0.0126755 0.0126752 0.0126476 0.00989343
          0.0126772 0.0126771 0.0126769 0.0126768 0.0126766 0.0126765 0.0126763 0.0126762 0.0126761 0.012676 0.0126759 0.0126758
          0.0126757 0.0126757 0.0126756 0.0126756 0.0126755 0.0126752 0.0126476 0.00989343 0.0126772 0.0126771 0.0126769 0.0126768
          0.0126766 0.0126765 0.0126763 0.0126762 0.0126761 0.012676 0.0126759 0.0126758 0.0126757 0.0126757 0.0126756 0.0126756