<?xml version="1.0"?>
<VTKFile type="UnstructuredGrid" version="0.1" byte_order="LittleEndian">
  <UnstructuredGrid>
    <Piece NumberOfCells="400" NumberOfPoints="441">
      <CellData Scalars="p">
        <DataArray type="Float32" Name="p" NumberOfComponents="1" format="ascii">
          100000 100000 100000 100000 100000 100000 100000 100000 100000 100000 100000 100000
          100000 100000 100000 100000 100000 100000 100000 100000 100000 100000 100000 100000
          100000 100000 100000 100000 100000 100000 100000 100000 100000 100000 100000 100000
          100000 100000 100000 100000 100000 100000 100000 100000 100000 100000 100000 100000
          100000 100000 100000 100000 100000 100000 100000 100000 100000 100000 100000 100000
          100000 100000 100000 100000 100000 100000 100000 100000 100000 100000 100000 100000
          100000 100000 100000 100000 100000 100000 100000 100000 100000 100000 100000 100000
          100000 100000 100000 100000 100000 100000 100000 100000 100000 100000 100000 100000
          100000 100000 100000 100000 100000 100000 100000 100000 100000 100000 100000 100000
          100000 100000 100000 100000 100000 100000 100000 100000 100000 100000 100000 100000
          100000 100000 100000 100000 100000 100000 100000 100000 100000 100000 100000 100000
          100000 100000 100000 100000 100000 100000 100000 100000 100000 100000 100000 100000
          100000 100000 100000 100000 100000 100000 100000 100000 100000 100000 100000 100000
          100000 100000 100000 100000 100000 100000 100000 100000 100000 100000 100000 100000
          100000 100000 100000 100000 100000 100000 100000 100000 100000 100000 100000 100000
          100000 100000 100000 100000 100000 100000 100000 100000 100000 100000 100000 100000
          100000 100000 100000 100000 100000 100000 100000 100000 100000 100000 100000 100000
          100000 100000 100000 100000 100000 100000 100000 100000 100000 100000 100000 100000
          100000 100000 100000 100000 100000 100000 100000 100000 100000 100000 100000 100000
          100000 100000 100000 100000 100000 100000 100000 100000 100000 100000 100000 100000
          100000 100000 100000 100000 100000 100000 100000 100000 100000 100000 100000 100000
          100000 100000 100000 100000 100000 100000 100000 100000 100000 100000 100000 100000
          100000 100000 100000 100000 100000 100000 100000 100000 100000 100000 100000 100000
          100000 100000 100000 100000 100000 100000 100000 100000 100000 100000 100000 100000
          100000 100000 100000 100000 100000 100000 100000 100000 100000 100000 100000 100000
          100000 100000 100000 100000 100000 100000 100000 100000 100000 100000 100000 100000
          100000 100000 100000 100000 100000 100000 100000 100000 100000 100000 100000 100000
          100000 100000 100000 100000 100000 100000 100000 100000 100000 100000 100000 100000
          100000 100000 100000 100000 100000 100000 100000 100000 100000 100000 100000 100000
          100000 100000 100000 100000 100000 100000 100000 100000 100000 100000 100000 100000
          100000 100000 100000 100000 100000 100000 100000 100000 100000 100000 100000 100000
          100000 100000 100000 100000 100000 100000 100000 100000 100000 100000 100000 100000
          100000 100000 100000 100000 100000 100000 100000 100000 100000 100000 100000 100000
          100000 100000 100000 100000
        </DataArray>
        <DataArray type="Float32" Name="rho" NumberOfComponents="1" format="ascii">
          999.689 999.689 999.689 999.689 999.689 999.689 999.689 999.689 999.689 999.689 999.689 999.689
          999.689 999.689 999.689 999.689 999.689 999.689 999.689 999.689 999.689 999.689 999.689 999.689
          999.689 999.689 999.689 999.689 999.689 999.689 999.689 999.689 999.689 999.689 999.689 999.689
          999.689 999.689 999.689 999.689 999.689 999.689 999.689 999.689 999.689 999.689 999.689 999.689
          999.689 999.689 999.689 999.689 999.689 999.689 999.689 999.689 999.689 999.689 999.689 999.689
          999.689 999.689 999.689 999.689 999.689 999.689 999.689 999.689 999.689 999.689 999.689 999.689
          999.689 999.689 999.689 999.689 999.689 999.689 999.689 999.689 999.689 999.689 999.689 999.689
          999.689 999.689 999.689 999.689 999.689 999.689 999.689 999.689 999.689 999.689 999.689 999.689
          999.689 999.689 999.689 999.689 999.689 999.689 999.689 999.689 999.689 999.689 999.689 999.689
          999.689 999.689 999.689 999.689 999.689 999.689 999.689 999.689 999.689 999.689 999.689 999.689
          999.689 999.689 999.689 999.689 999.689 999.689 999.689 999.689 999.689 999.689 999.689 999.689
          999.689 999.689 999.689 999.689 999.689 999.689 999.689 999.689 999.689 999.689 999.689 999.689
          999.689 999.689 999.689 999.689 999.689 999.689 999.689 999.689 999.689 999.689 999.689 999.689
          999.689 999.689 999.689 999.689 999.689 999.689 999.689 999.689 999.689 999.689 999.689 999.689
          999.689 999.689 999.689 999.689 999.689 999.689 999.689 999.689 999.689 999.689 999.689 999.689
          999.689 999.689 999.689 999.689 999.689 999.689 999.689 999.689 999.689 999.689 999.689 999.689
          999.689 999.689 999.689 999.689 999.689 999.689 999.689 999.689 999.689 999.689 999.689 999.689
          999.689 999.689 999.689 999.689 999.689 999.689 999.689 999.689 999.689 999.689 999.689 999.689
          999.689 999.689 999.689 999.689 999.689 999.689 999.689 999.689 999.689 999.689 999.689 999.689
          999.689 999.689 999.689 999.689 999.689 999.689 999.689 999.689 999.689 999.689 999.689 999.689
          999.689 999.689 999.689 999.689 999.689 999.689 999.689 999.689 999.689 999.689 999.689 999.689
          999.689 999.689 999.689 999.689 999.689 999.689 999.689 999.689 999.689 999.689 999.689 999.689
          999.689 999.689 999.689 999.689 999.689 999.689 999.689 999.689 999.689 999.689 999.689 999.689
          999.689 999.689 999.689 999.689 999.69 999.69 999.69 999.689 999.689 999.689 999.689 999.689
          999.689 999.689 999.689 999.689 999.689 999.689 999.689 999.689 999.689 999.689 999.689 999.689
          999.692 999.692 999.691 999.691 999.69 999.69 999.69 999.69 999.69 999.69 999.69 999.69
          999.689 999.689 999.689 999.689 999.689 999.689 999.689 999.689 999.7 999.699 999.697 999.696
          999.695 999.694 999.693 999.692 999.692 999.692 999.691 999.691 999.691 999.691 999.69 999.69
          999.69 999.69 999.69 999.69 999.728 999.724 999.719 999.714 999.71 999.707 999.704 999.702
          999.701 999.699 999.698 999.697 999.696 999.695 999.694 999.694 999.693 999.693 999.693 999.692
          999.814 999.803 999.788 999.774 999.762 999.752 999.744 999.737 999.732 999.727 999.722 999.719
          999.715 999.713 999.71 999.708 999.706 999.705 999.703 999.702 1000.04 1000.01 999.979 999.948
          999.92 999.895 999.872 999.853 999.836 999.821 999.808 999.796 999.785 999.776 999.768 999.761
          999.754 999.748 999.743 999.74
        </DataArray>
        <DataArray type="Float32" Name="mu" NumberOfComponents="1" format="ascii">
          0.00130753 0.00130753 0.00130753 0.00130753 0.00130753 0.00130753 0.00130753 0.00130753 0.00130753 0.00130753 0.00130753 0.00130753
          0.00130753 0.00130753 0.00130753 0.00130753 0.00130753 0.00130753 0.00130753 0.00130753 0.00130753 0.00130753 0.00130753 0.00130753
          0.00130753 0.00130753 0.00130753 0.00130753 0.00130753 0.00130753 0.00130753 0.00130753 0.00130753 0.00130753 0.00130753 0.00130753
          0.00130753 0.00130753 0.00130753 0.00130753 0.00130753 0.00130753 0.00130753 0.00130753 0.00130753 0.00130753 0.00130753 0.00130753
          0.00130753 0.00130753 0.00130753 0.00130753 0.00130753 0.00130753 0.00130753 0.00130753 0.00130753 0.00130753 0.00130753 0.00130753
          0.00130753 0.00130753 0.00130753 0.00130753 0.00130753 0.00130753 0.00130753 0.00130753 0.00130753 0.00130753 0.00130753 0.00130753
          0.00130753 0.00130753 0.00130753 0.00130753 0.00130753 0.00130753 0.00130753 0.00130753 0.00130753 0.00130753 0.00130753 0.00130753
          0.00130753 0.00130753 0.00130753 0.00130753 0.00130753 0.00130753 0.00130753 0.00130753 0.00130753 0.00130753 0.00130753 0.00130753
          0.00130753 0.00130753 0.00130753 0.00130753 0.00130753 0.00130753 0.00130753 0.00130753 0.00130753 0.00130753 0.00130753 0.00130753
          0.00130753 0.00130753 0.00130753 0.00130753 0.00130753 0.00130753 0.00130753 0.00130753 0.00130753 0.00130753 0.00130753 0.00130753
          0.00130753 0.00130753 0.00130753 0.00130753 0.00130753 0.00130753 0.00130753 0.00130753 0.00130753 0.00130753 0.00130753 0.00130753
          0.00130753 0.00130753 0.00130753 0.00130753 0.00130753 0.00130753 0.00130753 0.00130753 0.00130753 0.00130753 0.00130753 0.00130753
          0.00130753 0.00130753 0.00130753 0.00130753 0.00130753 0.00130753 0.00130753 0.00130753 0.00130753 0.00130753 0.00130753 0.00130753
          0.00130753 0.00130753 0.00130753 0.00130753 0.00130753 0.00130753 0.00130753 0.00130753 0.00130753 0.00130753 0.00130753 0.00130753
          0.00130753 0.00130753 0.00130753 0.00130753 0.00130753 0.00130753 0.00130753 0.00130753 0.00130753 0.00130753 0.00130753 0.00130753
          0.00130753 0.00130753 0.00130753 0.00130753 0.00130753 0.00130753 0.00130753 0.00130753 0.00130753 0.00130753 0.00130753 0.00130753
          0.00130753 0.00130753 0.00130753 0.00130753 0.00130753 0.00130753 0.00130753 0.00130753 0.00130753 0.00130753 0.00130753 0.00130753
          0.00130753 0.00130753 0.00130753 0.00130753 0.00130753 0.00130753 0.00130753 0.00130753 0.00130753 0.00130753 0.00130753 0.00130753
          0.00130753 0.00130753 0.00130753 0.00130753 0.00130753 0.00130753 0.00130753 0.00130753 0.00130753 0.00130753 0.00130753 0.00130753
          0.00130753 0.00130753 0.00130753 0.00130753 0.00130753 0.00130753 0.00130753 0.00130753 0.00130753 0.00130753 0.00130753 0.00130753
          0.00130753 0.00130753 0.00130753 0.00130753 0.00130753 0.00130753 0.00130753 0.00130753 0.00130753 0.00130753 0.00130753 0.00130753
          0.00130753 0.00130753 0.00130753 0.00130753 0.00130753 0.00130753 0.00130753 0.00130753 0.00130753 0.00130753 0.00130753 0.00130753
          0.00130753 0.00130753 0.00130753 0.00130753 0.00130753 0.00130753 0.00130753 0.00130753 0.00130753 0.00130753 0.00130753 0.00130753
          0.00130753 0.00130753 0.00130753 0.00130753 0.00130753 0.00130753 0.00130753 0.00130753 0.00130753 0.00130753 0.00130753 0.00130753
          0.00130753 0.00130753 0.00130753 0.00130753 0.00130753 0.00130753 0.00130753 0.00130753 0.00130753 0.00130753 0.00130753 0.00130753
          0.00130753 0.00130753 0.00130753 0.00130753 0.00130753 0.00130753 0.00130753 0.00130753 0.00130753 0.00130753 0.00130753 0.00130753
          0.00130753 0.00130753 0.00130753 0.00130753 0.00130753 0.00130753 0.00130753 0.00130753 0.00130753 0.00130753 0.00130753 0.00130753
          0.00130753 0.00130753 0.00130753 0.00130753 0.00130753 0.00130753 0.00130753 0.00130753 0.00130753 0.00130753 0.00130753 0.00130753
          0.00130753 0.00130753 0.00130753 0.00130753 0.00130753 0.00130753 0.00130753 0.00130753 0.00130753 0.00130753 0.00130753 0.00130753
          0.00130753 0.00130753 0.00130753 0.00130753 0.00130753 0.00130753 0.00130753 0.00130753 0.00130753 0.00130753 0.00130753 0.00130753
          0.00130753 0.00130753 0.00130753 0.00130753 0.00130753 0.00130753 0.00130753 0.00130753 0.00130753 0.00130753 0.00130753 0.00130753
          0.00130753 0.00130753 0.00130753 0.00130753 0.00130753 0.00130753 0.00130753 0.00130753 0.00130753 0.00130753 0.00130753 0.00130753
          0.00130753 0.00130753 0.00130753 0.00130753 0.00130753 0.00130753 0.00130753 0.00130753 0.00130753 0.00130753 0.00130753 0.00130753
          0.00130753 0.00130753 0.00130753 0.00130753
        </DataArray>
        <DataArray type="Float32" Name="delp" NumberOfComponents="1" format="ascii">
          5.57338e-09 5.55883e-09 5.54428e-09 5.51518e-09 5.48607e-09 5.44242e-09 5.39876e-09 5.34055e-09 5.2969e-09 5.23869e-09 5.18048e-09 5.12227e-09
          5.06407e-09 5.02041e-09 4.9622e-09 4.9331e-09 4.88944e-09 4.86034e-09 4.84579e-09 4.84579e-09 5.57338e-09 5.57338e-09 5.54428e-09 5.52973e-09
          5.48607e-09 5.44242e-09 5.39876e-09 5.34055e-09 5.2969e-09 5.23869e-09 5.18048e-09 5.12227e-09 5.06407e-09 5.00586e-09 4.9622e-09 4.91855e-09
          4.88944e-09 4.86034e-09 4.84579e-09 4.83124e-09 5.60249e-09 5.58794e-09 5.57338e-09 5.54428e-09 5.50062e-09 5.45697e-09 5.41331e-09 5.3551e-09
          5.2969e-09 5.23869e-09 5.18048e-09 5.10772e-09 5.04951e-09 5.00586e-09 4.94765e-09 4.904e-09 4.87489e-09 4.84579e-09 4.81668e-09 4.81668e-09
          5.61704e-09 5.61704e-09 5.58794e-09 5.55883e-09 5.52973e-09 5.47152e-09 5.42786e-09 5.36966e-09 5.2969e-09 5.23869e-09 5.16593e-09 5.10772e-09
          5.04951e-09 4.99131e-09 4.9331e-09 4.88944e-09 4.84579e-09 4.81668e-09 4.80213e-09 4.78758e-09 5.6607e-09 5.64614e-09 5.63159e-09 5.60249e-09
          5.55883e-09 5.50062e-09 5.44242e-09 5.38421e-09 5.31145e-09 5.23869e-09 5.16593e-09 5.09317e-09 5.03496e-09 4.9622e-09 4.904e-09 4.86034e-09
          4.81668e-09 4.78758e-09 4.75848e-09 4.74392e-09 5.70435e-09 5.70435e-09 5.67525e-09 5.63159e-09 5.58794e-09 5.52973e-09 5.47152e-09 5.39876e-09
          5.326e-09 5.23869e-09 5.16593e-09 5.09317e-09 5.00586e-09 4.9331e-09 4.87489e-09 4.81668e-09 4.77303e-09 4.72937e-09 4.71482e-09 4.70027e-09
          5.77711e-09 5.76256e-09 5.73345e-09 5.6898e-09 5.63159e-09 5.57338e-09 5.50062e-09 5.42786e-09 5.34055e-09 5.25324e-09 5.16593e-09 5.07862e-09
          4.99131e-09 4.904e-09 4.83124e-09 4.77303e-09 4.71482e-09 4.67116e-09 4.64206e-09 4.64206e-09 5.84987e-09 5.83532e-09 5.80621e-09 5.74801e-09
          5.6898e-09 5.61704e-09 5.54428e-09 5.45697e-09 5.3551e-09 5.25324e-09 5.15138e-09 5.04951e-09 4.9622e-09 4.87489e-09 4.78758e-09 4.71482e-09
          4.65661e-09 4.61296e-09 4.5693e-09 4.55475e-09 5.93718e-09 5.92263e-09 5.89353e-09 5.83532e-09 5.76256e-09 5.67525e-09 5.58794e-09 5.48607e-09
          5.36966e-09 5.26779e-09 5.15138e-09 5.03496e-09 4.91855e-09 4.81668e-09 4.72937e-09 4.64206e-09 4.5693e-09 4.52565e-09 4.48199e-09 4.46744e-09
          6.0536e-09 6.02449e-09 5.99539e-09 5.92263e-09 5.84987e-09 5.74801e-09 5.64614e-09 5.52973e-09 5.39876e-09 5.26779e-09 5.13683e-09 5.00586e-09
          4.88944e-09 4.75848e-09 4.65661e-09 4.55475e-09 4.48199e-09 4.42378e-09 4.38013e-09 4.35102e-09 6.18456e-09 6.15546e-09 6.1118e-09 6.03904e-09
          5.95173e-09 5.83532e-09 5.70435e-09 5.57338e-09 5.42786e-09 5.28235e-09 5.12227e-09 4.97676e-09 4.83124e-09 4.70027e-09 4.5693e-09 4.46744e-09
          4.36557e-09 4.29281e-09 4.24916e-09 4.22006e-09 6.34464e-09 6.31553e-09 6.25732e-09 6.17001e-09 6.06815e-09 5.93718e-09 5.79166e-09 5.63159e-09
          5.47152e-09 5.2969e-09 5.12227e-09 4.94765e-09 4.77303e-09 4.62751e-09 4.48199e-09 4.35102e-09 4.23461e-09 4.1473e-09 4.08909e-09 4.05998e-09
          6.53381e-09 6.49015e-09 6.43195e-09 6.33008e-09 6.19912e-09 6.0536e-09 5.87897e-09 5.70435e-09 5.50062e-09 5.31145e-09 5.10772e-09 4.904e-09
          4.71482e-09 4.52565e-09 4.36557e-09 4.2055e-09 4.08909e-09 3.98722e-09 3.91447e-09 3.87081e-09 6.75209e-09 6.70843e-09 6.62112e-09 6.50471e-09
          6.35919e-09 6.18456e-09 5.98084e-09 5.77711e-09 5.54428e-09 5.326e-09 5.09317e-09 4.86034e-09 4.64206e-09 4.42378e-09 4.23461e-09 4.04543e-09
          3.89991e-09 3.7835e-09 3.69619e-09 3.65253e-09 7.01402e-09 6.97037e-09 6.8685e-09 6.72298e-09 6.54836e-09 6.33008e-09 6.1118e-09 5.86442e-09
          5.60249e-09 5.34055e-09 5.07862e-09 4.81668e-09 4.55475e-09 4.30737e-09 4.07454e-09 3.87081e-09 3.68163e-09 3.53612e-09 3.43425e-09 3.3906e-09
          7.33417e-09 7.27596e-09 7.14499e-09 6.97037e-09 6.75209e-09 6.50471e-09 6.24277e-09 5.95173e-09 5.6607e-09 5.3551e-09 5.04951e-09 4.75848e-09
          4.45289e-09 4.1764e-09 3.89991e-09 3.65253e-09 3.43425e-09 3.25963e-09 3.12866e-09 3.07045e-09 7.72707e-09 7.63976e-09 7.47968e-09 7.26141e-09
          6.99947e-09 6.70843e-09 6.38829e-09 6.06815e-09 5.7189e-09 5.38421e-09 5.03496e-09 4.68572e-09 4.35102e-09 4.01633e-09 3.69619e-09 3.40515e-09
          3.14321e-09 2.92493e-09 2.76486e-09 2.67755e-09 8.19273e-09 8.07631e-09 7.85803e-09 7.5961e-09 7.27596e-09 6.92671e-09 6.56291e-09 6.18456e-09
          5.79166e-09 5.39876e-09 5.00586e-09 4.61296e-09 4.23461e-09 3.85626e-09 3.47791e-09 3.14321e-09 2.82307e-09 2.53203e-09 2.32831e-09 2.19734e-09
          8.7748e-09 8.60018e-09 8.3237e-09 7.9599e-09 7.58155e-09 7.17409e-09 6.73754e-09 6.31553e-09 5.87897e-09 5.42786e-09 4.99131e-09 4.5402e-09
          4.10364e-09 3.66708e-09 3.24508e-09 2.83762e-09 2.44472e-09 2.08092e-09 1.78989e-09 1.60071e-09 9.54606e-09 9.24047e-09 8.83301e-09 8.3819e-09
          7.90169e-09 7.42148e-09 6.94126e-09 6.4465e-09 5.95173e-09 5.45697e-09 4.9622e-09 4.46744e-09 3.97267e-09 3.47791e-09 2.99769e-09 2.50293e-09
          2.03727e-09 1.57161e-09 1.1496e-09 8.14907e-10
        </DataArray>
        <DataArray type="Float32" Name="x^H2O_liquid" NumberOfComponents="1" format="ascii">
          1 1 1 1 1 1 1 1 1 1 1 1
          1 1 1 1 1 1 1 1 1 1 1 1
          1 1 1 1 1 1 1 1 1 1 1 1
          1 1 1 1 1 1 1 1 1 1 1 1
          1 1 1 1 1 1 1 1 1 1 1 1
          1 1 1 1 1 1 1 1 1 1 1 1
          1 1 1 1 1 1 1 1 1 1 1 1
          1 1 1 1 1 1 1 1 1 1 1 1
          1 1 1 1 1 1 1 1 1 1 1 1
          1 1 1 1 1 1 1 1 1 1 1 1
          1 1 1 1 1 1 1 1 1 1 1 1
          1 1 1 1 1 1 1 1 1 1 1 1
          1 1 1 1 1 1 1 1 1 1 1 1
          1 1 1 1 1 1 1 1 1 1 1 1
          1 1 1 1 1 1 1 1 1 1 1 1
          1 1 1 1 1 1 1 1 1 1 1 1
          1 1 1 1 1 1 1 1 1 1 1 1
          1 1 1 1 1 1 1 1 1 1 1 1
          1 1 1 1 1 1 1 1 1 1 1 1
          1 1 1 1 1 1 1 1 1 1 1 1
          1 1 1 1 1 1 1 1 1 1 1 1
          1 1 1 1 1 1 1 1 1 1 1 1
          1 1 1 1 1 1 1 1 1 1 1 1
          1 1 1 1 0.999999 0.999999 0.999999 0.999999 0.999999 1 1 1
          1 1 1 1 1 1 1 1 1 1 1 1
          0.999995 0.999996 0.999996 0.999997 0.999998 0.999998 0.999998 0.999999 0.999999 0.999999 0.999999 0.999999
          0.999999 0.999999 0.999999 1 1 1 1 1 0.999982 0.999984 0.999986 0.999989
          0.999991 0.999992 0.999993 0.999994 0.999995 0.999996 0.999996 0.999997 0.999997 0.999997 0.999998 0.999998
          0.999998 0.999998 0.999999 0.999999 0.999936 0.999942 0.999951 0.999959 0.999965 0.99997 0.999975 0.999978
          0.999981 0.999983 0.999986 0.999987 0.999989 0.99999 0.999991 0.999992 0.999993 0.999994 0.999994 0.999994
          0.999794 0.999813 0.999837 0.99986 0.999879 0.999896 0.999909 0.99992 0.99993 0.999938 0.999945 0.999951
          0.999957 0.999961 0.999965 0.999969 0.999972 0.999974 0.999977 0.999978 0.999428 0.99947 0.999523 0.999574
          0.99962 0.999662 0.999698 0.99973 0.999758 0.999783 0.999805 0.999824 0.999841 0.999856 0.99987 0.999882
          0.999893 0.999903 0.999911 0.999916
        </DataArray>
        <DataArray type="Float32" Name="x^Air_liquid" NumberOfComponents="1" format="ascii">
          1.50841e-15 1.43417e-15 1.30183e-15 1.13667e-15 9.63829e-16 8.01879e-16 6.60899e-16 5.43893e-16 4.49462e-16 3.74218e-16 3.14368e-16 2.66518e-16
          2.27944e-16 1.96603e-16 1.71046e-16 1.50312e-16 1.33849e-16 1.21425e-16 1.1304e-16 1.088e-16 5.58393e-15 5.29696e-15 4.78887e-15 4.16097e-15
          3.51143e-15 2.90997e-15 2.39201e-15 1.96592e-15 1.62423e-15 1.35301e-15 1.13764e-15 9.65431e-16 8.26446e-16 7.13307e-16 6.20813e-16 5.45551e-16
          4.85579e-16 4.40151e-16 4.0938e-16 3.9378e-16 2.474e-14 2.34161e-14 2.10879e-14 1.82384e-14 1.53235e-14 1.26544e-14 1.03787e-14 8.52154e-15
          7.04045e-15 5.86845e-15 4.93876e-15 4.19517e-15 3.59425e-15 3.10418e-15 2.70261e-15 2.37493e-15 2.11295e-15 1.91378e-15 1.7784e-15 1.70959e-15
          1.1066e-13 1.04491e-13 9.37195e-14 8.06725e-14 6.74814e-14 5.55409e-14 4.5462e-14 3.72999e-14 3.08234e-14 2.5712e-14 2.166e-14 1.84169e-14
          1.57923e-14 1.36478e-14 1.18865e-14 1.04452e-14 9.28902e-15 8.40664e-15 7.80461e-15 7.49777e-15 4.94841e-13 4.66056e-13 4.16199e-13 3.56488e-13
          2.96871e-13 2.43552e-13 1.99003e-13 1.63197e-13 1.34919e-13 1.12649e-13 9.49997e-14 8.08599e-14 6.93982e-14 6.00141e-14 5.22888e-14 4.5949e-14
          4.0845e-14 3.69337e-14 3.42542e-14 3.28842e-14 2.2102e-12 2.07583e-12 1.84517e-12 1.57231e-12 1.30352e-12 1.06613e-12 8.69822e-13 7.13189e-13
          5.90011e-13 4.93162e-13 4.1639e-13 3.54806e-13 3.04797e-13 2.63767e-13 2.29908e-13 2.02039e-13 1.79519e-13 1.62184e-13 1.50255e-13 1.44134e-13
          9.85441e-12 9.22725e-12 8.16141e-12 6.91754e-12 5.70967e-12 4.6567e-12 3.79488e-12 3.112e-12 2.57694e-12 2.15668e-12 1.82332e-12 1.55549e-12
          1.33756e-12 1.15838e-12 1.01014e-12 8.87758e-13 7.88473e-13 7.11686e-13 6.58575e-13 6.31215e-13 4.38249e-11 4.09008e-11 3.59867e-11 3.03361e-11
          2.49321e-11 2.02839e-11 1.65179e-11 1.35529e-11 1.12365e-11 9.4179e-12 7.97361e-12 6.81098e-12 5.86292e-12 5.08162e-12 4.43365e-12 3.89701e-12
          3.45984e-12 3.11997e-12 2.88357e-12 2.76122e-12 1.94198e-10 1.80594e-10 1.5802e-10 1.32479e-10 1.08443e-10 8.80481e-11 7.16851e-11 5.88751e-11
          4.88889e-11 4.10458e-11 3.48063e-11 2.97722e-11 2.56575e-11 2.22584e-11 1.9432e-11 1.70836e-11 1.51622e-11 1.36599e-11 1.26083e-11 1.20612e-11
          8.56207e-10 7.93169e-10 6.90043e-10 5.75392e-10 4.69306e-10 3.80514e-10 3.09924e-10 2.54921e-10 2.12091e-10 1.78413e-10 1.51559e-10 1.29836e-10
          1.12034e-10 9.72904e-11 8.49983e-11 7.47507e-11 6.63273e-11 5.97004e-11 5.50281e-11 5.25819e-11 3.74879e-09 3.45849e-09 2.99117e-09 2.48142e-09
          2.01795e-09 1.63517e-09 1.33335e-09 1.099e-09 9.16503e-10 7.72706e-10 6.5771e-10 5.644e-10 4.87712e-10 4.2403e-10 3.70785e-10 3.26239e-10
          2.89443e-10 2.60297e-10 2.39579e-10 2.2865e-10 1.62575e-08 1.49333e-08 1.284e-08 1.06029e-08 8.60492e-09 6.97557e-09 5.69964e-09 4.7108e-09
          3.93972e-09 3.33026e-09 2.8411e-09 2.44279e-09 2.11438e-09 1.84086e-09 1.61147e-09 1.41885e-09 1.2589e-09 1.13125e-09 1.03966e-09 9.90909e-10
          6.95899e-08 6.36337e-08 5.44087e-08 4.47627e-08 3.62995e-08 2.9476e-08 2.41592e-08 2.00388e-08 1.68163e-08 1.42585e-08 1.21964e-08 1.05104e-08
          9.11527e-09 7.94943e-09 6.96843e-09 6.14139e-09 5.45076e-09 4.89502e-09 4.49189e-09 4.275e-09 2.92613e-07 2.66361e-07 2.26627e-07 1.86019e-07
          1.5099e-07 1.23012e-07 1.01265e-07 8.43739e-08 7.10998e-08 6.05049e-08 5.19177e-08 4.48628e-08 3.89999e-08 3.4082e-08 2.99283e-08 2.64113e-08
          2.34565e-08 2.10568e-08 1.9294e-08 1.83328e-08 1.20072e-06 1.08836e-06 9.22632e-07 7.57148e-07 6.16563e-07 5.04982e-07 4.18181e-07 3.50409e-07
          2.96779e-07 2.53668e-07 2.18497e-07 1.89434e-07 1.6516e-07 1.44705e-07 1.27355e-07 1.12592e-07 1.00106e-07 8.98623e-08 8.22245e-08 7.79894e-08
          4.76424e-06 4.3034e-06 3.64285e-06 2.99807e-06 2.4568e-06 2.02795e-06 1.6926e-06 1.42846e-06 1.21743e-06 1.04623e-06 9.0543e-07 7.88253e-07
          6.89776e-07 6.06336e-07 5.35185e-07 4.74305e-07 4.22435e-07 3.7939e-07 3.46729e-07 3.28224e-07 1.80392e-05 1.62643e-05 1.37987e-05 1.144e-05
          9.4721e-06 7.90528e-06 6.66625e-06 5.67728e-06 4.87675e-06 4.21965e-06 3.67362e-06 3.21512e-06 2.82675e-06 2.49537e-06 2.21094e-06 1.96594e-06
          1.75543e-06 1.57848e-06 1.44138e-06 1.36148e-06 6.39192e-05 5.77085e-05 4.93653e-05 4.14951e-05 3.4904e-05 2.9577e-05 2.52814e-05 2.17848e-05
          1.89033e-05 1.65009e-05 1.44773e-05 1.27579e-05 1.12864e-05 1.00191e-05 8.92208e-06 7.96916e-06 7.14234e-06 6.43694e-06 5.87657e-06 5.53727e-06
          0.000205656 0.000187039 0.0001629 0.000140141 0.00012066 0.000104414 9.08834e-05 7.95406e-05 6.99522e-05 6.17812e-05 5.47682e-05 4.87114e-05
          4.34524e-05 3.88648e-05 3.48472e-05 3.13184e-05 2.82192e-05 2.55291e-05 2.33256e-05 2.19184e-05 0.000571907 0.000529717 0.000477255 0.000426131
          0.000379662 0.000338394 0.000302037 0.000270076 0.000241964 0.000217194 0.000195322 0.000175962 0.000158787 0.000143517 0.000129913 0.000117774
          0.00010694 9.73373e-05 8.9165e-05 8.35209e-05
        </DataArray>
        <DataArray type="Float32" Name="X^H2O_liquid" NumberOfComponents="1" format="ascii">
          1 1 1 1 1 1 1 1 1 1 1 1
          1 1 1 1 1 1 1 1 1 1 1 1
          1 1 1 1 1 1 1 1 1 1 1 1
          1 1 1 1 1 1 1 1 1 1 1 1
          1 1 1 1 1 1 1 1 1 1 1 1
          1 1 1 1 1 1 1 1 1 1 1 1
          1 1 1 1 1 1 1 1 1 1 1 1
          1 1 1 1 1 1 1 1 1 1 1 1
          1 1 1 1 1 1 1 1 1 1 1 1
          1 1 1 1 1 1 1 1 1 1 1 1
          1 1 1 1 1 1 1 1 1 1 1 1
          1 1 1 1 1 1 1 1 1 1 1 1
          1 1 1 1 1 1 1 1 1 1 1 1
          1 1 1 1 1 1 1 1 1 1 1 1
          1 1 1 1 1 1 1 1 1 1 1 1
          1 1 1 1 1 1 1 1 1 1 1 1
          1 1 1 1 1 1 1 1 1 1 1 1
          1 1 1 1 1 1 1 1 1 1 1 1
          1 1 1 1 1 1 1 1 1 1 1 1
          1 1 1 1 1 1 1 1 1 1 1 1
          1 1 1 1 1 1 1 1 1 1 1 1
          1 1 1 1 1 1 1 1 1 1 1 1
          1 1 1 1 1 1 1 1 1 1 1 1
          1 1 1 1 0.999998 0.999998 0.999999 0.999999 0.999999 0.999999 0.999999 0.999999
          1 1 1 1 1 1 1 1 1 1 1 1
          0.999992 0.999993 0.999994 0.999995 0.999996 0.999997 0.999997 0.999998 0.999998 0.999998 0.999999 0.999999
          0.999999 0.999999 0.999999 0.999999 0.999999 0.999999 0.999999 0.999999 0.999971 0.999974 0.999978 0.999982
          0.999985 0.999987 0.999989 0.999991 0.999992 0.999993 0.999994 0.999995 0.999995 0.999996 0.999996 0.999997
          0.999997 0.999997 0.999998 0.999998 0.999897 0.999907 0.999921 0.999933 0.999944 0.999952 0.999959 0.999965
          0.99997 0.999973 0.999977 0.999979 0.999982 0.999984 0.999986 0.999987 0.999988 0.99999 0.999991 0.999991
          0.999669 0.999699 0.999738 0.999775 0.999806 0.999832 0.999854 0.999872 0.999888 0.999901 0.999912 0.999922
          0.99993 0.999938 0.999944 0.99995 0.999955 0.999959 0.999963 0.999965 0.999081 0.999149 0.999233 0.999315
          0.99939 0.999456 0.999515 0.999566 0.999611 0.999651 0.999686 0.999717 0.999745 0.999769 0.999791 0.999811
          0.999828 0.999844 0.999857 0.999866
        </DataArray>
        <DataArray type="Float32" Name="X^Air_liquid" NumberOfComponents="1" format="ascii">
          2.42482e-15 2.30548e-15 2.09274e-15 1.82723e-15 1.54939e-15 1.28905e-15 1.06242e-15 8.74326e-16 7.22526e-16 6.01568e-16 5.05357e-16 4.28436e-16
          3.66427e-16 3.16047e-16 2.74962e-16 2.41632e-16 2.15166e-16 1.95195e-16 1.81716e-16 1.749e-16 8.97636e-15 8.51504e-15 7.69826e-15 6.6889e-15
          5.64474e-15 4.67787e-15 3.84523e-15 3.16028e-15 2.61101e-15 2.17501e-15 1.82879e-15 1.55196e-15 1.32854e-15 1.14666e-15 9.97978e-16 8.76992e-16
          7.80584e-16 7.07558e-16 6.58091e-16 6.33014e-16 3.97703e-14 3.76422e-14 3.38995e-14 2.93188e-14 2.4633e-14 2.03423e-14 1.66841e-14 1.36987e-14
          1.13178e-14 9.43373e-15 7.93923e-15 6.74387e-15 5.77788e-15 4.99007e-15 4.34453e-15 3.81778e-15 3.39664e-15 3.07647e-15 2.85884e-15 2.74822e-15
          1.7789e-13 1.67973e-13 1.50657e-13 1.29684e-13 1.08479e-13 8.92838e-14 7.30817e-14 5.99608e-14 4.95497e-14 4.13329e-14 3.48191e-14 2.96058e-14
          2.53867e-14 2.19393e-14 1.91079e-14 1.67911e-14 1.49324e-14 1.3514e-14 1.25462e-14 1.20529e-14 7.95473e-13 7.492e-13 6.69053e-13 5.73066e-13
          4.7723e-13 3.91518e-13 3.19903e-13 2.62344e-13 2.16887e-13 1.81088e-13 1.52715e-13 1.29985e-13 1.1156e-13 9.64747e-14 8.40559e-14 7.38645e-14
          6.56596e-14 5.93721e-14 5.50647e-14 5.28624e-14 3.55297e-12 3.33697e-12 2.96617e-12 2.52755e-12 2.09546e-12 1.71385e-12 1.39827e-12 1.14647e-12
          9.48462e-13 7.92774e-13 6.6936e-13 5.70363e-13 4.89971e-13 4.24014e-13 3.69584e-13 3.24784e-13 2.88582e-13 2.60717e-13 2.4154e-13 2.31701e-13
          1.58413e-11 1.48331e-11 1.31197e-11 1.11202e-11 9.17848e-12 7.48581e-12 6.10039e-12 5.00264e-12 4.14251e-12 3.46694e-12 2.93105e-12 2.5005e-12
          2.15018e-12 1.86213e-12 1.62383e-12 1.4271e-12 1.2675e-12 1.14406e-12 1.05868e-12 1.0147e-12 7.045e-11 6.57493e-11 5.78499e-11 4.87664e-11
          4.00792e-11 3.26071e-11 2.65531e-11 2.17867e-11 1.80631e-11 1.51396e-11 1.28178e-11 1.09489e-11 9.42484e-12 8.16888e-12 7.12724e-12 6.26457e-12
          5.56181e-12 5.01546e-12 4.63543e-12 4.43876e-12 3.12179e-10 2.90311e-10 2.54023e-10 2.12964e-10 1.74325e-10 1.4154e-10 1.15236e-10 9.46436e-11
          7.85906e-11 6.59825e-11 5.59523e-11 4.78599e-11 4.12452e-11 3.5781e-11 3.12375e-11 2.74625e-11 2.43737e-11 2.19587e-11 2.02683e-11 1.93887e-11
          1.37638e-09 1.27504e-09 1.10927e-09 9.24961e-10 7.54426e-10 6.11688e-10 4.98213e-10 4.09793e-10 3.40943e-10 2.86805e-10 2.43636e-10 2.08716e-10
          1.80098e-10 1.56398e-10 1.36638e-10 1.20164e-10 1.06623e-10 9.59705e-11 8.84596e-11 8.45271e-11 6.0263e-09 5.55964e-09 4.80841e-09 3.98897e-09
          3.24391e-09 2.62859e-09 2.14341e-09 1.76668e-09 1.47331e-09 1.24215e-09 1.05729e-09 9.07291e-10 7.84013e-10 6.81643e-10 5.96049e-10 5.24441e-10
          4.6529e-10 4.18437e-10 3.85131e-10 3.67563e-10 2.61345e-08 2.40058e-08 2.06407e-08 1.70445e-08 1.38327e-08 1.12135e-08 9.16236e-09 7.57277e-09
          6.33323e-09 5.35351e-09 4.56717e-09 3.92687e-09 3.39894e-09 2.95925e-09 2.59049e-09 2.28085e-09 2.02372e-09 1.81853e-09 1.67128e-09 1.59292e-09
          1.11868e-07 1.02293e-07 8.74637e-08 7.19576e-08 5.83526e-08 4.73836e-08 3.88367e-08 3.22131e-08 2.70328e-08 2.2921e-08 1.96062e-08 1.68959e-08
          1.46531e-08 1.2779e-08 1.1202e-08 9.87248e-09 8.76228e-09 7.86891e-09 7.22085e-09 6.87221e-09 4.70385e-07 4.28184e-07 3.64311e-07 2.99031e-07
          2.42721e-07 1.97745e-07 1.62787e-07 1.35634e-07 1.14295e-07 9.72637e-08 8.34595e-08 7.21184e-08 6.26936e-08 5.47879e-08 4.81108e-08 4.2457e-08