<?xml version="1.0"?>
<VTKFile type="UnstructuredGrid" version="0.1" byte_order="LittleEndian">
  <UnstructuredGrid>
    <Piece NumberOfCells="64" NumberOfPoints="81">
      <CellData Scalars="S_liq">
        <DataArray type="Float32" Name="S_liq" NumberOfComponents="1" format="ascii">
          0.757367 0.757367 0.757367 0.757367 0.757367 0.757367 0.757367 0.757366 0.177389 0.177389 0.177388 0.177387
          0.177386 0.177385 0.177385 0.177384 0.0609536 0.0609544 0.060955 0.0609553 0.0609554 0.0609554 0.0609553 0.0609553
          0.0330594 0.0330687 0.0330771 0.0330836 0.0330887 0.0330926 0.0330953 0.0330962 0.0221615 0.0221936 0.02222 0.0222401
          0.022256 0.0222686 0.0222775 0.0222801 0.0158513 0.0159238 0.0159774 0.016018 0.0160501 0.016076 0.0160951 0.0160997
          0.00952268 0.00977474 0.00993802 0.0100599 0.010156 0.0102335 0.0102917 0.0103039 0 0 0 0
          0 0 0 0
        </DataArray>
        <DataArray type="Float32" Name="p_liq" NumberOfComponents="1" format="ascii">
          98643.2 98643.2 98643.2 98643.2 98643.2 98643.2 98643.2 98643.2 97934.8 97934.8 97934.8 97934.8
          97934.8 97934.8 97934.7 97934.7 97461.9 97461.9 97461.9 97461.9 97461.9 97461.9 97461.9 97461.9
          97138.2 97138.4 97138.5 97138.6 97138.7 97138.8 97138.9 97138.9 96886.1 96887.1 96887.9 96888.5
          96889 96889.4 96889.7 96889.8 96632.6 96636.4 96639.2 96641.3 96643 96644.3 96645.3 96645.5
          96261.2 96276.1 96285.8 96293 96298.6 96303.2 96306.7 96307.4 95697.5 95697.5 95697.5 95697.5
          95697.5 95697.5 95697.5 95697.5
        </DataArray>
        <DataArray type="Float32" Name="rho_liq" NumberOfComponents="1" format="ascii">
          999.417 999.418 999.42 999.422 999.424 999.426 999.428 999.429 999.39 999.392 999.396 999.401
          999.405 999.41 999.413 999.414 999.349 999.355 999.363 999.373 999.382 999.39 999.395 999.398
          999.306 999.317 999.332 999.348 999.362 999.373 999.381 999.385 999.267 999.285 999.307 999.329
          999.347 999.362 999.372 999.376 999.233 999.26 999.289 999.315 999.337 999.354 999.366 999.37
          999.197 999.242 999.277 999.306 999.33 999.349 999.362 999.366 261.41 312.954 348.853 377.424
          401.518 422.241 438.949 442.11
        </DataArray>
        <DataArray type="Float32" Name="mob_liq" NumberOfComponents="1" format="ascii">
          325.897 325.827 325.702 325.542 325.375 325.224 325.111 325.051 4.38166 4.37931 4.37525 4.37032
          4.36538 4.36109 4.35798 4.35635 0.178676 0.178456 0.178097 0.17769 0.177303 0.176983 0.176758 0.176643
          0.0253697 0.0253288 0.0252578 0.0251793 0.0251073 0.0250494 0.0250099 0.0249896 0.00633578 0.00634188 0.00633508 0.00632351
          0.0063121 0.00630323 0.00629776 0.0062938 0.00173727 0.0017591 0.00177122 0.00177872 0.00178418 0.00178878 0.00179264 0.00179279
          0.000145552 0.000168481 0.000183824 0.000195612 0.00020516 0.000213081 0.000219209 0.000220415 0 0 0 0
          0 0 0 0
        </DataArray>
        <DataArray type="Float32" Name="S_gas" NumberOfComponents="1" format="ascii">
          0.242633 0.242633 0.242633 0.242633 0.242633 0.242633 0.242633 0.242634 0.822611 0.822611 0.822612 0.822613
          0.822614 0.822615 0.822615 0.822616 0.939046 0.939046 0.939045 0.939045 0.939045 0.939045 0.939045 0.939045
          0.966941 0.966931 0.966923 0.966916 0.966911 0.966907 0.966905 0.966904 0.977839 0.977806 0.97778 0.97776
          0.977744 0.977731 0.977722 0.97772 0.984149 0.984076 0.984023 0.983982 0.98395 0.983924 0.983905 0.9839
          0.990477 0.990225 0.990062 0.98994 0.989844 0.989766 0.989708 0.989696 1 1 1 1
          1 1 1 1
        </DataArray>
        <DataArray type="Float32" Name="p_gas" NumberOfComponents="1" format="ascii">
          100002 100002 100002 100002 100002 100002 100002 100002 100002 100002 100002 100002
          100002 100002 100002 100002 100001 100001 100001 100001 100001 100001 100001 100001
          100001 100001 100001 100001 100001 100001 100001 100001 100000 100000 100000 100000
          100000 100000 100000 100000 100000 100000 100000 100000 100000 100000 100000 100000
          100000 100000 100000 100000 100000 100000 100000 100000 100000 100000 100000 100000
          100000 100000 100000 100000
        </DataArray>
        <DataArray type="Float32" Name="rho_gas" NumberOfComponents="1" format="ascii">
          1.21217 1.2122 1.21227 1.21235 1.21244 1.21251 1.21257 1.2126 1.21108 1.21117 1.21133 1.21151
          1.2117 1.21186 1.21198 1.21204 1.20949 1.2097 1.21004 1.21042 1.21078 1.21108 1.2113 1.2114
          1.2078 1.20822 1.20881 1.20943 1.20999 1.21044 1.21075 1.2109 1.20627 1.20697 1.20785 1.20869
          1.20941 1.20999 1.21038 1.21055 1.20498 1.20602 1.20715 1.20817 1.20902 1.20969 1.21014 1.21032
          1.20393 1.20533 1.20666 1.20781 1.20875 1.20949 1.20999 1.21017 1.20866 1.20989 1.21103 1.212
          1.21278 1.21339 1.21379 1.21393
        </DataArray>
        <DataArray type="Float32" Name="mob_gas" NumberOfComponents="1" format="ascii">
          2932.84 2932.9 2932.99 2933.12 2933.25 2933.36 2933.45 2933.5 40431.8 40433.6 40436.8 40440.6
          40444.5 40447.9 40450.3 40451.6 52415.1 52420.5 52429.4 52439.4 52448.9 52456.8 52462.3 52465.2
          55209.8 55220.6 55236.5 55253.1 55268.2 55280.3 55288.6 55292.7 55896.3 55914.3 55937.6 55960.1
          55979.6 55995 56005.4 56010.1 56142.1 56168.6 56198.6 56225.8 56248.6 56266.6 56278.6 56283.5
          56277.1 56310.6 56345.6 56375.8 56400.8 56420.4 56433.5 56438.2 55961.8 56038.3 56101 56152.1
          56194 56227.4 56251.2 56257.6
        </DataArray>
        <DataArray type="Float32" Name="pc" NumberOfComponents="1" format="ascii">
          1359.18 1359.18 1359.18 1359.18 1359.18 1359.18 1359.18 1359.18 2066.81 2066.82 2066.82 2066.82
          2066.82 2066.82 2066.83 2066.83 2539.07 2539.06 2539.06 2539.05 2539.05 2539.05 2539.05 2539.05
          2862.39 2862.23 2862.08 2861.96 2861.88 2861.81 2861.76 2861.74 3114.25 3113.25 3112.44 3111.82
          3111.33 3110.94 3110.66 3110.59 3367.64 3363.82 3361.01 3358.9 3357.24 3355.9 3354.91 3354.68
          3738.91 3723.99 3714.33 3707.12 3701.43 3696.84 3693.4 3692.67 4302.49 4302.49 4302.49 4302.49
          4302.49 4302.49 4302.49 4302.49
        </DataArray>
        <DataArray type="Float32" Name="porosity" NumberOfComponents="1" format="ascii">
          0.41 0.41 0.41 0.41 0.41 0.41 0.41 0.41 0.41 0.41 0.41 0.41
          0.41 0.41 0.41 0.41 0.41 0.41 0.41 0.41 0.41 0.41 0.41 0.41
          0.41 0.41 0.41 0.41 0.41 0.41 0.41 0.41 0.41 0.41 0.41 0.41
          0.41 0.41 0.41 0.41 0.41 0.41 0.41 0.41 0.41 0.41 0.41 0.41
          0.41 0.41 0.41 0.41 0.41 0.41 0.41 0.41 0.41 0.41 0.41 0.41
          0.41 0.41 0.41 0.41
        </DataArray>
        <DataArray type="Float32" Name="x^H2O_liq" NumberOfComponents="1" format="ascii">
          0.999983 0.999983 0.999983 0.999983 0.999983 0.999983 0.999983 0.999983 0.999983 0.999983 0.999983 0.999983
          0.999983 0.999983 0.999983 0.999983 0.999983 0.999983 0.999983 0.999983 0.999983 0.999983 0.999983 0.999983
          0.999983 0.999983 0.999983 0.999983 0.999983 0.999983 0.999983 0.999983 0.999983 0.999983 0.999983 0.999983
          0.999983 0.999983 0.999983 0.999983 0.999983 0.999983 0.999983 0.999983 0.999983 0.999983 0.999983 0.999983
          0.999983 0.999983 0.999983 0.999983 0.999983 0.999983 0.999983 0.999983 0.261603 0.313173 0.349085 0.377665
          0.401766 0.422495 0.439207 0.442369
        </DataArray>
        <DataArray type="Float32" Name="X^H2O_liq" NumberOfComponents="1" format="ascii">
          0.999972 0.999972 0.999972 0.999972 0.999972 0.999972 0.999972 0.999972 0.999973 0.999973 0.999973 0.999973
          0.999973 0.999973 0.999972 0.999972 0.999973 0.999973 0.999973 0.999973 0.999973 0.999973 0.999973 0.999973
          0.999973 0.999973 0.999973 0.999973 0.999973 0.999973 0.999973 0.999973 0.999973 0.999973 0.999973 0.999973
          0.999973 0.999973 0.999973 0.999973 0.999973 0.999973 0.999973 0.999973 0.999973 0.999973 0.999973 0.999973
          0.999973 0.999973 0.999973 0.999973 0.999973 0.999973 0.999973 0.999973 0.261593 0.313162 0.349075 0.377655
          0.401755 0.422485 0.439197 0.442358
        </DataArray>
        <DataArray type="Float32" Name="x^Air_liq" NumberOfComponents="1" format="ascii">
          1.71342e-05 1.71371e-05 1.71424e-05 1.71491e-05 1.71562e-05 1.71626e-05 1.71674e-05 1.717e-05 1.70469e-05 1.7054e-05 1.70665e-05 1.70816e-05
          1.70968e-05 1.711e-05 1.71196e-05 1.71246e-05 1.6919e-05 1.69358e-05 1.6963e-05 1.69937e-05 1.70229e-05 1.70473e-05 1.70645e-05 1.70733e-05
          1.67848e-05 1.68178e-05 1.68653e-05 1.69148e-05 1.69595e-05 1.69956e-05 1.70205e-05 1.70326e-05 1.66647e-05 1.67196e-05 1.67889e-05 1.68555e-05
          1.69134e-05 1.69594e-05 1.69907e-05 1.70047e-05 1.65652e-05 1.66454e-05 1.6734e-05 1.68141e-05 1.68819e-05 1.69354e-05 1.69717e-05 1.69863e-05
          1.64854e-05 1.6592e-05 1.66959e-05 1.67857e-05 1.68605e-05 1.69196e-05 1.69599e-05 1.6974e-05 1.66248e-05 1.67391e-05 1.68431e-05 1.69308e-05
          1.70031e-05 1.706e-05 1.70986e-05 1.71106e-05
        </DataArray>
        <DataArray type="Float32" Name="X^Air_liq" NumberOfComponents="1" format="ascii">
          2.75434e-05 2.75481e-05 2.75567e-05 2.75675e-05 2.75789e-05 2.75892e-05 2.75969e-05 2.7601e-05 2.74032e-05 2.74146e-05 2.74346e-05 2.74589e-05
          2.74833e-05 2.75046e-05 2.752e-05 2.75281e-05 2.71975e-05 2.72246e-05 2.72683e-05 2.73176e-05 2.73647e-05 2.74039e-05 2.74315e-05 2.74456e-05
          2.69819e-05 2.70349e-05 2.71113e-05 2.71908e-05 2.72627e-05 2.73207e-05 2.73607e-05 2.73801e-05 2.67888e-05 2.6877e-05 2.69884e-05 2.70956e-05
          2.71886e-05 2.72625e-05 2.73128e-05 2.73353e-05 2.66289e-05 2.67578e-05 2.69002e-05 2.7029e-05 2.71379e-05 2.7224e-05 2.72823e-05 2.73057e-05
          2.65005e-05 2.66719e-05 2.68389e-05 2.69833e-05 2.71036e-05 2.71986e-05 2.72633e-05 2.72859e-05 2.67239e-05 2.69077e-05 2.70751e-05 2.72161e-05
          2.73324e-05 2.74239e-05 2.7486e-05 2.75052e-05
        </DataArray>
        <DataArray type="Float32" Name="rhoMolar_liq" NumberOfComponents="1" format="ascii">
          55475.8 55475.9 55476 55476.1 55476.2 55476.3 55476.4 55476.4 55474.3 55474.4 55474.6 55474.9
          55475.2 55475.4 55475.6 55475.6 55472 55472.3 55472.8 55473.4 55473.9 55474.3 55474.6 55474.8
          55469.6 55470.2 55471.1 55472 55472.8 55473.4 55473.8 55474 55467.5 55468.5 55469.7 55470.9
          55471.9 55472.7 55473.3 55473.5 55465.6 55467.1 55468.7 55470.2 55471.4 55472.3 55473 55473.2
          55463.6 55466.1 55468 55469.6 55471 55472 55472.7 55473 55462 55465.3 55467.5 55469.3
          55470.7 55471.8 55472.6 55472.8
        </DataArray>
        <DataArray type="Float32" Name="x^H2O_gas" NumberOfComponents="1" format="ascii">
          0.014685 0.0146778 0.0146647 0.014648 0.0146304 0.0146147 0.0146028 0.0145965 0.014902 0.0148842 0.0148531 0.0148155
          0.0147776 0.0147448 0.0147209 0.0147083 0.0152244 0.0151816 0.0151129 0.0150354 0.0149619 0.0149008 0.0148577 0.0148359
          0.0155677 0.0154828 0.0153609 0.0152348 0.0151216 0.0150305 0.0149679 0.0149377 0.0158798 0.0157366 0.0155572 0.0153859
          0.0152383 0.0151217 0.0150429 0.0150076 0.016143 0.0159304 0.015699 0.015492 0.0153185 0.0151823 0.0150905 0.0150539
          0.0164004 0.016071 0.0157983 0.0155652 0.0153731 0.0152224 0.0151203 0.0150849 0.00434613 0.00506885 0.00554032 0.00589847
          0.00619205 0.00644311 0.0066493 0.00668262
        </DataArray>
        <DataArray type="Float32" Name="X^H2O_gas" NumberOfComponents="1" format="ascii">
          0.00918611 0.00918155 0.00917331 0.00916282 0.00915178 0.00914185 0.00913442 0.00913044 0.00932264 0.00931139 0.00929185 0.00926817
          0.00924435 0.0092237 0.00920866 0.00920078 0.00952545 0.00949855 0.00945528 0.00940654 0.00936028 0.00932185 0.00929476 0.009281
          0.00974151 0.00968809 0.00961139 0.00953204 0.00946076 0.00940345 0.00936409 0.00934504 0.009938 0.00984787 0.00973489 0.00962709
          0.00953421 0.00946086 0.00941124 0.00938905 0.0101037 0.00996984 0.00982421 0.00969391 0.00958469 0.009499 0.00944123 0.00941818
          0.0102658 0.0100584 0.00988668 0.00973998 0.00961905 0.00952424 0.00945999 0.00943767 0.00270805 0.00315924 0.00345371 0.00367747
          0.00386093 0.00401786 0.00414676 0.00416759
        </DataArray>
        <DataArray type="Float32" Name="x^Air_gas" NumberOfComponents="1" format="ascii">
          0.985315 0.985322 0.985335 0.985352 0.98537 0.985385 0.985397 0.985403 0.985098 0.985116 0.985147 0.985185
          0.985222 0.985255 0.985279 0.985292 0.984776 0.984818 0.984887 0.984965 0.985038 0.985099 0.985142 0.985164
          0.984432 0.984517 0.984639 0.984765 0.984878 0.984969 0.985032 0.985062 0.98412 0.984263 0.984443 0.984614
          0.984762 0.984878 0.984957 0.984992 0.983857 0.98407 0.984301 0.984508 0.984681 0.984818 0.984909 0.984946
          0.9836 0.983929 0.984202 0.984435 0.984627 0.984778 0.98488 0.984915 0.995654 0.994931 0.99446 0.994102
          0.993808 0.993557 0.993351 0.993317
        </DataArray>
        <DataArray type="Float32" Name="X^Air_gas" NumberOfComponents="1" format="ascii">
          0.990814 0.990818 0.990827 0.990837 0.990848 0.990858 0.990866 0.99087 0.990677 0.990689 0.990708 0.990732
          0.990756 0.990776 0.990791 0.990799 0.990475 0.990501 0.990545 0.990593 0.99064 0.990678 0.990705 0.990719
          0.990259 0.990312 0.990389 0.990468 0.990539 0.990597 0.990636 0.990655 0.990062 0.990152 0.990265 0.990373
          0.990466 0.990539 0.990589 0.990611 0.989896 0.99003 0.990176 0.990306 0.990415 0.990501 0.990559 0.990582
          0.989734 0.989942 0.990113 0.99026 0.990381 0.990476 0.99054 0.990562 0.997292 0.996841 0.996546 0.996323
          0.996139 0.995982 0.995853 0.995832
        </DataArray>
        <DataArray type="Float32" Name="rhoMolar_gas" NumberOfComponents="1" format="ascii">
          42.0904 42.0915 42.0936 42.0962 42.0989 42.1013 42.1032 42.1042 42.0563 42.0591 42.0639 42.0698
          42.0757 42.0808 42.0845 42.0864 42.0061 42.0127 42.0234 42.0354 42.0468 42.0563 42.063 42.0664
          41.9529 41.966 41.9848 42.0043 42.0219 42.036 42.0457 42.0504 41.9046 41.9267 41.9544 41.9809
          42.0037 42.0218 42.034 42.0395 41.8642 41.8967 41.9324 41.9644 41.9912 42.0123 42.0265 42.0322
          41.8318 41.875 41.917 41.953 41.9827 42.006 42.0219 42.0274 41.8044 41.8581 41.9052 41.9443
          41.9761 42.0012 42.0184 42.0235
        </DataArray>
        <DataArray type="Float32" Name="phase presence" NumberOfComponents="1" format="ascii">
          3 3 3 3 3 3 3 3 3 3 3 3
          3 3 3 3 3 3 3 3 3 3 3 3
          3 3 3 3 3 3 3 3 3 3 3 3
          3 3 3 3 3 3 3 3 3 3 3 3
          3 3 3 3 3 3 3 3 2 2 2 2
          2 2 2 2
        </DataArray>
        <DataArray type="Float32" Name="T" NumberOfComponents="1" format="ascii">
          285.759 285.751 285.737 285.72 285.701 285.684 285.672 285.665 285.988 285.969 285.936 285.896
          285.856 285.822 285.796 285.783 286.328 286.283 286.21 286.129 286.051 285.986 285.941 285.918
          286.691 286.601 286.472 286.339 286.219 286.123 286.057 286.025 287.02 286.869 286.68 286.499
          286.343 286.22 286.136 286.099 287.297 287.074 286.829 286.611 286.427 286.284 286.187 286.148
          287.519 287.222 286.934 286.688 286.485 286.326 286.218 286.181 287.703 287.333 287.011 286.744
          286.526 286.355 286.238 286.203
        </DataArray>
        <DataArray type="Float32" Name="process rank" NumberOfComponents="1" format="ascii">
          0 0 0 0 0 0 0 0 0 0 0 0
          0 0 0 0 0 0 0 0 0 0 0 0
          0 0 0 0 0 0 0 0 0 0 0 0
          0 0 0 0 0 0 0 0 0 0 0 0
          0 0 0 0 0 0 0 0 0 0 0 0
          0 0 0 0
        </DataArray>
      </CellData>
      <Points>
        <DataArray type="Float32" Name="Coordinates" NumberOfComponents="3" format="ascii">
          0 0 0 0.03125 0 0 0 0.0867169 0 0.03125 0.0867169 0
          0.0625 0 0 0.0625 0.0867169 0 0.09375 0 0 0.09375 0.0867169 0
          0.125 0 0 0.125 0.0867169 0 0.15625 0 0 0.15625 0.0867169 0
          0.1875 0 0 0.1875 0.0867169 0 0.21875 0 0 0.21875 0.0867169 0
          0.25 0 0 0.25 0.0867169 0 0 0.144528 0 0.03125 0.144528 0
          0.0625 0.144528 0 0.09375 0.144528 0 0.125 0.144528 0 0.15625 0.144528 0
          0.1875 0.144528 0 0.21875 0.144528 0 0.25 0.144528 0 0 0.183069 0
          0.03125 0.183069 0 0.0625 0.183069 0 0.09375 0.183069 0 0.125 0.183069 0
          0.15625 0.183069 0 0.1875 0.183069 0 0.21875 0.183069 0 0.25 0.183069 0
          0 0.208763 0 0.03125 0.208763 0 0.0625 0.208763 0 0.09375 0.208763 0
          0.125 0.208763 0 0.15625 0.208763 0 0.1875 0.208763 0 0.21875 0.208763 0
          0.25 0.208763 0 0 0.225892 0 0.03125 0.225892 0 0.0625 0.225892 0
          0.09375 0.225892 0 0.125 0.225892 0 0.15625 0.225892 0 0.1875 0.225892 0
          0.21875 0.225892 0 0.25 0.225892 0 0 0.237312 0 0.03125 0.237312 0
          0.0625 0.237312 0 0.09375 0.237312 0 0.125 0.237312 0 0.15625 0.237312 0
          0.1875 0.237312 0 0.21875 0.237312 0 0.25 0.237312 0 0 0.244925 0
          0.03125 0.244925 0 0.0625 0.244925 0 0.09375 0.244925 0 0.125 0.244925 0
          0.15625 0.244925 0 0.1875 0.244925 0 0.21875 0.244925 0 0.25 0.244925 0
          0 0.25 0 0.03125 0.25 0 0.0625 0.25 0 0.09375 0.25 0
          0.125 0.25 0 0.15625 0.25 0 0.1875 0.25 0 0.21875 0.25 0
          0.25 0.25 0
        </DataArray>
      </Points>
      <Cells>
        <DataArray type="Int32" Name="connectivity" NumberOfComponents="1" format="ascii">
          0 1 3 2 1 4 5 3 4 6 7 5
          6 8 9 7 8 10 11 9 10 12 13 11
          12 14 15 13 14 16 17 15 2 3 19 18
          3 5 20 19 5 7 21 20 7 9 22 21
          9 11 23 22 11 13 24 23 13 15 25 24
          15 17 26 25 18 19 28 27 19 20 29 28
          20 21 30 29 21 22 31 30 22 23 32 31
          23 24 33 32 24 25 34 33 25 26 35 34
          27 28 37 36 28 29 38 37 29 30 39 38
          30 31 40 39 31 32 41 40 32 33 42 41
          33 34 43 42 34 35 44 43 36 37 46 45
          37 38 47 46 38 39 48 47 39 40 49 48
          40 41 50 49 41 42 51 50 42 43 52 51
          43 44 53 52 45 46 55 54 46 47 56 55
          47 48 57 56 48 49 58 57 49 50 59 58
          50 51 60 59 51 52 61 60 52 53 62 61
          54 55 64 63 55 56 65 64 56 57 66 65
          57 58 67 66 58 59 68 67 59 60 69 68
          60 61 70 69 61 62 71 70 63 64 73 72
          64 65 74 73 65 66 75 74 66 67 76 75
          67 68 77 76 68 69 78 77 69 70 79 78
          70 71 80 79
        </DataArray>
        <DataArray type="Int32" Name="offsets" NumberOfComponents="1" format="ascii">
          4 8 12 16 20 24 28 32 36 40 44 48
          52 56 60 64 68 72 76 80 84 88 92 96
          100 104 108 112 116 120 124 128 132 136 140 144
          148 152 156 160 164 168 172 176 180 184 188 192
          196 200 204 208 212 216 220 224 228 232 236 240
          244 248 252 256
        </DataArray>
        <DataArray type="UInt8" Name="types" NumberOfComponents="1" format="ascii">
          9 9 9 9 9 9 9 9 9 9 9 9
          9 9 9 9 9 9 9 9 9 9 9 9
          9 9 9 9 9 9 9 9 9 9 9 9
          9 9 9 9 9 9 9 9 9 9 9 9
          9 9 9 9 9 9 9 9 9 9 9 9
          9 9 9 9
        </DataArray>
      </Cells>
    </Piece>
  </UnstructuredGrid>
</VTKFile>
