<?xml version="1.0"?>
<VTKFile type="UnstructuredGrid" version="0.1" byte_order="LittleEndian">
  <UnstructuredGrid>
    <Piece NumberOfCells="64" NumberOfPoints="125">
      <CellData Scalars="S_liq">
        <DataArray type="Float32" Name="S_liq" NumberOfComponents="1" format="ascii">
          1 1 1 1 1 1 1 1 1 1 1 1
          1 1 1 1 1 1 1 1 1 0.999999 0.999999 1
          1 0.999999 0.999999 1 1 1 1 1 1 1 1 1
          1 0.999999 0.999999 1 1 0.999999 0.999999 1 1 1 1 1
          1 1 1 1 1 1 1 1 1 1 1 1
          1 1 1 1
        </DataArray>
        <DataArray type="Float32" Name="p_liq" NumberOfComponents="1" format="ascii">
          1.33158e+07 1.22817e+07 1.22817e+07 1.33158e+07 1.22817e+07 1.08534e+07 1.08534e+07 1.22817e+07 1.22817e+07 1.08534e+07 1.08534e+07 1.22817e+07
          1.33158e+07 1.22817e+07 1.22817e+07 1.33158e+07 1.42344e+07 1.39939e+07 1.39939e+07 1.42344e+07 1.39939e+07 1.40106e+07 1.40106e+07 1.39939e+07
          1.39939e+07 1.40106e+07 1.40106e+07 1.39939e+07 1.42344e+07 1.39939e+07 1.39939e+07 1.42344e+07 1.57732e+07 1.6016e+07 1.6016e+07 1.57732e+07
          1.6016e+07 1.59998e+07 1.59998e+07 1.6016e+07 1.6016e+07 1.59998e+07 1.59998e+07 1.6016e+07 1.57732e+07 1.6016e+07 1.6016e+07 1.57732e+07
          1.66941e+07 1.77385e+07 1.77385e+07 1.66941e+07 1.77385e+07 1.91842e+07 1.91842e+07 1.77385e+07 1.77385e+07 1.91842e+07 1.91842e+07 1.77385e+07
          1.66941e+07 1.77385e+07 1.77385e+07 1.66941e+07
        </DataArray>
        <DataArray type="Float32" Name="rho_liq" NumberOfComponents="1" format="ascii">
          1076.87 1076.39 1076.39 1076.87 1076.39 1075.72 1075.72 1076.39 1076.39 1075.72 1075.72 1076.39
          1076.87 1076.39 1076.39 1076.87 1077.29 1077.18 1077.18 1077.29 1077.18 1077.19 1077.19 1077.18
          1077.18 1077.19 1077.19 1077.18 1077.29 1077.18 1077.18 1077.29 1078 1078.11 1078.11 1078
          1078.11 1078.1 1078.1 1078.11 1078.11 1078.1 1078.1 1078.11 1078 1078.11 1078.11 1078
          1078.42 1078.9 1078.9 1078.42 1078.9 1079.56 1079.56 1078.9 1078.9 1079.56 1079.56 1078.9
          1078.42 1078.9 1078.9 1078.42
        </DataArray>
        <DataArray type="Float32" Name="mob_liq" NumberOfComponents="1" format="ascii">
          692.437 692.437 692.437 692.437 692.437 692.437 692.437 692.437 692.437 692.437 692.437 692.437
          692.437 692.437 692.437 692.437 692.437 692.437 692.437 692.437 692.437 692.437 692.437 692.437
          692.437 692.437 692.437 692.437 692.437 692.437 692.437 692.437 692.437 692.437 692.437 692.437
          692.437 692.437 692.437 692.437 692.437 692.437 692.437 692.437 692.437 692.437 692.437 692.437
          692.437 692.437 692.437 692.437 692.437 692.437 692.437 692.437 692.437 692.437 692.437 692.437
          692.437 692.437 692.437 692.437
        </DataArray>
        <DataArray type="Float32" Name="S_gas" NumberOfComponents="1" format="ascii">
          0 0 0 0 0 0 0 0 0 0 0 0
          0 0 0 0 0 0 0 0 0 6.83979e-07 6.83979e-07 0
          0 6.83979e-07 6.83979e-07 0 0 0 0 0 0 0 0 0
          0 6.7429e-07 6.7429e-07 0 0 6.7429e-07 6.7429e-07 0 0 0 0 0
          0 0 0 0 0 0 0 0 0 0 0 0
          0 0 0 0
        </DataArray>
        <DataArray type="Float32" Name="p_gas" NumberOfComponents="1" format="ascii">
          1.33334e+07 1.22993e+07 1.22993e+07 1.33334e+07 1.22993e+07 1.08709e+07 1.08709e+07 1.22993e+07 1.22993e+07 1.08709e+07 1.08709e+07 1.22993e+07
          1.33334e+07 1.22993e+07 1.22993e+07 1.33334e+07 1.4252e+07 1.40115e+07 1.40115e+07 1.4252e+07 1.40115e+07 1.40282e+07 1.40282e+07 1.40115e+07
          1.40115e+07 1.40282e+07 1.40282e+07 1.40115e+07 1.4252e+07 1.40115e+07 1.40115e+07 1.4252e+07 1.57908e+07 1.60336e+07 1.60336e+07 1.57908e+07
          1.60336e+07 1.60174e+07 1.60174e+07 1.60336e+07 1.60336e+07 1.60174e+07 1.60174e+07 1.60336e+07 1.57908e+07 1.60336e+07 1.60336e+07 1.57908e+07
          1.67117e+07 1.7756e+07 1.7756e+07 1.67117e+07 1.7756e+07 1.92017e+07 1.92017e+07 1.7756e+07 1.7756e+07 1.92017e+07 1.92017e+07 1.7756e+07
          1.67117e+07 1.7756e+07 1.7756e+07 1.67117e+07
        </DataArray>
        <DataArray type="Float32" Name="rho_gas" NumberOfComponents="1" format="ascii">
          908.08 899.669 899.669 908.08 899.669 886.802 886.802 899.669 899.669 886.802 886.802 899.669
          908.08 899.669 899.669 908.08 915.039 913.259 913.259 915.039 913.259 913.384 913.384 913.259
          913.259 913.384 913.384 913.259 915.039 913.259 913.259 915.039 925.794 927.403 927.403 925.794
          927.403 927.296 927.296 927.403 927.403 927.296 927.296 927.403 925.794 927.403 927.403 925.794
          931.778 938.211 938.211 931.778 938.211 946.58 946.58 938.211 938.211 946.58 946.58 938.211
          931.778 938.211 938.211 931.778
        </DataArray>
        <DataArray type="Float32" Name="mob_gas" NumberOfComponents="1" format="ascii">
          0 0 0 0 0 0 0 0 0 0 0 0
          0 0 0 0 0 0 0 0 0 0 0 0
          0 0 0 0 0 0 0 0 0 0 0 0
          0 0 0 0 0 0 0 0 0 0 0 0
          0 0 0 0 0 0 0 0 0 0 0 0
          0 0 0 0
        </DataArray>
        <DataArray type="Float32" Name="pc" NumberOfComponents="1" format="ascii">
          17569.9 17569.9 17569.9 17569.9 17569.9 17569.9 17569.9 17569.9 17569.9 17569.9 17569.9 17569.9
          17569.9 17569.9 17569.9 17569.9 17569.9 17569.9 17569.9 17569.9 17569.9 17569.9 17569.9 17569.9
          17569.9 17569.9 17569.9 17569.9 17569.9 17569.9 17569.9 17569.9 17569.9 17569.9 17569.9 17569.9
          17569.9 17569.9 17569.9 17569.9 17569.9 17569.9 17569.9 17569.9 17569.9 17569.9 17569.9 17569.9
          17569.9 17569.9 17569.9 17569.9 17569.9 17569.9 17569.9 17569.9 17569.9 17569.9 17569.9 17569.9
          17569.9 17569.9 17569.9 17569.9
        </DataArray>
        <DataArray type="Float32" Name="porosity" NumberOfComponents="1" format="ascii">
          0.200144 0.200233 0.200233 0.200144 0.200233 0.200357 0.200357 0.200233 0.200233 0.200357 0.200357 0.200233
          0.200144 0.200233 0.200233 0.200144 0.200066 0.200086 0.200086 0.200066 0.200086 0.200085 0.200085 0.200086
          0.200086 0.200085 0.200085 0.200086 0.200066 0.200086 0.200086 0.200066 0.199934 0.199913 0.199913 0.199934
          0.199913 0.199915 0.199915 0.199913 0.199913 0.199915 0.199915 0.199913 0.199934 0.199913 0.199913 0.199934
          0.199855 0.199767 0.199767 0.199855 0.199767 0.199644 0.199644 0.199767 0.199767 0.199644 0.199644 0.199767
          0.199855 0.199767 0.199767 0.199855
        </DataArray>
        <DataArray type="Float32" Name="process rank" NumberOfComponents="1" format="ascii">
          0 0 0 0 0 0 0 0 0 0 0 0
          0 0 0 0 0 0 0 0 0 0 0 0
          0 0 0 0 0 0 0 0 0 0 0 0
          0 0 0 0 0 0 0 0 0 0 0 0
          0 0 0 0 0 0 0 0 0 0 0 0
          0 0 0 0
        </DataArray>
      </CellData>
      <Points>
        <DataArray type="Float32" Name="Coordinates" NumberOfComponents="3" format="ascii">
          0 0 0 250 0 0 0 250 0 250 250 0
          0 0 250 250 0 250 0 250 250 250 250 250
          500 0 0 500 250 0 500 0 250 500 250 250
          750 0 0 750 250 0 750 0 250 750 250 250
          1000 0 0 1000 250 0 1000 0 250 1000 250 250
          0 500 0 250 500 0 0 500 250 250 500 250
          500 500 0 500 500 250 750 500 0 750 500 250
          1000 500 0 1000 500 250 0 750 0 250 750 0
          0 750 250 250 750 250 500 750 0 500 750 250
          750 750 0 750 750 250 1000 750 0 1000 750 250
          0 1000 0 250 1000 0 0 1000 250 250 1000 250
          500 1000 0 500 1000 250 750 1000 0 750 1000 250
          1000 1000 0 1000 1000 250 0 0 500 250 0 500
          0 250 500 250 250 500 500 0 500 500 250 500
          750 0 500 750 250 500 1000 0 500 1000 250 500
          0 500 500 250 500 500 500 500 500 750 500 500
          1000 500 500 0 750 500 250 750 500 500 750 500
          750 750 500 1000 750 500 0 1000 500 250 1000 500
          500 1000 500 750 1000 500 1000 1000 500 0 0 750
          250 0 750 0 250 750 250 250 750 500 0 750
          500 250 750 750 0 750 750 250 750 1000 0 750
          1000 250 750 0 500 750 250 500 750 500 500 750
          750 500 750 1000 500 750 0 750 750 250 750 750
          500 750 750 750 750 750 1000 750 750 0 1000 750
          250 1000 750 500 1000 750 750 1000 750 1000 1000 750
          0 0 1000 250 0 1000 0 250 1000 250 250 1000
          500 0 1000 500 250 1000 750 0 1000 750 250 1000
          1000 0 1000 1000 250 1000 0 500 1000 250 500 1000
          500 500 1000 750 500 1000 1000 500 1000 0 750 1000
          250 750 1000 500 750 1000 750 750 1000 1000 750 1000
          0 1000 1000 250 1000 1000 500 1000 1000 750 1000 1000
          1000 1000 1000
        </DataArray>
      </Points>
      <Cells>
        <DataArray type="Int32" Name="connectivity" NumberOfComponents="1" format="ascii">
          0 1 3 2 4 5 7 6 1 8 9 3
          5 10 11 7 8 12 13 9 10 14 15 11
          12 16 17 13 14 18 19 15 2 3 21 20
          6 7 23 22 3 9 24 21 7 11 25 23
          9 13 26 24 11 15 27 25 13 17 28 26
          15 19 29 27 20 21 31 30 22 23 33 32
          21 24 34 31 23 25 35 33 24 26 36 34
          25 27 37 35 26 28 38 36 27 29 39 37
          30 31 41 40 32 33 43 42 31 34 44 41
          33 35 45 43 34 36 46 44 35 37 47 45
          36 38 48 46 37 39 49 47 4 5 7 6
          50 51 53 52 5 10 11 7 51 54 55 53
          10 14 15 11 54 56 57 55 14 18 19 15
          56 58 59 57 6 7 23 22 52 53 61 60
          7 11 25 23 53 55 62 61 11 15 27 25
          55 57 63 62 15 19 29 27 57 59 64 63
          22 23 33 32 60 61 66 65 23 25 35 33
          61 62 67 66 25 27 37 35 62 63 68 67
          27 29 39 37 63 64 69 68 32 33 43 42
          65 66 71 70 33 35 45 43 66 67 72 71
          35 37 47 45 67 68 73 72 37 39 49 47
          68 69 74 73 50 51 53 52 75 76 78 77
          51 54 55 53 76 79 80 78 54 56 57 55
          79 81 82 80 56 58 59 57 81 83 84 82
          52 53 61 60 77 78 86 85 53 55 62 61
          78 80 87 86 55 57 63 62 80 82 88 87
          57 59 64 63 82 84 89 88 60 61 66 65
          85 86 91 90 61 62 67 66 86 87 92 91
          62 63 68 67 87 88 93 92 63 64 69 68
          88 89 94 93 65 66 71 70 90 91 96 95
          66 67 72 71 91 92 97 96 67 68 73 72
          92 93 98 97 68 69 74 73 93 94 99 98
          75 76 78 77 100 101 103 102 76 79 80 78
          101 104 105 103 79 81 82 80 104 106 107 105
          81 83 84 82 106 108 109 107 77 78 86 85
          102 103 111 110 78 80 87 86 103 105 112 111
          80 82 88 87 105 107 113 112 82 84 89 88
          107 109 114 113 85 86 91 90 110 111 116 115
          86 87 92 91 111 112 117 116 87 88 93 92
          112 113 118 117 88 89 94 93 113 114 119 118
          90 91 96 95 115 116 121 120 91 92 97 96
          116 117 122 121 92 93 98 97 117 118 123 122
          93 94 99 98 118 119 124 123
        </DataArray>
        <DataArray type="Int32" Name="offsets" NumberOfComponents="1" format="ascii">
          8 16 24 32 40 48 56 64 72 80 88 96
          104 112 120 128 136 144 152 160 168 176 184 192
          200 208 216 224 232 240 248 256 264 272 280 288
          296 304 312 320 328 336 344 352 360 368 376 384
          392 400 408 416 424 432 440 448 456 464 472 480
          488 496 504 512
        </DataArray>
        <DataArray type="UInt8" Name="types" NumberOfComponents="1" format="ascii">
          12 12 12 12 12 12 12 12 12 12 12 12
          12 12 12 12 12 12 12 12 12 12 12 12
          12 12 12 12 12 12 12 12 12 12 12 12
          12 12 12 12 12 12 12 12 12 12 12 12
          12 12 12 12 12 12 12 12 12 12 12 12
          12 12 12 12
        </DataArray>
      </Cells>
    </Piece>
  </UnstructuredGrid>
</VTKFile>
