<?xml version="1.0"?>
<VTKFile type="UnstructuredGrid" version="0.1" byte_order="LittleEndian">
  <UnstructuredGrid>
    <Piece NumberOfCells="4096" NumberOfPoints="4913">
      <CellData Scalars="wetting potential">
        <DataArray type="Float32" Name="wetting potential" NumberOfComponents="1" format="ascii">
          1.15102 1.43974 1.68365 1.85314 1.92843 1.90023 1.77074 1.5538 1.39652 1.34582 1.29433 1.24205
          1.18908 1.13556 1.08159 1.02726 1.13844 1.40765 1.64206 1.81033 1.89055 1.87098 1.75076 1.53992
          1.38412 1.33281 1.2816 1.23047 1.17934 1.12812 1.07685 1.02557 1.09868 1.29179 1.47167 1.62211
          1.72831 1.77993 1.77112 1.69996 1.62031 1.56024 1.49224 1.41694 1.33464 1.24567 1.15053 1.05051
          1.04123 1.12274 1.20524 1.28809 1.36962 1.44761 1.51984 1.58437 1.64126 1.67848 1.67739 1.63322
          1.54676 1.42235 1.26725 1.09103 1.02266 1.06757 1.11218 1.15612 1.19935 1.24181 1.28319 1.32334
          1.40798 1.51163 1.56461 1.5631 1.50748 1.40286 1.25914 1.08912 1.02366 1.07035 1.11658 1.16161
          1.20481 1.24552 1.28303 1.31683 1.36367 1.40929 1.42213 1.40209 1.3509 1.27242 1.17266 1.05859
          1.01977 1.05775 1.09472 1.12978 1.16212 1.19092 1.21539 1.23522 1.25283 1.26229 1.25583 1.23418
          1.19864 1.1512 1.09459 1.03153 1.00935 1.02585 1.0415 1.05563 1.06776 1.07743 1.0843 1.08802
          1.08875 1.08634 1.08037 1.07116 1.05908 1.04436 1.02746 1.00866 0.992822 0.975823 0.959495 0.944407
          0.931333 0.920913 0.91369 0.910124 0.910587 0.914861 0.922196 0.932682 0.94575 0.960298 0.975689 0.99128
          0.970851 0.910142 0.853829 0.805253 0.767626 0.743431 0.734422 0.742048 0.758912 0.778506 0.80391 0.834778
          0.868907 0.904902 0.942168 0.980204 0.944656 0.832892 0.732332 0.650936 0.595464 0.570507 0.578546 0.621571
          0.66697 0.702944 0.745418 0.790417 0.836171 0.882228 0.928699 0.975809 0.915801 0.749521 0.605008 0.496494
          0.434628 0.425498 0.470091 0.573217 0.667357 0.717003 0.764476 0.809554 0.852794 0.894977 0.936806 0.97877
          0.914325 0.743797 0.59066 0.466722 0.380145 0.336345 0.337711 0.385774 0.447106 0.501025 0.562444 0.630324
          0.703973 0.782862 0.866576 0.954638 0.950793 0.851362 0.753455 0.659694 0.571902 0.491669 0.420679 0.359903
          0.293297 0.238097 0.231679 0.277632 0.374235 0.515706 0.692862 0.894177 0.974738 0.924277 0.873931 0.823837
          0.774142 0.725002 0.676587 0.629001 0.488176 0.295533 0.179841 0.15375 0.220237 0.372117 0.592903 0.858696
          0.974499 0.923452 0.872604 0.822185 0.772388 0.723384 0.675311 0.628063 0.480493 0.277947 0.15558 0.126558
          0.194118 0.350787 0.579263 0.854311 1.15881 1.4656 1.72779 1.91112 1.99332 1.96365 1.8241 1.59043
          1.42259 1.36841 1.31348 1.25778 1.20139 1.14443 1.08697 1.02907 1.14034 1.42112 1.67477 1.86107
          1.95273 1.93445 1.80407 1.57422 1.40543 1.35141 1.29727 1.24323 1.18919 1.13513 1.08109 1.02701
          1.09636 1.28932 1.47726 1.63963 1.75667 1.81385 1.80329 1.72427 1.63719 1.57273 1.50214 1.4253
          1.34212 1.25224 1.1554 1.05234 1.03967 1.11801 1.19999 1.28673 1.37619 1.46427 1.54644 1.61785
          1.67613 1.70637 1.69694 1.64872 1.56088 1.43545 1.2773 1.09451 1.02548 1.07577 1.12568 1.17511
          1.22438 1.27358 1.32211 1.36752 1.45458 1.55667 1.60274 1.59418 1.53229 1.42181 1.27176 1.09325
          1.02576 1.07695 1.12826 1.17869 1.22741 1.27338 1.31508 1.35091 1.39727 1.44115 1.45019 1.42555
          1.36968 1.28645 1.18152 1.06115 1.02195 1.06379 1.10473 1.14389 1.18006 1.21183 1.23798 1.25771
          1.27352 1.28077 1.2715 1.24707 1.20891 1.15883 1.09919 1.03258 1.01144 1.03087 1.04887 1.06497
          1.07842 1.08839 1.09434 1.0961 1.0945 1.09 1.08252 1.07252 1.06016 1.04526 1.02787 1.0084
          0.994732 0.979266 0.96289 0.946737 0.931643 0.918305 0.907541 0.900531 0.89871 0.902247 0.910152 0.922444
          0.937956 0.954893 0.972336 0.989902 0.972885 0.912475 0.853322 0.8 0.756389 0.725707 0.710871 0.714738
          0.730585 0.75169 0.780563 0.816146 0.855072 0.895338 0.936391 0.978144 0.947629 0.83604 0.730125 0.64009
          0.574281 0.538892 0.539026 0.5799 0.627692 0.668843 0.718037 0.769706 0.821207 0.87197 0.922502 0.973639
          0.921201 0.757206 0.606027 0.485781 0.409615 0.385874 0.419715 0.526113 0.632248 0.689661 0.744115 0.794923
          0.842613 0.888247 0.932882 0.977433 0.919699 0.753229 0.597825 0.469054 0.376226 0.325353 0.319385 0.362711
          0.423712 0.479736 0.543643 0.614211 0.690573 0.772317 0.859457 0.952018 0.950641 0.849172 0.747968 0.650793
          0.560131 0.477934 0.40592 0.344143 0.276432 0.220707 0.212977 0.256767 0.352168 0.494866 0.676841 0.887666
          0.973012 0.919087 0.865151 0.811285 0.757631 0.704379 0.651823 0.600726 0.457558 0.262291 0.146211 0.121469
          0.191199 0.348389 0.576603 0.852276 0.973872 0.921365 0.868887 0.81678 0.765273 0.714537 0.664641 0.615422
          0.462842 0.254336 0.128834 0.0994159 0.16933 0.330851 0.566215 0.849615 1.15247 1.44699 1.69844 1.87371
          1.95106 1.92031 1.78412 1.5602 1.40105 1.34965 1.29755 1.24472 1.19123 1.13718 1.08265 1.02764
          1.13552 1.40861 1.65642 1.83717 1.92299 1.89976 1.7662 1.53942 1.3801 1.32999 1.27953 1.22892
          1.17818 1.12729 1.07635 1.02541 1.09367 1.28412 1.47323 1.63728 1.75488 1.81227 1.8008 1.71924
          1.63057 1.56672 1.49675 1.42051 1.33805 1.24921 1.1537 1.05189 1.03937 1.11653 1.19775 1.28515
          1.37658 1.46789 1.55387 1.62906 1.69022 1.72042 1.7074 1.65546 1.56604 1.44029 1.28147 1.09628
          1.02755 1.08176 1.13559 1.1894 1.24385 1.29885 1.35271 1.40154 1.49143 1.59195 1.63159 1.61672
          1.54979 1.43521 1.28076 1.09632 1.02767 1.0832 1.13945 1.19523 1.2495 1.30055 1.34574 1.38333
          1.42945 1.46972 1.47373 1.44426 1.38407 1.29693 1.18805 1.06327 1.02343 1.06853 1.11323 1.15639
          1.19627 1.2307 1.25784 1.27696 1.29064 1.2948 1.28244 1.25532 1.21499 1.16306 1.10162 1.03328
          1.01246 1.03387 1.05383 1.0718 1.08655 1.0967 1.10151 1.10135 1.09763 1.0912 1.08243 1.0718
          1.05928 1.04444 1.0272 1.00809 0.995499 0.980969 0.96474 0.948168 0.931941 0.916615 0.90335 0.894154
          0.891097 0.894368 0.902846 0.916239 0.93305 0.951318 0.970099 0.989123 0.974172 0.914846 0.854638 0.798889
          0.751923 0.717535 0.699628 0.702178 0.718521 0.741083 0.771796 0.809198 0.849846 0.891699 0.934234 0.977436
          0.951033 0.843087 0.736105 0.641994 0.570653 0.530048 0.527262 0.569093 0.619875 0.662896 0.713469 0.76632
          0.818871 0.870501 0.921703 0.973384 0.929367 0.775364 0.6242 0.497792 0.41331 0.38253 0.414725 0.525614
          0.634658 0.691849 0.746204 0.797012 0.844624 0.889989 0.934113 0.977904 0.92847 0.773532 0.619421 0.485397
          0.384731 0.325466 0.313401 0.355162 0.416916 0.473172 0.537662 0.609234 0.686868 0.769902 0.858152 0.951599
          0.95267 0.8541 0.754307 0.657183 0.565616 0.481416 0.406036 0.339433 0.266678 0.208181 0.199801 0.243469
          0.339052 0.482915 0.667798 0.884043 0.971489 0.914686 0.858 0.801444 0.74515 0.689365 0.634593 0.581925
          0.436302 0.237828 0.120731 0.0963695 0.167914 0.328744 0.562705 0.846813 0.973201 0.919137 0.864907 0.810963
          0.757574 0.704917 0.653077 0.60203 0.445129 0.231842 0.103892 0.0743841 0.146571 0.312543 0.554149 0.845226
          1.12972 1.37967 1.59265 1.74084 1.80527 1.77686 1.65864 1.46841 1.33497 1.29199 1.24846 1.20435
          1.15972 1.11463 1.06915 1.02318 1.11761 1.35471 1.56968 1.72645 1.79825 1.77152 1.6475 1.44719
          1.3127 1.27141 1.22985 1.18814 1.14629 1.10434 1.06241 1.02069 1.08614 1.26391 1.44211 1.59852
          1.70909 1.75987 1.74563 1.6663 1.58353 1.52639 1.46324 1.39365 1.31751 1.23472 1.14515 1.04913
          1.04005 1.11825 1.20035 1.2892 1.38145 1.47256 1.55803 1.63188 1.69097 1.72044 1.70729 1.65427
          1.56435 1.43937 1.28171 1.0968 1.02914 1.08649 1.1437 1.20159 1.26092 1.32108 1.3795 1.43167
          1.52328 1.62063 1.6545 1.63408 1.56258 1.44458 1.28692 1.09849 1.02925 1.08834 1.14877 1.20921
          1.26823 1.32326 1.37093 1.40941 1.45397 1.48978 1.48875 1.45513 1.39172 1.30214 1.19114 1.06422
          1.02438 1.07179 1.11944 1.16581 1.20846 1.24444 1.27158 1.28948 1.30055 1.30126 1.28601 1.25684
          1.21526 1.16272 1.1011 1.03299 1.01276 1.035 1.05617 1.07538 1.09077 1.10044 1.10375 1.10164
          1.096 1.088 1.07837 1.06754 1.05535 1.0412 1.02495 1.00724 0.995668 0.981479 0.965506 0.948944
          0.932104 0.915432 0.900536 0.890114 0.886524 0.889819 0.898712 0.912735 0.930234 0.949187 0.968693 0.98861
          0.975508 0.918392 0.859352 0.803838 0.75622 0.720679 0.701902 0.704493 0.721336 0.744351 0.775368 0.812764
          0.853054 0.894199 0.935781 0.977974 0.955716 0.855641 0.753318 0.661059 0.589518 0.54799 0.544888 0.586993
          0.637756 0.680096 0.729394 0.780424 0.830602 0.879311 0.927113 0.975181 0.940377 0.804957 0.664653 0.541441
          0.455566 0.422634 0.453647 0.562164 0.667579 0.72194 0.773048 0.820155 0.86356 0.904186 0.943052 0.981036
          0.939668 0.803196 0.659072 0.52559 0.420803 0.356727 0.340269 0.379057 0.43802 0.491394 0.553051 0.621873
          0.696867 0.777296 0.862805 0.953214 0.955403 0.861458 0.764762 0.668332 0.575783 0.48965 0.411279 0.341416
          0.265534 0.204067 0.193933 0.237091 0.332683 0.477039 0.663231 0.882093 0.970192 0.911081 0.852391 0.794044
          0.736099 0.678792 0.62267 0.568767 0.420093 0.21812 0.09972 0.0755711 0.148589 0.312367 0.551074 0.842292
          0.97257 0.917049 0.861201 0.805588 0.750532 0.696241 0.642851 0.59043 0.430003 0.212604 0.0825717 0.0529218
          0.126937 0.296619 0.543544 0.841353 1.09223 1.26923 1.41956 1.52419 1.56924 1.54738 1.46067 1.32481
          1.23164 1.20181 1.17168 1.14119 1.11039 1.07932 1.04799 1.01617 1.08601 1.25915 1.41563 1.53033
          1.58325 1.5597 1.45946 1.30617 1.21003 1.18198 1.15382 1.12559 1.09731 1.06903 1.04098 1.01345
          1.07177 1.22325 1.37616 1.51218 1.61252 1.65814 1.64311 1.57228 1.50128 1.45485 1.40273 1.34442
          1.27961 1.20799 1.12934 1.04397 1.04108 1.12162 1.20523 1.29473 1.38697 1.47566 1.55602 1.62362
          1.67811 1.70649 1.69452 1.64334 1.55517 1.43275 1.27829 1.09612 1.03055 1.0908 1.15143 1.21354
          1.27762 1.34249 1.40502 1.46019 1.55201 1.64412 1.67235 1.64724 1.57175 1.45082 1.2908 1.09989
          1.03039 1.09218 1.15593 1.2201 1.28266 1.34024 1.38897 1.42693 1.46842 1.49931 1.49398 1.45724
          1.39198 1.30157 1.19038 1.06381 1.0247 1.07314 1.12237 1.17043 1.21416 1.25 1.2757 1.2914
          1.29957 1.29723 1.27994 1.24982 1.20838 1.15687 1.09698 1.0314 1.01232 1.03412 1.05527 1.07443
          1.08915 1.09732 1.09863 1.09473 1.08773 1.07889 1.06909 1.05878 1.04768 1.03508 1.02081 1.00573
          0.99538 0.981111 0.965306 0.948788 0.931508 0.913989 0.898357 0.887747 0.884335 0.887886 0.897148 0.911551
          0.929321 0.948412 0.96805 0.988359 0.97716 0.923906 0.868484 0.81591 0.770294 0.736045 0.71828 0.721594
          0.73854 0.761053 0.791063 0.826811 0.864736 0.902871 0.941049 0.979779 0.961889 0.87462 0.783518 0.699854
          0.633884 0.595305 0.593041 0.633366 0.68125 0.720635 0.766047 0.812163 0.856433 0.898355 0.938683 0.97903
          0.95397 0.84574 0.728553 0.621216 0.54236 0.510292 0.537927 0.63652 0.732046 0.780546 0.824819 0.864225
          0.899148 0.930535 0.959433 0.986706 0.952654 0.840304 0.715127 0.59275 0.488998 0.421913 0.401619 0.434167
          0.487049 0.534989 0.590938 0.653752 0.722412 0.796135 0.874505 0.957248 0.958342 0.869709 0.777252 0.683017
          0.590175 0.502682 0.423054 0.352016 0.273954 0.20948 0.196906 0.23841 0.333023 0.476701 0.662512 0.881556
          0.969153 0.908281 0.848178 0.788623 0.729575 0.671154 0.61382 0.558603 0.406503 0.20122 0.0815045 0.0575347
          0.131993 0.298446 0.541284 0.83852 0.972019 0.915239 0.85803 0.801067 0.744704 0.689186 0.634678 0.581251
          0.417848 0.196824 0.0649833 0.0351668 0.110623 0.283314 0.534628 0.8381 1.04377 1.12692 1.19704 1.24582
          1.2665 1.25459 1.2105 1.14491 1.1025 1.08919 1.07582 1.06236 1.04883 1.03525 1.02156 1.00739
          1.04314 1.12956 1.20759 1.265 1.29201 1.27874 1.21888 1.13083 1.08349 1.07186 1.06034 1.04883
          1.03727 1.02579 1.01472 1.00458 1.05088 1.16206 1.27662 1.37973 1.46028 1.50486 1.49827 1.44315
          1.39065 1.35863 1.32112 1.27758 1.2277 1.17106 1.10732 1.0367 1.04177 1.12433 1.20912 1.29755
          1.38706 1.47232 1.54616 1.60389 1.65161 1.6792 1.66936 1.62188 1.53791 1.42016 1.27108 1.09413
          1.0319 1.09503 1.15919 1.22559 1.29414 1.36287 1.42829 1.48538 1.57557 1.66097 1.68386 1.65488
          1.57644 1.45351 1.29223 1.10037 1.03103 1.09443 1.16036 1.22692 1.29135 1.34954 1.39741 1.4332
          1.47042 1.4966 1.4881 1.44954 1.38402 1.29463 1.18541 1.06185 1.02427 1.07217 1.1212 1.16891
          1.21154 1.24525 1.26809 1.28094 1.28647 1.28205 1.26376 1.234 1.19425 1.1455 1.0893 1.02857
          1.01117 1.03112 1.0507 1.06815 1.08072 1.08644 1.08567 1.0806 1.07316 1.06421 1.05498 1.04598
          1.03679 1.02656 1.01517 1.00373 0.994788 0.980166 0.964417 0.947927 0.93047 0.912869 0.897665 0.887942
          0.885244 0.88922 0.898794 0.913303 0.930866 0.949464 0.968527 0.988513 0.979414 0.932089 0.883008 0.836276
          0.795514 0.765092 0.75002 0.754407 0.770857 0.791817 0.819449 0.851804 0.885259 0.918001 0.950219 0.982907
          0.969837 0.900673 0.827695 0.759753 0.705406 0.673642 0.672891 0.70891 0.750784 0.784943 0.823775 0.861776
          0.896528 0.927722 0.956429 0.98491 0.970298 0.897709 0.815239 0.736763 0.675849 0.648108 0.66885 0.749779
          0.829248 0.868638 0.902197 0.929642 0.951576 0.969079 0.983239 0.994891 0.9672 0.884178 0.785485 0.684621
          0.593174 0.525433 0.499262 0.522917 0.565077 0.604594 0.651595 0.704894 0.763482 0.826525 0.893448 0.963804
          0.961267 0.878289 0.790639 0.699983 0.608998 0.521163 0.441092 0.371071 0.292009 0.224276 0.208843 0.24779
          0.340221 0.481895 0.66561 0.882482 0.96837 0.906235 0.84519 0.784816 0.724904 0.665487 0.606935 0.550304
          0.394769 0.186476 0.0655833 0.0417777 0.117616 0.286551 0.533038 0.835358 0.971568 0.913772 0.855498 0.797525
          0.74023 0.68384 0.628527 0.574344 0.408357 0.184221 0.0508467 0.0208809 0.0974951 0.272595 0.527442 0.835492
          0.989299 0.96762 0.949209 0.936544 0.930162 0.929592 0.93396 0.947325 0.961349 0.966161 0.97121 0.9764
          0.981714 0.987164 0.992668 0.997777 0.993418 0.978426 0.966314 0.958883 0.954619 0.951383 0.944098 0.937607
          0.94542 0.95224 0.959456 0.96668 0.973628 0.980355 0.987324 0.995366 1.02504 1.08405 1.14897 1.21083
          1.26293 1.29992 1.31198 1.28688 1.25794 1.24378 1.22419 1.19866 1.16676 1.12785 1.08149 1.02811
          1.04168 1.12455 1.20889 1.29429 1.37777 1.45593 1.52305 1.57134 1.61189 1.63946 1.63274 1.59038
          1.51261 1.40162 1.26003 1.09073 1.03305 1.09857 1.16599 1.23636 1.30865 1.37998 1.44631 1.50319
          1.58943 1.66799 1.68641 1.65454 1.57459 1.45117 1.29027 1.09953 1.03095 1.09454 1.16107 1.22816
          1.29228 1.34883 1.39383 1.42593 1.45831 1.48104 1.47049 1.43156 1.36755 1.28117 1.17619 1.05835
          1.02308 1.06878 1.11559 1.16071 1.20006 1.22995 1.24915 1.25952 1.26361 1.25775 1.23929 1.2111
          1.17439 1.1299 1.07905 1.02492 1.00934 1.02611 1.04268 1.05701 1.06638 1.06936 1.06703 1.06164
          1.0542 1.04563 1.03761 1.03057 1.0239 1.01667 1.0088 1.00156 0.994105 0.979237 0.963804 0.947777
          0.930919 0.914373 0.900712 0.89251 0.890815 0.89526 0.904911 0.919041 0.935759 0.953049 0.970594 0.989245
          0.982643 0.943947 0.904378 0.866727 0.833862 0.809675 0.798532 0.803996 0.819213 0.837354 0.860922 0.888055
          0.914885 0.939707 0.963301 0.987343 0.980045 0.935008 0.88711 0.841746 0.804798 0.783349 0.784742 0.813688
          0.845949 0.872294 0.902127 0.929085 0.950644 0.966987 0.979897 0.992622 0.989651 0.961697 0.924817 0.885635
          0.852474 0.835466 0.846563 0.901002 0.959316 0.988053 1.00781 1.01879 1.02231 1.02022 1.01421 1.00538
          0.983306 0.934617 0.869527 0.797903 0.728709 0.670777 0.63675 0.645362 0.675077 0.703203 0.737744 0.777381
          0.821221 0.86872 0.919501 0.972835 0.964017 0.886909 0.804484 0.718355 0.631461 0.546462 0.467232 0.398758
          0.319347 0.24795 0.229225 0.26493 0.35411 0.492463 0.672485 0.884951 0.967843 0.904901 0.843372 0.782491
          0.72183 0.661397 0.601608 0.543576 0.384955 0.173916 0.0520252 0.0284119 0.105513 0.276682 0.526336 0.832822
          0.971219 0.912654 0.853597 0.794937 0.737039 0.680079 0.624189 0.569422 0.401209 0.174518 0.0399048 0.00982758
          0.0873665 0.264352 0.521948 0.833516 0.933746 0.808949 0.705789 0.634895 0.603097 0.613288 0.664127 0.753279
          0.821997 0.84468 0.867782 0.891224 0.915011 0.93921 0.963791 0.988169 0.93911 0.819551 0.720424 0.652434
          0.620028 0.624879 0.665882 0.742555 0.805914 0.83075 0.856908 0.883316 0.909266 0.934552 0.959665 0.986006
          0.996188 0.994595 1.00282 1.01858 1.03977 1.06332 1.08763 1.10507 1.1122 1.11615 1.11644 1.11171
          1.10076 1.0823 1.05512 1.01944 1.04066 1.12116 1.20191 1.28123 1.35593 1.42314 1.47996 1.52074
          1.55928 1.58883 1.58597 1.54997 1.47997 1.37761 1.24537 1.08595 1.03298 1.09967 1.16964 1.24294
          1.31759 1.39002 1.45544 1.50922 1.58734 1.66109 1.67654 1.64319 1.56357 1.44176 1.28358 1.09683
          1.0303 1.09267 1.15794 1.22329 1.28476 1.3376 1.37814 1.40625 1.43635 1.45628 1.44423 1.4061
          1.34497 1.26318 1.16418 1.05392 1.02114 1.06303 1.10585 1.14655 1.18108 1.20629 1.22204 1.23103
          1.23391 1.22661 1.20868 1.18295 1.15038 1.1114 1.0672 1.02084 1.00698 1.0196 1.03224 1.04274
          1.04864 1.04917 1.04581 1.04014 1.03285 1.02502 1.01861 1.01391 1.01019 1.00636 1.00231 0.999427
          0.993701 0.979363 0.965146 0.950607 0.935524 0.921114 0.909571 0.903221 0.902597 0.907212 0.916415 0.929618
          0.944713 0.95964 0.974519 0.990642 0.987487 0.960875 0.934307 0.908982 0.886721 0.870567 0.86413 0.870062
          0.882669 0.896556 0.91476 0.934928 0.95273 0.96705 0.97957 0.992781 0.993753 0.979741 0.963327 0.945859
          0.930532 0.921984 0.925554 0.94479 0.964163 0.980677 0.998668 1.01066 1.01482 1.01247 1.00657 1.00131
          1.0157 1.04502 1.06327 1.07031 1.07016 1.06881 1.07242 1.09189 1.11971 1.13303 1.13364 1.12255
          1.10215 1.07562 1.04608 1.01561 1.00189 0.993748 0.968777 0.932904 0.891378 0.851395 0.818878 0.805796
          0.814832 0.832 0.852035 0.874155 0.89792 0.923538 0.951889 0.983453 0.966122 0.894691 0.817904 0.737448
          0.656382 0.57735 0.503004 0.437263 0.35586 0.280102 0.257785 0.28964 0.37466 0.508413 0.6832 0.889148
          0.967415 0.904376 0.842977 0.781912 0.720669 0.65929 0.598321 0.539047 0.377654 0.163884 0.0411595 0.0178028
          0.0960665 0.269191 0.521492 0.831099 0.970998 0.911824 0.85224 0.79319 0.734952 0.677647 0.621371 0.566162
          0.396171 0.167508 0.0319513 0.00181074 0.0800551 0.258447 0.518065 0.832154 0.903854 0.724555 0.576881 0.475447
          0.430506 0.446305 0.521081 0.649784 0.748031 0.780103 0.812798 0.846035 0.879828 0.914237 0.94915 0.983538
          0.903123 0.72764 0.586842 0.491036 0.447109 0.457526 0.519994 0.633654 0.724081 0.759042 0.795063 0.831341
          0.867435 0.903352 0.939821 0.978848 0.973477 0.927581 0.895946 0.879864 0.879417 0.893751 0.920472 0.960846
          0.99006 1.00325 1.0208 1.03505 1.0435 1.04398 1.03424 1.01341 1.0364 1.10591 1.17322 1.23759
          1.29677 1.34874 1.39198 1.42503 1.46005 1.48789 1.48924 1.46394 1.40943 1.32536 1.21329 1.075
          1.03204 1.09762 1.16631 1.23709 1.30764 1.37431 1.43229 1.47549 1.54051 1.60409 1.61402 1.58118
          1.50818 1.39761 1.25432 1.08631 1.02779 1.08498 1.1443 1.20256 1.25598 1.30047 1.33322 1.35712
          1.38247 1.39558 1.38177 1.34702 1.29382 1.22362 1.13902 1.0454 1.01749 1.05246 1.08819 1.12154
          1.14891 1.16796 1.17965 1.18585 1.18505 1.1759 1.15957 1.13838 1.11291 1.08308 1.04961 1.01507
          1.00427 1.01218 1.02039 1.02677 1.02926 1.02758 1.02292 1.01672 1.00954 1.00258 0.998089 0.996189
          0.995889 0.995777 0.99582 0.99739 0.993865 0.981154 0.969161 0.957052 0.944545 0.932661 0.923353 0.918721
          0.918841 0.922984 0.931552 0.943616 0.956373 0.968139 0.979602 0.99245 0.992423 0.977577 0.963241 0.949235
          0.936537 0.927445 0.924943 0.930737 0.939614 0.95031 0.964333 0.977554 0.986597 0.991223 0.993907 0.997588
          1.0043 1.01469 1.02224 1.02548 1.0261 1.02712 1.03199 1.04339 1.05599 1.06637 1.07283 1.07152
          1.06152 1.04501 1.02561 1.00766 1.03717 1.10924 1.165 1.20264 1.22407 1.23319 1.23444 1.23156
          1.22967 1.22202 1.20538 1.17861 1.14381 1.10422 1.06302 1.02153 1.01857 1.04379 1.05067 1.04282
          1.02371 0.997849 0.971985 0.949088 0.948278 0.963182 0.969513 0.973273 0.975552 0.977754 0.982394 0.992414
          0.969058 0.905989 0.839268 0.769705 0.69962 0.631201 0.566404 0.507219 0.431183 0.360138 0.338547 0.366156
          0.441668 0.561046 0.717178 0.901107 0.970761 0.912553 0.854217 0.794853 0.734167 0.672457 0.610565 0.549914
          0.380527 0.162237 0.0407262 0.0201473 0.101296 0.276609 0.530034 0.836848 0.970616 0.911661 0.852862 0.79458
          0.736904 0.679895 0.623672 0.568383 0.397598 0.168426 0.0336833 0.00450874 0.0832299 0.261498 0.520508 0.833304
          0.895961 0.70194 0.542023 0.432158 0.383602 0.401023 0.482386 0.622217 0.728154 0.76266 0.797889 0.833778
          0.870298 0.907469 0.945106 0.982162 0.89473 0.70468 0.552394 0.448777 0.401587 0.413529 0.482025 0.60514
          0.704297 0.742027 0.780663 0.819403 0.857986 0.896533 0.935825 0.977657 0.958878 0.888418 0.836037 0.803296
          0.791157 0.799194 0.825668 0.869088 0.899002 0.914819 0.94235 0.971735 0.996018 1.01207 1.01688 1.00862
          1.02683 1.07658 1.12295 1.16624 1.20554 1.2399 1.26873 1.29192 1.31437 1.33155 1.33576 1.32576
          1.29603 1.24236 1.16355 1.0588 1.02934 1.08772 1.1462 1.20395 1.25954 1.31056 1.35387 1.38597
          1.43267 1.47427 1.47525 1.44704 1.39125 1.3073 1.19716 1.06676 1.0222 1.06818 1.11531 1.16027
          1.20005 1.23191 1.25453 1.27023 1.28371 1.28601 1.27075 1.24345 1.20545 1.1566 1.09761 1.03178
          1.01236 1.03712 1.06244 1.08548 1.10331 1.11446 1.11984 1.12088 1.11577 1.1048 1.09131 1.0771
          1.06205 1.04523 1.02662 1.00772 1.00146 1.00448 1.00807 1.01028 1.00941 1.00535 0.999214 0.992481
          0.985515 0.979764 0.977671 0.979088 0.982339 0.985926 0.989984 0.995718 0.994788 0.984928 0.976111 0.967189
          0.957743 0.948647 0.941676 0.938499 0.938816 0.942734 0.950828 0.961014 0.970475 0.978264 0.985667 0.994603
          0.996989 0.992521 0.988438 0.983628 0.978569 0.974999 0.975263 0.980517 0.987785 0.996676 1.00618 1.01249
          1.01355 1.01004 1.00487 1.00117 1.01246 1.03912 1.06127 1.07684 1.08675 1.09328 1.0988 1.10576
          1.11416 1.1178 1.11514 1.1045 1.08585 1.06157 1.03518 1.01075 1.04863 1.13926 1.21005 1.25966
          1.28929 1.30177 1.30218 1.29016 1.26977 1.25037 1.22448 1.19119 1.15198 1.1096 1.06638 1.02272
          1.03098 1.07869 1.10593 1.11586 1.11115 1.09534 1.07393 1.05191 1.05457 1.07111 1.06922 1.05639
          1.0395 1.02172 1.00703 0.999808 0.976186 0.927971 0.877313 0.824447 0.770703 0.717517 0.666057 0.617574
          0.559382 0.508658 0.494754 0.51648 0.573458 0.663343 0.78121 0.922248 0.972776 0.918623 0.864629 0.8103
          0.755315 0.699753 0.644132 0.589309 0.433962 0.238279 0.13506 0.123565 0.201754 0.361999 0.589479 0.859219
          0.973678 0.920629 0.867394 0.81437 0.761755 0.709681 0.658294 0.607776 0.451625 0.242725 0.121804 0.0974519
          0.170734 0.33362 0.568998 0.851076 0.88857 0.680549 0.508846 0.390842 0.338823 0.357882 0.44575 0.596244
          0.709495 0.746338 0.783951 0.822328 0.861414 0.90116 0.941329 0.980898 0.887348 0.683678 0.520086 0.408667
          0.358154 0.371615 0.446179 0.57922 0.686078 0.726201 0.767251 0.808329 0.849255 0.890277 0.932153 0.976474
          0.945353 0.850952 0.778229 0.729006 0.70491 0.706039 0.730947 0.777243 0.814525 0.83698 0.869485 0.909418
          0.948215 0.979155 0.99829 1.00298 1.01472 1.04185 1.06691 1.08992 1.11034 1.12776 1.14199 1.15319
          1.16076 1.16425 1.16756 1.17169 1.16913 1.15056 1.10983 1.042 1.02277 1.06735 1.11071 1.15218
          1.19086 1.22523 1.25328 1.2726 1.29499 1.30863 1.30001 1.27972 1.24773 1.19969 1.1325 1.04638
          1.01487 1.04611 1.07802 1.10763 1.1326 1.15105 1.16215 1.16789 1.16869 1.16029 1.14493 1.12742
          1.10778 1.08395 1.05417 1.01819 1.00664 1.02021 1.03432 1.04658 1.05465 1.05749 1.05611 1.05209
          1.04341 1.03165 1.02201 1.01571 1.01172 1.00836 1.00483 1.00109 0.998952 0.997614 0.997062 0.995532
          0.991648 0.98546 0.978186 0.971196 0.964917 0.960962 0.961602 0.965971 0.972032 0.978558 0.985862 0.994743
          0.996311 0.990385 0.985518 0.980327 0.974339 0.968311 0.963766 0.961987 0.962974 0.967136 0.974007 0.981111
          0.98629 0.989483 0.992452 0.997059 1.00253 1.00969 1.01641 1.02109 1.02378 1.02572 1.0285 1.03327
          1.03898 1.04432 1.04765 1.04615 1.03899 1.02765 1.01524 1.00468 1.02182 1.06561 1.10248 1.13032
          1.14929 1.16083 1.16682 1.16862 1.16843 1.16372 1.15178 1.13212 1.10571 1.07503 1.04313 1.01348
          1.05806 1.16509 1.24949 1.30981 1.34633 1.36082 1.35822 1.3349 1.30074 1.27278 1.23868 1.1994
          1.15656 1.11221 1.0678 1.02314 1.04283 1.11311 1.16077 1.18853 1.19851 1.19319 1.17704 1.1549
          1.15027 1.15946 1.15311 1.12915 1.09552 1.06021 1.02894 1.00683 0.986757 0.958968 0.928088 0.894586
          0.859514 0.823923 0.788661 0.754683 0.718382 0.693104 0.691457 0.707157 0.739854 0.790926 0.85978 0.947939
          0.977055 0.931728 0.887059 0.842754 0.798526 0.754312 0.710353 0.667122 0.546677 0.402557 0.333207 0.332941
          0.397834 0.521527 0.693331 0.894877 0.979225 0.937063 0.894525 0.852144 0.810184 0.768789 0.728069 0.688148
          0.565303 0.402713 0.31112 0.295162 0.354643 0.482908 0.666671 0.885261 0.881715 0.660486 0.477525 0.351734
          0.296426 0.317164 0.411469 0.572169 0.692335 0.731418 0.771284 0.811941 0.853354 0.89543 0.937879 0.979725
          0.88082 0.664438 0.489772 0.370582 0.316777 0.331811 0.412585 0.555652 0.669275 0.711394 0.75458 0.797946
          0.841217 0.884648 0.928955 0.975503 0.932959 0.815568 0.722908 0.657416 0.62127 0.614972 0.637442 0.68604
          0.730682 0.763328 0.803102 0.849186 0.898716 0.943744 0.97754 0.996355 1.00199 1.00522 1.00838 1.01127
          1.01333 1.01431 1.01422 1.01331 1.00673 0.998672 1.00043 1.01446 1.03607 1.05316 1.05281 1.02421
          1.01444 1.04235 1.06891 1.09354 1.11545 1.13337 1.14579 1.15117 1.14755 1.13249 1.11416 1.10196
          1.09493 1.08572 1.06523 1.02565 1.00692 1.02219 1.03799 1.05176 1.06165 1.0663 1.06545 1.06125
          1.04986 1.03169 1.01731 1.01036 1.00959 1.01131 1.01119 1.00496 1.00091 1.00335 1.00638 1.00804
          1.00652 1.00129 0.993579 0.984955 0.973253 0.961515 0.956242 0.957763 0.964344 0.973873 0.984683 0.995082
          0.996904 0.992006 0.98793 0.98317 0.976694 0.968792 0.960708 0.953699 0.948412 0.946526 0.94949 0.955929
          0.963996 0.972891 0.982903 0.994198 0.998521 0.997492 0.997101 0.99597 0.993638 0.990744 0.988515 0.988084
          0.989707 0.993266 0.99771 1.00088 1.00153 1.00034 0.999185 0.999553 1.00882 1.02826 1.04584 1.05991
          1.07011 1.0771 1.08198 1.08559 1.08787 1.08814 1.08461 1.07544 1.06088 1.04292 1.02447 1.00789
          1.03061 1.0906 1.14136 1.18067 1.20776 1.22316 1.22834 1.2231 1.21369 1.20119 1.18101 1.15369
          1.121 1.08544 1.04945 1.01572 1.06583 1.18732 1.28414 1.35398 1.39602 1.41114 1.40337 1.36692
          1.32121 1.28755 1.24775 1.20407 1.1587 1.11328 1.06838 1.02331 1.05387 1.14619 1.21411 1.25935
          1.28376 1.28908 1.27833 1.25549 1.24096 1.23464 1.21776 1.18711 1.14282 1.09347 1.04838 1.01337
          0.99906 0.995239 0.987289 0.975731 0.961557 0.945613 0.928619 0.911506 0.898661 0.896656 0.905025 0.915736
          0.923783 0.932 0.946527 0.97663 0.984538 0.954222 0.924598 0.895387 0.86635 0.837441 0.808808 0.78072
          0.706293 0.62841 0.600629 0.611847 0.656183 0.728845 0.825626 0.939492 0.987031 0.960461 0.933462 0.906544
          0.879933 0.853734 0.828033 0.80294 0.726221 0.627955 0.576046 0.570272 0.609177 0.688199 0.799568 0.931154
          0.875408 0.641812 0.44823 0.315114 0.256766 0.279257 0.379948 0.550434 0.677068 0.718212 0.76013 0.802819
          0.846254 0.890342 0.934771 0.978643 0.875128 0.646989 0.461531 0.334588 0.277491 0.294234 0.381448 0.534506
          0.654289 0.698166 0.743231 0.788693 0.834227 0.879951 0.926449 0.97481 0.92181 0.782722 0.670623 0.589056
          0.540967 0.527049 0.546378 0.596585 0.647464 0.688943 0.737881 0.791481 0.848476 0.905209 0.953994 0.98856
          0.989566 0.969263 0.950729 0.933736 0.91769 0.90243 0.888141 0.875166 0.855579 0.838396 0.841233 0.864125
          0.904173 0.952312 0.991974 1.00482 1.0056 1.01601 1.02519 1.03272 1.03792 1.03968 1.03686 1.02851
          1.00003 0.959261 0.9336 0.929279 0.944661 0.971598 0.996723 1.00428 0.998985 0.99838 0.998234 0.996489
          0.991727 0.983089 0.970805 0.957239 0.934952 0.908596 0.896019 0.899256 0.916046 0.941632 0.969556 0.992037
          0.995517 0.987483 0.980045 0.971719 0.961237 0.948537 0.93511 0.922482 0.908422 0.897223 0.896122 0.904653
          0.920796 0.942156 0.96616 0.989576 0.995339 0.987649 0.980617 0.973105 0.964447 0.95517 0.946525 0.939658