<?xml version="1.0"?>
<VTKFile type="UnstructuredGrid" version="0.1" byte_order="LittleEndian">
  <UnstructuredGrid>
    <Piece NumberOfCells="120" NumberOfPoints="144">
      <CellData Scalars="S_aq">
        <DataArray type="Float32" Name="S_aq" NumberOfComponents="1" format="ascii">
          0.298913 0.269202 0.198019 0.131142 0.120225 0.120019 0.120001 0.12 0.12 0.12 0.12 0.12
          0.12 0.12 0.12 0.193389 0.184764 0.157555 0.12416 0.120271 0.120023 0.120002 0.12 0.12
          0.12 0.12 0.12 0.12 0.12 0.12 0.187489 0.171505 0.15697 0.125382 0.120356 0.120029
          0.120002 0.12 0.12 0.12 0.119999 0.119999 0.119997 0.119999 0.119999 0.184383 0.143585 0.120484
          0.120006 0.120001 0.12 0.12 0.12 0.12 0.12 0.12 0.12 0.119999 0.12 0.12
          0.18088 0.138986 0.120062 0.120001 0.12 0.12 0.12 0.119999 0.120001 0.12 0.12 0.12
          0.12 0.12 0.12 0.176572 0.145076 0.123695 0.120015 0.120001 0.12 0.12 0.12 0.120001
          0.120001 0.120001 0.120001 0.12 0.12 0.119999 0.170802 0.191405 0.184906 0.133198 0.120564 0.12005
          0.120004 0.12 0.119998 0.119999 0.12 0.12 0.12 0.12 0.119999 0.160026 0.16902 0.156827
          0.12691 0.120595 0.120058 0.120005 0.12 0.12 0.12 0.12 0.12 0.12 0.12 0.12
        </DataArray>
        <DataArray type="Float32" Name="p_aq" NumberOfComponents="1" format="ascii">
          99777.2 99740.6 99638.8 99219.3 98842 98830 98824.5 98819.7 98815 98810.5 98806.5 98803.8
          87654.1 87639.6 87628.1 99653.7 99619.8 99512 98984.6 98842.6 98829 98823.4 98818.6 98813.7
          98809 98804.4 98800.5 87648.6 87636.1 87627 99644.4 99581.8 99508.4 99026.7 98844.5 98828.2
          98822.4 98817.4 98812.5 98807.3 98801.6 98793.9 98780 98772.1 98765.6 99647.3 93426.8 87875.6
          87699 87690.9 87685.3 87680 87674.8 87669.4 87663.6 87656.4 87645.5 98773.9 98769.8 98764.9
          99640.8 92924.1 83123.4 83086.9 83079.3 83073.3 83067.7 83062.8 87664.1 87657.8 87650.1 87639.3
          98771 98768.2 98764.3 99623.5 93559.9 84474.3 83087 83074.1 83067.5 83061.3 83055.7 87659.4
          87653.2 87646.4 87637.8 98770.4 98767.6 98764.1 99592.3 99631 99286.9 98829.7 98382 98355.6
          98347.8 98341.6 98796.1 98790.2 98784.3 98778.2 98772 98767.7 98764 99543.5 99565.8 99499
          99069.7 98840.8 98815.6 98807.6 98801.3 98795.2 98789.2 98783.3 98777.4 98771.8 98767.3 98763.6
        </DataArray>
        <DataArray type="Float32" Name="rho_aq" NumberOfComponents="1" format="ascii">
          975.152 981.368 993.283 997.652 998.177 998.225 998.229 998.229 998.229 998.229 998.229 998.229
          998.224 998.224 998.224 975.054 979.551 992.148 997.529 998.166 998.224 998.229 998.229 998.229
          998.229 998.229 998.229 998.224 998.224 998.224 975.189 978.389 990.628 997.325 998.15 998.223
          998.23 998.23 998.23 998.23 998.23 998.23 998.23 998.23 998.23 975.415 995.789 997.984
          998.212 998.237 998.239 998.238 998.237 998.234 998.231 998.229 998.227 998.23 998.23 998.231
          975.43 996.466 998.175 998.257 998.261 998.261 998.261 998.261 998.248 998.241 998.237 998.235
          998.237 998.239 998.242 975.401 995.727 997.952 998.223 998.257 998.261 998.261 998.261 998.256
          998.251 998.249 998.25 998.261 998.26 998.258 975.169 977.902 989.652 996.977 998.142 998.256
          998.267 998.268 998.267 998.266 998.266 998.265 998.262 998.259 998.255 974.978 978.274 989.67
          996.979 998.117 998.233 998.245 998.246 998.246 998.246 998.246 998.246 998.246 998.246 998.245
        </DataArray>
        <DataArray type="Float32" Name="x^H2O_aq" NumberOfComponents="1" format="ascii">
          0.999994 0.999992 0.999989 0.999986 0.999985 0.999985 0.999985 0.999985 0.999985 0.999985 0.999985 0.999985
          0.999985 0.999985 0.999985 0.999994 0.999993 0.999989 0.999986 0.999985 0.999985 0.999985 0.999985 0.999985
          0.999985 0.999985 0.999985 0.999985 0.999985 0.999985 0.999994 0.999993 0.99999 0.999986 0.999985 0.999985
          0.999985 0.999985 0.999985 0.999985 0.999985 0.999985 0.999985 0.999985 0.999985 0.999994 0.999987 0.999984
          0.999983 0.999983 0.999983 0.999983 0.999983 0.999984 0.999984 0.999984 0.999985 0.999985 0.999985 0.999985
          0.999994 0.999986 0.999978 0.999978 0.999978 0.999978 0.999978 0.999978 0.999981 0.999982 0.999983 0.999983
          0.999984 0.999984 0.999983 0.999994 0.999987 0.999978 0.999978 0.999978 0.999978 0.999978 0.999978 0.99998
          0.999981 0.999981 0.999981 0.99998 0.99998 0.99998 0.999994 0.999993 0.999954 0.999977 0.999978 0.999978
          0.999978 0.999978 0.999979 0.999979 0.999979 0.999979 0.999979 0.99998 0.999981 0.999994 0.999993 0.999987
          0.999984 0.999982 0.999982 0.999982 0.999982 0.999982 0.999982 0.999982 0.999982 0.999982 0.999982 0.999983
        </DataArray>
        <DataArray type="Float32" Name="x^mesitylene_aq" NumberOfComponents="1" format="ascii">
          1.02236e-10 3.2696e-10 6.56009e-10 8.46163e-10 9.32543e-10 9.77322e-10 1.02714e-09 1.08268e-09 1.14324e-09 1.20603e-09 1.26611e-09 1.34898e-09
          3.79365e-09 7.1878e-09 8.21572e-09 6.93919e-10 1.62761e-09 4.02501e-09 5.37027e-09 6.13166e-09 6.77721e-09 7.50557e-09 8.25248e-09 8.82827e-09
          8.84556e-09 7.75572e-09 5.50427e-09 1.19435e-08 1.86071e-08 2.07191e-08 1.85797e-09 6.28444e-09 3.14903e-08 5.67655e-08 7.67798e-08 9.55223e-08
          1.1237e-07 1.25976e-07 1.31246e-07 1.23477e-07 9.69232e-08 5.66266e-08 5.61808e-08 5.59745e-08 7.03532e-08 3.19572e-09 4.15567e-07 1.89037e-06
          2.52468e-06 2.6893e-06 2.61275e-06 2.48446e-06 2.28729e-06 1.71913e-06 1.20105e-06 8.13416e-07 5.07834e-07 7.67929e-08 8.33307e-08 3.44453e-07
          5.29577e-09 9.56093e-07 7.11147e-06 6.9134e-06 6.90267e-06 6.90192e-06 6.90172e-06 6.90157e-06 4.27366e-06 3.00575e-06 2.30845e-06 1.9414e-06
          1.23881e-06 1.66971e-06 2.33286e-06 5.34686e-09 9.72582e-07 7.66428e-06 6.99461e-06 6.91167e-06 6.90331e-06 6.90254e-06 6.90239e-06 5.66524e-06
          4.78923e-06 4.35352e-06 4.64342e-06 5.72641e-06 5.53737e-06 5.22772e-06 3.38932e-09 1.0194e-07 3.61667e-05 1.00692e-05 7.20976e-06 6.93137e-06
          6.90479e-06 6.90183e-06 6.76888e-06 6.69455e-06 6.60383e-06 6.39924e-06 5.84283e-06 5.31873e-06 4.72921e-06 1.31232e-09 2.25421e-08 2.75238e-06
          2.96214e-06 2.96876e-06 2.95212e-06 2.93401e-06 2.9166e-06 2.90257e-06 2.88869e-06 2.87504e-06 2.86078e-06 2.84297e-06 2.81749e-06 2.73614e-06
        </DataArray>
        <DataArray type="Float32" Name="x^Air_aq" NumberOfComponents="1" format="ascii">
          5.91537e-06 7.54619e-06 1.10769e-05 1.40278e-05 1.46727e-05 1.47392e-05 1.47445e-05 1.47443e-05 1.47436e-05 1.4743e-05 1.47424e-05 1.47419e-05
          1.47404e-05 1.47382e-05 1.47364e-05 5.88711e-06 7.08484e-06 1.06081e-05 1.38953e-05 1.46572e-05 1.47377e-05 1.47443e-05 1.47441e-05 1.47435e-05
          1.47427e-05 1.4742e-05 1.47414e-05 1.47396e-05 1.47376e-05 1.47362e-05 5.92646e-06 6.78164e-06 1.00637e-05 1.36809e-05 1.46339e-05 1.47356e-05
          1.47437e-05 1.47436e-05 1.47428e-05 1.4742e-05 1.47413e-05 1.47404e-05 1.47385e-05 1.47371e-05 1.4736e-05 5.99061e-06 1.24322e-05 1.43913e-05
          1.46961e-05 1.47294e-05 1.47321e-05 1.47322e-05 1.47324e-05 1.47343e-05 1.4736e-05 1.47368e-05 1.47367e-05 1.47374e-05 1.47367e-05 1.47345e-05
          5.99478e-06 1.29197e-05 1.459e-05 1.47056e-05 1.4711e-05 1.47105e-05 1.47098e-05 1.4709e-05 1.47206e-05 1.4726e-05 1.47284e-05 1.47287e-05
          1.47312e-05 1.47284e-05 1.47238e-05 5.98664e-06 1.23864e-05 1.4286e-05 1.46564e-05 1.4705e-05 1.47091e-05 1.47086e-05 1.47078e-05 1.47129e-05
          1.47164e-05 1.47176e-05 1.47146e-05 1.47074e-05 1.4708e-05 1.47083e-05 5.92038e-06 6.65449e-06 9.55749e-06 1.32523e-05 1.453e-05 1.46917e-05
          1.47068e-05 1.47077e-05 1.47064e-05 1.47054e-05 1.47048e-05 1.4705e-05 1.47072e-05 1.47093e-05 1.47112e-05 5.86486e-06 6.75077e-06 9.74021e-06
          1.33208e-05 1.45486e-05 1.47109e-05 1.4727e-05 1.47278e-05 1.47271e-05 1.47262e-05 1.47253e-05 1.47245e-05 1.47236e-05 1.47229e-05 1.47223e-05
        </DataArray>
        <DataArray type="Float32" Name="S_napl" NumberOfComponents="1" format="ascii">
          0 0 0 0 0 0 0 0 0 0 0 0
          0 0 0 0 0 0 0 0 0 0 0 0
          0 0 0 0 0 0 0 0 0 0 0 0
          0 0 0 0 0 0 0 0 0 0 0 0
          0 0 0 0 0 0 0 0 0 0 0 0
          0 0 0.0698875 0.0699682 0.0699609 0.0699561 0.0699515 0.0699287 0 0 0 0
          0 0 0 0 0 0.0700167 0.070017 0.0700016 0.0700001 0.07 0.0699897 0
          0 0 0 0 0 0 0 0 0.0582502 0.0751734 0.0704552 0.0700091
          0.0699674 0.0699373 0 0 0 0 0 0 0 0 0 0
          0 0 0 0 0 0 0 0 0 0 0 0
        </DataArray>
        <DataArray type="Float32" Name="p_napl" NumberOfComponents="1" format="ascii">
          99777.2 99740.6 99638.8 99219.3 98842 98830 98824.5 98819.7 98815 98810.5 98806.5 98803.8
          87654.1 87639.6 87628.1 99653.7 99619.8 99512 98984.6 98842.6 98829 98823.4 98818.6 98813.7
          98809 98804.4 98800.5 87648.6 87636.1 87627 99644.4 99581.8 99508.4 99026.7 98844.5 98828.2
          98822.4 98817.4 98812.5 98807.3 98801.6 98793.9 98780 98772.1 98765.6 99647.3 93426.8 87875.6
          87699 87690.9 87685.3 87680 87674.8 87669.4 87663.6 87656.4 87645.5 98773.9 98769.8 98764.9
          99640.8 92924.1 95459.2 95458.5 95450.1 95443.2 95436.8 95428 87664.1 87657.8 87650.1 87639.3
          98771 98768.2 98764.3 99623.5 93559.9 95550.5 95459.4 95451.4 95445 95438.9 95431.5 87659.4
          87653.2 87646.4 87637.8 98770.4 98767.6 98764.1 99592.3 99631 99680.7 99640 99599.9 99591.5
          99584.9 99578.3 98796.1 98790.2 98784.3 98778.2 98772 98767.7 98764 99543.5 99565.8 99499
          99069.7 98840.8 98815.6 98807.6 98801.3 98795.2 98789.2 98783.3 98777.4 98771.8 98767.3 98763.6
        </DataArray>
        <DataArray type="Float32" Name="rho_napl" NumberOfComponents="1" format="ascii">
          823.97 833.622 856.246 868.479 870.458 870.654 870.671 870.673 870.673 870.673 870.673 870.673
          870.673 870.673 870.673 823.826 830.709 853.662 868.05 870.413 870.65 870.671 870.673 870.673
          870.673 870.673 870.673 870.673 870.673 870.673 824.024 828.897 850.418 867.334 870.346 870.646
          870.672 870.674 870.674 870.673 870.673 870.674 870.674 870.674 870.673 824.361 862.632 869.637
          870.562 870.664 870.673 870.674 870.674 870.673 870.673 870.673 870.673 870.674 870.674 870.673
          824.383 864.592 870.313 870.654 870.673 870.674 870.674 870.675 870.673 870.673 870.673 870.673
          870.674 870.674 870.672 824.339 862.453 869.403 870.513 870.657 870.672 870.673 870.673 870.673
          870.673 870.673 870.672 870.67 870.671 870.669 823.995 828.14 848.028 865.999 870.147 870.623
          870.669 870.674 870.671 870.67 870.669 870.669 870.671 870.671 870.67 823.715 828.718 848.428
          866.129 870.14 870.621 870.67 870.675 870.676 870.675 870.675 870.675 870.675 870.674 870.673
        </DataArray>
        <DataArray type="Float32" Name="x^H2O_napl" NumberOfComponents="1" format="ascii">
          1e-10 1e-10 1e-10 1e-10 1e-10 1e-10 1e-10 1e-10 1e-10 1e-10 1e-10 1e-10
          1e-10 1e-10 1e-10 1e-10 1e-10 1e-10 1e-10 1e-10 1e-10 1e-10 1e-10 1e-10
          1e-10 1e-10 1e-10 1e-10 1e-10 1e-10 1e-10 1e-10 1e-10 1e-10 1e-10 1e-10
          1e-10 1e-10 1e-10 1e-10 1e-10 1e-10 1e-10 1e-10 1e-10 1e-10 1e-10 1e-10
          1e-10 1e-10 1e-10 1e-10 1e-10 1e-10 1e-10 1e-10 1e-10 1e-10 1e-10 1e-10
          1e-10 1e-10 1e-10 1e-10 1e-10 1e-10 1e-10 1e-10 1e-10 1e-10 1e-10 1e-10
          1e-10 1e-10 1e-10 1e-10 1e-10 1e-10 1e-10 1e-10 1e-10 1e-10 1e-10 1e-10
          1e-10 1e-10 1e-10 1e-10 1e-10 1e-10 1e-10 1e-10 1e-10 1e-10 1e-10 1e-10
          1e-10 1e-10 1e-10 1e-10 1e-10 1e-10 1e-10 1e-10 1e-10 1e-10 1e-10 1e-10
          1e-10 1e-10 1e-10 1e-10 1e-10 1e-10 1e-10 1e-10 1e-10 1e-10 1e-10 1e-10
        </DataArray>
        <DataArray type="Float32" Name="x^mesitylene_napl" NumberOfComponents="1" format="ascii">
          7.15691e-07 3.81842e-06 3.15413e-05 0.000102415 0.000132712 0.000141366 0.000148789 0.000156853 0.000165628 0.000174725 0.000183428 0.000195432
          0.0005496 0.00104132 0.00119024 4.82248e-06 1.62047e-05 0.000161764 0.000627843 0.00086937 0.000979997 0.00108721 0.00119558 0.00127901
          0.00128152 0.00112362 0.000797439 0.00173031 0.00269569 0.00300165 1.30421e-05 5.67874e-05 0.00101756 0.0062665 0.0108257 0.0138076
          0.0162779 0.018252 0.0190153 0.0178894 0.0140422 0.0082042 0.00813992 0.00810976 0.0101927 2.28191e-05 0.0318379 0.25143
          0.362408 0.389315 0.37852 0.359959 0.331394 0.249067 0.174005 0.117846 0.0735745 0.0111263 0.0120734 0.0499042
          3.78571e-05 0.0850898 1 1 1 1 1 1 0.619143 0.435464 0.334446 0.28127
          0.17949 0.241912 0.337933 3.81382e-05 0.0735093 1 1 1 1 1 1 0.820739
          0.693844 0.630725 0.672688 0.829433 0.802066 0.757087 2.3757e-05 0.000884989 1 1 1 1
          1 1 0.980494 0.969613 0.956439 0.926824 0.846314 0.770432 0.684957 9.06938e-06 0.000201763 0.0780928
          0.297201 0.411553 0.425858 0.424974 0.42262 0.420601 0.418586 0.416604 0.414533 0.411942 0.408235 0.396406
        </DataArray>
        <DataArray type="Float32" Name="x^Air_napl" NumberOfComponents="1" format="ascii">
          1e-10 1e-10 1e-10 1e-10 1e-10 1e-10 1e-10 1e-10 1e-10 1e-10 1e-10 1e-10
          1e-10 1e-10 1e-10 1e-10 1e-10 1e-10 1e-10 1e-10 1e-10 1e-10 1e-10 1e-10
          1e-10 1e-10 1e-10 1e-10 1e-10 1e-10 1e-10 1e-10 1e-10 1e-10 1e-10 1e-10
          1e-10 1e-10 1e-10 1e-10 1e-10 1e-10 1e-10 1e-10 1e-10 1e-10 1e-10 1e-10
          1e-10 1e-10 1e-10 1e-10 1e-10 1e-10 1e-10 1e-10 1e-10 1e-10 1e-10 1e-10
          1e-10 1e-10 1e-10 1e-10 1e-10 1e-10 1e-10 1e-10 1e-10 1e-10 1e-10 1e-10
          1e-10 1e-10 1e-10 1e-10 1e-10 1e-10 1e-10 1e-10 1e-10 1e-10 1e-10 1e-10
          1e-10 1e-10 1e-10 1e-10 1e-10 1e-10 1e-10 1e-10 1e-10 1e-10 1e-10 1e-10
          1e-10 1e-10 1e-10 1e-10 1e-10 1e-10 1e-10 1e-10 1e-10 1e-10 1e-10 1e-10
          1e-10 1e-10 1e-10 1e-10 1e-10 1e-10 1e-10 1e-10 1e-10 1e-10 1e-10 1e-10
        </DataArray>
        <DataArray type="Float32" Name="S_gas" NumberOfComponents="1" format="ascii">
          0.701087 0.730798 0.801981 0.868858 0.879775 0.879981 0.879999 0.88 0.88 0.88 0.88 0.88
          0.88 0.88 0.88 0.806611 0.815236 0.842445 0.87584 0.879729 0.879977 0.879998 0.88 0.88
          0.88 0.88 0.88 0.88 0.88 0.88 0.812511 0.828495 0.84303 0.874618 0.879644 0.879971
          0.879998 0.88 0.88 0.88 0.880001 0.880001 0.880003 0.880001 0.880001 0.815617 0.856415 0.879516
          0.879994 0.879999 0.88 0.88 0.88 0.88 0.88 0.88 0.88 0.880001 0.88 0.88
          0.81912 0.861014 0.810051 0.810031 0.810039 0.810044 0.810049 0.810072 0.879999 0.88 0.88 0.88
          0.88 0.88 0.88 0.823428 0.854924 0.806288 0.809968 0.809998 0.81 0.81 0.81001 0.879999
          0.879999 0.879999 0.879999 0.88 0.88 0.880001 0.829198 0.808595 0.756843 0.791629 0.808981 0.809941
          0.810029 0.810063 0.880002 0.880001 0.88 0.88 0.88 0.88 0.880001 0.839974 0.83098 0.843173
          0.87309 0.879405 0.879942 0.879995 0.88 0.88 0.88 0.88 0.88 0.88 0.88 0.88
        </DataArray>
        <DataArray type="Float32" Name="p_gas" NumberOfComponents="1" format="ascii">
          100107 100093 100083 100077 100072 100067 100062 100057 100053 100048 100044 100042
          100032 100017 100006 100107 100093 100082 100076 100071 100066 100061 100056 100052
          100047 100042 100038 100026 100014 100005 100111 100094 100082 100075 100070 100065
          100060 100055 100050 100045 100039 100032 100018 100010 100003 100122 100096 100083
          100074 100068 100063 100057 100052 100047 100041 100034 100023 100012 100008 100003
          100124 100097 100083 100073 100065 100059 100053 100048 100042 100035 100028 100017
          100009 100006 100002 100120 100094 100079 100069 100062 100055 100049 100043 100037
          100031 100024 100015 100008 100005 100002 100107 100089 100075 100065 100059 100052
          100046 100040 100034 100028 100022 100016 100010 100005 100002 100101 100087 100073
          100064 100058 100051 100045 100039 100033 100027 100021 100015 100010 100005 100001
        </DataArray>
        <DataArray type="Float32" Name="rho_gas" NumberOfComponents="1" format="ascii">
          0.86163 0.944806 1.09666 1.16685 1.17797 1.17902 1.17906 1.17901 1.17896 1.1789 1.17885 1.17882
          1.17871 1.17854 1.1784 0.860227 0.921172 1.08123 1.16441 1.17771 1.17899 1.17905 1.17901 1.17895
          1.17889 1.17884 1.17879 1.17865 1.17851 1.17841 0.862208 0.905687 1.06136 1.16044 1.17741 1.17906
          1.17917 1.17914 1.17909 1.17902 1.17892 1.17878 1.17861 1.17852 1.17846 0.865492 1.13439 1.17583
          1.18171 1.18241 1.1823 1.18209 1.18178 1.18101 1.1803 1.17974 1.17923 1.17857 1.17852 1.17879
          0.86572 1.14623 1.18607 1.18763 1.18763 1.18757 1.1875 1.18743 1.1841 1.18246 1.18151 1.18093
          1.17997 1.18046 1.18123 0.865279 1.13399 1.18156 1.18689 1.18751 1.18751 1.18744 1.18737 1.18576
          1.18461 1.18399 1.18424 1.18549 1.18522 1.18479 0.861884 0.899243 1.08716 1.16491 1.18496 1.18723
          1.18739 1.18734 1.18709 1.18692 1.18673 1.18641 1.18565 1.18496 1.18417 0.859089 0.904086 1.05192
          1.15702 1.17968 1.18229 1.18248 1.18241 1.18232 1.18223 1.18214 1.18206 1.18197 1.18188 1.18173
        </DataArray>
        <DataArray type="Float32" Name="x^H2O_gas" NumberOfComponents="1" format="ascii">
          0.377899 0.234135 0.0634672 0.0273775 0.023639 0.0233064 0.0232776 0.0232763 0.0232772 0.0232782 0.0232792 0.02328
          0.0232824 0.0232857 0.0232884 0.380616 0.271868 0.0747936 0.0282584 0.0237158 0.0233129 0.0232783 0.0232764 0.0232773
          0.0232784 0.0232795 0.0232805 0.0232835 0.0232865 0.0232886 0.37686 0.298151 0.0914256 0.0297249 0.0238304 0.0233207
          0.0232777 0.0232754 0.0232767 0.0232782 0.0232797 0.0232811 0.0232836 0.0232861 0.0232882 0.370803 0.041452 0.0250317
          0.0234613 0.0232894 0.0232751 0.0232749 0.023276 0.023278 0.0232796 0.0232813 0.0232836 0.0232852 0.0232863 0.0232883
          0.370424 0.0361564 0.0238827 0.023305 0.0232748 0.023274 0.0232748 0.0232757 0.02328 0.0232811 0.0232826 0.0232849
          0.0232856 0.0232872 0.0232915 0.371166 0.041978 0.025482 0.0235455 0.0233025 0.0232791 0.0232782 0.0232792 0.0232813
          0.0232823 0.0232837 0.0232869 0.0232922 0.0232924 0.0232967 0.377419 0.309352 0.105469 0.0327142 0.0241712 0.0233629
          0.0232856 0.0232782 0.0232848 0.0232885 0.0232907 0.0232917 0.0232913 0.0232915 0.0232947 0.382725 0.300828 0.102864
          0.0323952 0.0241823 0.0233655 0.0232835 0.0232767 0.0232775 0.023279 0.0232806 0.0232822 0.023284 0.0232858 0.0232889
        </DataArray>
        <DataArray type="Float32" Name="x^mesitylene_gas" NumberOfComponents="1" format="ascii">
          3.37795e-08 1.08045e-07 2.16802e-07 2.79662e-07 3.08226e-07 3.23043e-07 3.39527e-07 3.57903e-07 3.77939e-07 3.98714e-07 4.18593e-07 4.46002e-07
          1.25439e-06 2.37703e-06 2.71728e-06 2.29275e-07 5.37848e-07 1.33022e-06 1.77492e-06 2.02667e-06 2.24015e-06 2.48102e-06 2.72805e-06 2.91853e-06
          2.92439e-06 2.5642e-06 1.8199e-06 3.94939e-06 6.15363e-06 6.85272e-06 6.13858e-07 2.07669e-06 1.04072e-05 1.87617e-05 2.5378e-05 3.15745e-05
          3.71451e-05 4.16448e-05 4.33891e-05 4.08228e-05 3.20457e-05 1.87239e-05 1.8579e-05 1.85123e-05 2.32692e-05 1.05573e-06 0.000137321 0.000624741
          0.000834442 0.000888908 0.000863651 0.000821287 0.000756149 0.000568353 0.000397095 0.000268954 0.000167933 2.53971e-05 2.75604e-05 0.000113928
          1.74945e-06 0.000315929 0.00235024 0.00228501 0.00228164 0.00228153 0.00228159 0.00228168 0.00141297 0.000993832 0.000763334 0.000642028
          0.000409713 0.000552241 0.000771601 1.76642e-06 0.00032139 0.00253304 0.00231195 0.0022847 0.00228208 0.00228196 0.00228206 0.00187315
          0.0015836 0.00143963 0.00153562 0.00189392 0.00183144 0.00172909 1.11985e-06 3.36876e-05 0.0119536 0.00332832 0.0023833 0.00229142
          0.00228277 0.00228193 0.00223812 0.00221367 0.0021838 0.00211627 0.00193239 0.00175913 0.0015642 4.33622e-07 7.44958e-06 0.000909712
          0.00097913 0.000981383 0.000975941 0.000970016 0.000964316 0.000959739 0.000955206 0.000950749 0.000946089 0.00094025 0.000931865 0.000904993
        </DataArray>
        <DataArray type="Float32" Name="x^Air_gas" NumberOfComponents="1" format="ascii">
          0.622101 0.765865 0.936533 0.972622 0.976361 0.976693 0.976722 0.976723 0.976722 0.976721 0.97672 0.97672
          0.976716 0.976712 0.976709 0.619383 0.728132 0.925205 0.97174 0.976282 0.976685 0.976719 0.976721 0.97672
          0.976719 0.976718 0.976718 0.976713 0.976707 0.976704 0.62314 0.701847 0.908564 0.970256 0.976144 0.976648
          0.976685 0.976683 0.97668 0.976681 0.976688 0.9767 0.976698 0.976695 0.976689 0.629196 0.958411 0.974344
          0.975704 0.975822 0.975861 0.975904 0.975968 0.976154 0.976323 0.97645 0.976548 0.976689 0.976686 0.976598
          0.629575 0.963528 0.973767 0.97441 0.974443 0.974444 0.974444 0.974443 0.975307 0.975725 0.975954 0.976073
          0.976305 0.976161 0.975937 0.628832 0.957701 0.971985 0.974143 0.974413 0.974439 0.97444 0.974439 0.974846
          0.975134 0.975277 0.975178 0.974814 0.974876 0.974974 0.62258 0.690615 0.882578 0.963957 0.973446 0.974346
          0.974432 0.97444 0.974477 0.974498 0.974526 0.974592 0.974776 0.974949 0.975141 0.617274 0.699164 0.896227
          0.966626 0.974836 0.975659 0.975747 0.975759 0.975763 0.975766 0.975769 0.975772 0.975776 0.975782 0.975806
        </DataArray>
        <DataArray type="Float32" Name="porosity" NumberOfComponents="1" format="ascii">
          0.42 0.42 0.42 0.42 0.42 0.42 0.42 0.42 0.42 0.42 0.42 0.42
          0.42 0.42 0.42 0.42 0.42 0.42 0.42 0.42 0.42 0.42 0.42 0.42
          0.42 0.42 0.42 0.42 0.42 0.42 0.42 0.42 0.42 0.42 0.42 0.42
          0.42 0.42 0.42 0.42 0.42 0.42 0.42 0.42 0.42 0.42 0.42 0.42
          0.42 0.42 0.42 0.42 0.42 0.42 0.42 0.42 0.42 0.42 0.42 0.42
          0.42 0.42 0.42 0.42 0.42 0.42 0.42 0.42 0.42 0.42 0.42 0.42
          0.42 0.42 0.42 0.42 0.42 0.42 0.42 0.42 0.42 0.42 0.42 0.42
          0.42 0.42 0.42 0.42 0.42 0.42 0.42 0.42 0.42 0.42 0.42 0.42
          0.42 0.42 0.42 0.42 0.42 0.42 0.42 0.42 0.42 0.42 0.42 0.42
          0.42 0.42 0.42 0.42 0.42 0.42 0.42 0.42 0.42 0.42 0.42 0.42
        </DataArray>
        <DataArray type="Float32" Name="phase presence" NumberOfComponents="1" format="ascii">
          6 6 6 6 6 6 6 6 6 6 6 6
          6 6 6 6 6 6 6 6 6 6 6 6
          6 6 6 6 6 6 6 6 6 6 6 6
          6 6 6 6 6 6 6 6 6 6 6 6
          6 6 6 6 6 6 6 6 6 6 6 6
          6 6 1 1 1 1 1 1 6 6 6 6
          6 6 6 6 6 1 1 1 1 1 1 6
          6 6 6 6 6 6 6 6 1 1 1 1
          1 1 6 6 6 6 6 6 6 6 6 6
          6 6 6 6 6 6 6 6 6 6 6 6
        </DataArray>
        <DataArray type="Float32" Name="permeability" NumberOfComponents="1" format="ascii">
          9.14e-10 9.14e-10 9.14e-10 9.14e-10 9.14e-10 9.14e-10 9.14e-10 9.14e-10 9.14e-10 9.14e-10 9.14e-10 9.14e-10
          6.28e-12 6.28e-12 6.28e-12 9.14e-10 9.14e-10 9.14e-10 9.14e-10 9.14e-10 9.14e-10 9.14e-10 9.14e-10 9.14e-10
          9.14e-10 9.14e-10 9.14e-10 6.28e-12 6.28e-12 6.28e-12 9.14e-10 9.14e-10 9.14e-10 9.14e-10 9.14e-10 9.14e-10
          9.14e-10 9.14e-10 9.14e-10 9.14e-10 9.14e-10 9.14e-10 9.14e-10 9.14e-10 9.14e-10 9.14e-10 6.28e-12 6.28e-12
          6.28e-12 6.28e-12 6.28e-12 6.28e-12 6.28e-12 6.28e-12 6.28e-12 6.28e-12 6.28e-12 9.14e-10 9.14e-10 9.14e-10
          9.14e-10 6.28e-12 6.28e-12 6.28e-12 6.28e-12 6.28e-12 6.28e-12 6.28e-12 6.28e-12 6.28e-12 6.28e-12 6.28e-12
          9.14e-10 9.14e-10 9.14e-10 9.14e-10 6.28e-12 6.28e-12 6.28e-12 6.28e-12 6.28e-12 6.28e-12 6.28e-12 6.28e-12
          6.28e-12 6.28e-12 6.28e-12 9.14e-10 9.14e-10 9.14e-10 9.14e-10 9.14e-10 9.14e-10 9.14e-10 9.14e-10 9.14e-10
          9.14e-10 9.14e-10 9.14e-10 9.14e-10 9.14e-10 9.14e-10 9.14e-10 9.14e-10 9.14e-10 9.14e-10 9.14e-10 9.14e-10
          9.14e-10 9.14e-10 9.14e-10 9.14e-10 9.14e-10 9.14e-10 9.14e-10 9.14e-10 9.14e-10 9.14e-10 9.14e-10 9.14e-10
        </DataArray>
        <DataArray type="Float32" Name="T" NumberOfComponents="1" format="ascii">
          347.656 336.668 310.28 295.65 293.26 293.023 293.002 293 293 293 293 293
          293 293 293 347.819 340.002 313.338 296.168 293.315 293.027 293.002 293 293
          293 293 293 293 293 293 347.595 342.067 317.162 297.03 293.396 293.033
          293.001 292.999 292.999 292.999 292.999 292.999 292.999 292.999 292.999 347.214 302.674 294.252
          293.134 293.011 293 292.999 292.999 292.999 293 293 292.999 292.999 292.999 292.999
          347.189 300.326 293.435 293.023 293 292.999 292.998 292.998 293 293 292.999 292.999
          292.998 292.999 293.002 347.238 302.888 294.535 293.193 293.019 293.002 293 293 293
          293 293 293 293.003 293.003 293.005 347.628 342.93 319.966 298.637 293.636 293.061
          293.005 292.998 293.002 293.004 293.004 293.004 293.003 293.002 293.004 347.944 342.272 319.498
          298.48 293.644 293.062 293.003 292.997 292.997 292.997 292.997 292.997 292.997 292.998 293
        </DataArray>
        <DataArray type="Float32" Name="process rank" NumberOfComponents="1" format="ascii">
          0 0 0 0 0 0 0 0 0 0 0 0
          0 0 0 0 0 0 0 0 0 0 0 0
          0 0 0 0 0 0 0 0 0 0 0 0
          0 0 0 0 0 0 0 0 0 0 0 0
          0 0 0 0 0 0 0 0 0 0 0 0
          0 0 0 0 0 0 0 0 0 0 0 0
          0 0 0 0 0 0 0 0 0 0 0 0
          0 0 0 0 0 0 0 0 0 0 0 0
          0 0 0 0 0 0 0 0 0 0 0 0
          0 0 0 0 0 0 0 0 0 0 0 0
        </DataArray>
      </CellData>
      <Points>
        <DataArray type="Float32" Name="Coordinates" NumberOfComponents="3" format="ascii">
          0 0 0 0.1 0 0 0 0.0925 0 0.1 0.0925 0
          0.2 0 0 0.2 0.0925 0 0.3 0 0 0.3 0.0925 0
          0.4 0 0 0.4 0.0925 0 0.5 0 0 0.5 0.0925 0
          0.6 0 0 0.6 0.0925 0 0.7 0 0 0.7 0.0925 0
          0.8 0 0 0.8 0.0925 0 0.9 0 0 0.9 0.0925 0
          1 0 0 1 0.0925 0 1.1 0 0 1.1 0.0925 0
          1.2 0 0 1.2 0.0925 0 1.3 0 0 1.3 0.0925 0
          1.4 0 0 1.4 0.0925 0 1.5 0 0 1.5 0.0925 0
          0 0.185 0 0.1 0.185 0 0.2 0.185 0 0.3 0.185 0
          0.4 0.185 0 0.5 0.185 0 0.6 0.185 0 0.7 0.185 0
          0.8 0.185 0 0.9 0.185 0 1 0.185 0 1.1 0.185 0
          1.2 0.185 0 1.3 0.185 0 1.4 0.185 0 1.5 0.185 0
          0 0.2775 0 0.1 0.2775 0 0.2 0.2775 0 0.3 0.2775 0
          0.4 0.2775 0 0.5 0.2775 0 0.6 0.2775 0 0.7 0.2775 0
          0.8 0.2775 0 0.9 0.2775 0 1 0.2775 0 1.1 0.2775 0
          1.2 0.2775 0 1.3 0.2775 0 1.4 0.2775 0 1.5 0.2775 0
          0 0.37 0 0.1 0.37 0 0.2 0.37 0 0.3 0.37 0
          0.4 0.37 0 0.5 0.37 0 0.6 0.37 0 0.7 0.37 0
          0.8 0.37 0 0.9 0.37 0 1 0.37 0 1.1 0.37 0
          1.2 0.37 0 1.3 0.37 0 1.4 0.37 0 1.5 0.37 0
          0 0.4625 0 0.1 0.4625 0 0.2 0.4625 0 0.3 0.4625 0
          0.4 0.4625 0 0.5 0.4625 0 0.6 0.4625 0 0.7 0.4625 0
          0.8 0.4625 0 0.9 0.4625 0 1 0.4625 0 1.1 0.4625 0
          1.2 0.4625 0 1.3 0.4625 0 1.4 0.4625 0 1.5 0.4625 0
          0 0.555 0 0.1 0.555 0 0.2 0.555 0 0.3 0.555 0
          0.4 0.555 0 0.5 0.555 0 0.6 0.555 0 0.7 0.555 0
          0.8 0.555 0 0.9 0.555 0 1 0.555 0 1.1 0.555 0
          1.2 0.555 0 1.3 0.555 0 1.4 0.555 0 1.5 0.555 0
          0 0.6475 0 0.1 0.6475 0 0.2 0.6475 0 0.3 0.6475 0
          0.4 0.6475 0 0.5 0.6475 0 0.6 0.6475 0 0.7 0.6475 0
          0.8 0.6475 0 0.9 0.6475 0 1 0.6475 0 1.1 0.6475 0
          1.2 0.6475 0 1.3 0.6475 0 1.4 0.6475 0 1.5 0.6475 0
          0 0.74 0 0.1 0.74 0 0.2 0.74 0 0.3 0.74 0
          0.4 0.74 0 0.5 0.74 0 0.6 0.74 0 0.7 0.74 0
          0.8 0.74 0 0.9 0.74 0 1 0.74 0 1.1 0.74 0
          1.2 0.74 0 1.3 0.74 0 1.4 0.74 0 1.5 0.74 0
        </DataArray>
      </Points>
      <Cells>
        <DataArray type="Int32" Name="connectivity" NumberOfComponents="1" format="ascii">
          0 1 3 2 1 4 5 3 4 6 7 5
          6 8 9 7 8 10 11 9 10 12 13 11
          12 14 15 13 14 16 17 15 16 18 19 17
          18 20 21 19 20 22 23 21 22 24 25 23
          24 26 27 25 26 28 29 27 28 30 31 29
          2 3 33 32 3 5 34 33 5 7 35 34
          7 9 36 35 9 11 37 36 11 13 38 37
          13 15 39 38 15 17 40 39 17 19 41 40
          19 21 42 41 21 23 43 42 23 25 44 43
          25 27 45 44 27 29 46 45 29 31 47 46
          32 33 49 48 33 34 50 49 34 35 51 50
          35 36 52 51 36 37 53 52 37 38 54 53
          38 39 55 54 39 40 56 55 40 41 57 56
          41 42 58 57 42 43 59 58 43 44 60 59
          44 45 61 60 45 46 62 61 46 47 63 62
          48 49 65 64 49 50 66 65 50 51 67 66
          51 52 68 67 52 53 69 68 53 54 70 69
          54 55 71 70 55 56 72 71 56 57 73 72
          57 58 74 73 58 59 75 74 59 60 76 75
          60 61 77 76 61 62 78 77 62 63 79 78
          64 65 81 80 65 66 82 81 66 67 83 82
          67 68 84 83 68 69 85 84 69 70 86 85
          70 71 87 86 71 72 88 87 72 73 89 88
          73 74 90 89 74 75 91 90 75 76 92 91
          76 77 93 92 77 78 94 93 78 79 95 94
          80 81 97 96 81 82 98 97 82 83 99 98
          83 84 100 99 84 85 101 100 85 86 102 101
          86 87 103 102 87 88 104 103 88 89 105 104
          89 90 106 105 90 91 107 106 91 92 108 107
          92 93 109 108 93 94 110 109 94 95 111 110
          96 97 113 112 97 98 114 113 98 99 115 114
          99 100 116 115 100 101 117 116 101 102 118 117
          102 103 119 118 103 104 120 119 104 105 121 120
          105 106 122 121 106 107 123 122 107 108 124 123
          108 109 125 124 109 110 126 125 110 111 127 126
          112 113 129 128 113 114 130 129 114 115 131 130
          115 116 132 131 116 117 133 132 117 118 134 133
          118 119 135 134 119 120 136 135 120 121 137 136
          121 122 138 137 122 123 139 138 123 124 140 139