<?xml version="1.0"?>
<VTKFile type="UnstructuredGrid" version="0.1" byte_order="LittleEndian">
  <UnstructuredGrid>
    <Piece NumberOfCells="728" NumberOfPoints="783">
      <PointData Scalars="p">
        <DataArray type="Float32" Name="p" NumberOfComponents="1" format="ascii">
          100000 100000 100000 100000 100000 100000 100000 100000 100000 100000 100000 100000
          100000 100000 100000 100000 100000 100000 100000 100000 100000 100000 100000 100000
          100000 100000 100000 100000 100000 100000 100000 100000 100000 100000 100000 100000
          100000 100000 100000 100000 100000 100000 100000 100000 100000 100000 100000 100000
          100000 100000 100000 100000 100000 100000 100000 100000 100000 100000 100000 100000
          100000 100000 100000 100000 100000 100000 100000 100000 100000 100000 100000 100000
          100000 100000 100000 100000 100000 100000 100000 100000 100000 100000 100000 100000
          100000 100000 100000 100000 100000 100000 100000 100000 100000 100000 100000 100000
          100000 100000 100000 100000 100000 100000 100000 100000 100000 100000 100000 100000
          100000 100000 100000 100000 100000 100000 100000 100000 100000 100000 100000 100000
          100000 100000 100000 100000 100000 100000 100000 100000 100000 100000 100000 100000
          100000 100000 100000 100000 100000 100000 100000 100000 100000 100000 100000 100000
          100000 100000 100000 100000 100000 100000 100000 100000 100000 100000 100000 100000
          100000 100000 100000 100000 100000 100000 100000 100000 100000 100000 100000 100000
          100000 100000 100000 100000 100000 100000 100000 100000 100000 100000 100000 100000
          100000 100000 100000 100000 100000 100000 100000 100000 100000 100000 100000 100000
          100000 100000 100000 100000 100000 100000 100000 100000 100000 100000 100000 100000
          100000 100000 100000 100000 100000 100000 100000 100000 100000 100000 100000 100000
          100000 100000 100000 100000 100000 100000 100000 100000 100000 100000 100000 100000
          100000 100000 100000 100000 100000 100000 100000 100000 100000 100000 100000 100000
          100000 100000 100000 100000 100000 100000 100000 100000 100000 100000 100000 100000
          100000 100000 100000 100000 100000 100000 100000 100000 100000 100000 100000 100000
          100000 100000 100000 100000 100000 100000 100000 100000 100000 100000 100000 100000
          100000 100000 100000 100000 100000 100000 100000 100000 100000 100000 100000 100000
          100000 100000 100000 100000 100000 100000 100000 100000 100000 100000 100000 100000
          100000 100000 100000 100000 100000 100000 100000 100000 100000 100000 100000 100000
          100000 100000 100000 100000 100000 100000 100000 100000 100000 100000 100000 100000
          100000 100000 100000 100000 100000 100000 100000 100000 100000 100000 100000 100000
          100000 100000 100000 100000 100000 100000 100000 100000 100000 100000 100000 100000
          100000 100000 100000 100000 100000 100000 100000 100000 100000 100000 100000 100000
          100000 100000 100000 100000 100000 100000 100000 100000 100000 100000 100000 100000
          100000 100000 100000 100000 100000 100000 100000 100000 100000 100000 100000 100000
          100000 100000 100000 100000 100000 100000 100000 100000 100000 100000 100000 100000
          100000 100000 100000 100000 100000 100000 100000 100000 100000 100000 100000 100000
          100000 100000 100000 100000 100000 100000 100000 100000 100000 100000 100000 100000
          100000 100000 100000 100000 100000 100000 100000 100000 100000 100000 100000 100000
          100000 100000 100000 100000 100000 100000 100000 100000 100000 100000 100000 100000
          100000 100000 100000 100000 100000 100000 100000 100000 100000 100000 100000 100000
          100000 100000 100000 100000 100000 100000 100000 100000 100000 100000 100000 100000
          100000 100000 100000 100000 100000 100000 100000 100000 100000 100000 100000 100000
          100000 100000 100000 100000 100000 100000 100000 100000 100000 100000 100000 100000
          100000 100000 100000 100000 100000 100000 100000 100000 100000 100000 100000 100000
          100000 100000 100000 100000 100000 100000 100000 100000 100000 100000 100000 100000
          100000 100000 100000 100000 100000 100000 100000 100000 100000 100000 100000 100000
          100000 100000 100000 100000 100000 100000 100000 100000 100000 100000 100000 100000
          100000 100000 100000 100000 100000 100000 100000 100000 100000 100000 100000 100000
          100000 100000 100000 100000 100000 100000 100000 100000 100000 100000 100000 100000
          100000 100000 100000 100000 100000 100000 100000 100000 100000 100000 100000 100000
          100000 100000 100000 100000 100000 100000 100000 100000 100000 100000 100000 100000
          100000 100000 100000 100000 100000 100000 100000 100000 100000 100000 100000 100000
          100000 100000 100000 100000 100000 100000 100000 100000 100000 100000 100000 100000
          100000 100000 100000 100000 100000 100000 100000 100000 100000 100000 100000 100000
          100000 100000 100000 100000 100000 100000 100000 100000 100000 100000 100000 100000
          100000 100000 100000 100000 100000 100000 100000 100000 100000 100000 100000 100000
          100000 100000 100000 100000 100000 100000 100000 100000 100000 100000 100000 100000
          100000 100000 100000 100000 100000 100000 100000 100000 100000 100000 100000 100000
          100000 100000 100000 100000 100000 100000 100000 100000 100000 100000 100000 100000
          100000 100000 100000 100000 100000 100000 100000 100000 100000 100000 100000 100000
          100000 100000 100000 100000 100000 100000 100000 100000 100000 100000 100000 100000
          100000 100000 100000 100000 100000 100000 100000 100000 100000 100000 100000 100000
          100000 100000 100000 100000 100000 100000 100000 100000 100000 100000 100000 100000
          100000 100000 100000 100000 100000 100000 100000 100000 100000 100000 100000 100000
          100000 100000 100000 100000 100000 100000 100000 100000 100000 100000 100000 100000
          100000 100000 100000 100000 100000 100000 100000 100000 100000 100000 100000 100000
          100000 100000 100000 100000 100000 100000 100000 100000 100000 100000 100000 100000
          100000 100000 100000
        </DataArray>
        <DataArray type="Float32" Name="rho" NumberOfComponents="1" format="ascii">
          950.926 950.926 954.076 954.076 950.926 954.076 957.144 957.144 957.144 950.926 954.077 950.926
          954.077 957.144 957.144 960.133 960.133 960.133 960.133 960.133 950.926 954.077 957.144 950.926
          954.077 950.926 954.077 957.144 957.145 960.134 960.134 960.135 963.043 963.044 963.044 965.874
          965.874 965.874 963.044 963.044 965.874 965.874 968.622 968.622 968.622 968.623 968.623 963.044
          965.875 963.045 963.046 965.875 965.876 968.624 968.624 968.625 950.926 954.077 950.926 954.078
          957.145 957.146 950.926 954.078 950.926 954.078 957.147 957.147 960.135 960.136 960.137 960.138
          950.926 954.079 957.148 950.926 954.079 950.926 954.079 957.148 957.148 960.14 960.141 960.141
          963.047 963.048 965.877 965.879 963.049 963.051 965.88 965.883 968.626 968.627 968.629 968.632
          963.053 965.886 963.055 963.055 965.89 965.892 968.635 968.642 968.66 970.907 970.907 970.907
          973.128 973.128 973.128 970.908 970.908 973.128 973.128 975.283 975.283 975.283 975.283 975.283
          970.908 973.129 970.909 970.91 973.129 973.13 975.284 975.284 975.285 977.37 977.37 977.371
          979.389 979.389 979.389 977.371 977.371 979.389 979.389 981.336 981.336 981.336 983.209 983.209
          983.209 981.336 981.336 983.209 983.209 977.371 979.389 977.371 977.372 979.389 979.389 981.336
          983.209 981.336 981.336 983.209 983.209 970.911 970.912 973.131 973.132 970.913 970.916 973.133
          973.135 975.285 975.286 975.287 975.288 970.919 973.137 970.923 970.926 973.139 973.14 975.289
          975.29 975.291 977.372 977.373 979.39 979.39 977.374 977.374 979.391 979.391 981.336 981.336
          983.209 983.209 981.336 981.337 983.209 983.209 977.375 979.391 977.376 977.376 979.392 979.392
          981.337 983.209 981.337 981.337 983.209 983.209 950.926 954.079 950.926 954.079 957.148 957.148
          950.926 954.078 957.147 960.141 960.14 960.138 950.926 954.078 950.926 954.078 957.147 957.146
          950.926 954.077 950.926 954.077 957.145 957.145 960.137 960.136 960.135 960.135 963.055 963.053
          965.89 965.886 963.051 965.883 968.642 968.635 968.632 963.049 963.048 965.88 965.879 963.047
          963.046 965.877 965.876 968.629 968.627 968.626 968.625 950.926 954.077 950.926 954.077 957.144
          957.144 950.926 954.077 957.144 960.134 960.134 960.133 950.926 954.077 950.926 954.076 957.144
          957.144 950.926 954.076 950.926 954.076 957.144 957.144 960.133 960.133 960.133 960.133 963.045
          963.044 965.875 965.875 963.044 965.874 968.624 968.624 968.623 963.044 963.044 965.874 965.874
          963.044 963.043 965.874 965.874 968.623 968.622 968.622 968.622 970.923 970.919 973.139 973.137
          970.916 973.135 975.29 975.289 975.288 970.913 970.912 973.133 973.132 970.911 970.91 973.131
          973.13 975.287 975.286 975.285 975.285 977.376 977.375 979.392 979.391 977.374 979.391 981.337
          981.337 983.209 983.209 981.337 983.209 977.374 977.373 979.391 979.39 977.372 977.372 979.39
          979.389 981.336 981.336 983.209 983.209 981.336 981.336 983.209 983.209 970.909 970.908 973.129
          973.129 970.908 970.908 973.128 973.128 975.284 975.284 975.283 970.907 973.128 970.907 970.907
          973.128 973.128 975.283 975.283 975.283 975.283 977.371 977.371 979.389 979.389 977.371 979.389
          977.371 979.389 981.336 981.336 983.209 983.209 981.336 981.336 983.209 983.209 977.371 979.389
          977.37 977.37 979.389 979.389 981.336 983.209 981.336 981.336 983.209 983.209 985.007 985.007
          985.007 986.727 986.727 986.727 985.007 985.007 986.727 986.727 988.365 988.365 988.365 988.365
          988.365 985.007 986.727 985.007 985.007 986.726 986.726 988.365 988.365 988.364 989.919 989.919
          989.919 991.384 991.384 991.384 989.919 989.919 991.384 991.384 992.757 992.757 992.757 994.033
          994.033 994.033 992.757 992.757 994.033 994.032 989.918 991.384 989.918 989.918 991.383 991.383
          992.756 994.032 992.756 992.756 994.032 994.031 985.007 985.007 986.726 986.726 985.006 985.006
          986.725 986.725 988.364 988.363 988.363 988.362 985.006 986.725 985.006 985.006 986.724 986.724
          988.362 988.361 988.361 989.917 989.917 991.382 991.382 989.916 989.915 991.381 991.38 992.755
          992.754 994.031 994.03 992.753 992.752 994.029 994.028 989.914 991.378 989.914 989.913 991.377
          991.377 992.75 994.026 992.748 992.747 994.023 994.014 995.386 995.386 995.386 996.593 996.593
          996.593 995.386 995.385 996.593 996.593 997.643 997.643 997.643 997.643 997.643 995.385 996.592
          995.385 995.385 996.592 996.592 997.643 997.643 997.642 998.524 998.524 998.524 999.222 999.222
          999.222 998.524 998.524 999.222 999.222 999.689 999.689 999.689 999.689 999.689 998.524 999.222
          998.524 998.524 999.221 999.221 999.689 999.689 999.689 995.384 995.384 996.592 996.591 995.383
          995.382 996.591 996.59 997.642 997.642 997.642 997.641 995.38 996.589 995.379 995.378 996.588
          996.588 997.641 997.641 997.641 998.524 998.524 999.221 999.221 998.523 998.523 999.221 999.221
          999.689 999.689 999.689 999.689 998.523 999.221 998.523 998.523 999.221 999.221 999.689 999.689
          999.689 985.006 985.006 986.724 986.725 985.006 986.725 988.361 988.362 988.362 985.006 985.007
          986.725 986.726 985.007 985.007 986.726 986.726 988.363 988.363 988.364 988.364 989.914 989.914
          991.377 991.378 989.915 991.38 992.748 992.75 994.023 994.026 992.752 994.028 989.916 989.917
          991.381 991.382 989.917 989.918 991.382 991.383 992.753 992.754 994.029 994.03 992.755 992.756
          994.031 994.031 985.007 985.007 986.726 986.727 985.007 986.727 988.365 988.365 988.365 986.727
          988.365 985.007 985.007 986.727 985.007 985.007 986.727 986.727 988.365 988.365 988.365 989.918
          989.918 991.383 991.384 989.919 989.919 991.384 992.756 992.756 994.032 994.032 992.757 994.032
          989.919 991.384 991.384 989.919 989.919 991.384 991.384 992.757 992.757 994.033 994.033 992.757
          992.757 994.033 994.033 995.379 995.38 996.588 996.589 995.382 995.383 996.59 996.591 997.641
          997.641 997.641 997.642 995.384 996.591 995.384 995.385 996.592 996.592 997.642 997.642 997.642
          998.523 998.523 999.221 999.221 998.523 998.523 999.221 999.221 999.689 999.689 999.689 999.689
          998.524 999.221 998.524 998.524 999.221 999.221 999.689 999.689 999.689 995.385 995.385 996.592
          996.592 995.385 995.386 996.593 996.593 997.643 997.643 997.643 997.643 995.386 996.593 995.386
          995.386 996.593 997.643 996.593 997.643 997.643 998.524 998.524 999.221 999.222 998.524 998.524
          999.222 999.222 999.689 999.689 999.689 999.689 998.524 999.222 998.524 998.524 999.222 999.222
          999.689 999.689 999.689
        </DataArray>
        <DataArray type="Float32" Name="mu" NumberOfComponents="1" format="ascii">
          0.000254628 0.000254628 0.000265269 0.000265269 0.000254628 0.000265269 0.000276801 0.000276801 0.000276802 0.000254628 0.000265269 0.000254628
          0.00026527 0.000276802 0.000276803 0.000289248 0.000289248 0.000289248 0.000289249 0.00028925 0.000254628 0.00026527 0.000276804 0.000254628
          0.000265271 0.000254628 0.000265272 0.000276805 0.000276807 0.000289252 0.000289254 0.000289256 0.000302706 0.000302706 0.000302706 0.000317285
          0.000317285 0.000317286 0.000302707 0.000302709 0.000317287 0.000317289 0.000333112 0.000333112 0.000333113 0.000333114 0.000333116 0.000302711
          0.000317291 0.000302713 0.000302717 0.000317295 0.000317299 0.000333119 0.000333122 0.000333127 0.000254628 0.000265272 0.000254628 0.000265273
          0.000276809 0.000276811 0.000254628 0.000265275 0.000254628 0.000265276 0.000276814 0.000276816 0.000289259 0.000289263 0.000289267 0.000289272
          0.000254628 0.000265277 0.000276819 0.000254628 0.000265278 0.000254628 0.000265278 0.000276821 0.000276821 0.000289277 0.000289281 0.000289283
          0.000302721 0.000302727 0.000317304 0.000317311 0.000302733 0.000302742 0.00031732 0.000317332 0.000333133 0.000333141 0.000333152 0.000333166
          0.000302751 0.000317349 0.000302759 0.000302763 0.000317371 0.00031738 0.000333188 0.000333225 0.000333334 0.000347863 0.000347864 0.000347864
          0.000363782 0.000363783 0.000363783 0.000347866 0.000347868 0.000363785 0.000363787 0.000380996 0.000380996 0.000380997 0.000380998 0.000381
          0.000347871 0.00036379 0.000347874 0.000347879 0.000363793 0.000363798 0.000381002 0.000381006 0.00038101 0.000399647 0.000399647 0.000399648
          0.000419917 0.000419917 0.000419918 0.000399649 0.000399651 0.000419919 0.00041992 0.000441987 0.000441987 0.000441988 0.000466075 0.000466075
          0.000466075 0.000441988 0.000441989 0.000466075 0.000466075 0.000399653 0.000419922 0.000399656 0.000399659 0.000419924 0.000419927 0.00044199
          0.000466075 0.000441991 0.000441993 0.000466075 0.000466075 0.000347885 0.000347894 0.000363804 0.000363812 0.000347904 0.000347919 0.000363821
          0.000363834 0.000381015 0.000381022 0.00038103 0.00038104 0.000347939 0.000363848 0.000347967 0.000347984 0.000363863 0.000363869 0.000381049
          0.000381058 0.000381061 0.000399664 0.000399669 0.000419931 0.000419935 0.000399675 0.000399683 0.000419939 0.000419944 0.000441994 0.000441997
          0.000466075 0.000466075 0.000441999 0.000442002 0.000466075 0.000466075 0.00039969 0.000419948 0.000399695 0.000399697 0.000419952 0.000419953
          0.000442004 0.000466075 0.000442005 0.000442006 0.000466075 0.000466075 0.000254628 0.000265278 0.000254628 0.000265277 0.000276821 0.000276819
          0.000254628 0.000265276 0.000276816 0.000289281 0.000289277 0.000289272 0.000254628 0.000265275 0.000254628 0.000265273 0.000276814 0.000276811
          0.000254628 0.000265272 0.000254628 0.000265272 0.000276809 0.000276807 0.000289267 0.000289263 0.000289259 0.000289256 0.000302759 0.000302751
          0.000317371 0.000317349 0.000302742 0.000317332 0.000333225 0.000333188 0.000333166 0.000302733 0.000302727 0.00031732 0.000317311 0.000302721
          0.000302717 0.000317304 0.000317299 0.000333152 0.000333141 0.000333133 0.000333127 0.000254628 0.000265271 0.000254628 0.00026527 0.000276805
          0.000276804 0.000254628 0.00026527 0.000276803 0.000289254 0.000289252 0.00028925 0.000254628 0.000265269 0.000254628 0.000265269 0.000276802
          0.000276802 0.000254628 0.000265269 0.000254628 0.000265269 0.000276801 0.000276801 0.000289249 0.000289248 0.000289248 0.000289248 0.000302713
          0.000302711 0.000317295 0.000317291 0.000302709 0.000317289 0.000333122 0.000333119 0.000333116 0.000302707 0.000302706 0.000317287 0.000317286
          0.000302706 0.000302706 0.000317285 0.000317285 0.000333114 0.000333113 0.000333112 0.000333112 0.000347967 0.000347939 0.000363863 0.000363848
          0.000347919 0.000363834 0.000381058 0.000381049 0.00038104 0.000347904 0.000347894 0.000363821 0.000363812 0.000347885 0.000347879 0.000363804
          0.000363798 0.00038103 0.000381022 0.000381015 0.00038101 0.000399695 0.00039969 0.000419952 0.000419948 0.000399683 0.000419944 0.000442005
          0.000442004 0.000466075 0.000466075 0.000442002 0.000466075 0.000399675 0.000399669 0.000419939 0.000419935 0.000399664 0.000399659 0.000419931
          0.000419927 0.000441999 0.000441997 0.000466075 0.000466075 0.000441994 0.000441993 0.000466075 0.000466075 0.000347874 0.000347871 0.000363793
          0.00036379 0.000347868 0.000347866 0.000363787 0.000363785 0.000381006 0.000381002 0.000381 0.000347864 0.000363783 0.000347864 0.000347863
          0.000363783 0.000363782 0.000380998 0.000380997 0.000380996 0.000380996 0.000399656 0.000399653 0.000419924 0.000419922 0.000399651 0.00041992
          0.000399649 0.000419919 0.000441991 0.00044199 0.000466075 0.000466075 0.000441989 0.000441988 0.000466075 0.000466075 0.000399648 0.000419918
          0.000399647 0.000399647 0.000419917 0.000419917 0.000441988 0.000466075 0.000441987 0.000441987 0.000466075 0.000466075 0.000492435 0.000492435
          0.000492435 0.000521367 0.000521366 0.000521366 0.000492434 0.000492433 0.000521364 0.000521363 0.000553219 0.000553218 0.000553217 0.000553215
          0.000553212 0.000492432 0.00052136 0.000492431 0.000492429 0.000521357 0.000521353 0.000553208 0.000553203 0.000553196 0.000588404 0.000588403
          0.000588402 0.000627412 0.000627412 0.000627409 0.000588399 0.000588395 0.000627406 0.0006274 0.000670829 0.000670828 0.000670826 0.000719361
          0.00071936 0.000719357 0.000670821 0.000670815 0.000719352 0.000719344 0.000588389 0.000627393 0.000588381 0.000588372 0.000627383 0.00062737
          0.000670806 0.000719334 0.000670794 0.000670778 0.00071932 0.000719302 0.000492426 0.000492424 0.000521348 0.000521342 0.000492421 0.000492418
          0.000521335 0.000521328 0.000553188 0.000553178 0.000553166 0.000553153 0.000492415 0.000521322 0.000492413 0.000492413 0.000521317 0.000521315
          0.000553141 0.000553132 0.000553128 0.00058836 0.000588345 0.000627354 0.000627333 0.000588326 0.000588305 0.000627307 0.000627274 0.000670758
          0.000670731 0.000719278 0.000719247 0.000670697 0.00067065 0.000719206 0.000719149 0.000588283 0.000627234 0.000588265 0.000588258 0.000627196
          0.000627178 0.000670585 0.000719065 0.000670493 0.000670437 0.000718919 0.000718494 0.000783958 0.000783959 0.000783955 0.000858257 0.000858258
          0.000858254 0.000783949 0.000783941 0.000858248 0.00085824 0.000944323 0.000944324 0.00094432 0.000944314 0.000944307 0.00078393 0.000858229
          0.000783915 0.000783895 0.000858214 0.000858194 0.000944296 0.000944283 0.000944266 0.00104481 0.00104481 0.0010448 0.00116315 0.00116316
          0.00116315 0.0010448 0.00104479 0.00116315 0.00116315 0.00130753 0.00130753 0.00130753 0.00130753 0.00130753 0.00104478 0.00116314
          0.00104477 0.00104476 0.00116314 0.00116313 0.00130753 0.00130753 0.00130753 0.00078387 0.000783837 0.00085817 0.000858139 0.000783794
          0.000783737 0.0008581 0.000858052 0.000944244 0.000944217 0.000944186 0.000944151 0.00078366 0.000857999 0.000783556 0.00078351 0.000857951
          0.000857932 0.000944117 0.00094409 0.00094408 0.00104474 0.00104472 0.00116312 0.00116311 0.0010447 0.00104468 0.0011631 0.00116308
          0.00130753 0.00130753 0.00130753 0.00130753 0.00104466 0.00116307 0.00104464 0.00104464 0.00116306 0.00116306 0.00130753 0.00130753
          0.00130753 0.000492413 0.000492415 0.000521317 0.000521322 0.000492418 0.000521328 0.000553132 0.000553141 0.000553153 0.000492421 0.000492424
          0.000521335 0.000521342 0.000492426 0.000492429 0.000521348 0.000521353 0.000553166 0.000553178 0.000553188 0.000553196 0.000588265 0.000588283
          0.000627196 0.000627234 0.000588305 0.000627274 0.000670493 0.000670585 0.000718919 0.000719065 0.00067065 0.000719149 0.000588326 0.000588345
          0.000627307 0.000627333 0.00058836 0.000588372 0.000627354 0.00062737 0.000670697 0.000670731 0.000719206 0.000719247 0.000670758 0.000670778
          0.000719278 0.000719302 0.000492431 0.000492432 0.000521357 0.00052136 0.000492433 0.000521363 0.000553203 0.000553208 0.000553212 0.000521364
          0.000553215 0.000492434 0.000492435 0.000521366 0.000492435 0.000492435 0.000521366 0.000521367 0.000553217 0.000553218 0.000553219 0.000588381
          0.000588389 0.000627383 0.000627393 0.000588395 0.000588399 0.0006274 0.000670794 0.000670806 0.00071932 0.000719334 0.000670815 0.000719344
          0.000588402 0.000627406 0.000627409 0.000588403 0.000588404 0.000627412 0.000627412 0.000670821 0.000670826 0.000719352 0.000719357 0.000670828
          0.000670829 0.00071936 0.000719361 0.000783556 0.00078366 0.000857951 0.000857999 0.000783737 0.000783794 0.000858052 0.0008581 0.00094409
          0.000944117 0.000944151 0.000944186 0.000783837 0.000858139 0.00078387 0.000783895 0.00085817 0.000858194 0.000944217 0.000944244 0.000944266
          0.00104464 0.00104466 0.00116306 0.00116307 0.00104468 0.0010447 0.00116308 0.0011631 0.00130753 0.00130753 0.00130753 0.00130753
          0.00104472 0.00116311 0.00104474 0.00104476 0.00116312 0.00116313 0.00130753 0.00130753 0.00130753 0.000783915 0.00078393 0.000858214
          0.000858229 0.000783941 0.000783949 0.00085824 0.000858248 0.000944283 0.000944296 0.000944307 0.000944314 0.000783955 0.000858254 0.000783958
          0.000783959 0.000858257 0.00094432 0.000858258 0.000944323 0.000944324 0.00104477 0.00104478 0.00116314 0.00116314 0.00104479 0.0010448
          0.00116315 0.00116315 0.00130753 0.00130753 0.00130753 0.00130753 0.0010448 0.00116315 0.00104481 0.00104481 0.00116315 0.00116316
          0.00130753 0.00130753 0.00130753
        </DataArray>
        <DataArray type="Float32" Name="delp" NumberOfComponents="1" format="ascii">
          0 0 -1.45519e-11 0 0 0 0 0 -1.45519e-11 0 0 0
          0 0 -1.45519e-11 -1.45519e-11 -1.45519e-11 -1.45519e-11 -1.45519e-11 -1.45519e-11 0 0 0 0
          0 0 0 -1.45519e-11 0 -1.45519e-11 -1.45519e-11 -1.45519e-11 -1.45519e-11 -1.45519e-11 -1.45519e-11 -1.45519e-11
          -1.45519e-11 -1.45519e-11 -1.45519e-11 -1.45519e-11 -1.45519e-11 -2.91038e-11 -2.91038e-11 -2.91038e-11 -2.91038e-11 -2.91038e-11 -1.45519e-11 -1.45519e-11
          -1.45519e-11 -1.45519e-11 -1.45519e-11 -2.91038e-11 -1.45519e-11 -2.91038e-11 -2.91038e-11 -2.91038e-11 0 0 0 0
          0 0 0 0 0 -1.45519e-11 -1.45519e-11 -1.45519e-11 -1.45519e-11 -1.45519e-11 -1.45519e-11 -1.45519e-11
          0 -1.45519e-11 -1.45519e-11 0 0 0 -1.45519e-11 -1.45519e-11 -1.45519e-11 -1.45519e-11 -1.45519e-11 -1.45519e-11
          -2.91038e-11 -1.45519e-11 -2.91038e-11 -2.91038e-11 -1.45519e-11 -1.45519e-11 -2.91038e-11 -2.91038e-11 -2.91038e-11 -2.91038e-11 -2.91038e-11 -2.91038e-11
          -1.45519e-11 -2.91038e-11 -1.45519e-11 -1.45519e-11 -2.91038e-11 -2.91038e-11 -2.91038e-11 -2.91038e-11 -2.91038e-11 -2.91038e-11 -2.91038e-11 -2.91038e-11
          -2.91038e-11 -2.91038e-11 -2.91038e-11 -2.91038e-11 -2.91038e-11 -2.91038e-11 -2.91038e-11 -2.91038e-11 -2.91038e-11 -2.91038e-11 -2.91038e-11 -2.91038e-11
          -4.36557e-11 -2.91038e-11 -2.91038e-11 -4.36557e-11 -2.91038e-11 -4.36557e-11 -4.36557e-11 -4.36557e-11 -4.36557e-11 -2.91038e-11 -2.91038e-11 -2.91038e-11
          -2.91038e-11 -2.91038e-11 -4.36557e-11 -2.91038e-11 -4.36557e-11 -4.36557e-11 -4.36557e-11 -4.36557e-11 -4.36557e-11 -4.36557e-11 -4.36557e-11 -4.36557e-11
          -4.36557e-11 -2.91038e-11 -4.36557e-11 -4.36557e-11 -4.36557e-11 -4.36557e-11 -4.36557e-11 -4.36557e-11 -4.36557e-11 -4.36557e-11 -4.36557e-11 -4.36557e-11
          -4.36557e-11 -4.36557e-11 -5.82077e-11 -4.36557e-11 -5.82077e-11 -4.36557e-11 -2.91038e-11 -4.36557e-11 -4.36557e-11 -2.91038e-11 -2.91038e-11 -4.36557e-11
          -4.36557e-11 -4.36557e-11 -4.36557e-11 -4.36557e-11 -4.36557e-11 -4.36557e-11 -4.36557e-11 -4.36557e-11 -4.36557e-11 -5.82077e-11 -5.82077e-11 -4.36557e-11
          -5.82077e-11 -5.82077e-11 -5.82077e-11 -4.36557e-11 -4.36557e-11 -4.36557e-11 -4.36557e-11 -4.36557e-11 -4.36557e-11 -4.36557e-11 -4.36557e-11 -4.36557e-11
          -4.36557e-11 -4.36557e-11 -4.36557e-11 -5.82077e-11 -4.36557e-11 -5.82077e-11 -4.36557e-11 -4.36557e-11 -5.82077e-11 -5.82077e-11 -5.82077e-11 -5.82077e-11
          -5.82077e-11 -5.82077e-11 -5.82077e-11 -5.82077e-11 -5.82077e-11 -7.27596e-11 0 -1.45519e-11 0 -1.45519e-11 -1.45519e-11 -1.45519e-11
          0 -1.45519e-11 -1.45519e-11 -1.45519e-11 -1.45519e-11 -1.45519e-11 0 0 0 -1.45519e-11 -1.45519e-11 -1.45519e-11
          0 -1.45519e-11 0 0 -1.45519e-11 -1.45519e-11 -2.91038e-11 -1.45519e-11 -1.45519e-11 -2.91038e-11 -1.45519e-11 -1.45519e-11
          -2.91038e-11 -2.91038e-11 -1.45519e-11 -2.91038e-11 -2.91038e-11 -2.91038e-11 -2.91038e-11 -1.45519e-11 -2.91038e-11 -2.91038e-11 -2.91038e-11 -2.91038e-11
          -2.91038e-11 -2.91038e-11 -2.91038e-11 -2.91038e-11 -2.91038e-11 -2.91038e-11 -2.91038e-11 0 -1.45519e-11 0 -1.45519e-11 -1.45519e-11
          -1.45519e-11 0 -1.45519e-11 -1.45519e-11 -1.45519e-11 -1.45519e-11 -1.45519e-11 0 -1.45519e-11 0 0 -1.45519e-11
          -1.45519e-11 0 -1.45519e-11 0 0 -1.45519e-11 -1.45519e-11 -1.45519e-11 -1.45519e-11 -1.45519e-11 -1.45519e-11 -2.91038e-11
          -1.45519e-11 -2.91038e-11 -1.45519e-11 -1.45519e-11 -1.45519e-11 -2.91038e-11 -2.91038e-11 -2.91038e-11 -1.45519e-11 -2.91038e-11 -2.91038e-11 -2.91038e-11
          -1.45519e-11 -2.91038e-11 -2.91038e-11 -1.45519e-11 -2.91038e-11 -2.91038e-11 -2.91038e-11 -2.91038e-11 -4.36557e-11 -4.36557e-11 -4.36557e-11 -4.36557e-11
          -4.36557e-11 -4.36557e-11 -5.82077e-11 -4.36557e-11 -4.36557e-11 -4.36557e-11 -2.91038e-11 -4.36557e-11 -4.36557e-11 -2.91038e-11 -2.91038e-11 -4.36557e-11
          -4.36557e-11 -4.36557e-11 -4.36557e-11 -4.36557e-11 -4.36557e-11 -5.82077e-11 -5.82077e-11 -5.82077e-11 -5.82077e-11 -5.82077e-11 -5.82077e-11 -5.82077e-11
          -5.82077e-11 -7.27596e-11 -5.82077e-11 -5.82077e-11 -5.82077e-11 -5.82077e-11 -5.82077e-11 -5.82077e-11 -5.82077e-11 -4.36557e-11 -4.36557e-11 -4.36557e-11
          -5.82077e-11 -5.82077e-11 -5.82077e-11 -5.82077e-11 -5.82077e-11 -5.82077e-11 -4.36557e-11 -5.82077e-11 -5.82077e-11 -2.91038e-11 -4.36557e-11 -4.36557e-11
          -4.36557e-11 -2.91038e-11 -2.91038e-11 -4.36557e-11 -4.36557e-11 -4.36557e-11 -4.36557e-11 -4.36557e-11 -2.91038e-11 -4.36557e-11 -2.91038e-11 -4.36557e-11
          -4.36557e-11 -4.36557e-11 -4.36557e-11 -4.36557e-11 -2.91038e-11 -2.91038e-11 -4.36557e-11 -4.36557e-11 -4.36557e-11 -4.36557e-11 -4.36557e-11 -4.36557e-11
          -4.36557e-11 -4.36557e-11 -4.36557e-11 -4.36557e-11 -4.36557e-11 -5.82077e-11 -5.82077e-11 -4.36557e-11 -4.36557e-11 -4.36557e-11 -4.36557e-11 -4.36557e-11
          -4.36557e-11 -4.36557e-11 -4.36557e-11 -4.36557e-11 -4.36557e-11 -4.36557e-11 -4.36557e-11 -4.36557e-11 -5.82077e-11 -4.36557e-11 -4.36557e-11 -4.36557e-11
          -4.36557e-11 -4.36557e-11 -4.36557e-11 -4.36557e-11 -4.36557e-11 -4.36557e-11 -4.36557e-11 -2.91038e-11 -2.91038e-11 -4.36557e-11 -4.36557e-11 -4.36557e-11
          -4.36557e-11 -4.36557e-11 -4.36557e-11 -4.36557e-11 -4.36557e-11 -4.36557e-11 -4.36557e-11 -4.36557e-11 -4.36557e-11 -5.82077e-11 -2.91038e-11 -4.36557e-11
          -4.36557e-11 -4.36557e-11 -2.91038e-11 -4.36557e-11 -4.36557e-11 -4.36557e-11 -4.36557e-11 -2.91038e-11 -4.36557e-11 -4.36557e-11 -4.36557e-11 -4.36557e-11
          -2.91038e-11 -2.91038e-11 -4.36557e-11 -4.36557e-11 -4.36557e-11 -4.36557e-11 -4.36557e-11 -4.36557e-11 -4.36557e-11 -5.82077e-11 -4.36557e-11 -4.36557e-11
          -4.36557e-11 -4.36557e-11 -4.36557e-11 -4.36557e-11 -4.36557e-11 -4.36557e-11 -4.36557e-11 -4.36557e-11 -5.82077e-11 -4.36557e-11 -5.82077e-11 -5.82077e-11
          -5.82077e-11 -5.82077e-11 -5.82077e-11 -5.82077e-11 -5.82077e-11 -5.82077e-11 -5.82077e-11 -5.82077e-11 -5.82077e-11 -7.27596e-11 -5.82077e-11 -5.82077e-11
          -5.82077e-11 -5.82077e-11 -7.27596e-11 -4.36557e-11 -4.36557e-11 -4.36557e-11 -4.36557e-11 -5.82077e-11 -4.36557e-11 -4.36557e-11 -5.82077e-11 -4.36557e-11
          -4.36557e-11 -4.36557e-11 -4.36557e-11 -4.36557e-11 -4.36557e-11 -4.36557e-11 -4.36557e-11 -5.82077e-11 -5.82077e-11 -5.82077e-11 -5.82077e-11 -5.82077e-11