<?xml version="1.0"?>
<VTKFile type="UnstructuredGrid" version="0.1" byte_order="LittleEndian">
  <UnstructuredGrid>
    <Piece NumberOfCells="4" NumberOfPoints="22">
      <CellData Scalars="S_aq">
        <DataArray type="Float32" Name="S_aq" NumberOfComponents="1" format="ascii">
          0.282385 0.642584 0.718714 0.976281
        </DataArray>
        <DataArray type="Float32" Name="p_aq" NumberOfComponents="1" format="ascii">
          180196 110365 92261.3 85641.4
        </DataArray>
        <DataArray type="Float32" Name="rho_aq" NumberOfComponents="1" format="ascii">
          1000 1000 1000 1000
        </DataArray>
        <DataArray type="Float32" Name="mob_aq" NumberOfComponents="1" format="ascii">
          21.8674 238.578 334.311 964.98
        </DataArray>
        <DataArray type="Float32" Name="S_napl" NumberOfComponents="1" format="ascii">
          0.717615 0.357416 0.281286 0.0237186
        </DataArray>
        <DataArray type="Float32" Name="p_napl" NumberOfComponents="1" format="ascii">
          182816 112468 94263 87004.4
        </DataArray>
        <DataArray type="Float32" Name="rho_napl" NumberOfComponents="1" format="ascii">
          1460 1460 1460 1460
        </DataArray>
        <DataArray type="Float32" Name="mob_napl" NumberOfComponents="1" format="ascii">
          944.375 216.615 128.785 0.544553
        </DataArray>
        <DataArray type="Float32" Name="pc" NumberOfComponents="1" format="ascii">
          2620.15 2103.33 2001.68 1363.02
        </DataArray>
        <DataArray type="Float32" Name="porosity" NumberOfComponents="1" format="ascii">
          0.1 0.1 0.3 0.3
        </DataArray>
        <DataArray type="Float32" Name="process rank" NumberOfComponents="1" format="ascii">
          0 0 0 0
        </DataArray>
        <DataArray type="Float32" Name="PERMX [mD]" NumberOfComponents="1" format="ascii">
          100 100 500 500
        </DataArray>
        <DataArray type="Float32" Name="PERMZ [mD]" NumberOfComponents="1" format="ascii">
          100 100 500 500
        </DataArray>
      </CellData>
      <Points>
        <DataArray type="Float32" Name="Coordinates" NumberOfComponents="3" format="ascii">
          0 0 0 1 0 0 0 1 0 1 1 0
          0 0 1 1 0 1 0 1 1 1 1 1
          2 0 0 2 1 0 1 0 0.8 2 0 1.2
          1 1 1.2 2 1 1.2 0 0 2 1 0 2
          0 1 2 1 1 2 1 0 2.2 2 0 2
          1 1 1.9 2 1 2
        </DataArray>
      </Points>
      <Cells>
        <DataArray type="Int32" Name="connectivity" NumberOfComponents="1" format="ascii">
          0 1 3 2 4 5 7 6 1 8 9 3
          10 11 13 12 4 5 7 6 14 15 17 16
          10 11 13 12 18 19 21 20
        </DataArray>
        <DataArray type="Int32" Name="offsets" NumberOfComponents="1" format="ascii">
          8 16 24 32
        </DataArray>
        <DataArray type="UInt8" Name="types" NumberOfComponents="1" format="ascii">
          12 12 12 12
        </DataArray>
      </Cells>
    </Piece>
  </UnstructuredGrid>
</VTKFile>
