<?xml version="1.0"?>
<VTKFile type="UnstructuredGrid" version="0.1" byte_order="LittleEndian">
  <UnstructuredGrid>
    <Piece NumberOfCells="4" NumberOfPoints="9">
      <CellData Scalars="process rank">
        <DataArray type="Float32" Name="process rank" NumberOfComponents="1" format="ascii">
          0 0 0 0
        </DataArray>
        <DataArray type="Int32" Name="integer" NumberOfComponents="1" format="ascii">
          0 1 2 3
        </DataArray>
        <DataArray type="Float32" Name="float" NumberOfComponents="1" format="ascii">
          0.1 1.2 2.3 3.4
        </DataArray>
        <DataArray type="Float64" Name="double" NumberOfComponents="1" format="ascii">
          0.123456789101112 1.3 2.5 3.9
        </DataArray>
        <DataArray type="Float64" Name="default" NumberOfComponents="1" format="ascii">
          0.123456789101112 1.3 2.5 3.9
        </DataArray>
      </CellData>
      <Points>
        <DataArray type="Float64" Name="Coordinates" NumberOfComponents="3" format="ascii">
          0 0 0 0.5 0 0 0 0.5 0 0.5 0.5 0
          1 0 0 1 0.5 0 0 1 0 0.5 1 0
          1 1 0
        </DataArray>
      </Points>
      <Cells>
        <DataArray type="Int32" Name="connectivity" NumberOfComponents="1" format="ascii">
          0 1 3 2 1 4 5 3 2 3 7 6
          3 5 8 7
        </DataArray>
        <DataArray type="Int32" Name="offsets" NumberOfComponents="1" format="ascii">
          4 8 12 16
        </DataArray>
        <DataArray type="UInt8" Name="types" NumberOfComponents="1" format="ascii">
          9 9 9 9
        </DataArray>
      </Cells>
    </Piece>
  </UnstructuredGrid>
</VTKFile>
