<?xml version="1.0"?>
<VTKFile type="UnstructuredGrid" version="0.1" byte_order="LittleEndian">
  <UnstructuredGrid>
    <Piece NumberOfCells="1670" NumberOfPoints="911">
      <PointData Scalars="S_aq">
        <DataArray type="Float32" Name="S_aq" NumberOfComponents="1" format="ascii">
          0.980233 0.986916 0.992338 0.0635169 0.0698393 0.0708808 0.0621786 0.0709361 0.27379 0.141164 1 1
          1 0.0656276 0.859214 0.769468 0.917355 1 0.998059 0.994853 0.925629 0.921243 0.965331 0.996963
          0.997717 0.999316 0.958159 0.910516 0.985936 0.994252 0.98745 0.883901 0.862438 0.999187 0.999938 0.321725
          0.961227 1 0.999743 1 0.998717 0.997199 0.995795 0.862711 0.934058 0.923586 0.999929 0.99292
          0.9632 1 1 0.135782 0.670973 0.999419 0.971236 0.664281 0.782482 0.679653 1 1
          1 0.999999 1 0.999916 0.0629137 0.0630308 0.0776632 0.767664 1 0.0731144 1 0.817912
          0.965261 0.981109 0.992775 0.972052 0.945518 0.994755 1 1 1 0.0618906 0.0618077 0.0703989
          0.979759 0.999896 0.997862 0.0893853 0.203595 0.328875 0.696778 0.827675 0.728786 1 1 1
          0.0631292 0.063721 0.0876207 1 1 0.99897 0.987139 1 0.999828 0.0698745 0.727641 0.0779423
          0.103538 1 0.999377 0.101245 0.991326 0.996012 0.998395 1 0.0814672 0.378214 0.503274 0.934796
          0.614936 1 0.999995 0.0614988 0.999615 0.200397 0.999615 1 0.0682017 0.730091 0.0819707 0.845077
          1 0.0869162 0.997529 0.735963 0.676578 0.872866 1 0.999534 0.0672846 0.605684 0.162763 0.625615
          1 1 1 1 1 1 1 1 1 1 1 0.956169
          0.994512 1 0.0738132 0.0890713 0.220341 1 1 1 0.999998 1 1 1
          1 0.999942 1 1 1 1 0.747175 0.140375 0.194985 0.830588 1 1
          0.76988 0.871617 0.922257 0.762163 1 1 1 1 1 1 0.999887 1
          1 1 1 1 1 1 0.479223 0.574739 0.867382 1 1 1
          1 1 1 0.678234 1 1 1 1 1 1 1 1
          1 1 1 0.0714809 0.239036 1 1 0.916171 0.99785 0.963207 0.990362 0.999999
          1 1 1 1 0.802641 1 0.907596 1 1 1 0.971284 1
          1 0.958155 0.96938 0.9995 0.996643 1 1 1 1 1 1 1
          1 1 1 1 1 1 0.999164 1 1 1 0.555171 0.998504
          1 1 1 1 1 1 1 0.854299 1 1 0.99961 1
          0.830336 0.999998 1 1 1 1 1 1 0.983294 1 1 0.359752
          0.841076 0.991652 1 1 1 1 1 0.970316 1 1 1 1
          1 0.273442 1 1 1 1 1 1 1 0.842568 0.999694 0.919301
          1 0.999953 1 1 0.978476 1 1 1 1 1 1 1
          1 1 1 0.378005 1 1 1 1 1 0.637146 1 1
          0.106647 1 1 1 1 1 1 1 1 1 1 1
          0.849403 1 1 1 1 1 0.807848 1 1 1 1 1
          1 1 1 0.997971 0.998831 1 0.999957 1 1 1 1 1
          1 1 1 1 1 0.609993 0.887053 0.517822 1 1 1 1
          1 1 1 1 1 1 1 1 1 1 1 1
          1 0.999998 1 1 1 1 1 1 1 0.999832 1 1
          1 0.946803 0.916223 0.98676 0.764851 0.875888 1 0.99444 1 0.964341 1 1
          1 1 0.999669 1 1 1 1 1 1 0.999527 1 1
          0.778533 0.357922 0.998833 1 0.846336 0.999963 0.995288 1 1 0.99837 0.969602 0.130037
          0.740175 0.0996677 0.834074 0.773883 1 1 1 1 0.991869 1 1 1
          0.958926 0.887322 1 1 1 1 1 1 1 1 1 1
          1 0.248342 1 0.990382 1 1 1 0.916034 0.960019 1 1 1
          1 1 1 1 1 1 1 0.994897 1 1 1 0.835019
          1 1 1 0.872511 1 1 0.0835798 0.0746616 1 1 1 1
          1 1 0.981739 1 1 1 1 1 1 1 1 1
          1 1 1 1 1 1 1 0.0710335 0.193909 0.969314 0.641348 0.993874
          1 1 1 1 1 1 0.354892 1 1 1 1 1
          1 0.653747 1 1 1 1 1 1 1 0.148412 0.154882 0.306842
          0.733294 0.869561 0.952473 0.995794 1 1 0.586874 1 1 0.813008 1 0.776315
          1 0.846352 1 1 1 1 1 1 1 1 1 1
          1 1 1 1 1 1 1 0.885706 0.882302 0.936726 1 1
          1 1 1 1 0.928184 0.583806 0.967466 0.975368 1 1 1 1
          0.858245 0.966345 1 1 1 1 1 1 1 1 1 1
          1 1 0.99625 1 1 1 1 1 1 1 1 1
          1 1 1 1 1 1 1 1 1 0.989513 1 0.9989
          1 1 1 0.355575 0.324359 0.978101 1 1 1 1 1 1
          1 1 1 1 1 1 1 1 1 1 1 1
          1 1 1 1 1 1 1 1 1 1 1 1
          1 1 1 1 0.492413 1 1 1 1 0.998586 1 1
          1 1 1 1 1 1 1 1 0.89534 1 1 0.996224
          0.998453 0.926307 1 1 1 0.93945 1 1 1 1 0.986105 1
          1 1 0.214046 0.194723 0.943098 1 1 1 1 1 1 0.998999
          1 1 1 1 1 0.947609 0.952345 1 1 1 1 1
          1 0.940886 0.613202 1 1 1 1 1 1 1 1 1
          1 1 1 0.990686 1 1 1 1 1 1 1 0.994151
          1 1 1 1 0.875998 1 1 1 1 1 1 1
          1 0.179676 0.802335 0.349438 1 1 1 0.753345 0.694271 1 1 1
          1 0.910295 0.891478 0.477792 1 1 0.882838 0.133312 1 1 1 1
          0.999914 1 1 1 0.288603 0.0709256 1 1 1 0.107663 0.840053 1
          1 1 1 1 1 1 1 1 1 1 1 1
          1 1 1 1 1 1 0.991553 1 1 1 1 1
          1 1 1 1 1 1 1 1 1 1 0.0787432 0.0755717
          0.67297 1 1 1 0.207519 1 1 1 1 1 1 1
          1 1 1 1 1 1 0.982566 1 0.999998 1 1 1
          0.0735924 0.0717961 0.382756 1 1 1 0.091337 0.0847043 0.708553 1 1 1
          1 1 1 0.405057 1 1 1 1 1 1 0.987322 1
          1 0.991357 1 1 1 0.0802066 1 1 1 0.981368 1 0.201009
          1 0.533147 1 1 1 1 1 0.271859 1 1 1
        </DataArray>
        <DataArray type="Float32" Name="p_aq" NumberOfComponents="1" format="ascii">
          96538.3 97103.8 95925.1 101276 99913.6 99948.3 101227 100591 99538.5 99561.3 90794 90780.1
          91757.6 100664 90753.1 91734 91732.8 91772 90753.1 96307.5 96359.5 97054.4 96009.5 95076.7
          95693.7 94621.1 97570.6 98048.8 94180.1 93721.1 93251 95722.7 96890.6 95617.4 92864.8 98445.1
          97025.7 92241.9 93253.9 92710.5 97012.5 96662.9 97866.7 94299.3 94615.9 93422.5 93628.7 97672.1
          93624.9 94277.8 93498.7 99079.1 98515 92243.2 92782.7 95655.6 95326.6 94675.3 90756.8 90755.1
          91831.4 95638.2 94675 95259.9 101007 100928 99572.6 94262.1 94247.4 99982.2 91462.5 96263.4
          94928.1 95079.1 97141.3 94142.3 95556.9 95034.2 90770.4 90764 91723.2 101180 101124 99860.8
          98543.3 97570.3 97964.5 98668.3 98000 97617.4 93695.1 93314.3 92714.7 93710.9 92744 93313.6
          100838 100748 99593.1 90754 90753.4 91729 95584.1 91574.6 96310.9 99988.2 96342.5 99255.8
          98638.1 92353.4 96172.3 98886.3 94693.8 94281.3 94258.8 92440.7 98977.1 97880.7 98864.9 92425.5
          96636.1 90759.6 96602.4 101053 94944.1 98780.1 92547.6 91555.5 100145 98756.2 98888.5 92517.5
          92539.7 99787.3 91537.7 97034.8 97980.4 94991.1 91412.6 97092 100247 97126.1 98443.8 97797.7
          96766.4 95889.9 96389.9 96466.5 93167.3 93215.8 93961.9 93922.1 95861.6 95462.8 96386.7 98938.4
          98475.3 97818.1 100488 100482 99706.1 95660.3 94364.6 96367.9 97953.9 97561.6 97452 96855.9
          95877.5 98210 95001.2 91477.8 92182.2 92426.8 99301.7 100378 100275 99163.6 93399.4 94492.9
          97727.2 95722.7 96526.6 96576.4 94817.3 95274.4 94937.8 95224.8 96261.5 96036.6 96670.4 93067
          92429 95502.9 94922.8 96057.4 95891 95280.5 99616.2 99191.6 98441.8 95126.4 93912 95095
          96076 95380.8 93455.8 99438.1 96113.1 92961.5 93289.2 93633.9 95589 95379.1 93872.4 91020.2
          90943.1 92015.9 96637.9 100537 99627 94071.8 93293.4 98970.6 98330 96998.8 96015.2 96459.2
          94671 94264.9 95694.4 96544.5 95055 94443.5 94158.2 95981.8 96748.1 94997.5 95015.7 95290.7
          95071.9 98624.5 98247.6 97331.1 98011.9 97248.7 92607.3 95566 91273 92949.5 92960.7 94688.6
          94819.8 92352.2 95711.8 94735.2 92152 93133 94028 97057 98038 96405.8 99539.5 95131
          91595.1 95883.4 95785.7 93989.4 94646.1 93515.9 93722.7 98020.6 97244 93055.3 97233.3 94336.8
          98910.9 98233.3 95683.7 96279.7 95416.9 90886.3 90845.5 91783.4 97897.2 94409.3 96458.1 99911.2
          99026.6 97372.9 95106.1 95405.5 95013.1 95314.4 95507.9 98780.2 91776.6 94751.9 93723.5 93784
          93111.4 100129 97344.7 91808.6 91751.5 92471.1 94598.6 93579.8 94114 97568.2 98056.5 98889.9
          95235.5 96770.8 97921.4 94327.7 93516 96876.6 94882.4 91171 99019 92755.7 96947.7 97070.7
          94355.5 92495.9 95120.8 99767.4 94520.3 92385.7 95425.7 95245.2 94234.2 98590.4 94601.5 94144.4
          100444 95239.7 90815.9 91538 91124.9 94440.9 97846.3 95222.7 92658.7 92132.1 95383.6 95993
          93655.2 96892.8 91775.5 91289.6 97133.4 96332.3 94274.1 95319.1 95619.1 95449.8 95010.5 95327.9
          95484 95423.2 95285 98514.7 98341.5 97425.8 97927.2 95503.9 94997.8 96076.9 97079.5 94642.9
          95373.8 94975.4 94325.4 94476.2 94897.4 99255.5 98286.5 99681.6 94007.5 93166.1 93751.6 91617.5
          90817.9 94165.6 93294.6 90893 91743.7 91647.6 92705.3 94988.1 94873.4 92286.6 91785.7 94670.4
          95075.3 97879.6 95727.5 96512.9 96039.2 93862.2 95196.8 95616 95881.5 96001.1 95467.5 95504.2
          94794.4 97037.4 96605 95958.2 97729.3 95934.2 95427.6 98805.4 92235.4 95065.5 96902.5 96126.6
          95723.4 95906.2 98168.9 95422.8 95243 94786.3 96436.8 94696.4 95508.4 96587.4 95757.9 97505.5
          99208.5 99661.6 98471.5 95095 98033.3 95373.5 94909.6 96208.9 96531.5 97287.2 97259.9 100369
          99366.5 100432 98884.5 96569 95788.2 95962.9 94715.1 94114 96538.8 97762.3 96997.9 97580.9
          98895.4 99131.6 93401.2 93534.4 95019.8 94541.7 92388.4 92759.1 94360.6 92830.4 92512.3 91961.8
          96517.7 99861.2 94370.2 98035.6 94149.2 93065.9 96984.6 94689.4 93475.9 96404.9 94116.3 94622.4
          95731.3 94096.5 93375.9 93272.2 98038 97057 93133 93999.8 92152 96076 94046.5 97596.8
          91577.5 94204.9 96800.1 93715.7 94851.9 93352.6 100463 100490 95087.9 92293.3 93444.2 97051.4
          97607.6 97135.4 98347.3 97402.5 91994.6 90850 96457.7 96569.4 93215.9 94248.7 99019 91171
          94313 96799.3 96456.3 93570.9 91489.8 94075.3 92333 100530 99728.3 98640.4 99509.1 98217.5
          96169.7 92674.2 92151.2 93742.8 91283.8 91136.8 99954.6 93500.1 94175 96568.8 91767.5 92687.2
          96995.5 98619.9 91029.1 90950.8 93757.9 97146 97733.9 95414.5 92469 99909.9 100256 100153
          99234.9 99029 98826.2 98256.3 92957.5 92756.3 99544 91421.3 96364.8 94178.3 95604.7 95088.6
          93024.4 95343.3 94241.6 95064.8 94625.2 94491.4 97864.9 97851.1 97064 97142.3 95270.4 95681
          94766.9 92269 92720.5 93371.2 90763.5 90800 91520.1 94916.3 96406.1 94125.9 93246.4 93577.3
          93655.6 94258.9 95282.5 92939.8 95700.3 99658.5 98860.5 98568.1 91918.3 90930 91037.1 92026.1
          97525.5 96251.1 93346.7 95074.8 94381.5 94327.8 95989.3 95500.2 95786.4 95448.4 94602.6 94867.4
          94269.5 97929.9 98641.4 95376.1 95948 95052.6 95193.8 95823.3 91678.5 92069.9 92678 95951.2
          97066.1 95095 94114 94988.6 97477.3 97716.8 98445.1 91778.2 94199.6 98003.4 97664.4 97261.7
          95152.6 95273.7 97038.2 100171 100258 99097.1 94443.1 90723.4 90738.8 91602.6 97082.7 97862.4
          92222.6 92851.2 93935 94760.1 94394.9 96272.2 96653.4 95011 94589.3 95630.3 96724.3 96419.5
          95064.5 94311 91700.7 96129.3 95610.9 92671.1 93635.5 95248 95414.4 92518.6 92844.8 93693
          93083.2 93811.5 98571 95434.3 99891.6 98145 98154.9 96361.3 96179.8 98785.3 94733 95598.8
          98038 97057 96375.8 93133 92152 93967 91684.5 95466.9 99558.9 94887 95045.3 96828.7
          96075.1 97369.4 97228.1 93068.6 93901 97884.8 93745.6 96485.1 92255 92901.9 94868.5 95554.8
          94906.6 95759.1 100309 100372 99374.1 93150.1 96677.3 94710.8 91393.6 92141.7 93604.2 95530.6
          95227.1 95648.5 95268 95037.7 92394.6 99421.6 99405.5 95709.5 97413.7 97329.4 98019.8 91186.1
          93817.1 99294.9 99355.4 98694.9 96150.6 97510.5 96076 93468.1 93105.8 92324.7 95793.5 94147.6
          93186.7 96799.7 96885.7 93490.8 96298.8 99019 91171 98392.8 94235.5 94124 96629.1 98593.1
          96038.7 91490.7 96590.5 94596 98642.9 95063.1 95716.4 96945.6 92600.6 96542.6 96171.4 90852.8
          95676.2 100421 99644.9 100031 96418.4 93333.8 95363.4 98364.3 98933.5 95674.9 96514.6 95180.4
          96842.4 93534.9 99319.5 99920.5 94039.5 96298.4 94150 100427 95268 92548 93119.8 93661.3
          98664.2 98080.6 97547.9 91691.4 99533.3 100576 90714.3 90772.1 91749.6 100463 99447.4 92905.1
          98304.6 94115.9 94630.5 97101.2 96576.7 96246.7 95531.8 96615 94958.1 95677.3 94587.1 95606.2
          95596.3 94939.1 96267.5 96996.3 96636.1 97844 98993.3 97952.3 98515.8 92213.7 93254.3 92688.3
          97639 97599.8 93603.6 94264 93479.1 96933.6 97720.8 90721 90714.8 91797 100521 100537
          99419.8 95948.3 95249.4 91416.2 99807.9 94240.8 96952.6 95640.3 95565.9 96909.1 96195.3 94297.1
          95011 93735.4 94183.1 97021.5 97472.5 92192.4 99022.2 93235.5 97954.4 90711.1 90710.6 91667
          100550 100562 99537.6 90754.6 90740.8 91702.6 100468 100489 99507.9 93305.1 97889.4 95603.2
          94877.3 91543 96302.5 99677 94085.2 93319.2 98501.9 94850 96155.8 92342.6 98866.7 92377.6
          92706.8 98839 92426.7 98771.3 90729.6 100499 96275.8 94924.2 92471.2 98745.5 91494.1 99739.9
          91541.2 99669 92533.1 98660.6 94620.8 94095 91385.9 99834.7 97085.1 94008.7 93604.5
        </DataArray>
        <DataArray type="Float32" Name="rho_aq" NumberOfComponents="1" format="ascii">
          1000 1000 1000 1000 1000 1000 1000 1000 1000 1000 1000 1000
          1000 1000 1000 1000 1000 1000 1000 1000 1000 1000 1000 1000
          1000 1000 1000 1000 1000 1000 1000 1000 1000 1000 1000 1000
          1000 1000 1000 1000 1000 1000 1000 1000 1000 1000 1000 1000
          1000 1000 1000 1000 1000 1000 1000 1000 1000 1000 1000 1000
          1000 1000 1000 1000 1000 1000 1000 1000 1000 1000 1000 1000
          1000 1000 1000 1000 1000 1000 1000 1000 1000 1000 1000 1000
          1000 1000 1000 1000 1000 1000 1000 1000 1000 1000 1000 1000
          1000 1000 1000 1000 1000 1000 1000 1000 1000 1000 1000 1000
          1000 1000 1000 1000 1000 1000 1000 1000 1000 1000 1000 1000
          1000 1000 1000 1000 1000 1000 1000 1000 1000 1000 1000 1000
          1000 1000 1000 1000 1000 1000 1000 1000 1000 1000 1000 1000
          1000 1000 1000 1000 1000 1000 1000 1000 1000 1000 1000 1000
          1000 1000 1000 1000 1000 1000 1000 1000 1000 1000 1000 1000
          1000 1000 1000 1000 1000 1000 1000 1000 1000 1000 1000 1000
          1000 1000 1000 1000 1000 1000 1000 1000 1000 1000 1000 1000
          1000 1000 1000 1000 1000 1000 1000 1000 1000 1000 1000 1000
          1000 1000 1000 1000 1000 1000 1000 1000 1000 1000 1000 1000
          1000 1000 1000 1000 1000 1000 1000 1000 1000 1000 1000 1000
          1000 1000 1000 1000 1000 1000 1000 1000 1000 1000 1000 1000
          1000 1000 1000 1000 1000 1000 1000 1000 1000 1000 1000 1000
          1000 1000 1000 1000 1000 1000 1000 1000 1000 1000 1000 1000
          1000 1000 1000 1000 1000 1000 1000 1000 1000 1000 1000 1000
          1000 1000 1000 1000 1000 1000 1000 1000 1000 1000 1000 1000
          1000 1000 1000 1000 1000 1000 1000 1000 1000 1000 1000 1000
          1000 1000 1000 1000 1000 1000 1000 1000 1000 1000 1000 1000
          1000 1000 1000 1000 1000 1000 1000 1000 1000 1000 1000 1000
          1000 1000 1000 1000 1000 1000 1000 1000 1000 1000 1000 1000
          1000 1000 1000 1000 1000 1000 1000 1000 1000 1000 1000 1000
          1000 1000 1000 1000 1000 1000 1000 1000 1000 1000 1000 1000
          1000 1000 1000 1000 1000 1000 1000 1000 1000 1000 1000 1000
          1000 1000 1000 1000 1000 1000 1000 1000 1000 1000 1000 1000
          1000 1000 1000 1000 1000 1000 1000 1000 1000 1000 1000 1000
          1000 1000 1000 1000 1000 1000 1000 1000 1000 1000 1000 1000
          1000 1000 1000 1000 1000 1000 1000 1000 1000 1000 1000 1000
          1000 1000 1000 1000 1000 1000 1000 1000 1000 1000 1000 1000
          1000 1000 1000 1000 1000 1000 1000 1000 1000 1000 1000 1000
          1000 1000 1000 1000 1000 1000 1000 1000 1000 1000 1000 1000
          1000 1000 1000 1000 1000 1000 1000 1000 1000 1000 1000 1000
          1000 1000 1000 1000 1000 1000 1000 1000 1000 1000 1000 1000
          1000 1000 1000 1000 1000 1000 1000 1000 1000 1000 1000 1000
          1000 1000 1000 1000 1000 1000 1000 1000 1000 1000 1000 1000
          1000 1000 1000 1000 1000 1000 1000 1000 1000 1000 1000 1000
          1000 1000 1000 1000 1000 1000 1000 1000 1000 1000 1000 1000
          1000 1000 1000 1000 1000 1000 1000 1000 1000 1000 1000 1000
          1000 1000 1000 1000 1000 1000 1000 1000 1000 1000 1000 1000
          1000 1000 1000 1000 1000 1000 1000 1000 1000 1000 1000 1000
          1000 1000 1000 1000 1000 1000 1000 1000 1000 1000 1000 1000
          1000 1000 1000 1000 1000 1000 1000 1000 1000 1000 1000 1000
          1000 1000 1000 1000 1000 1000 1000 1000 1000 1000 1000 1000
          1000 1000 1000 1000 1000 1000 1000 1000 1000 1000 1000 1000
          1000 1000 1000 1000 1000 1000 1000 1000 1000 1000 1000 1000
          1000 1000 1000 1000 1000 1000 1000 1000 1000 1000 1000 1000
          1000 1000 1000 1000 1000 1000 1000 1000 1000 1000 1000 1000
          1000 1000 1000 1000 1000 1000 1000 1000 1000 1000 1000 1000
          1000 1000 1000 1000 1000 1000 1000 1000 1000 1000 1000 1000
          1000 1000 1000 1000 1000 1000 1000 1000 1000 1000 1000 1000
          1000 1000 1000 1000 1000 1000 1000 1000 1000 1000 1000 1000
          1000 1000 1000 1000 1000 1000 1000 1000 1000 1000 1000 1000
          1000 1000 1000 1000 1000 1000 1000 1000 1000 1000 1000 1000
          1000 1000 1000 1000 1000 1000 1000 1000 1000 1000 1000 1000
          1000 1000 1000 1000 1000 1000 1000 1000 1000 1000 1000 1000
          1000 1000 1000 1000 1000 1000 1000 1000 1000 1000 1000 1000
          1000 1000 1000 1000 1000 1000 1000 1000 1000 1000 1000 1000
          1000 1000 1000 1000 1000 1000 1000 1000 1000 1000 1000 1000
          1000 1000 1000 1000 1000 1000 1000 1000 1000 1000 1000 1000
          1000 1000 1000 1000 1000 1000 1000 1000 1000 1000 1000 1000
          1000 1000 1000 1000 1000 1000 1000 1000 1000 1000 1000 1000
          1000 1000 1000 1000 1000 1000 1000 1000 1000 1000 1000 1000
          1000 1000 1000 1000 1000 1000 1000 1000 1000 1000 1000 1000
          1000 1000 1000 1000 1000 1000 1000 1000 1000 1000 1000 1000
          1000 1000 1000 1000 1000 1000 1000 1000 1000 1000 1000 1000
          1000 1000 1000 1000 1000 1000 1000 1000 1000 1000 1000 1000
          1000 1000 1000 1000 1000 1000 1000 1000 1000 1000 1000 1000
          1000 1000 1000 1000 1000 1000 1000 1000 1000 1000 1000 1000
          1000 1000 1000 1000 1000 1000 1000 1000 1000 1000 1000
        </DataArray>
        <DataArray type="Float32" Name="mob_aq" NumberOfComponents="1" format="ascii">
          966.016 984.436 994.475 0.00150389 0.00483259 0.00564664 0.00109518 0.00569229 7.92013 0.503542 1000 1000
          1000 0.0023383 499.74 329.131 658.883 1000 999.633 997.468 696.81 676.02 906.011 999.107
          999.493 999.954 870.493 632.345 982.133 996.853 985.632 558.895 507.111 999.935 1000 14.446
          886.074 1000 999.993 1000 999.839 999.239 998.3 507.738 740.058 686.951 1000 995.266
          895.801 1000 1000 0.418131 200.042 999.967 932.423 192.978 350.248 209.494 1000 1000
          1000 1000 1000 999.999 0.00130891 0.00134534 0.0132899 326.29 1000 0.00769286 1000 413.555
          905.681 968.777 995.074 935.828 802.52 997.372 1000 1000 1000 0.00101829 0.000996861 0.00525938
          964.481 999.999 999.555 0.0389609 2.48629 15.6598 229.145 432.633 269.669 1000 1000 1000
          0.00137647 0.00157404 0.0338848 1000 1000 999.896 984.94 1000 999.997 0.00485872 268.129 0.0137022
          0.0992678 1000 999.962 0.0868719 992.964 998.469 999.749 1000 0.0196716 26.0186 72.0274 743.993
          146.505 1000 1000 0.000919643 999.985 2.33083 999.985 1000 0.00371836 271.432 0.0206456 468.573
          1000 0.0319894 999.407 279.481 206.108 531.664 1000 999.979 0.00317717 138.818 0.964555 155.764
          1000 1000 1000 1000 1000 1000 1000 1000 1000 1000 1000 860.136
          997.128 1000 0.00842256 0.0380226 3.41652 1000 1000 1000 1000 1000 1000 1000
          1000 1000 1000 1000 1000 1000 295.374 0.490339 2.08295 438.474 1000 1000
          329.783 528.664 680.698 317.743 1000 1000 1000 1000 1000 1000 999.999 1000
          1000 1000 1000 1000 1000 1000 60.5577 115.248 518.614 1000 1000 1000
          1000 1000 1000 207.927 1000 1000 1000 1000 1000 1000 1000 1000
          1000 1000 1000 0.00615504 4.70656 1000 1000 653.938 999.55 895.834 991.366 1000
          1000 1000 1000 1000 385.174 1000 622.643 1000 1000 1000 932.627 1000
          1000 870.474 924.444 999.975 998.911 1000 1000 1000 1000 1000 1000 1000
          1000 1000 1000 1000 1000 1000 999.931 1000 1000 1000 101.94 999.781
          1000 1000 1000 1000 1000 1000 1000 488.694 1000 1000 999.985 1000
          437.965 1000 1000 1000 1000 1000 1000 1000 975.223 1000 1000 21.7154
          460.082 993.469 1000 1000 1000 1000 1000 928.508 1000 1000 1000 1000
          1000 7.88212 1000 1000 1000 1000 1000 1000 1000 463.231 999.991 667.293
          1000 1000 1000 1000 960.187 1000 1000 1000 1000 1000 1000 1000
          1000 1000 1000 25.9668 1000 1000 1000 1000 1000 166.243 1000 1000
          0.1179 1000 1000 1000 1000 1000 1000 1000 1000 1000 1000 1000
          477.914 1000 1000 1000 1000 1000 394.658 1000 1000 1000 1000 1000
          1000 1000 1000 999.599 999.866 1000 1000 1000 1000 1000 1000 1000
          1000 1000 1000 1000 1000 142.36 566.924 79.6713 1000 1000 1000 1000
          1000 1000 1000 1000 1000 1000 1000 1000 1000 1000 1000 1000
          1000 1000 1000 1000 1000 1000 1000 1000 1000 999.997 1000 1000
          1000 809.585 654.155 984.08 321.897 538.989 1000 997.052 1000 901.306 1000 1000
          1000 1000 999.989 1000 1000 1000 1000 1000 1000 999.978 1000 1000
          343.727 21.3176 999.867 1000 471.275 1000 997.872 1000 1000 999.74 925.418 0.338383
          285.369 0.0789759 445.552 336.174 1000 1000 1000 1000 993.797 1000 1000 1000
          874.436 567.616 1000 1000 1000 1000 1000 1000 1000 1000 1000 1000
          1000 5.45742 1000 991.401 1000 1000 1000 653.374 879.999 1000 1000 1000
          1000 1000 1000 1000 1000 1000 1000 997.51 1000 1000 1000 447.489
          1000 1000 1000 530.808 1000 1000 0.0239745 0.00936947 1000 1000 1000 1000
          1000 1000 970.7 1000 1000 1000 1000 1000 1000 1000 1000 1000
          1000 1000 1000 1000 1000 1000 1000 0.00577319 2.03592 924.159 170.188 996.435
          1000 1000 1000 1000 1000 1000 20.6705 1000 1000 1000 1000 1000
          1000 182.242 1000 1000 1000 1000 1000 1000 1000 0.636148 0.772839 12.1297
          275.799 523.762 840.468 998.3 1000 1000 124.11 1000 1000 404.253 1000 340.107
          1000 471.31 1000 1000 1000 1000 1000 1000 1000 1000 1000 1000
          1000 1000 1000 1000 1000 1000 1000 563.481 554.868 754.374 1000 1000
          1000 1000 1000 1000 709.527 121.824 915.899 948.968 1000 1000 1000 1000
          497.543 910.752 1000 1000 1000 1000 1000 1000 1000 1000 1000 1000
          1000 1000 998.644 1000 1000 1000 1000 1000 1000 1000 1000 1000
          1000 1000 1000 1000 1000 1000 1000 1000 1000 989.833 1000 999.881
          1000 1000 1000 20.8151 14.8854 958.893 1000 1000 1000 1000 1000 1000
          1000 1000 1000 1000 1000 1000 1000 1000 1000 1000 1000 1000
          1000 1000 1000 1000 1000 1000 1000 1000 1000 1000 1000 1000
          1000 1000 1000 1000 66.6725 1000 1000 1000 1000 999.804 1000 1000
          1000 1000 1000 1000 1000 1000 1000 1000 588.594 1000 1000 998.625
          999.766 700.145 1000 1000 1000 769.188 1000 1000 1000 1000 982.54 1000
          1000 1000 3.04323 2.07143 789.202 1000 1000 1000 1000 1000 1000 999.902
          1000 1000 1000 1000 1000 814.01 839.78 1000 1000 1000 1000 1000
          1000 777.049 145.041 1000 1000 1000 1000 1000 1000 1000 1000 1000
          1000 1000 1000 991.921 1000 1000 1000 1000 1000 1000 1000 996.744
          1000 1000 1000 1000 539.259 1000 1000 1000 1000 1000 1000 1000
          1000 1.47957 384.623 19.5398 1000 1000 1000 304.423 226.183 1000 1000 1000
          1000 631.573 578.394 59.9191 1000 1000 556.214 0.382446 1000 1000 1000 1000
          999.999 1000 1000 1000 9.65567 0.0056836 1000 1000 1000 0.124467 457.933 1000
          1000 1000 1000 1000 1000 1000 1000 1000 1000 1000 1000 1000
          1000 1000 1000 1000 1000 1000 993.318 1000 1000 1000 1000 1000
          1000 1000 1000 1000 1000 1000 1000 1000 1000 1000 0.0149329 0.0104618
          202.187 1000 1000 1000 2.68647 1000 1000 1000 1000 1000 1000 1000
          1000 1000 1000 1000 1000 1000 973.148 1000 1000 1000 1000 1000
          0.00818719 0.006434 27.1616 1000 1000 1000 0.0451437 0.0265036 243.457 1000 1000 1000
          1000 1000 1000 33.2831 1000 1000 1000 1000 1000 1000 985.349 1000
          1000 993.014 1000 1000 1000 0.0173696 1000 1000 1000 969.575 1000 2.36003
          1000 88.3334 1000 1000 1000 1000 1000 7.71092 1000 1000 1000
        </DataArray>
        <DataArray type="Float32" Name="S_napl" NumberOfComponents="1" format="ascii">
          0.0197669 0.0130842 0.00766205 0.936483 0.930161 0.929119 0.937821 0.929064 0.72621 0.858836 0 0
          0 0.934372 0.140786 0.230532 0.0826451 0 0.00194108 0.0051471 0.0743714 0.0787569 0.0346687 0.00303688
          0.00228312 0.000684049 0.0418413 0.089484 0.0140638 0.00574837 0.01255 0.116099 0.137562 0.000812742 6.16463e-05 0.678275
          0.0387729 0 0.000257356 0 0.00128269 0.00280147 0.00420449 0.137289 0.0659417 0.0764142 7.06325e-05 0.00707952
          0.0367997 3.88069e-13 4.37864e-08 0.864218 0.329027 0.000580971 0.028764 0.335719 0.217518 0.320347 0 0
          0 8.78934e-07 4.73231e-37 8.3999e-05 0.937086 0.936969 0.922337 0.232336 6.45749e-25 0.926886 0 0.182088
          0.0347387 0.0188908 0.0072252 0.027948 0.0544821 0.00524473 0 0 0 0.938109 0.938192 0.929601
          0.0202408 0.000103604 0.00213783 0.910615 0.796405 0.671125 0.303222 0.172325 0.271214 -0 0 -0
          0.936871 0.936279 0.912379 0 0 0.00103013 0.0128614 0 0.000171952 0.930125 0.272359 0.922058
          0.896462 0 0.000622633 0.898755 0.00867437 0.00398816 0.0016046 0 0.918533 0.621786 0.496726 0.0652041
          0.385064 0 4.74411e-06 0.938501 0.000385034 0.799603 0.000385419 0 0.931798 0.269909 0.918029 0.154923
          0 0.913084 0.00247057 0.264037 0.323422 0.127134 0 0.000466158 0.932715 0.394316 0.837237 0.374385
          -0 -0 -0 -0 0 0 0 0 1.1855e-40 -2.93184e-36 5.92438e-39 0.0438307
          0.0054877 9.66359e-11 0.926187 0.910929 0.779659 0 0 0 2.18889e-06 -0 -0 -0
          -6.73509e-35 5.80777e-05 0 0 0 0 0.252825 0.859625 0.805015 0.169412 0 0
          0.23012 0.128383 0.0777433 0.237837 0 0 0 0 -0 -0 0.000113335 0
          0 0 0 -0 -0 0 0.520777 0.425261 0.132618 0 0 0
          0 0 0 0.321766 0 0 0 0 0 0 0 0
          0 0 -0 0.928519 0.760964 0 0 0.0838294 0.00215031 0.0367929 0.00963811 1.00351e-06
          0 0 4.27499e-11 -0 0.197359 -0 0.0924041 -0 -0 0 0.0287156 0
          0 0.041845 0.0306204 0.0005003 0.00335657 -0 0 0 0 0 0 0
          0 0 0 0 0 0 0.000836067 0 0 0 0.444829 0.00149592
          0 -0 0 0 0 0 0 0.145701 2.8026e-44 0 0.000389823 0
          0.169664 2.15494e-06 0 1.32799e-10 9.50883e-12 0 0 0 0.0167061 0 -3.39812e-34 0.640248
          0.158924 0.00834842 0 0 0 0 0 0.0296843 0 -2.73575e-33 0 0
          0 0.726558 6.25968e-38 0 0 0 0 0 0 0.157432 0.00030613 0.0806992
          0 4.72955e-05 -0 0 0.0215236 0 1.06821e-41 0 0 0 1.29139e-16 4.0568e-09
          0 0 1.22826e-22 0.621995 0 0 0 0 -0 0.362854 0 5.0047e-37
          0.893353 0 0 0 0 0 1.0895e-19 6.30772e-20 0 0 0 5.02629e-21
          0.150597 0 0 0 2.75969e-32 0 0.192152 0 0 0 0 0
          0 0 0 0.00202929 0.00116909 8.76935e-08 4.25413e-05 -0 5.03346e-42 7.04258e-11 4.77971e-09 0
          0 0 0 0 0 0.390007 0.112947 0.482178 0 0 0 0
          0 0 0 0 0 0 0 0 0 0 0 0
          0 2.18108e-06 0 0 0 0 0 0 0 0.000167736 0 0
          0 0.053197 0.0837767 0.0132396 0.235149 0.124112 0 0.00556048 0 0.0356591 1.6646e-16 0
          0 0 0.000331299 0 0 3.03684e-07 1.06561e-19 0 0 0.000473288 -0 9.14245e-12
          0.221467 0.642078 0.00116652 0 0.153664 3.6777e-05 0.00471248 0 0 0.00163039 0.0303978 0.869963
          0.259825 0.900332 0.165926 0.226118 0 0 0 0 0.00813058 1.17788e-12 1.02003e-13 3.17571e-21
          0.0410743 0.112678 0 0 0 0 0 0 0 0 0 0
          -6.51064e-34 0.751658 0 0.00961793 0 0 0 0.0839664 0.0399815 0 0 0
          0 0 0 0 0 0 0 0.00510306 0 0 0 0.164981
          0 3.03113e-11 0 0.127489 0 0 0.91642 0.925338 0 0 0 1.85663e-25
          3.84999e-23 1.66597e-37 0.0182612 1.412e-40 0 0 5.52775e-39 0 0 0 0 0
          0 0 0 0 0 0 0 0.928967 0.806091 0.0306855 0.358652 0.00612557
          0 0 0 0 0 0 0.645108 0 -0 -0 0 0
          -1.6968e-33 0.346253 0 0 0 9.14681e-38 7.17612e-36 0 0 0.851588 0.845118 0.693158
          0.266706 0.130439 0.0475272 0.00420552 0 0 0.413126 0 0 0.186992 0 0.223685
          0 0.153648 0 0 0 0 -0 0 0 0 0 0
          0 0 0 0 0 0 0 0.114294 0.117698 0.063274 0 0
          0 0 0 0 0.0718156 0.416194 0.0325339 0.0246317 0 0 0 0
          0.141755 0.0336548 0 0 0 0 0 0 0 0 0 0
          0 -0 0.00375015 0 0 0 0 0 0 0 0 0
          0 0 0 0 -0 -0 -0 0 0 0.0104875 0 0.00110041
          0 0 -0 0.644425 0.675641 0.0218985 0 0 0 0 0 -0
          0 0 0 0 0 0 0 0 0 0 0 0
          0 0 0 0 0 0 0 0 0 0 0 0
          0 0 -0 0 0.507587 -0 0 0 0 0.00141434 0 0
          0 0 0 0 0 0 0 0 0.10466 0 0 0.00377632
          0.00154656 0.0736934 0 0 0 0.0605496 0 0 0 0 0.0138949 0
          0 0 0.785954 0.805277 0.0569022 0 0 0 0 0 0 0.00100093
          0 0 0 -0 0 0.0523907 0.047655 0 -0 -0 -0 0
          0 0.0591138 0.386798 -0 -0 -0 0 0 0 0 0 0
          0 0 0 0.00931385 0 0 0 0 0 0 0 0.00584887
          0 0 0 0 0.124002 0 0 -0 0 0 0 0
          0 0.820324 0.197665 0.650562 0 0 0 0.246655 0.305729 0 -0 0
          0 0.0897051 0.108522 0.522208 0 0 0.117162 0.866688 0 0 0 0
          8.64641e-05 -2.45743e-35 4.2039e-45 0 0.711397 0.929074 0 0 0 0.892337 0.159947 0
          -0 0 0 6.37943e-39 -0 -0 -0 -0 -0 -0 -0 -0
          -0 0 -0 8.57773e-17 2.67878e-33 1.35347e-11 0.00844729 -0 -0 0 0 0
          7.02389e-22 -0 0 -0 0 -0 -0 0 0 0 0.921257 0.924428