<?xml version="1.0"?>
<VTKFile type="UnstructuredGrid" version="0.1" byte_order="LittleEndian">
  <UnstructuredGrid>
    <Piece NumberOfCells="3200" NumberOfPoints="3321">
      <PointData Scalars="S_liq">
        <DataArray type="Float32" Name="S_liq" NumberOfComponents="1" format="ascii">
          0.0956612 0.196311 0.151299 0.215678 0.253139 0.245677 0.287714 0.266501 0.318007 0.286605 0.352229 0.312232
          0.42331 0.364442 0.576503 0.402274 0.350161 0.178561 0.135337 0.100608 0.100046 0.100037 0.100007 0.100007
          0.100002 0.100001 0.1 0.1 0.1 0.1 0.1 0.1 0.1 0.1 0.1 0.1
          0.1 0.1 0.1 0.1 0.1 0.1 0.1 0.1 0.1 0.1 0.1 0.1
          0.1 0.1 0.1 0.1 0.1 0.1 0.1 0.1 0.1 0.1 0.1 0.1
          0.1 0.1 0.1 0.1 0.1 0.1 0.1 0.1 0.1 0.1 0.1 0.1
          0.1 0.1 0.1 0.1 0.1 0.1 0.1 0.1 0.1 0.1 0.1 0.1
          0.1 0.1 0.1 0.1 0.1 0.1 0.1 0.1 0.1 0.1 0.1 0.1
          0.1 0.1 0.1 0.1 0.1 0.1 0.1 0.1 0.1 0.1 0.1 0.1
          0.1 0.1 0.1 0.1 0.1 0.1 0.1 0.1 0.1 0.1 0.1 0.1
          0.1 0.1 0.1 0.1 0.1 0.1 0.1 0.1 0.1 0.1 0.1 0.1
          0.1 0.1 0.1 0.1 0.1 0.1 0.1 0.1 0.1 0.1 0.1 0.1
          0.1 0.1 0.1 0.1 0.1 0.1 0.1 0.1 0.1 0.1 0.1 0.1
          0.1 0.1 0.1 0.1 0.1 0.1 0.152475 0.228755 0.251452 0.269325 0.287362 0.311255
          0.359466 0.355691 0.144889 0.100218 0.100032 0.100006 0.100001 0.1 0.1 0.1 0.1 0.1
          0.1 0.1 0.1 0.1 0.1 0.1 0.1 0.1 0.1 0.1 0.1 0.1
          0.1 0.1 0.1 0.1 0.1 0.1 0.1 0.1 0.1 0.1 0.1 0.1
          0.1 0.1 0.1 0.1 0.1 0.1 0.1 0.1 0.1 0.1 0.1 0.1
          0.1 0.1 0.1 0.1 0.1 0.1 0.1 0.1 0.1 0.1 0.1 0.1
          0.1 0.1 0.1 0.1 0.1 0.1 0.1 0.1 0.1 0.1 0.1 0.1
          0.1 0.1 0.1 0.154889 0.231198 0.254352 0.272283 0.29033 0.314648 0.364262 0.333172 0.133181
          0.100163 0.100027 0.100006 0.100001 0.1 0.1 0.1 0.1 0.1 0.1 0.1 0.1
          0.1 0.1 0.1 0.1 0.1 0.1 0.1 0.1 0.1 0.1 0.1 0.1
          0.1 0.1 0.1 0.1 0.1 0.1 0.1 0.1 0.1 0.1 0.1 0.1
          0.1 0.1 0.1 0.1 0.1 0.1 0.1 0.1 0.1 0.1 0.1 0.1
          0.1 0.1 0.1 0.1 0.1 0.1 0.1 0.1 0.1 0.1 0.1 0.1
          0.1 0.1 0.1 0.1 0.1 0.1 0.1 0.1 0.1 0.1 0.1 0.1
          0.156058 0.232379 0.256029 0.274407 0.293003 0.318646 0.372187 0.310417 0.122967 0.100131 0.100023 0.100005
          0.100001 0.1 0.1 0.1 0.1 0.1 0.1 0.1 0.1 0.1 0.1 0.1
          0.1 0.1 0.1 0.1 0.1 0.1 0.1 0.1 0.1 0.1 0.1 0.1
          0.1 0.1 0.1 0.1 0.1 0.1 0.1 0.1 0.1 0.1 0.1 0.1
          0.1 0.1 0.1 0.1 0.1 0.1 0.1 0.1 0.1 0.1 0.1 0.1
          0.1 0.1 0.1 0.1 0.1 0.1 0.1 0.1 0.1 0.1 0.1 0.1
          0.1 0.1 0.1 0.1 0.1 0.1 0.1 0.1 0.1 0.156617 0.233052 0.257078
          0.275908 0.295184 0.322539 0.381397 0.285068 0.114698 0.100109 0.10002 0.100004 0.100001 0.1 0.1
          0.1 0.1 0.1 0.1 0.1 0.1 0.1 0.1 0.1 0.1 0.1 0.1
          0.1 0.1 0.1 0.1 0.1 0.1 0.1 0.1 0.1 0.1 0.1 0.1
          0.1 0.1 0.1 0.1 0.1 0.1 0.1 0.1 0.1 0.1 0.1 0.1
          0.1 0.1 0.1 0.1 0.1 0.1 0.1 0.1 0.1 0.1 0.1 0.1
          0.1 0.1 0.1 0.1 0.1 0.1 0.1 0.1 0.1 0.1 0.1 0.1
          0.1 0.1 0.1 0.1 0.1 0.1 0.156869 0.233443 0.25775 0.27697 0.296912 0.326138
          0.391017 0.258462 0.108805 0.100092 0.100017 0.100004 0.100001 0.1 0.1 0.1 0.1 0.1
          0.1 0.1 0.1 0.1 0.1 0.1 0.1 0.1 0.1 0.1 0.1 0.1
          0.1 0.1 0.1 0.1 0.1 0.1 0.1 0.1 0.1 0.1 0.1 0.1
          0.1 0.1 0.1 0.1 0.1 0.1 0.1 0.1 0.1 0.1 0.1 0.1
          0.1 0.1 0.1 0.1 0.1 0.1 0.1 0.1 0.1 0.1 0.1 0.1
          0.1 0.1 0.1 0.1 0.1 0.1 0.1 0.1 0.1 0.1 0.1 0.1
          0.1 0.1 0.1 0.15697 0.233676 0.25819 0.277735 0.298288 0.329337 0.400169 0.233574 0.10487
          0.10008 0.100015 0.100003 0.100001 0.1 0.1 0.1 0.1 0.1 0.1 0.1 0.1
          0.1 0.1 0.1 0.1 0.1 0.1 0.1 0.1 0.1 0.1 0.1 0.1
          0.1 0.1 0.1 0.1 0.1 0.1 0.1 0.1 0.1 0.1 0.1 0.1
          0.1 0.1 0.1 0.1 0.1 0.1 0.1 0.1 0.1 0.1 0.1 0.1
          0.1 0.1 0.1 0.1 0.1 0.1 0.1 0.1 0.1 0.1 0.1 0.1
          0.1 0.1 0.1 0.1 0.1 0.1 0.1 0.1 0.1 0.1 0.1 0.1
          0.157006 0.23382 0.258494 0.278307 0.299406 0.332217 0.404371 0.212252 0.102672 0.100071 0.100013 0.100003
          0.100001 0.1 0.1 0.1 0.1 0.1 0.1 0.1 0.1 0.1 0.1 0.1
          0.1 0.1 0.1 0.1 0.1 0.1 0.1 0.1 0.1 0.1 0.1 0.1
          0.1 0.1 0.1 0.1 0.1 0.1 0.1 0.1 0.1 0.1 0.1 0.1
          0.1 0.1 0.1 0.1 0.1 0.1 0.1 0.1 0.1 0.1 0.1 0.1
          0.1 0.1 0.1 0.1 0.1 0.1 0.1 0.1 0.1 0.1 0.1 0.1
          0.1 0.1 0.1 0.1 0.1 0.1 0.1 0.1 0.1 0.157015 0.233916 0.258714
          0.278749 0.300336 0.334836 0.400201 0.196414 0.101612 0.100064 0.100012 0.100003 0.100001 0.1 0.1
          0.1 0.1 0.1 0.1 0.1 0.1 0.1 0.1 0.1 0.1 0.1 0.1
          0.1 0.1 0.1 0.1 0.1 0.1 0.1 0.1 0.1 0.1 0.1 0.1
          0.1 0.1 0.1 0.1 0.1 0.1 0.1 0.1 0.1 0.1 0.1 0.1
          0.1 0.1 0.1 0.1 0.1 0.1 0.1 0.1 0.1 0.1 0.1 0.1
          0.1 0.1 0.1 0.1 0.1 0.1 0.1 0.1 0.1 0.1 0.1 0.1
          0.1 0.1 0.1 0.1 0.1 0.1 0.157013 0.233983 0.25888 0.279102 0.301117 0.337109
          0.393592 0.186063 0.101114 0.100059 0.100012 0.100003 0.100001 0.1 0.1 0.1 0.1 0.1
          0.1 0.1 0.1 0.1 0.1 0.1 0.1 0.1 0.1 0.1 0.1 0.1
          0.1 0.1 0.1 0.1 0.1 0.1 0.1 0.1 0.1 0.1 0.1 0.1
          0.1 0.1 0.1 0.1 0.1 0.1 0.1 0.1 0.1 0.1 0.1 0.1
          0.1 0.1 0.1 0.1 0.1 0.1 0.1 0.1 0.1 0.1 0.1 0.1
          0.1 0.1 0.1 0.1 0.1 0.1 0.1 0.1 0.1 0.1 0.1 0.1
          0.1 0.1 0.1 0.157007 0.234032 0.25901 0.279387 0.301769 0.339002 0.38791 0.178915 0.100851
          0.100055 0.100011 0.100002 0.100001 0.1 0.1 0.1 0.1 0.1 0.1 0.1 0.1
          0.1 0.1 0.1 0.1 0.1 0.1 0.1 0.1 0.1 0.1 0.1 0.1
          0.1 0.1 0.1 0.1 0.1 0.1 0.1 0.1 0.1 0.1 0.1 0.1
          0.1 0.1 0.1 0.1 0.1 0.1 0.1 0.1 0.1 0.1 0.1 0.1
          0.1 0.1 0.1 0.1 0.1 0.1 0.1 0.1 0.1 0.1 0.1 0.1
          0.1 0.1 0.1 0.1 0.1 0.1 0.1 0.1 0.1 0.1 0.1 0.1
          0.157 0.234068 0.259112 0.279617 0.302306 0.340538 0.383207 0.173712 0.100698 0.100053 0.100011 0.100002
          0.100001 0.1 0.1 0.1 0.1 0.1 0.1 0.1 0.1 0.1 0.1 0.1
          0.1 0.1 0.1 0.1 0.1 0.1 0.1 0.1 0.1 0.1 0.1 0.1
          0.1 0.1 0.1 0.1 0.1 0.1 0.1 0.1 0.1 0.1 0.1 0.1
          0.1 0.1 0.1 0.1 0.1 0.1 0.1 0.1 0.1 0.1 0.1 0.1
          0.1 0.1 0.1 0.1 0.1 0.1 0.1 0.1 0.1 0.1 0.1 0.1
          0.1 0.1 0.1 0.1 0.1 0.1 0.1 0.1 0.1 0.156993 0.234096 0.259192
          0.279801 0.302742 0.341769 0.379386 0.169821 0.100603 0.100051 0.10001 0.100002 0.100001 0.1 0.1
          0.1 0.1 0.1 0.1 0.1 0.1 0.1 0.1 0.1 0.1 0.1 0.1
          0.1 0.1 0.1 0.1 0.1 0.1 0.1 0.1 0.1 0.1 0.1 0.1
          0.1 0.1 0.1 0.1 0.1 0.1 0.1 0.1 0.1 0.1 0.1 0.1
          0.1 0.1 0.1 0.1 0.1 0.1 0.1 0.1 0.1 0.1 0.1 0.1
          0.1 0.1 0.1 0.1 0.1 0.1 0.1 0.1 0.1 0.1 0.1 0.1
          0.1 0.1 0.1 0.1 0.1 0.1 0.156986 0.234118 0.259256 0.279946 0.303089 0.342744
          0.376332 0.166892 0.100541 0.10005 0.10001 0.100002 0.1 0.1 0.1 0.1 0.1 0.1
          0.1 0.1 0.1 0.1 0.1 0.1 0.1 0.1 0.1 0.1 0.1 0.1
          0.1 0.1 0.1 0.1 0.1 0.1 0.1 0.1 0.1 0.1 0.1 0.1
          0.1 0.1 0.1 0.1 0.1 0.1 0.1 0.1 0.1 0.1 0.1 0.1
          0.1 0.1 0.1 0.1 0.1 0.1 0.1 0.1 0.1 0.1 0.1 0.1
          0.1 0.1 0.1 0.1 0.1 0.1 0.1 0.1 0.1 0.1 0.1 0.1
          0.1 0.1 0.1 0.156981 0.234134 0.259304 0.280059 0.303361 0.343506 0.373933 0.164695 0.100499
          0.100049 0.10001 0.100002 0.1 0.1 0.1 0.1 0.1 0.1 0.1 0.1 0.1
          0.1 0.1 0.1 0.1 0.1 0.1 0.1 0.1 0.1 0.1 0.1 0.1
          0.1 0.1 0.1 0.1 0.1 0.1 0.1 0.1 0.1 0.1 0.1 0.1
          0.1 0.1 0.1 0.1 0.1 0.1 0.1 0.1 0.1 0.1 0.1 0.1
          0.1 0.1 0.1 0.1 0.1 0.1 0.1 0.1 0.1 0.1 0.1 0.1
          0.1 0.1 0.1 0.1 0.1 0.1 0.1 0.1 0.1 0.1 0.1 0.1
          0.156977 0.234146 0.259341 0.280144 0.303567 0.344089 0.372098 0.163065 0.100471 0.100048 0.10001 0.100002
          0.1 0.1 0.1 0.1 0.1 0.1 0.1 0.1 0.1 0.1 0.1 0.1
          0.1 0.1 0.1 0.1 0.1 0.1 0.1 0.1 0.1 0.1 0.1 0.1
          0.1 0.1 0.1 0.1 0.1 0.1 0.1 0.1 0.1 0.1 0.1 0.1
          0.1 0.1 0.1 0.1 0.1 0.1 0.1 0.1 0.1 0.1 0.1 0.1
          0.1 0.1 0.1 0.1 0.1 0.1 0.1 0.1 0.1 0.1 0.1 0.1
          0.1 0.1 0.1 0.1 0.1 0.1 0.1 0.1 0.1 0.156973 0.234155 0.259367
          0.280205 0.303718 0.344518 0.370756 0.161895 0.100452 0.100048 0.10001 0.100002 0.1 0.1 0.1
          0.1 0.1 0.1 0.1 0.1 0.1 0.1 0.1 0.1 0.1 0.1 0.1
          0.1 0.1 0.1 0.1 0.1 0.1 0.1 0.1 0.1 0.1 0.1 0.1
          0.1 0.1 0.1 0.1 0.1 0.1 0.1 0.1 0.1 0.1 0.1 0.1
          0.1 0.1 0.1 0.1 0.1 0.1 0.1 0.1 0.1 0.1 0.1 0.1
          0.1 0.1 0.1 0.1 0.1 0.1 0.1 0.1 0.1 0.1 0.1 0.1
          0.1 0.1 0.1 0.1 0.1 0.1 0.156971 0.234161 0.259385 0.280246 0.303819 0.344813
          0.369849 0.161107 0.100439 0.100048 0.10001 0.100002 0.1 0.1 0.1 0.1 0.1 0.1
          0.1 0.1 0.1 0.1 0.1 0.1 0.1 0.1 0.1 0.1 0.1 0.1
          0.1 0.1 0.1 0.1 0.1 0.1 0.1 0.1 0.1 0.1 0.1 0.1
          0.1 0.1 0.1 0.1 0.1 0.1 0.1 0.1 0.1 0.1 0.1 0.1
          0.1 0.1 0.1 0.1 0.1 0.1 0.1 0.1 0.1 0.1 0.1 0.1
          0.1 0.1 0.1 0.1 0.1 0.1 0.1 0.1 0.1 0.1 0.1 0.1
          0.1 0.1 0.1 0.156969 0.234164 0.259395 0.280268 0.303875 0.344989 0.369337 0.160653 0.100432
          0.100047 0.10001 0.100002 0.1 0.1 0.1 0.1 0.1 0.1 0.1 0.1 0.1
          0.1 0.1 0.1 0.1 0.1 0.1 0.1 0.1 0.1 0.1 0.1 0.1
          0.1 0.1 0.1 0.1 0.1 0.1 0.1 0.1 0.1 0.1 0.1 0.1
          0.1 0.1 0.1 0.1 0.1 0.1 0.1 0.1 0.1 0.1 0.1 0.1
          0.1 0.1 0.1 0.1 0.1 0.1 0.1 0.1 0.1 0.1 0.1 0.1
          0.1 0.1 0.1 0.1 0.1 0.1 0.1 0.1 0.1 0.1 0.1 0.1
          0.156968 0.234165 0.259397 0.280272 0.303889 0.345054 0.369203 0.160507 0.10043 0.100047 0.10001 0.100002
          0.1 0.1 0.1 0.1 0.1 0.1 0.1 0.1 0.1 0.1 0.1 0.1
          0.1 0.1 0.1 0.1 0.1 0.1 0.1 0.1 0.1 0.1 0.1 0.1
          0.1 0.1 0.1 0.1 0.1 0.1 0.1 0.1 0.1 0.1 0.1 0.1
          0.1 0.1 0.1 0.1 0.1 0.1 0.1 0.1 0.1 0.1 0.1 0.1
          0.1 0.1 0.1 0.1 0.1 0.1 0.1 0.1 0.1 0.1 0.1 0.1
          0.1 0.1 0.1 0.1 0.1 0.1 0.1 0.1 0.1 0.156968 0.234163 0.259391
          0.280259 0.303862 0.345013 0.369445 0.160663 0.100432 0.100047 0.10001 0.100002 0.1 0.1 0.1
          0.1 0.1 0.1 0.1 0.1 0.1 0.1 0.1 0.1 0.1 0.1 0.1
          0.1 0.1 0.1 0.1 0.1 0.1 0.1 0.1 0.1 0.1 0.1 0.1
          0.1 0.1 0.1 0.1 0.1 0.1 0.1 0.1 0.1 0.1 0.1 0.1
          0.1 0.1 0.1 0.1 0.1 0.1 0.1 0.1 0.1 0.1 0.1 0.1
          0.1 0.1 0.1 0.1 0.1 0.1 0.1 0.1 0.1 0.1 0.1 0.1
          0.1 0.1 0.1 0.1 0.1 0.1 0.156969 0.234159 0.259378 0.280228 0.303793 0.344865
          0.370081 0.161133 0.100439 0.100047 0.10001 0.100002 0.1 0.1 0.1 0.1 0.1 0.1
          0.1 0.1 0.1 0.1 0.1 0.1 0.1 0.1 0.1 0.1 0.1 0.1
          0.1 0.1 0.1 0.1 0.1 0.1 0.1 0.1 0.1 0.1 0.1 0.1
          0.1 0.1 0.1 0.1 0.1 0.1 0.1 0.1 0.1 0.1 0.1 0.1
          0.1 0.1 0.1 0.1 0.1 0.1 0.1 0.1 0.1 0.1 0.1 0.1
          0.1 0.1 0.1 0.1 0.1 0.1 0.1 0.1 0.1 0.1 0.1 0.1
          0.1 0.1 0.1 0.156971 0.234151 0.259356 0.280176 0.303677 0.344602 0.37115 0.161951 0.100451
          0.100048 0.10001 0.100002 0.1 0.1 0.1 0.1 0.1 0.1 0.1 0.1 0.1
          0.1 0.1 0.1 0.1 0.1 0.1 0.1 0.1 0.1 0.1 0.1 0.1
          0.1 0.1 0.1 0.1 0.1 0.1 0.1 0.1 0.1 0.1 0.1 0.1
          0.1 0.1 0.1 0.1 0.1 0.1 0.1 0.1 0.1 0.1 0.1 0.1
          0.1 0.1 0.1 0.1 0.1 0.1 0.1 0.1 0.1 0.1 0.1 0.1
          0.1 0.1 0.1 0.1 0.1 0.1 0.1 0.1 0.1 0.1 0.1 0.1
          0.156973 0.234141 0.259323 0.280101 0.30351 0.344214 0.372715 0.163177 0.100471 0.100048 0.10001 0.100002
          0.1 0.1 0.1 0.1 0.1 0.1 0.1 0.1 0.1 0.1 0.1 0.1
          0.1 0.1 0.1 0.1 0.1 0.1 0.1 0.1 0.1 0.1 0.1 0.1
          0.1 0.1 0.1 0.1 0.1 0.1 0.1 0.1 0.1 0.1 0.1 0.1
          0.1 0.1 0.1 0.1 0.1 0.1 0.1 0.1 0.1 0.1 0.1 0.1
          0.1 0.1 0.1 0.1 0.1 0.1 0.1 0.1 0.1 0.1 0.1 0.1
          0.1 0.1 0.1 0.1 0.1 0.1 0.1 0.1 0.1 0.156976 0.234126 0.259279
          0.28 0.303284 0.343684 0.374868 0.164898 0.1005 0.100049 0.10001 0.100002 0.1 0.1 0.1
          0.1 0.1 0.1 0.1 0.1 0.1 0.1 0.1 0.1 0.1 0.1 0.1
          0.1 0.1 0.1 0.1 0.1 0.1 0.1 0.1 0.1 0.1 0.1 0.1
          0.1 0.1 0.1 0.1 0.1 0.1 0.1 0.1 0.1 0.1 0.1 0.1
          0.1 0.1 0.1 0.1 0.1 0.1 0.1 0.1 0.1 0.1 0.1 0.1
          0.1 0.1 0.1 0.1 0.1 0.1 0.1 0.1 0.1 0.1 0.1 0.1
          0.1 0.1 0.1 0.1 0.1 0.1 0.15698 0.234106 0.259219 0.279865 0.30299 0.342991
          0.377732 0.16725 0.100543 0.10005 0.10001 0.100002 0.1 0.1 0.1 0.1 0.1 0.1
          0.1 0.1 0.1 0.1 0.1 0.1 0.1 0.1 0.1 0.1 0.1 0.1
          0.1 0.1 0.1 0.1 0.1 0.1 0.1 0.1 0.1 0.1 0.1 0.1
          0.1 0.1 0.1 0.1 0.1 0.1 0.1 0.1 0.1 0.1 0.1 0.1
          0.1 0.1 0.1 0.1 0.1 0.1 0.1 0.1 0.1 0.1 0.1 0.1
          0.1 0.1 0.1 0.1 0.1 0.1 0.1 0.1 0.1 0.1 0.1 0.1
          0.1 0.1 0.1 0.156984 0.234078 0.25914 0.279692 0.302616 0.342107 0.381465 0.170428 0.100609
          0.100051 0.10001 0.100002 0.100001 0.1 0.1 0.1 0.1 0.1 0.1 0.1 0.1
          0.1 0.1 0.1 0.1 0.1 0.1 0.1 0.1 0.1 0.1 0.1 0.1
          0.1 0.1 0.1 0.1 0.1 0.1 0.1 0.1 0.1 0.1 0.1 0.1
          0.1 0.1 0.1 0.1 0.1 0.1 0.1 0.1 0.1 0.1 0.1 0.1
          0.1 0.1 0.1 0.1 0.1 0.1 0.1 0.1 0.1 0.1 0.1 0.1
          0.1 0.1 0.1 0.1 0.1 0.1 0.1 0.1 0.1 0.1 0.1 0.1
          0.156989 0.23404 0.259037 0.27947 0.302148 0.340988 0.38628 0.17472 0.100714 0.100053 0.100011 0.100002
          0.100001 0.1 0.1 0.1 0.1 0.1 0.1 0.1 0.1 0.1 0.1 0.1
          0.1 0.1 0.1 0.1 0.1 0.1 0.1 0.1 0.1 0.1 0.1 0.1
          0.1 0.1 0.1 0.1 0.1 0.1 0.1 0.1 0.1 0.1 0.1 0.1
          0.1 0.1 0.1 0.1 0.1 0.1 0.1 0.1 0.1 0.1 0.1 0.1
          0.1 0.1 0.1 0.1 0.1 0.1 0.1 0.1 0.1 0.1 0.1 0.1
          0.1 0.1 0.1 0.1 0.1 0.1 0.1 0.1 0.1 0.156993 0.233988 0.258901
          0.279189 0.301566 0.339575 0.392409 0.180544 0.100887 0.100055 0.100011 0.100002 0.100001 0.1 0.1
          0.1 0.1 0.1 0.1 0.1 0.1 0.1 0.1 0.1 0.1 0.1 0.1
          0.1 0.1 0.1 0.1 0.1 0.1 0.1 0.1 0.1 0.1 0.1 0.1
          0.1 0.1 0.1 0.1 0.1 0.1 0.1 0.1 0.1 0.1 0.1 0.1
          0.1 0.1 0.1 0.1 0.1 0.1 0.1 0.1 0.1 0.1 0.1 0.1
          0.1 0.1 0.1 0.1 0.1 0.1 0.1 0.1 0.1 0.1 0.1 0.1
          0.1 0.1 0.1 0.1 0.1 0.1 0.156994 0.233914 0.258721 0.278829 0.300844 0.337788
          0.40001 0.188563 0.101193 0.100058 0.100011 0.100002 0.100001 0.1 0.1 0.1 0.1 0.1
          0.1 0.1 0.1 0.1 0.1 0.1 0.1 0.1 0.1 0.1 0.1 0.1
          0.1 0.1 0.1 0.1 0.1 0.1 0.1 0.1 0.1 0.1 0.1 0.1
          0.1 0.1 0.1 0.1 0.1 0.1 0.1 0.1 0.1 0.1 0.1 0.1
          0.1 0.1 0.1 0.1 0.1 0.1 0.1 0.1 0.1 0.1 0.1 0.1
          0.1 0.1 0.1 0.1 0.1 0.1 0.1 0.1 0.1 0.1 0.1 0.1
          0.1 0.1 0.1 0.156986 0.233804 0.258473 0.27836 0.29994 0.335521 0.408665 0.199789 0.101775
          0.100063 0.100012 0.100003 0.100001 0.1 0.1 0.1 0.1 0.1 0.1 0.1 0.1
          0.1 0.1 0.1 0.1 0.1 0.1 0.1 0.1 0.1 0.1 0.1 0.1
          0.1 0.1 0.1 0.1 0.1 0.1 0.1 0.1 0.1 0.1 0.1 0.1
          0.1 0.1 0.1 0.1 0.1 0.1 0.1 0.1 0.1 0.1 0.1 0.1
          0.1 0.1 0.1 0.1 0.1 0.1 0.1 0.1 0.1 0.1 0.1 0.1
          0.1 0.1 0.1 0.1 0.1 0.1 0.1 0.1 0.1 0.1 0.1 0.1
          0.156957 0.233628 0.258113 0.277722 0.298785 0.332687 0.414882 0.215826 0.10296 0.100069 0.100013 0.100003
          0.100001 0.1 0.1 0.1 0.1 0.1 0.1 0.1 0.1 0.1 0.1 0.1
          0.1 0.1 0.1 0.1 0.1 0.1 0.1 0.1 0.1 0.1 0.1 0.1
          0.1 0.1 0.1 0.1 0.1 0.1 0.1 0.1 0.1 0.1 0.1 0.1
          0.1 0.1 0.1 0.1 0.1 0.1 0.1 0.1 0.1 0.1 0.1 0.1
          0.1 0.1 0.1 0.1 0.1 0.1 0.1 0.1 0.1 0.1 0.1 0.1
          0.1 0.1 0.1 0.1 0.1 0.1 0.1 0.1 0.1 0.156874 0.233334 0.257562
          0.276816 0.297264 0.329256 0.410901 0.237471 0.105341 0.100078 0.100015 0.100003 0.100001 0.1 0.1
          0.1 0.1 0.1 0.1 0.1 0.1 0.1 0.1 0.1 0.1 0.1 0.1
          0.1 0.1 0.1 0.1 0.1 0.1 0.1 0.1 0.1 0.1 0.1 0.1
          0.1 0.1 0.1 0.1 0.1 0.1 0.1 0.1 0.1 0.1 0.1 0.1
          0.1 0.1 0.1 0.1 0.1 0.1 0.1 0.1 0.1 0.1 0.1 0.1
          0.1 0.1 0.1 0.1 0.1 0.1 0.1 0.1 0.1 0.1 0.1 0.1
          0.1 0.1 0.1 0.1 0.1 0.1 0.15666 0.23282 0.256681 0.275476 0.295206 0.325132
          0.39886 0.262927 0.109497 0.10009 0.100017 0.100004 0.100001 0.1 0.1 0.1 0.1 0.1
          0.1 0.1 0.1 0.1 0.1 0.1 0.1 0.1 0.1 0.1 0.1 0.1
          0.1 0.1 0.1 0.1 0.1 0.1 0.1 0.1 0.1 0.1 0.1 0.1
          0.1 0.1 0.1 0.1 0.1 0.1 0.1 0.1 0.1 0.1 0.1 0.1
          0.1 0.1 0.1 0.1 0.1 0.1 0.1 0.1 0.1 0.1 0.1 0.1
          0.1 0.1 0.1 0.1 0.1 0.1 0.1 0.1 0.1 0.1 0.1 0.1
          0.1 0.1 0.1 0.156153 0.231907 0.255242 0.273465 0.292392 0.320137 0.384317 0.287948 0.115297
          0.100107 0.10002 0.100004 0.100001 0.1 0.1 0.1 0.1 0.1 0.1 0.1 0.1
          0.1 0.1 0.1 0.1 0.1 0.1 0.1 0.1 0.1 0.1 0.1 0.1
          0.1 0.1 0.1 0.1 0.1 0.1 0.1 0.1 0.1 0.1 0.1 0.1
          0.1 0.1 0.1 0.1 0.1 0.1 0.1 0.1 0.1 0.1 0.1 0.1
          0.1 0.1 0.1 0.1 0.1 0.1 0.1 0.1 0.1 0.1 0.1 0.1
          0.1 0.1 0.1 0.1 0.1 0.1 0.1 0.1 0.1 0.1 0.1 0.1
          0.155051 0.230273 0.252878 0.270449 0.288577 0.314216 0.369572 0.308291 0.122436 0.10013 0.100023 0.100005
          0.100001 0.1 0.1 0.1 0.1 0.1 0.1 0.1 0.1 0.1 0.1 0.1
          0.1 0.1 0.1 0.1 0.1 0.1 0.1 0.1 0.1 0.1 0.1 0.1
          0.1 0.1 0.1 0.1 0.1 0.1 0.1 0.1 0.1 0.1 0.1 0.1
          0.1 0.1 0.1 0.1 0.1 0.1 0.1 0.1 0.1 0.1 0.1 0.1
          0.1 0.1 0.1 0.1 0.1 0.1 0.1 0.1 0.1 0.1 0.1 0.1
          0.1 0.1 0.1 0.1 0.1 0.1 0.1 0.1 0.1 0.152789 0.227254 0.24895
          0.265942 0.283447 0.30732 0.355314 0.321641 0.129458 0.10016 0.100027 0.100006 0.100001 0.1 0.1
          0.1 0.1 0.1 0.1 0.1 0.1 0.1 0.1 0.1 0.1 0.1 0.1
          0.1 0.1 0.1 0.1 0.1 0.1 0.1 0.1 0.1 0.1 0.1 0.1
          0.1 0.1 0.1 0.1 0.1 0.1 0.1 0.1 0.1 0.1 0.1 0.1
          0.1 0.1 0.1 0.1 0.1 0.1 0.1 0.1 0.1 0.1 0.1 0.1
          0.1 0.1 0.1 0.1 0.1 0.1 0.1 0.1 0.1 0.1 0.1 0.1
          0.1 0.1 0.1 0.1 0.1 0.1 0.148336 0.220983 0.242195 0.259117 0.276379 0.298933
          0.34109 0.326354 0.134332 0.100193 0.100031 0.100006 0.100001 0.1 0.1 0.1 0.1 0.1
          0.1 0.1 0.1 0.1 0.1 0.1 0.1 0.1 0.1 0.1 0.1 0.1
          0.1 0.1 0.1 0.1 0.1 0.1 0.1 0.1 0.1 0.1 0.1 0.1
          0.1 0.1 0.1 0.1 0.1 0.1 0.1 0.1 0.1 0.1 0.1 0.1
          0.1 0.1 0.1 0.1 0.1 0.1 0.1 0.1 0.1 0.1 0.1 0.1
          0.1 0.1 0.1 0.1 0.1 0.1 0.1 0.1 0.1 0.1 0.1 0.1
          0.1 0.1 0.1 0.148413 0.200444 0.230027 0.2483 0.265559 0.286903 0.323975 0.319685 0.134981
          0.100216 0.100034 0.100007 0.100001 0.1 0.1 0.1 0.1 0.1 0.1 0.1 0.1
          0.1 0.1 0.1 0.1 0.1 0.1 0.1 0.1 0.1 0.1 0.1 0.1
          0.1 0.1 0.1 0.1 0.1 0.1 0.1 0.1 0.1 0.1 0.1 0.1
          0.1 0.1 0.1 0.1 0.1 0.1 0.1 0.1 0.1 0.1 0.1 0.1
          0.1 0.1 0.1 0.1 0.1 0.1 0.1 0.1 0.1 0.1 0.1 0.1
          0.1 0.1 0.1 0.1 0.1 0.1 0.1 0.1 0.1 0.1 0.1 0.1
          0.07281 0.171323 0.209591 0.227136 0.24229 0.260825 0.292655 0.293844 0.12551 0.100214 0.100035 0.100007
          0.100001 0.1 0.1 0.1 0.1 0.1 0.1 0.1 0.1 0.1 0.1 0.1
          0.1 0.1 0.1 0.1 0.1 0.1 0.1 0.1 0.1 0.1 0.1 0.1
          0.1 0.1 0.1 0.1 0.1 0.1 0.1 0.1 0.1 0.1 0.1 0.1
          0.1 0.1 0.1 0.1 0.1 0.1 0.1 0.1 0.1 0.1 0.1 0.1
          0.1 0.1 0.1 0.1 0.1 0.1 0.1 0.1 0.1 0.1 0.1 0.1
          0.1 0.1 0.1 0.1 0.1 0.1 0.1 0.1 0.1
        </DataArray>
        <DataArray type="Float32" Name="p_liq" NumberOfComponents="1" format="ascii">
          100313 101537 101532 101478 101291 101256 101031 101001 100766 100738 100493 100466
          100209 100183 99920.1 99885.7 99862 99712.7 99545.8 98584.2 98552.6 98552 98550 98549.9
          98549.2 98549.1 98548.6 98548.5 98548.1 98548 98547.5 98547.4 98546.9 98546.8 98546.3 98546.2
          98545.7 98545.5 98545 98544.9 98544.4 98544.2 98543.7 98543.6 98543 98542.9 98542.4 98542.2
          98541.7 98541.6 98541 98540.9 98540.3 98540.2 98539.6 98539.5 98538.9 98538.8 98538.2 98538.1
          98537.5 98537.4 98536.8 98536.7 98536.1 98536 98535.4 98535.3 98534.7 98534.6 98534 98533.9
          98533.3 98533.2 98532.6 98532.5 98531.9 98531.8 98531.2 98531.1 98530.5 98530.3 98529.8 98529.6
          98529 98528.9 98528.3 98528.2 98527.6 98527.5 98526.9 98526.8 98526.2 98526.1 98525.5 98525.3
          98524.7 98524.6 98524 98523.9 98523.3 98523.2 98522.6 98522.5 98521.9 98521.8 98521.1 98521
          98520.4 98520.3 98519.7 98519.6 98519 98518.9 98518.2 98518.1 98517.5 98517.4 98516.8 98516.7
          98516 98515.9 98515.3 98515.2 98514.6 98514.4 98513.8 98513.7 98513.1 98513 98512.3 98512.2
          98511.6 98511.4 98510.8 98510.7 98510 98509.9 98509.3 98509.2 98508.5 98508.4 98507.7 98507.6
          98506.9 98506.8 98506.1 98506 98505.3 98505.2 98504.5 98504.4 98503.7 98503.6 98502.8 98502.7
          98501.9 98501.8 98501 98500.9 98500 98500 101464 101433 101218 100975 100718 100450
          100170 99869.8 99603.2 98562.4 98551.7 98549.8 98549 98548.4 98547.9 98547.3 98546.7 98546.1
          98545.4 98544.8 98544.1 98543.5 98542.8 98542.1 98541.5 98540.8 98540.1 98539.4 98538.7 98538
          98537.3 98536.6 98535.9 98535.2 98534.5 98533.8 98533.1 98532.4 98531.6 98530.9 98530.2 98529.5
          98528.8 98528.1 98527.4 98526.7 98525.9 98525.2 98524.5 98523.8 98523.1 98522.4 98521.6 98520.9
          98520.2 98519.5 98518.7 98518 98517.3 98516.5 98515.8 98515.1 98514.3 98513.6 98512.8 98512.1
          98511.3 98510.6 98509.8 98509 98508.3 98507.5 98506.7 98505.9 98505.1 98504.3 98503.5 98502.6
          98501.8 98500.9 98500 101422 101386 101179 100945 100695 100432 100157 99859.1 99530
          98559.3 98551.4 98549.7 98549 98548.4 98547.8 98547.2 98546.6 98546 98545.4 98544.7 98544.1
          98543.4 98542.7 98542 98541.4 98540.7 98540 98539.3 98538.6 98537.9 98537.2 98536.5 98535.8
          98535.1 98534.4 98533.7 98533 98532.2 98531.5 98530.8 98530.1 98529.4 98528.7 98528 98527.3
          98526.6 98525.8 98525.1 98524.4 98523.7 98523 98522.2 98521.5 98520.8 98520.1 98519.4 98518.6
          98517.9 98517.2 98516.4 98515.7 98515 98514.2 98513.5 98512.7 98512 98511.2 98510.5 98509.7
          98508.9 98508.2 98507.4 98506.6 98505.8 98505 98504.2 98503.4 98502.6 98501.7 98500.9 98500
          101383 101345 101143 100914 100668 100411 100141 99847 99424.7 98557.6 98551.2 98549.7
          98549 98548.4 98547.8 98547.2 98546.6 98545.9 98545.3 98544.6 98544 98543.3 98542.6 98541.9
          98541.2 98540.6 98539.9 98539.2 98538.5 98537.8 98537.1 98536.4 98535.7 98535 98534.3 98533.5
          98532.8 98532.1 98531.4 98530.7 98530 98529.3 98528.6 98527.9 98527.2 98526.4 98525.7 98525
          98524.3 98523.6 98522.9 98522.1 98521.4 98520.7 98520 98519.2 98518.5 98517.8 98517.1 98516.3
          98515.6 98514.9 98514.1 98513.4 98512.6 98511.9 98511.1 98510.4 98509.6 98508.9 98508.1 98507.3
          98506.5 98505.7 98504.9 98504.1 98503.3 98502.5 98501.7 98500.8 98500 101347 101309 101109
          100882 100639 100384 100120 99831.6 99268.2 98556.4 98551.1 98549.8 98549 98548.4 98547.8
          98547.2 98546.5 98545.9 98545.2 98544.6 98543.9 98543.2 98542.5 98541.8 98541.1 98540.5 98539.8
          98539.1 98538.4 98537.7 98537 98536.3 98535.6 98534.9 98534.1 98533.4 98532.7 98532 98531.3
          98530.6 98529.9 98529.2 98528.5 98527.8 98527 98526.3 98525.6 98524.9 98524.2 98523.5 98522.7
          98522 98521.3 98520.6 98519.9 98519.1 98518.4 98517.7 98517 98516.2 98515.5 98514.8 98514
          98513.3 98512.5 98511.8 98511 98510.3 98509.5 98508.8 98508 98507.2 98506.4 98505.7 98504.9
          98504.1 98503.3 98502.5 98501.6 98500.8 98500 101314 101276 101076 100850 100607 100351
          100086 99813.1 99040.2 98555.8 98551.2 98549.9 98549.1 98548.5 98547.8 98547.2 98546.5 98545.8
          98545.2 98544.5 98543.8 98543.1 98542.4 98541.8 98541.1 98540.4 98539.7 98539 98538.3 98537.6
          98536.9 98536.2 98535.4 98534.7 98534 98533.3 98532.6 98531.9 98531.2 98530.5 98529.8 98529.1
          98528.4 98527.6 98526.9 98526.2 98525.5 98524.8 98524.1 98523.4 98522.6 98521.9 98521.2 98520.5
          98519.8 98519 98518.3 98517.6 98516.9 98516.1 98515.4 98514.6 98513.9 98513.2 98512.4 98511.7
          98510.9 98510.2 98509.4 98508.7 98507.9 98507.1 98506.4 98505.6 98504.8 98504 98503.2 98502.4
          98501.6 98500.8 98500 101284 101245 101045 100818 100573 100311 100033 99793.2 98822.3
          98555.6 98551.3 98550 98549.2 98548.5 98547.9 98547.2 98546.5 98545.8 98545.1 98544.4 98543.7
          98543.1 98542.4 98541.7 98541 98540.3 98539.6 98538.9 98538.2 98537.5 98536.8 98536 98535.3
          98534.6 98533.9 98533.2 98532.5 98531.8 98531.1 98530.4 98529.7 98529 98528.2 98527.5 98526.8
          98526.1 98525.4 98524.7 98524 98523.2 98522.5 98521.8 98521.1 98520.4 98519.6 98518.9 98518.2
          98517.5 98516.8 98516 98515.3 98514.6 98513.8 98513.1 98512.3 98511.6 98510.9 98510.1 98509.4
          98508.6 98507.8 98507.1 98506.3 98505.5 98504.8 98504 98503.2 98502.4 98501.6 98500.8 98500
          101256 101217 101017 100789 100540 100271 99970.6 99772.6 98701.1 98555.6 98551.6 98550.2
          98549.3 98548.6 98547.9 98547.2 98546.5 98545.8 98545.1 98544.4 98543.7 98543 98542.3 98541.6
          98540.9 98540.2 98539.5 98538.8 98538.1 98537.4 98536.6 98535.9 98535.2 98534.5 98533.8 98533.1
          98532.4 98531.7 98531 98530.3 98529.6 98528.8 98528.1 98527.4 98526.7 98526 98525.3 98524.6
          98523.9 98523.1 98522.4 98521.7 98521 98520.3 98519.5 98518.8 98518.1 98517.4 98516.6 98515.9
          98515.2 98514.5 98513.7 98513 98512.2 98511.5 98510.8 98510 98509.3 98508.5 98507.8 98507
          98506.2 98505.5 98504.7 98503.9 98503.1 98502.4 98501.6 98500.8 98500 101231 101192 100991
          100762 100511 100238 99930.6 99751.3 98643 98555.6 98551.8 98550.4 98549.5 98548.7 98547.9
          98547.2 98546.5 98545.7 98545 98544.3 98543.6 98542.9 98542.2 98541.5 98540.8 98540.1 98539.4
          98538.7 98538 98537.2 98536.5 98535.8 98535.1 98534.4 98533.7 98533 98532.3 98531.6 98530.9
          98530.2 98529.5 98528.7 98528 98527.3 98526.6 98525.9 98525.2 98524.5 98523.7 98523 98522.3
          98521.6 98520.9 98520.2 98519.4 98518.7 98518 98517.3 98516.5 98515.8 98515.1 98514.4 98513.6
          98512.9 98512.2 98511.4 98510.7 98509.9 98509.2 98508.4 98507.7 98506.9 98506.2 98505.4 98504.6
          98503.9 98503.1 98502.3 98501.6 98500.8 98500 101209 101170 100969 100740 100488 100215
          99913.2 99732.8 98615.5 98555.6 98551.9 98550.5 98549.5 98548.7 98547.9 98547.2 98546.4 98545.7
          98545 98544.3 98543.5 98542.8 98542.1 98541.4 98540.7 98540 98539.3 98538.6 98537.9 98537.1
          98536.4 98535.7 98535 98534.3 98533.6 98532.9 98532.2 98531.5 98530.8 98530.1 98529.3 98528.6
          98527.9 98527.2 98526.5 98525.8 98525.1 98524.4 98523.6 98522.9 98522.2 98521.5 98520.8 98520.1
          98519.3 98518.6 98517.9 98517.2 98516.5 98515.7 98515 98514.3 98513.5 98512.8 98512.1 98511.3
          98510.6 98509.9 98509.1 98508.4 98507.6 98506.9 98506.1 98505.4 98504.6 98503.8 98503.1 98502.3
          98501.5 98500.8 98500 101190 101151 100950 100721 100471 100200 99903.5 99717.9 98600.8
          98555.4 98551.9 98550.5 98549.6 98548.7 98547.9 98547.2 98546.4 98545.7 98544.9 98544.2 98543.5
          98542.8 98542 98541.3 98540.6 98539.9 98539.2 98538.5 98537.8 98537 98536.3 98535.6 98534.9
          98534.2 98533.5 98532.8 98532.1 98531.4 98530.7 98529.9 98529.2 98528.5 98527.8 98527.1 98526.4
          98525.7 98525 98524.2 98523.5 98522.8 98522.1 98521.4 98520.7 98520 98519.2 98518.5 98517.8
          98517.1 98516.4 98515.6 98514.9 98514.2 98513.5 98512.7 98512 98511.3 98510.5 98509.8 98509
          98508.3 98507.6 98506.8 98506.1 98505.3 98504.6 98503.8 98503 98502.3 98501.5 98500.8 98500
          101174 101135 100935 100707 100458 100190 99897.6 99705.7 98592.1 98555.2 98551.9 98550.5
          98549.5 98548.7 98547.9 98547.1 98546.4 98545.6 98544.9 98544.1 98543.4 98542.7 98542 98541.2
          98540.5 98539.8 98539.1 98538.4 98537.7 98536.9 98536.2 98535.5 98534.8 98534.1 98533.4 98532.7
          98532 98531.3 98530.5 98529.8 98529.1 98528.4 98527.7 98527 98526.3 98525.6 98524.9 98524.1
          98523.4 98522.7 98522 98521.3 98520.6 98519.9 98519.1 98518.4 98517.7 98517 98516.3 98515.5
          98514.8 98514.1 98513.4 98512.6 98511.9 98511.2 98510.4 98509.7 98509 98508.2 98507.5 98506.8
          98506 98505.3 98504.5 98503.8 98503 98502.3 98501.5 98500.8 98500 101161 101122 100923
          100696 100448 100183 99893.4 99695.7 98586.6 98555 98551.8 98550.4 98549.5 98548.7 98547.9
          98547.1 98546.3 98545.5 98544.8 98544.1 98543.3 98542.6 98541.9 98541.1 98540.4 98539.7 98539
          98538.3 98537.6 98536.8 98536.1 98535.4 98534.7 98534 98533.3 98532.6 98531.9 98531.1 98530.4
          98529.7 98529 98528.3 98527.6 98526.9 98526.2 98525.5 98524.8 98524 98523.3 98522.6 98521.9
          98521.2 98520.5 98519.8 98519 98518.3 98517.6 98516.9 98516.2 98515.4 98514.7 98514 98513.3
          98512.6 98511.8 98511.1 98510.4 98509.6 98508.9 98508.2 98507.4 98506.7 98506 98505.2 98504.5
          98503.7 98503 98502.2 98501.5 98500.8 98500 101151 101112 100913 100687 100441 100177
          99890.4 99687.6 98582.9 98554.7 98551.6 98550.4 98549.4 98548.6 98547.8 98547 98546.2 98545.5
          98544.7 98544 98543.2 98542.5 98541.8 98541.1 98540.3 98539.6 98538.9 98538.2 98537.5 98536.7
          98536 98535.3 98534.6 98533.9 98533.2 98532.5 98531.8 98531 98530.3 98529.6 98528.9 98528.2
          98527.5 98526.8 98526.1 98525.4 98524.6 98523.9 98523.2 98522.5 98521.8 98521.1 98520.4 98519.7
          98518.9 98518.2 98517.5 98516.8 98516.1 98515.4 98514.6 98513.9 98513.2 98512.5 98511.8 98511
          98510.3 98509.6 98508.8 98508.1 98507.4 98506.6 98505.9 98505.2 98504.4 98503.7 98503 98502.2
          98501.5 98500.7 98500 101142 101104 100905 100680 100435 100173 99888.2 99681.1 98580.4
          98554.5 98551.5 98550.2 98549.3 98548.5 98547.7 98546.9 98546.2 98545.4 98544.6 98543.9 98543.2
          98542.4 98541.7 98541 98540.2 98539.5 98538.8 98538.1 98537.4 98536.6 98535.9 98535.2 98534.5
          98533.8 98533.1 98532.4 98531.6 98530.9 98530.2 98529.5 98528.8 98528.1 98527.4 98526.7 98526
          98525.2 98524.5 98523.8 98523.1 98522.4 98521.7 98521 98520.3 98519.6 98518.8 98518.1 98517.4
          98516.7 98516 98515.3 98514.5 98513.8 98513.1 98512.4 98511.7 98511 98510.2 98509.5 98508.8