<?xml version="1.0"?>
<VTKFile type="UnstructuredGrid" version="0.1" byte_order="LittleEndian">
  <UnstructuredGrid>
    <Piece NumberOfCells="226" NumberOfPoints="266">
      <CellData Scalars="wetting potential" Vectors="wetting-velocity">
        <DataArray type="Float32" Name="wetting potential" NumberOfComponents="1" format="ascii">
          100068 100204 100337 100456 100526 100444 100347 100249 100150 100051 100068 100205
          100340 100469 100564 100448 100348 100249 100150 100051 100068 100206 100345 100490
          100656 100578 100602 100927 100810 100614 100683 101391 101142 100565 100334 100604
          101086 100267 100135 100214 100426 100052 100067 100206 100349 100507 100794 100932
          101076 100975 100916 101402 101814 100887 100944 101368 100702 100589 100640 100509
          100262 100259 100427 100080 100064 100180 100318 100444 100265 100430 100678 101198
          100717 100820 100763 101188 101509 100855 100840 100856 100890 100903 100934 100909
          100894 100902 100810 100761 100875 100582 100501 100443 100530 100308 100087 100034
          100117 100129 100037 100328 100495 100397 100267 100834 101479 100375 100335 101932
          101434 100868 100671 100893 100872 100877 100888 100891 100851 100710 100640 100834
          100478 100396 100356 100426 100263 100083 100083 100275 100310 100341 100317 100293
          100472 101063 101677 100389 101351 101468 102671 102321 101498 101323 102317 102680
          101049 100506 100407 101683 100376 100323 100295 100334 100225 100075 100076 100225
          100277 100296 100283 100264 100326 102225 100296 100298 102843 103315 101284 100697
          103317 102848 100702 101285 102239 100329 100294 100285 100303 100273 100257 100283
          100197 100068 100069 100197 100262 100286 100292 100288 100281 100298 100317 100303
          100293 100312 100286 100281 100298 100281 100279 100273 100278 100255 100178 100063
          100066 100184 100253 100277 100285 100284 100275 100290 100297 100294 100289 100292
          100279 100278 100289 100276 100269 100267 100274 100244 100170 100060
        </DataArray>
        <DataArray type="Float32" Name="wetting pressure" NumberOfComponents="1" format="ascii">
          193263 193399 193532 193651 193721 193639 193542 193444 193345 193246 183453 183590
          183725 183854 183949 183833 183733 183634 183535 183436 173643 173781 173920 174065
          174230 176605 176630 172049 171932 176642 176711 172514 172264 176593 176362 171727
          172208 176294 176162 171336 171548 173627 163832 163971 164114 164272 164559 167150
          167294 162287 162229 167619 168032 162199 162256 167586 166919 161901 161952 166727
          166479 161572 161740 163845 154019 156588 156726 151947 151768 156837 157085 152700
          152219 157228 157170 152690 153011 157263 157248 152358 152393 157311 157342 152411
          152396 157309 157217 152263 152378 156990 156909 151945 152033 154263 154042 146631
          146715 141822 141730 146926 147093 142090 141960 147432 148077 142067 142028 148529
          148032 142560 142364 147491 147470 142570 142581 145036 147448 147307 142332 142527
          147075 146994 142049 142118 144408 144228 134418 134610 137097 137129 132199 132176
          137259 137850 133559 132271 138139 138256 134554 134203 138286 138111 134200 134562
          137837 137293 132289 133565 137164 137111 132178 132217 134560 134410 124601 124750
          127254 127274 122356 122336 127303 129203 122368 122370 129820 130293 123356 122770
          130295 129825 122774 123358 129216 127307 122367 122357 127280 127251 122329 122355
          124722 124593 114784 114912 114977 117453 117459 112550 112543 117465 117484 112565
          112555 117480 117454 112544 112561 117448 117447 112535 112540 114970 114893 114778
          104971 105089 105158 107635 107643 102737 102728 107648 107654 102746 102741 107650
          107637 102731 102742 107633 107626 102719 102727 105149 105075 104965
        </DataArray>
        <DataArray type="Float32" Name="nonwetting pressure" NumberOfComponents="1" format="ascii">
          193763 193899 194032 194151 194221 194139 194042 193944 193845 193746 183953 184090
          184225 184354 184449 184333 184233 184134 184035 183936 174143 174281 174420 174565
          174732 181605 181630 177049 176932 181642 181711 177514 177264 181593 181362 176727
          177208 181294 181162 176336 176548 174127 164332 164471 164614 164772 165080 167661
          167927 162788 162729 168532 168907 162812 162821 168455 167858 162417 162536 167294
          166981 162072 162240 164345 154519 161588 161726 156947 156768 161837 162085 157700
          157219 162228 162170 157690 158011 157805 157777 152883 152944 157811 157842 152911
          152896 157822 157797 152845 152891 157533 157411 152447 152572 154763 154542 147131
          147215 142322 142230 147475 147934 142592 142460 148490 149006 142670 142598 149448
          148972 143131 143009 148046 147972 143070 143084 145536 147962 147891 142918 143039
          147611 147495 142550 142651 144908 144728 134918 135110 137598 137660 132722 132676
          137847 142850 138559 132860 143139 143256 139554 139203 143286 143111 139200 139562
          142837 137882 132879 138565 137692 137611 132678 132740 135060 134910 125101 125250
          127755 127791 122857 122836 127893 130225 123167 122909 130827 131302 124269 123702
          131304 130832 123706 124271 130236 127897 122907 123174 127797 127751 122829 122857
          125222 125093 115284 115412 115477 117953 117970 113053 113043 118030 118112 113151
          113080 118108 118020 113071 113147 117961 117947 113035 113043 115470 115393 115278
          105471 105589 105658 108135 108144 103237 103228 108168 108243 103336 103257 108239
          108158 103247 103332 108135 108126 103219 103228 105649 105575 105465
        </DataArray>
        <DataArray type="Float32" Name="nonwetting potential" NumberOfComponents="1" format="ascii">
          57698.2 57834.2 57967.2 58086.8 58156.2 58074.7 57977.8 57879.1 57780.1 57680.9 62210.8 62347.6
          62483.2 62611.9 62706.6 62591.1 62490.8 62391.8 62292.8 62194 66723.1 66861.3 67000.8 67145.5
          67312.6 70605 70629.7 73210.3 73093.5 70641.6 70710.7 73674.8 73425.6 70592.7 70361.7 72888.1
          73369.6 70294 70162.3 72497.6 72709.2 66707.9 71234.7 71374.6 71517.2 71674.7 71982.9 70983.7
          71249.4 73271.6 73212.5 71854.5 72229.6 73295.7 73304.6 71777.3 71180.2 72900.8 73019.7 70616.1
          70303.2 72555.7 72723.4 71248 75744.6 79232.6 79370.9 81753 81574.2 79482.4 79730.3 82506.6
          82025.5 79873 79815.4 82496.5 82817.5 75450.5 75421.8 77689.2 77750.4 75455.9 75486.8 77717.7
          77702.4 75467.3 75442.2 77651.1 77697.2 75178.5 75055.7 77253 77377.9 75988.3 75767.9 79099
          79183 81450.8 81359 79442.5 79901.4 81720.5 81588.8 80457.5 80973.6 81799.1 81727.2 81415.8
          80939.6 82260.4 82138.1 80013.9 79939.2 82199 82212.6 81084.6 79929.8 79858.3 82046.9 82168.3
          79579.1 79462.7 81678.9 81780 80455.9 80276.3 84788.6 84980.8 83888.1 83950.2 86173.9 86127.5
          84137.2 89140.6 92010.9 86311.5 89429.2 89545.9 93005.2 92655 89575.8 89401.2 92651.1 93014
          89127.1 84172.4 86330.4 92016.6 83981.9 83901.6 86129.5 86191.6 84930.8 84781.3 89294.2 89443
          88367.4 88403.8 90631.1 90610.6 88505.4 90837.9 90940.8 90683.3 91439.9 91915.1 92043.4 91476
          91917.1 91445.1 91480.4 92045.4 90848.7 88509.7 90680.8 90948.2 88410.1 88363.7 90603.5 90631
          89415.3 89286.7 93800.5 93927.7 93992.9 92888.9 92905.5 95149.4 95139.9 92965.9 93047.5 95248.1
          95177.2 93043.2 92955.4 95167.5 95243.5 92896.4 92882.4 95132.2 95140 93986.3 93909.5 93794
          98309.7 98427.8 98496.2 97392.6 97402.3 99656.7 99647.2 97425.6 97501.4 99755.3 99676.4 97496.9
          97415.9 99666.5 99750.9 97392.8 97384.4 99638.6 99647.1 98488 98413.4 98303.9
        </DataArray>
        <DataArray type="Float32" Name="capillary pressure" NumberOfComponents="1" format="ascii">
          500 500 500 500 500 500 500 500 500 500 500 500
          500 500 500 500 500 500 500 500 500 500 500 500
          501.577 5000 5000 5000 5000 5000 5000 5000 5000 5000 5000 5000
          5000 5000 5000 5000 5000 500 500 500 500 500.025 521.31 511.715
          632.962 500.782 500.018 913.031 875.258 612.764 564.712 868.955 938.516 515.614 583.931 566.938
          501.689 500.03 500.041 500 500 5000 5000 5000 5000 5000 5000 5000
          5000 5000 5000 5000 5000 542.605 528.891 524.784 551.324 500.068 500.024 500.025
          500.056 512.771 579.879 581.395 513.265 543.604 501.873 501.539 538.914 500 500 500.052
          500.43 500.052 500.052 548.861 840.963 501.568 500.025 1058.3 929.348 602.9 570.586 918.829
          940.118 571.411 645.485 555.643 501.87 500.038 503.012 500.041 513.775 583.346 585.73 512.368
          536.156 501.3 500.963 532.745 500 500 500 500 500.754 531.43 523.185 500.334
          587.776 5000 5000 588.921 5000 5000 5000 5000 5000 5000 5000 5000
          5000 589.098 589.77 5000 528.16 500.581 500.315 523.082 500 500 500 500
          500.152 517.015 501.415 500.019 589.494 1022.28 798.222 538.827 1006.98 1009.37 912.869 932.325
          1009.32 1006.84 931.951 913.348 1019.6 590.298 539.845 817.023 517.142 500.151 500.021 501.705
          500 500 500 500 500 500.013 510.984 502.359 500.001 564.991 627.593 586.178
          525.349 628.149 566.232 526.912 586.15 512.606 500.026 500.001 502.971 500 500 500
          500 500 500 500.001 501.356 500.696 500.001 520.001 589.162 589.65 515.651 589.184
          521.291 516.609 589.66 501.704 500.001 500.001 500.864 500 500 500
        </DataArray>
        <DataArray type="Float32" Name="wetting-velocity" NumberOfComponents="3" format="ascii">
          -6.79669e-06 1.72541e-09 0 -6.72433e-06 -3.79049e-08 0 -6.31306e-06 -1.67729e-07 0 -4.72498e-06 -6.2631e-07 0
          3.02019e-07 -1.88719e-06 0 4.46049e-06 -1.92047e-07 0 4.88864e-06 -2.20243e-08 0 4.94096e-06 -4.1359e-09 0
          4.95576e-06 -3.26557e-09 0 5.01119e-06 -2.44482e-08 0 -6.81478e-06 1.59465e-08 0 -6.80905e-06 -9.11662e-08 0
          -6.60726e-06 -4.20997e-07 0 -5.58471e-06 -1.67836e-06 0 5.19149e-07 -6.4e-06 0 5.39307e-06 -1.94864e-07 0
          4.98259e-06 -2.80391e-08 0 4.95034e-06 -8.15319e-09 0 4.9456e-06 -4.28348e-09 0 5.02505e-06 -9.08642e-08 0
          -6.8343e-06 6.4919e-08 0 -6.9428e-06 -8.87482e-08 0 -7.10666e-06 -4.42382e-07 0 -7.68261e-06 -1.88027e-06 0
          -4.0655e-06 -9.7701e-06 0 -4.26509e-11 -4.74549e-09 0 -1.82706e-10 -6.45221e-09 0 -1.66025e-09 -6.23804e-09 0
          -1.40971e-09 -4.76436e-09 0 -4.04992e-10 -1.06968e-08 0 2.44564e-10 -1.36874e-08 0 2.79505e-10 -1.55416e-08 0
          -2.32277e-09 -1.04685e-08 0 1.74533e-09 -1.01314e-08 0 1.49319e-09 -5.81169e-09 0 3.30204e-09 -4.64678e-09 0
          3.93337e-09 -1.08546e-08 0 9.96712e-10 -3.01819e-09 0 1.68302e-09 -1.39661e-09 0 2.44146e-09 -1.74221e-09 0
          1.95263e-09 -3.26015e-09 0 2.62211e-06 -1.44268e-06 0 -6.82669e-06 1.84768e-07 0 -7.06271e-06 -3.63385e-08 0
          -7.50206e-06 -1.93188e-07 0 -9.47425e-06 -8.33838e-07 0 -8.80548e-06 -7.53363e-06 0 -4.21077e-06 1.3741e-06 0
          -7.3094e-07 5.65475e-06 0 -2.16951e-06 9.65996e-06 0 -5.93494e-06 2.67656e-06 0 -5.58324e-08 4.1243e-07 0
          1.78571e-09 4.23479e-07 0 2.01345e-06 1.62383e-06 0 1.47135e-06 2.35465e-06 0 1.27542e-07 6.00503e-07 0
          8.47489e-08 3.40295e-06 0 7.36568e-06 1.05879e-05 0 1.90202e-06 2.38416e-06 0 4.6279e-06 4.08737e-06 0
          1.06984e-05 2.11709e-07 0 1.4345e-05 1.62919e-06 0 1.51036e-05 7.36352e-06 0 1.00188e-05 -1.74032e-06 0
          -3.19745e-06 -1.32904e-06 0 -2.06277e-09 -1.36626e-09 0 -1.24879e-09 -2.4473e-09 0 -2.25661e-09 -2.27993e-09 0
          -2.60581e-09 -2.11521e-09 0 -1.79656e-09 -6.07842e-09 0 -1.95303e-09 -1.01388e-08 0 -3.95983e-09 -1.08273e-08 0
          -3.76836e-09 -5.21602e-09 0 -4.25789e-10 -1.32638e-08 0 -6.36302e-10 -9.10228e-09 0 4.57861e-09 -9.18066e-09 0
          5.05672e-11 -1.53441e-08 0 3.37541e-07 -4.75265e-06 0 -1.88855e-06 -1.92301e-06 0 -6.95603e-07 -2.07467e-06 0
          7.19956e-07 -1.35512e-06 0 -3.77366e-06 2.26946e-06 0 -1.56292e-07 6.53633e-06 0 6.80628e-07 3.96321e-06 0
          -2.17776e-06 1.62051e-06 0 3.43481e-06 3.95981e-06 0 4.61446e-06 2.13452e-06 0 5.135e-06 1.89599e-06 0
          3.96735e-06 3.83218e-06 0 4.80368e-06 3.96982e-06 0 7.77237e-06 1.28385e-05 0 7.71644e-06 1.01483e-05 0
          5.21507e-06 4.56083e-06 0 1.08368e-05 4.59938e-06 0 9.87128e-06 -1.53681e-07 0 -7.53341e-06 -1.13868e-06 0
          -9.56233e-06 -3.33893e-06 0 -1.14801e-05 -1.20308e-06 0 -8.32893e-06 -3.24123e-07 0 -5.41655e-06 3.47891e-06 0
          -1.91621e-08 9.67914e-06 0 -5.01055e-06 1.56475e-05 0 -1.32896e-05 6.7096e-06 0 -4.14522e-08 7.30175e-08 0
          -6.59364e-08 3.05767e-07 0 -1.02778e-06 1.53826e-06 0 1.13112e-06 1.32425e-06 0 3.02899e-09 2.58695e-07 0
          4.33755e-08 2.91521e-07 0 -3.0125e-06 2.92548e-07 0 -3.33767e-06 2.38307e-06 0 4.8548e-07 1.69638e-07 0
          -1.61054e-07 -1.73575e-06 0 1.09379e-08 -5.3154e-07 0 6.31404e-08 2.51156e-07 0 9.76094e-07 1.02958e-06 0
          4.59444e-06 3.04491e-06 0 5.68117e-06 2.2071e-06 0 6.64492e-06 3.52745e-06 0 5.90943e-06 1.23122e-06 0
          5.11078e-06 4.87498e-06 0 6.42673e-06 8.37309e-06 0 5.8576e-06 7.14573e-06 0 4.59622e-06 5.1117e-06 0
          8.23261e-06 4.13575e-06 0 8.63916e-06 5.89458e-07 0 -8.93853e-06 3.60205e-07 0 -5.44749e-06 7.11521e-06 0
          -1.38079e-06 2.88135e-06 0 -2.42985e-06 2.58661e-06 0 -1.67258e-06 2.67209e-06 0 -1.83796e-06 3.2406e-06 0
          -1.38785e-06 3.50295e-06 0 -7.35262e-09 -1.00457e-08 0 -1.60994e-08 -1.71082e-08 0 -7.99057e-07 2.42249e-06 0
          -2.02654e-09 -1.89611e-08 0 -7.33152e-10 -2.38427e-08 0 -1.79483e-09 -2.49134e-08 0 -4.9717e-09 -2.01256e-08 0
          7.23618e-10 -2.31261e-08 0 2.24344e-09 -1.96236e-08 0 4.98696e-09 -2.05514e-08 0 1.77051e-09 -2.45665e-08 0
          6.80753e-09 -1.06299e-08 0 1.37078e-06 3.89184e-06 0 7.89341e-07 2.87096e-06 0 1.59285e-08 -1.7455e-08 0
          3.21235e-06 5.00819e-06 0 4.72063e-06 6.04231e-06 0 4.1633e-06 4.96024e-06 0 2.2538e-06 4.46789e-06 0
          6.51676e-06 3.28523e-06 0 7.50867e-06 7.40753e-07 0 -7.50606e-06 6.64091e-07 0 -5.20287e-06 3.9142e-06 0
          -2.22346e-06 2.90426e-06 0 -1.12443e-06 2.3958e-06 0 -1.3799e-06 1.95362e-06 0 -2.47947e-06 2.29445e-06 0
          -3.41229e-07 1.94641e-06 0 -2.79282e-08 7.74426e-08 0 2.84498e-10 4.19936e-07 0 -4.19434e-07 1.65899e-06 0
          -2.44668e-08 9.09377e-08 0 -1.04501e-08 8.20427e-08 0 -3.97193e-08 3.4375e-07 0 -5.7844e-08 3.90204e-07 0
          1.02949e-08 8.22242e-08 0 2.4219e-08 9.095e-08 0 5.87793e-08 3.89296e-07 0 3.90445e-08 3.42909e-07 0
          2.82694e-08 7.88044e-08 0 3.08011e-07 2.37895e-06 0 2.46791e-07 2.05409e-06 0 -7.35689e-08 3.41296e-07 0
          1.48988e-06 3.67497e-06 0 3.48603e-06 3.82338e-06 0 3.47919e-06 2.80786e-06 0 1.60739e-06 2.7947e-06 0
          5.46685e-06 2.32407e-06 0 6.62616e-06 6.26305e-07 0 -6.64939e-06 4.87494e-07 0 -4.81105e-06 2.02003e-06 0
          -2.32461e-06 1.39997e-06 0 -9.23828e-07 1.28039e-06 0 -3.63471e-07 6.49513e-07 0 -5.22662e-07 5.5074e-07 0
          -1.0612e-06 8.85671e-07 0 -1.91562e-07 5.11522e-07 0 -5.38031e-08 4.2984e-07 0 -7.43855e-08 2.8256e-07 0
          -2.8547e-07 3.78225e-07 0 1.19017e-07 4.2422e-07 0 1.94029e-07 4.86677e-07 0 3.13059e-07 3.36861e-07 0
          2.27942e-07 2.76381e-07 0 1.58757e-07 5.11042e-07 0 6.96362e-07 1.57176e-06 0 9.23718e-07 1.05889e-06 0
          3.5828e-07 4.70098e-07 0 2.58151e-06 1.72391e-06 0 4.80786e-06 1.35733e-06 0 6.03348e-06 4.00569e-07 0
          -6.2523e-06 1.7151e-07 0 -4.66394e-06 6.22669e-07 0 -2.48715e-06 4.65726e-07 0 -1.17587e-06 5.28799e-07 0
          -5.91316e-07 3.5343e-07 0 -6.34432e-07 1.20679e-07 0 -1.2289e-06 1.7549e-07 0 -2.54384e-07 2.35014e-07 0
          -3.60947e-08 1.4778e-07 0 -1.9245e-08 4.6236e-08 0 -2.51258e-07 7.94748e-08 0 1.81456e-07 1.45902e-07 0
          2.77048e-07 2.06011e-07 0 2.7536e-07 6.80959e-08 0 1.64045e-07 4.58037e-08 0 4.64217e-07 3.24004e-07 0
          1.0868e-06 6.18366e-07 0 1.16139e-06 2.0325e-07 0 5.25306e-07 1.1358e-07 0 2.63405e-06 5.47416e-07 0
          4.60212e-06 4.3662e-07 0 5.74721e-06 1.35926e-07 0
        </DataArray>
        <DataArray type="Float32" Name="non-wetting-velocity" NumberOfComponents="3" format="ascii">
          0 0 0 0 0 0 0 0 0 0 0 0
          0 -1.21696e-21 0 0 0 0 0 0 0 0 0 0
          0 0 0 0 0 0 0 0 0 0 0 0
          0 0 0 -1.26588e-23 -8.42124e-28 0 2.77688e-24 -5.68031e-10 0 1.54357e-23 0 0
          0 0 0 0 0 0 0 0 0 0 0 0
          0 0 0 0 0 0 -1.34389e-29 0 0 -1.03005e-11 -2.22605e-15 0
          -1.03005e-11 -1.28905e-06 0 0 0 0 0 0 0 0 0 0
          0 0 0 0 0 0 0 0 0 0 0 0
          0 0 0 0 0 0 0 0 0 0 0 0
          0 0 0 0 0 0 0 0 0 0 0 0
          0 0 0 0 -2.95639e-28 0 0 -1.10696e-28 0 0 0 0
          -3.87075e-17 0 0 -4.30892e-08 -2.22605e-15 0 -4.72611e-08 -6.71281e-06 0 -5.54507e-06 -9.59727e-16 0
          -2.31043e-05 -4.48527e-10 0 -5.85776e-08 -4.48529e-10 0 -8.89187e-13 -4.45608e-14 0 -3.86895e-05 -7.45057e-05 0
          3.38964e-06 -5.48377e-05 0 3.11991e-06 -9.17013e-05 0 -2.51978e-08 -7.49289e-05 0 5.85115e-05 -5.91956e-05 0
          4.86791e-05 -0.000102751 0 1.10518e-06 -0.000102752 0 4.17163e-06 -7.01067e-05 0 1.65571e-05 -1.86117e-14 0
          1.87799e-06 -3.71916e-15 0 4.75884e-16 -3.71916e-15 0 2.00813e-08 -1.86117e-14 0 9.95405e-12 -2.95639e-28 0
          -1.56887e-30 -5.73708e-12 0 0 0 0 0 0 0 0 0 0
          0 0 0 0 0 0 0 0 0 0 0 0
          0 0 0 0 0 0 0 0 0 0 6.90478e-37 0
          0 4.82963e-37 0 4.45222e-08 -1.89364e-05 0 4.45222e-08 -4.08716e-06 0 1.6244e-07 -1.49944e-06 0
          1.6244e-07 -2.29641e-05 0 -2.48614e-16 -6.81185e-14 0 -6.30799e-18 -4.09e-15 0 1.07242e-18 -1.21048e-14 0
          -6.08324e-17 -3.4566e-14 0 8.09413e-10 -6.95754e-07 0 1.80058e-06 -6.36069e-05 0 2.00261e-06 -5.46915e-05 0
          1.66782e-09 -5.75907e-07 0 2.05023e-06 -1.60677e-05 0 2.50484e-07 -1.49803e-09 0 1.8819e-07 -7.98832e-10 0
          2.18912e-06 -9.34791e-06 0 1.80281e-11 -7.66501e-25 0 1.85641e-26 0 0 -2.11133e-13 -4.10231e-14 0
          -7.20733e-07 -1.14741e-11 0 -4.83424e-16 -2.04699e-14 0 -7.55809e-16 -2.0485e-14 0 -1.37901e-05 -3.32638e-15 0
          -4.55259e-05 -1.30738e-07 0 -1.4078e-08 -1.30738e-07 0 -1.5956e-11 -3.32638e-15 0 -6.53832e-05 -6.64714e-05 0
          -5.91173e-05 -4.18897e-05 0 -6.04168e-06 -4.97912e-05 0 -7.21193e-07 -6.64715e-05 0 2.22652e-06 -4.47683e-05 0
          5.44389e-05 -6.67464e-05 0 -5.41044e-07 -6.67464e-05 0 -5.97946e-06 -9.53993e-05 0 2.63078e-05 -1.22941e-05 0
          2.86141e-07 -6.9257e-10 0 1.16186e-11 -7.41986e-15 0 1.03884e-07 -6.11501e-09 0 -8.24713e-09 -1.00319e-14 0
          2.89512e-09 -5.32458e-07 0 2.19241e-06 -5.71981e-05 0 2.27461e-06 -5.9686e-05 0 -1.29474e-08 -2.29094e-07 0
          2.33315e-06 -7.46478e-06 0 1.43649e-07 -4.2603e-10 0 9.50962e-08 -1.51285e-10 0 2.36616e-06 -5.51018e-06 0
          3.86206e-12 -1.38216e-26 0 2.77617e-28 0 0 -8.38086e-31 0 0 -8.51198e-14 -3.89698e-29 0
          -5.21536e-08 -1.26172e-10 0 -1.73698e-06 -9.29919e-06 0 -1.36152e-06 -1.9851e-06 0 -1.65174e-08 -5.74676e-12 0
          -1.68483e-06 -8.2352e-05 0 0 0 0 0 0 0 -1.345e-06 -6.43373e-05 0
          0 0 0 0 0 0 0 0 0 0 0 0
          0 0 0 0 0 0 0 0 0 0 0 0
          0 0 0 1.80723e-06 -6.26876e-05 0 1.38338e-06 -6.52584e-05 0 0 0 0
          1.85686e-06 -3.56323e-06 0 4.96257e-08 -3.17607e-11 0 2.17816e-08 -4.88313e-12 0 1.40516e-06 -1.9216e-06 0
          2.10142e-13 -4.97778e-30 0 8.31349e-32 0 0 -1.6416e-36 0 0 -1.61347e-15 -9.84339e-35 0
          -5.2915e-09 -4.95122e-13 0 -1.05198e-06 -5.87768e-07 0 -7.80746e-08 -4.57104e-10 0 -1.82976e-12 -1.00417e-15 0
          -6.01308e-05 -4.22934e-05 0 -9.88068e-05 -1.10942e-05 0 -3.29309e-05 -2.93136e-05 0 -5.3754e-06 -9.6771e-06 0
          -7.08974e-05 -4.52485e-06 0 -3.13014e-05 -1.58407e-05 0 -3.36389e-05 -7.23575e-05 0 -6.11556e-05 -8.17258e-05 0
          3.08301e-05 -1.58564e-05 0 7.02613e-05 -4.4261e-06 0 6.1696e-05 -8.03596e-05 0 3.3266e-05 -7.21878e-05 0
          9.85663e-05 -1.10612e-05 0 6.03064e-05 -4.32901e-05 0 5.75262e-06 -1.02832e-05 0 3.39858e-05 -4.2612e-05 0
          1.05158e-06 -5.95842e-07 0 6.88723e-09 -4.90381e-13 0 4.28748e-12 -1.28408e-15 0 7.98016e-08 -7.93269e-10 0
          2.55046e-15 -5.75608e-35 0 8.25589e-37 0 0 0 0 0 0 0 0
          -2.94228e-19 0 0 -6.66036e-10 -4.1249e-16 0 -3.20741e-07 -1.82214e-05 0 -1.25352e-08 -2.32149e-09 0
          -3.94114e-12 -2.60516e-19 0 -1.44635e-06 -7.97798e-05 0 -1.06273e-06 -0.000103509 0 -6.0908e-07 -7.94313e-05 0
          -6.53627e-07 -3.4958e-06 0 1.2752e-06 -0.000103557 0 1.53513e-06 -7.89647e-05 0 6.93868e-07 -4.12179e-06 0
          7.11225e-07 -7.96668e-05 0 3.24318e-07 -3.15548e-05 0 8.48593e-10 -3.72493e-15 0 6.39301e-12 -4.81139e-19 0
          1.46653e-08 -4.63633e-09 0 2.11812e-18 0 0 0 0 0 0 0 0
          0 0 0 0 0 0 -3.33089e-22 0 0 -7.59026e-13 -1.93236e-19 0
          -5.36536e-09 -3.99764e-10 0 -2.23048e-09 -4.78673e-11 0 -1.01342e-13 -8.87801e-20 0 -7.65551e-07 -1.37778e-06 0
          -7.26882e-07 -6.60969e-05 0 -7.89963e-07 -6.79042e-05 0 -8.25769e-07 -4.60881e-07 0 8.39724e-07 -6.61111e-05 0
          8.12761e-07 -1.63623e-06 0 8.77878e-07 -5.45655e-07 0 9.08847e-07 -6.79163e-05 0 6.34364e-09 -7.88173e-10 0
          1.31415e-12 -2.16688e-19 0 1.72389e-13 -9.11331e-20 0 2.60719e-09 -9.15803e-11 0 3.69025e-22 0 0
          0 0 0 0 0 0
        </DataArray>
        <DataArray type="Float32" Name="wetting saturation" NumberOfComponents="1" format="ascii">
          1 1 1 1 1 1 1 1 1 1 1 1
          1 1 0.999999 1 1 1 1 1 1 1 1 1
          0.990222 1 1 1 1 1 1 1 1 1 1 1
          1 1 1 1 1 1 1 1 1 0.999844 0.881119 0.931277
          0.489432 0.995237 0.999891 0.163995 0.186142 0.542698 0.693222 0.190146 0.149258 0.90792 0.627308 0.682256
          0.98939 0.999823 0.999746 1 1 1 1 1 1 1 1 1
          1 1 1 1 1 0.781063 0.845536 0.86573 0.745027 0.999589 0.999855 0.999852
          0.999663 0.926887 0.641052 0.636025 0.924263 0.778006 0.988773 0.990769 0.79854 1 1 0.999686
          0.997215 0.999686 0.999686 0.75242 0.204555 0.990548 0.999851 0.105423 0.155545 0.570014 0.672687 0.160964
          0.15027 0.669545 0.46423 0.728319 0.98878 0.999775 0.98202 0.99975 0.921573 0.629672 0.622022 0.929248
          0.810964 0.992197 0.994215 0.826667 1 1 1 1 0.995473 0.832879 0.872856 0.997996
          0.615589 1 1 0.611962 1 1 1 1 1 1 1 1
          1 0.611417 0.609335 1 0.848404 0.99651 0.998106 0.873369 1 1 1 1
          0.999089 0.904478 0.991534 0.999885 0.61018 0.116945 0.245646 0.798991 0.122353 0.121484 0.164217 0.154142
          0.121505 0.122403 0.154327 0.163959 0.117872 0.607702 0.794504 0.229135 0.903818 0.99909 0.999875 0.989814
          1 1 1 1 1 0.999923 0.93686 0.985975 0.999994 0.693109 0.505692 0.620616
          0.862137 0.504357 0.688588 0.85452 0.620704 0.928026 0.999841 0.999992 0.98238 1 1 1
          1 1 1 0.999995 0.991907 0.995835 0.999995 0.889002 0.611232 0.609716 0.911685 0.611162
          0.882453 0.906653 0.609685 0.989846 0.999994 0.999995 0.994833 1 1 1
        </DataArray>
        <DataArray type="Float32" Name="nonwetting saturation" NumberOfComponents="1" format="ascii">
          4.42979e-14 3.01981e-14 2.83107e-14 2.87548e-14 -3.9968e-15 1.84297e-14 2.4758e-14 -5.9952e-15 2.36478e-14 4.4742e-14 -1.19904e-13 -2.09166e-13
          -1.83631e-13 -1.09468e-13 1.38774e-06 5.63993e-14 -8.65974e-15 -8.79297e-14 4.08562e-14 -3.50608e-13 5.21805e-15 -1.01252e-13 -2.367e-13 1.23251e-08
          0.00977803 7.88258e-15 7.88258e-15 7.88258e-15 7.88258e-15 4.03011e-13 4.03011e-13 4.03011e-13 4.03011e-13 0 0 0
          0 1.52101e-14 1.52101e-14 1.52101e-14 1.52101e-14 -6.75016e-14 -6.4837e-14 -1.17462e-13 -3.41949e-14 0.000156041 0.118881 0.0687234
          0.510568 0.00476307 0.000109321 0.836005 0.813858 0.457302 0.306778 0.809854 0.850742 0.0920805 0.372692 0.317744
          0.0106104 0.00017701 0.000253674 9.08027e-09 7.18042e-09 8.99281e-15 8.99281e-15 8.99281e-15 8.99281e-15 0 0 0
          0 1.82635e-11 1.82635e-11 1.82635e-11 1.82635e-11 0.218937 0.154464 0.13427 0.254972 0.000410745 0.000145461 0.000147684
          0.00033728 0.0731126 0.358948 0.363975 0.0757368 0.221994 0.0112271 0.00923075 0.20146 1.07451e-07 -4.14779e-13 0.000314146
          0.00278543 0.000314146 0.000314146 0.24758 0.795444 0.00945215 0.00014951 0.894577 0.844455 0.429986 0.327313 0.839036
          0.84973 0.330455 0.53577 0.271681 0.0112204 0.000225464 0.0179798 0.000249818 0.0784268 0.370328 0.377978 0.0707521
          0.189036 0.00780313 0.0057854 0.173333 2.82165e-08 -7.50067e-13 2.9865e-14 3.91954e-09 0.00452703 0.167121 0.127144 0.00200399
          0.384411 2.22045e-16 2.22045e-16 0.388038 0 0 0 0 0 0 0 0
          1.11022e-16 0.388583 0.390665 1.11022e-16 0.151596 0.00348987 0.00189428 0.126631 1.9973e-09 -3.52385e-13 1.68754e-14 5.34705e-11
          0.000911365 0.0955222 0.00846577 0.0001152 0.38982 0.883055 0.754354 0.201009 0.877647 0.878516 0.835783 0.845858
          0.878495 0.877597 0.845673 0.836041 0.882128 0.392298 0.205496 0.770865 0.0961819 0.000909575 0.000125105 0.010186
          4.48153e-11 -4.44533e-13 -1.04361e-14 -3.13083e-14 -1.19904e-14 7.65297e-05 0.0631399 0.0140251 6.1903e-06 0.306891 0.494308 0.379384
          0.137863 0.495643 0.311412 0.14548 0.379296 0.0719737 0.000158828 8.14701e-06 0.0176202 7.24976e-14 -2.00284e-13 -3.54383e-13
          3.35287e-14 2.4647e-14 3.03091e-14 5.41292e-06 0.00809315 0.00416452 5.12582e-06 0.110998 0.388768 0.390284 0.0883149 0.388838
          0.117547 0.0933474 0.390315 0.0101544 5.75594e-06 5.17094e-06 0.00516718 4.09672e-14 3.28626e-14 4.20775e-14
        </DataArray>
      </CellData>
      <Points>
        <DataArray type="Float32" Name="Coordinates" NumberOfComponents="3" format="ascii">
          0 0 0 2 0 0 0 1 0 2 1 0
          4 0 0 4 1 0 6 0 0 6 1 0
          8 0 0 8 1 0 10 0 0 10 1 0
          12 0 0 12 1 0 14 0 0 14 1 0
          16 0 0 16 1 0 18 0 0 18 1 0
          20 0 0 20 1 0 0 2 0 2 2 0
          4 2 0 6 2 0 8 2 0 10 2 0
          12 2 0 14 2 0 16 2 0 18 2 0
          20 2 0 0 3 0 2 3 0 4 3 0
          6 3 0 8 3 0 10 3 0 11 2 0
          10 2.5 0 11 2.5 0 12 2.5 0 11 3 0
          12 3 0 13 2 0 13 2.5 0 14 2.5 0
          13 3 0 14 3 0 15 2 0 15 2.5 0
          16 2.5 0 15 3 0 16 3 0 17 2 0
          17 2.5 0 18 2.5 0 17 3 0 18 3 0
          20 3 0 0 4 0 2 4 0 4 4 0
          6 4 0 8 4 0 10 4 0 10 3.5 0
          11 3.5 0 12 3.5 0 11 4 0 12 4 0
          13 3.5 0 14 3.5 0 13 4 0 14 4 0
          15 3.5 0 16 3.5 0 15 4 0 16 4 0
          17 3.5 0 18 3.5 0 17 4 0 18 4 0
          20 4 0 0 5 0 2 5 0 3 4 0
          2 4.5 0 3 4.5 0 4 4.5 0 3 5 0
          4 5 0 5 4 0 5 4.5 0 6 4.5 0
          5 5 0 6 5 0 7 4 0 7 4.5 0
          8 4.5 0 7 5 0 8 5 0 9 4 0
          9 4.5 0 10 4.5 0 9 5 0 10 5 0
          11 4.5 0 12 4.5 0 11 5 0 12 5 0
          13 4.5 0 14 4.5 0 13 5 0 14 5 0
          15 4.5 0 16 4.5 0 15 5 0 16 5 0
          18 5 0 20 5 0 1 5 0 0 5.5 0
          1 5.5 0 2 5.5 0 1 6 0 2 6 0
          0 6 0 3 5.5 0 4 5.5 0 3 6 0
          4 6 0 5 5.5 0 6 5.5 0 5 6 0
          6 6 0 7 5.5 0 8 5.5 0 7 6 0
          8 6 0 9 5.5 0 10 5.5 0 9 6 0
          10 6 0 12 6 0 12 5.5 0 13 5.5 0
          14 5.5 0 13 6 0 14 6 0 15 5.5 0
          16 5.5 0 15 6 0 16 6 0 18 6 0
          20 6 0 0 7 0 2 7 0 4 7 0
          4 6.5 0 5 6.5 0 6 6.5 0 5 7 0
          6 7 0 7 6.5 0 8 6.5 0 7 7 0
          8 7 0 9 6.5 0 10 6.5 0 9 7 0
          10 7 0 11 6 0 11 6.5 0 12 6.5 0
          11 7 0 12 7 0 13 6.5 0 14 6.5 0
          13 7 0 14 7 0 15 6.5 0 16 6.5 0
          15 7 0 16 7 0 18 7 0 20 7 0
          0 8 0 2 8 0 4 8 0 4 7.5 0
          5 7.5 0 6 7.5 0 5 8 0 6 8 0
          7 7.5 0 8 7.5 0 7 8 0 8 8 0
          9 7.5 0 10 7.5 0 9 8 0 10 8 0
          11 7.5 0 12 7.5 0 11 8 0 12 8 0
          13 7.5 0 14 7.5 0 13 8 0 14 8 0
          15 7.5 0 16 7.5 0 15 8 0 16 8 0
          18 8 0 20 8 0 0 9 0 2 9 0
          4 9 0 6 9 0 6 8.5 0 7 8.5 0
          8 8.5 0 7 9 0 8 9 0 9 8.5 0
          10 8.5 0 9 9 0 10 9 0 11 8.5 0
          12 8.5 0 11 9 0 12 9 0 13 8.5 0
          14 8.5 0 13 9 0 14 9 0 16 9 0
          18 9 0 20 9 0 0 10 0 2 10 0
          4 10 0 6 10 0 6 9.5 0 7 9.5 0
          8 9.5 0 7 10 0 8 10 0 9 9.5 0
          10 9.5 0 9 10 0 10 10 0 11 9.5 0
          12 9.5 0 11 10 0 12 10 0 13 9.5 0
          14 9.5 0 13 10 0 14 10 0 16 10 0
          18 10 0 20 10 0
        </DataArray>
      </Points>
      <Cells>
        <DataArray type="Int32" Name="connectivity" NumberOfComponents="1" format="ascii">
          0 1 3 2 1 4 5 3 4 6 7 5
          6 8 9 7 8 10 11 9 10 12 13 11
          12 14 15 13 14 16 17 15 16 18 19 17
          18 20 21 19 2 3 23 22 3 5 24 23
          5 7 25 24 7 9 26 25 9 11 27 26
          11 13 28 27 13 15 29 28 15 17 30 29
          17 19 31 30 19 21 32 31 22 23 34 33
          23 24 35 34 24 25 36 35 25 26 37 36
          26 27 38 37 27 39 41 40 39 28 42 41
          41 42 44 43 40 41 43 38 28 45 46 42
          45 29 47 46 46 47 49 48 42 46 48 44
          29 50 51 47 50 30 52 51 51 52 54 53
          47 51 53 49 30 55 56 52 55 31 57 56
          56 57 59 58 52 56 58 54 31 32 60 59
          33 34 62 61 34 35 63 62 35 36 64 63
          36 37 65 64 37 38 66 65 38 43 68 67
          43 44 69 68 68 69 71 70 67 68 70 66
          44 48 72 69 48 49 73 72 72 73 75 74
          69 72 74 71 49 53 76 73 53 54 77 76
          76 77 79 78 73 76 78 75 54 58 80 77
          58 59 81 80 80 81 83 82 77 80 82 79
          59 60 84 83 61 62 86 85 62 87 89 88
          87 63 90 89 89 90 92 91 88 89 91 86
          63 93 94 90 93 64 95 94 94 95 97 96