<?xml version="1.0"?>
<VTKFile type="UnstructuredGrid" version="0.1" byte_order="LittleEndian">
  <UnstructuredGrid>
    <Piece NumberOfCells="10" NumberOfPoints="18">
      <PointData Scalars="S_liq" Vectors="velocity_liq (m/s)">
        <DataArray type="Float32" Name="S_liq" NumberOfComponents="1" format="ascii">
          0.371984 0.371984 0.354842 0.354842 0.371984 0.354842 0.32817 0.32817 0.32817 0.315198 0.315198 0.315198
          0.300464 0.300464 0.300464 0.283892 0.283892 0.283892
        </DataArray>
        <DataArray type="Float32" Name="p_liq" NumberOfComponents="1" format="ascii">
          92441.6 92441.6 92339 92339 92441.6 92339 92142.7 92142.7 92142.7 92022.2 92022.2 92022.2
          91852.1 91852.1 91852.1 91585.9 91585.9 91585.9
        </DataArray>
        <DataArray type="Float32" Name="rho_liq" NumberOfComponents="1" format="ascii">
          1012.93 1012.93 1012.93 1012.93 1012.93 1012.93 1012.94 1012.94 1012.94 1013.27 1013.27 1013.27
          1021.11 1021.11 1021.11 1200.29 1200.29 1200.29
        </DataArray>
        <DataArray type="Float32" Name="mob_liq" NumberOfComponents="1" format="ascii">
          6.36616 6.36616 4.25205 4.25205 6.36616 4.25205 1.94592 1.94592 1.94592 1.1998 1.1998 1.1998
          0.596671 0.596671 0.596671 0.112089 0.112089 0.112089
        </DataArray>
        <DataArray type="Float32" Name="S_gas" NumberOfComponents="1" format="ascii">
          0.628016 0.628016 0.645158 0.645158 0.628016 0.645158 0.67183 0.67183 0.67183 0.684802 0.684802 0.684802
          0.699536 0.699536 0.699536 0.716108 0.716108 0.716108
        </DataArray>
        <DataArray type="Float32" Name="p_gas" NumberOfComponents="1" format="ascii">
          100002 100002 100002 100002 100002 100002 100002 100002 100002 100002 100002 100002
          100002 100002 100002 100001 100001 100001
        </DataArray>
        <DataArray type="Float32" Name="rho_gas" NumberOfComponents="1" format="ascii">
          1.21011 1.21011 1.21011 1.21011 1.21011 1.21011 1.2101 1.2101 1.2101 1.21009 1.21009 1.21009
          1.21011 1.21011 1.21011 1.21071 1.21071 1.21071
        </DataArray>
        <DataArray type="Float32" Name="mob_gas" NumberOfComponents="1" format="ascii">
          39279.6 39279.6 41574.1 41574.1 39279.6 41574.1 45232.9 45232.9 45232.9 47144.6 47144.6 47144.6
          49756.9 49756.9 49756.9 52734.6 52734.6 52734.6
        </DataArray>
        <DataArray type="Float32" Name="pc" NumberOfComponents="1" format="ascii">
          7560.12 7560.12 7662.67 7662.67 7560.12 7662.67 7858.9 7858.9 7858.9 7979.38 7979.38 7979.38
          8149.4 8149.4 8149.4 8415.26 8415.26 8415.26
        </DataArray>
        <DataArray type="Float32" Name="porosity" NumberOfComponents="1" format="ascii">
          0.4 0.4 0.4 0.4 0.4 0.4 0.4 0.4 0.4 0.4 0.4 0.4
          0.4 0.4 0.4 0.399753 0.399753 0.399753
        </DataArray>
        <DataArray type="Float32" Name="x^H2O_liq" NumberOfComponents="1" format="ascii">
          0.993731 0.993731 0.993731 0.993731 0.993731 0.993731 0.993726 0.993726 0.993726 0.993572 0.993572 0.993572
          0.98994 0.98994 0.98994 0.902257 0.902257 0.902257
        </DataArray>
        <DataArray type="Float32" Name="x^Air_liq" NumberOfComponents="1" format="ascii">
          1.6965e-05 1.6965e-05 1.69647e-05 1.69647e-05 1.6965e-05 1.69647e-05 1.69639e-05 1.69639e-05 1.69639e-05 1.69636e-05 1.69636e-05 1.69636e-05
          1.69642e-05 1.69642e-05 1.69642e-05 1.69866e-05 1.69866e-05 1.69866e-05
        </DataArray>
        <DataArray type="Float32" Name="x^NaCl_liq" NumberOfComponents="1" format="ascii">
          0.00625221 0.00625221 0.00625235 0.00625235 0.00625221 0.00625235 0.00625695 0.00625695 0.00625695 0.0064111 0.0064111 0.0064111
          0.0100428 0.0100428 0.0100428 0.097726 0.097726 0.097726
        </DataArray>
        <DataArray type="Float32" Name="rhoMolar_liq" NumberOfComponents="1" format="ascii">
          55447.9 55447.9 55447.8 55447.8 55447.9 55447.8 55447.8 55447.8 55447.8 55447.1 55447.1 55447.1
          55430.9 55430.9 55430.9 54642.6 54642.6 54642.6
        </DataArray>
        <DataArray type="Float32" Name="x^H2O_gas" NumberOfComponents="1" format="ascii">
          0.0149479 0.0149479 0.0149487 0.0149487 0.0149479 0.0149487 0.0149508 0.0149508 0.0149508 0.0149493 0.0149493 0.0149493
          0.0148954 0.0148954 0.0148954 0.0135767 0.0135767 0.0135767
        </DataArray>
        <DataArray type="Float32" Name="x^Air_gas" NumberOfComponents="1" format="ascii">
          0.985052 0.985052 0.985051 0.985051 0.985052 0.985051 0.985049 0.985049 0.985049 0.985051 0.985051 0.985051
          0.985105 0.985105 0.985105 0.986423 0.986423 0.986423
        </DataArray>
        <DataArray type="Float32" Name="x^NaCl_gas" NumberOfComponents="1" format="ascii">
          -0 -0 -0 -0 -0 -0 -0 -0 -0 -0 -0 -0
          -0 -0 -0 -0 -0 -0
        </DataArray>
        <DataArray type="Float32" Name="rhoMolar_gas" NumberOfComponents="1" format="ascii">
          42.0233 42.0233 42.0231 42.0231 42.0233 42.0231 42.0228 42.0228 42.0228 42.0227 42.0227 42.0227
          42.0225 42.0225 42.0225 42.0222 42.0222 42.0222
        </DataArray>
        <DataArray type="Float32" Name="phase presence" NumberOfComponents="1" format="ascii">
          3 3 3 3 3 3 3 3 3 3 3 3
          3 3 3 3 3 3
        </DataArray>
        <DataArray type="Float32" Name="precipitateVolumeFraction^NaCl" NumberOfComponents="1" format="ascii">
          0 0 0 0 0 0 0 0 0 0 0 0
          0 0 0 0.000246746 0.000246746 0.000246746
        </DataArray>
        <DataArray type="Float32" Name="T" NumberOfComponents="1" format="ascii">
          286.213 286.213 286.214 286.214 286.213 286.214 286.216 286.216 286.216 286.217 286.217 286.217
          286.218 286.218 286.218 286.218 286.218 286.218
        </DataArray>
        <DataArray type="Float32" Name="velocity_liq (m/s)" NumberOfComponents="3" format="ascii">
          -2.96447e-22 2.38548e-09 0 -5.92894e-22 2.38548e-09 0 -4.95004e-22 4.64498e-09 0 -7.42505e-22 4.64498e-09 0
          -8.89342e-22 2.38548e-09 0 -9.90007e-22 4.64498e-09 0 -2.26535e-22 8.4126e-09 0 -6.56951e-22 8.4126e-09 0
          -1.08737e-21 8.4126e-09 0 -2.23481e-22 1.05503e-08 0 -6.56475e-22 1.05503e-08 0 -1.08947e-21 1.05503e-08 0
          -1.66671e-22 1.104e-08 0 -2.01397e-22 1.104e-08 0 -2.36123e-22 1.104e-08 0 5.20911e-23 1.09002e-08 0
          2.60456e-23 1.09002e-08 0 0 1.09002e-08 0
        </DataArray>
        <DataArray type="Float32" Name="velocity_gas (m/s)" NumberOfComponents="3" format="ascii">
          0 -2.41187e-09 0 -4.57275e-18 -2.41187e-09 0 -4.83987e-18 -4.70772e-09 0 -4.83987e-18 -4.70772e-09 0
          -9.14549e-18 -2.41187e-09 0 -4.83987e-18 -4.70772e-09 0 -6.31896e-18 -7.86737e-09 0 -1.21113e-17 -7.86737e-09 0
          -1.79037e-17 -7.86737e-09 0 -1.20744e-17 1.09526e-08 0 -3.12836e-17 1.09526e-08 0 -5.04928e-17 1.09526e-08 0
          -2.08467e-17 6.65984e-07 0 -2.08475e-17 6.65984e-07 0 -2.08482e-17 6.65984e-07 0 -9.80292e-18 1.30133e-06 0
          -7.35219e-18 1.30133e-06 0 -4.90146e-18 1.30133e-06 0
        </DataArray>
        <DataArray type="Float32" Name="Permeability" NumberOfComponents="1" format="ascii">
          1e-13 1e-13 1e-13 1e-13 1e-13 1e-13 1e-13 1e-13 1e-13 1e-13 1e-13 1e-13
          9.99332e-14 9.99332e-14 9.99332e-14 9.97997e-14 9.97997e-14 9.97997e-14
        </DataArray>
      </PointData>
      <CellData Scalars="process rank">
        <DataArray type="Float32" Name="process rank" NumberOfComponents="1" format="ascii">
          0 0 0 0 0 0 0 0 0 0
        </DataArray>
      </CellData>
      <Points>
        <DataArray type="Float32" Name="Coordinates" NumberOfComponents="3" format="ascii">
          0 0 0 0.01 0 0 0 0.0075 0 0.01 0.0075 0
          0.02 0 0 0.02 0.0075 0 0 0.015 0 0.01 0.015 0
          0.02 0.015 0 0 0.016978 0 0.01 0.016978 0 0.02 0.016978 0
          0 0.0186264 0 0.01 0.0186264 0 0.02 0.0186264 0 0 0.02 0
          0.01 0.02 0 0.02 0.02 0
        </DataArray>
      </Points>
      <Cells>
        <DataArray type="Int32" Name="connectivity" NumberOfComponents="1" format="ascii">
          0 1 3 2 1 4 5 3 2 3 7 6
          3 5 8 7 6 7 10 9 7 8 11 10
          9 10 13 12 10 11 14 13 12 13 16 15
          13 14 17 16
        </DataArray>
        <DataArray type="Int32" Name="offsets" NumberOfComponents="1" format="ascii">
          4 8 12 16 20 24 28 32 36 40
        </DataArray>
        <DataArray type="UInt8" Name="types" NumberOfComponents="1" format="ascii">
          9 9 9 9 9 9 9 9 9 9
        </DataArray>
      </Cells>
    </Piece>
  </UnstructuredGrid>
</VTKFile>
