<?xml version="1.0"?>
<VTKFile type="UnstructuredGrid" version="0.1" byte_order="LittleEndian">
  <UnstructuredGrid>
    <Piece NumberOfCells="10" NumberOfPoints="18">
      <PointData Scalars="S_liq" Vectors="velocity_liq (m/s)">
        <DataArray type="Float32" Name="S_liq" NumberOfComponents="1" format="ascii">
          0.314699 0.314699 0.302083 0.302083 0.314699 0.302083 0.277609 0.277609 0.277609 0.260184 0.260184 0.260184
          0.183196 0.183196 0.183196 0.0097064 0.0097064 0.0097064
        </DataArray>
        <DataArray type="Float32" Name="p_liq" NumberOfComponents="1" format="ascii">
          92018.8 92018.8 91874.8 91874.8 92018.8 91874.8 91449.4 91449.4 91449.4 90754.2 90754.2 90754.2
          82993.1 82993.1 82993.1 65388.1 65388.1 65388.1
        </DataArray>
        <DataArray type="Float32" Name="rho_liq" NumberOfComponents="1" format="ascii">
          1012.49 1012.49 1012.8 1012.8 1012.49 1012.8 1016.44 1016.44 1016.44 1026.46 1026.46 1026.46
          1080.71 1080.71 1080.71 1415.02 1415.02 1415.02
        </DataArray>
        <DataArray type="Float32" Name="mob_liq" NumberOfComponents="1" format="ascii">
          1.26914 1.26914 0.712257 0.712257 1.26914 0.712257 0.130608 0.130608 0.130608 0.00902797 0.00902797 0.00902797
          0 0 0 0 0 0
        </DataArray>
        <DataArray type="Float32" Name="S_gas" NumberOfComponents="1" format="ascii">
          0.685301 0.685301 0.697917 0.697917 0.685301 0.697917 0.722391 0.722391 0.722391 0.739816 0.739816 0.739816
          0.816804 0.816804 0.816804 0.990294 0.990294 0.990294
        </DataArray>
        <DataArray type="Float32" Name="p_gas" NumberOfComponents="1" format="ascii">
          100003 100003 100003 100003 100003 100003 100003 100003 100003 100003 100003 100003
          100003 100003 100003 100001 100001 100001
        </DataArray>
        <DataArray type="Float32" Name="rho_gas" NumberOfComponents="1" format="ascii">
          1.19394 1.19394 1.19394 1.19394 1.19394 1.19394 1.19394 1.19394 1.19394 1.19397 1.19397 1.19397
          1.19418 1.19418 1.19418 1.19575 1.19575 1.19575
        </DataArray>
        <DataArray type="Float32" Name="mob_gas" NumberOfComponents="1" format="ascii">
          46053 46053 48421 48421 46053 48421 53011.6 53011.6 53011.6 55147 55147 55147
          55542.6 55542.6 55542.6 55542.4 55542.4 55542.4
        </DataArray>
        <DataArray type="Float32" Name="pc" NumberOfComponents="1" format="ascii">
          7984.48 7984.48 8128.41 8128.41 7984.48 8128.41 8553.66 8553.66 8553.66 9248.83 9248.83 9248.83
          17009.7 17009.7 17009.7 34612.7 34612.7 34612.7
        </DataArray>
        <DataArray type="Float32" Name="porosity" NumberOfComponents="1" format="ascii">
          0.4 0.4 0.4 0.4 0.4 0.4 0.4 0.4 0.4 0.4 0.4 0.4
          0.4 0.4 0.4 0.389755 0.389755 0.389755
        </DataArray>
        <DataArray type="Float32" Name="x^H2O_liq" NumberOfComponents="1" format="ascii">
          0.993699 0.993699 0.993555 0.993555 0.993699 0.993555 0.991873 0.991873 0.991873 0.987219 0.987219 0.987219
          0.961618 0.961618 0.961618 0.774651 0.774651 0.774651
        </DataArray>
        <DataArray type="Float32" Name="x^Air_liq" NumberOfComponents="1" format="ascii">
          1.57519e-05 1.57519e-05 1.57516e-05 1.57516e-05 1.57519e-05 1.57516e-05 1.57512e-05 1.57512e-05 1.57512e-05 1.57522e-05 1.57522e-05 1.57522e-05
          1.57596e-05 1.57596e-05 1.57596e-05 1.58155e-05 1.58155e-05 1.58155e-05
        </DataArray>
        <DataArray type="Float32" Name="x^NaCl_liq" NumberOfComponents="1" format="ascii">
          0.00628506 0.00628506 0.00642956 0.00642956 0.00628506 0.00642956 0.00811111 0.00811111 0.00811111 0.0127653 0.0127653 0.0127653
          0.0383658 0.0383658 0.0383658 0.225333 0.225333 0.225333
        </DataArray>
        <DataArray type="Float32" Name="rhoMolar_liq" NumberOfComponents="1" format="ascii">
          55420 55420 55419.3 55419.3 55420 55419.3 55412 55412 55412 55390.5 55390.5 55390.5
          55233.1 55233.1 55233.1 52166.8 52166.8 52166.8
        </DataArray>
        <DataArray type="Float32" Name="x^H2O_gas" NumberOfComponents="1" format="ascii">
          0.0186961 0.0186961 0.0186945 0.0186945 0.0186961 0.0186945 0.0186663 0.0186663 0.0186663 0.01858 0.01858 0.01858
          0.0180994 0.0180994 0.0180994 0.0145814 0.0145814 0.0145814
        </DataArray>
        <DataArray type="Float32" Name="x^Air_gas" NumberOfComponents="1" format="ascii">
          0.981304 0.981304 0.981305 0.981305 0.981304 0.981305 0.981334 0.981334 0.981334 0.98142 0.98142 0.98142
          0.981901 0.981901 0.981901 0.985419 0.985419 0.985419
        </DataArray>
        <DataArray type="Float32" Name="x^NaCl_gas" NumberOfComponents="1" format="ascii">
          -0 -0 -0 -0 -0 -0 -0 -0 -0 -0 -0 -0
          -0 -0 -0 -0 -0 -0
        </DataArray>
        <DataArray type="Float32" Name="rhoMolar_gas" NumberOfComponents="1" format="ascii">
          41.5209 41.5209 41.5208 41.5208 41.5209 41.5208 41.5203 41.5203 41.5203 41.5201 41.5201 41.5201
          41.5199 41.5199 41.5199 41.5186 41.5186 41.5186
        </DataArray>
        <DataArray type="Float32" Name="phase presence" NumberOfComponents="1" format="ascii">
          3 3 3 3 3 3 3 3 3 3 3 3
          3 3 3 3 3 3
        </DataArray>
        <DataArray type="Float32" Name="precipitateVolumeFraction^NaCl" NumberOfComponents="1" format="ascii">
          0 0 0 0 0 0 0 0 0 0 0 0
          0 0 0 0.0102446 0.0102446 0.0102446
        </DataArray>
        <DataArray type="Float32" Name="T" NumberOfComponents="1" format="ascii">
          289.682 289.682 289.683 289.683 289.682 289.683 289.686 289.686 289.686 289.687 289.687 289.687
          289.688 289.688 289.688 289.689 289.689 289.689
        </DataArray>
        <DataArray type="Float32" Name="velocity_liq (m/s)" NumberOfComponents="3" format="ascii">
          3.04544e-21 1.17634e-09 0 3.03159e-21 1.17634e-09 0 3.1887e-21 2.25339e-09 0 3.27188e-21 2.25339e-09 0
          3.01774e-21 1.17634e-09 0 3.35505e-21 2.25339e-09 0 2.09674e-21 3.89503e-09 0 2.195e-21 3.89503e-09 0
          2.29326e-21 3.89503e-09 0 1.97451e-21 4.35051e-09 0 2.15543e-21 4.35051e-09 0 2.33636e-21 4.35051e-09 0
          0 2.1207e-09 0 0 2.1207e-09 0 0 2.1207e-09 0 0 0 0
          0 0 0 0 0 0
        </DataArray>
        <DataArray type="Float32" Name="velocity_gas (m/s)" NumberOfComponents="3" format="ascii">
          -2.27854e-18 -8.08291e-10 0 9.38222e-19 -8.08291e-10 0 -7.11664e-18 7.43489e-10 0 -3.04747e-18 7.43489e-10 0
          4.15498e-18 -8.08291e-10 0 1.0217e-18 7.43489e-10 0 -1.38856e-18 3.32532e-08 0 -4.06924e-18 3.32532e-08 0
          -6.74992e-18 3.32532e-08 0 -6.45119e-18 3.06526e-07 0 -4.38477e-18 3.06526e-07 0 -2.31835e-18 3.06526e-07 0
          5.33074e-20 4.02711e-06 0 -2.85749e-18 4.02711e-06 0 -5.76828e-18 4.02711e-06 0 8.11348e-19 7.50537e-06 0
          1.22022e-18 7.50537e-06 0 1.62909e-18 7.50537e-06 0
        </DataArray>
        <DataArray type="Float32" Name="Permeability" NumberOfComponents="1" format="ascii">
          1e-13 1e-13 1e-13 1e-13 1e-13 1e-13 1e-13 1e-13 1e-13 1e-13 1e-13 1e-13
          9.72593e-14 9.72593e-14 9.72593e-14 9.19767e-14 9.19767e-14 9.19767e-14
        </DataArray>
      </PointData>
      <CellData Scalars="process rank">
        <DataArray type="Float32" Name="process rank" NumberOfComponents="1" format="ascii">
          0 0 0 0 0 0 0 0 0 0
        </DataArray>
      </CellData>
      <Points>
        <DataArray type="Float32" Name="Coordinates" NumberOfComponents="3" format="ascii">
          0 0 0 0.01 0 0 0 0.0075 0 0.01 0.0075 0
          0.02 0 0 0.02 0.0075 0 0 0.015 0 0.01 0.015 0
          0.02 0.015 0 0 0.016978 0 0.01 0.016978 0 0.02 0.016978 0
          0 0.0186264 0 0.01 0.0186264 0 0.02 0.0186264 0 0 0.02 0
          0.01 0.02 0 0.02 0.02 0
        </DataArray>
      </Points>
      <Cells>
        <DataArray type="Int32" Name="connectivity" NumberOfComponents="1" format="ascii">
          0 1 3 2 1 4 5 3 2 3 7 6
          3 5 8 7 6 7 10 9 7 8 11 10
          9 10 13 12 10 11 14 13 12 13 16 15
          13 14 17 16
        </DataArray>
        <DataArray type="Int32" Name="offsets" NumberOfComponents="1" format="ascii">
          4 8 12 16 20 24 28 32 36 40
        </DataArray>
        <DataArray type="UInt8" Name="types" NumberOfComponents="1" format="ascii">
          9 9 9 9 9 9 9 9 9 9
        </DataArray>
      </Cells>
    </Piece>
  </UnstructuredGrid>
</VTKFile>
