<?xml version="1.0"?>
<VTKFile type="UnstructuredGrid" version="0.1" byte_order="LittleEndian">
  <UnstructuredGrid>
    <Piece NumberOfCells="2400" NumberOfPoints="2501">
      <PointData Scalars="S_aq">
        <DataArray type="Float32" Name="S_aq" NumberOfComponents="1" format="ascii">
          0.700457 0.700476 0.700434 0.700461 0.700523 0.700521 0.700578 0.700583 0.700625 0.700632 0.700661 0.700667
          0.700685 0.70069 0.700698 0.700702 0.700704 0.700707 0.700704 0.700706 0.700699 0.700701 0.70069 0.700692
          0.700679 0.70068 0.700666 0.700667 0.700652 0.700652 0.700636 0.700637 0.70062 0.70062 0.700603 0.700603
          0.700586 0.700586 0.700569 0.700569 0.700552 0.700552 0.700535 0.700535 0.700517 0.700518 0.7005 0.7005
          0.700484 0.700484 0.700467 0.700467 0.70045 0.70045 0.700434 0.700434 0.700418 0.700418 0.700402 0.700402
          0.700387 0.700387 0.700372 0.700372 0.700356 0.700356 0.700342 0.700342 0.700327 0.700327 0.700312 0.700312
          0.700298 0.700298 0.700284 0.700284 0.70027 0.70027 0.700257 0.700257 0.700243 0.700243 0.70023 0.70023
          0.700217 0.700217 0.700204 0.700204 0.700191 0.700191 0.700179 0.700179 0.700166 0.700166 0.700154 0.700154
          0.700142 0.700142 0.70013 0.70013 0.700117 0.700117 0.700106 0.700106 0.700094 0.700094 0.700082 0.700082
          0.70007 0.70007 0.700059 0.700059 0.700047 0.700047 0.700036 0.700036 0.700024 0.700024 0.700014 0.700013
          0.700009 0.7 0.700341 0.70041 0.700525 0.700602 0.700653 0.700685 0.700704 0.700714 0.700716 0.700713
          0.700706 0.700696 0.700683 0.700669 0.700654 0.700638 0.700621 0.700604 0.700587 0.700569 0.700552 0.700535
          0.700518 0.7005 0.700484 0.700467 0.70045 0.700434 0.700418 0.700402 0.700387 0.700372 0.700356 0.700342
          0.700327 0.700312 0.700298 0.700284 0.70027 0.700257 0.700243 0.70023 0.700217 0.700204 0.700191 0.700179
          0.700166 0.700154 0.700142 0.70013 0.700117 0.700105 0.700094 0.700082 0.70007 0.700059 0.700047 0.700035
          0.700024 0.700012 0.7 0.699916 0.700413 0.700566 0.700646 0.700691 0.700716 0.700729 0.700733 0.70073
          0.700724 0.700714 0.700701 0.700687 0.700672 0.700656 0.700639 0.700622 0.700605 0.700587 0.70057 0.700552
          0.700535 0.700518 0.7005 0.700484 0.700467 0.70045 0.700434 0.700418 0.700402 0.700387 0.700371 0.700356
          0.700341 0.700327 0.700312 0.700298 0.700284 0.70027 0.700257 0.700243 0.70023 0.700217 0.700204 0.700191
          0.700179 0.700166 0.700154 0.700142 0.700129 0.700117 0.700105 0.700094 0.700082 0.70007 0.700058 0.700047
          0.700035 0.700024 0.700012 0.7 0.700504 0.700566 0.700665 0.700719 0.700747 0.700759 0.700761 0.700757
          0.700749 0.700737 0.700724 0.700709 0.700693 0.700676 0.700659 0.700642 0.700624 0.700606 0.700588 0.70057
          0.700553 0.700535 0.700518 0.7005 0.700483 0.700467 0.70045 0.700434 0.700418 0.700402 0.700386 0.700371
          0.700356 0.700341 0.700327 0.700312 0.700298 0.700284 0.70027 0.700257 0.700243 0.70023 0.700217 0.700204
          0.700191 0.700179 0.700166 0.700154 0.700142 0.700129 0.700117 0.700105 0.700094 0.700082 0.70007 0.700058
          0.700047 0.700035 0.700023 0.700012 0.7 0.700774 0.700784 0.700805 0.700817 0.700818 0.700811 0.700799
          0.700785 0.700769 0.700753 0.700735 0.700717 0.700699 0.700681 0.700662 0.700644 0.700625 0.700607 0.700589
          0.700571 0.700553 0.700535 0.700517 0.7005 0.700483 0.700466 0.70045 0.700433 0.700417 0.700402 0.700386
          0.700371 0.700356 0.700341 0.700326 0.700312 0.700298 0.700284 0.70027 0.700256 0.700243 0.70023 0.700217
          0.700204 0.700191 0.700179 0.700166 0.700154 0.700141 0.700129 0.700117 0.700105 0.700093 0.700082 0.70007
          0.700058 0.700047 0.700035 0.700023 0.700012 0.7 0.701009 0.700991 0.70096 0.700927 0.700896 0.700867
          0.70084 0.700815 0.700791 0.700769 0.700747 0.700726 0.700706 0.700686 0.700666 0.700646 0.700627 0.700608
          0.700589 0.700571 0.700553 0.700535 0.700517 0.7005 0.700483 0.700466 0.700449 0.700433 0.700417 0.700401
          0.700386 0.70037 0.700355 0.700341 0.700326 0.700312 0.700297 0.700284 0.70027 0.700256 0.700243 0.70023
          0.700217 0.700204 0.700191 0.700178 0.700166 0.700154 0.700141 0.700129 0.700117 0.700105 0.700093 0.700082
          0.70007 0.700058 0.700047 0.700035 0.700023 0.700012 0.7 0.701274 0.701199 0.701115 0.701036 0.700971
          0.70092 0.700878 0.700842 0.700812 0.700784 0.700758 0.700734 0.700712 0.70069 0.700669 0.700648 0.700629
          0.700609 0.70059 0.700571 0.700553 0.700535 0.700517 0.700499 0.700482 0.700466 0.700449 0.700433 0.700417
          0.700401 0.700385 0.70037 0.700355 0.70034 0.700326 0.700311 0.700297 0.700283 0.700269 0.700256 0.700243
          0.700229 0.700216 0.700203 0.700191 0.700178 0.700166 0.700153 0.700141 0.700129 0.700117 0.700105 0.700093
          0.700082 0.70007 0.700058 0.700046 0.700035 0.700023 0.700012 0.7 0.691131 0.701418 0.701253 0.701128
          0.701033 0.700963 0.700909 0.700866 0.700829 0.700796 0.700768 0.700741 0.700717 0.700694 0.700671 0.70065
          0.70063 0.70061 0.70059 0.700571 0.700553 0.700534 0.700516 0.700499 0.700482 0.700465 0.700448 0.700432
          0.700416 0.7004 0.700385 0.700369 0.700354 0.70034 0.700325 0.700311 0.700297 0.700283 0.700269 0.700256
          0.700242 0.700229 0.700216 0.700203 0.700191 0.700178 0.700166 0.700153 0.700141 0.700129 0.700117 0.700105
          0.700093 0.700081 0.70007 0.700058 0.700046 0.700035 0.700023 0.700012 0.7 0.371884 0.692382 0.701354
          0.701182 0.701071 0.700992 0.700931 0.700882 0.700841 0.700806 0.700775 0.700746 0.70072 0.700696 0.700673
          0.700651 0.70063 0.70061 0.70059 0.700571 0.700552 0.700534 0.700516 0.700498 0.700481 0.700464 0.700447
          0.700431 0.700415 0.700399 0.700384 0.700369 0.700354 0.700339 0.700325 0.70031 0.700296 0.700282 0.700269
          0.700255 0.700242 0.700229 0.700216 0.700203 0.70019 0.700178 0.700165 0.700153 0.700141 0.700129 0.700117
          0.700105 0.700093 0.700081 0.70007 0.700058 0.700046 0.700035 0.700023 0.700012 0.7 0.693194 0.701471
          0.70131 0.701182 0.70108 0.701002 0.700941 0.70089 0.700848 0.700811 0.700779 0.700749 0.700722 0.700697
          0.700674 0.700651 0.70063 0.700609 0.700589 0.70057 0.700551 0.700533 0.700515 0.700497 0.70048 0.700463
          0.700447 0.70043 0.700414 0.700399 0.700383 0.700368 0.700353 0.700338 0.700324 0.70031 0.700296 0.700282
          0.700268 0.700255 0.700242 0.700228 0.700215 0.700203 0.70019 0.700177 0.700165 0.700153 0.700141 0.700129
          0.700117 0.700105 0.700093 0.700081 0.700069 0.700058 0.700046 0.700035 0.700023 0.700012 0.7 0.701394
          0.701329 0.70124 0.701147 0.701066 0.700997 0.70094 0.700891 0.700849 0.700812 0.70078 0.70075 0.700723
          0.700697 0.700673 0.700651 0.700629 0.700608 0.700588 0.700569 0.70055 0.700532 0.700514 0.700496 0.700479
          0.700462 0.700445 0.700429 0.700413 0.700398 0.700382 0.700367 0.700352 0.700338 0.700323 0.700309 0.700295
          0.700281 0.700268 0.700254 0.700241 0.700228 0.700215 0.700202 0.70019 0.700177 0.700165 0.700153 0.70014
          0.700128 0.700116 0.700105 0.700093 0.700081 0.700069 0.700058 0.700046 0.700035 0.700023 0.700011 0.7
          0.701238 0.701215 0.701162 0.701099 0.701037 0.70098 0.700929 0.700885 0.700845 0.700809 0.700777 0.700748
          0.700721 0.700696 0.700672 0.700649 0.700627 0.700607 0.700587 0.700567 0.700548 0.70053 0.700512 0.700495
          0.700478 0.700461 0.700444 0.700428 0.700412 0.700397 0.700381 0.700366 0.700352 0.700337 0.700323 0.700308
          0.700294 0.700281 0.700267 0.700254 0.700241 0.700228 0.700215 0.700202 0.700189 0.700177 0.700165 0.700152
          0.70014 0.700128 0.700116 0.700104 0.700093 0.700081 0.700069 0.700058 0.700046 0.700034 0.700023 0.700011
          0.7 0.701136 0.701124 0.701092 0.701049 0.701002 0.700956 0.700913 0.700873 0.700836 0.700803 0.700772
          0.700744 0.700717 0.700692 0.700669 0.700647 0.700625 0.700604 0.700585 0.700565 0.700547 0.700528 0.70051
          0.700493 0.700476 0.700459 0.700443 0.700427 0.700411 0.700396 0.70038 0.700365 0.700351 0.700336 0.700322
          0.700308 0.700294 0.70028 0.700267 0.700253 0.70024 0.700227 0.700214 0.700202 0.700189 0.700177 0.700164
          0.700152 0.70014 0.700128 0.700116 0.700104 0.700092 0.700081 0.700069 0.700058 0.700046 0.700034 0.700023
          0.700011 0.7 0.70106 0.701052 0.701031 0.701001 0.700966 0.700929 0.700893 0.700858 0.700825 0.700794
          0.700765 0.700738 0.700712 0.700688 0.700665 0.700643 0.700622 0.700602 0.700582 0.700563 0.700544 0.700526
          0.700508 0.700491 0.700474 0.700458 0.700441 0.700425 0.70041 0.700394 0.700379 0.700364 0.70035 0.700335
          0.700321 0.700307 0.700293 0.700279 0.700266 0.700253 0.70024 0.700227 0.700214 0.700201 0.700189 0.700176
          0.700164 0.700152 0.70014 0.700128 0.700116 0.700104 0.700092 0.700081 0.700069 0.700057 0.700046 0.700034
          0.700023 0.700011 0.7 0.701 0.700995 0.70098 0.700958 0.700931 0.700901 0.70087 0.70084 0.700811
          0.700783 0.700756 0.70073 0.700706 0.700683 0.70066 0.700639 0.700618 0.700598 0.700579 0.70056 0.700542
          0.700524 0.700506 0.700489 0.700472 0.700456 0.70044 0.700424 0.700408 0.700393 0.700378 0.700363 0.700349
          0.700334 0.70032 0.700306 0.700292 0.700279 0.700265 0.700252 0.700239 0.700226 0.700213 0.700201 0.700188
          0.700176 0.700164 0.700151 0.700139 0.700127 0.700116 0.700104 0.700092 0.70008 0.700069 0.700057 0.700046
          0.700034 0.700023 0.700011 0.7 0.700951 0.700947 0.700936 0.700919 0.700898 0.700873 0.700848 0.700822
          0.700796 0.70077 0.700745 0.700721 0.700698 0.700676 0.700655 0.700634 0.700614 0.700594 0.700575 0.700557
          0.700539 0.700521 0.700504 0.700487 0.70047 0.700454 0.700438 0.700422 0.700407 0.700392 0.700377 0.700362
          0.700347 0.700333 0.700319 0.700305 0.700292 0.700278 0.700265 0.700251 0.700238 0.700226 0.700213 0.7002
          0.700188 0.700175 0.700163 0.700151 0.700139 0.700127 0.700115 0.700104 0.700092 0.70008 0.700069 0.700057
          0.700046 0.700034 0.700023 0.700011 0.7 0.700909 0.700906 0.700898 0.700884 0.700867 0.700847 0.700825
          0.700803 0.70078 0.700757 0.700734 0.700712 0.70069 0.700669 0.700648 0.700628 0.700609 0.70059 0.700571
          0.700553 0.700536 0.700518 0.700501 0.700485 0.700468 0.700452 0.700436 0.700421 0.700405 0.70039 0.700375
          0.700361 0.700346 0.700332 0.700318 0.700304 0.700291 0.700277 0.700264 0.700251 0.700238 0.700225 0.700212
          0.7002 0.700187 0.700175 0.700163 0.700151 0.700139 0.700127 0.700115 0.700103 0.700092 0.70008 0.700069
          0.700057 0.700046 0.700034 0.700023 0.700011 0.7 0.700873 0.700871 0.700864 0.700853 0.700839 0.700823
          0.700804 0.700784 0.700764 0.700743 0.700722 0.700702 0.700681 0.700661 0.700642 0.700622 0.700604 0.700585
          0.700567 0.700549 0.700532 0.700515 0.700498 0.700482 0.700466 0.70045 0.700434 0.700419 0.700404 0.700389
          0.700374 0.70036 0.700345 0.700331 0.700317 0.700303 0.70029 0.700276 0.700263 0.70025 0.700237 0.700224
          0.700212 0.700199 0.700187 0.700175 0.700163 0.70015 0.700139 0.700127 0.700115 0.700103 0.700092 0.70008
          0.700068 0.700057 0.700046 0.700034 0.700023 0.700011 0.7 0.700842 0.70084 0.700835 0.700826 0.700814
          0.7008 0.700784 0.700766 0.700748 0.700729 0.70071 0.700691 0.700672 0.700653 0.700635 0.700616 0.700598
          0.70058 0.700563 0.700546 0.700529 0.700512 0.700495 0.700479 0.700463 0.700448 0.700432 0.700417 0.700402
          0.700387 0.700373 0.700358 0.700344 0.70033 0.700316 0.700302 0.700289 0.700276 0.700262 0.700249 0.700237
          0.700224 0.700211 0.700199 0.700187 0.700174 0.700162 0.70015 0.700138 0.700126 0.700115 0.700103 0.700091
          0.70008 0.700068 0.700057 0.700045 0.700034 0.700023 0.700011 0.7 0.700815 0.700813 0.700808 0.700801
          0.700791 0.700779 0.700765 0.700749 0.700733 0.700716 0.700698 0.700681 0.700663 0.700645 0.700628 0.70061
          0.700593 0.700575 0.700558 0.700541 0.700525 0.700509 0.700493 0.700477 0.700461 0.700445 0.70043 0.700415
          0.7004 0.700386 0.700371 0.700357 0.700343 0.700329 0.700315 0.700302 0.700288 0.700275 0.700262 0.700249
          0.700236 0.700223 0.700211 0.700198 0.700186 0.700174 0.700162 0.70015 0.700138 0.700126 0.700114 0.700103
          0.700091 0.70008 0.700068 0.700057 0.700045 0.700034 0.700023 0.700011 0.7 0.70079 0.700789 0.700785
          0.700779 0.70077 0.700759 0.700747 0.700733 0.700719 0.700703 0.700687 0.700671 0.700654 0.700637 0.70062
          0.700603 0.700587 0.70057 0.700554 0.700537 0.700521 0.700505 0.700489 0.700474 0.700458 0.700443 0.700428
          0.700413 0.700399 0.700384 0.70037 0.700356 0.700342 0.700328 0.700314 0.700301 0.700287 0.700274 0.700261
          0.700248 0.700235 0.700223 0.70021 0.700198 0.700186 0.700173 0.700161 0.700149 0.700138 0.700126 0.700114
          0.700103 0.700091 0.70008 0.700068 0.700057 0.700045 0.700034 0.700023 0.700011 0.7 0.700769 0.700768
          0.700764 0.700759 0.700751 0.700742 0.700731 0.700718 0.700705 0.700691 0.700676 0.700661 0.700645 0.700629
          0.700613 0.700597 0.700581 0.700565 0.700549 0.700533 0.700517 0.700502 0.700486 0.700471 0.700456 0.700441
          0.700426 0.700411 0.700397 0.700382 0.700368 0.700354 0.70034 0.700327 0.700313 0.7003 0.700286 0.700273
          0.70026 0.700247 0.700235 0.700222 0.70021 0.700197 0.700185 0.700173 0.700161 0.700149 0.700137 0.700126
          0.700114 0.700102 0.700091 0.700079 0.700068 0.700057 0.700045 0.700034 0.700023 0.700011 0.7 0.70075
          0.700749 0.700746 0.700741 0.700734 0.700725 0.700716 0.700705 0.700692 0.700679 0.700666 0.700651 0.700637
          0.700622 0.700606 0.700591 0.700576 0.70056 0.700545 0.700529 0.700514 0.700499 0.700483 0.700468 0.700453
          0.700439 0.700424 0.700409 0.700395 0.700381 0.700367 0.700353 0.700339 0.700325 0.700312 0.700299 0.700285
          0.700272 0.70026 0.700247 0.700234 0.700222 0.700209 0.700197 0.700185 0.700173 0.700161 0.700149 0.700137
          0.700125 0.700114 0.700102 0.700091 0.700079 0.700068 0.700056 0.700045 0.700034 0.700023 0.700011 0.7
          0.700733 0.700732 0.700729 0.700725 0.700719 0.700711 0.700702 0.700692 0.700681 0.700669 0.700656 0.700642
          0.700628 0.700614 0.7006 0.700585 0.70057 0.700555 0.70054 0.700525 0.70051 0.700495 0.70048 0.700466
          0.700451 0.700436 0.700422 0.700408 0.700393 0.700379 0.700365 0.700352 0.700338 0.700324 0.700311 0.700298
          0.700285 0.700272 0.700259 0.700246 0.700234 0.700221 0.700209 0.700196 0.700184 0.700172 0.70016 0.700149
          0.700137 0.700125 0.700113 0.700102 0.70009 0.700079 0.700068 0.700056 0.700045 0.700034 0.700022 0.700011
          0.7 0.700718 0.700717 0.700715 0.70071 0.700705 0.700698 0.70069 0.70068 0.70067 0.700659 0.700647
          0.700634 0.700621 0.700607 0.700593 0.700579 0.700565 0.700551 0.700536 0.700521 0.700507 0.700492 0.700478
          0.700463 0.700449 0.700434 0.70042 0.700406 0.700392 0.700378 0.700364 0.70035 0.700337 0.700323 0.70031
          0.700297 0.700284 0.700271 0.700258 0.700245 0.700233 0.70022 0.700208 0.700196 0.700184 0.700172 0.70016
          0.700148 0.700136 0.700125 0.700113 0.700102 0.70009 0.700079 0.700068 0.700056 0.700045 0.700034 0.700022
          0.700011 0.7 0.700705 0.700704 0.700702 0.700698 0.700693 0.700686 0.700679 0.70067 0.70066 0.70065
          0.700638 0.700626 0.700614 0.700601 0.700588 0.700574 0.70056 0.700546 0.700532 0.700518 0.700503 0.700489
          0.700475 0.700461 0.700446 0.700432 0.700418 0.700404 0.70039 0.700376 0.700363 0.700349 0.700336 0.700322
          0.700309 0.700296 0.700283 0.70027 0.700257 0.700245 0.700232 0.70022 0.700208 0.700195 0.700183 0.700172
          0.70016 0.700148 0.700136 0.700125 0.700113 0.700101 0.70009 0.700079 0.700067 0.700056 0.700045 0.700034
          0.700022 0.700011 0.7 0.700693 0.700692 0.70069 0.700687 0.700682 0.700676 0.700669 0.700661 0.700652
          0.700642 0.700631 0.70062 0.700608 0.700595 0.700582 0.700569 0.700556 0.700542 0.700528 0.700514 0.7005
          0.700486 0.700472 0.700458 0.700444 0.70043 0.700416 0.700402 0.700389 0.700375 0.700361 0.700348 0.700334
          0.700321 0.700308 0.700295 0.700282 0.700269 0.700257 0.700244 0.700232 0.700219 0.700207 0.700195 0.700183
          0.700171 0.700159 0.700148 0.700136 0.700124 0.700113 0.700101 0.70009 0.700079 0.700067 0.700056 0.700045
          0.700034 0.700022 0.700011 0.7 0.700683 0.700682 0.70068 0.700677 0.700673 0.700667 0.70066 0.700653
          0.700644 0.700634 0.700624 0.700613 0.700602 0.70059 0.700577 0.700565 0.700552 0.700538 0.700525 0.700511
          0.700498 0.700484 0.70047 0.700456 0.700442 0.700428 0.700415 0.700401 0.700387 0.700374 0.70036 0.700347
          0.700333 0.70032 0.700307 0.700294 0.700281 0.700269 0.700256 0.700244 0.700231 0.700219 0.700207 0.700195
          0.700183 0.700171 0.700159 0.700147 0.700136 0.700124 0.700113 0.700101 0.70009 0.700078 0.700067 0.700056
          0.700045 0.700033 0.700022 0.700011 0.7 0.700674 0.700674 0.700672 0.700669 0.700665 0.700659 0.700653
          0.700646 0.700637 0.700628 0.700618 0.700608 0.700597 0.700585 0.700573 0.700561 0.700548 0.700535 0.700522
          0.700509 0.700495 0.700481 0.700468 0.700454 0.70044 0.700427 0.700413 0.700399 0.700386 0.700372 0.700359
          0.700346 0.700333 0.700319 0.700306 0.700294 0.700281 0.700268 0.700256 0.700243 0.700231 0.700218 0.700206
          0.700194 0.700182 0.70017 0.700159 0.700147 0.700135 0.700124 0.700112 0.700101 0.70009 0.700078 0.700067
          0.700056 0.700045 0.700033 0.700022 0.700011 0.7 0.700667 0.700666 0.700665 0.700662 0.700658 0.700653
          0.700647 0.70064 0.700632 0.700623 0.700613 0.700603 0.700592 0.700581 0.70057 0.700557 0.700545 0.700532
          0.700519 0.700506 0.700493 0.700479 0.700466 0.700452 0.700439 0.700425 0.700412 0.700398 0.700385 0.700371
          0.700358 0.700345 0.700332 0.700319 0.700306 0.700293 0.70028 0.700267 0.700255 0.700243 0.70023 0.700218
          0.700206 0.700194 0.700182 0.70017 0.700158 0.700147 0.700135 0.700124 0.700112 0.700101 0.700089 0.700078
          0.700067 0.700056 0.700045 0.700033 0.700022 0.700011 0.7 0.700661 0.700661 0.700659 0.700656 0.700652
          0.700647 0.700641 0.700635 0.700627 0.700618 0.700609 0.700599 0.700589 0.700578 0.700566 0.700554 0.700542
          0.70053 0.700517 0.700504 0.700491 0.700478 0.700464 0.700451 0.700437 0.700424 0.70041 0.700397 0.700384
          0.70037 0.700357 0.700344 0.700331 0.700318 0.700305 0.700292 0.70028 0.700267 0.700254 0.700242 0.70023
          0.700218 0.700206 0.700194 0.700182 0.70017 0.700158 0.700146 0.700135 0.700123 0.700112 0.700101 0.700089
          0.700078 0.700067 0.700056 0.700044 0.700033 0.700022 0.700011 0.7 0.700657 0.700656 0.700654 0.700652
          0.700648 0.700643 0.700637 0.700631 0.700623 0.700615 0.700606 0.700596 0.700586 0.700575 0.700564 0.700552
          0.70054 0.700528 0.700515 0.700502 0.700489 0.700476 0.700463 0.70045 0.700436 0.700423 0.700409 0.700396
          0.700383 0.70037 0.700356 0.700343 0.70033 0.700317 0.700304 0.700292 0.700279 0.700266 0.700254 0.700242
          0.700229 0.700217 0.700205 0.700193 0.700181 0.70017 0.700158 0.700146 0.700135 0.700123 0.700112 0.7001
          0.700089 0.700078 0.700067 0.700056 0.700044 0.700033 0.700022 0.700011 0.7 0.700653 0.700653 0.700651
          0.700649 0.700645 0.70064 0.700635 0.700628 0.700621 0.700612 0.700604 0.700594 0.700584 0.700573 0.700562
          0.70055 0.700538 0.700526 0.700514 0.700501 0.700488 0.700475 0.700462 0.700449 0.700435 0.700422 0.700409
          0.700395 0.700382 0.700369 0.700356 0.700343 0.70033 0.700317 0.700304 0.700291 0.700279 0.700266 0.700254
          0.700241 0.700229 0.700217 0.700205 0.700193 0.700181 0.700169 0.700158 0.700146 0.700135 0.700123 0.700112
          0.7001 0.700089 0.700078 0.700067 0.700055 0.700044 0.700033 0.700022 0.700011 0.7 0.700651 0.700651
          0.700649 0.700647 0.700643 0.700638 0.700633 0.700626 0.700619 0.700611 0.700602 0.700593 0.700582 0.700572
          0.700561 0.700549 0.700537 0.700525 0.700513 0.7005 0.700487 0.700474 0.700461 0.700448 0.700434 0.700421
          0.700408 0.700395 0.700381 0.700368 0.700355 0.700342 0.700329 0.700316 0.700303 0.700291 0.700278 0.700266
          0.700253 0.700241 0.700229 0.700217 0.700205 0.700193 0.700181 0.700169 0.700157 0.700146 0.700134 0.700123
          0.700112 0.7001 0.700089 0.700078 0.700067 0.700055 0.700044 0.700033 0.700022 0.700011 0.7 0.700487
          0.700486 0.700485 0.700483 0.70048 0.700476 0.700472 0.700467 0.700461 0.700454 0.700447 0.70044 0.700432
          0.700423 0.700415 0.700406 0.700396 0.700387 0.700377 0.700367 0.700357 0.700347 0.700337 0.700327 0.700317
          0.700307 0.700297 0.700287 0.700277 0.700267 0.700257 0.700247 0.700238 0.700228 0.700219 0.700209 0.7002
          0.700191 0.700182 0.700173 0.700164 0.700155 0.700146 0.700137 0.700129 0.70012 0.700112 0.700104 0.700096
          0.700087 0.700079 0.700071 0.700063 0.700055 0.700047 0.700039 0.700031 0.700024 0.700016 0.700008 0.7
          0.700267 0.700267 0.700266 0.700265 0.700263 0.700261 0.700259 0.700256 0.700252 0.700248 0.700244 0.70024
          0.700235 0.70023 0.700225 0.70022 0.700215 0.700209 0.700204 0.700198 0.700192 0.700187 0.700181 0.700175
          0.700169 0.700164 0.700158 0.700153 0.700147 0.700141 0.700136 0.700131 0.700125 0.70012 0.700115 0.70011
          0.700105 0.7001 0.700095 0.70009 0.700085 0.700081 0.700076 0.700071 0.700067 0.700062 0.700058 0.700054
          0.700049 0.700045 0.700041 0.700037 0.700032 0.700028 0.700024 0.70002 0.700016 0.700012 0.700008 0.700004
          0.7 0.700138 0.700138 0.700138 0.700137 0.700136 0.700135 0.700133 0.700132 0.70013 0.700128 0.700126
          0.700123 0.700121 0.700118 0.700115 0.700113 0.70011 0.700107 0.700104 0.700101 0.700098 0.700095 0.700092
          0.700089 0.700085 0.700082 0.70008 0.700077 0.700074 0.700071 0.700068 0.700065 0.700062 0.70006 0.700057
          0.700054 0.700052 0.700049 0.700047 0.700044 0.700042 0.70004 0.700037 0.700035 0.700033 0.700031 0.700028
          0.700026 0.700024 0.700022 0.70002 0.700018 0.700016 0.700014 0.700012 0.70001 0.700008 0.700006 0.700004
          0.700002 0.7 0.700069 0.700069 0.700069 0.700068 0.700068 0.700067 0.700067 0.700066 0.700065 0.700064
          0.700063 0.700061 0.70006 0.700059 0.700057 0.700056 0.700054 0.700053 0.700051 0.70005 0.700048 0.700046
          0.700045 0.700043 0.700042 0.70004 0.700039 0.700037 0.700036 0.700034 0.700033 0.700032 0.70003 0.700029
          0.700027 0.700026 0.700025 0.700024 0.700022 0.700021 0.70002 0.700019 0.700018 0.700017 0.700016 0.700015
          0.700013 0.700012 0.700011 0.70001 0.700009 0.700008 0.700007 0.700007 0.700006 0.700005 0.700004 0.700003
          0.700002 0.700001 0.7 0.700037 0.700037 0.700037 0.700036 0.700036 0.700036 0.700035 0.700035 0.700034
          0.700034 0.700033 0.700032 0.700032 0.700031 0.70003 0.700029 0.700028 0.700028 0.700027 0.700026 0.700025
          0.700024 0.700023 0.700023 0.700022 0.700021 0.70002 0.700019 0.700019 0.700018 0.700017 0.700016 0.700015
          0.700015 0.700014 0.700013 0.700013 0.700012 0.700011 0.700011 0.70001 0.70001 0.700009 0.700008 0.700008
          0.700007 0.700007 0.700006 0.700006 0.700005 0.700005 0.700004 0.700004 0.700003 0.700003 0.700002 0.700002
          0.700001 0.700001 0.700001 0.7 0.700027 0.700027 0.700027 0.700027 0.700027 0.700027 0.700026 0.700026
          0.700026 0.700025 0.700025 0.700024 0.700024 0.700023 0.700022 0.700022 0.700021 0.70002 0.70002 0.700019
          0.700019 0.700018 0.700017 0.700017 0.700016 0.700015 0.700015 0.700014 0.700014 0.700013 0.700012 0.700012
          0.700011 0.700011 0.70001 0.70001 0.700009 0.700009 0.700008 0.700008 0.700007 0.700007 0.700007 0.700006
          0.700006 0.700005 0.700005 0.700005 0.700004 0.700004 0.700004 0.700003 0.700003 0.700002 0.700002 0.700002
          0.700001 0.700001 0.700001 0.7 0.7
        </DataArray>
        <DataArray type="Float32" Name="p_aq" NumberOfComponents="1" format="ascii">
          4.18385e+06 4.19048e+06 4.16611e+06 4.1753e+06 4.20682e+06 4.19617e+06 4.22579e+06 4.21766e+06 4.24234e+06 4.23476e+06 4.25472e+06 4.24699e+06
          4.26301e+06 4.25492e+06 4.26782e+06 4.25937e+06 4.26986e+06 4.26109e+06 4.26975e+06 4.26073e+06 4.26801e+06 4.25879e+06 4.26504e+06 4.25567e+06
          4.26115e+06 4.25167e+06 4.25659e+06 4.24702e+06 4.25154e+06 4.24191e+06 4.24614e+06 4.23646e+06 4.24049e+06 4.23078e+06 4.23468e+06 4.22494e+06
          4.22877e+06 4.219e+06 4.2228e+06 4.21301e+06 4.2168e+06 4.20701e+06 4.21082e+06 4.20102e+06 4.20486e+06 4.19506e+06 4.19895e+06 4.18914e+06
          4.1931e+06 4.18328e+06 4.18731e+06 4.17749e+06 4.18159e+06 4.17177e+06 4.17594e+06 4.16613e+06 4.17038e+06 4.16056e+06 4.1649e+06 4.15508e+06
          4.15949e+06 4.14967e+06 4.15417e+06 4.14435e+06 4.14893e+06 4.13911e+06 4.14377e+06 4.13395e+06 4.13868e+06 4.12886e+06 4.13367e+06 4.12386e+06
          4.12874e+06 4.11892e+06 4.12388e+06 4.11406e+06 4.11909e+06 4.10927e+06 4.11436e+06 4.10455e+06 4.1097e+06 4.09989e+06 4.1051e+06 4.09529e+06
          4.10056e+06 4.09075e+06 4.09608e+06 4.08626e+06 4.09164e+06 4.08183e+06 4.08726e+06 4.07745e+06 4.08293e+06 4.07312e+06 4.07864e+06 4.06883e+06
          4.07439e+06 4.06458e+06 4.07018e+06 4.06037e+06 4.06601e+06 4.0562e+06 4.06187e+06 4.05206e+06 4.05776e+06 4.04795e+06 4.05368e+06 4.04386e+06
          4.04962e+06 4.03981e+06 4.0456e+06 4.03578e+06 4.04161e+06 4.03178e+06 4.03766e+06 4.02782e+06 4.03379e+06 4.02391e+06 4.03016e+06 4.02006e+06
          4.02844e+06 4.01549e+06 4.12381e+06 4.14779e+06 4.18782e+06 4.21452e+06 4.23217e+06 4.24351e+06 4.25024e+06 4.25356e+06 4.25434e+06 4.25323e+06
          4.25071e+06 4.24714e+06 4.24281e+06 4.23791e+06 4.23261e+06 4.22702e+06 4.22123e+06 4.21531e+06 4.20931e+06 4.20328e+06 4.19724e+06 4.19123e+06
          4.18525e+06 4.17932e+06 4.17345e+06 4.16765e+06 4.16193e+06 4.15628e+06 4.15071e+06 4.14523e+06 4.13983e+06 4.1345e+06 4.12926e+06 4.1241e+06
          4.11902e+06 4.11402e+06 4.10909e+06 4.10423e+06 4.09944e+06 4.09471e+06 4.09006e+06 4.08546e+06 4.08092e+06 4.07644e+06 4.07201e+06 4.06763e+06
          4.0633e+06 4.05901e+06 4.05476e+06 4.05055e+06 4.04638e+06 4.04224e+06 4.03813e+06 4.03404e+06 4.02999e+06 4.02595e+06 4.02194e+06 4.01795e+06
          4.01396e+06 4.00989e+06 4.00568e+06 3.96667e+06 4.13903e+06 4.19232e+06 4.2199e+06 4.23562e+06 4.24446e+06 4.24884e+06 4.25019e+06 4.2494e+06
          4.24707e+06 4.24362e+06 4.23936e+06 4.23449e+06 4.2292e+06 4.2236e+06 4.21778e+06 4.21182e+06 4.20578e+06 4.19969e+06 4.19358e+06 4.18749e+06
          4.18144e+06 4.17543e+06 4.16948e+06 4.1636e+06 4.15779e+06 4.15206e+06 4.14641e+06 4.14084e+06 4.13535e+06 4.12995e+06 4.12463e+06 4.11939e+06
          4.11424e+06 4.10916e+06 4.10416e+06 4.09923e+06 4.09437e+06 4.08958e+06 4.08486e+06 4.08021e+06 4.07562e+06 4.07108e+06 4.0666e+06 4.06217e+06
          4.05779e+06 4.05346e+06 4.04918e+06 4.04493e+06 4.04072e+06 4.03655e+06 4.03241e+06 4.0283e+06 4.02422e+06 4.02016e+06 4.01611e+06 4.01209e+06
          4.00807e+06 4.00404e+06 3.99998e+06 3.99587e+06 4.16076e+06 4.18252e+06 4.2167e+06 4.2357e+06 4.2454e+06 4.24956e+06 4.25029e+06 4.24883e+06
          4.2459e+06 4.24196e+06 4.2373e+06 4.23213e+06 4.22659e+06 4.22078e+06 4.2148e+06 4.2087e+06 4.20252e+06 4.19631e+06 4.1901e+06 4.1839e+06
          4.17775e+06 4.17164e+06 4.1656e+06 4.15962e+06 4.15372e+06 4.1479e+06 4.14216e+06 4.13651e+06 4.13094e+06 4.12545e+06 4.12005e+06 4.11473e+06
          4.1095e+06 4.10434e+06 4.09927e+06 4.09427e+06 4.08935e+06 4.0845e+06 4.07971e+06 4.075e+06 4.07035e+06 4.06576e+06 4.06122e+06 4.05675e+06
          4.05232e+06 4.04795e+06 4.04362e+06 4.03934e+06 4.03509e+06 4.03089e+06 4.02672e+06 4.02258e+06 4.01847e+06 4.01438e+06 4.01032e+06 4.00627e+06
          4.00224e+06 3.99821e+06 3.99417e+06 3.99012e+06 3.98606e+06 4.24477e+06 4.24852e+06 4.25567e+06 4.26002e+06 4.26027e+06 4.2578e+06 4.25376e+06
          4.24882e+06 4.24334e+06 4.23752e+06 4.23146e+06 4.22525e+06 4.21893e+06 4.21254e+06 4.20612e+06 4.19969e+06 4.19327e+06 4.18687e+06 4.18052e+06
          4.17422e+06 4.16799e+06 4.16183e+06 4.15574e+06 4.14973e+06 4.14381e+06 4.13798e+06 4.13223e+06 4.12657e+06 4.121e+06 4.11552e+06 4.11012e+06
          4.10481e+06 4.09958e+06 4.09443e+06 4.08936e+06 4.08436e+06 4.07945e+06 4.0746e+06 4.06982e+06 4.06511e+06 4.06047e+06 4.05588e+06 4.05135e+06
          4.04688e+06 4.04246e+06 4.03809e+06 4.03377e+06 4.02949e+06 4.02525e+06 4.02104e+06 4.01687e+06 4.01274e+06 4.00863e+06 4.00454e+06 4.00048e+06
          3.99643e+06 3.99239e+06 3.98836e+06 3.98433e+06 3.98029e+06 3.97625e+06 4.3169e+06 4.3106e+06 4.29975e+06 4.2885e+06 4.27759e+06 4.26739e+06
          4.25798e+06 4.24925e+06 4.24105e+06 4.23325e+06 4.22574e+06 4.21845e+06 4.21133e+06 4.20434e+06 4.19746e+06 4.19068e+06 4.184e+06 4.17741e+06
          4.17092e+06 4.16451e+06 4.1582e+06 4.15197e+06 4.14584e+06 4.13981e+06 4.13387e+06 4.12802e+06 4.12227e+06 4.1166e+06 4.11103e+06 4.10555e+06
          4.10016e+06 4.09485e+06 4.08963e+06 4.08448e+06 4.07942e+06 4.07444e+06 4.06953e+06 4.06469e+06 4.05992e+06 4.05521e+06 4.05057e+06 4.04599e+06
          4.04147e+06 4.03701e+06 4.03259e+06 4.02822e+06 4.02391e+06 4.01963e+06 4.01539e+06 4.01119e+06 4.00703e+06 4.00289e+06 3.99878e+06 3.9947e+06