<?xml version="1.0"?>
<VTKFile type="UnstructuredGrid" version="0.1" byte_order="LittleEndian">
  <UnstructuredGrid>
    <Piece NumberOfCells="1928" NumberOfPoints="5784">
      <PointData Scalars="p">
        <DataArray type="Float32" Name="p" NumberOfComponents="1" format="ascii">
          110000 109396 108869 110000 110000 109396 108869 109396 108751 107902 108869 108165
          108869 108751 108165 110000 109274 109396 108751 109396 109274 108751 108000 108165
          108751 109274 108546 108751 108546 108000 107902 108165 107459 107099 107902 107459
          107099 107459 106777 106457 107099 106777 106255 106457 106777 106204 106255 106777
          107422 108165 108000 107422 107459 108165 107422 108000 107225 107422 106777 107459
          106638 106777 107422 106638 106204 106777 106638 107422 107225 106638 105719 106204
          110000 110000 109274 110000 108912 109274 110000 109368 108912 108912 108546 109274
          108912 108078 108546 110000 110000 109368 110000 109463 109368 110000 110000 109463
          108912 109368 108576 108753 108576 109368 108912 108576 108078 108078 108576 108077
          108753 109368 109463 108753 108077 108576 108753 108235 108077 107873 108000 108546
          107873 107225 108000 107873 107480 107225 107873 108546 108078 107873 108078 107480
          106829 107225 107480 106638 107225 106167 106638 106167 105719 106829 106167 107225
          108078 107463 107480 108078 108077 107463 106829 107480 107463 107483 107463 108077
          107483 106839 107463 106829 107463 106839 106829 106839 106080 106829 106080 106167
          106443 106080 106839 105968 106457 106255 105968 106255 105893 106204 105893 106255
          105608 105968 105893 105608 105893 105569 105608 105569 105408 105338 105608 105408
          105306 105408 105569 105338 105408 105180 105126 105338 105180 105126 105180 105037
          105306 105180 105408 105306 105134 105180 105005 105037 105180 105005 105180 105134
          105716 105893 106204 105716 105569 105893 105716 105414 105569 105716 105357 105414
          105716 106204 105719 105716 105719 105357 105306 105569 105414 105188 105306 105414
          105188 105134 105306 105005 105134 105026 105188 105026 105134 105188 105414 105357
          105188 105357 105034 105188 105007 105026 105188 105034 105007 104943 105126 105037
          104758 104943 104906 104758 104676 104758 104547 104676 104638 104943 105037 104906
          104758 104906 104758 104758 104906 104860 105005 104906 105037 105005 104860 104906
          104758 104638 104676 104758 104860 104758 104758 104758 104638 104758 104860 104883
          104758 104664 104638 104371 104547 104503 104141 104371 104233 104547 104638 104503
          104552 104503 104638 104371 104503 104403 104552 104638 104664 104552 104403 104503
          104452 104403 104552 104371 104403 104233 104141 104233 104000 104403 104278 104233
          104452 104278 104403 104110 104233 104278 105005 105026 104883 105005 104883 104860
          104923 104883 105026 104923 104834 104883 104758 104883 104758 104758 104883 104834
          104758 104758 104664 104758 104614 104664 104758 104834 104757 104758 104757 104614
          104923 105026 105007 104923 105007 104902 104923 104902 104825 104923 104902 105007
          104923 104832 104902 104923 104825 104834 104757 104834 104825 104757 104825 104757
          104757 104757 104624 104832 104825 104902 104757 104825 104832 104757 104832 104757
          104552 104664 104614 104452 104552 104614 104452 104614 104505 104624 104505 104614
          104757 104624 104614 104452 104332 104278 104110 104278 104092 104092 104278 104332
          104452 104505 104332 104500 104332 104505 104172 104092 104332 104757 104642 104624
          104500 104505 104624 104500 104624 104642 104757 104757 104642 104757 104600 104642
          104500 104642 104600 104500 104399 104332 104172 104332 104399 104500 104600 104399
          104600 104528 104399 104172 104399 104237 104414 104237 104399 104859 105719 106167
          105357 105719 105116 104859 105116 105719 104859 106167 106080 105034 105357 105116
          104825 105034 105116 104923 105007 105034 104923 105034 104867 104859 104825 105116
          104825 104867 105034 104805 104867 104825 104859 106080 105426 104859 105426 104825
          105426 106080 105928 105426 105928 105567 105426 105567 105236 104825 105426 105236
          104805 104825 105028 104825 105236 105028 105231 105028 105236 104923 104852 104832
          104923 104867 104852 104822 104852 104867 104832 104852 104800 104757 104832 104800
          104757 104800 104758 104822 104800 104852 104758 104800 104786 104822 104786 104800
          104822 104867 104806 104805 104806 104867 104822 104806 104786 104822 104786 104786
          104781 104786 104806 104757 104758 104600 104758 104650 104600 104600 104650 104528
          104758 104758 104650 104758 104786 104758 104758 104676 104650 104551 104650 104676
          104414 104399 104528 104414 104528 104551 104551 104528 104650 104414 104551 104442
          104226 104414 104442 104758 104786 104786 104758 104786 104759 104758 104759 104676
          104759 104688 104676 104759 104786 104781 104759 104781 104760 104759 104760 104688
          104572 104551 104676 104572 104442 104551 104572 104676 104688 104572 104366 104442
          104572 104688 104671 104760 104671 104688 104572 104534 104366 104572 104671 104534
          104787 104806 104805 104787 104781 104806 104787 104773 104781 104786 104805 104899
          104805 105028 104899 105012 104899 105028 104786 104899 104854 105012 104970 104899
          104854 104899 104970 104884 104854 104970 104760 104781 104773 104760 104760 104671
          104760 104773 104761 104773 104773 104787 104761 104773 104773 104761 104761 104773
          104760 104700 104671 104612 104534 104671 104612 104671 104700 104768 104700 104760
          104612 104700 104616 104735 104616 104700 104773 104786 104854 104773 104854 104816
          104757 104773 104816 104884 104816 104854 104884 104835 104816 104782 104816 104835
          104768 104735 104700 104757 104816 104782 104781 104736 104764 104702 104736 104756
          104782 104835 104800 104781 104756 104736 104781 104801 104756 110000 109185 109463
          110000 110000 109185 110000 109353 109185 108753 109463 109185 108753 109185 108235
          108391 109185 109353 108391 108235 109185 110000 110000 109353 110000 108884 109353
          110000 109274 108884 110000 110000 109274 108391 109353 108884 108391 108884 108273
          108391 108273 107727 108884 108703 108189 108884 109274 108703 108884 108189 108273
          107727 108273 108189 108189 108703 108078 107483 108077 108235 107483 108235 107535
          107483 106943 106839 108391 107535 108235 107483 107535 106943 106884 106943 107535
          106443 106839 106943 106443 105928 106080 106443 106943 106477 106884 106477 106943
          106443 106477 106155 106089 106155 106477 108391 107727 107535 107727 107194 107535
          106884 107535 107194 106884 107194 106690 107727 108189 107352 107727 107352 107194
          107579 107352 108189 106915 106690 107194 106915 107194 107352 106884 106314 106477
          106089 106477 106314 106884 106690 106314 106915 106396 106690 106396 106314 106690
          106089 106314 105866 105679 105866 106314 110000 109260 109274 108622 109274 109260
          110000 110000 109260 110000 108969 109260 108969 108358 109260 110000 110000 108969
          108622 108703 109274 108622 108078 108703 108622 109260 108358 108622 108358 108078
          107579 108189 108078 107719 108078 108358 107579 108078 107719 107579 107719 107254
          107905 108358 108969 107905 108969 108275 107905 107719 108358 107905 107233 107719
          107719 107233 107254 110000 109006 108969 110000 110000 109006 108969 109006 108275
          110000 108855 109006 107872 108275 109006 107872 109006 108855 110000 110000 108855
          106065 106056 110000 110000 107512 108855 107872 108855 107512 107872 107512 106803
          106056 107512 110000 106038 106803 107512 106056 106038 107512 107905 108275 107388
          107905 107388 107233 107872 107388 108275 107872 107014 107388 106799 107388 107014
          106821 107233 106745 106799 107233 107388 106799 106745 107233 106799 106363 106745
          107872 106803 107014 106799 107014 106419 107014 106803 106419 106038 106014 106803
          106014 106419 106803 106014 105987 106419 106306 106799 106419 106799 106306 106363
          105957 106363 106306 105987 106306 106419 105987 105957 106306 105987 106340 105957
          105957 105924 106363 107579 106983 107352 107579 107254 106983 106915 107352 106774
          106983 106774 107352 106915 106774 106396 106453 106774 106983 106821 106983 107254
          106821 107254 107233 106821 106557 106983 106453 106983 106557 106453 106557 106221
          106453 106396 106774 106396 106159 106027 105679 106314 106396 105679 106396 106027
          106027 105870 105679 106453 106159 106396 106453 106221 106159 105991 106159 106221
          106027 106159 105870 105870 105674 105679 105991 105870 106159 106821 106745 106450
          106821 106456 106557 106821 106450 106456 106450 106745 106363 106450 106157 106456
          106450 106144 106157 106251 106557 106456 106251 106221 106557 106251 106007 106221
          106251 106456 106157 106251 106157 106024 106251 106024 106007 106450 106363 106144
          105924 106144 106363 105891 106157 106144 105924 105891 106144 105957 106272 105924
          105924 106272 106095 105924 106095 105891 105891 106095 106069 105855 106024 106157
          105891 105855 106157 105855 105819 106024 105891 106069 105855 105855 105941 105819
          105855 106069 105941 105991 106221 106007 105819 106007 106024 105991 106007 105855
          105782 105855 106007 105991 105816 105870 105991 105855 105816 105671 105870 105816
          105671 105816 105725 105816 105855 105769 105744 105769 105855 105816 105769 105725
          105707 105725 105769 105819 105782 106007 105819 105863 105782 105782 105744 105855
          105782 105832 105744 105819 105941 105863 105933 105863 105941 105782 105863 105832
          105933 105832 105863 105744 105832 105749 105744 105707 105769 105744 105749 105707
          105707 105749 105710 105769 105749 105832 105769 105710 105749 105769 105712 105710
          106443 106155 105928 105780 105567 105928 105780 105440 105567 105780 105928 106155
          106155 106089 105780 105440 105236 105567 105231 105236 105440 105231 105136 105028
          105231 105440 105269 105231 105269 105136 105780 105581 105440 105358 105440 105581
          105358 105269 105440 105181 105269 105358 105780 106089 105728 106089 105866 105728
          105780 105728 105581 105694 105866 105700 105679 105700 105866 105694 105728 105866
          105694 105590 105728 105694 105611 105590 105520 105581 105728 105520 105358 105581
          105520 105392 105358 105292 105225 105358 105292 105358 105392 105520 105728 105590
          105520 105590 105475 105515 105475 105590 105515 105440 105475 105520 105475 105392
          105380 105392 105475 105380 105295 105392 105380 105475 105440 105012 105028 105136
          105181 105136 105269 105012 105136 105077 105181 105077 105136 105012 105077 104970
          104884 104970 104945 105012 104970 105077 105012 104945 104970 105181 105146 105077
          105181 105358 105225 105181 105225 105146 105012 105077 105069 105012 105002 104945
          105012 105069 105002 105146 105069 105077 105054 105002 105069 104884 104945 104888
          104884 104888 104835 104888 104843 104835 104938 104888 104945 104800 104835 104843
          104800 104843 104820 104801 104758 104756 104801 104820 104758 104888 104880 104843
          104820 104843 104880 104820 104838 104791 104938 104945 105002 104938 104880 104888
          105054 104990 105002 104938 105002 104990 104938 104990 104926 104938 104926 104880
          104820 104880 104838 104838 104880 104882 104926 104882 104880 104838 104882 104857
          104926 104910 104882 104857 104882 104910 105292 105218 105225 105146 105225 105218
          105292 105392 105295 105292 105295 105218 105146 105136 105069 105136 105146 105218
          105069 105136 105054 105136 105066 105054 105136 105218 105215 105136 105137 105066
          105215 105218 105295 105380 105339 105295 105295 105339 105280 105215 105295 105280
          105136 105215 105137 105215 105280 105250 105215 105193 105137 105124 105137 105193
          105054 105066 104990 105066 105010 104990 105010 104957 104990 105010 105066 105058
          105010 105058 105000 104926 104990 104957 104926 104957 104910 104857 104910 104876
          104958 104910 104957 104876 104910 104917 105010 105000 104957 104958 104957 105000
          104958 104917 104910 104958 104947 104917 105058 105066 105137 105006 105058 105075
          105124 105058 105137 105124 105075 105058 105006 105000 105058 105006 104958 105000
          105006 104947 104958 105006 105075 105053 105006 104992 104947 105006 105053 104992
          105679 105654 105700 105679 105674 105654 105694 105700 105611 105611 105700 105654
          105584 105611 105654 105584 105537 105611 105674 105629 105654 105671 105674 105870
          105669 105642 105674 105674 105642 105629 105584 105654 105629 105584 105629 105605
          105605 105629 105642 105584 105605 105558 105515 105590 105611 105515 105470 105440
          105515 105611 105537 105515 105537 105470 105393 105440 105470 105380 105440 105393
          105380 105393 105339 105426 105393 105470 105584 105507 105537 105507 105470 105537
          105584 105558 105507 105507 105558 105511 105507 105511 105461 105426 105470 105507
          105426 105364 105393 105426 105369 105364 105426 105507 105461 105426 105461 105415
          105426 105415 105369 105605 105642 105635 105669 105635 105642 105661 105671 105725
          105661 105725 105707 105675 105635 105669 105675 105621 105635 105577 105605 105635
          105577 105558 105605 105621 105577 105635 105577 105531 105558 105577 105567 105531
          105660 105707 105710 105660 105710 105673 105675 105622 105621 105675 105670 105622
          105673 105710 105712 105675 105673 105712 105670 105625 105622 105675 105625 105670
          105621 105567 105577 105621 105622 105567 105582 105567 105622 105582 105622 105625
          105582 105541 105567 105519 105567 105541 105582 105572 105541 105531 105511 105558
          105485 105461 105511 105531 105485 105511 105531 105487 105485 105485 105487 105443
          105440 105415 105461 105485 105440 105461 105394 105369 105415 105440 105394 105415
          105485 105443 105440 105440 105443 105387 105440 105387 105394 105394 105387 105352
          105531 105567 105519 105531 105519 105487 105457 105487 105519 105457 105443 105487
          105457 105519 105496 105519 105541 105496 105457 105496 105451 105457 105451 105401
          105457 105406 105443 105387 105443 105406 105457 105401 105406 105341 105387 105406
          105341 105337 105387 105341 105406 105401 105314 105280 105339 105314 105339 105393
          105314 105250 105280 105314 105393 105364 105314 105261 105250 105314 105318 105261
          105215 105250 105193 105261 105193 105250 105219 105165 105193 105219 105193 105261
          105314 105364 105318 105318 105364 105369 105318 105369 105323 105318 105323 105275
          105219 105261 105275 105318 105275 105261 105219 105235 105197 105303 105275 105323
          105219 105275 105235 105258 105235 105275 105124 105193 105165 105124 105165 105107
          105124 105107 105075 105107 105053 105075 105146 105107 105165 105146 105102 105107
          105062 105053 105107 105062 104992 105053 105062 105032 104992 105062 105107 105102
          105062 105102 105089 105062 105089 105032 105029 105032 105089 105219 105197 105165
          105146 105165 105197 105146 105197 105172 105146 105172 105134 105213 105172 105197
          105213 105197 105235 105168 105134 105172 105213 105168 105172 105146 105134 105102
          105089 105102 105134 105029 105089 105066 105123 105089 105134 105168 105123 105134
          105123 105066 105089 105123 105079 105066 105394 105349 105369 105349 105323 105369
          105349 105303 105323 105349 105319 105303 105394 105352 105349 105349 105352 105319
          105303 105319 105273 105303 105258 105275 105258 105213 105235 105303 105243 105258
          105258 105243 105215 105303 105273 105243 105216 105243 105273 105185 105215 105243
          105216 105185 105243 105387 105337 105352 105305 105352 105337 105305 105319 105352
          105305 105273 105319 105305 105247 105273 105341 105302 105337 105305 105337 105302
          105305 105302 105247 105257 105247 105302 105216 105273 105247 105216 105152 105185
          105216 105247 105190 105179 105190 105247 105216 105190 105152 105143 105152 105190
          105258 105215 105213 105213 105215 105160 105213 105160 105168 105168 105160 105120
          105185 105160 105215 105185 105132 105160 105088 105160 105132 105168 105120 105123
          105123 105067 105079 105123 105120 105067 105088 105120 105160 105088 105067 105120
          105088 105049 105067 105185 105152 105132 105105 105132 105152 105105 105075 105132
          105105 105152 105100 105143 105100 105152 105105 105059 105075 105105 105100 105059
          105088 105132 105075 105088 105075 105041 105088 105041 105049 105009 105049 105041
          105025 105041 105075 105025 105075 105059 105025 104994 105041 105009 105041 104994
          103839 104141 104000 103839 104000 103853 104110 104000 104233 104110 103853 104000
          103839 103853 103536 103444 103839 103536 103444 103536 103154 102913 103444 103154
          102913 103154 102594 104110 104092 103853 103853 104092 103908 104172 103908 104092
          103592 103853 103908 103592 103536 103853 104172 104030 103908 104172 104237 104030
          104030 103726 103908 103592 103908 103726 103902 103726 104030 103592 103154 103536
          103592 103314 103154 102720 102594 103154 102720 103154 103314 103592 103726 103314
          103314 103726 103636 102720 103314 102908 102197 102913 102594 102197 102594 101962
          101228 102197 101962 101228 101962 100926 100000 101228 100926 102720 101962 102594
          102720 102162 101962 101566 101962 102162 102720 102908 102162 101566 100926 101962
          101566 101279 100926 101566 102162 101279 100926 101279 100000 104237 104414 104226
          104226 104030 104237 103902 104030 104226 104226 104442 104366 103902 103636 103726
          103902 104226 104220 104226 104366 104220 104410 104366 104534 104410 104220 104366
          104410 104495 104220 103902 104220 103808 104126 103808 104220 103437 103314 103636
          103902 103808 103636 103437 103636 103808 103437 102908 103314 103437 103322 102908
          103437 103808 103881 104126 103881 103808 103437 103881 103322 104612 104495 104534
          104495 104410 104534 104413 104220 104495 104612 104616 104495 104413 104495 104616
          104413 104616 104567 104126 104220 104413 104126 104413 104360 104413 104567 104360
          104702 104616 104735 104702 104567 104616 104661 104567 104702 104702 104756 104758
          104702 104758 104711 104661 104702 104711 104661 104360 104567 104612 104360 104661
          104126 104360 103881 104360 104242 103881 103853 103322 103881 103853 103881 104242
          104612 104242 104360 104554 104242 104612 104554 103853 104242 102545 102162 102908
          101279 102162 102545 102545 102908 103322 102545 103322 103450 102545 101930 101279
          100000 101279 101930 103853 103450 103322 102545 103450 101930 104554 103450 103853
          104493 103450 104554 104493 103238 103450 101930 103450 103238 100000 101930 103238
          100000 100926 100000 100000 100000 101279 100000 100000 101930 104746 104711 104758
          104820 104791 104758 104746 104758 104791 104746 104791 104800 104661 104711 104686
          104746 104686 104711 104612 104661 104686 104746 104743 104686 104706 104614 104686
          104838 104800 104791 104838 104857 104800 104746 104800 104743 104779 104743 104800
          104857 104828 104800 104779 104800 104828 104706 104686 104743 104706 104743 104779
          104706 104779 104760 104612 104686 104614 104554 104612 104614 104554 104614 104547
          104706 104612 104614 104706 104696 104612 104612 104547 104614 104455 104547 104612
          104455 104612 104557 104857 104876 104828 104779 104828 104827 104876 104827 104828
          104876 104917 104895 104895 104917 104947 104876 104895 104827 104895 104852 104827
          104779 104827 104760 104706 104760 104696 104789 104696 104760 104789 104760 104827
          104789 104827 104852 104895 104947 104914 104895 104914 104852 104914 104888 104852
          104914 104947 104992 104914 104992 104933 104914 104933 104888 104789 104852 104842
          104842 104852 104888 104789 104842 104761 104933 104900 104888 104842 104888 104900
          104841 104842 104900 104612 104696 104557 104789 104761 104696 104663 104557 104696
          104663 104696 104761 104663 104541 104557 104541 104384 104557 104663 104761 104741
          104841 104761 104842 104841 104741 104761 104663 104741 104541 104677 104541 104741
          104677 104524 104541 104493 104554 104547 104493 104547 104455 104493 104455 104108
          104399 104493 104108 104399 103238 104493 104399 100000 103238 104455 104557 104384
          104455 104384 104108 104282 104384 104541 104384 104282 104108 104108 104282 103840
          103065 104108 103840 104282 104541 104524 104677 104589 104524 104282 104524 104589
          104282 104589 104259 104282 104259 103840 104259 103679 103840 104399 104108 103065
          104399 101472 100000 103065 101472 104399 103065 103840 103679 103065 103679 102104
          103065 102104 101472 104933 104992 104987 104992 105032 104987 104933 104987 104952
          105029 104987 105032 105029 104991 104987 104952 104987 104991 104952 104991 104972
          104933 104952 104900 104952 104936 104900 104841 104900 104911 104952 104970 104936
          104911 104900 104936 104911 104936 104958 105029 105015 104991 105029 105066 105015
          104972 104991 105015 105079 105015 105066 105079 105035 105015 105079 105041 105035
          105035 104985 105015 104983 105035 105010 104970 104958 104936 105015 104985 104972
          104996 104958 104970 104911 104958 104937 104996 104973 104958 104973 104937 104958
          104980 104974 104994 104974 104980 104898 104841 104806 104741 104841 104894 104806
          104841 104911 104894 104911 104937 104894 104806 104894 104876 104677 104741 104806
          104677 104806 104801 104806 104876 104801 104931 104801 104876 104960 104894 104937
          104973 104960 104937 104945 104876 104894 104960 104945 104894 104974 104898 104959
          104959 104898 104837 104959 104837 104945 104945 104931 104876 104945 104803 104931
          104931 104917 104801 104931 104647 104917 104945 104837 104803 104623 104803 104837
          104931 104803 104647 104623 104647 104803 105079 105067 105041 105014 105041 105067
          105035 105041 105010 105014 105010 105041 105014 104992 105010 105014 105067 105026
          105067 105049 105026 105014 105026 104994 105014 104994 104984 104983 105010 104982
          104982 105010 104992 104980 104973 104898 105014 104984 104992 104982 104992 104972
          104972 104992 104984 104973 104964 104837 105009 105026 105049 105009 104994 105026
          104965 104984 104994 105009 104994 104959 105009 104959 104994 104950 104959 104994
          104965 104994 104959 104965 104959 104941 104972 104984 104968 104965 104968 104984
          104972 104968 104964 104964 104968 104951 104965 104951 104968 104965 104941 104951
          104964 104951 104956 104956 104951 104921 104770 104898 104837 104770 104837 104898
          104770 104623 104837 104973 104837 104898 104770 104837 104624 104623 104364 104647
          104770 104624 104623 104349 104623 104624 104349 104364 104623 104349 104013 104364
          104964 104846 104837 104695 104837 104846 104695 104624 104837 104695 104458 104624
          104964 104956 104846 104956 104700 104846 104695 104846 104700 104695 104700 104458
          104349 104624 104458 104349 104092 104013 104349 104458 104092 104324 104458 104700
          104324 104092 104458 104677 104801 104589 104259 104589 104657 104589 104801 104776
          104917 104776 104801 104589 104776 104657 104905 104657 104776 104259 104657 104494
          104259 104494 103679 104895 104494 104657 104905 104895 104657 104884 103679 104494
          104884 104494 104895 104917 104905 104776 104917 104580 104905 104905 104580 104295
          104917 104647 104580 104136 104580 104647 104136 104295 104580 104905 104295 104895
          104895 104295 104314 104884 104895 104314 103491 104884 104314 104295 103472 104314
          104295 103650 103472 104884 103491 103679 102104 103679 103491 100000 101472 102104
          103472 103491 104314 101818 103491 103472 101818 102104 103491 100000 102104 101818
          104136 104647 104364 104136 104364 104013 104136 104013 103449 104136 103650 104295
          102872 103472 103650 104136 103449 103650 102872 103650 103449 103652 104013 104092
          103652 103449 104013 103652 104092 103671 102872 103449 102714 102871 103449 103652
          102871 102714 103449 102872 101818 103472 102872 101635 101818 100000 101818 101635
          102872 102714 101635 102871 101635 102714 100000 100000 104399 100000 100000 101472
          100000 100000 101818 106065 110000 107666 106065 107666 106056 106056 107666 106854
          106056 106854 106038 106038 106854 106766 110000 108892 107666 107747 107666 108892
          107747 106854 107666 107747 106766 106854 110000 110000 108892 107747 108892 108833
          110000 108833 108892 107747 108833 108117 110000 109324 108833 108674 108117 108833
          108674 108833 109324 106038 106766 106014 106014 106651 105987 106014 106766 106651
          107398 106766 107747 107398 106651 106766 105987 106651 106340 105957 106340 106272
          106710 106272 106340 106710 106340 106651 106710 106651 107262 107398 107747 108117
          107398 108117 107920 107398 107262 106651 107398 107920 107262 108674 107920 108117
          107741 107262 107920 106710 107262 106947 107741 107361 107262 106947 107262 107361
          110000 110000 109324 110000 109123 109324 108674 109324 109123 108674 109123 108419
          110000 109416 109123 108807 109123 109416 110000 110000 109416 108807 109416 109258
          110000 109258 109416 108674 108419 107920 107741 107920 108419 107741 108419 108286
          108807 108419 109123 108807 108286 108419 107741 107783 107361 107741 108286 107783
          107187 107361 107783 108807 108605 108286 107783 108286 108605 108807 109258 108605
          108044 107435 107783 108044 107783 108605 106322 106069 106095 106322 106095 106272
          106710 106575 106272 106322 106272 106575 106592 106322 106575 106592 106312 106322
          106092 105941 106069 106092 106069 106312 106322 106312 106069 106092 106312 106196
          106710 106947 106575 106592 106575 106947 107187 106856 106947 106592 106947 106856
          106592 106856 106555 106592 106555 106312 106372 106312 106555 106372 106196 106312
          106777 106555 106856 106777 106520 106555 106372 106555 106520 106372 106520 106340
          106533 106340 106520 106092 105933 105941 106092 106057 105933 105933 105935 105832
          105933 106057 105935 106092 106196 106057 106143 106057 106196 105977 105935 106057
          106143 105977 106057 105856 105832 105935 105856 105769 105832 105856 105758 105769
          105856 105935 105977 105856 105977 105842 105856 105842 105758 106372 106340 106196
          106143 106196 106340 106143 106063 105977 106143 106340 106229 106143 106229 106063
          105977 106063 105943 105842 105977 105943 105842 105943 105826 105996 105943 106063
          105996 106063 106229 105996 105826 105943 105996 105866 105826 107187 106947 107361
          107187 106777 106856 107061 106777 107187 107187 107783 107435 107187 107435 107061
          106533 106520 106777 106533 106777 106823 106777 107061 106823 106533 106823 106598
          107105 107061 107435 108044 107507 107435 107105 107435 107507 107105 106823 107061
          107105 106859 106823 106598 106823 106859 107105 107083 106859 107105 107507 107083
          106678 106859 107083 106533 106229 106340 106533 106406 106229 106533 106598 106406
          106263 106229 106406 106263 106406 106598 105996 106229 106071 106263 106071 106229
          105996 106071 105866 106263 106001 106071 106001 105866 106071 106263 106598 106364
          106678 106598 106859 106678 106364 106598 106678 106413 106364 106263 106364 106140
          106263 106140 106001 106001 106140 105900 106119 106364 106413 106119 106140 106364
          106119 105900 106140 110000 110000 109258 110000 109024 109258 110000 109416 109024
          110000 110000 109416 109024 108605 109258 109024 108446 108605 108044 108605 108446
          108044 108446 107928 109024 108810 108446 109024 109416 108810 108175 108446 108810
          108175 107928 108446 110000 109053 109416 110000 109418 109053 110000 109418 110000
          109053 108810 109416 108810 109053 108323 108175 108810 108323 108805 109053 109418
          108805 108323 109053 108044 107928 107507 107414 107507 107928 107414 107083 107507
          106678 107083 106967 107414 106967 107083 108175 107768 107928 107414 107928 107768
          108175 107784 107768 107248 107768 107784 107414 107768 107248 107414 107248 106967
          106678 106967 106664 106678 106664 106413 106712 106664 106967 106451 106413 106664