<?xml version="1.0"?>
<VTKFile type="UnstructuredGrid" version="0.1" byte_order="LittleEndian">
  <UnstructuredGrid>
    <Piece NumberOfCells="1000" NumberOfPoints="1331">
      <CellData Scalars="wetting pressure">
        <DataArray type="Float32" Name="wetting pressure" NumberOfComponents="1" format="ascii">
          265545 270750 272319 271364 268372 263502 256698 247722 236069 220666 265552 270771
          272361 271436 268482 263654 256869 247878 236176 220703 265561 270803 272426 271550
          268664 263930 257195 248187 236385 220775 265568 270828 272479 271648 268805 264245
          257616 248626 236673 220868 265568 270828 272486 271667 268814 264215 257898 249129
          236923 220934 265557 270794 272426 271580 268728 264176 257558 248574 236637 220855
          265538 270734 272316 271408 268504 263767 257046 248064 236303 220746 265516 270665
          272190 271212 268221 263380 256611 247666 236035 220654 265497 270607 272085 271051
          267998 263100 256312 247400 235856 220591 265487 270574 272027 270963 267879 262956
          256162 247269 235767 220560 261995 264556 264993 263524 260333 255477 248892 240436
          229905 217126 262002 264582 265045 263615 260479 255678 249112 240631 230036 217171
          262014 264621 265128 263768 260740 256085 249565 241042 230310 217263 262023 264654
          265201 263911 260955 256668 250266 241716 230754 217397 262023 264658 265220 263980
          261195 256743 250566 242593 231434 217529 262011 264619 265146 263841 260873 256571
          250236 241675 230721 217385 261990 264549 265014 263623 260580 255922 249423 240922
          230228 217234 261965 264470 264866 263380 260206 255393 248846 240411 229890 217120
          261944 264404 264745 263189 259933 255047 248480 240093 229677 217046 261932 264367
          264678 263087 259792 254876 248303 239940 229575 217011 260243 260461 259523 257314
          253814 248981 242738 235029 225857 215391 260253 260495 259593 257441 254024 249265
          243036 235284 226024 215447 260268 260547 259707 257665 254445 249890 243693 235843
          226382 215565 260280 260593 259814 257894 254870 250828 244860 236837 226992 215744
          260282 260602 259851 258024 255350 251140 245396 238157 227975 215930 260267 260556
          259757 257825 254812 250791 244882 236817 226965 215733 260241 260470 259585 257513
          254290 249742 243570 235731 226301 215536 260211 260373 259397 257184 253730 248961
          242755 235050 225867 215392 260186 260293 259247 256939 253366 248499 242278 234648
          225605 215303 260172 260249 259165 256812 253187 248283 242057 234461 225482 215260
          259126 257490 255257 252266 248420 243612 237752 230832 222938 214293 259138 257532
          255346 252434 248701 243982 238126 231142 223135 214359 259157 257600 255497 252738
          249297 244828 238963 231822 223558 214496 259174 257660 255640 253055 249949 246081
          240476 233023 224263 214702 259177 257675 255691 253222 250513 246474 241138 234512
          225322 214907 259160 257619 255577 252980 249884 246024 240733 233057 224247 214693
          259128 257514 255362 252571 249133 244680 238888 231725 223478 214466 259092 257396
          255127 252146 248374 243648 237827 230890 222965 214299 259062 257298 254942 251839
          247908 243063 237232 230402 222655 214194 259045 257245 254842 251682 247685 242794
          236960 230177 222509 214144 258261 255073 251658 247908 243710 238925 233452 227301
          220573 213447 258276 255125 251767 248111 244048 239363 233884 227650 220792 213520
          258300 255207 251949 248480 244771 240360 234836 228404 221250 213668 258320 255280
          252123 248862 245565 241798 236510 229690 221980 213881 258323 255299 252183 249047
          246141 242198 237240 231228 222977 214080 258304 255234 252052 248778 245489 241709
          236982 229766 221970 213872 258267 255111 251798 248293 244587 240197 234789 228310
          221165 213635 258224 254970 251518 247785 243677 238986 233553 227370 220601 213453
          258188 254855 251297 247418 243122 238296 232860 226814 220252 213336 258168 254791
          251179 247230 242857 237979 232543 226555 220086 213279 257469 252832 248286 243795
          239250 234490 229401 224000 218386 212675 257487 252893 248413 244029 239634 234979
          229876 224380 218621 212754 257515 252990 248624 244448 240437 236068 230898 225178
          219099 212907 257538 253074 248822 244874 241297 237577 232615 226478 219817 213118
          257543 253096 248889 245070 241877 237987 233356 228000 220696 213297 257520 253023
          248743 244780 241214 237498 232892 226508 219795 213105 257477 252881 248454 244237
          240229 235876 230786 225047 218996 212869 257428 252718 248130 243658 239211 234545
          229485 224054 218403 212677 257386 252583 247874 243233 238576 233768 228721 223444
          218022 212549 257363 252509 247736 243015 238269 233405 228364 223154 217838 212486
          256613 250441 244732 239503 234624 229894 225185 220535 216061 211843 256634 250512
          244881 239773 235062 230446 225716 220954 216318 211928 256666 250624 245123 240248
          235946 231628 226818 221808 216824 212090 256693 250722 245347 240716 236853 233181
          228562 223123 217533 212300 256698 250746 245422 240925 237445 233611 229308 224629
          218290 212460 256673 250665 245259 240613 236764 233109 228567 223089 217494 212283
          256624 250503 244933 240011 235711 231401 226620 221631 216698 212045 256567 250315
          244562 239354 234581 229948 225256 220575 216067 211840 256519 250159 244264 238862
          233851 229067 224405 219899 215647 211700 256492 250072 244102 238606 233494 228647
          223998 219571 215440 211630 255510 247516 240552 234591 229412 224727 220382 216474
          213222 210771 255535 247600 240730 234919 229947 225398 221020 216970 213521 210869
          255572 247732 241018 235483 230987 226772 222297 217953 214094 211052 255604 247847
          241278 236018 231988 228421 224154 219372 214848 211275 255611 247876 241365 236252
          232620 228900 224946 220909 215521 211426 255583 247784 241182 235906 231893 228344
          224169 219341 214807 211258 255527 247599 240808 235222 230728 226521 222078 217760
          213957 211002 255461 247382 240376 234452 229410 224841 220503 216546 213242 210772
          255405 247200 240025 233864 228531 223781 219491 215752 212755 210610 255374 247099
          239833 233557 228097 223273 219005 215366 212514 210529 253775 243477 235192 228568
          223172 218551 214505 211263 209284 209071 253804 243577 235411 228992 223906 219480
          215356 211900 209654 209190 253848 243733 235761 229707 225284 221322 217067 213179
          210367 209411 253885 243868 236072 230360 226518 223185 219248 214985 211292 209680
          253893 243904 236179 230645 227272 223780 220129 216499 211991 209846 253862 243802
          235971 230242 226419 223078 219585 215046 211274 209667 253799 243591 235537 229430
          225014 221064 216898 213008 210234 209361 253724 243341 235027 228486 223330 218883
          214805 211446 209354 209085 253661 243131 234611 227760 222182 217484 213504 210457
          208766 208893 253625 243014 234385 227385 221633 216835 212896 209987 208480 208798
          250236 237324 227954 220895 215423 210872 206973 204154 203213 205560 250268 237438
          228213 221444 216563 212350 208169 204976 203662 205699 250317 237615 228626 222363
          218640 215470 211000 206805 204575 205969 250359 237766 228989 223171 220383 217429
          213903 210082 205882 206313 250368 237809 229117 223532 221451 218355 214783 211205
          206928 206534 250335 237698 228884 223050 220285 217344 213858 210291 205897 206306
          250267 237467 228394 222080 218376 215225 210830 206664 204452 205921 250186 237192
          227813 220921 216004 211775 207600 204508 203351 205590 250117 236960 227338 220032
          214358 209718 205891 203289 202660 205370 250078 236832 227084 219589 213666 208890
          205152 202738 202333 205263
        </DataArray>
        <DataArray type="Float32" Name="nonwetting pressure" NumberOfComponents="1" format="ascii">
          265545 270750 272319 271364 268372 263502 256698 247722 236069 220666 265552 270771
          272361 271436 268482 263654 256869 247878 236176 220703 265561 270803 272426 271550
          268664 263930 257195 248187 236385 220775 265568 270828 272479 271648 268818 264245
          257616 248626 236673 220868 265568 270828 272486 271667 269222 264359 257956 249129
          236923 220934 265557 270794 272426 271580 268743 264176 257558 248574 236637 220855
          265538 270734 272316 271408 268504 263767 257046 248064 236303 220746 265516 270665
          272190 271212 268221 263380 256611 247666 236035 220654 265497 270607 272085 271051
          267998 263100 256312 247400 235856 220591 265487 270574 272027 270963 267879 262956
          256162 247269 235767 220560 261995 264556 264993 263524 260333 255477 248892 240436
          229905 217126 262002 264582 265045 263615 260479 255678 249112 240631 230036 217171
          262014 264621 265128 263768 260740 256085 249565 241042 230310 217263 262023 264654
          265201 263911 261021 256696 250266 241716 230754 217397 262023 264658 265220 263980
          261879 257081 250746 242673 231434 217529 262011 264619 265146 263841 260946 256606
          250236 241675 230721 217385 261990 264549 265014 263623 260580 255922 249423 240922
          230228 217234 261965 264470 264866 263380 260206 255393 248846 240411 229890 217120
          261944 264404 264745 263189 259933 255047 248480 240093 229677 217046 261932 264367
          264678 263087 259792 254876 248303 239940 229575 217011 260243 260461 259523 257314
          253814 248981 242738 235029 225857 215391 260253 260495 259593 257441 254024 249265
          243036 235284 226024 215447 260268 260547 259707 257665 254445 249890 243693 235843
          226382 215565 260280 260593 259814 257894 255007 250910 244860 236837 226992 215744
          260282 260602 259851 258024 256149 251584 245655 238284 227975 215930 260267 260556
          259757 257825 254956 250879 244882 236817 226965 215733 260241 260470 259585 257513
          254290 249742 243570 235731 226301 215536 260211 260373 259397 257184 253730 248961
          242755 235050 225867 215392 260186 260293 259247 256939 253366 248499 242278 234648
          225605 215303 260172 260249 259165 256812 253187 248283 242057 234461 225482 215260
          259126 257490 255257 252266 248420 243612 237752 230832 222938 214293 259138 257532
          255346 252434 248701 243982 238126 231142 223135 214359 259157 257600 255497 252738
          249297 244828 238963 231822 223558 214496 259174 257660 255640 253055 250127 246202
          240476 233023 224263 214702 259177 257675 255691 253222 251339 246950 241423 234653
          225322 214907 259160 257619 255577 252980 250069 246152 240733 233057 224247 214693
          259128 257514 255362 252571 249133 244680 238888 231725 223478 214466 259092 257396
          255127 252146 248374 243648 237827 230890 222965 214299 259062 257298 254942 251839
          247908 243063 237232 230402 222655 214194 259045 257245 254842 251682 247685 242794
          236960 230177 222509 214144 258261 255073 251658 247908 243710 238925 233452 227301
          220573 213447 258276 255125 251767 248111 244048 239363 233884 227650 220792 213520
          258300 255207 251949 248480 244771 240360 234836 228404 221250 213668 258320 255280
          252123 248862 245753 241932 236510 229690 221980 213881 258323 255299 252183 249047
          246967 242678 237525 231363 222977 214080 258304 255234 252052 248778 245684 241852
          236990 229766 221970 213872 258267 255111 251798 248293 244587 240197 234789 228310
          221165 213635 258224 254970 251518 247785 243677 238986 233553 227370 220601 213453
          258188 254855 251297 247418 243122 238296 232860 226814 220252 213336 258168 254791
          251179 247230 242857 237979 232543 226555 220086 213279 257469 252832 248286 243795
          239250 234490 229401 224000 218386 212675 257487 252893 248413 244029 239634 234979
          229876 224380 218621 212754 257515 252990 248624 244448 240437 236068 230898 225178
          219099 212907 257538 253074 248822 244874 241481 237713 232615 226478 219817 213118
          257543 253096 248889 245070 242695 238464 233635 228120 220696 213297 257520 253023
          248743 244780 241406 237642 232893 226508 219795 213105 257477 252881 248454 244237
          240229 235876 230786 225047 218996 212869 257428 252718 248130 243658 239211 234545
          229485 224054 218403 212677 257386 252583 247874 243233 238576 233768 228721 223444
          218022 212549 257363 252509 247736 243015 238269 233405 228364 223154 217838 212486
          256613 250441 244732 239503 234624 229894 225185 220535 216061 211843 256634 250512
          244881 239773 235062 230446 225716 220954 216318 211928 256666 250624 245123 240248
          235946 231628 226818 221808 216824 212090 256693 250722 245347 240716 237032 233317
          228562 223123 217533 212300 256698 250746 245422 240925 238257 234087 229579 224729
          218290 212460 256673 250665 245259 240613 236950 233252 228567 223089 217494 212283
          256624 250503 244933 240011 235711 231401 226620 221631 216698 212045 256567 250315
          244562 239354 234581 229948 225256 220575 216067 211840 256519 250159 244264 238862
          233851 229067 224405 219899 215647 211700 256492 250072 244102 238606 233494 228647
          223998 219571 215440 211630 255510 247516 240552 234591 229412 224727 220382 216474
          213222 210771 255535 247600 240730 234919 229947 225398 221020 216970 213521 210869
          255572 247732 241018 235483 230987 226772 222297 217953 214094 211052 255604 247847
          241278 236018 232166 228558 224154 219372 214848 211275 255611 247876 241365 236252
          233435 229375 225210 220986 215521 211426 255583 247784 241182 235906 232079 228488
          224169 219341 214807 211258 255527 247599 240808 235222 230728 226521 222078 217760
          213957 211002 255461 247382 240376 234452 229410 224841 220503 216546 213242 210772
          255405 247200 240025 233864 228531 223781 219491 215752 212755 210610 255374 247099
          239833 233557 228097 223273 219005 215366 212514 210529 253775 243477 235192 228568
          223172 218551 214505 211263 209284 209071 253804 243577 235411 228992 223906 219480
          215356 211900 209654 209190 253848 243733 235761 229707 225284 221322 217067 213179
          210367 209411 253885 243868 236072 230360 226716 223335 219248 214985 211292 209680
          253893 243904 236179 230645 228125 224274 220397 216564 211991 209846 253862 243802
          235971 230242 226624 223238 219591 215046 211274 209667 253799 243591 235537 229430
          225014 221064 216898 213008 210234 209361 253724 243341 235027 228486 223330 218883
          214805 211446 209354 209085 253661 243131 234611 227760 222182 217484 213504 210457
          208766 208893 253625 243014 234385 227385 221633 216835 212896 209987 208480 208798
          250236 237324 227954 220895 215423 210872 206973 204154 203213 205560 250268 237438
          228213 221444 216563 212350 208169 204976 203662 205699 250317 237615 228626 222363
          218806 215610 211000 206805 204575 205969 250359 237766 228989 223171 220964 217924
          214175 210092 205882 206313 250368 237809 229117 223532 222823 219292 215401 211486
          206928 206534 250335 237698 228884 223050 220877 217849 214138 210310 205897 206306
          250267 237467 228394 222080 218556 215382 210830 206664 204452 205921 250186 237192
          227813 220921 216004 211775 207600 204508 203351 205590 250117 236960 227338 220032
          214358 209718 205891 203289 202660 205370 250078 236832 227084 219589 213666 208890
          205152 202738 202333 205263
        </DataArray>
        <DataArray type="Float32" Name="wetting saturation" NumberOfComponents="1" format="ascii">
          1 1 1 1 1 1 1 1 1 1 1 1
          1 1 1 1 1 1 1 1 1 1 1 1
          1 1 1 1 1 1 1 1 1 1 0.998727 1
          1 1 1 1 1 1 1 1 0.959273 0.985583 0.994211 1
          1 1 1 1 1 1 0.998467 1 1 1 1 1
          1 1 1 1 1 1 1 1 1 1 1 1
          1 1 1 1 1 1 1 1 1 1 1 1
          1 1 1 1 1 1 1 1 1 1 1 1
          1 1 1 1 1 1 1 1 1 1 1 1
          1 1 1 1 1 1 1 1 1 1 1 1
          1 1 1 1 1 1 1 1 1 1 1 1
          1 1 0.993351 0.997262 1 1 1 1 1 1 1 1
          0.931556 0.966174 0.98198 0.991935 1 1 1 1 1 1 0.992682 0.996507
          1 1 1 1 1 1 1 1 1 1 1 1
          1 1 1 1 1 1 1 1 1 1 1 1
          1 1 1 1 1 1 1 1 1 1 1 1
          1 1 1 1 1 1 1 1 1 1 1 1
          1 1 1 1 1 1 1 1 1 1 1 1
          1 1 1 1 1 1 1 1 1 1 1 1
          1 1 1 1 1 1 0.986254 0.991797 1 1 1 1
          1 1 1 1 0.920151 0.955592 0.974129 0.987246 1 1 1 1
          1 1 0.985571 0.99111 1 1 1 1 1 1 1 1
          1 1 1 1 1 1 1 1 1 1 1 1
          1 1 1 1 1 1 1 1 1 1 1 1
          1 1 1 1 1 1 1 1 1 1 1 1
          1 1 1 1 1 1 1 1 1 1 1 1
          1 1 1 1 1 1 1 1 1 1 1 1
          1 1 1 1 1 1 1 1 1 1 0.98222 0.987868
          1 1 1 1 1 1 1 1 0.917388 0.952484 0.971575 0.985899
          1 1 1 1 1 1 0.981541 0.987155 1 1 1 1
          1 1 1 1 1 1 1 1 1 1 1 1
          1 1 1 1 1 1 1 1 1 1 1 1
          1 1 1 1 1 1 1 1 1 1 1 1
          1 1 1 1 1 1 1 1 1 1 1 1
          1 1 1 1 1 1 1 1 1 1 1 1
          1 1 1 1 1 1 1 1 1 1 1 1
          1 1 0.981272 0.986597 1 1 1 1 1 1 1 1
          0.917449 0.952049 0.971447 0.986539 1 1 1 1 1 1 0.980563 0.985705
          0.999199 1 1 1 1 1 1 1 1 1 1 1
          1 1 1 1 1 1 1 1 1 1 1 1
          1 1 1 1 1 1 1 1 1 1 1 1
          1 1 1 1 1 1 1 1 1 1 1 1
          1 1 1 1 1 1 1 1 1 1 1 1
          1 1 1 1 1 1 1 1 1 1 1 1
          1 1 1 1 1 1 0.981583 0.986404 1 1 1 1
          1 1 1 1 0.918202 0.952225 0.972116 0.988013 1 1 1 1
          1 1 0.980842 0.985593 0.999912 1 1 1 1 1 1 1
          1 1 1 1 1 1 1 1 1 1 1 1
          1 1 1 1 1 1 1 1 1 1 1 1
          1 1 1 1 1 1 1 1 1 1 1 1
          1 1 1 1 1 1 1 1 1 1 1 1
          1 1 1 1 1 1 1 1 1 1 1 1
          1 1 1 1 1 1 1 1 1 1 0.982106 0.986458
          1 1 1 1 1 1 1 1 0.918795 0.952431 0.972937 0.989943
          1 1 1 1 1 1 0.981331 0.985726 1 1 1 1
          1 1 1 1 1 1 1 1 1 1 1 1
          1 1 1 1 1 1 1 1 1 1 1 1
          1 1 1 1 1 1 1 1 1 1 1 1
          1 1 1 1 1 1 1 1 1 1 1 1
          1 1 1 1 1 1 1 1 1 1 1 1
          1 1 1 1 1 1 1 1 1 1 1 1
          1 1 0.982184 0.986324 1 1 1 1 1 1 1 1
          0.918531 0.952428 0.973684 0.99232 1 1 1 1 1 1 0.981382 0.985575
          1 1 1 1 1 1 1 1 1 1 1 1
          1 1 1 1 1 1 1 1 1 1 1 1
          1 1 1 1 1 1 1 1 1 1 1 1
          1 1 1 1 1 1 1 1 1 1 1 1
          1 1 1 1 1 1 1 1 1 1 1 1
          1 1 1 1 1 1 1 1 1 1 1 1
          1 1 1 1 1 1 0.980274 0.985023 1 1 1 1
          1 1 1 1 0.914695 0.950646 0.97325 0.993488 1 1 1 1
          1 1 0.979458 0.984052 0.999316 1 1 1 1 1 1 1
          1 1 1 1 1 1 1 1 1 1 1 1
          1 1 1 1 1 1 1 1 1 1 1 1
          1 1 1 1 1 1 1 1 1 1 1 1
          1 1 1 1 1 1 1 1 1 1 1 1
          1 1 1 1 1 1 1 1 1 1 1 1
          0.983342 0.985987 1 1 1 1 1 1 1 1 0.941936 0.950536
          0.972805 0.998978 1 1 1 1 1 1 0.862875 0.906284 0.938166 0.971849
          1 1 1 1 1 1 0.940723 0.949421 0.971959 0.998139 1 1
          1 1 1 1 0.981954 0.984365 1 1 1 1 1 1
          1 1 1 1 1 1 1 1 1 1 1 1
          1 1 1 1 1 1 1 1 1 1 1 1
          1 1 1 1
        </DataArray>
        <DataArray type="Float32" Name="C^w from cellData" NumberOfComponents="1" format="ascii">
          199.956 199.956 199.956 199.956 199.956 199.956 199.955 199.954 199.953 199.952 199.956 199.956
          199.956 199.956 199.956 199.956 199.955 199.954 199.953 199.952 199.956 199.956 199.956 199.956
          199.953 199.956 199.955 199.954 199.953 199.952 199.956 199.956 199.956 199.942 199.327 199.667
          199.926 199.954 199.953 199.952 199.956 199.956 199.956 199.846 191.62 196.791 198.101 199.319
          199.953 199.952 199.956 199.956 199.956 199.94 199.264 199.617 199.921 199.954 199.953 199.952
          199.956 199.956 199.956 199.956 199.948 199.956 199.955 199.954 199.953 199.952 199.956 199.956
          199.956 199.956 199.956 199.956 199.955 199.954 199.953 199.952 199.956 199.956 199.957 199.956
          199.956 199.956 199.955 199.954 199.953 199.952 199.956 199.956 199.957 199.956 199.956 199.956
          199.955 199.954 199.953 199.952 199.956 199.956 199.956 199.956 199.955 199.955 199.954 199.954
          199.953 199.951 199.956 199.956 199.956 199.956 199.955 199.955 199.954 199.954 199.953 199.951
          199.956 199.956 199.956 199.956 199.84 199.95 199.954 199.954 199.953 199.951 199.956 199.956
          199.956 199.926 198.23 198.927 199.668 199.92 199.953 199.951 199.956 199.956 199.956 199.751
          186.471 192.952 195.96 197.564 199.56 199.951 199.956 199.956 199.956 199.926 198.121 198.787
          199.615 199.918 199.953 199.951 199.956 199.956 199.956 199.956 199.805 199.945 199.954 199.954
          199.953 199.951 199.956 199.956 199.956 199.956 199.955 199.955 199.954 199.954 199.953 199.951
          199.956 199.956 199.956 199.956 199.955 199.955 199.954 199.954 199.953 199.951 199.956 199.956
          199.956 199.956 199.955 199.955 199.954 199.954 199.953 199.951 199.955 199.955 199.955 199.955
          199.955 199.954 199.954 199.953 199.952 199.951 199.955 199.955 199.955 199.955 199.955 199.954
          199.954 199.953 199.952 199.951 199.955 199.955 199.955 199.955 199.639 199.865 199.954 199.953
          199.952 199.951 199.955 199.955 199.955 199.926 196.839 197.623 199.171 199.836 199.952 199.951
          199.955 199.955 199.955 199.776 184.234 190.981 194.238 196.295 199.122 199.951 199.955 199.955
          199.955 199.924 196.689 197.454 199.134 199.832 199.952 199.951 199.955 199.955 199.955 199.955
          199.603 199.841 199.954 199.953 199.952 199.951 199.955 199.955 199.955 199.955 199.955 199.954
          199.954 199.953 199.952 199.951 199.955 199.955 199.955 199.955 199.955 199.954 199.954 199.953
          199.952 199.951 199.955 199.955 199.955 199.955 199.955 199.954 199.954 199.953 199.952 199.951
          199.955 199.955 199.955 199.955 199.954 199.954 199.953 199.953 199.952 199.951 199.955 199.955
          199.955 199.955 199.954 199.954 199.953 199.953 199.952 199.951 199.955 199.955 199.955 199.954
          199.539 199.764 199.953 199.953 199.952 199.951 199.955 199.955 199.955 199.922 195.981 196.687
          199.001 199.807 199.952 199.951 199.955 199.955 199.955 199.807 183.631 190.374 193.64 195.988
          199.133 199.951 199.955 199.955 199.955 199.922 195.825 196.546 198.906 199.801 199.952 199.951
          199.955 199.955 199.955 199.954 199.505 199.725 199.953 199.953 199.952 199.951 199.955 199.955
          199.955 199.955 199.954 199.954 199.953 199.953 199.952 199.951 199.955 199.955 199.955 199.955
          199.954 199.954 199.953 199.953 199.952 199.951 199.955 199.955 199.955 199.955 199.954 199.954
          199.953 199.953 199.952 199.951 199.955 199.955 199.955 199.954 199.954 199.953 199.953 199.952
          199.952 199.951 199.955 199.955 199.955 199.954 199.954 199.953 199.953 199.952 199.952 199.951
          199.955 199.955 199.955 199.954 199.501 199.713 199.953 199.952 199.952 199.951 199.955 199.955
          199.954 199.919 195.764 196.398 198.973 199.825 199.952 199.951 199.955 199.955 199.954 199.872
          183.615 190.28 193.597 196.224 199.318 199.951 199.955 199.955 199.954 199.919 195.599 196.274
          198.786 199.82 199.952 199.951 199.955 199.955 199.955 199.954 199.466 199.667 199.952 199.952
          199.952 199.951 199.955 199.955 199.955 199.954 199.954 199.953 199.953 199.952 199.952 199.951
          199.955 199.955 199.955 199.954 199.954 199.953 199.953 199.952 199.952 199.951 199.955 199.955
          199.955 199.954 199.954 199.953 199.953 199.952 199.952 199.951 199.955 199.955 199.954 199.954
          199.953 199.953 199.952 199.952 199.951 199.951 199.955 199.955 199.954 199.954 199.953 199.953
          199.952 199.952 199.951 199.951 199.955 199.955 199.954 199.954 199.493 199.698 199.952 199.952
          199.952 199.951 199.955 199.955 199.954 199.914 195.819 196.371 198.994 199.863 199.952 199.951
          199.955 199.955 199.954 199.874 183.773 190.312 193.715 196.691 199.554 199.951 199.955 199.955
          199.954 199.914 195.645 196.216 198.884 199.859 199.952 199.951 199.955 199.955 199.954 199.954
          199.456 199.646 199.952 199.952 199.952 199.951 199.955 199.955 199.954 199.954 199.953 199.953
          199.952 199.952 199.951 199.951 199.955 199.955 199.954 199.954 199.953 199.953 199.952 199.952
          199.951 199.951 199.955 199.955 199.954 199.954 199.953 199.953 199.952 199.952 199.951 199.951
          199.955 199.954 199.954 199.953 199.953 199.952 199.952 199.952 199.951 199.951 199.955 199.954
          199.954 199.953 199.953 199.952 199.952 199.952 199.951 199.951 199.955 199.954 199.954 199.953
          199.489 199.689 199.952 199.952 199.951 199.951 199.955 199.954 199.954 199.91 195.923 196.405
          199.028 199.897 199.951 199.951 199.955 199.954 199.954 199.914 183.94 190.359 193.847 197.248
          199.739 199.951 199.955 199.954 199.954 199.91 195.74 196.22 198.992 199.895 199.951 199.951
          199.955 199.954 199.954 199.953 199.449 199.632 199.952 199.952 199.951 199.951 199.955 199.954
          199.954 199.953 199.953 199.952 199.952 199.952 199.951 199.951 199.955 199.954 199.954 199.953
          199.953 199.952 199.952 199.952 199.951 199.951 199.955 199.954 199.954 199.953 199.953 199.952
          199.952 199.952 199.951 199.951 199.955 199.954 199.953 199.953 199.952 199.952 199.952 199.951
          199.951 199.951 199.955 199.954 199.953 199.953 199.952 199.952 199.952 199.951 199.951 199.951
          199.955 199.954 199.953 199.953 199.468 199.658 199.952 199.951 199.951 199.951 199.955 199.954
          199.953 199.906 195.929 196.388 199.051 199.924 199.951 199.951 199.955 199.954 199.953 199.901
          183.974 190.377 193.965 197.798 199.86 199.951 199.955 199.954 199.953 199.907 195.738 196.2
          199.014 199.923 199.951 199.951 199.955 199.954 199.953 199.953 199.428 199.601 199.952 199.951
          199.951 199.951 199.955 199.954 199.953 199.953 199.952 199.952 199.952 199.951 199.951 199.951
          199.955 199.954 199.953 199.953 199.952 199.952 199.951 199.951 199.951 199.951 199.955 199.954
          199.953 199.953 199.952 199.952 199.951 199.951 199.951 199.951 199.955 199.954 199.953 199.952
          199.952 199.951 199.951 199.951 199.951 199.951 199.955 199.954 199.953 199.952 199.952 199.951
          199.951 199.951 199.951 199.951 199.955 199.954 199.953 199.952 199.4 199.556 199.951 199.951
          199.951 199.951 199.955 199.954 199.953 199.907 195.501 196.086 199.019 199.931 199.951 199.951
          199.955 199.954 199.953 199.913 183.285 190.055 193.859 198.078 199.898 199.951 199.955 199.954
          199.953 199.907 195.305 195.927 198.836 199.929 199.951 199.951 199.955 199.954 199.953 199.952
          199.361 199.498 199.95 199.951 199.951 199.951 199.955 199.954 199.953 199.952 199.952 199.951
          199.951 199.951 199.951 199.951 199.955 199.954 199.953 199.952 199.952 199.951 199.951 199.951
          199.951 199.951 199.955 199.954 199.953 199.952 199.952 199.951 199.951 199.951 199.951 199.951
          199.955 199.953 199.952 199.952 199.951 199.951 199.95 199.95 199.95 199.95 199.955 199.953
          199.952 199.952 199.588 199.765 199.95 199.95 199.95 199.95 199.955 199.953 199.952 199.929
          196.063 196.37 198.985 199.949 199.95 199.95 199.955 199.953 199.952 199.914 188.118 189.77
          193.239 198.469 199.949 199.95 199.955 199.953 199.952 199.893 172.875 181.43 187.422 193.033
          199.06 199.95 199.955 199.953 199.952 199.914 187.888 189.566 193.082 198.318 199.948 199.95
          199.955 199.953 199.952 199.929 195.741 195.93 198.871 199.949 199.95 199.95 199.955 199.953
          199.952 199.952 199.483 199.685 199.95 199.95 199.95 199.95 199.955 199.953 199.952 199.952
          199.951 199.951 199.95 199.95 199.95 199.95 199.955 199.953 199.952 199.952 199.951 199.95
          199.95 199.95 199.95 199.95
        </DataArray>
        <DataArray type="Float32" Name="C^n from cellData" NumberOfComponents="1" format="ascii">
          0 0 0 3.45609e-15 6.3829e-11 4.53973e-12 1.3842e-13 2.94981e-15 1.11663e-17 0 0 0
          5.2868e-16 8.60925e-12 1.12138e-07 9.64731e-09 3.73301e-10 7.67071e-12 1.0859e-13 1.94968e-15 8.03731e-18 1.02208e-14 9.6864e-13 7.81695e-09
          9.01058e-05 7.9224e-06 4.66579e-07 1.09046e-08 1.57903e-10 2.0836e-12 2.8283e-13 1.39683e-11 1.0352e-09 3.67264e-06 0.0166267 0.00358871
          0.000410951 1.15115e-05 1.57949e-07 1.93212e-09 6.10582e-10 2.46135e-08 1.39777e-06 0.00142547 0.0420295 0.0246499 0.0187001 0.00771141
          0.000128798 1.62444e-06 4.81971e-13 2.50997e-11 1.8757e-09 4.8203e-06 0.016788 0.00437124 0.000479389 1.29733e-05 1.77622e-07 2.16949e-09
          6.4408e-16 2.13612e-14 2.177e-12 1.22092e-08 0.000153147 1.11541e-05 6.29905e-07 1.41879e-08 2.02382e-10 2.64094e-12 0 8.00874e-18
          1.59757e-15 1.79293e-11 2.07794e-07 1.6597e-08 6.25492e-10 1.2444e-11 1.74483e-13 2.7346e-15 0 0 0 1.33492e-14
          1.82138e-10 1.27592e-11 3.81751e-13 6.24615e-15 2.55635e-17 0 0 0 0 0 6.41081e-14 4.41604e-15
          5.32446e-17 0 0 0 0 0 0 1.07655e-14 6.59586e-10 3.45405e-11 1.06755e-12 1.59523e-14
          3.9509e-17 0 0 0 5.34318e-16 2.32466e-11 1.58091e-06 8.58369e-08 3.61264e-09 6.79232e-11 6.74368e-13 4.81055e-15