<?xml version="1.0"?>
<VTKFile type="UnstructuredGrid" version="0.1" byte_order="LittleEndian">
  <UnstructuredGrid>
    <Piece NumberOfCells="6075" NumberOfPoints="7600">
      <PointData Scalars="p">
        <DataArray type="Float32" Name="p" NumberOfComponents="1" format="ascii">
          -0.0003901 -0.000128838 0.000144095 -4.34602e-05 -0.00959565 -0.00971395 -0.00939097 -0.00934145 -0.0181138 -0.0181061 -0.0182047 -0.0182054
          -0.0264716 -0.026482 -0.0268281 -0.0268256 -0.0347807 -0.0347613 -0.03543 -0.0354339 -0.0431726 -0.0432111 -0.0440071 -0.0440275
          -0.0513487 -0.0510998 -0.0530535 -0.0531002 -0.0634153 -0.0635566 -0.063843 -0.0638156 4.98505e-06 3.30151e-05 -0.00923612 -0.00924501
          -0.0183098 -0.018305 -0.0271967 -0.0271971 -0.0360646 -0.0360671 -0.0449905 -0.0450086 -0.0543365 -0.0543459 -0.0643248 -0.0643173
          2.65625e-05 1.40012e-05 -0.0092433 -0.00924319 -0.0184494 -0.0184482 -0.0275707 -0.0275708 -0.0366911 -0.0366928 -0.0458901 -0.0458972
          -0.0553174 -0.0553262 -0.0648994 -0.0648921 6.91567e-06 6.68877e-06 -0.00928443 -0.00928544 -0.0186118 -0.0186117 -0.0279417 -0.0279419
          -0.0372961 -0.0372968 -0.0467048 -0.0467075 -0.0561765 -0.0561775 -0.0655151 -0.0655124 -5.59153e-06 -3.9935e-06 -0.00932876 -0.00932844
          -0.0187713 -0.0187721 -0.0283026 -0.0283027 -0.0378809 -0.0378811 -0.0474769 -0.0474766 -0.056996 -0.0569935 -0.0661518 -0.0661502
          -1.54669e-05 -2.06284e-05 -0.00934088 -0.00934019 -0.0189051 -0.0189076 -0.0286475 -0.0286479 -0.0384555 -0.038455 -0.0482482 -0.0482449
          -0.0578443 -0.0578331 -0.0667863 -0.0667867 -3.75408e-05 -1.31853e-05 -0.0092823 -0.00928655 -0.018995 -0.0189996 -0.0289745 -0.0289752
          -0.0390294 -0.0390285 -0.0490544 -0.0490452 -0.0587737 -0.0587572 -0.0673922 -0.0673915 4.14995e-06 -0.000116646 -0.00909273 -0.00908749
          -0.0190354 -0.0190484 -0.0292835 -0.0292847 -0.0396092 -0.0396067 -0.0499088 -0.0498961 -0.0598763 -0.059823 -0.0678892 -0.0679055
          0.000168559 0.000333252 -0.00880389 -0.00876809 -0.0190783 -0.019068 -0.0295853 -0.0295783 -0.0401901 -0.0402007 -0.0507424 -0.0507288
          -0.0610594 -0.0612301 -0.0681951 -0.0681348 -0.000247047 0.000139197 -0.00982456 -0.00938706 -0.0181386 -0.0182094 -0.0264936 -0.0268263
          -0.0347271 -0.0354316 -0.0432162 -0.0440112 -0.0505862 -0.0529824 -0.0638459 -0.0638657 3.68594e-05 -0.00924532 -0.0183071 -0.0271968
          -0.0360672 -0.0450106 -0.0543122 -0.0643361 3.005e-05 -0.00924466 -0.0184485 -0.0275708 -0.0366936 -0.0458986 -0.0553152 -0.0648985
          6.34457e-06 -0.00928478 -0.0186121 -0.027942 -0.0372972 -0.0467079 -0.0561747 -0.0655145 -1.11753e-05 -0.00932706 -0.0187725 -0.0283029
          -0.0378812 -0.0474754 -0.0569951 -0.0661497 -3.53623e-05 -0.0093375 -0.0189081 -0.028648 -0.038455 -0.0482423 -0.0578408 -0.0667835
          -4.99343e-05 -0.00927722 -0.0189997 -0.0289747 -0.0390292 -0.0490419 -0.0587827 -0.067383 -0.000101589 -0.0090671 -0.0190394 -0.0292821
          -0.0396103 -0.0499026 -0.0599089 -0.0678833 0.000301902 -0.00862318 -0.0190376 -0.0295612 -0.0402249 -0.0507533 -0.0616261 -0.0680046
          -0.00020768 0.000185671 -0.00990709 -0.00941043 -0.0181651 -0.0182213 -0.0265008 -0.0268271 -0.0347031 -0.035426 -0.043188 -0.0439788
          -0.0502553 -0.0528786 -0.0640223 -0.0639163 6.41563e-05 -0.00924906 -0.0183104 -0.0271968 -0.0360649 -0.0450004 -0.0542818 -0.0643527
          3.99684e-05 -0.00924427 -0.0184496 -0.0275707 -0.0366931 -0.0458956 -0.0553052 -0.0649052 7.64461e-06 -0.00928407 -0.0186124 -0.027942
          -0.0372972 -0.0467071 -0.0561721 -0.0655171 -1.6463e-05 -0.00932643 -0.0187725 -0.0283028 -0.0378813 -0.047475 -0.0569972 -0.0661501
          -4.85425e-05 -0.00933578 -0.0189072 -0.0286478 -0.0384553 -0.0482426 -0.0578507 -0.0667815 -6.80412e-05 -0.00927081 -0.0189961 -0.0289736
          -0.0390308 -0.0490458 -0.058814 -0.0673758 -0.000136183 -0.00903636 -0.0190269 -0.0292783 -0.0396157 -0.0499205 -0.0600042 -0.0678609
          0.00031399 -0.00853545 -0.0190066 -0.0295496 -0.0402436 -0.0507959 -0.0618995 -0.0679185 -0.000200621 0.000221047 -0.00994517 -0.0094238
          -0.0181798 -0.0182283 -0.0265045 -0.0268276 -0.0346896 -0.0354219 -0.0431684 -0.043957 -0.050088 -0.0528224 -0.0641122 -0.0639446
          7.79548e-05 -0.00925098 -0.0183129 -0.0271969 -0.036063 -0.0449919 -0.0542641 -0.064363 4.6798e-05 -0.00924407 -0.0184503 -0.0275707
          -0.0366925 -0.0458927 -0.0552994 -0.0649093 8.59111e-06 -0.00928363 -0.0186125 -0.027942 -0.037297 -0.0467062 -0.0561707 -0.0655187
          -1.95544e-05 -0.00932611 -0.0187724 -0.0283028 -0.0378813 -0.0474749 -0.0569987 -0.0661504 -5.59166e-05 -0.00933487 -0.0189064 -0.0286476
          -0.0384557 -0.0482435 -0.0578573 -0.0667806 -7.99329e-05 -0.00926668 -0.0189932 -0.0289728 -0.039032 -0.0490498 -0.0588339 -0.0673721
          -0.000150851 -0.00902028 -0.0190186 -0.0292759 -0.0396191 -0.049934 -0.0600583 -0.0678496 0.000309649 -0.00849065 -0.0189892 -0.0295434
          -0.040254 -0.0508227 -0.0620409 -0.0678755 -0.000200621 0.000221047 -0.00994517 -0.0094238 -0.0181798 -0.0182283 -0.0265045 -0.0268276
          -0.0346896 -0.0354219 -0.0431684 -0.043957 -0.050088 -0.0528224 -0.0641122 -0.0639446 7.79548e-05 -0.00925098 -0.0183129 -0.0271969
          -0.036063 -0.0449919 -0.0542641 -0.064363 4.6798e-05 -0.00924407 -0.0184503 -0.0275707 -0.0366925 -0.0458927 -0.0552994 -0.0649093
          8.59111e-06 -0.00928363 -0.0186125 -0.027942 -0.037297 -0.0467062 -0.0561707 -0.0655187 -1.95544e-05 -0.00932611 -0.0187724 -0.0283028
          -0.0378813 -0.0474749 -0.0569987 -0.0661504 -5.59166e-05 -0.00933487 -0.0189064 -0.0286476 -0.0384557 -0.0482435 -0.0578573 -0.0667806
          -7.99329e-05 -0.00926668 -0.0189932 -0.0289728 -0.039032 -0.0490498 -0.0588339 -0.0673721 -0.000150851 -0.00902028 -0.0190186 -0.0292759
          -0.0396191 -0.049934 -0.0600583 -0.0678496 0.000309649 -0.00849065 -0.0189892 -0.0295434 -0.040254 -0.0508227 -0.0620409 -0.0678755
          -0.00020768 0.000185671 -0.00990709 -0.00941043 -0.0181651 -0.0182213 -0.0265008 -0.0268271 -0.0347031 -0.035426 -0.043188 -0.0439788
          -0.0502553 -0.0528786 -0.0640223 -0.0639163 6.41563e-05 -0.00924906 -0.0183104 -0.0271968 -0.0360649 -0.0450004 -0.0542818 -0.0643527
          3.99684e-05 -0.00924427 -0.0184496 -0.0275707 -0.0366931 -0.0458956 -0.0553052 -0.0649052 7.64461e-06 -0.00928407 -0.0186124 -0.027942
          -0.0372972 -0.0467071 -0.0561721 -0.0655171 -1.6463e-05 -0.00932643 -0.0187725 -0.0283028 -0.0378813 -0.047475 -0.0569972 -0.0661501
          -4.85425e-05 -0.00933578 -0.0189072 -0.0286478 -0.0384553 -0.0482426 -0.0578507 -0.0667815 -6.80412e-05 -0.00927081 -0.0189961 -0.0289736
          -0.0390308 -0.0490458 -0.058814 -0.0673758 -0.000136183 -0.00903636 -0.0190269 -0.0292783 -0.0396157 -0.0499205 -0.0600042 -0.0678609
          0.00031399 -0.00853545 -0.0190066 -0.0295496 -0.0402436 -0.0507959 -0.0618995 -0.0679185 -0.000247047 0.000139197 -0.00982456 -0.00938706
          -0.0181386 -0.0182094 -0.0264936 -0.0268263 -0.0347271 -0.0354316 -0.0432162 -0.0440112 -0.0505862 -0.0529824 -0.0638459 -0.0638657
          3.68594e-05 -0.00924532 -0.0183071 -0.0271968 -0.0360672 -0.0450106 -0.0543122 -0.0643361 3.005e-05 -0.00924466 -0.0184485 -0.0275708
          -0.0366936 -0.0458986 -0.0553152 -0.0648985 6.34457e-06 -0.00928478 -0.0186121 -0.027942 -0.0372972 -0.0467079 -0.0561747 -0.0655145
          -1.11753e-05 -0.00932706 -0.0187725 -0.0283029 -0.0378812 -0.0474754 -0.0569951 -0.0661497 -3.53623e-05 -0.0093375 -0.0189081 -0.028648
          -0.038455 -0.0482423 -0.0578408 -0.0667835 -4.99343e-05 -0.00927722 -0.0189997 -0.0289747 -0.0390292 -0.0490419 -0.0587827 -0.067383
          -0.000101589 -0.0090671 -0.0190394 -0.0292821 -0.0396103 -0.0499026 -0.0599089 -0.0678833 0.000301902 -0.00862318 -0.0190376 -0.0295612
          -0.0402249 -0.0507533 -0.0616261 -0.0680046 -0.000128838 -4.34602e-05 -0.00971395 -0.00934145 -0.0181061 -0.0182054 -0.026482 -0.0268256
          -0.0347613 -0.0354339 -0.0432111 -0.0440275 -0.0510998 -0.0531002 -0.0635566 -0.0638156 3.30151e-05 -0.00924501 -0.018305 -0.0271971
          -0.0360671 -0.0450086 -0.0543459 -0.0643173 1.40012e-05 -0.00924319 -0.0184482 -0.0275708 -0.0366928 -0.0458972 -0.0553262 -0.0648921
          6.68877e-06 -0.00928544 -0.0186117 -0.0279419 -0.0372968 -0.0467075 -0.0561775 -0.0655124 -3.9935e-06 -0.00932844 -0.0187721 -0.0283027
          -0.0378811 -0.0474766 -0.0569935 -0.0661502 -2.06284e-05 -0.00934019 -0.0189076 -0.0286479 -0.038455 -0.0482449 -0.0578331 -0.0667867
          -1.31853e-05 -0.00928655 -0.0189996 -0.0289752 -0.0390285 -0.0490452 -0.0587572 -0.0673915 -0.000116646 -0.00908749 -0.0190484 -0.0292847
          -0.0396067 -0.0498961 -0.059823 -0.0679055 0.000333252 -0.00876809 -0.019068 -0.0295783 -0.0402007 -0.0507288 -0.0612301 -0.0681348
          -0.0003901 0.000144095 -0.00959565 -0.00939097 -0.0181138 -0.0182047 -0.0264716 -0.0268281 -0.0347807 -0.03543 -0.0431726 -0.0440071
          -0.0513487 -0.0530535 -0.0634153 -0.063843 4.98505e-06 -0.00923612 -0.0183098 -0.0271967 -0.0360646 -0.0449905 -0.0543365 -0.0643248
          2.65625e-05 -0.0092433 -0.0184494 -0.0275707 -0.0366911 -0.0458901 -0.0553174 -0.0648994 6.91567e-06 -0.00928443 -0.0186118 -0.0279417
          -0.0372961 -0.0467048 -0.0561765 -0.0655151 -5.59153e-06 -0.00932876 -0.0187713 -0.0283026 -0.0378809 -0.0474769 -0.056996 -0.0661518
          -1.54669e-05 -0.00934088 -0.0189051 -0.0286475 -0.0384555 -0.0482482 -0.0578443 -0.0667863 -3.75408e-05 -0.0092823 -0.018995 -0.0289745
          -0.0390294 -0.0490544 -0.0587737 -0.0673922 4.14995e-06 -0.00909273 -0.0190354 -0.0292835 -0.0396092 -0.0499088 -0.0598763 -0.0678892
          0.000168559 -0.00880389 -0.0190783 -0.0295853 -0.0401901 -0.0507424 -0.0610594 -0.0681951 -0.0840094 -0.0840011 -0.0840242 -0.0839785
          -0.101705 -0.101937 -0.1017 -0.10194 -0.119646 -0.119968 -0.119648 -0.119968 -0.137568 -0.138003 -0.137567 -0.138003
          -0.155497 -0.15604 -0.155497 -0.15604 -0.173425 -0.174078 -0.173425 -0.174078 -0.191354 -0.192116 -0.191354 -0.192116
          -0.209284 -0.210154 -0.209284 -0.210154 -0.227213 -0.228192 -0.227213 -0.228192 -0.245142 -0.24623 -0.245142 -0.24623
          -0.263072 -0.264268 -0.263072 -0.264268 -0.281001 -0.282307 -0.281001 -0.282307 -0.298931 -0.300345 -0.298932 -0.300345
          -0.316861 -0.318385 -0.316861 -0.318384 -0.334794 -0.336421 -0.334794 -0.336421 -0.352699 -0.35446 -0.3527 -0.354459
          -0.370738 -0.372474 -0.370733 -0.37247 -0.387846 -0.390177 -0.387915 -0.390211 -0.411752 -0.413335 -0.411185 -0.413427
          -0.0841127 -0.0840097 -0.101687 -0.101934 -0.119652 -0.119969 -0.137566 -0.138003 -0.155497 -0.15604 -0.173425 -0.174078
          -0.191354 -0.192116 -0.209284 -0.210154 -0.227213 -0.228192 -0.245142 -0.24623 -0.263072 -0.264268 -0.281001 -0.282307
          -0.298932 -0.300346 -0.31686 -0.318384 -0.334796 -0.336422 -0.352694 -0.354453 -0.370746 -0.372492 -0.387866 -0.390087
          -0.410286 -0.413349 -0.0841981 -0.0840509 -0.10168 -0.101929 -0.119655 -0.11997 -0.137566 -0.138003 -0.155497 -0.15604
          -0.173425 -0.174078 -0.191354 -0.192116 -0.209284 -0.210154 -0.227213 -0.228192 -0.245142 -0.24623 -0.263072 -0.264268
          -0.281001 -0.282307 -0.298932 -0.300346 -0.31686 -0.318384 -0.334797 -0.336423 -0.352688 -0.354449 -0.370763 -0.372509
          -0.38775 -0.389962 -0.409818 -0.413269 -0.0842465 -0.0840769 -0.101677 -0.101927 -0.119656 -0.119971 -0.137566 -0.138003
          -0.155497 -0.156041 -0.173425 -0.174078 -0.191354 -0.192116 -0.209284 -0.210154 -0.227213 -0.228192 -0.245142 -0.24623
          -0.263072 -0.264268 -0.281001 -0.282307 -0.298932 -0.300346 -0.31686 -0.318384 -0.334798 -0.336423 -0.352685 -0.354447
          -0.370772 -0.372517 -0.387678 -0.389887 -0.409589 -0.41323 -0.0842465 -0.0840769 -0.101677 -0.101927 -0.119656 -0.119971
          -0.137566 -0.138003 -0.155497 -0.156041 -0.173425 -0.174078 -0.191354 -0.192116 -0.209284 -0.210154 -0.227213 -0.228192
          -0.245142 -0.24623 -0.263072 -0.264268 -0.281001 -0.282307 -0.298932 -0.300346 -0.31686 -0.318384 -0.334798 -0.336423
          -0.352685 -0.354447 -0.370772 -0.372517 -0.387678 -0.389887 -0.409589 -0.41323 -0.0841981 -0.0840509 -0.10168 -0.101929
          -0.119655 -0.11997 -0.137566 -0.138003 -0.155497 -0.15604 -0.173425 -0.174078 -0.191354 -0.192116 -0.209284 -0.210154
          -0.227213 -0.228192 -0.245142 -0.24623 -0.263072 -0.264268 -0.281001 -0.282307 -0.298932 -0.300346 -0.31686 -0.318384
          -0.334797 -0.336423 -0.352688 -0.354449 -0.370763 -0.372509 -0.38775 -0.389962 -0.409818 -0.413269 -0.0841127 -0.0840097
          -0.101687 -0.101934 -0.119652 -0.119969 -0.137566 -0.138003 -0.155497 -0.15604 -0.173425 -0.174078 -0.191354 -0.192116
          -0.209284 -0.210154 -0.227213 -0.228192 -0.245142 -0.24623 -0.263072 -0.264268 -0.281001 -0.282307 -0.298932 -0.300346
          -0.31686 -0.318384 -0.334796 -0.336422 -0.352694 -0.354453 -0.370746 -0.372492 -0.387866 -0.390087 -0.410286 -0.413349
          -0.0840242 -0.0839785 -0.1017 -0.10194 -0.119648 -0.119968 -0.137567 -0.138003 -0.155497 -0.15604 -0.173425 -0.174078
          -0.191354 -0.192116 -0.209284 -0.210154 -0.227213 -0.228192 -0.245142 -0.24623 -0.263072 -0.264268 -0.281001 -0.282307
          -0.298932 -0.300345 -0.316861 -0.318384 -0.334794 -0.336421 -0.3527 -0.354459 -0.370733 -0.37247 -0.387915 -0.390211
          -0.411185 -0.413427 -0.0840094 -0.0840011 -0.101705 -0.101937 -0.119646 -0.119968 -0.137568 -0.138003 -0.155497 -0.15604
          -0.173425 -0.174078 -0.191354 -0.192116 -0.209284 -0.210154 -0.227213 -0.228192 -0.245142 -0.24623 -0.263072 -0.264268
          -0.281001 -0.282307 -0.298931 -0.300345 -0.316861 -0.318385 -0.334794 -0.336421 -0.352699 -0.35446 -0.370738 -0.372474
          -0.387846 -0.390177 -0.411752 -0.413335 -0.083981 -0.0839672 -0.102157 -0.102158 -0.120292 -0.120292 -0.138439 -0.138439
          -0.156584 -0.156584 -0.174731 -0.174731 -0.192877 -0.192877 -0.211024 -0.211024 -0.229171 -0.229171 -0.247318 -0.247318
          -0.265465 -0.265465 -0.283612 -0.283612 -0.30176 -0.30176 -0.319908 -0.319908 -0.338052 -0.338052 -0.356211 -0.356211
          -0.374287 -0.374285 -0.392718 -0.392769 -0.414017 -0.413999 -0.0839702 -0.102155 -0.120292 -0.138438 -0.156584 -0.174731
          -0.192877 -0.211024 -0.229171 -0.247318 -0.265465 -0.283612 -0.30176 -0.319908 -0.338052 -0.35621 -0.374297 -0.392757
          -0.413965 -0.0839823 -0.102153 -0.120292 -0.138438 -0.156584 -0.174731 -0.192877 -0.211024 -0.229171 -0.247318 -0.265465
          -0.283612 -0.30176 -0.319908 -0.338053 -0.356209 -0.374308 -0.392716 -0.413946 -0.0839913 -0.102151 -0.120293 -0.138438
          -0.156584 -0.174731 -0.192877 -0.211024 -0.229171 -0.247318 -0.265465 -0.283612 -0.30176 -0.319908 -0.338053 -0.356208
          -0.374314 -0.392687 -0.413935 -0.0839913 -0.102151 -0.120293 -0.138438 -0.156584 -0.174731 -0.192877 -0.211024 -0.229171
          -0.247318 -0.265465 -0.283612 -0.30176 -0.319908 -0.338053 -0.356208 -0.374314 -0.392687 -0.413935 -0.0839823 -0.102153
          -0.120292 -0.138438 -0.156584 -0.174731 -0.192877 -0.211024 -0.229171 -0.247318 -0.265465 -0.283612 -0.30176 -0.319908
          -0.338053 -0.356209 -0.374308 -0.392716 -0.413946 -0.0839702 -0.102155 -0.120292 -0.138438 -0.156584 -0.174731 -0.192877
          -0.211024 -0.229171 -0.247318 -0.265465 -0.283612 -0.30176 -0.319908 -0.338052 -0.35621 -0.374297 -0.392757 -0.413965
          -0.0839672 -0.102158 -0.120292 -0.138439 -0.156584 -0.174731 -0.192877 -0.211024 -0.229171 -0.247318 -0.265465 -0.283612
          -0.30176 -0.319908 -0.338052 -0.356211 -0.374285 -0.392769 -0.413999 -0.083981 -0.102157 -0.120292 -0.138439 -0.156584
          -0.174731 -0.192877 -0.211024 -0.229171 -0.247318 -0.265465 -0.283612 -0.30176 -0.319908 -0.338052 -0.356211 -0.374287
          -0.392718 -0.414017 -0.0840528 -0.0840473 -0.102369 -0.10237 -0.120618 -0.120618 -0.138873 -0.138873 -0.157128 -0.157128
          -0.175383 -0.175383 -0.193639 -0.193639 -0.211894 -0.211894 -0.23015 -0.23015 -0.248406 -0.248406 -0.266662 -0.266662
          -0.284918 -0.284918 -0.303174 -0.303174 -0.321431 -0.321431 -0.339685 -0.339685 -0.35795 -0.357949 -0.376158 -0.376158
          -0.3949 -0.394916 -0.414333 -0.414343 -0.0840465 -0.102369 -0.120618 -0.138873 -0.157128 -0.175383 -0.193639 -0.211894
          -0.23015 -0.248406 -0.266662 -0.284918 -0.303174 -0.321431 -0.339685 -0.35795 -0.37616 -0.394914 -0.414351 -0.0840491
          -0.102368 -0.120618 -0.138873 -0.157128 -0.175383 -0.193639 -0.211894 -0.23015 -0.248406 -0.266662 -0.284918 -0.303174
          -0.321431 -0.339685 -0.35795 -0.376163 -0.394902 -0.414354 -0.0840516 -0.102367 -0.120618 -0.138873 -0.157128 -0.175383
          -0.193639 -0.211894 -0.23015 -0.248406 -0.266662 -0.284918 -0.303174 -0.321431 -0.339685 -0.35795 -0.376164 -0.394892
          -0.414356 -0.0840516 -0.102367 -0.120618 -0.138873 -0.157128 -0.175383 -0.193639 -0.211894 -0.23015 -0.248406 -0.266662
          -0.284918 -0.303174 -0.321431 -0.339685 -0.35795 -0.376164 -0.394892 -0.414356 -0.0840491 -0.102368 -0.120618 -0.138873
          -0.157128 -0.175383 -0.193639 -0.211894 -0.23015 -0.248406 -0.266662 -0.284918 -0.303174 -0.321431 -0.339685 -0.35795
          -0.376163 -0.394902 -0.414354 -0.0840465 -0.102369 -0.120618 -0.138873 -0.157128 -0.175383 -0.193639 -0.211894 -0.23015
          -0.248406 -0.266662 -0.284918 -0.303174 -0.321431 -0.339685 -0.35795 -0.37616 -0.394914 -0.414351 -0.0840473 -0.10237
          -0.120618 -0.138873 -0.157128 -0.175383 -0.193639 -0.211894 -0.23015 -0.248406 -0.266662 -0.284918 -0.303174 -0.321431
          -0.339685 -0.357949 -0.376158 -0.394916 -0.414343 -0.0840528 -0.102369 -0.120618 -0.138873 -0.157128 -0.175383 -0.193639
          -0.211894 -0.23015 -0.248406 -0.266662 -0.284918 -0.303174 -0.321431 -0.339685 -0.35795 -0.376158 -0.3949 -0.414333
          -0.0841891 -0.0841881 -0.102582 -0.102582 -0.120944 -0.120944 -0.139308 -0.139308 -0.157672 -0.157672 -0.176036 -0.176036
          -0.1944 -0.1944 -0.212765 -0.212764 -0.231129 -0.231129 -0.249493 -0.249493 -0.267858 -0.267858 -0.286223 -0.286223
          -0.304588 -0.304588 -0.322953 -0.322953 -0.341319 -0.341319 -0.359687 -0.359687 -0.378041 -0.378043 -0.396762 -0.396766
          -0.414528 -0.414525 -0.084187 -0.102582 -0.120944 -0.139308 -0.157672 -0.176036 -0.1944 -0.212764 -0.231129 -0.249493
          -0.267858 -0.286223 -0.304588 -0.322953 -0.341319 -0.359688 -0.378041 -0.396768 -0.41454 -0.0841867 -0.102582 -0.120944
          -0.139308 -0.157672 -0.176036 -0.1944 -0.212764 -0.231129 -0.249493 -0.267858 -0.286223 -0.304588 -0.322954 -0.341318
          -0.359689 -0.378039 -0.396766 -0.414548 -0.0841867 -0.102581 -0.120944 -0.139308 -0.157672 -0.176036 -0.1944 -0.212764
          -0.231129 -0.249493 -0.267858 -0.286223 -0.304588 -0.322954 -0.341318 -0.359689 -0.378038 -0.396765 -0.414553 -0.0841867
          -0.102581 -0.120944 -0.139308 -0.157672 -0.176036 -0.1944 -0.212764 -0.231129 -0.249493 -0.267858 -0.286223 -0.304588
          -0.322954 -0.341318 -0.359689 -0.378038 -0.396765 -0.414553 -0.0841867 -0.102582 -0.120944 -0.139308 -0.157672 -0.176036
          -0.1944 -0.212764 -0.231129 -0.249493 -0.267858 -0.286223 -0.304588 -0.322954 -0.341318 -0.359689 -0.378039 -0.396766
          -0.414548 -0.084187 -0.102582 -0.120944 -0.139308 -0.157672 -0.176036 -0.1944 -0.212764 -0.231129 -0.249493 -0.267858
          -0.286223 -0.304588 -0.322953 -0.341319 -0.359688 -0.378041 -0.396768 -0.41454 -0.0841881 -0.102582 -0.120944 -0.139308
          -0.157672 -0.176036 -0.1944 -0.212764 -0.231129 -0.249493 -0.267858 -0.286223 -0.304588 -0.322953 -0.341319 -0.359687
          -0.378043 -0.396766 -0.414525 -0.0841891 -0.102582 -0.120944 -0.139308 -0.157672 -0.176036 -0.1944 -0.212765 -0.231129
          -0.249493 -0.267858 -0.286223 -0.304588 -0.322953 -0.341319 -0.359687 -0.378041 -0.396762 -0.414528 -0.0843475 -0.0843497
          -0.102794 -0.102794 -0.121271 -0.121271 -0.139743 -0.139743 -0.158216 -0.158216 -0.176689 -0.176689 -0.195162 -0.195162
          -0.213635 -0.213635 -0.232108 -0.232108 -0.250581 -0.250581 -0.269055 -0.269055 -0.287529 -0.287528 -0.306002 -0.306002
          -0.324477 -0.324476 -0.342952 -0.342952 -0.361427 -0.361427 -0.37991 -0.379913 -0.39845 -0.398445 -0.414651 -0.41465
          -0.0843487 -0.102794 -0.121271 -0.139743 -0.158216 -0.176689 -0.195162 -0.213635 -0.232108 -0.250581 -0.269055 -0.287529
          -0.306002 -0.324477 -0.342952 -0.361427 -0.379909 -0.398445 -0.414672 -0.084347 -0.102795 -0.121271 -0.139743 -0.158216
          -0.176689 -0.195162 -0.213635 -0.232108 -0.250581 -0.269055 -0.287529 -0.306002 -0.324477 -0.342951 -0.361428 -0.379906
          -0.398448 -0.414684 -0.0843458 -0.102795 -0.121271 -0.139743 -0.158216 -0.176689 -0.195162 -0.213635 -0.232108 -0.250581
          -0.269055 -0.287529 -0.306002 -0.324477 -0.342951 -0.361429 -0.379903 -0.39845 -0.414691 -0.0843458 -0.102795 -0.121271
          -0.139743 -0.158216 -0.176689 -0.195162 -0.213635 -0.232108 -0.250581 -0.269055 -0.287529 -0.306002 -0.324477 -0.342951
          -0.361429 -0.379903 -0.39845 -0.414691 -0.084347 -0.102795 -0.121271 -0.139743 -0.158216 -0.176689 -0.195162 -0.213635
          -0.232108 -0.250581 -0.269055 -0.287529 -0.306002 -0.324477 -0.342951 -0.361428 -0.379906 -0.398448 -0.414684 -0.0843487
          -0.102794 -0.121271 -0.139743 -0.158216 -0.176689 -0.195162 -0.213635 -0.232108 -0.250581 -0.269055 -0.287529 -0.306002
          -0.324477 -0.342952 -0.361427 -0.379909 -0.398445 -0.414672 -0.0843497 -0.102794 -0.121271 -0.139743 -0.158216 -0.176689
          -0.195162 -0.213635 -0.232108 -0.250581 -0.269055 -0.287528 -0.306002 -0.324476 -0.342952 -0.361427 -0.379913 -0.398445
          -0.41465 -0.0843475 -0.102794 -0.121271 -0.139743 -0.158216 -0.176689 -0.195162 -0.213635 -0.232108 -0.250581 -0.269055
          -0.287529 -0.306002 -0.324477 -0.342952 -0.361427 -0.37991 -0.39845 -0.414651 -0.0844837 -0.0844904 -0.103006 -0.103005
          -0.121597 -0.121597 -0.140178 -0.140178 -0.15876 -0.15876 -0.177341 -0.177341 -0.195923 -0.195923 -0.214505 -0.214505
          -0.233087 -0.233087 -0.251669 -0.251669 -0.270251 -0.270251 -0.288834 -0.288834 -0.307417 -0.307417 -0.326 -0.326
          -0.344584 -0.344584 -0.36317 -0.363169 -0.381763 -0.381767 -0.400104 -0.400087 -0.414757 -0.414751 -0.0844886 -0.103007
          -0.121597 -0.140178 -0.15876 -0.177341 -0.195923 -0.214505 -0.233087 -0.251669 -0.270251 -0.288834 -0.307417 -0.326
          -0.344584 -0.36317 -0.381762 -0.400087 -0.414781 -0.0844839 -0.103008 -0.121597 -0.140178 -0.15876 -0.177341 -0.195923
          -0.214505 -0.233087 -0.251669 -0.270251 -0.288834 -0.307417 -0.326 -0.344584 -0.36317 -0.381757 -0.400096 -0.4148
          -0.0844804 -0.103009 -0.121597 -0.140178 -0.15876 -0.177341 -0.195923 -0.214505 -0.233087 -0.251669 -0.270251 -0.288834
          -0.307417 -0.326 -0.344584 -0.363171 -0.381755 -0.400104 -0.41481 -0.0844804 -0.103009 -0.121597 -0.140178 -0.15876
          -0.177341 -0.195923 -0.214505 -0.233087 -0.251669 -0.270251 -0.288834 -0.307417 -0.326 -0.344584 -0.363171 -0.381755
          -0.400104 -0.41481 -0.0844839 -0.103008 -0.121597 -0.140178 -0.15876 -0.177341 -0.195923 -0.214505 -0.233087 -0.251669
          -0.270251 -0.288834 -0.307417 -0.326 -0.344584 -0.36317 -0.381757 -0.400096 -0.4148 -0.0844886 -0.103007 -0.121597
          -0.140178 -0.15876 -0.177341 -0.195923 -0.214505 -0.233087 -0.251669 -0.270251 -0.288834 -0.307417 -0.326 -0.344584
          -0.36317 -0.381762 -0.400087 -0.414781 -0.0844904 -0.103005 -0.121597 -0.140178 -0.15876 -0.177341 -0.195923 -0.214505
          -0.233087 -0.251669 -0.270251 -0.288834 -0.307417 -0.326 -0.344584 -0.363169 -0.381767 -0.400087 -0.414751 -0.0844837
          -0.103006 -0.121597 -0.140178 -0.15876 -0.177341 -0.195923 -0.214505 -0.233087 -0.251669 -0.270251 -0.288834 -0.307417
          -0.326 -0.344584 -0.36317 -0.381763 -0.400104 -0.414757 -0.0845592 -0.0845717 -0.103219 -0.103218 -0.121924 -0.121924
          -0.140612 -0.140613 -0.159304 -0.159304 -0.177994 -0.177994 -0.196685 -0.196685 -0.215375 -0.215375 -0.234066 -0.234066
          -0.252757 -0.252757 -0.271448 -0.271448 -0.290139 -0.290139 -0.308831 -0.308831 -0.327523 -0.327523 -0.346217 -0.346217
          -0.364914 -0.364914 -0.383616 -0.38362 -0.401845 -0.40181 -0.414897 -0.414899 -0.0845648 -0.103221 -0.121923 -0.140613
          -0.159304 -0.177994 -0.196685 -0.215375 -0.234066 -0.252757 -0.271448 -0.290139 -0.308831 -0.327523 -0.346217 -0.364914
          -0.383614 -0.40182 -0.414952 -0.0845515 -0.103224 -0.121923 -0.140613 -0.159304 -0.177994 -0.196685 -0.215375 -0.234066
          -0.252757 -0.271448 -0.290139 -0.308831 -0.327523 -0.346217 -0.364915 -0.383609 -0.401851 -0.414988 -0.0845423 -0.103225
          -0.121923 -0.140613 -0.159304 -0.177994 -0.196685 -0.215375 -0.234066 -0.252757 -0.271448 -0.290139 -0.308831 -0.327523
          -0.346216 -0.364915 -0.383606 -0.401874 -0.415008 -0.0845423 -0.103225 -0.121923 -0.140613 -0.159304 -0.177994 -0.196685
          -0.215375 -0.234066 -0.252757 -0.271448 -0.290139 -0.308831 -0.327523 -0.346216 -0.364915 -0.383606 -0.401874 -0.415008
          -0.0845515 -0.103224 -0.121923 -0.140613 -0.159304 -0.177994 -0.196685 -0.215375 -0.234066 -0.252757 -0.271448 -0.290139
          -0.308831 -0.327523 -0.346217 -0.364915 -0.383609 -0.401851 -0.414988 -0.0845648 -0.103221 -0.121923 -0.140613 -0.159304
          -0.177994 -0.196685 -0.215375 -0.234066 -0.252757 -0.271448 -0.290139 -0.308831 -0.327523 -0.346217 -0.364914 -0.383614
          -0.40182 -0.414952 -0.0845717 -0.103218 -0.121924 -0.140613 -0.159304 -0.177994 -0.196685 -0.215375 -0.234066 -0.252757
          -0.271448 -0.290139 -0.308831 -0.327523 -0.346217 -0.364914 -0.38362 -0.40181 -0.414899 -0.0845592 -0.103219 -0.121924
          -0.140612 -0.159304 -0.177994 -0.196685 -0.215375 -0.234066 -0.252757 -0.271448 -0.290139 -0.308831 -0.327523 -0.346217
          -0.364914 -0.383616 -0.401845 -0.414897 -0.0845505 -0.0845731 -0.103441 -0.103439 -0.122247 -0.122248 -0.141048 -0.141048
          -0.159847 -0.159847 -0.178647 -0.178647 -0.197446 -0.197446 -0.216245 -0.216245 -0.235045 -0.235045 -0.253845 -0.253845
          -0.272644 -0.272644 -0.291445 -0.291445 -0.310245 -0.310245 -0.329046 -0.329046 -0.347849 -0.347849 -0.366661 -0.366661
          -0.385488 -0.385488 -0.403773 -0.403697 -0.415232 -0.415185 -0.0845432 -0.103444 -0.122247 -0.141048 -0.159847 -0.178647
          -0.197446 -0.216245 -0.235045 -0.253845 -0.272644 -0.291445 -0.310245 -0.329046 -0.347849 -0.366662 -0.385481 -0.403772
          -0.415279 -0.0845048 -0.10345 -0.122245 -0.141048 -0.159847 -0.178647 -0.197446 -0.216245 -0.235045 -0.253845 -0.272645
          -0.291445 -0.310245 -0.329046 -0.347849 -0.366664 -0.385477 -0.403883 -0.415365 -0.084481 -0.103452 -0.122245 -0.141048
          -0.159847 -0.178647 -0.197446 -0.216245 -0.235045 -0.253845 -0.272645 -0.291445 -0.310245 -0.329046 -0.347849 -0.366666
          -0.385477 -0.403954 -0.415412 -0.084481 -0.103452 -0.122245 -0.141048 -0.159847 -0.178647 -0.197446 -0.216245 -0.235045
          -0.253845 -0.272645 -0.291445 -0.310245 -0.329046 -0.347849 -0.366666 -0.385477 -0.403954 -0.415412 -0.0845048 -0.10345
          -0.122245 -0.141048 -0.159847 -0.178647 -0.197446 -0.216245 -0.235045 -0.253845 -0.272645 -0.291445 -0.310245 -0.329046
          -0.347849 -0.366664 -0.385477 -0.403883 -0.415365 -0.0845432 -0.103444 -0.122247 -0.141048 -0.159847 -0.178647 -0.197446
          -0.216245 -0.235045 -0.253845 -0.272644 -0.291445 -0.310245 -0.329046 -0.347849 -0.366662 -0.385481 -0.403772 -0.415279
          -0.0845731 -0.103439 -0.122248 -0.141048 -0.159847 -0.178647 -0.197446 -0.216245 -0.235045 -0.253845 -0.272644 -0.291445
          -0.310245 -0.329046 -0.347849 -0.366661 -0.385488 -0.403697 -0.415185 -0.0845505 -0.103441 -0.122247 -0.141048 -0.159847
          -0.178647 -0.197446 -0.216245 -0.235045 -0.253845 -0.272644 -0.291445 -0.310245 -0.329046 -0.347849 -0.366661 -0.385488
          -0.403773 -0.415232 -0.0845471 -0.0845139 -0.103676 -0.103683 -0.122569 -0.122567 -0.141484 -0.141484 -0.160391 -0.160391
          -0.179299 -0.179299 -0.198207 -0.198207 -0.217116 -0.217116 -0.236024 -0.236024 -0.254932 -0.254932 -0.273841 -0.273841
          -0.29275 -0.29275 -0.311659 -0.311659 -0.330569 -0.330569 -0.349482 -0.349481 -0.368405 -0.368406 -0.387387 -0.387382
          -0.405584 -0.405695 -0.415974 -0.416202 -0.0844051 -0.1037 -0.122563 -0.141485 -0.160391 -0.179299 -0.198207 -0.217116
          -0.236024 -0.254932 -0.273841 -0.29275 -0.311659 -0.330569 -0.349481 -0.368412 -0.387384 -0.406072 -0.416703 -0.0843149
          -0.103711 -0.122559 -0.141486 -0.160391 -0.179299 -0.198207 -0.217116 -0.236024 -0.254932 -0.273841 -0.29275 -0.311659
          -0.330569 -0.349481 -0.368418 -0.387396 -0.406388 -0.417027 -0.0842653 -0.103717 -0.122558 -0.141486 -0.160391 -0.1793
          -0.198207 -0.217116 -0.236024 -0.254932 -0.273841 -0.29275 -0.311659 -0.330569 -0.349481 -0.368421 -0.387406 -0.406562
          -0.417188 -0.0842653 -0.103717 -0.122558 -0.141486 -0.160391 -0.1793 -0.198207 -0.217116 -0.236024 -0.254932 -0.273841
          -0.29275 -0.311659 -0.330569 -0.349481 -0.368421 -0.387406 -0.406562 -0.417188 -0.0843149 -0.103711 -0.122559 -0.141486
          -0.160391 -0.179299 -0.198207 -0.217116 -0.236024 -0.254932 -0.273841 -0.29275 -0.311659 -0.330569 -0.349481 -0.368418
          -0.387396 -0.406388 -0.417027 -0.0844051 -0.1037 -0.122563 -0.141485 -0.160391 -0.179299 -0.198207 -0.217116 -0.236024