<?xml version="1.0"?>
<VTKFile type="UnstructuredGrid" version="0.1" byte_order="LittleEndian">
  <UnstructuredGrid>
    <Piece NumberOfCells="2500" NumberOfPoints="2626">
      <CellData Scalars="waterDepth">
        <DataArray type="Float32" Name="waterDepth" NumberOfComponents="1" format="ascii">
          3.99728 3.99684 3.99592 3.99443 3.99225 3.98922 3.98512 3.97972 3.97277 3.96397 3.95305 3.93973
          3.92375 3.90488 3.88295 3.85782 3.82943 3.79776 3.76283 3.72474 3.6836 3.63956 3.59282 3.54357
          3.49202 3.43838 3.38287 3.3257 3.26707 3.20717 3.1462 3.08433 3.02173 2.95856 2.89499 2.83116
          2.76725 2.70344 2.63991 2.57694 2.51485 2.4541 2.39538 2.33974 2.28879 2.24487 2.21102 2.1899
          2.18163 2.18213 2.18554 2.18841 2.19038 2.19185 2.193 2.19392 2.19465 2.19524 2.19572 2.19609
          2.19639 2.19661 2.19676 2.19685 2.19686 2.1968 2.19662 2.19626 2.19561 2.19444 2.19232 2.18852
          2.18177 2.16993 2.14949 2.11496 2.05835 1.96934 1.83796 1.66202 1.4586 1.26778 1.13014 1.05436
          1.02067 1.00751 1.00267 1.00094 1.00033 1.00011 1.00004 1.00001 1 1 1 1
          1 1 1 1 3.99728 3.99684 3.99592 3.99443 3.99225 3.98922 3.98512 3.97972
          3.97277 3.96397 3.95305 3.93973 3.92375 3.90488 3.88295 3.85782 3.82943 3.79776 3.76283 3.72474
          3.6836 3.63956 3.59282 3.54357 3.49202 3.43838 3.38287 3.3257 3.26707 3.20717 3.1462 3.08433
          3.02173 2.95856 2.89499 2.83116 2.76725 2.70344 2.63991 2.57694 2.51485 2.4541 2.39538 2.33974
          2.28879 2.24487 2.21102 2.1899 2.18163 2.18213 2.18554 2.18841 2.19038 2.19185 2.193 2.19392
          2.19465 2.19524 2.19572 2.19609 2.19639 2.19661 2.19676 2.19685 2.19686 2.1968 2.19662 2.19626
          2.19561 2.19444 2.19232 2.18852 2.18177 2.16993 2.14949 2.11496 2.05835 1.96934 1.83796 1.66202
          1.4586 1.26778 1.13014 1.05436 1.02067 1.00751 1.00267 1.00094 1.00033 1.00011 1.00004 1.00001
          1 1 1 1 1 1 1 1 3.99728 3.99684 3.99592 3.99443
          3.99225 3.98922 3.98512 3.97972 3.97277 3.96397 3.95305 3.93973 3.92375 3.90488 3.88295 3.85782
          3.82943 3.79776 3.76283 3.72474 3.6836 3.63956 3.59282 3.54357 3.49202 3.43838 3.38287 3.3257
          3.26707 3.20717 3.1462 3.08433 3.02173 2.95856 2.89499 2.83116 2.76725 2.70344 2.63991 2.57694
          2.51485 2.4541 2.39538 2.33974 2.28879 2.24487 2.21102 2.1899 2.18163 2.18213 2.18554 2.18841
          2.19038 2.19185 2.193 2.19392 2.19465 2.19524 2.19572 2.19609 2.19639 2.19661 2.19676 2.19685
          2.19686 2.1968 2.19662 2.19626 2.19561 2.19444 2.19232 2.18852 2.18177 2.16993 2.14949 2.11496
          2.05835 1.96934 1.83796 1.66202 1.4586 1.26778 1.13014 1.05436 1.02067 1.00751 1.00267 1.00094
          1.00033 1.00011 1.00004 1.00001 1 1 1 1 1 1 1 1
          3.99728 3.99684 3.99592 3.99443 3.99225 3.98922 3.98512 3.97972 3.97277 3.96397 3.95305 3.93973
          3.92375 3.90488 3.88295 3.85782 3.82943 3.79776 3.76283 3.72474 3.6836 3.63956 3.59282 3.54357
          3.49202 3.43838 3.38287 3.3257 3.26707 3.20717 3.1462 3.08433 3.02173 2.95856 2.89499 2.83116
          2.76725 2.70344 2.63991 2.57694 2.51485 2.4541 2.39538 2.33974 2.28879 2.24487 2.21102 2.1899
          2.18163 2.18213 2.18554 2.18841 2.19038 2.19185 2.193 2.19392 2.19465 2.19524 2.19572 2.19609
          2.19639 2.19661 2.19676 2.19685 2.19686 2.1968 2.19662 2.19626 2.19561 2.19444 2.19232 2.18852
          2.18177 2.16993 2.14949 2.11496 2.05835 1.96934 1.83796 1.66202 1.4586 1.26778 1.13014 1.05436
          1.02067 1.00751 1.00267 1.00094 1.00033 1.00011 1.00004 1.00001 1 1 1 1
          1 1 1 1 3.99728 3.99684 3.99592 3.99443 3.99225 3.98922 3.98512 3.97972
          3.97277 3.96397 3.95305 3.93973 3.92375 3.90488 3.88295 3.85782 3.82943 3.79776 3.76283 3.72474
          3.6836 3.63956 3.59282 3.54357 3.49202 3.43838 3.38287 3.3257 3.26707 3.20717 3.1462 3.08433
          3.02173 2.95856 2.89499 2.83116 2.76725 2.70344 2.63991 2.57694 2.51485 2.4541 2.39538 2.33974
          2.28879 2.24487 2.21102 2.1899 2.18163 2.18213 2.18554 2.18841 2.19038 2.19185 2.193 2.19392
          2.19465 2.19524 2.19572 2.19609 2.19639 2.19661 2.19676 2.19685 2.19686 2.1968 2.19662 2.19626
          2.19561 2.19444 2.19232 2.18852 2.18177 2.16993 2.14949 2.11496 2.05835 1.96934 1.83796 1.66202
          1.4586 1.26778 1.13014 1.05436 1.02067 1.00751 1.00267 1.00094 1.00033 1.00011 1.00004 1.00001
          1 1 1 1 1 1 1 1 3.99728 3.99684 3.99592 3.99443
          3.99225 3.98922 3.98512 3.97972 3.97277 3.96397 3.95305 3.93973 3.92375 3.90488 3.88295 3.85782
          3.82943 3.79776 3.76283 3.72474 3.6836 3.63956 3.59282 3.54357 3.49202 3.43838 3.38287 3.3257
          3.26707 3.20717 3.1462 3.08433 3.02173 2.95856 2.89499 2.83116 2.76725 2.70344 2.63991 2.57694
          2.51485 2.4541 2.39538 2.33974 2.28879 2.24487 2.21102 2.1899 2.18163 2.18213 2.18554 2.18841
          2.19038 2.19185 2.193 2.19392 2.19465 2.19524 2.19572 2.19609 2.19639 2.19661 2.19676 2.19685
          2.19686 2.1968 2.19662 2.19626 2.19561 2.19444 2.19232 2.18852 2.18177 2.16993 2.14949 2.11496
          2.05835 1.96934 1.83796 1.66202 1.4586 1.26778 1.13014 1.05436 1.02067 1.00751 1.00267 1.00094
          1.00033 1.00011 1.00004 1.00001 1 1 1 1 1 1 1 1
          3.99728 3.99684 3.99592 3.99443 3.99225 3.98922 3.98512 3.97972 3.97277 3.96397 3.95305 3.93973
          3.92375 3.90488 3.88295 3.85782 3.82943 3.79776 3.76283 3.72474 3.6836 3.63956 3.59282 3.54357
          3.49202 3.43838 3.38287 3.3257 3.26707 3.20717 3.1462 3.08433 3.02173 2.95856 2.89499 2.83116
          2.76725 2.70344 2.63991 2.57694 2.51485 2.4541 2.39538 2.33974 2.28879 2.24487 2.21102 2.1899
          2.18163 2.18213 2.18554 2.18841 2.19038 2.19185 2.193 2.19392 2.19465 2.19524 2.19572 2.19609
          2.19639 2.19661 2.19676 2.19685 2.19686 2.1968 2.19662 2.19626 2.19561 2.19444 2.19232 2.18852
          2.18177 2.16993 2.14949 2.11496 2.05835 1.96934 1.83796 1.66202 1.4586 1.26778 1.13014 1.05436
          1.02067 1.00751 1.00267 1.00094 1.00033 1.00011 1.00004 1.00001 1 1 1 1
          1 1 1 1 3.99728 3.99684 3.99592 3.99443 3.99225 3.98922 3.98512 3.97972
          3.97277 3.96397 3.95305 3.93973 3.92375 3.90488 3.88295 3.85782 3.82943 3.79776 3.76283 3.72474
          3.6836 3.63956 3.59282 3.54357 3.49202 3.43838 3.38287 3.3257 3.26707 3.20717 3.1462 3.08433
          3.02173 2.95856 2.89499 2.83116 2.76725 2.70344 2.63991 2.57694 2.51485 2.4541 2.39538 2.33974
          2.28879 2.24487 2.21102 2.1899 2.18163 2.18213 2.18554 2.18841 2.19038 2.19185 2.193 2.19392
          2.19465 2.19524 2.19572 2.19609 2.19639 2.19661 2.19676 2.19685 2.19686 2.1968 2.19662 2.19626
          2.19561 2.19444 2.19232 2.18852 2.18177 2.16993 2.14949 2.11496 2.05835 1.96934 1.83796 1.66202
          1.4586 1.26778 1.13014 1.05436 1.02067 1.00751 1.00267 1.00094 1.00033 1.00011 1.00004 1.00001
          1 1 1 1 1 1 1 1 3.99728 3.99684 3.99592 3.99443
          3.99225 3.98922 3.98512 3.97972 3.97277 3.96397 3.95305 3.93973 3.92375 3.90488 3.88295 3.85782
          3.82943 3.79776 3.76283 3.72474 3.6836 3.63956 3.59282 3.54357 3.49202 3.43838 3.38287 3.3257
          3.26707 3.20717 3.1462 3.08433 3.02173 2.95856 2.89499 2.83116 2.76725 2.70344 2.63991 2.57694
          2.51485 2.4541 2.39538 2.33974 2.28879 2.24487 2.21102 2.1899 2.18163 2.18213 2.18554 2.18841
          2.19038 2.19185 2.193 2.19392 2.19465 2.19524 2.19572 2.19609 2.19639 2.19661 2.19676 2.19685
          2.19686 2.1968 2.19662 2.19626 2.19561 2.19444 2.19232 2.18852 2.18177 2.16993 2.14949 2.11496
          2.05835 1.96934 1.83796 1.66202 1.4586 1.26778 1.13014 1.05436 1.02067 1.00751 1.00267 1.00094
          1.00033 1.00011 1.00004 1.00001 1 1 1 1 1 1 1 1
          3.99728 3.99684 3.99592 3.99443 3.99225 3.98922 3.98512 3.97972 3.97277 3.96397 3.95305 3.93973
          3.92375 3.90488 3.88295 3.85782 3.82943 3.79776 3.76283 3.72474 3.6836 3.63956 3.59282 3.54357
          3.49202 3.43838 3.38287 3.3257 3.26707 3.20717 3.1462 3.08433 3.02173 2.95856 2.89499 2.83116
          2.76725 2.70344 2.63991 2.57694 2.51485 2.4541 2.39538 2.33974 2.28879 2.24487 2.21102 2.1899
          2.18163 2.18213 2.18554 2.18841 2.19038 2.19185 2.193 2.19392 2.19465 2.19524 2.19572 2.19609
          2.19639 2.19661 2.19676 2.19685 2.19686 2.1968 2.19662 2.19626 2.19561 2.19444 2.19232 2.18852
          2.18177 2.16993 2.14949 2.11496 2.05835 1.96934 1.83796 1.66202 1.4586 1.26778 1.13014 1.05436
          1.02067 1.00751 1.00267 1.00094 1.00033 1.00011 1.00004 1.00001 1 1 1 1
          1 1 1 1 3.99728 3.99684 3.99592 3.99443 3.99225 3.98922 3.98512 3.97972
          3.97277 3.96397 3.95305 3.93973 3.92375 3.90488 3.88295 3.85782 3.82943 3.79776 3.76283 3.72474
          3.6836 3.63956 3.59282 3.54357 3.49202 3.43838 3.38287 3.3257 3.26707 3.20717 3.1462 3.08433
          3.02173 2.95856 2.89499 2.83116 2.76725 2.70344 2.63991 2.57694 2.51485 2.4541 2.39538 2.33974
          2.28879 2.24487 2.21102 2.1899 2.18163 2.18213 2.18554 2.18841 2.19038 2.19185 2.193 2.19392
          2.19465 2.19524 2.19572 2.19609 2.19639 2.19661 2.19676 2.19685 2.19686 2.1968 2.19662 2.19626
          2.19561 2.19444 2.19232 2.18852 2.18177 2.16993 2.14949 2.11496 2.05835 1.96934 1.83796 1.66202
          1.4586 1.26778 1.13014 1.05436 1.02067 1.00751 1.00267 1.00094 1.00033 1.00011 1.00004 1.00001
          1 1 1 1 1 1 1 1 3.99728 3.99684 3.99592 3.99443
          3.99225 3.98922 3.98512 3.97972 3.97277 3.96397 3.95305 3.93973 3.92375 3.90488 3.88295 3.85782
          3.82943 3.79776 3.76283 3.72474 3.6836 3.63956 3.59282 3.54357 3.49202 3.43838 3.38287 3.3257
          3.26707 3.20717 3.1462 3.08433 3.02173 2.95856 2.89499 2.83116 2.76725 2.70344 2.63991 2.57694
          2.51485 2.4541 2.39538 2.33974 2.28879 2.24487 2.21102 2.1899 2.18163 2.18213 2.18554 2.18841
          2.19038 2.19185 2.193 2.19392 2.19465 2.19524 2.19572 2.19609 2.19639 2.19661 2.19676 2.19685
          2.19686 2.1968 2.19662 2.19626 2.19561 2.19444 2.19232 2.18852 2.18177 2.16993 2.14949 2.11496
          2.05835 1.96934 1.83796 1.66202 1.4586 1.26778 1.13014 1.05436 1.02067 1.00751 1.00267 1.00094
          1.00033 1.00011 1.00004 1.00001 1 1 1 1 1 1 1 1
          3.99728 3.99684 3.99592 3.99443 3.99225 3.98922 3.98512 3.97972 3.97277 3.96397 3.95305 3.93973
          3.92375 3.90488 3.88295 3.85782 3.82943 3.79776 3.76283 3.72474 3.6836 3.63956 3.59282 3.54357
          3.49202 3.43838 3.38287 3.3257 3.26707 3.20717 3.1462 3.08433 3.02173 2.95856 2.89499 2.83116
          2.76725 2.70344 2.63991 2.57694 2.51485 2.4541 2.39538 2.33974 2.28879 2.24487 2.21102 2.1899
          2.18163 2.18213 2.18554 2.18841 2.19038 2.19185 2.193 2.19392 2.19465 2.19524 2.19572 2.19609
          2.19639 2.19661 2.19676 2.19685 2.19686 2.1968 2.19662 2.19626 2.19561 2.19444 2.19232 2.18852
          2.18177 2.16993 2.14949 2.11496 2.05835 1.96934 1.83796 1.66202 1.4586 1.26778 1.13014 1.05436
          1.02067 1.00751 1.00267 1.00094 1.00033 1.00011 1.00004 1.00001 1 1 1 1
          1 1 1 1 3.99728 3.99684 3.99592 3.99443 3.99225 3.98922 3.98512 3.97972
          3.97277 3.96397 3.95305 3.93973 3.92375 3.90488 3.88295 3.85782 3.82943 3.79776 3.76283 3.72474
          3.6836 3.63956 3.59282 3.54357 3.49202 3.43838 3.38287 3.3257 3.26707 3.20717 3.1462 3.08433
          3.02173 2.95856 2.89499 2.83116 2.76725 2.70344 2.63991 2.57694 2.51485 2.4541 2.39538 2.33974
          2.28879 2.24487 2.21102 2.1899 2.18163 2.18213 2.18554 2.18841 2.19038 2.19185 2.193 2.19392
          2.19465 2.19524 2.19572 2.19609 2.19639 2.19661 2.19676 2.19685 2.19686 2.1968 2.19662 2.19626
          2.19561 2.19444 2.19232 2.18852 2.18177 2.16993 2.14949 2.11496 2.05835 1.96934 1.83796 1.66202
          1.4586 1.26778 1.13014 1.05436 1.02067 1.00751 1.00267 1.00094 1.00033 1.00011 1.00004 1.00001
          1 1 1 1 1 1 1 1 3.99728 3.99684 3.99592 3.99443
          3.99225 3.98922 3.98512 3.97972 3.97277 3.96397 3.95305 3.93973 3.92375 3.90488 3.88295 3.85782
          3.82943 3.79776 3.76283 3.72474 3.6836 3.63956 3.59282 3.54357 3.49202 3.43838 3.38287 3.3257
          3.26707 3.20717 3.1462 3.08433 3.02173 2.95856 2.89499 2.83116 2.76725 2.70344 2.63991 2.57694
          2.51485 2.4541 2.39538 2.33974 2.28879 2.24487 2.21102 2.1899 2.18163 2.18213 2.18554 2.18841
          2.19038 2.19185 2.193 2.19392 2.19465 2.19524 2.19572 2.19609 2.19639 2.19661 2.19676 2.19685
          2.19686 2.1968 2.19662 2.19626 2.19561 2.19444 2.19232 2.18852 2.18177 2.16993 2.14949 2.11496
          2.05835 1.96934 1.83796 1.66202 1.4586 1.26778 1.13014 1.05436 1.02067 1.00751 1.00267 1.00094
          1.00033 1.00011 1.00004 1.00001 1 1 1 1 1 1 1 1
          3.99728 3.99684 3.99592 3.99443 3.99225 3.98922 3.98512 3.97972 3.97277 3.96397 3.95305 3.93973
          3.92375 3.90488 3.88295 3.85782 3.82943 3.79776 3.76283 3.72474 3.6836 3.63956 3.59282 3.54357
          3.49202 3.43838 3.38287 3.3257 3.26707 3.20717 3.1462 3.08433 3.02173 2.95856 2.89499 2.83116
          2.76725 2.70344 2.63991 2.57694 2.51485 2.4541 2.39538 2.33974 2.28879 2.24487 2.21102 2.1899
          2.18163 2.18213 2.18554 2.18841 2.19038 2.19185 2.193 2.19392 2.19465 2.19524 2.19572 2.19609
          2.19639 2.19661 2.19676 2.19685 2.19686 2.1968 2.19662 2.19626 2.19561 2.19444 2.19232 2.18852
          2.18177 2.16993 2.14949 2.11496 2.05835 1.96934 1.83796 1.66202 1.4586 1.26778 1.13014 1.05436
          1.02067 1.00751 1.00267 1.00094 1.00033 1.00011 1.00004 1.00001 1 1 1 1
          1 1 1 1 3.99728 3.99684 3.99592 3.99443 3.99225 3.98922 3.98512 3.97972
          3.97277 3.96397 3.95305 3.93973 3.92375 3.90488 3.88295 3.85782 3.82943 3.79776 3.76283 3.72474
          3.6836 3.63956 3.59282 3.54357 3.49202 3.43838 3.38287 3.3257 3.26707 3.20717 3.1462 3.08433
          3.02173 2.95856 2.89499 2.83116 2.76725 2.70344 2.63991 2.57694 2.51485 2.4541 2.39538 2.33974
          2.28879 2.24487 2.21102 2.1899 2.18163 2.18213 2.18554 2.18841 2.19038 2.19185 2.193 2.19392
          2.19465 2.19524 2.19572 2.19609 2.19639 2.19661 2.19676 2.19685 2.19686 2.1968 2.19662 2.19626
          2.19561 2.19444 2.19232 2.18852 2.18177 2.16993 2.14949 2.11496 2.05835 1.96934 1.83796 1.66202
          1.4586 1.26778 1.13014 1.05436 1.02067 1.00751 1.00267 1.00094 1.00033 1.00011 1.00004 1.00001
          1 1 1 1 1 1 1 1 3.99728 3.99684 3.99592 3.99443
          3.99225 3.98922 3.98512 3.97972 3.97277 3.96397 3.95305 3.93973 3.92375 3.90488 3.88295 3.85782
          3.82943 3.79776 3.76283 3.72474 3.6836 3.63956 3.59282 3.54357 3.49202 3.43838 3.38287 3.3257
          3.26707 3.20717 3.1462 3.08433 3.02173 2.95856 2.89499 2.83116 2.76725 2.70344 2.63991 2.57694
          2.51485 2.4541 2.39538 2.33974 2.28879 2.24487 2.21102 2.1899 2.18163 2.18213 2.18554 2.18841
          2.19038 2.19185 2.193 2.19392 2.19465 2.19524 2.19572 2.19609 2.19639 2.19661 2.19676 2.19685
          2.19686 2.1968 2.19662 2.19626 2.19561 2.19444 2.19232 2.18852 2.18177 2.16993 2.14949 2.11496
          2.05835 1.96934 1.83796 1.66202 1.4586 1.26778 1.13014 1.05436 1.02067 1.00751 1.00267 1.00094
          1.00033 1.00011 1.00004 1.00001 1 1 1 1 1 1 1 1
          3.99728 3.99684 3.99592 3.99443 3.99225 3.98922 3.98512 3.97972 3.97277 3.96397 3.95305 3.93973
          3.92375 3.90488 3.88295 3.85782 3.82943 3.79776 3.76283 3.72474 3.6836 3.63956 3.59282 3.54357
          3.49202 3.43838 3.38287 3.3257 3.26707 3.20717 3.1462 3.08433 3.02173 2.95856 2.89499 2.83116
          2.76725 2.70344 2.63991 2.57694 2.51485 2.4541 2.39538 2.33974 2.28879 2.24487 2.21102 2.1899
          2.18163 2.18213 2.18554 2.18841 2.19038 2.19185 2.193 2.19392 2.19465 2.19524 2.19572 2.19609
          2.19639 2.19661 2.19676 2.19685 2.19686 2.1968 2.19662 2.19626 2.19561 2.19444 2.19232 2.18852
          2.18177 2.16993 2.14949 2.11496 2.05835 1.96934 1.83796 1.66202 1.4586 1.26778 1.13014 1.05436
          1.02067 1.00751 1.00267 1.00094 1.00033 1.00011 1.00004 1.00001 1 1 1 1
          1 1 1 1 3.99728 3.99684 3.99592 3.99443 3.99225 3.98922 3.98512 3.97972
          3.97277 3.96397 3.95305 3.93973 3.92375 3.90488 3.88295 3.85782 3.82943 3.79776 3.76283 3.72474
          3.6836 3.63956 3.59282 3.54357 3.49202 3.43838 3.38287 3.3257 3.26707 3.20717 3.1462 3.08433
          3.02173 2.95856 2.89499 2.83116 2.76725 2.70344 2.63991 2.57694 2.51485 2.4541 2.39538 2.33974
          2.28879 2.24487 2.21102 2.1899 2.18163 2.18213 2.18554 2.18841 2.19038 2.19185 2.193 2.19392
          2.19465 2.19524 2.19572 2.19609 2.19639 2.19661 2.19676 2.19685 2.19686 2.1968 2.19662 2.19626
          2.19561 2.19444 2.19232 2.18852 2.18177 2.16993 2.14949 2.11496 2.05835 1.96934 1.83796 1.66202
          1.4586 1.26778 1.13014 1.05436 1.02067 1.00751 1.00267 1.00094 1.00033 1.00011 1.00004 1.00001
          1 1 1 1 1 1 1 1 3.99728 3.99684 3.99592 3.99443
          3.99225 3.98922 3.98512 3.97972 3.97277 3.96397 3.95305 3.93973 3.92375 3.90488 3.88295 3.85782
          3.82943 3.79776 3.76283 3.72474 3.6836 3.63956 3.59282 3.54357 3.49202 3.43838 3.38287 3.3257
          3.26707 3.20717 3.1462 3.08433 3.02173 2.95856 2.89499 2.83116 2.76725 2.70344 2.63991 2.57694
          2.51485 2.4541 2.39538 2.33974 2.28879 2.24487 2.21102 2.1899 2.18163 2.18213 2.18554 2.18841
          2.19038 2.19185 2.193 2.19392 2.19465 2.19524 2.19572 2.19609 2.19639 2.19661 2.19676 2.19685
          2.19686 2.1968 2.19662 2.19626 2.19561 2.19444 2.19232 2.18852 2.18177 2.16993 2.14949 2.11496
          2.05835 1.96934 1.83796 1.66202 1.4586 1.26778 1.13014 1.05436 1.02067 1.00751 1.00267 1.00094
          1.00033 1.00011 1.00004 1.00001 1 1 1 1 1 1 1 1
          3.99728 3.99684 3.99592 3.99443 3.99225 3.98922 3.98512 3.97972 3.97277 3.96397 3.95305 3.93973
          3.92375 3.90488 3.88295 3.85782 3.82943 3.79776 3.76283 3.72474 3.6836 3.63956 3.59282 3.54357
          3.49202 3.43838 3.38287 3.3257 3.26707 3.20717 3.1462 3.08433 3.02173 2.95856 2.89499 2.83116
          2.76725 2.70344 2.63991 2.57694 2.51485 2.4541 2.39538 2.33974 2.28879 2.24487 2.21102 2.1899
          2.18163 2.18213 2.18554 2.18841 2.19038 2.19185 2.193 2.19392 2.19465 2.19524 2.19572 2.19609
          2.19639 2.19661 2.19676 2.19685 2.19686 2.1968 2.19662 2.19626 2.19561 2.19444 2.19232 2.18852
          2.18177 2.16993 2.14949 2.11496 2.05835 1.96934 1.83796 1.66202 1.4586 1.26778 1.13014 1.05436
          1.02067 1.00751 1.00267 1.00094 1.00033 1.00011 1.00004 1.00001 1 1 1 1
          1 1 1 1 3.99728 3.99684 3.99592 3.99443 3.99225 3.98922 3.98512 3.97972
          3.97277 3.96397 3.95305 3.93973 3.92375 3.90488 3.88295 3.85782 3.82943 3.79776 3.76283 3.72474
          3.6836 3.63956 3.59282 3.54357 3.49202 3.43838 3.38287 3.3257 3.26707 3.20717 3.1462 3.08433
          3.02173 2.95856 2.89499 2.83116 2.76725 2.70344 2.63991 2.57694 2.51485 2.4541 2.39538 2.33974
          2.28879 2.24487 2.21102 2.1899 2.18163 2.18213 2.18554 2.18841 2.19038 2.19185 2.193 2.19392
          2.19465 2.19524 2.19572 2.19609 2.19639 2.19661 2.19676 2.19685 2.19686 2.1968 2.19662 2.19626
          2.19561 2.19444 2.19232 2.18852 2.18177 2.16993 2.14949 2.11496 2.05835 1.96934 1.83796 1.66202
          1.4586 1.26778 1.13014 1.05436 1.02067 1.00751 1.00267 1.00094 1.00033 1.00011 1.00004 1.00001
          1 1 1 1 1 1 1 1 3.99728 3.99684 3.99592 3.99443
          3.99225 3.98922 3.98512 3.97972 3.97277 3.96397 3.95305 3.93973 3.92375 3.90488 3.88295 3.85782
          3.82943 3.79776 3.76283 3.72474 3.6836 3.63956 3.59282 3.54357 3.49202 3.43838 3.38287 3.3257
          3.26707 3.20717 3.1462 3.08433 3.02173 2.95856 2.89499 2.83116 2.76725 2.70344 2.63991 2.57694
          2.51485 2.4541 2.39538 2.33974 2.28879 2.24487 2.21102 2.1899 2.18163 2.18213 2.18554 2.18841
          2.19038 2.19185 2.193 2.19392 2.19465 2.19524 2.19572 2.19609 2.19639 2.19661 2.19676 2.19685
          2.19686 2.1968 2.19662 2.19626 2.19561 2.19444 2.19232 2.18852 2.18177 2.16993 2.14949 2.11496
          2.05835 1.96934 1.83796 1.66202 1.4586 1.26778 1.13014 1.05436 1.02067 1.00751 1.00267 1.00094
          1.00033 1.00011 1.00004 1.00001 1 1 1 1 1 1 1 1
          3.99728 3.99684 3.99592 3.99443 3.99225 3.98922 3.98512 3.97972 3.97277 3.96397 3.95305 3.93973
          3.92375 3.90488 3.88295 3.85782 3.82943 3.79776 3.76283 3.72474 3.6836 3.63956 3.59282 3.54357
          3.49202 3.43838 3.38287 3.3257 3.26707 3.20717 3.1462 3.08433 3.02173 2.95856 2.89499 2.83116
          2.76725 2.70344 2.63991 2.57694 2.51485 2.4541 2.39538 2.33974 2.28879 2.24487 2.21102 2.1899
          2.18163 2.18213 2.18554 2.18841 2.19038 2.19185 2.193 2.19392 2.19465 2.19524 2.19572 2.19609
          2.19639 2.19661 2.19676 2.19685 2.19686 2.1968 2.19662 2.19626 2.19561 2.19444 2.19232 2.18852
          2.18177 2.16993 2.14949 2.11496 2.05835 1.96934 1.83796 1.66202 1.4586 1.26778 1.13014 1.05436
          1.02067 1.00751 1.00267 1.00094 1.00033 1.00011 1.00004 1.00001 1 1 1 1
          1 1 1 1
        </DataArray>
        <DataArray type="Float32" Name="velocityX" NumberOfComponents="1" format="ascii">
          0.00088216 0.00276276 0.00499855 0.00784698 0.0115944 0.0165637 0.0231175 0.031658 0.0426198 0.0564599 0.0736425 0.0946208
          0.119819 0.149616 0.184326 0.224193 0.269383 0.319982 0.375999 0.437375 0.503991 0.575678 0.65223 0.733412
          0.818973 0.908651 1.00218 1.0993 1.19976 1.3033 1.40969 1.5187 1.63011 1.7437 1.85926 1.97655
          2.09534 2.21534 2.33621 2.4575 2.57858 2.69851 2.81587 2.92845 3.03277 3.12361 3.19422 3.2384
          3.25551 3.25401 3.24634 3.23977 3.2351 3.23145 3.22845 3.22593 3.22375 3.22183 3.22011 3.21854
          3.21709 3.21574 3.21445 3.2132 3.21195 3.21066 3.20926 3.20758 3.20536 3.20212 3.19695 3.18828
          3.17339 3.14765 3.10341 3.02834 2.90356 2.70239 2.39324 1.95383 1.40472 0.844974 0.415066 0.172607
          0.0651892 0.023571 0.00836565 0.00294208 0.00102851 0.0003577 0.000123757 4.25824e-05 1.45653e-05 4.95052e-06 1.67125e-06 5.60155e-07
          1.86285e-07 6.12949e-08 1.94647e-08 4.43291e-09 0.00088216 0.00276276 0.00499855 0.00784698 0.0115944 0.0165637 0.0231175 0.031658
          0.0426198 0.0564599 0.0736425 0.0946208 0.119819 0.149616 0.184326 0.224193 0.269383 0.319982 0.375999 0.437375
          0.503991 0.575678 0.65223 0.733412 0.818973 0.908651 1.00218 1.0993 1.19976 1.3033 1.40969 1.5187
          1.63011 1.7437 1.85926 1.97655 2.09534 2.21534 2.33621 2.4575 2.57858 2.69851 2.81587 2.92845
          3.03277 3.12361 3.19422 3.2384 3.25551 3.25401 3.24634 3.23977 3.2351 3.23145 3.22845 3.22593
          3.22375 3.22183 3.22011 3.21854 3.21709 3.21574 3.21445 3.2132 3.21195 3.21066 3.20926 3.20758
          3.20536 3.20212 3.19695 3.18828 3.17339 3.14765 3.10341 3.02834 2.90356 2.70239 2.39324 1.95383
          1.40472 0.844974 0.415066 0.172607 0.0651892 0.023571 0.00836565 0.00294208 0.00102851 0.0003577 0.000123757 4.25824e-05
          1.45653e-05 4.95052e-06 1.67125e-06 5.60155e-07 1.86285e-07 6.12949e-08 1.94647e-08 4.43291e-09 0.00088216 0.00276276 0.00499855 0.00784698
          0.0115944 0.0165637 0.0231175 0.031658 0.0426198 0.0564599 0.0736425 0.0946208 0.119819 0.149616 0.184326 0.224193
          0.269383 0.319982 0.375999 0.437375 0.503991 0.575678 0.65223 0.733412 0.818973 0.908651 1.00218 1.0993
          1.19976 1.3033 1.40969 1.5187 1.63011 1.7437 1.85926 1.97655 2.09534 2.21534 2.33621 2.4575
          2.57858 2.69851 2.81587 2.92845 3.03277 3.12361 3.19422 3.2384 3.25551 3.25401 3.24634 3.23977
          3.2351 3.23145 3.22845 3.22593 3.22375 3.22183 3.22011 3.21854 3.21709 3.21574 3.21445 3.2132
          3.21195 3.21066 3.20926 3.20758 3.20536 3.20212 3.19695 3.18828 3.17339 3.14765 3.10341 3.02834
          2.90356 2.70239 2.39324 1.95383 1.40472 0.844974 0.415066 0.172607 0.0651892 0.023571 0.00836565 0.00294208
          0.00102851 0.0003577 0.000123757 4.25824e-05 1.45653e-05 4.95052e-06 1.67125e-06 5.60155e-07 1.86285e-07 6.12949e-08 1.94647e-08 4.43291e-09
          0.00088216 0.00276276 0.00499855 0.00784698 0.0115944 0.0165637 0.0231175 0.031658 0.0426198 0.0564599 0.0736425 0.0946208
          0.119819 0.149616 0.184326 0.224193 0.269383 0.319982 0.375999 0.437375 0.503991 0.575678 0.65223 0.733412
          0.818973 0.908651 1.00218 1.0993 1.19976 1.3033 1.40969 1.5187 1.63011 1.7437 1.85926 1.97655
          2.09534 2.21534 2.33621 2.4575 2.57858 2.69851 2.81587 2.92845 3.03277 3.12361 3.19422 3.2384
          3.25551 3.25401 3.24634 3.23977 3.2351 3.23145 3.22845 3.22593 3.22375 3.22183 3.22011 3.21854
          3.21709 3.21574 3.21445 3.2132 3.21195 3.21066 3.20926 3.20758 3.20536 3.20212 3.19695 3.18828
          3.17339 3.14765 3.10341 3.02834 2.90356 2.70239 2.39324 1.95383 1.40472 0.844974 0.415066 0.172607
          0.0651892 0.023571 0.00836565 0.00294208 0.00102851 0.0003577 0.000123757 4.25824e-05 1.45653e-05 4.95052e-06 1.67125e-06 5.60155e-07
          1.86285e-07 6.12949e-08 1.94647e-08 4.43291e-09 0.00088216 0.00276276 0.00499855 0.00784698 0.0115944 0.0165637 0.0231175 0.031658
          0.0426198 0.0564599 0.0736425 0.0946208 0.119819 0.149616 0.184326 0.224193 0.269383 0.319982 0.375999 0.437375
          0.503991 0.575678 0.65223 0.733412 0.818973 0.908651 1.00218 1.0993 1.19976 1.3033 1.40969 1.5187
          1.63011 1.7437 1.85926 1.97655 2.09534 2.21534 2.33621 2.4575 2.57858 2.69851 2.81587 2.92845
          3.03277 3.12361 3.19422 3.2384 3.25551 3.25401 3.24634 3.23977 3.2351 3.23145 3.22845 3.22593
          3.22375 3.22183 3.22011 3.21854 3.21709 3.21574 3.21445 3.2132 3.21195 3.21066 3.20926 3.20758
          3.20536 3.20212 3.19695 3.18828 3.17339 3.14765 3.10341 3.02834 2.90356 2.70239 2.39324 1.95383
          1.40472 0.844974 0.415066 0.172607 0.0651892 0.023571 0.00836565 0.00294208 0.00102851 0.0003577 0.000123757 4.25824e-05
          1.45653e-05 4.95052e-06 1.67125e-06 5.60155e-07 1.86285e-07 6.12949e-08 1.94647e-08 4.43291e-09 0.00088216 0.00276276 0.00499855 0.00784698
          0.0115944 0.0165637 0.0231175 0.031658 0.0426198 0.0564599 0.0736425 0.0946208 0.119819 0.149616 0.184326 0.224193
          0.269383 0.319982 0.375999 0.437375 0.503991 0.575678 0.65223 0.733412 0.818973 0.908651 1.00218 1.0993
          1.19976 1.3033 1.40969 1.5187 1.63011 1.7437 1.85926 1.97655 2.09534 2.21534 2.33621 2.4575
          2.57858 2.69851 2.81587 2.92845 3.03277 3.12361 3.19422 3.2384 3.25551 3.25401 3.24634 3.23977
          3.2351 3.23145 3.22845 3.22593 3.22375 3.22183 3.22011 3.21854 3.21709 3.21574 3.21445 3.2132
          3.21195 3.21066 3.20926 3.20758 3.20536 3.20212 3.19695 3.18828 3.17339 3.14765 3.10341 3.02834
          2.90356 2.70239 2.39324 1.95383 1.40472 0.844974 0.415066 0.172607 0.0651892 0.023571 0.00836565 0.00294208
          0.00102851 0.0003577 0.000123757 4.25824e-05 1.45653e-05 4.95052e-06 1.67125e-06 5.60155e-07 1.86285e-07 6.12949e-08 1.94647e-08 4.43291e-09
          0.00088216 0.00276276 0.00499855 0.00784698 0.0115944 0.0165637 0.0231175 0.031658 0.0426198 0.0564599 0.0736425 0.0946208
          0.119819 0.149616 0.184326 0.224193 0.269383 0.319982 0.375999 0.437375 0.503991 0.575678 0.65223 0.733412
          0.818973 0.908651 1.00218 1.0993 1.19976 1.3033 1.40969 1.5187 1.63011 1.7437 1.85926 1.97655
          2.09534 2.21534 2.33621 2.4575 2.57858 2.69851 2.81587 2.92845 3.03277 3.12361 3.19422 3.2384
          3.25551 3.25401 3.24634 3.23977 3.2351 3.23145 3.22845 3.22593 3.22375 3.22183 3.22011 3.21854
          3.21709 3.21574 3.21445 3.2132 3.21195 3.21066 3.20926 3.20758 3.20536 3.20212 3.19695 3.18828
          3.17339 3.14765 3.10341 3.02834 2.90356 2.70239 2.39324 1.95383 1.40472 0.844974 0.415066 0.172607
          0.0651892 0.023571 0.00836565 0.00294208 0.00102851 0.0003577 0.000123757 4.25824e-05 1.45653e-05 4.95052e-06 1.67125e-06 5.60155e-07
          1.86285e-07 6.12949e-08 1.94647e-08 4.43291e-09 0.00088216 0.00276276 0.00499855 0.00784698 0.0115944 0.0165637 0.0231175 0.031658
          0.0426198 0.0564599 0.0736425 0.0946208 0.119819 0.149616 0.184326 0.224193 0.269383 0.319982 0.375999 0.437375
          0.503991 0.575678 0.65223 0.733412 0.818973 0.908651 1.00218 1.0993 1.19976 1.3033 1.40969 1.5187
          1.63011 1.7437 1.85926 1.97655 2.09534 2.21534 2.33621 2.4575 2.57858 2.69851 2.81587 2.92845
          3.03277 3.12361 3.19422 3.2384 3.25551 3.25401 3.24634 3.23977 3.2351 3.23145 3.22845 3.22593
          3.22375 3.22183 3.22011 3.21854 3.21709 3.21574 3.21445 3.2132 3.21195 3.21066 3.20926 3.20758
          3.20536 3.20212 3.19695 3.18828 3.17339 3.14765 3.10341 3.02834 2.90356 2.70239 2.39324 1.95383
          1.40472 0.844974 0.415066 0.172607 0.0651892 0.023571 0.00836565 0.00294208 0.00102851 0.0003577 0.000123757 4.25824e-05
          1.45653e-05 4.95052e-06 1.67125e-06 5.60155e-07 1.86285e-07 6.12949e-08 1.94647e-08 4.43291e-09 0.00088216 0.00276276 0.00499855 0.00784698
          0.0115944 0.0165637 0.0231175 0.031658 0.0426198 0.0564599 0.0736425 0.0946208 0.119819 0.149616 0.184326 0.224193
          0.269383 0.319982 0.375999 0.437375 0.503991 0.575678 0.65223 0.733412 0.818973 0.908651 1.00218 1.0993
          1.19976 1.3033 1.40969 1.5187 1.63011 1.7437 1.85926 1.97655 2.09534 2.21534 2.33621 2.4575
          2.57858 2.69851 2.81587 2.92845 3.03277 3.12361 3.19422 3.2384 3.25551 3.25401 3.24634 3.23977
          3.2351 3.23145 3.22845 3.22593 3.22375 3.22183 3.22011 3.21854 3.21709 3.21574 3.21445 3.2132
          3.21195 3.21066 3.20926 3.20758 3.20536 3.20212 3.19695 3.18828 3.17339 3.14765 3.10341 3.02834
          2.90356 2.70239 2.39324 1.95383 1.40472 0.844974 0.415066 0.172607 0.0651892 0.023571 0.00836565 0.00294208
          0.00102851 0.0003577 0.000123757 4.25824e-05 1.45653e-05 4.95052e-06 1.67125e-06 5.60155e-07 1.86285e-07 6.12949e-08 1.94647e-08 4.43291e-09
          0.00088216 0.00276276 0.00499855 0.00784698 0.0115944 0.0165637 0.0231175 0.031658 0.0426198 0.0564599 0.0736425 0.0946208