<?xml version="1.0"?>
<VTKFile type="UnstructuredGrid" version="0.1" byte_order="LittleEndian">
  <UnstructuredGrid>
    <Piece NumberOfCells="3200" NumberOfPoints="1681">
      <CellData Scalars="rank" Vectors="velocity">
        <DataArray type="Float32" Name="velocity" NumberOfComponents="3" format="ascii">
          6.24555e-06 -1.43191e-06 0 1.42738e-06 -6.25008e-06 0 3.45265e-05 -1.70051e-05 0 1.69885e-05 -3.45431e-05 0
          2.97178e-05 -3.29339e-06 0 9.91384e-05 -2.57393e-05 0 6.84135e-05 -4.73886e-06 0 9.92437e-05 -7.72733e-05 0
          0.000238113 -0.000112611 0 3.28283e-06 -2.97284e-05 0 2.57107e-05 -9.91672e-05 0 7.72326e-05 -9.92845e-05 0
          4.72228e-06 -6.84302e-05 0 0.000112546 -0.000238178 0 0.000224289 -0.000157299 0 0.000157228 -0.00022436 0
          0.000380286 -0.000328442 0 0.000328329 -0.0003804 0 0.000119685 -5.86408e-06 0 0.000190067 -3.27473e-05 0
          0.000180991 -6.71721e-06 0 0.000302289 -3.82006e-05 0 0.000423746 -0.000141128 0 0.000646759 -0.000163305 0
          0.000249925 -7.32935e-06 0 0.000431032 -4.22279e-05 0 0.000571807 -4.49401e-05 0 0.000898286 -0.000179581 0
          0.000432256 -0.000204612 0 0.00067889 -0.000412734 0 0.000689503 -0.000241949 0 0.00103787 -0.000478481 0
          0.000633958 -0.000496753 0 0.00101225 -0.000588823 0 0.000985024 -0.00026998 0 0.00144293 -0.000526886 0
          0.00130846 -0.00028934 0 0.00144697 -0.000658149 0 0.00192287 -0.000706234 0 5.84151e-06 -0.000119708 0
          3.27067e-05 -0.000190108 0 0.000141039 -0.000423835 0 3.81479e-05 -0.000302342 0 6.68868e-06 -0.00018102 0
          0.000163193 -0.000646872 0 0.000204511 -0.000432357 0 0.000412578 -0.000679046 0 0.000496591 -0.00063412 0
          0.000241818 -0.000689635 0 0.000478284 -0.00103807 0 0.000588614 -0.00101246 0 4.21634e-05 -0.000431098 0
          7.29489e-06 -0.00024996 0 0.000179445 -0.000898425 0 4.48638e-05 -0.000571884 0 0.00026982 -0.000985187 0
          0.000526647 -0.00144317 0 0.000657892 -0.00144723 0 0.00028915 -0.00130866 0 0.000705929 -0.00192318 0
          0.000887878 -0.000797742 0 0.00079752 -0.0008881 0 0.00127415 -0.00105371 0 0.00135844 -0.000925523 0
          0.00105342 -0.00127444 0 0.000925241 -0.00135872 0 0.00161252 -0.00147916 0 0.00147879 -0.00161289 0
          0.00182197 -0.00117857 0 0.00188948 -0.00101972 0 0.00242175 -0.00126532 0 0.00224355 -0.00163019 0
          0.00211511 -0.00180463 0 0.00281182 -0.00193798 0 0.00117821 -0.00182233 0 0.00101938 -0.00188983 0
          0.00180418 -0.00211556 0 0.00162974 -0.002244 0 0.0012649 -0.00242218 0 0.00193744 -0.00281236 0
          0.00251074 -0.00233198 0 0.00233143 -0.00251129 0 0.00309976 -0.00269729 0 0.00269664 -0.00310041 0
          0.000324225 -7.72417e-06 0 0.000720409 -4.64391e-05 0 0.000401782 -7.92157e-06 0 0.00117 -0.00019037 0
          0.00145413 -0.000196074 0 0.000480636 -7.93933e-06 0 0.000872929 -4.68218e-05 0 0.00055898 -7.7939e-06 0
          0.00102575 -4.6182e-05 0 0.00174345 -0.000197087 0 0.0020313 -0.000193797 0 0.00165014 -0.000300648 0
          0.00188063 -0.000559122 0 0.00233843 -0.000576346 0 0.00242568 -0.000734561 0 0.00200102 -0.000304511 0
          0.0028047 -0.000579705 0 0.00235279 -0.00030153 0 0.00326868 -0.000570336 0 0.00294213 -0.000744602 0
          0.00345993 -0.000737819 0 0.000635162 -7.50091e-06 0 0.00117556 -4.46118e-05 0 0.00131933 -4.22019e-05 0
          0.00231159 -0.000186592 0 0.000707681 -7.07542e-06 0 0.00145433 -3.90421e-05 0 0.000775189 -6.53211e-06 0
          0.00257876 -0.000175853 0 0.00282785 -0.000161965 0 0.00269779 -0.0002923 0 0.00372055 -0.000549372 0
          0.00302904 -0.000277415 0 0.00396783 -0.000715666 0 0.00445555 -0.000679595 0 0.00334027 -0.000257466 0
          0.00415136 -0.000517945 0 0.0045531 -0.000477181 0 0.00491384 -0.000631054 0 0.00246339 -0.00108258 0
          0.0030555 -0.0013166 0 0.00306372 -0.00111632 0 0.00292557 -0.00173108 0 0.00354801 -0.00201695 0
          0.00363901 -0.00178536 0 0.00367518 -0.00112314 0 0.00370646 -0.00133504 0 0.00435917 -0.00132325 0
          0.0042837 -0.00110525 0 0.00436572 -0.00179655 0 0.00430424 -0.00204556 0 0.00508895 -0.00176816 0
          0.00506252 -0.00202779 0 0.00327443 -0.00247665 0 0.00391166 -0.00280756 0 0.00407333 -0.00255459 0
          0.00351724 -0.00329305 0 0.0043757 -0.00339694 0 0.00488711 -0.00257085 0 0.00474567 -0.00284769 0
          0.00569702 -0.00253043 0 0.00558197 -0.00282321 0 0.00525018 -0.00341877 0 0.0061205 -0.0033652 0
          0.00499943 -0.00128383 0 0.00487637 -0.00106484 0 0.00561428 -0.0012194 0 0.00579337 -0.0017037 0
          0.00580634 -0.00196765 0 0.00652069 -0.00186911 0 0.00544147 -0.0010041 0 0.00619207 -0.00113254 0
          0.00596847 -0.000925215 0 0.00646505 -0.00160668 0 0.00719198 -0.00173617 0 0.00709148 -0.00148058 0
          0.00648588 -0.00243835 0 0.00640233 -0.0027397 0 0.0071902 -0.00260269 0 0.00696822 -0.00324291 0
          0.00723809 -0.00229964 0 0.0079306 -0.00241773 0 0.00793964 -0.00211928 0 0.00777657 -0.00305856 0
          0.0085305 -0.0028188 0 7.68383e-06 -0.000324266 0 4.63512e-05 -0.000720499 0 0.00019021 -0.00117017 0
          7.87541e-06 -0.000401829 0 0.000195891 -0.00145432 0 0.000558842 -0.00188091 0 0.000300429 -0.00165036 0
          0.00073421 -0.00242604 0 0.000576026 -0.00233876 0 7.88741e-06 -0.000480689 0 4.67223e-05 -0.000873032 0
          0.000196881 -0.00174367 0 4.60711e-05 -0.00102587 0 7.73629e-06 -0.000559041 0 0.000193568 -0.00203154 0
          0.000304263 -0.00200128 0 0.000579344 -0.00280507 0 0.000744205 -0.00294254 0 0.000301253 -0.00235308 0
          0.000569935 -0.0032691 0 0.000737376 -0.00346039 0 0.00108218 -0.0024638 0 0.00131612 -0.00305599 0
          0.00173056 -0.00292609 0 0.00201634 -0.00354863 0 0.00111586 -0.00306418 0 0.00178476 -0.00363961 0
          0.002476 -0.00327507 0 0.00280681 -0.00391242 0 0.00329228 -0.00351801 0 0.00255386 -0.00407407 0
          0.00339606 -0.00437659 0 0.00133449 -0.00370702 0 0.00112263 -0.00367571 0 0.00179587 -0.00436641 0
          0.00204486 -0.00430495 0 0.00132264 -0.00435981 0 0.00110468 -0.0042843 0 0.00202702 -0.00506332 0
          0.00176741 -0.00508972 0 0.00257002 -0.00488796 0 0.00284684 -0.00474653 0 0.00341778 -0.00525118 0
          0.00282227 -0.00558294 0 0.00252951 -0.00569797 0 0.00336411 -0.00612163 0 4.44895e-05 -0.00117569 0
          7.43768e-06 -0.000635229 0 0.00018634 -0.00231185 0 4.20684e-05 -0.00131947 0 0.000291994 -0.00269811 0
          0.000548932 -0.00372101 0 0.000715177 -0.00396834 0 0.000277082 -0.00302939 0 0.000679062 -0.00445611 0
          7.00664e-06 -0.000707754 0 3.88976e-05 -0.00145449 0 0.00017558 -0.00257905 0 6.45787e-06 -0.00077527 0
          0.000161669 -0.00282817 0 0.000517466 -0.00415187 0 0.000257105 -0.00334065 0 0.000630477 -0.00491446 0
          0.000476664 -0.00455366 0 0.00128316 -0.00500013 0 0.00106421 -0.00487703 0 0.00196679 -0.00580724 0
          0.00170288 -0.00579423 0 0.00121866 -0.00561506 0 0.00186818 -0.00652167 0 0.00273865 -0.00640342 0
          0.00243734 -0.00648693 0 0.00324171 -0.00696947 0 0.00260155 -0.00719139 0 0.00100341 -0.0054422 0
          0.00113174 -0.00619292 0 0.00160578 -0.00646599 0 0.00173516 -0.00719306 0 0.000924475 -0.00596927 0
          0.00147962 -0.00709251 0 0.00229854 -0.00723925 0 0.0024165 -0.00793191 0 0.00305725 -0.00777794 0
          0.0021181 -0.00794091 0 0.00281739 -0.008532 0 0.00415487 -0.00366214 0 0.00366126 -0.00415576 0
          0.00455515 -0.0042871 0 0.00428608 -0.00455617 0 0.00504098 -0.00371474 0 0.00546573 -0.00431484 0
          0.00592952 -0.00368304 0 0.00637199 -0.0042474 0 0.00520037 -0.00462183 0 0.00611719 -0.00458259 0
          0.00371374 -0.00504199 0 0.00431369 -0.00546688 0 0.00462068 -0.00520153 0 0.00368192 -0.00593066 0
          0.00424612 -0.00637329 0 0.0045813 -0.0061185 0 0.00554456 -0.00523536 0 0.00523405 -0.00554587 0
          0.00615697 -0.00549896 0 0.00646409 -0.00515368 0 0.00549749 -0.00615844 0 0.00515223 -0.00646556 0
          0.00640938 -0.00606249 0 0.00606086 -0.00641101 0 0.00680116 -0.00357428 0 0.00725474 -0.00409319 0
          0.00763827 -0.0033957 0 0.00701658 -0.00444744 0 0.00788035 -0.00422539 0 0.00842497 -0.00315454 0
          0.0080965 -0.00386062 0 0.0088816 -0.0035581 0 0.00869211 -0.00392543 0 0.00706235 -0.00533693 0
          0.00735975 -0.0049667 0 0.00793189 -0.0050706 0 0.00729761 -0.00584266 0 0.00695224 -0.00622225 0
          0.00780834 -0.00591187 0 0.00821385 -0.00468461 0 0.00874908 -0.00471077 0 0.00901046 -0.00431763 0
          0.00814462 -0.00551093 0 0.00861291 -0.00549244 0 0.00893464 -0.00507931 0 0.00357305 -0.00680243 0
          0.00409179 -0.00725617 0 0.00444602 -0.00701803 0 0.00339436 -0.00763967 0 0.00422384 -0.00788195 0
          0.00533532 -0.00706398 0 0.0049651 -0.00736138 0 0.00622045 -0.00695405 0 0.00584087 -0.00729942 0
          0.00506885 -0.00793369 0 0.0059099 -0.00781034 0 0.0038591 -0.00809808 0 0.00315309 -0.0084265 0
          0.00392376 -0.00869387 0 0.00355646 -0.00888332 0 0.00468288 -0.00821564 0 0.00470887 -0.00875105 0
          0.00550898 -0.00814661 0 0.00549032 -0.0086151 0 0.00431576 -0.00901242 0 0.00507721 -0.00893682 0
          0.00708263 -0.006702 0 0.00670001 -0.00708463 0 0.00752516 -0.00673134 0 0.00672916 -0.00752735 0
          0.00790481 -0.00632158 0 0.00830065 -0.00625388 0 0.00867169 -0.00582656 0 0.00751042 -0.00710018 0
          0.00823914 -0.00654428 0 0.00631942 -0.00790701 0 0.00625152 -0.00830305 0 0.00709779 -0.00751281 0
          0.00582422 -0.00867408 0 0.0065417 -0.00824175 0 0.00782934 -0.00698003 0 0.00697744 -0.00783195 0
          0.00765454 -0.00721884 0 0.00721603 -0.00765736 0 0.000836495 -5.88541e-06 0 0.00157815 -3.52216e-05 0
          0.000890559 -5.14953e-06 0 0.00168865 -3.08294e-05 0 0.00305444 -0.000145308 0 0.00325469 -0.000126262 0
          0.000936496 -4.33857e-06 0 0.001784 -2.59541e-05 0 0.00186268 -2.06838e-05 0 0.00342532 -0.000105208 0
          0.00362586 -0.000233043 0 0.00491865 -0.000428207 0 0.00388092 -0.000204734 0 0.0052418 -0.000372148 0
          0.00533445 -0.000571491 0 0.00571015 -0.000502349 0 0.00410121 -0.000173128 0 0.00551725 -0.000310127 0
          0.00428318 -0.000138812 0 0.0060347 -0.000425073 0 0.0063029 -0.000341107 0 0.000973575 -3.46655e-06 0
          0.00192344 -1.51069e-05 0 0.00100122 -2.54739e-06 0 0.0035636 -8.25249e-05 0 0.00366738 -5.85926e-05 0
          0.001019 -1.59499e-06 0 0.00196535 -9.3114e-06 0 0.00102666 -6.23236e-07 0 0.00198779 -3.38539e-06 0
          0.00373507 -3.37899e-05 0 0.00376566 -8.49615e-06 0 0.00442399 -0.000102374 0 0.00574062 -0.000243269 0
          0.00590842 -0.000172696 0 0.00651052 -0.000251892 0 0.00452147 -6.43991e-05 0 0.00601808 -9.95305e-05 0
          0.00457414 -2.54755e-05 0 0.00606795 -2.4896e-05 0 0.00665439 -0.000158871 0 0.0067323 -6.34861e-05 0
          0.00644805 -0.000830371 0 0.00672239 -0.00102585 0 0.00719611 -0.000901935 0 0.00687205 -0.000721753 0
          0.00766156 -0.00132892 0 0.00780815 -0.00157279 0 0.00816561 -0.00115518 0 0.00835859 -0.00138297 0
          0.00760539 -0.00076338 0 0.00723353 -0.000601542 0 0.00794365 -0.000612781 0 0.00859538 -0.000962864 0
          0.00883417 -0.00117067 0 0.00922726 -0.000939879 0 0.00857812 -0.0019023 0 0.00861022 -0.00219037 0
          0.00914266 -0.0016537 0 0.00921736 -0.00192615 0 0.00921666 -0.0025303 0 0.00982339 -0.00219972 0
          0.00962403 -0.00137847 0 0.00974196 -0.0016306 0 0.0101756 -0.00130927 0 0.0103407 -0.0018337 0
          0.00752672 -0.00047192 0 0.00820557 -0.000452729 0 0.00774706 -0.000335068 0 0.008944 -0.000755459 0
          0.00953168 -0.000694566 0 0.00920606 -0.000536461 0 0.00789118 -0.000193167 0 0.00838713 -0.000285816 0
          0.00848558 -0.000114632 0 0.00795689 -4.83974e-05 0 0.00937753 -0.000309361 0 0.00974276 -0.000438709 0
          0.00945584 -7.76529e-05 0 0.0098573 -0.000176282 0 0.0100146 -0.00108162 0 0.0105114 -0.000967696 0
          0.0103081 -0.000768161 0 0.0107605 -0.00143891 0 0.0110761 -0.00102199 0 0.0105003 -0.000443084 0
          0.0107443 -0.000611414 0 0.0105882 -0.000111393 0 0.0108708 -0.000245963 0 0.0112827 -0.000589616 0
          0.0113772 -0.000148427 0 0.00102408 3.54032e-07 0 0.0019904 2.58315e-06 0 0.00197315 8.50623e-06 0
          0.00375867 1.69097e-05 0 0.00101129 1.32295e-06 0 0.0019363 1.42959e-05 0 0.000988488 2.26967e-06 0
          0.00371422 4.20487e-05 0 0.00363297 6.65417e-05 0 0.00458121 1.38104e-05 0 0.00605728 5.00854e-05 0
          0.00454257 5.28721e-05 0 0.0067431 3.28206e-05 0 0.00668663 0.000128607 0 0.0044588 9.11229e-05 0
          0.00598623 0.000124291 0 0.00585588 0.000196599 0 0.00656373 0.000222432 0 0.000956027 3.18028e-06 0
          0.00188042 1.9864e-05 0 0.000914405 4.04087e-06 0 0.00180635 2.51225e-05 0 0.00351617 9.00095e-05 0
          0.00336562 0.000112073 0 0.000864277 4.83746e-06 0 0.00171525 2.99833e-05 0 0.00160858 3.4358e-05 0
          0.00318367 0.000132352 0 0.00433118 0.000127976 0 0.0056682 0.000265886 0 0.00416166 0.000162844 0
          0.00542609 0.000331029 0 0.00637626 0.000312853 0 0.00612711 0.000398428 0 0.00395289 0.000195141 0
          0.00513337 0.000390905 0 0.0037082 0.000224279 0 0.00582017 0.000477713 0 0.00546032 0.000549267 0
          0.00849943 5.82318e-05 0 0.00794322 9.7061e-05 0 0.00842849 0.000230183 0 0.00943981 0.000155172 0
          0.00987356 8.874e-05 0 0.00979131 0.000352382 0 0.00785037 0.000241027 0 0.00827381 0.000398632 0
          0.00767974 0.000381322 0 0.00932967 0.000385621 0 0.00961179 0.000610668 0 0.0091271 0.000610202 0
          0.0105704 0.000221909 0 0.0108888 0.000123119 0 0.0107983 0.000490295 0 0.0113582 0.00029492 0
          0.0104472 0.000551823 0 0.0106004 0.000850026 0 0.0102205 0.000873346 0 0.011226 0.00073377 0
          0.0109826 0.00116147 0 0.00743392 0.000515763 0 0.00803775 0.000560986 0 0.00772392 0.000714655 0
          0.00711672 0.00064217 0 0.00883517 0.000825423 0 0.00933772 0.000859625 0 0.0084584 0.00102779 0
          0.00897331 0.00109528 0 0.00733723 0.000857046 0 0.00673311 0.000758362 0 0.00688384 0.000985567 0
          0.00800268 0.00121381 0 0.00852424 0.00131365 0 0.00799768 0.00151076 0 0.00989378 0.00118148 0
          0.0102983 0.00119678 0 0.00947202 0.00147121 0 0.00989652 0.001525 0 0.0106316 0.00157136 0
          0.0101785 0.0019568 0 0.00896185 0.00173755 0 0.00940139 0.00182917 0 0.00882078 0.00210375 0
          0.00963041 0.00231111 0 0.00914709 -0.00285802 0 0.00959614 -0.00319403 0 0.00979222 -0.00251338 0
          0.010228 -0.00277682 0 0.00943726 -0.00355657 0 0.010103 -0.00312781 0 0.0103497 -0.00212785 0
          0.0107668 -0.00231486 0 0.0108105 -0.00170865 0 0.0106782 -0.00264814 0 0.0111537 -0.00212656 0
          0.00973549 -0.00387593 0 0.00949922 -0.00426823 0 0.0101694 -0.00375378 0 0.0103766 -0.00336973 0
          0.00965369 -0.00455979 0 0.00935148 -0.00497657 0 0.0102895 -0.00396436 0 0.0100113 -0.00437685 0
          0.0107485 -0.00317821 0 0.0109234 -0.00280922 0 0.0112273 -0.00255234 0 0.0108318 -0.00330503 0
          0.0105815 -0.00370585 0 0.0110529 -0.00297618 0 0.0111674 -0.00126302 0 0.0112039 -0.00181656 0
          0.0115326 -0.00129033 0 0.0115221 -0.00157206 0 0.0114149 -0.00079818 0 0.0117479 -0.000744551 0
          0.0115494 -0.000321356 0 0.0118464 -0.000187641 0 0.0117776 -0.000993643 0 0.0119164 -0.000400299 0
          0.011367 -0.0022046 0 0.0115981 -0.00188694 0 0.0117006 -0.00156606 0 0.0112718 -0.00259379 0
          0.0114181 -0.00220041 0 0.0116027 -0.00184263 0 0.011919 -0.000903791 0 0.0118554 -0.00119283 0
          0.0119952 -0.000480783 0 0.0120191 -0.000227999 0 0.0118194 -0.00106355 0 0.0116715 -0.00139114 0
          0.0119187 -0.000268543 0 0.0118092 -0.000560958 0 0.00936967 -0.0052307 0 0.00901254 -0.00566659 0
          0.00998691 -0.00454775 0 0.00964856 -0.00498381 0 0.0089024 -0.0058751 0 0.00948894 -0.0051081 0
          0.0105133 -0.00379148 0 0.0101982 -0.00421986 0 0.0106526 -0.00338909 0 0.00998916 -0.00425874 0
          0.00850089 -0.00632464 0 0.00827083 -0.00648078 0 0.0091009 -0.00556266 0 0.00881585 -0.0056348 0
          0.00783506 -0.00693848 0 0.00838815 -0.00610264 0 0.0096194 -0.00471009 0 0.00928068 -0.00469795 0
          0.0100481 -0.00378291 0 0.00886613 -0.0051674 0 0.00926133 -0.00415031 0 0.0109404 -0.00297565 0
          0.0110046 -0.00250582 0 0.0112617 -0.00211402 0 0.0103951 -0.00334247 0 0.0107004 -0.00237474 0
          0.0114721 -0.00122035 0 0.0112489 -0.00158438 0 0.0115686 -0.000308396 0 0.0113817 -0.000639128 0
          0.0109005 -0.00137102 0 0.0109922 -0.000346755 0 0.0103802 -0.00279712 0 0.0096579 -0.00368729 0
          0.00994164 -0.00261986 0 0.00956754 -0.00306892 0 0.0106107 -0.00176874 0 0.0101276 -0.00151271 0
          0.0107361 -0.000713754 0 0.0102129 -0.000382897 0 0.00978005 -0.00194078 0 0.00989566 -0.00078345 0
          0.0115687 0.000160221 0 0.0118267 0.000372006 0 0.0114725 0.000639325 0 0.0119364 0.000198975 0
          0.0118373 0.000795184 0 0.0112624 0.00110873 0 0.0116892 0.000925987 0 0.0114358 0.0014659 0
          0.0116206 0.00137933 0 0.0120154 0.00023839 0 0.0119992 0.000451125 0 0.0119158 0.000953896 0
          0.0118991 0.000530391 0 0.0118292 0.000277549 0 0.0117312 0.00111179 0 0.0118598 0.00112338 0
          0.0116977 0.00165494 0 0.0116028 0.00177858 0 0.0117609 0.00132126 0 0.0115166 0.00192919 0
          0.0115061 0.00209207 0 0.0109416 0.0015612 0 0.0110704 0.00198335 0 0.0105148 0.00198952 0
          0.0105987 0.00246992 0 0.0112896 0.00194242 0 0.0108494 0.00247546 0 0.00998884 0.00238645 0
          0.0100281 0.00291723 0 0.00937206 0.00274477 0 0.0103068 0.00296946 0 0.00967048 0.0034154 0
          0.0112322 0.00240652 0 0.0113646 0.00233072 0 0.0109216 0.00297045 0 0.0107537 0.00299701 0
          0.0111387 0.00283082 0 0.0111887 0.00271713 0 0.0106643 0.00352552 0 0.0107526 0.00346305 0
          0.0103754 0.00356332 0 0.0101748 0.00353985 0 0.00973497 0.00409855 0 0.0100903 0.00416416 0
          0.010215 0.00415435 0 0.00958449 0.00477844 0 0.0115496 0.000608073 0 0.011401 0.000315618 0
          0.0113066 0.00126552 0 0.0109743 0.000682595 0 0.0114155 0.0015153 0 0.0110999 0.00219624 0
          0.0111683 0.00239952 0 0.0108469 0.00170157 0 0.0106121 0.00269472 0 0.0107544 0.000351837 0
          0.0101963 0.000752538 0 0.0106654 0.00141203 0 0.00991262 0.000385525 0 0.00983067 0.00154859 0
          0.0104704 0.00245083 0 0.0100781 0.00187654 0 0.00985998 0.00297206 0 0.00965107 0.00268819 0
          0.0108118 0.00324698 0 0.0107839 0.00309345 0 0.0103514 0.00404391 0 0.0103637 0.00394281 0
          0.0102734 0.00364659 0 0.00983599 0.00454171 0 0.00979435 0.00477655 0 0.0098456 0.00472998 0
          0.009238 0.00544063 0 0.00930677 0.00536463 0 0.0101725 0.00345223 0 0.00954535 0.00402205 0
          0.00977614 0.00440023 0 0.00913903 0.00500946 0 0.00937652 0.00378677 0 0.00901125 0.00482678 0
          0.00928752 0.00527883 0 0.0086474 0.00591723 0 0.00871445 0.00607204 0 0.00856095 0.00579067 0
          0.0080328 0.00666088 0 5.80579e-06 -0.000836582 0 3.50664e-05 -0.00157832 0 0.00014499 -0.00305479 0
          3.06635e-05 -0.00168883 0 5.06461e-06 -0.000890654 0 0.000125924 -0.00325507 0 0.000232655 -0.00362629 0
          0.000427652 -0.00491926 0 0.00057087 -0.00533513 0 0.00020432 -0.00388138 0 0.000371555 -0.00524246 0
          0.000501686 -0.00571088 0 2.57777e-05 -0.0017842 0 4.24845e-06 -0.000936598 0 0.000104849 -0.00342572 0
          2.04971e-05 -0.00186289 0 0.000172688 -0.0041017 0 0.000309498 -0.00551796 0 0.000424368 -0.00603549 0
          0.000138346 -0.00428371 0 0.00034036 -0.00630374 0 0.001025 -0.00672331 0 0.000829578 -0.00644891 0
          0.00132789 -0.00766268 0 0.0015717 -0.00780932 0 0.000901022 -0.00719711 0 0.000720906 -0.00687299 0
          0.00138181 -0.00835986 0 0.00115408 -0.00816682 0 0.00190103 -0.00857949 0 0.00218905 -0.00861164 0
          0.00252879 -0.00921828 0 0.00192473 -0.0092189 0 0.00165234 -0.00914415 0 0.0021981 -0.00982515 0
          0.00076241 -0.00760647 0 0.000600643 -0.00723454 0 0.00116944 -0.00883554 0 0.000961694 -0.00859668 0
          0.000611755 -0.0079448 0 0.000938571 -0.00922873 0 0.0016291 -0.00974361 0 0.00137703 -0.00962563 0
          0.00183198 -0.0103426 0 0.00130768 -0.0101774 0 3.37131e-06 -0.000973684 0 1.49101e-05 -0.00192367 0
          8.21451e-05 -0.00356403 0 2.44712e-06 -0.00100133 0 5.81926e-05 -0.00366784 0 0.000242604 -0.00574138 0
          0.000101882 -0.00442456 0 0.000251105 -0.00651143 0 0.000171996 -0.00590923 0 1.48978e-06 -0.00101913 0
          9.10463e-06 -0.0019656 0 3.33702e-05 -0.00373557 0 3.16884e-06 -0.00198804 0 5.13156e-07 -0.00102679 0
          8.05694e-06 -0.00376618 0 6.38826e-05 -0.00452208 0 9.87959e-05 -0.00601895 0 0.000158044 -0.00665535 0
          2.49346e-05 -0.00457479 0 2.41273e-05 -0.00606887 0 6.26204e-05 -0.00673334 0 0.00047097 -0.0075278 0
          0.000451647 -0.00820681 0 0.000754223 -0.0089454 0 0.000693187 -0.00953326 0 0.000334068 -0.00774822 0
          0.000535159 -0.00920755 0 0.0010801 -0.0100163 0 0.000966018 -0.0105133 0 0.00143709 -0.0107625 0
          0.000766556 -0.01031 0 0.00102009 -0.0110783 0 0.000284678 -0.00838846 0 0.000192117 -0.00789241 0
          0.000307995 -0.00937913 0 0.00043726 -0.00974445 0 0.00011344 -0.008487 0 4.72987e-05 -0.00795821 0
          0.000174764 -0.00985909 0 7.62234e-05 -0.00945755 0 0.0004414 -0.0105023 0 0.000609652 -0.0107464 0
          0.000587614 -0.011285 0 0.000244118 -0.0108729 0 0.000109632 -0.0105903 0 0.000146332 -0.0113797 0
          0.00285646 -0.00914876 0 0.00319227 -0.00959801 0 0.00355477 -0.00943917 0 0.00251172 -0.00979402 0
          0.00277494 -0.01023 0 0.00312589 -0.010105 0 0.00426618 -0.00950137 0 0.00387393 -0.00973761 0
          0.00455753 -0.00965605 0 0.00497429 -0.00935386 0 0.0037516 -0.0101717 0 0.0033676 -0.0103789 0
          0.00437441 -0.0100139 0 0.00396196 -0.0102921 0 0.00212608 -0.0103516 0 0.00231287 -0.0107689 0
          0.0026461 -0.0106804 0 0.00170678 -0.0108125 0 0.0021244 -0.0111561 0 0.0031759 -0.010751 0
          0.00280695 -0.0109258 0 0.00370326 -0.0105843 0 0.00330248 -0.0108345 0 0.00254989 -0.01123 0
          0.00297343 -0.0110559 0 0.00522819 -0.00937227 0 0.00566406 -0.00901514 0 0.00587234 -0.00890523 0
          0.00498111 -0.00965138 0 0.00454508 -0.00998972 0 0.00510516 -0.00949201 0 0.00632186 -0.00850373 0
          0.00647776 -0.0082739 0 0.00693544 -0.00783812 0 0.0055597 -0.00910396 0 0.00563158 -0.00881917 0
          0.0060994 -0.00839146 0 0.00421699 -0.0102012 0 0.00378865 -0.0105163 0 0.00425562 -0.00999246 0
          0.00338605 -0.0106558 0 0.00470693 -0.00962271 0 0.00469454 -0.00928424 0 0.00516396 -0.0088697 0
          0.00377957 -0.0100516 0 0.00414667 -0.00926515 0 0.00181446 -0.0112063 0 0.00126104 -0.0111696 0
          0.00156978 -0.0115246 0 0.00128811 -0.0115351 0 0.0022022 -0.0113696 0 0.00188436 -0.011601 0
          0.00259109 -0.0112747 0 0.00219752 -0.0114213 0 0.00156353 -0.0117034 0 0.00183979 -0.0116058 0
          0.000796103 -0.0114173 0 0.000742228 -0.0117506 0 0.000991249 -0.0117803 0 0.000319182 -0.0115519 0
          0.000185211 -0.0118493 0 0.000397794 -0.0119193 0 0.00119011 -0.0118585 0 0.000901145 -0.0119221 0
          0.00106058 -0.0118228 0 0.00138811 -0.0116749 0 0.000477945 -0.0119985 0 0.000225232 -0.0120223 0
          0.000557785 -0.0118128 0 0.000265437 -0.0119223 0 0.00297266 -0.0109437 0 0.00250262 -0.0110081 0
          0.00333918 -0.0103986 0 0.00211087 -0.0112651 0 0.00237128 -0.0107042 0 0.00368369 -0.00966171 0
          0.00279361 -0.010384 0 0.00306509 -0.00957162 0 0.00261608 -0.00994572 0 0.00121705 -0.0114758 0
          0.00158103 -0.0112526 0 0.00136739 -0.0109045 0 0.000635617 -0.0113857 0 0.000304948 -0.0115725 0
          0.000342962 -0.0109965 0 0.00176506 -0.0106148 0 0.00150875 -0.0101319 0 0.00193677 -0.00978441 0
          0.0007099 -0.0107404 0 0.000378755 -0.0102175 0 0.000779251 -0.0099003 0 -2.80933e-06 -0.00199067 0
          -4.68897e-07 -0.00102422 0 -1.73681e-05 -0.00375923 0 -8.74189e-06 -0.00197344 0 -1.43754e-05 -0.0045819 0
          -5.08876e-05 -0.00605826 0 -3.37248e-05 -0.0067442 0 -5.34608e-05 -0.0045433 0 -0.000129549 -0.0066878 0
          -1.44253e-06 -0.00101144 0 -1.45409e-05 -0.00193661 0 -4.25259e-05 -0.00371481 0 -2.39389e-06 -0.000988648 0
          -6.70375e-05 -0.00363361 0 -0.000125126 -0.00598728 0 -9.17349e-05 -0.00445958 0 -0.000223412 -0.00656497 0
          -0.000197467 -0.00585699 0 -5.94758e-05 -0.00850094 0 -9.82075e-05 -0.00794462 0 -9.03246e-05 -0.00987547 0
          -0.000156664 -0.00944162 0 -0.000231479 -0.00843009 0 -0.000354032 -0.00979334 0 -0.000125046 -0.0108912 0
          -0.000223747 -0.0105726 0 -0.000297105 -0.0113609 0 -0.000492301 -0.0108007 0 -0.000242221 -0.00785186 0
          -0.000399979 -0.00827551 0 -0.000387174 -0.0093316 0 -0.000612384 -0.00961395 0 -0.000382561 -0.00768132 0
          -0.000611815 -0.00912915 0 -0.000553735 -0.0104496 0 -0.000852111 -0.010603 0 -0.000736044 -0.0112288 0
          -0.000875332 -0.010223 0 -0.00116383 -0.0109855 0 -3.30909e-06 -0.000956197 0 -2.01182e-05 -0.00188075 0
          -9.05237e-05 -0.00351685 0 -2.53859e-05 -0.0018067 0 -4.17423e-06 -0.000914585 0 -0.000112605 -0.00336633 0
          -0.000128611 -0.00433201 0 -0.000266785 -0.00566938 0 -0.000313869 -0.00637758 0 -0.000163502 -0.00416254 0
          -0.00033196 -0.00542734 0 -0.00039948 -0.00612851 0 -3.02557e-05 -0.00171562 0 -4.97533e-06 -0.000864468 0
          -0.000132903 -0.00318443 0 -3.46394e-05 -0.00160898 0 -0.000195822 -0.00395382 0 -0.000391868 -0.00513469 0
          -0.000478802 -0.00582165 0 -0.000224982 -0.00370919 0 -0.000550391 -0.00546189 0 -0.000562384 -0.00803955 0
          -0.000517048 -0.0074356 0 -0.000827095 -0.00883735 0 -0.000861405 -0.00934001 0 -0.000716103 -0.00772584 0
          -0.000643501 -0.0071185 0 -0.00109712 -0.00897574 0 -0.00102952 -0.0084607 0 -0.00118354 -0.00989644 0
          -0.00119894 -0.0103011 0 -0.00157381 -0.0106347 0 -0.00152724 -0.00989946 0 -0.00147334 -0.00947484 0
          -0.00195933 -0.0101818 0 -0.000858543 -0.00733926 0 -0.000759738 -0.006735 0 -0.00131555 -0.00852682 0
          -0.0012156 -0.00800513 0 -0.000987113 -0.00688599 0 -0.00151273 -0.00800041 0 -0.00183149 -0.00940449 0
          -0.00173976 -0.00896484 0 -0.00231373 -0.00963393 0 -0.00210614 -0.00882407 0 -0.000162491 -0.0115714 0
          -0.00037454 -0.0118298 0 -0.00020159 -0.0119395 0 -0.000641688 -0.0114754 0 -0.000797906 -0.0118406 0
          -0.000241351 -0.0120189 0 -0.00045401 -0.0120027 0 -0.000280861 -0.011833 0 -0.000533629 -0.0119029 0
          -0.000956979 -0.0119195 0 -0.00111524 -0.0117352 0 -0.000928623 -0.0116924 0 -0.00111118 -0.0112655 0
          -0.00138216 -0.0116241 0 -0.00146864 -0.0114392 0 -0.00112639 -0.0118634 0 -0.00165814 -0.0117017 0
          -0.00132463 -0.0117649 0 -0.00193276 -0.0115209 0 -0.0017817 -0.0116066 0 -0.00209556 -0.0115104 0
          -0.000319282 -0.0114053 0 -0.000611667 -0.0115538 0 -0.000686548 -0.0109788 0 -0.00126933 -0.0113111 0
          -0.000355856 -0.0107589 0 -0.000756853 -0.0102012 0 -0.000389903 -0.00991754 0 -0.00141621 -0.0106702 0
          -0.00155314 -0.0098359 0 -0.00151904 -0.01142 0 -0.0022002 -0.0111046 0 -0.00170568 -0.0108517 0
          -0.0024034 -0.011173 0 -0.00269899 -0.0106172 0 -0.00188103 -0.0100833 0 -0.00245517 -0.0104756 0
          -0.00269291 -0.0096566 0 -0.00297671 -0.00986548 0 -0.00156375 -0.0109448 0 -0.00198618 -0.011074 0
          -0.00194536 -0.0112933 0 -0.00199216 -0.0105182 0 -0.00247286 -0.0106026 0 -0.0024785 -0.0108533 0
          -0.00233404 -0.0113688 0 -0.00240975 -0.0112362 0 -0.00283444 -0.0111432 0 -0.00272084 -0.0111933 0
          -0.00297388 -0.010926 0 -0.00300035 -0.010758 0 -0.00346689 -0.0107574 0 -0.00352926 -0.010669 0
          -0.00238918 -0.00999247 0 -0.00292026 -0.0100322 0 -0.00297259 -0.0103109 0 -0.00274758 -0.00937591 0
          -0.00341864 -0.00967486 0 -0.00356687 -0.0103801 0 -0.0035433 -0.0101794 0 -0.00415831 -0.0102201 0
          -0.00416803 -0.0100954 0 -0.00410221 -0.00973988 0 -0.00478252 -0.00958991 0 -0.00325099 -0.0108168 0
          -0.00309755 -0.010789 0 -0.003651 -0.0102788 0 -0.00394705 -0.010369 0 -0.00404806 -0.0103566 0
          -0.00454627 -0.00984169 0 -0.00345672 -0.0101779 0 -0.00402686 -0.00955116 0 -0.00379166 -0.00938237 0
          -0.00440487 -0.00978188 0 -0.00501443 -0.00914517 0 -0.00483184 -0.00901742 0 -0.00473436 -0.0098512 0
          -0.00478083 -0.00979989 0 -0.00536933 -0.00931279 0 -0.00544514 -0.00924392 0 -0.00528363 -0.00929359 0
          -0.00592236 -0.00865388 0 -0.00579589 -0.00856746 0 -0.00607698 -0.00872085 0 -0.00666625 -0.00803966 0
          0.00749393 -0.00703683 0 0.00703355 -0.00749722 0 0.00753014 -0.00659417 0 0.00798785 -0.00611835 0
          0.00659066 -0.00753369 0 0.00611486 -0.0079914 0 0.00702513 -0.00655045 0 0.00654668 -0.00702892 0
          0.00795931 -0.00558371 0 0.0084091 -0.00510121 0 0.00831417 -0.00448479 0 0.0073957 -0.00546158 0
          0.00691989 -0.00595195 0 0.00722848 -0.00478068 0 0.00557998 -0.00796313 0 0.00509751 -0.00841292 0
          0.00594792 -0.00692395 0 0.00545758 -0.00739978 0 0.00448085 -0.00831826 0 0.00477643 -0.00723284 0
          0.00626176 -0.0057731 0 0.0057688 -0.00626609 0 0.00602616 -0.00503313 0 0.00502856 -0.00603077 0
          0.00875097 -0.00400391 0 0.00858914 -0.00331639 0 0.00900815 -0.00284496 0 0.00769646 -0.00428688 0
          0.00746764 -0.00353534 0 0.00792274 -0.00304618 0 0.00917671 -0.00164288 0 0.00878001 -0.00209747 0
          0.00888387 -0.000846989 0 0.00925409 -0.000416177 0 0.00807107 -0.00175929 0 0.00763367 -0.00223614 0