<?xml version="1.0"?>
<VTKFile type="UnstructuredGrid" version="0.1" byte_order="LittleEndian">
  <UnstructuredGrid>
    <Piece NumberOfCells="2400" NumberOfPoints="2501">
      <PointData Scalars="S_aq">
        <DataArray type="Float32" Name="S_aq" NumberOfComponents="1" format="ascii">
          0.700457 0.700476 0.700435 0.700461 0.700523 0.700521 0.700578 0.700583 0.700626 0.700632 0.700661 0.700667
          0.700685 0.70069 0.700699 0.700703 0.700705 0.700708 0.700704 0.700707 0.700699 0.700701 0.700691 0.700692
          0.700679 0.70068 0.700666 0.700667 0.700652 0.700652 0.700636 0.700637 0.70062 0.70062 0.700603 0.700603
          0.700586 0.700586 0.700569 0.700569 0.700552 0.700552 0.700534 0.700535 0.700517 0.700517 0.7005 0.7005
          0.700483 0.700483 0.700467 0.700467 0.70045 0.70045 0.700434 0.700434 0.700418 0.700418 0.700402 0.700402
          0.700387 0.700387 0.700371 0.700371 0.700356 0.700356 0.700341 0.700341 0.700327 0.700327 0.700312 0.700312
          0.700298 0.700298 0.700284 0.700284 0.70027 0.70027 0.700257 0.700257 0.700243 0.700243 0.70023 0.70023
          0.700217 0.700217 0.700204 0.700204 0.700191 0.700191 0.700179 0.700179 0.700166 0.700166 0.700154 0.700154
          0.700142 0.700142 0.700129 0.700129 0.700117 0.700117 0.700105 0.700105 0.700094 0.700094 0.700082 0.700082
          0.70007 0.70007 0.700059 0.700059 0.700047 0.700047 0.700036 0.700036 0.700024 0.700024 0.700014 0.700013
          0.700009 0.7 0.700341 0.70041 0.700525 0.700602 0.700653 0.700686 0.700705 0.700714 0.700717 0.700713
          0.700706 0.700696 0.700683 0.700669 0.700654 0.700638 0.700621 0.700604 0.700587 0.700569 0.700552 0.700535
          0.700517 0.7005 0.700483 0.700467 0.70045 0.700434 0.700418 0.700402 0.700387 0.700371 0.700356 0.700341
          0.700327 0.700312 0.700298 0.700284 0.70027 0.700257 0.700243 0.70023 0.700217 0.700204 0.700191 0.700179
          0.700166 0.700154 0.700142 0.700129 0.700117 0.700105 0.700094 0.700082 0.70007 0.700058 0.700047 0.700035
          0.700024 0.700012 0.7 0.699916 0.700413 0.700567 0.700646 0.700691 0.700717 0.700729 0.700733 0.700731
          0.700724 0.700714 0.700702 0.700688 0.700672 0.700656 0.700639 0.700622 0.700605 0.700587 0.70057 0.700552
          0.700535 0.700517 0.7005 0.700483 0.700467 0.70045 0.700434 0.700418 0.700402 0.700386 0.700371 0.700356
          0.700341 0.700327 0.700312 0.700298 0.700284 0.70027 0.700257 0.700243 0.70023 0.700217 0.700204 0.700191
          0.700179 0.700166 0.700154 0.700141 0.700129 0.700117 0.700105 0.700094 0.700082 0.70007 0.700058 0.700047
          0.700035 0.700024 0.700012 0.7 0.700504 0.700567 0.700665 0.70072 0.700748 0.70076 0.700762 0.700757
          0.700749 0.700737 0.700724 0.700709 0.700693 0.700676 0.700659 0.700642 0.700624 0.700606 0.700588 0.70057
          0.700552 0.700535 0.700517 0.7005 0.700483 0.700466 0.70045 0.700434 0.700418 0.700402 0.700386 0.700371
          0.700356 0.700341 0.700326 0.700312 0.700298 0.700284 0.70027 0.700256 0.700243 0.70023 0.700217 0.700204
          0.700191 0.700179 0.700166 0.700154 0.700141 0.700129 0.700117 0.700105 0.700094 0.700082 0.70007 0.700058
          0.700047 0.700035 0.700023 0.700012 0.7 0.700774 0.700785 0.700805 0.700818 0.700819 0.700812 0.7008
          0.700786 0.70077 0.700753 0.700736 0.700718 0.700699 0.700681 0.700662 0.700644 0.700625 0.700607 0.700589
          0.700571 0.700553 0.700535 0.700517 0.7005 0.700483 0.700466 0.70045 0.700433 0.700417 0.700401 0.700386
          0.700371 0.700356 0.700341 0.700326 0.700312 0.700298 0.700284 0.70027 0.700256 0.700243 0.70023 0.700217
          0.700204 0.700191 0.700178 0.700166 0.700154 0.700141 0.700129 0.700117 0.700105 0.700093 0.700082 0.70007
          0.700058 0.700047 0.700035 0.700023 0.700012 0.7 0.70101 0.700992 0.700961 0.700928 0.700897 0.700867
          0.70084 0.700815 0.700791 0.700769 0.700747 0.700726 0.700706 0.700686 0.700666 0.700646 0.700627 0.700608
          0.700589 0.700571 0.700553 0.700535 0.700517 0.7005 0.700483 0.700466 0.700449 0.700433 0.700417 0.700401
          0.700386 0.70037 0.700355 0.70034 0.700326 0.700311 0.700297 0.700283 0.70027 0.700256 0.700243 0.700229
          0.700216 0.700204 0.700191 0.700178 0.700166 0.700153 0.700141 0.700129 0.700117 0.700105 0.700093 0.700082
          0.70007 0.700058 0.700046 0.700035 0.700023 0.700012 0.7 0.701275 0.7012 0.701116 0.701037 0.700972
          0.700921 0.700878 0.700843 0.700812 0.700784 0.700758 0.700735 0.700712 0.70069 0.700669 0.700648 0.700629
          0.700609 0.70059 0.700571 0.700553 0.700535 0.700517 0.700499 0.700482 0.700465 0.700449 0.700432 0.700416
          0.700401 0.700385 0.70037 0.700355 0.70034 0.700325 0.700311 0.700297 0.700283 0.700269 0.700256 0.700242
          0.700229 0.700216 0.700203 0.700191 0.700178 0.700166 0.700153 0.700141 0.700129 0.700117 0.700105 0.700093
          0.700081 0.70007 0.700058 0.700046 0.700035 0.700023 0.700012 0.7 0.691138 0.70142 0.701254 0.701129
          0.701034 0.700964 0.70091 0.700866 0.700829 0.700797 0.700768 0.700742 0.700717 0.700694 0.700671 0.70065
          0.70063 0.70061 0.70059 0.700571 0.700552 0.700534 0.700516 0.700499 0.700482 0.700465 0.700448 0.700432
          0.700416 0.7004 0.700384 0.700369 0.700354 0.700339 0.700325 0.700311 0.700297 0.700283 0.700269 0.700255
          0.700242 0.700229 0.700216 0.700203 0.70019 0.700178 0.700165 0.700153 0.700141 0.700129 0.700117 0.700105
          0.700093 0.700081 0.70007 0.700058 0.700046 0.700035 0.700023 0.700012 0.7 0.372164 0.692389 0.701355
          0.701183 0.701072 0.700992 0.700931 0.700882 0.700841 0.700806 0.700775 0.700747 0.700721 0.700696 0.700673
          0.700651 0.70063 0.70061 0.70059 0.700571 0.700552 0.700534 0.700516 0.700498 0.700481 0.700464 0.700447
          0.700431 0.700415 0.700399 0.700384 0.700369 0.700354 0.700339 0.700324 0.70031 0.700296 0.700282 0.700269
          0.700255 0.700242 0.700229 0.700216 0.700203 0.70019 0.700178 0.700165 0.700153 0.700141 0.700129 0.700117
          0.700105 0.700093 0.700081 0.70007 0.700058 0.700046 0.700035 0.700023 0.700012 0.7 0.6932 0.701473
          0.701312 0.701183 0.701081 0.701003 0.700941 0.700891 0.700848 0.700812 0.700779 0.70075 0.700723 0.700697
          0.700674 0.700651 0.70063 0.700609 0.700589 0.70057 0.700551 0.700533 0.700515 0.700497 0.70048 0.700463
          0.700446 0.70043 0.700414 0.700398 0.700383 0.700368 0.700353 0.700338 0.700324 0.70031 0.700296 0.700282
          0.700268 0.700255 0.700241 0.700228 0.700215 0.700203 0.70019 0.700177 0.700165 0.700153 0.700141 0.700128
          0.700117 0.700105 0.700093 0.700081 0.700069 0.700058 0.700046 0.700035 0.700023 0.700012 0.7 0.701396
          0.70133 0.701241 0.701148 0.701066 0.700998 0.70094 0.700891 0.700849 0.700813 0.70078 0.70075 0.700723
          0.700697 0.700673 0.700651 0.700629 0.700608 0.700588 0.700569 0.70055 0.700531 0.700513 0.700496 0.700479
          0.700462 0.700445 0.700429 0.700413 0.700397 0.700382 0.700367 0.700352 0.700338 0.700323 0.700309 0.700295
          0.700281 0.700268 0.700254 0.700241 0.700228 0.700215 0.700202 0.70019 0.700177 0.700165 0.700152 0.70014
          0.700128 0.700116 0.700104 0.700093 0.700081 0.700069 0.700058 0.700046 0.700035 0.700023 0.700011 0.7
          0.701239 0.701216 0.701163 0.7011 0.701038 0.700981 0.70093 0.700885 0.700845 0.70081 0.700778 0.700748
          0.700721 0.700696 0.700672 0.700649 0.700627 0.700607 0.700587 0.700567 0.700548 0.70053 0.700512 0.700494
          0.700477 0.700461 0.700444 0.700428 0.700412 0.700396 0.700381 0.700366 0.700351 0.700337 0.700322 0.700308
          0.700294 0.700281 0.700267 0.700254 0.70024 0.700227 0.700215 0.700202 0.700189 0.700177 0.700164 0.700152
          0.70014 0.700128 0.700116 0.700104 0.700093 0.700081 0.700069 0.700058 0.700046 0.700034 0.700023 0.700011
          0.7 0.701136 0.701124 0.701092 0.70105 0.701003 0.700957 0.700913 0.700873 0.700837 0.700803 0.700772
          0.700744 0.700717 0.700693 0.700669 0.700646 0.700625 0.700604 0.700584 0.700565 0.700546 0.700528 0.70051
          0.700493 0.700476 0.700459 0.700443 0.700427 0.700411 0.700395 0.70038 0.700365 0.70035 0.700336 0.700322
          0.700307 0.700294 0.70028 0.700266 0.700253 0.70024 0.700227 0.700214 0.700201 0.700189 0.700176 0.700164
          0.700152 0.70014 0.700128 0.700116 0.700104 0.700092 0.700081 0.700069 0.700058 0.700046 0.700034 0.700023
          0.700011 0.7 0.701061 0.701053 0.701032 0.701002 0.700966 0.70093 0.700893 0.700858 0.700825 0.700794
          0.700765 0.700738 0.700712 0.700688 0.700665 0.700643 0.700622 0.700601 0.700582 0.700563 0.700544 0.700526
          0.700508 0.700491 0.700474 0.700457 0.700441 0.700425 0.70041 0.700394 0.700379 0.700364 0.700349 0.700335
          0.700321 0.700307 0.700293 0.700279 0.700266 0.700253 0.700239 0.700226 0.700214 0.700201 0.700188 0.700176
          0.700164 0.700152 0.70014 0.700128 0.700116 0.700104 0.700092 0.700081 0.700069 0.700057 0.700046 0.700034
          0.700023 0.700011 0.7 0.701001 0.700995 0.700981 0.700958 0.700931 0.700901 0.700871 0.70084 0.700811
          0.700783 0.700756 0.70073 0.700706 0.700683 0.70066 0.700639 0.700618 0.700598 0.700579 0.70056 0.700541
          0.700524 0.700506 0.700489 0.700472 0.700456 0.70044 0.700424 0.700408 0.700393 0.700378 0.700363 0.700348
          0.700334 0.70032 0.700306 0.700292 0.700279 0.700265 0.700252 0.700239 0.700226 0.700213 0.700201 0.700188
          0.700176 0.700163 0.700151 0.700139 0.700127 0.700116 0.700104 0.700092 0.70008 0.700069 0.700057 0.700046
          0.700034 0.700023 0.700011 0.7 0.700951 0.700947 0.700936 0.700919 0.700898 0.700874 0.700848 0.700822
          0.700796 0.70077 0.700745 0.700721 0.700698 0.700676 0.700655 0.700634 0.700614 0.700594 0.700575 0.700557
          0.700539 0.700521 0.700504 0.700487 0.70047 0.700454 0.700438 0.700422 0.700407 0.700391 0.700377 0.700362
          0.700347 0.700333 0.700319 0.700305 0.700291 0.700278 0.700264 0.700251 0.700238 0.700225 0.700213 0.7002
          0.700188 0.700175 0.700163 0.700151 0.700139 0.700127 0.700115 0.700104 0.700092 0.70008 0.700069 0.700057
          0.700046 0.700034 0.700023 0.700011 0.7 0.700909 0.700907 0.700898 0.700885 0.700867 0.700847 0.700826
          0.700803 0.70078 0.700757 0.700734 0.700712 0.70069 0.700669 0.700648 0.700628 0.700609 0.70059 0.700571
          0.700553 0.700535 0.700518 0.700501 0.700484 0.700468 0.700452 0.700436 0.70042 0.700405 0.70039 0.700375
          0.700361 0.700346 0.700332 0.700318 0.700304 0.700291 0.700277 0.700264 0.700251 0.700238 0.700225 0.700212
          0.7002 0.700187 0.700175 0.700163 0.700151 0.700139 0.700127 0.700115 0.700103 0.700092 0.70008 0.700069
          0.700057 0.700046 0.700034 0.700023 0.700011 0.7 0.700874 0.700871 0.700864 0.700854 0.700839 0.700823
          0.700804 0.700784 0.700764 0.700743 0.700722 0.700702 0.700681 0.700661 0.700642 0.700622 0.700604 0.700585
          0.700567 0.700549 0.700532 0.700515 0.700498 0.700482 0.700466 0.70045 0.700434 0.700419 0.700403 0.700388
          0.700374 0.700359 0.700345 0.700331 0.700317 0.700303 0.70029 0.700276 0.700263 0.70025 0.700237 0.700224
          0.700212 0.700199 0.700187 0.700175 0.700162 0.70015 0.700138 0.700127 0.700115 0.700103 0.700092 0.70008
          0.700068 0.700057 0.700046 0.700034 0.700023 0.700011 0.7 0.700842 0.70084 0.700835 0.700826 0.700814
          0.7008 0.700784 0.700766 0.700748 0.700729 0.70071 0.700691 0.700672 0.700653 0.700635 0.700616 0.700598
          0.70058 0.700563 0.700545 0.700528 0.700512 0.700495 0.700479 0.700463 0.700447 0.700432 0.700417 0.700402
          0.700387 0.700372 0.700358 0.700344 0.70033 0.700316 0.700302 0.700289 0.700275 0.700262 0.700249 0.700236
          0.700224 0.700211 0.700199 0.700186 0.700174 0.700162 0.70015 0.700138 0.700126 0.700115 0.700103 0.700091
          0.70008 0.700068 0.700057 0.700045 0.700034 0.700023 0.700011 0.7 0.700815 0.700813 0.700809 0.700801
          0.700791 0.700779 0.700765 0.700749 0.700733 0.700716 0.700698 0.700681 0.700663 0.700645 0.700627 0.70061
          0.700592 0.700575 0.700558 0.700541 0.700525 0.700508 0.700492 0.700476 0.700461 0.700445 0.70043 0.700415
          0.7004 0.700385 0.700371 0.700357 0.700343 0.700329 0.700315 0.700301 0.700288 0.700275 0.700262 0.700249
          0.700236 0.700223 0.700211 0.700198 0.700186 0.700174 0.700162 0.70015 0.700138 0.700126 0.700114 0.700103
          0.700091 0.70008 0.700068 0.700057 0.700045 0.700034 0.700023 0.700011 0.7 0.700791 0.700789 0.700785
          0.700779 0.70077 0.700759 0.700747 0.700733 0.700719 0.700703 0.700687 0.70067 0.700654 0.700637 0.70062
          0.700603 0.700587 0.70057 0.700553 0.700537 0.700521 0.700505 0.700489 0.700474 0.700458 0.700443 0.700428
          0.700413 0.700398 0.700384 0.700369 0.700355 0.700341 0.700327 0.700314 0.7003 0.700287 0.700274 0.700261
          0.700248 0.700235 0.700223 0.70021 0.700198 0.700185 0.700173 0.700161 0.700149 0.700138 0.700126 0.700114
          0.700103 0.700091 0.700079 0.700068 0.700057 0.700045 0.700034 0.700023 0.700011 0.7 0.700769 0.700768
          0.700764 0.700759 0.700751 0.700742 0.700731 0.700718 0.700705 0.700691 0.700676 0.700661 0.700645 0.700629
          0.700613 0.700597 0.700581 0.700565 0.700549 0.700533 0.700517 0.700502 0.700486 0.700471 0.700456 0.700441
          0.700426 0.700411 0.700397 0.700382 0.700368 0.700354 0.70034 0.700326 0.700313 0.700299 0.700286 0.700273
          0.70026 0.700247 0.700235 0.700222 0.70021 0.700197 0.700185 0.700173 0.700161 0.700149 0.700137 0.700126
          0.700114 0.700102 0.700091 0.700079 0.700068 0.700056 0.700045 0.700034 0.700023 0.700011 0.7 0.70075
          0.700749 0.700746 0.700741 0.700734 0.700725 0.700716 0.700704 0.700692 0.700679 0.700665 0.700651 0.700636
          0.700621 0.700606 0.700591 0.700575 0.70056 0.700544 0.700529 0.700514 0.700498 0.700483 0.700468 0.700453
          0.700438 0.700424 0.700409 0.700395 0.700381 0.700366 0.700353 0.700339 0.700325 0.700312 0.700298 0.700285
          0.700272 0.700259 0.700247 0.700234 0.700221 0.700209 0.700197 0.700185 0.700173 0.700161 0.700149 0.700137
          0.700125 0.700114 0.700102 0.700091 0.700079 0.700068 0.700056 0.700045 0.700034 0.700023 0.700011 0.7
          0.700733 0.700732 0.700729 0.700725 0.700719 0.700711 0.700702 0.700692 0.70068 0.700668 0.700656 0.700642
          0.700628 0.700614 0.700599 0.700585 0.70057 0.700555 0.70054 0.700525 0.70051 0.700495 0.70048 0.700465
          0.700451 0.700436 0.700422 0.700407 0.700393 0.700379 0.700365 0.700351 0.700338 0.700324 0.700311 0.700298
          0.700284 0.700271 0.700259 0.700246 0.700233 0.700221 0.700209 0.700196 0.700184 0.700172 0.70016 0.700148
          0.700137 0.700125 0.700113 0.700102 0.70009 0.700079 0.700068 0.700056 0.700045 0.700034 0.700022 0.700011
          0.7 0.700718 0.700717 0.700714 0.70071 0.700705 0.700698 0.70069 0.70068 0.70067 0.700659 0.700647
          0.700634 0.700621 0.700607 0.700593 0.700579 0.700565 0.70055 0.700536 0.700521 0.700507 0.700492 0.700477
          0.700463 0.700448 0.700434 0.70042 0.700405 0.700391 0.700378 0.700364 0.70035 0.700336 0.700323 0.70031
          0.700297 0.700284 0.700271 0.700258 0.700245 0.700233 0.70022 0.700208 0.700196 0.700184 0.700172 0.70016
          0.700148 0.700136 0.700125 0.700113 0.700102 0.70009 0.700079 0.700067 0.700056 0.700045 0.700034 0.700022
          0.700011 0.7 0.700704 0.700704 0.700701 0.700698 0.700693 0.700686 0.700678 0.70067 0.70066 0.700649
          0.700638 0.700626 0.700614 0.700601 0.700587 0.700574 0.70056 0.700546 0.700532 0.700517 0.700503 0.700489
          0.700475 0.70046 0.700446 0.700432 0.700418 0.700404 0.70039 0.700376 0.700362 0.700349 0.700335 0.700322
          0.700309 0.700296 0.700283 0.70027 0.700257 0.700245 0.700232 0.70022 0.700208 0.700195 0.700183 0.700171
          0.70016 0.700148 0.700136 0.700124 0.700113 0.700101 0.70009 0.700079 0.700067 0.700056 0.700045 0.700034
          0.700022 0.700011 0.7 0.700693 0.700692 0.70069 0.700687 0.700682 0.700676 0.700669 0.70066 0.700651
          0.700641 0.700631 0.700619 0.700607 0.700595 0.700582 0.700569 0.700556 0.700542 0.700528 0.700514 0.7005
          0.700486 0.700472 0.700458 0.700444 0.70043 0.700416 0.700402 0.700388 0.700375 0.700361 0.700348 0.700334
          0.700321 0.700308 0.700295 0.700282 0.700269 0.700257 0.700244 0.700232 0.700219 0.700207 0.700195 0.700183
          0.700171 0.700159 0.700147 0.700136 0.700124 0.700113 0.700101 0.70009 0.700079 0.700067 0.700056 0.700045
          0.700034 0.700022 0.700011 0.7 0.700683 0.700682 0.70068 0.700677 0.700672 0.700667 0.70066 0.700652
          0.700644 0.700634 0.700624 0.700613 0.700602 0.70059 0.700577 0.700565 0.700551 0.700538 0.700525 0.700511
          0.700497 0.700484 0.70047 0.700456 0.700442 0.700428 0.700414 0.700401 0.700387 0.700373 0.70036 0.700347
          0.700333 0.70032 0.700307 0.700294 0.700281 0.700269 0.700256 0.700243 0.700231 0.700219 0.700207 0.700195
          0.700183 0.700171 0.700159 0.700147 0.700136 0.700124 0.700113 0.700101 0.70009 0.700078 0.700067 0.700056
          0.700045 0.700033 0.700022 0.700011 0.7 0.700674 0.700673 0.700672 0.700669 0.700664 0.700659 0.700653
          0.700645 0.700637 0.700628 0.700618 0.700608 0.700597 0.700585 0.700573 0.700561 0.700548 0.700535 0.700522
          0.700508 0.700495 0.700481 0.700468 0.700454 0.70044 0.700426 0.700413 0.700399 0.700386 0.700372 0.700359
          0.700346 0.700332 0.700319 0.700306 0.700293 0.700281 0.700268 0.700255 0.700243 0.700231 0.700218 0.700206
          0.700194 0.700182 0.70017 0.700159 0.700147 0.700135 0.700124 0.700112 0.700101 0.70009 0.700078 0.700067
          0.700056 0.700045 0.700033 0.700022 0.700011 0.7 0.700667 0.700666 0.700664 0.700662 0.700658 0.700652
          0.700646 0.700639 0.700631 0.700623 0.700613 0.700603 0.700592 0.700581 0.700569 0.700557 0.700545 0.700532
          0.700519 0.700506 0.700493 0.700479 0.700466 0.700452 0.700439 0.700425 0.700411 0.700398 0.700384 0.700371
          0.700358 0.700345 0.700331 0.700318 0.700306 0.700293 0.70028 0.700267 0.700255 0.700242 0.70023 0.700218
          0.700206 0.700194 0.700182 0.70017 0.700158 0.700147 0.700135 0.700124 0.700112 0.700101 0.700089 0.700078
          0.700067 0.700056 0.700045 0.700033 0.700022 0.700011 0.7 0.700661 0.70066 0.700659 0.700656 0.700652
          0.700647 0.700641 0.700634 0.700627 0.700618 0.700609 0.700599 0.700589 0.700578 0.700566 0.700554 0.700542
          0.700529 0.700517 0.700504 0.700491 0.700477 0.700464 0.700451 0.700437 0.700424 0.70041 0.700397 0.700383
          0.70037 0.700357 0.700344 0.700331 0.700318 0.700305 0.700292 0.700279 0.700267 0.700254 0.700242 0.70023
          0.700217 0.700205 0.700193 0.700182 0.70017 0.700158 0.700146 0.700135 0.700123 0.700112 0.700101 0.700089
          0.700078 0.700067 0.700056 0.700044 0.700033 0.700022 0.700011 0.7 0.700656 0.700656 0.700654 0.700651
          0.700648 0.700643 0.700637 0.700631 0.700623 0.700615 0.700606 0.700596 0.700586 0.700575 0.700564 0.700552
          0.70054 0.700527 0.700515 0.700502 0.700489 0.700476 0.700463 0.700449 0.700436 0.700423 0.700409 0.700396
          0.700383 0.700369 0.700356 0.700343 0.70033 0.700317 0.700304 0.700291 0.700279 0.700266 0.700254 0.700241
          0.700229 0.700217 0.700205 0.700193 0.700181 0.700169 0.700158 0.700146 0.700135 0.700123 0.700112 0.7001
          0.700089 0.700078 0.700067 0.700056 0.700044 0.700033 0.700022 0.700011 0.7 0.700653 0.700653 0.700651
          0.700648 0.700645 0.70064 0.700634 0.700628 0.70062 0.700612 0.700603 0.700594 0.700584 0.700573 0.700562
          0.70055 0.700538 0.700526 0.700513 0.700501 0.700488 0.700475 0.700461 0.700448 0.700435 0.700422 0.700408
          0.700395 0.700382 0.700369 0.700355 0.700342 0.700329 0.700316 0.700304 0.700291 0.700278 0.700266 0.700253
          0.700241 0.700229 0.700217 0.700205 0.700193 0.700181 0.700169 0.700158 0.700146 0.700134 0.700123 0.700112
          0.7001 0.700089 0.700078 0.700067 0.700055 0.700044 0.700033 0.700022 0.700011 0.7 0.700651 0.700651
          0.700649 0.700646 0.700643 0.700638 0.700632 0.700626 0.700619 0.700611 0.700602 0.700592 0.700582 0.700571
          0.70056 0.700549 0.700537 0.700525 0.700512 0.7005 0.700487 0.700474 0.700461 0.700447 0.700434 0.700421
          0.700408 0.700394 0.700381 0.700368 0.700355 0.700342 0.700329 0.700316 0.700303 0.700291 0.700278 0.700265
          0.700253 0.700241 0.700229 0.700216 0.700204 0.700193 0.700181 0.700169 0.700157 0.700146 0.700134 0.700123
          0.700111 0.7001 0.700089 0.700078 0.700067 0.700055 0.700044 0.700033 0.700022 0.700011 0.7 0.700486
          0.700486 0.700485 0.700482 0.70048 0.700476 0.700471 0.700466 0.70046 0.700454 0.700447 0.70044 0.700432
          0.700423 0.700414 0.700405 0.700396 0.700387 0.700377 0.700367 0.700357 0.700347 0.700337 0.700327 0.700317
          0.700307 0.700297 0.700287 0.700277 0.700267 0.700257 0.700247 0.700238 0.700228 0.700218 0.700209 0.7002
          0.700191 0.700181 0.700172 0.700164 0.700155 0.700146 0.700137 0.700129 0.70012 0.700112 0.700104 0.700095
          0.700087 0.700079 0.700071 0.700063 0.700055 0.700047 0.700039 0.700031 0.700024 0.700016 0.700008 0.7
          0.700267 0.700267 0.700266 0.700265 0.700263 0.700261 0.700259 0.700256 0.700252 0.700248 0.700244 0.70024
          0.700235 0.70023 0.700225 0.70022 0.700215 0.700209 0.700204 0.700198 0.700192 0.700187 0.700181 0.700175
          0.700169 0.700164 0.700158 0.700152 0.700147 0.700141 0.700136 0.700131 0.700125 0.70012 0.700115 0.70011
          0.700105 0.7001 0.700095 0.70009 0.700085 0.700081 0.700076 0.700071 0.700067 0.700062 0.700058 0.700054
          0.700049 0.700045 0.700041 0.700037 0.700032 0.700028 0.700024 0.70002 0.700016 0.700012 0.700008 0.700004
          0.7 0.700138 0.700138 0.700138 0.700137 0.700136 0.700135 0.700133 0.700132 0.70013 0.700128 0.700126
          0.700123 0.700121 0.700118 0.700115 0.700113 0.70011 0.700107 0.700104 0.700101 0.700098 0.700095 0.700092
          0.700089 0.700086 0.700082 0.70008 0.700077 0.700074 0.700071 0.700068 0.700065 0.700062 0.70006 0.700057
          0.700054 0.700052 0.700049 0.700047 0.700044 0.700042 0.70004 0.700037 0.700035 0.700033 0.700031 0.700028
          0.700026 0.700024 0.700022 0.70002 0.700018 0.700016 0.700014 0.700012 0.70001 0.700008 0.700006 0.700004
          0.700002 0.7 0.700069 0.700069 0.700069 0.700068 0.700068 0.700067 0.700067 0.700066 0.700065 0.700064
          0.700063 0.700061 0.70006 0.700059 0.700057 0.700056 0.700054 0.700053 0.700051 0.70005 0.700048 0.700046
          0.700045 0.700043 0.700042 0.70004 0.700039 0.700037 0.700036 0.700034 0.700033 0.700032 0.70003 0.700029
          0.700027 0.700026 0.700025 0.700024 0.700022 0.700021 0.70002 0.700019 0.700018 0.700017 0.700016 0.700015
          0.700013 0.700012 0.700011 0.70001 0.700009 0.700008 0.700007 0.700007 0.700006 0.700005 0.700004 0.700003
          0.700002 0.700001 0.7 0.700037 0.700037 0.700037 0.700036 0.700036 0.700036 0.700035 0.700035 0.700034
          0.700034 0.700033 0.700032 0.700032 0.700031 0.70003 0.700029 0.700029 0.700028 0.700027 0.700026 0.700025
          0.700024 0.700023 0.700023 0.700022 0.700021 0.70002 0.700019 0.700019 0.700018 0.700017 0.700016 0.700016
          0.700015 0.700014 0.700013 0.700013 0.700012 0.700011 0.700011 0.70001 0.70001 0.700009 0.700009 0.700008
          0.700007 0.700007 0.700006 0.700006 0.700005 0.700005 0.700004 0.700004 0.700003 0.700003 0.700002 0.700002
          0.700001 0.700001 0.700001 0.7 0.700027 0.700027 0.700027 0.700027 0.700027 0.700027 0.700026 0.700026
          0.700026 0.700025 0.700025 0.700024 0.700024 0.700023 0.700022 0.700022 0.700021 0.700021 0.70002 0.700019
          0.700019 0.700018 0.700017 0.700017 0.700016 0.700015 0.700015 0.700014 0.700014 0.700013 0.700013 0.700012
          0.700011 0.700011 0.70001 0.70001 0.700009 0.700009 0.700008 0.700008 0.700007 0.700007 0.700007 0.700006
          0.700006 0.700005 0.700005 0.700005 0.700004 0.700004 0.700004 0.700003 0.700003 0.700002 0.700002 0.700002
          0.700001 0.700001 0.700001 0.7 0.7
        </DataArray>
        <DataArray type="Float32" Name="p_aq" NumberOfComponents="1" format="ascii">
          4.18396e+06 4.1906e+06 4.16621e+06 4.17542e+06 4.20694e+06 4.19629e+06 4.22592e+06 4.21779e+06 4.24247e+06 4.2349e+06 4.25486e+06 4.24712e+06
          4.26314e+06 4.25505e+06 4.26794e+06 4.25949e+06 4.26997e+06 4.2612e+06 4.26984e+06 4.26083e+06 4.26809e+06 4.25887e+06 4.2651e+06 4.25573e+06
          4.2612e+06 4.25172e+06 4.25663e+06 4.24706e+06 4.25156e+06 4.24193e+06 4.24615e+06 4.23647e+06 4.24049e+06 4.23077e+06 4.23467e+06 4.22492e+06
          4.22874e+06 4.21898e+06 4.22276e+06 4.21298e+06 4.21677e+06 4.20697e+06 4.21078e+06 4.20097e+06 4.20481e+06 4.19501e+06 4.1989e+06 4.18909e+06
          4.19304e+06 4.18322e+06 4.18724e+06 4.17743e+06 4.18152e+06 4.1717e+06 4.17588e+06 4.16606e+06 4.17031e+06 4.16049e+06 4.16482e+06 4.155e+06
          4.15942e+06 4.1496e+06 4.1541e+06 4.14428e+06 4.14886e+06 4.13904e+06 4.1437e+06 4.13388e+06 4.13861e+06 4.1288e+06 4.13361e+06 4.12379e+06
          4.12867e+06 4.11886e+06 4.12382e+06 4.114e+06 4.11902e+06 4.10921e+06 4.1143e+06 4.10449e+06 4.10964e+06 4.09983e+06 4.10505e+06 4.09523e+06
          4.10051e+06 4.0907e+06 4.09603e+06 4.08621e+06 4.0916e+06 4.08179e+06 4.08722e+06 4.07741e+06 4.08289e+06 4.07308e+06 4.0786e+06 4.06879e+06
          4.07436e+06 4.06455e+06 4.07015e+06 4.06034e+06 4.06598e+06 4.05617e+06 4.06184e+06 4.05203e+06 4.05773e+06 4.04792e+06 4.05366e+06 4.04384e+06
          4.04961e+06 4.03979e+06 4.04558e+06 4.03577e+06 4.04159e+06 4.03177e+06 4.03765e+06 4.02781e+06 4.03378e+06 4.0239e+06 4.03016e+06 4.02006e+06
          4.02844e+06 4.01549e+06 4.1239e+06 4.1479e+06 4.18795e+06 4.21466e+06 4.23232e+06 4.24365e+06 4.25038e+06 4.25369e+06 4.25445e+06 4.25332e+06
          4.25079e+06 4.24721e+06 4.24286e+06 4.23795e+06 4.23263e+06 4.22703e+06 4.22123e+06 4.2153e+06 4.20929e+06 4.20325e+06 4.19721e+06 4.19118e+06
          4.1852e+06 4.17926e+06 4.17339e+06 4.16759e+06 4.16186e+06 4.15621e+06 4.15064e+06 4.14516e+06 4.13975e+06 4.13443e+06 4.12919e+06 4.12403e+06
          4.11895e+06 4.11395e+06 4.10902e+06 4.10416e+06 4.09938e+06 4.09466e+06 4.09e+06 4.0854e+06 4.08087e+06 4.07639e+06 4.07196e+06 4.06758e+06
          4.06326e+06 4.05897e+06 4.05473e+06 4.05052e+06 4.04635e+06 4.04221e+06 4.0381e+06 4.03402e+06 4.02997e+06 4.02594e+06 4.02193e+06 4.01794e+06
          4.01395e+06 4.00988e+06 4.00568e+06 3.96664e+06 4.13914e+06 4.19247e+06 4.22006e+06 4.23579e+06 4.24461e+06 4.24898e+06 4.25032e+06 4.24951e+06
          4.24717e+06 4.2437e+06 4.23942e+06 4.23455e+06 4.22924e+06 4.22362e+06 4.21779e+06 4.21182e+06 4.20576e+06 4.19966e+06 4.19355e+06 4.18746e+06
          4.18139e+06 4.17538e+06 4.16942e+06 4.16354e+06 4.15773e+06 4.15199e+06 4.14634e+06 4.14077e+06 4.13528e+06 4.12988e+06 4.12456e+06 4.11932e+06
          4.11417e+06 4.10909e+06 4.10409e+06 4.09916e+06 4.09431e+06 4.08952e+06 4.08481e+06 4.08015e+06 4.07556e+06 4.07103e+06 4.06655e+06 4.06213e+06
          4.05775e+06 4.05342e+06 4.04914e+06 4.0449e+06 4.04069e+06 4.03652e+06 4.03238e+06 4.02828e+06 4.0242e+06 4.02014e+06 4.0161e+06 4.01208e+06
          4.00806e+06 4.00404e+06 3.99997e+06 3.99587e+06 4.16091e+06 4.18269e+06 4.21689e+06 4.23589e+06 4.24559e+06 4.24973e+06 4.25045e+06 4.24897e+06
          4.24603e+06 4.24207e+06 4.23739e+06 4.2322e+06 4.22664e+06 4.22082e+06 4.21482e+06 4.2087e+06 4.20252e+06 4.1963e+06 4.19008e+06 4.18387e+06
          4.17771e+06 4.1716e+06 4.16555e+06 4.15956e+06 4.15366e+06 4.14784e+06 4.14209e+06 4.13644e+06 4.13086e+06 4.12538e+06 4.11998e+06 4.11466e+06
          4.10943e+06 4.10427e+06 4.0992e+06 4.0942e+06 4.08928e+06 4.08443e+06 4.07965e+06 4.07494e+06 4.07029e+06 4.0657e+06 4.06117e+06 4.0567e+06
          4.05228e+06 4.0479e+06 4.04358e+06 4.0393e+06 4.03506e+06 4.03086e+06 4.02669e+06 4.02255e+06 4.01844e+06 4.01436e+06 4.0103e+06 4.00626e+06
          4.00223e+06 3.9982e+06 3.99417e+06 3.99012e+06 3.98606e+06 4.24502e+06 4.24877e+06 4.25591e+06 4.26025e+06 4.26048e+06 4.25799e+06 4.25393e+06
          4.24897e+06 4.24347e+06 4.23762e+06 4.23155e+06 4.22532e+06 4.21898e+06 4.21258e+06 4.20614e+06 4.1997e+06 4.19326e+06 4.18686e+06 4.1805e+06
          4.17419e+06 4.16795e+06 4.16178e+06 4.15569e+06 4.14968e+06 4.14375e+06 4.13791e+06 4.13216e+06 4.1265e+06 4.12093e+06 4.11544e+06 4.11005e+06
          4.10473e+06 4.0995e+06 4.09436e+06 4.08929e+06 4.0843e+06 4.07938e+06 4.07454e+06 4.06976e+06 4.06505e+06 4.06041e+06 4.05583e+06 4.0513e+06
          4.04683e+06 4.04242e+06 4.03805e+06 4.03373e+06 4.02945e+06 4.02521e+06 4.02101e+06 4.01685e+06 4.01271e+06 4.0086e+06 4.00452e+06 4.00046e+06
          3.99641e+06 3.99238e+06 3.98835e+06 3.98432e+06 3.98029e+06 3.97625e+06 4.31724e+06 4.31093e+06 4.30005e+06 4.28878e+06 4.27784e+06 4.26761e+06
          4.25816e+06 4.24941e+06 4.24118e+06 4.23336e+06 4.22583e+06 4.21852e+06 4.21138e+06 4.20437e+06 4.19748e+06 4.19069e+06 4.184e+06 4.1774e+06
          4.17089e+06 4.16448e+06 4.15815e+06 4.15193e+06 4.14579e+06 4.13975e+06 4.13381e+06 4.12796e+06 4.1222e+06 4.11653e+06 4.11096e+06 4.10548e+06
          4.10008e+06 4.09478e+06 4.08955e+06 4.08441e+06 4.07935e+06 4.07437e+06 4.06946e+06 4.06462e+06 4.05985e+06 4.05515e+06 4.05052e+06 4.04594e+06
          4.04142e+06 4.03696e+06 4.03254e+06 4.02818e+06 4.02386e+06 4.01959e+06 4.01536e+06 4.01116e+06 4.007e+06 4.00286e+06 3.99876e+06 3.99468e+06